Title
81358
    1CHL1    C3    1   0.796   4.469  10.274 -0.3681  0.2689  0.1067
    1CHL1    H3    2   0.905   4.483  10.291  0.0242 -2.9816  0.9623
    1CHL1    O3    3   0.728   4.511  10.391 -0.3721 -0.0109  0.1377
    1CHL1   H3'    4   0.753   4.441  10.452 -1.5668 -0.4934  0.1073
    1CHL1    C4    5   0.738   4.549  10.157  0.0036  0.0386  0.8627
    1CHL1   H4A    6   0.628   4.539  10.141  0.0055  1.9649 -0.7843
    1CHL1   H4B    7   0.755   4.657  10.175 -0.5464  0.4228 -0.7220
    1CHL1    C5    8   0.795   4.506  10.019  0.5260  0.1304  0.7409
    1CHL1    C6    9   0.856   4.587   9.932 -0.8546 -0.0966 -0.1925
    1CHL1    H6   10   0.871   4.694   9.953 -0.0275 -0.6574  2.4380
    1CHL1    C7   11   0.913   4.542   9.797  0.5245  0.1392 -0.1666
    1CHL1   H7A   12   0.909   4.627   9.724  0.0362 -0.0219 -0.3335
    1CHL1   H7B   13   1.020   4.517   9.814  0.2308 -0.7127  0.4851
    1CHL1    C8   14   0.845   4.411   9.741  0.4443  0.2411  0.0487
    1CHL1    H8   15   0.739   4.430   9.716  0.6387 -0.2404 -1.2111
    1CHL1   C14   16   0.920   4.355   9.619 -0.2966 -0.1380  0.3758
    1CHL1   H14   17   1.024   4.334   9.651  0.2180  1.0229 -0.4701
    1CHL1   C15   18   0.937   4.455   9.502  0.1443  0.7892  0.0918
    1CHL1  H15A   19   0.838   4.504   9.497 -0.6205 -0.6165  0.8634
    1CHL1  H15B   20   1.014   4.530   9.530  1.7381 -0.6225 -0.3462
    1CHL1   C16   21   0.980   4.365   9.384 -0.0053 -0.7417  0.4940
    1CHL1  H16A   22   0.910   4.376   9.298  0.8491  1.9904  0.0332
    1CHL1  H16B   23   1.075   4.399   9.337 -1.1830 -2.4771 -3.5825
    1CHL1   C17   24   0.981   4.211   9.438  0.5369  0.0849  0.1220
    1CHL1   H17   25   1.086   4.218   9.472  0.6012  3.1779 -0.4172
    1CHL1   C13   26   0.885   4.221   9.558  0.6273  0.6803 -0.5576
    1CHL1   C18   27   0.740   4.218   9.504 -0.0171 -0.2430  0.1306
    1CHL1  H18A   28   0.675   4.253   9.587  0.5296  1.6636 -0.2085
    1CHL1  H18B   29   0.720   4.274   9.410  0.5186 -1.1347 -0.5382
    1CHL1  H18C   30   0.703   4.114   9.490  0.0078  0.0915 -3.1481
    1CHL1   C12   31   0.891   4.114   9.675 -0.0269 -0.0325  0.3668
    1CHL1  H12A   32   0.842   4.019   9.646  1.7644 -1.4446  1.7212
    1CHL1  H12B   33   0.996   4.096   9.705 -0.2031 -0.1301  0.9401
    1CHL1   C11   34   0.816   4.156   9.804 -0.3501  0.3771  0.6240
    1CHL1  H11A   35   0.710   4.171   9.777 -0.2846 -0.3071 -0.0371
    1CHL1  H11B   36   0.833   4.083   9.886  2.2389  1.4212  1.1173
    1CHL1    C9   37   0.852   4.298   9.854  0.4107  0.5449  0.7385
    1CHL1    H9   38   0.961   4.297   9.875  0.1991 -1.9660  2.1318
    1CHL1   C10   39   0.786   4.354   9.988  0.7760  0.1091 -0.3018
    1CHL1   C19   40   0.629   4.322   9.988 -0.2069  0.8298 -0.8091
    1CHL1  H19A   41   0.581   4.355  10.082  1.1549 -1.5856  0.8253
    1CHL1  H19B   42   0.567   4.365   9.906 -2.0048 -0.0845  0.0051
    1CHL1  H19C   43   0.620   4.212   9.983  0.6674  0.7832 -1.5855
    1CHL1    C1   44   0.848   4.275  10.109 -0.5835 -0.3836  0.7983
    1CHL1   H1A   45   0.836   4.166  10.091 -0.1231 -0.5637  1.5411
    1CHL1   H1B   46   0.956   4.300  10.113 -0.8121  1.1538 -1.0294
    1CHL1    C2   47   0.788   4.310  10.246  0.8712  0.0627  0.0616
    1CHL1   H2A   48   0.851   4.262  10.325  0.3766 -1.6439 -0.5322
    1CHL1   H2B   49   0.678   4.293  10.247  1.0137 -1.1728 -1.6710
    1CHL1   C20   50   0.970   4.097   9.338 -0.3437  0.3139 -0.6010
    1CHL1   H20   51   0.863   4.078   9.316 -0.6660  1.2861  0.0921
    1CHL1   C21   52   1.015   3.971   9.407  0.1942  0.1351 -0.4717
    1CHL1  H21A   53   0.966   3.943   9.503 -0.8599  1.4910 -0.5936
    1CHL1  H21B   54   1.122   3.985   9.432  0.5865  0.3266 -2.1562
    1CHL1  H21C   55   1.005   3.882   9.342 -2.2813 -0.7434  0.9668
    1CHL1   C22   56   1.051   4.126   9.205  0.4554  0.3343  0.0882
    1CHL1  H22A   57   1.001   4.215   9.161  0.4974  0.5452  0.4604
    1CHL1  H22B   58   1.152   4.159   9.236  0.0775  0.8930  0.7353
    1CHL1   C23   59   1.056   4.008   9.106  0.3477 -0.2634 -0.1663
    1CHL1  H23A   60   1.101   3.922   9.160  1.1390 -0.9102 -1.7848
    1CHL1  H23B   61   0.949   3.981   9.090 -0.0263 -0.9731  2.9431
    1CHL1   C24   62   1.138   4.041   8.984  0.1459  0.3140 -0.3075
    1CHL1  H24A   63   1.101   4.133   8.935  1.7674  0.5956 -1.0544
    1CHL1  H24B   64   1.247   4.047   9.008  0.1621 -0.4298 -0.1497
    1CHL1   C25   65   1.124   3.925   8.874 -0.3354 -0.0404 -0.3632
    1CHL1   H25   66   1.020   3.927   8.834 -0.9598  2.0215  1.2543
    1CHL1   C26   67   1.210   3.955   8.748  0.2224 -0.2256 -0.8530
    1CHL1  H26A   68   1.162   3.898   8.666  0.2524 -1.4083 -0.0600
    1CHL1  H26B   69   1.206   4.062   8.718 -1.1381  0.2443  0.8941
    1CHL1  H26C   70   1.313   3.913   8.758 -0.0571 -0.2901  3.2003
    1CHL1   C27   71   1.157   3.788   8.932 -0.1281 -0.3447 -0.1472
    1CHL1  H27A   72   1.130   3.707   8.860  1.5644  0.1184 -1.3582
    1CHL1  H27B   73   1.268   3.788   8.942  0.1431 -2.2363 -2.3084
    1CHL1  H27C   74   1.108   3.768   9.030  0.9378  1.8102  0.8959
    2CHL1    C3   75   0.173   1.249  10.124  0.3103 -0.2965 -0.0341
    2CHL1    H3   76   0.071   1.231  10.082  0.5045 -0.5449 -0.4072
    2CHL1    O3   77   0.157   1.234  10.260  0.5221  0.3475  0.4487
    2CHL1   H3'   78   0.245   1.262  10.284  0.3713  2.7346 -1.4157
    2CHL1    C4   79   0.280   1.159  10.058 -0.1108 -0.4359 -0.2712
    2CHL1   H4A   80   0.378   1.194  10.095  0.1980 -1.8944  0.3675
    2CHL1   H4B   81   0.265   1.052  10.084  0.5301 -1.1665 -2.6352
    2CHL1    C5   82   0.266   1.176   9.905  0.0543  0.3094  0.0822
    2CHL1    C6   83   0.237   1.065   9.829  0.4471  0.2466 -0.1610
    2CHL1    H6   84   0.217   0.969   9.877 -0.8862  0.4244 -0.2984
    2CHL1    C7   85   0.211   1.069   9.683  0.9902  0.1728  0.1848
    2CHL1   H7A   86   0.265   0.990   9.626 -0.1504  0.0462 -0.7739
    2CHL1   H7B   87   0.104   1.056   9.656  1.5757 -0.5306 -2.0941
    2CHL1    C8   88   0.263   1.197   9.621 -0.1988  0.1371 -0.7277
    2CHL1    H8   89   0.373   1.196   9.608 -0.1294 -1.8424 -0.4164
    2CHL1   C14   90   0.203   1.208   9.481  0.4907 -0.1652  0.1671
    2CHL1   H14   91   0.093   1.211   9.492  0.3763  2.7067 -0.8556
    2CHL1   C15   92   0.237   1.090   9.378  0.3143 -0.0411 -0.2274
    2CHL1  H15A   93   0.345   1.063   9.385  0.5211  0.7463 -0.2866
    2CHL1  H15B   94   0.172   1.002   9.398  1.0178 -0.8124 -1.2504
    2CHL1   C16   95   0.217   1.153   9.238  0.4687 -0.7379  0.5699
    2CHL1  H16A   96   0.313   1.139   9.184  0.1920 -1.0474  0.1601
    2CHL1  H16B   97   0.137   1.105   9.178  0.6174 -0.9480  0.5364
    2CHL1   C17   98   0.191   1.306   9.256  1.0285  0.2373  0.4313
    2CHL1   H17   99   0.081   1.319   9.269  0.1808 -1.4930 -3.4115
    2CHL1   C13  100   0.246   1.335   9.396  0.0964  0.0532  0.3980
    2CHL1   C18  101   0.402   1.339   9.381  0.4599  0.4865  0.0516
    2CHL1  H18A  102   0.431   1.403   9.294 -1.4210  0.0773 -0.9360
    2CHL1  H18B  103   0.447   1.374   9.476 -1.0054  1.3064  0.4796
    2CHL1  H18C  104   0.445   1.245   9.341  1.5810  1.8876 -2.2976
    2CHL1   C12  105   0.190   1.458   9.481  0.0603  0.2642  0.4061
    2CHL1  H12A  106   0.228   1.548   9.429  1.0981  0.1661  0.9724
    2CHL1  H12B  107   0.081   1.447   9.463  0.4561 -0.3365 -1.9490
    2CHL1   C11  108   0.238   1.454   9.632  0.3505 -0.9392 -0.0947
    2CHL1  H11A  109   0.343   1.488   9.633 -0.1579  0.8383 -1.4289
    2CHL1  H11B  110   0.195   1.538   9.692  1.4874  0.4218 -1.1169
    2CHL1    C9  111   0.220   1.322   9.705  0.2983  0.3837 -0.0733
    2CHL1    H9  112   0.111   1.298   9.709  0.0210  1.7133  1.9714
    2CHL1   C10  113   0.280   1.322   9.847 -0.4678 -0.3317  0.3080
    2CHL1   C19  114   0.426   1.363   9.858 -0.5227 -0.4923 -0.3409
    2CHL1  H19A  115   0.491   1.307   9.786 -1.6586  0.7532 -2.4406
    2CHL1  H19B  116   0.431   1.471   9.835 -0.8526 -0.2680  0.6259
    2CHL1  H19C  117   0.471   1.351   9.959 -0.9620  0.1406 -0.0668
    2CHL1    C1  118   0.198   1.412   9.940 -0.1014  0.4614 -1.0080
    2CHL1   H1A  119   0.230   1.517   9.923 -0.1345  0.1957 -2.9274
    2CHL1   H1B  120   0.089   1.408   9.916 -0.2025 -1.7957 -0.3505
    2CHL1    C2  121   0.202   1.396  10.090  0.3014 -0.4651  0.1800
    2CHL1   H2A  122   0.138   1.470  10.142  0.5948  0.5106 -0.8023
    2CHL1   H2B  123   0.311   1.408  10.110  0.3357 -2.5199  1.4433
    2CHL1   C20  124   0.225   1.395   9.130  0.4828  0.1480 -0.5737
    2CHL1   H20  125   0.336   1.401   9.117  0.4863  2.3629  0.1037
    2CHL1   C21  126   0.177   1.541   9.152 -0.4819 -0.1138  0.4532
    2CHL1  H21A  127   0.201   1.599   9.060 -0.7359 -1.3959 -0.4572
    2CHL1  H21B  128   0.237   1.589   9.232  2.2895 -1.8377 -0.4189
    2CHL1  H21C  129   0.068   1.553   9.167 -0.5683  0.5547 -0.6420
    2CHL1   C22  130   0.151   1.348   9.001 -0.5808 -0.3639 -0.2245
    2CHL1  H22A  131   0.183   1.243   8.986 -0.0171 -1.1738  4.7271
    2CHL1  H22B  132   0.040   1.349   9.007 -0.5985  0.3088 -0.6117
    2CHL1   C23  133   0.186   1.423   8.875  0.0433 -0.0872  0.1265
    2CHL1  H23A  134   0.137   1.522   8.869 -1.2670 -0.7258 -0.0646
    2CHL1  H23B  135   0.296   1.413   8.862  0.0948  0.2612  0.2887
    2CHL1   C24  136   0.138   1.345   8.747  0.1151 -0.4365 -0.3029
    2CHL1  H24A  137   0.031   1.364   8.724  0.0949  0.3799  0.4120
    2CHL1  H24B  138   0.177   1.409   8.665 -1.2641 -1.0269 -1.4760
    2CHL1   C25  139   0.170   1.198   8.717 -0.3346 -0.0014 -0.0513
    2CHL1   H25  140   0.124   1.149   8.806  0.3122 -0.2902  0.1300
    2CHL1   C26  141   0.092   1.151   8.591 -0.4768 -0.0504  0.0067
    2CHL1  H26A  142   0.114   1.219   8.506 -1.8679  0.4937  0.0513
    2CHL1  H26B  143   0.115   1.048   8.558 -2.5725  0.1840 -2.4799
    2CHL1  H26C  144  -0.014   1.147   8.625 -0.7316 -2.3529 -0.8878
    2CHL1   C27  145   0.320   1.171   8.708 -0.2011 -0.6983 -0.1844
    2CHL1  H27A  146   0.341   1.063   8.693 -0.3455 -0.4695 -2.3523
    2CHL1  H27B  147   0.356   1.226   8.619 -0.1355 -0.0332  0.2467
    2CHL1  H27C  148   0.375   1.199   8.800 -1.9207  0.7429  0.4529
    3CHL1    C3  149   1.295   0.882  10.338 -0.1286  0.0859 -0.4933
    3CHL1    H3  150   1.198   0.833  10.314  0.0414 -1.7859  2.1128
    3CHL1    O3  151   1.302   0.904  10.477 -0.2898  0.2058 -0.2840
    3CHL1   H3'  152   1.382   0.955  10.494  1.5351 -2.0147 -1.6790
    3CHL1    C4  153   1.413   0.795  10.284 -0.0948 -0.1642 -0.6008
    3CHL1   H4A  154   1.506   0.846  10.316 -0.7078  1.2850 -1.0170
    3CHL1   H4B  155   1.411   0.700  10.340 -1.1690  0.8769  1.2226
    3CHL1    C5  156   1.403   0.791  10.135 -0.3827  0.4890 -0.8707
    3CHL1    C6  157   1.388   0.670  10.077  0.7476  0.8292  0.4080
    3CHL1    H6  158   1.372   0.575  10.129  0.2664  1.0149  0.6072
    3CHL1    C7  159   1.370   0.666   9.932 -0.2786 -0.6126  0.1569
    3CHL1   H7A  160   1.427   0.578   9.897  1.3652  0.1164  0.9070
    3CHL1   H7B  161   1.262   0.649   9.910 -0.2535 -0.3636 -0.1703
    3CHL1    C8  162   1.430   0.778   9.844 -0.1637 -0.4564  0.0112
    3CHL1    H8  163   1.541   0.780   9.856 -0.0123  1.0974 -1.2434
    3CHL1   C14  164   1.383   0.772   9.702  0.4815  0.3588  0.1892
    3CHL1   H14  165   1.274   0.794   9.705  0.2080 -0.6289 -1.3271
    3CHL1   C15  166   1.394   0.637   9.621 -0.6080  0.2372 -1.4172
    3CHL1  H15A  167   1.496   0.595   9.635 -0.7760 -0.3971 -2.0323
    3CHL1  H15B  168   1.311   0.563   9.633  0.4169 -0.5949  1.2133
    3CHL1   C16  169   1.391   0.692   9.477  0.5938  0.0690  0.5154
    3CHL1  H16A  170   1.475   0.662   9.411 -0.0256 -0.4229 -0.0679
    3CHL1  H16B  171   1.302   0.651   9.425  0.9863  1.6740 -1.5739
    3CHL1   C17  172   1.376   0.847   9.475 -0.2182  0.0701 -0.2404
    3CHL1   H17  173   1.265   0.846   9.470 -0.3231 -3.9136 -0.0331
    3CHL1   C13  174   1.434   0.890   9.614 -0.6714  0.0651  0.2647
    3CHL1   C18  175   1.586   0.884   9.602  0.3136 -0.8544 -1.0349
    3CHL1  H18A  176   1.628   0.799   9.545 -0.9072 -0.4394 -2.6286
    3CHL1  H18B  177   1.638   0.977   9.569 -0.1883 -0.0112  0.4423
    3CHL1  H18C  178   1.640   0.869   9.698 -0.1536 -1.6936 -0.9012
    3CHL1   C12  179   1.390   1.026   9.672  0.2536 -0.8250 -0.8109
    3CHL1  H12A  180   1.427   1.111   9.610  0.7593 -0.7072 -0.3487
    3CHL1  H12B  181   1.280   1.024   9.660  0.3014  0.0808 -1.5290
    3CHL1   C11  182   1.424   1.039   9.823  0.2272  0.8440 -0.3656
    3CHL1  H11A  183   1.534   1.048   9.836  0.0323  1.7039  0.8008
    3CHL1  H11B  184   1.377   1.127   9.872 -1.1542 -0.3851  0.6072
    3CHL1    C9  185   1.380   0.914   9.905  0.3015  0.2777 -0.2474
    3CHL1    H9  186   1.269   0.918   9.900  0.0857  1.3234  3.0284
    3CHL1   C10  187   1.410   0.922  10.061  0.4753 -0.1919  0.5764
    3CHL1   C19  188   1.551   0.973  10.085 -0.0477 -0.5515 -0.1135
    3CHL1  H19A  189   1.624   0.933  10.011  1.4075  0.8446  0.5046
    3CHL1  H19B  190   1.564   1.082  10.066 -0.4453  0.0167  2.5362
    3CHL1  H19C  191   1.603   0.955  10.181  0.7008 -3.2640 -0.9390
    3CHL1    C1  192   1.301   1.017  10.125  0.4113  0.1474 -0.0604
    3CHL1   H1A  193   1.315   1.123  10.093 -0.7682  0.2056 -0.4568
    3CHL1   H1B  194   1.198   0.986  10.095  0.3538  0.2012  0.0800
    3CHL1    C2  195   1.312   1.018  10.280  0.2984 -0.0009 -0.5901
    3CHL1   H2A  196   1.231   1.090  10.308  1.0508  0.9386 -0.7562
    3CHL1   H2B  197   1.407   1.061  10.318 -0.6798  0.2987  1.6442
    3CHL1   C20  198   1.423   0.921   9.350  0.3047  0.1948  0.4529
    3CHL1   H20  199   1.459   1.022   9.381 -0.5472  0.6699 -0.0627
    3CHL1   C21  200   1.314   0.945   9.258  0.1874 -0.0019  0.4623
    3CHL1  H21A  201   1.221   0.984   9.304 -1.1309 -1.7197 -0.6304
    3CHL1  H21B  202   1.279   0.849   9.214 -1.4072 -0.4547  2.5484
    3CHL1  H21C  203   1.338   1.022   9.182 -2.0616  1.7381  1.4101
    3CHL1   C22  204   1.538   0.857   9.269 -0.2628  0.7576  0.5359
    3CHL1  H22A  205   1.609   0.805   9.337  0.6388  0.6397 -0.4721
    3CHL1  H22B  206   1.486   0.786   9.201  0.6069  0.9771 -0.3931
    3CHL1   C23  207   1.626   0.951   9.180  0.5044  0.1311 -0.6783
    3CHL1  H23A  208   1.565   1.018   9.116 -0.8054 -0.9949 -0.6566
    3CHL1  H23B  209   1.692   1.004   9.253  0.6179  0.5263 -1.0622
    3CHL1   C24  210   1.725   0.879   9.088  0.3275  0.1451 -0.4787
    3CHL1  H24A  211   1.790   0.806   9.141 -0.8932 -1.6950 -1.4244
    3CHL1  H24B  212   1.669   0.814   9.017  2.0336 -0.9995 -0.8248
    3CHL1   C25  213   1.814   0.963   8.997  0.6397  0.2454 -0.1553
    3CHL1   H25  214   1.747   1.037   8.950 -0.4604  0.4276  1.5920
    3CHL1   C26  215   1.918   1.034   9.080  0.0317  0.4784 -0.4209
    3CHL1  H26A  216   1.987   0.960   9.126  0.1168 -0.9792 -2.7403
    3CHL1  H26B  217   1.983   1.103   9.023  1.7040 -0.1445  0.6372
    3CHL1  H26C  218   1.868   1.091   9.161  0.7681  1.2272 -0.4835
    3CHL1   C27  219   1.875   0.879   8.887 -0.0601 -0.7985  0.0005
    3CHL1  H27A  220   1.931   0.796   8.935  0.5775  0.6742  1.9366
    3CHL1  H27B  221   1.802   0.833   8.818 -2.4890  0.7218  1.4324
    3CHL1  H27C  222   1.951   0.929   8.822  1.7667 -0.9156  1.9141
    4CHL1    C3  223   1.675   3.476  10.541  0.5781  1.0219  0.7353
    4CHL1    H3  224   1.752   3.556  10.527  1.6381 -0.0296  0.4148
    4CHL1    O3  225   1.642   3.460  10.677 -0.1885 -0.0100  0.3214
    4CHL1   H3'  226   1.721   3.420  10.712  1.6741  2.4538 -0.7269
    4CHL1    C4  227   1.547   3.508  10.461  0.2064  0.7030 -0.0541
    4CHL1   H4A  228   1.484   3.421  10.488 -1.5619  1.6936 -0.8068
    4CHL1   H4B  229   1.492   3.596  10.502 -0.7327  0.1583 -0.1187
    4CHL1    C5  230   1.574   3.510  10.313 -0.3938  0.1392 -0.1345
    4CHL1    C6  231   1.539   3.610  10.237  0.2876 -0.2959 -0.5663
    4CHL1    H6  232   1.489   3.694  10.288 -0.3377 -0.8145 -0.3115
    4CHL1    C7  233   1.553   3.618  10.095 -1.1203 -0.1250  0.0396
    4CHL1   H7A  234   1.468   3.665  10.042  0.2159 -0.0291 -2.1865
    4CHL1   H7B  235   1.639   3.686  10.073 -0.1570 -1.4999 -0.6222
    4CHL1    C8  236   1.587   3.483  10.027 -0.1604 -0.0655 -0.8049
    4CHL1    H8  237   1.487   3.436  10.014 -1.7197  2.4929  0.9856
    4CHL1   C14  238   1.655   3.502   9.891 -0.2260 -0.0978  0.3375
    4CHL1   H14  239   1.756   3.535   9.920  0.1361 -0.5324 -0.4072
    4CHL1   C15  240   1.600   3.604   9.796  0.6513  0.4913  0.2024
    4CHL1  H15A  241   1.500   3.558   9.780  1.4682 -1.6996  0.9740
    4CHL1  H15B  242   1.591   3.710   9.826  3.5393  0.6051  1.0084
    4CHL1   C16  243   1.674   3.574   9.662 -0.5111  0.3470 -0.5407
    4CHL1  H16A  244   1.598   3.584   9.581 -1.1802  0.3916  0.0791
    4CHL1  H16B  245   1.746   3.650   9.624 -1.1123  0.9613 -0.4702
    4CHL1   C17  246   1.743   3.439   9.671 -0.1836  0.6516 -0.5496
    4CHL1   H17  247   1.849   3.466   9.692  0.4452 -0.4597 -2.0941
    4CHL1   C13  248   1.694   3.377   9.808 -0.2967  0.1534  0.7074
    4CHL1   C18  249   1.570   3.282   9.776 -0.0577  0.0548  0.3300
    4CHL1  H18A  250   1.484   3.327   9.721 -1.0961 -0.2233  1.6654
    4CHL1  H18B  251   1.607   3.190   9.727  2.3758  1.8596 -1.4531
    4CHL1  H18C  252   1.519   3.258   9.872 -1.7964 -1.1118 -0.8140
    4CHL1   C12  253   1.797   3.301   9.897 -0.7420  0.9251 -1.0991
    4CHL1  H12A  254   1.819   3.200   9.858 -1.9219 -0.5375  1.7631
    4CHL1  H12B  255   1.879   3.374   9.913 -1.3909  1.2842  0.8758
    4CHL1   C11  256   1.735   3.276  10.039  0.4779  0.7224  0.0061
    4CHL1  H11A  257   1.654   3.201  10.023 -0.7446  1.9920  0.0510
    4CHL1  H11B  258   1.810   3.231  10.107 -2.7411 -1.5829  2.3425
    4CHL1    C9  259   1.679   3.402  10.111 -0.5126 -0.4573  0.1816
    4CHL1    H9  260   1.767   3.469  10.125 -1.1975  0.3817  0.5249
    4CHL1   C10  261   1.640   3.378  10.265 -0.0535 -0.1352 -0.0669
    4CHL1   C19  262   1.542   3.251  10.268  0.6374  0.3899 -0.1878
    4CHL1  H19A  263   1.586   3.154  10.237  0.3021 -0.4305  1.7460
    4CHL1  H19B  264   1.486   3.245  10.364  2.3330 -0.5159  0.8012
    4CHL1  H19C  265   1.456   3.268  10.200  3.0814  1.9553 -3.1121
    4CHL1    C1  266   1.767   3.339  10.354  0.1376 -0.9967  0.4887
    4CHL1   H1A  267   1.810   3.241  10.326  1.9960  0.3776 -1.9529
    4CHL1   H1B  268   1.850   3.413  10.347 -2.3111  1.8056 -1.8249
    4CHL1    C2  269   1.729   3.343  10.501 -0.1313  0.6433  0.3326
    4CHL1   H2A  270   1.825   3.321  10.552  1.2065 -2.6118 -3.0812
    4CHL1   H2B  271   1.660   3.258  10.520 -0.0427  0.4230 -0.2791
    4CHL1   C20  272   1.767   3.346   9.547 -0.4391  0.3563  0.4312
    4CHL1   H20  273   1.687   3.270   9.534 -0.6786  0.9569 -2.0135
    4CHL1   C21  274   1.897   3.260   9.566  0.2161 -0.1540 -0.1067
    4CHL1  H21A  275   1.910   3.188   9.483 -0.6811 -1.5758  0.9503
    4CHL1  H21B  276   1.875   3.193   9.652  2.1163 -1.2775 -0.4468
    4CHL1  H21C  277   1.988   3.322   9.578 -1.3490  1.7594  3.1885
    4CHL1   C22  278   1.768   3.425   9.409 -0.2671  0.0743 -1.2219
    4CHL1  H22A  279   1.678   3.490   9.406 -1.3624 -1.3381 -0.1007
    4CHL1  H22B  280   1.858   3.485   9.383 -0.0710  0.6108  0.5791
    4CHL1   C23  281   1.748   3.333   9.292 -0.2473 -0.6902  0.4844
    4CHL1  H23A  282   1.820   3.252   9.266 -1.6076 -1.3200 -1.5776
    4CHL1  H23B  283   1.654   3.275   9.299 -0.2633 -1.0151 -1.7781
    4CHL1   C24  284   1.736   3.421   9.164 -0.1430 -0.0709  0.3581
    4CHL1  H24A  285   1.637   3.471   9.174 -0.1835 -0.5196  2.8551
    4CHL1  H24B  286   1.806   3.507   9.154 -2.3990  1.7280 -1.0682
    4CHL1   C25  287   1.726   3.347   9.027  0.0268  0.9141  0.0549
    4CHL1   H25  288   1.651   3.266   9.037  0.6315  0.5661  2.3036
    4CHL1   C26  289   1.665   3.445   8.921  0.7166  0.1909  0.4363
    4CHL1  H26A  290   1.557   3.449   8.946  1.0796 -1.5654  2.6270
    4CHL1  H26B  291   1.703   3.549   8.926  0.1294  0.3830  1.1088
    4CHL1  H26C  292   1.670   3.406   8.817 -2.5588 -1.6185  0.8495
    4CHL1   C27  293   1.862   3.292   8.987 -0.7555  0.8775  0.0425
    4CHL1  H27A  294   1.871   3.268   8.879  1.3560 -0.3643  0.4193
    4CHL1  H27B  295   1.941   3.370   8.987  2.8194 -2.3567  2.4051
    4CHL1  H27C  296   1.897   3.211   9.055 -1.6143  1.4522  1.1938
    5CHL1    C3  297   3.316   0.798  10.198 -0.1432  0.0838 -0.2013
    5CHL1    H3  298   3.426   0.805  10.213 -0.1480  1.5169 -0.7184
    5CHL1    O3  299   3.275   0.761  10.327 -0.3556 -0.4197  0.6921
    5CHL1   H3'  300   3.329   0.683  10.345 -0.1548 -0.2988  0.6152
    5CHL1    C4  301   3.261   0.934  10.149  0.0894  0.8456 -0.3881
    5CHL1   H4A  302   3.153   0.928  10.125  0.2336 -3.0071 -0.8454
    5CHL1   H4B  303   3.278   1.010  10.228  2.0872  0.7587 -0.6822
    5CHL1    C5  304   3.330   0.977  10.024 -0.6870 -0.1531 -0.8111
    5CHL1    C6  305   3.394   1.092  10.020 -1.2845  0.2561  0.0705
    5CHL1    H6  306   3.423   1.147  10.111  3.2485 -0.4472 -0.7499
    5CHL1    C7  307   3.453   1.142   9.891 -0.0439 -0.6936 -0.5097
    5CHL1   H7A  308   3.412   1.245   9.886  1.2473 -0.1788 -0.9010
    5CHL1   H7B  309   3.563   1.130   9.902 -0.0540 -0.6811 -0.3978
    5CHL1    C8  310   3.407   1.059   9.764 -0.2191 -0.0862 -0.3362
    5CHL1    H8  311   3.307   1.096   9.734  0.2949  0.4351 -1.4719
    5CHL1   C14  312   3.507   1.084   9.652 -0.0101 -0.2023 -0.0250
    5CHL1   H14  313   3.607   1.063   9.698  0.5763  1.7215 -0.3562
    5CHL1   C15  314   3.528   1.225   9.602  0.2361  0.4670 -0.5599
    5CHL1  H15A  315   3.432   1.280   9.597  0.3652  0.9270  1.2059
    5CHL1  H15B  316   3.589   1.286   9.673  0.2786  0.8768 -0.9453
    5CHL1   C16  317   3.611   1.209   9.467 -0.3031  0.6391  0.2626
    5CHL1  H16A  318   3.574   1.274   9.385 -1.1178 -1.7768 -1.3895
    5CHL1  H16B  319   3.715   1.243   9.485 -0.8137  1.6475  1.5258
    5CHL1   C17  320   3.606   1.051   9.440 -0.0348 -0.3040 -0.2309
    5CHL1   H17  321   3.693   1.001   9.489 -0.3478 -0.8938 -0.2681
    5CHL1   C13  322   3.493   1.005   9.526 -0.4908 -0.0555 -0.0866
    5CHL1   C18  323   3.360   1.042   9.458 -0.6647 -0.2920  0.6142
    5CHL1  H18A  324   3.335   0.966   9.382  0.7057 -0.9734  0.8181
    5CHL1  H18B  325   3.270   1.045   9.523 -0.8544 -0.0214  0.3422
    5CHL1  H18C  326   3.354   1.143   9.411 -0.5669  0.4000  2.0137
    5CHL1   C12  327   3.492   0.851   9.560 -0.5118 -0.2231 -0.0916
    5CHL1  H12A  328   3.454   0.797   9.471 -0.0349 -2.1717  0.8368
    5CHL1  H12B  329   3.592   0.826   9.601  1.1827  1.2777 -3.0531
    5CHL1   C11  330   3.388   0.820   9.670 -0.7017 -0.3369 -0.0722
    5CHL1  H11A  331   3.287   0.835   9.626  1.0357 -0.4924 -4.6458
    5CHL1  H11B  332   3.396   0.710   9.685 -2.8275 -0.5211  0.1044
    5CHL1    C9  333   3.408   0.907   9.795 -0.5375 -0.3046 -0.1458
    5CHL1    H9  334   3.505   0.877   9.839 -0.7657 -3.2235 -1.3486
    5CHL1   C10  335   3.307   0.869   9.907 -0.1406 -0.4236  0.7370
    5CHL1   C19  336   3.165   0.887   9.860 -0.4238 -0.3452  0.2474
    5CHL1  H19A  337   3.138   0.820   9.776 -1.0299 -0.4516  0.5167
    5CHL1  H19B  338   3.086   0.856   9.932 -1.5641 -0.3472 -0.9595
    5CHL1  H19C  339   3.142   0.993   9.833  2.8109  0.6966  1.1154
    5CHL1    C1  340   3.332   0.727   9.951 -0.6356 -0.3915  0.0177
    5CHL1   H1A  341   3.285   0.658   9.877  0.7137 -0.5581 -0.7266
    5CHL1   H1B  342   3.442   0.712   9.938 -0.8994 -1.0526 -1.6975
    5CHL1    C2  343   3.279   0.699  10.090 -0.1152 -0.6592 -0.5617
    5CHL1   H2A  344   3.322   0.603  10.126  2.5247  1.6213  2.9773
    5CHL1   H2B  345   3.169   0.686  10.083 -0.5243  1.9503  0.0841
    5CHL1   C20  346   3.611   1.021   9.292 -0.2222 -0.5045 -0.2338
    5CHL1   H20  347   3.526   1.072   9.242 -0.7953 -0.3080  0.9104
    5CHL1   C21  348   3.602   0.871   9.271 -0.4396  0.4980  0.3988
    5CHL1  H21A  349   3.675   0.828   9.343  0.4811 -0.0146 -0.8271
    5CHL1  H21B  350   3.625   0.840   9.167  1.2943  1.3467  0.5000
    5CHL1  H21C  351   3.499   0.828   9.271 -0.4221  0.4213 -0.9552
    5CHL1   C22  352   3.734   1.068   9.214  0.2135  0.7884  0.0553
    5CHL1  H22A  353   3.717   1.040   9.109 -1.9631  0.7659  0.3753
    5CHL1  H22B  354   3.734   1.179   9.207  0.9347  0.7711 -0.3080
    5CHL1   C23  355   3.872   1.008   9.266  0.1082 -0.7468  0.4126
    5CHL1  H23A  356   3.869   1.039   9.372 -2.2313 -2.0678  0.8140
    5CHL1  H23B  357   3.872   0.897   9.260  0.3159 -0.7479  0.4347
    5CHL1   C24  358   3.994   1.069   9.185 -0.2229 -0.1146  0.0388
    5CHL1  H24A  359   3.967   1.065   9.077  0.7376 -2.2136 -0.1679
    5CHL1  H24B  360   3.998   1.179   9.204 -0.0481  0.0507 -0.8707
    5CHL1   C25  361   4.133   1.003   9.211  0.4036 -0.0240  0.0977
    5CHL1   H25  362   4.117   0.894   9.222  1.8115 -0.3630 -0.7967
    5CHL1   C26  363   4.230   1.032   9.098 -0.3788 -0.0750  0.3237
    5CHL1  H26A  364   4.187   1.003   9.000  0.6582  0.6690 -0.3662
    5CHL1  H26B  365   4.241   1.143   9.093 -0.4000 -0.0781  0.2069
    5CHL1  H26C  366   4.325   0.976   9.114 -1.6285 -2.6584 -0.7616
    5CHL1   C27  367   4.190   1.049   9.344 -0.2849  0.2594 -0.3164
    5CHL1  H27A  368   4.121   1.058   9.431  1.2538 -0.2573  1.0274
    5CHL1  H27B  369   4.270   0.980   9.380  0.1893  1.8812  1.9738
    5CHL1  H27C  370   4.245   1.143   9.326  1.3659 -0.0721  2.3257
    6CHL1    C3  371   0.972   5.463  10.382 -0.4194  0.3860  0.1925
    6CHL1    H3  372   0.902   5.383  10.348 -0.0016  0.4590 -0.8692
    6CHL1    O3  373   0.964   5.475  10.528  0.7370  0.0126 -0.4329
    6CHL1   H3'  374   0.964   5.385  10.562  1.7452  0.4066  0.6524
    6CHL1    C4  375   1.107   5.407  10.335  0.1064 -0.0883  0.4262
    6CHL1   H4A  376   1.196   5.464  10.371  1.5027 -0.5349 -2.0703
    6CHL1   H4B  377   1.121   5.307  10.381  0.6970  0.4823  1.5212
    6CHL1    C5  378   1.104   5.402  10.182 -0.1743  0.9796 -0.6142
    6CHL1    C6  379   1.120   5.281  10.126 -0.2530 -0.0556  0.2001
    6CHL1    H6  380   1.139   5.192  10.189 -0.1323 -1.1194 -1.2845
    6CHL1    C7  381   1.128   5.268   9.977 -0.0433  0.4113 -0.2925
    6CHL1   H7A  382   1.213   5.206   9.941 -1.8897 -1.1735 -2.2202
    6CHL1   H7B  383   1.041   5.219   9.927  0.1890 -0.3592  0.0361
    6CHL1    C8  384   1.151   5.404   9.903  0.9294 -0.1164  0.2560
    6CHL1    H8  385   1.259   5.428   9.911  1.0306 -0.5248  0.1336
    6CHL1   C14  386   1.112   5.390   9.758  0.3700 -0.3682 -0.3107
    6CHL1   H14  387   1.006   5.358   9.762  0.2215 -0.0779 -1.4769
    6CHL1   C15  388   1.186   5.283   9.681 -0.8868 -0.2018 -0.3921
    6CHL1  H15A  389   1.295   5.304   9.684 -0.8754 -0.1042 -1.3392
    6CHL1  H15B  390   1.160   5.180   9.715 -2.2091 -0.1991 -1.2930
    6CHL1   C16  391   1.143   5.297   9.534  0.2523 -0.0096  0.1127
    6CHL1  H16A  392   1.230   5.289   9.465  1.0967 -0.0704  1.1653
    6CHL1  H16B  393   1.070   5.217   9.509  1.1939 -1.6459  2.3062
    6CHL1   C17  394   1.077   5.437   9.536 -0.3074 -0.4155  0.2076
    6CHL1   H17  395   0.967   5.429   9.549 -0.4186 -0.2388 -0.5527
    6CHL1   C13  396   1.118   5.514   9.666 -0.1271  0.6714 -0.2711
    6CHL1   C18  397   1.262   5.573   9.648  0.5772  0.7106 -0.5714
    6CHL1  H18A  398   1.313   5.600   9.743 -1.4799 -1.0555  1.1164
    6CHL1  H18B  399   1.328   5.493   9.609 -0.4702 -1.0223  1.0692
    6CHL1  H18C  400   1.270   5.651   9.569 -0.2614 -1.1543 -2.5977
    6CHL1   C12  401   1.026   5.625   9.732  0.0346  0.2352  0.6224
    6CHL1  H12A  402   1.027   5.724   9.682  2.1670  0.6739  1.4443
    6CHL1  H12B  403   0.918   5.598   9.727  0.1719 -0.4414  1.1149
    6CHL1   C11  404   1.068   5.643   9.877 -0.0755  0.4883  0.1662
    6CHL1  H11A  405   1.172   5.680   9.884 -0.2302  0.9442  0.0918
    6CHL1  H11B  406   0.997   5.710   9.931 -1.4728 -1.7885  1.3039
    6CHL1    C9  407   1.060   5.511   9.961  0.5029 -0.4906 -0.4828
    6CHL1    H9  408   0.964   5.463   9.936  0.2161 -0.9673  1.3674
    6CHL1   C10  409   1.080   5.530  10.115  0.6913 -0.0645  0.4371
    6CHL1   C19  410   1.198   5.630  10.142 -0.4358  0.1259 -0.7468
    6CHL1  H19A  411   1.171   5.726  10.093 -0.1851  1.2331  1.1741
    6CHL1  H19B  412   1.214   5.651  10.250 -1.8902  1.7238 -0.7894
    6CHL1  H19C  413   1.290   5.579  10.106  0.7601  1.7614 -0.1062
    6CHL1    C1  414   0.951   5.604  10.168 -0.5667  0.5008 -0.5349
    6CHL1   H1A  415   0.941   5.706  10.127  1.5674  0.5508 -1.0544
    6CHL1   H1B  416   0.862   5.554  10.123  0.5789  0.3602 -2.8265
    6CHL1    C2  417   0.944   5.606  10.323  0.7557  0.3824 -0.8218
    6CHL1   H2A  418   0.843   5.634  10.358  0.6810 -1.6629  0.7742
    6CHL1   H2B  419   1.010   5.675  10.381  2.7762 -1.6184 -0.5698
    6CHL1   C20  420   1.088   5.508   9.399 -0.4073 -0.5756  0.7521
    6CHL1   H20  421   1.047   5.612   9.408  2.0710  0.3010  2.9263
    6CHL1   C21  422   0.998   5.421   9.294 -0.2007  0.1250 -0.2507
    6CHL1  H21A  423   0.983   5.481   9.202  0.9435 -0.6406 -0.9577
    6CHL1  H21B  424   0.902   5.412   9.349 -0.5818 -1.5070 -1.1267
    6CHL1  H21C  425   1.048   5.323   9.276 -2.0937 -0.8777 -0.2427
    6CHL1   C22  426   1.230   5.524   9.333  0.7571 -0.3152 -0.0373
    6CHL1  H22A  427   1.302   5.547   9.414  0.5389  0.3657 -0.0260
    6CHL1  H22B  428   1.244   5.425   9.285 -3.6419 -0.7844 -0.7878
    6CHL1   C23  429   1.233   5.638   9.233 -0.2260 -0.4783  0.4602
    6CHL1  H23A  430   1.137   5.634   9.176  1.0244  1.0279 -1.8781
    6CHL1  H23B  431   1.236   5.741   9.275 -1.3128 -0.0155 -0.5421
    6CHL1   C24  432   1.350   5.621   9.136  0.5060 -0.1394 -0.0541
    6CHL1  H24A  433   1.440   5.628   9.201 -1.0368 -0.3320  2.2137
    6CHL1  H24B  434   1.332   5.521   9.091  0.6609 -0.4623  0.5913
    6CHL1   C25  435   1.349   5.732   9.023 -0.3969  0.1857 -0.2224
    6CHL1   H25  436   1.365   5.834   9.063  0.4244  0.2111 -0.5810
    6CHL1   C26  437   1.452   5.690   8.920 -0.1726  0.3226  0.9392
    6CHL1  H26A  438   1.443   5.582   8.899 -3.2931  0.4892  0.9753
    6CHL1  H26B  439   1.435   5.734   8.820 -3.4633 -1.4747  0.5682
    6CHL1  H26C  440   1.557   5.709   8.951  0.2237  1.3828 -0.9098
    6CHL1   C27  441   1.210   5.741   8.953 -0.2605  0.4370  0.1803
    6CHL1  H27A  442   1.186   5.662   8.878  0.9483  1.4539 -1.3232
    6CHL1  H27B  443   1.131   5.744   9.031  0.6873 -1.1485  1.2608
    6CHL1  H27C  444   1.202   5.838   8.901  2.4979  0.3826 -0.4803
    7CHL1    C3  445   2.176   2.066  10.415 -0.2174 -0.2235  0.7021
    7CHL1    H3  446   2.259   1.992  10.416  1.6919  1.7798  2.2809
    7CHL1    O3  447   2.156   2.108  10.544 -0.2705 -1.0341 -0.2306
    7CHL1   H3'  448   2.201   2.192  10.545 -0.5128 -0.8351 -1.9333
    7CHL1    C4  449   2.229   2.176  10.320 -0.0295  0.5485  1.0808
    7CHL1   H4A  450   2.163   2.265  10.331 -0.2157  0.3626  1.5078
    7CHL1   H4B  451   2.331   2.205  10.351  0.2275 -0.0448  0.7949
    7CHL1    C5  452   2.240   2.136  10.173  0.0121 -0.1293 -0.6537
    7CHL1    C6  453   2.356   2.154  10.106 -0.0082  0.1242  0.1543
    7CHL1    H6  454   2.440   2.209  10.152 -0.5153  1.7779 -0.8224
    7CHL1    C7  455   2.362   2.125   9.959 -0.0088  0.3402  0.1889
    7CHL1   H7A  456   2.422   2.201   9.904 -1.3985 -0.2361 -2.2757
    7CHL1   H7B  457   2.419   2.031   9.943 -0.2680  0.3644 -0.9494
    7CHL1    C8  458   2.225   2.102   9.885  0.3644 -0.0818 -0.0853
    7CHL1    H8  459   2.164   2.193   9.865 -0.9756 -0.8034  0.5092
    7CHL1   C14  460   2.250   2.032   9.756  0.8721  0.3217 -0.5532
    7CHL1   H14  461   2.312   1.944   9.786  0.6603  0.1275 -0.6788
    7CHL1   C15  462   2.315   2.110   9.648 -0.2822 -0.1817  0.3640
    7CHL1  H15A  463   2.268   2.211   9.645 -0.1447 -0.1056 -2.4073
    7CHL1  H15B  464   2.423   2.124   9.666 -0.5822  1.4162  1.1232
    7CHL1   C16  465   2.292   2.026   9.523 -0.2849  0.1103 -0.3632
    7CHL1  H16A  466   2.254   2.090   9.441  0.4886 -1.2821 -1.8806
    7CHL1  H16B  467   2.385   1.966   9.510 -0.7664 -0.1169 -3.8989
    7CHL1   C17  468   2.182   1.916   9.563 -0.7490 -0.6646  1.4637
    7CHL1   H17  469   2.227   1.822   9.602 -1.3162 -0.4512  2.6635
    7CHL1   C13  470   2.119   1.983   9.684  0.4728  0.1848 -0.4492
    7CHL1   C18  471   2.030   2.098   9.636  0.1058  0.0952  0.1106
    7CHL1  H18A  472   2.024   2.174   9.717  2.9739 -0.8580  1.3610
    7CHL1  H18B  473   2.061   2.147   9.541 -1.1127 -0.8365 -0.8027
    7CHL1  H18C  474   1.926   2.063   9.619 -0.5060  2.2813 -0.9990
    7CHL1   C12  475   2.044   1.881   9.781 -0.7094  0.2845  0.3142
    7CHL1  H12A  476   1.955   1.855   9.720  0.0178  0.3103 -0.7877
    7CHL1  H12B  477   2.104   1.788   9.790 -0.4316  0.2626 -1.4003
    7CHL1   C11  478   2.016   1.949   9.905  0.7020 -0.8097  0.4443
    7CHL1  H11A  479   1.956   2.038   9.875  0.7649 -1.1197 -0.6209
    7CHL1  H11B  480   1.965   1.881   9.977  1.2308 -1.1500  0.4997
    7CHL1    C9  481   2.140   2.006   9.973  0.0752  0.0143  0.4621
    7CHL1    H9  482   2.204   1.919   9.996  1.5426  0.9108 -0.0854
    7CHL1   C10  483   2.111   2.079  10.112  0.2077  0.6220  0.5378
    7CHL1   C19  484   2.003   2.183  10.098  0.2005 -0.2691 -0.4551
    7CHL1  H19A  485   1.915   2.144  10.042 -1.6615 -1.0659  2.7582
    7CHL1  H19B  486   1.963   2.209  10.198 -0.4044  2.2028 -1.2778
    7CHL1  H19C  487   2.038   2.277  10.050  0.8103  0.2522  0.9646
    7CHL1    C1  488   2.052   1.968  10.206  0.1115  0.1542 -0.0861
    7CHL1   H1A  489   1.948   1.941  10.178  0.0473 -0.1414  0.4204
    7CHL1   H1B  490   2.120   1.882  10.190  1.1870  0.3356  2.8471
    7CHL1    C2  491   2.050   2.001  10.362  0.1018 -0.3029 -0.5585
    7CHL1   H2A  492   2.010   1.919  10.425  1.4700 -2.4039 -2.3276
    7CHL1   H2B  493   1.971   2.079  10.362 -0.7769 -1.1773 -0.3959
    7CHL1   C20  494   2.095   1.878   9.437  0.0944  0.2404 -0.5423
    7CHL1   H20  495   2.043   1.970   9.404  1.0748  1.1146  0.2540
    7CHL1   C21  496   1.997   1.772   9.484  0.2700 -0.3326 -0.4442
    7CHL1  H21A  497   2.052   1.719   9.564  1.2565  2.3984  0.7847
    7CHL1  H21B  498   1.966   1.701   9.404 -2.0393 -1.2309  1.1269
    7CHL1  H21C  499   1.914   1.827   9.532  1.2378 -1.0371  2.1937
    7CHL1   C22  500   2.182   1.821   9.320  0.1649  0.4687  0.1085
    7CHL1  H22A  501   2.272   1.886   9.309  0.3199  0.5913  1.7995
    7CHL1  H22B  502   2.221   1.719   9.340 -1.5182  0.0217  1.3762
    7CHL1   C23  503   2.108   1.815   9.185  0.4416  0.2168 -0.1003
    7CHL1  H23A  504   2.168   1.757   9.111 -1.3596 -0.9879 -0.6576
    7CHL1  H23B  505   2.013   1.760   9.196  0.1301 -0.3540 -4.0810
    7CHL1   C24  506   2.085   1.958   9.131  0.7467  0.5937  0.1446
    7CHL1  H24A  507   2.025   2.009   9.209 -0.8417 -0.5230 -0.2975
    7CHL1  H24B  508   2.181   2.012   9.115  1.0089 -0.3424 -1.7476
    7CHL1   C25  509   2.010   1.962   8.997 -0.2010 -0.6031 -0.6300
    7CHL1   H25  510   2.067   1.904   8.922 -0.5618  0.7571 -2.0205
    7CHL1   C26  511   1.871   1.898   9.007  0.0488 -0.8230  0.3185
    7CHL1  H26A  512   1.802   1.955   9.071 -0.2679 -0.9818  0.1203
    7CHL1  H26B  513   1.825   1.881   8.907 -0.4389  0.0715  0.3765
    7CHL1  H26C  514   1.868   1.792   9.040 -1.4595 -1.0886 -0.5787
    7CHL1   C27  515   2.000   2.101   8.933  0.7544 -1.0000 -0.3588
    7CHL1  H27A  516   1.930   2.170   8.986  0.5861  0.9716 -2.9787
    7CHL1  H27B  517   2.098   2.153   8.936  0.3839 -0.3188  0.2506
    7CHL1  H27C  518   1.971   2.092   8.826  0.7850  0.8006 -0.5453
    8CHL1    C3  519   3.317   3.859  10.345  0.5884  0.0490  0.2984
    8CHL1    H3  520   3.335   3.750  10.329 -0.2325 -0.0121 -0.2821
    8CHL1    O3  521   3.336   3.877  10.482  0.1158 -0.2446  0.4255
    8CHL1   H3'  522   3.349   3.973  10.487  2.3075 -0.4556  0.0768
    8CHL1    C4  523   3.420   3.941  10.266 -0.3845  0.4547 -0.7668
    8CHL1   H4A  524   3.410   4.045  10.304 -1.4720 -1.2876  4.5617
    8CHL1   H4B  525   3.523   3.906  10.285 -0.6318  0.6337  1.1151
    8CHL1    C5  526   3.394   3.942  10.120  0.0641 -0.3600  0.3464
    8CHL1    C6  527   3.488   3.900  10.029 -0.1184  0.5940  0.3959
    8CHL1    H6  528   3.593   3.892  10.060  0.1658  3.7123  0.5483
    8CHL1    C7  529   3.469   3.901   9.881 -0.2847 -0.2223 -0.3750
    8CHL1   H7A  530   3.556   3.946   9.828 -0.4602 -0.5230 -0.9200
    8CHL1   H7B  531   3.461   3.795   9.849 -1.7089 -1.8038  4.3552
    8CHL1    C8  532   3.346   3.988   9.837 -0.2693 -0.5017  0.2072
    8CHL1    H8  533   3.372   4.093   9.864 -2.1365 -0.5549  2.5962
    8CHL1   C14  534   3.315   3.965   9.690  0.7879  0.1030 -0.2923
    8CHL1   H14  535   3.288   3.858   9.682  1.9855 -0.6620  3.9776
    8CHL1   C15  536   3.440   3.995   9.596  0.1492 -0.0932 -0.1891
    8CHL1  H15A  537   3.479   4.098   9.610 -1.6327  0.5357  0.3040
    8CHL1  H15B  538   3.516   3.914   9.609 -2.0267 -2.0871  0.9116
    8CHL1   C16  539   3.357   3.977   9.469  0.0953 -0.0083  0.3802
    8CHL1  H16A  540   3.396   4.055   9.400  0.7779  0.6282  1.4531
    8CHL1  H16B  541   3.388   3.878   9.430  0.4877 -0.0002  0.6644
    8CHL1   C17  542   3.204   3.992   9.486 -0.1723 -0.4295  0.1433
    8CHL1   H17  543   3.169   3.887   9.494  0.6359 -0.8072 -0.9457
    8CHL1   C13  544   3.196   4.047   9.635 -0.3654 -0.7371  0.3299
    8CHL1   C18  545   3.219   4.203   9.636  0.5817  0.3143 -0.2352
    8CHL1  H18A  546   3.247   4.234   9.740  0.3322  0.2468 -0.1479
    8CHL1  H18B  547   3.288   4.243   9.559  1.3461 -0.1521  0.1974
    8CHL1  H18C  548   3.125   4.257   9.612 -0.1192 -0.6619  0.2656
    8CHL1   C12  549   3.074   4.005   9.714 -0.3534 -0.5268  0.2963
    8CHL1  H12A  550   2.988   4.068   9.680 -0.2880 -1.7567 -2.4177
    8CHL1  H12B  551   3.061   3.898   9.690 -1.5247 -0.5492  0.9609
    8CHL1   C11  552   3.099   4.014   9.868  0.2370 -0.2062  0.2331
    8CHL1  H11A  553   3.106   4.122   9.894  1.2273 -0.7485  2.5486
    8CHL1  H11B  554   3.004   3.981   9.915 -0.1963  1.5842  0.6992
    8CHL1    C9  555   3.226   3.943   9.918 -0.4449  0.3141 -1.0838
    8CHL1    H9  556   3.207   3.834   9.909  2.4220 -0.5694  1.6781
    8CHL1   C10  557   3.250   3.973  10.071 -0.3492  0.2710  0.1657
    8CHL1   C19  558   3.223   4.131  10.106  0.2318  0.3380  0.9608
    8CHL1  H19A  559   3.270   4.156  10.203 -1.0138  0.6068  1.5119
    8CHL1  H19B  560   3.262   4.197  10.026 -1.4039  0.5453  0.2955
    8CHL1  H19C  561   3.115   4.154  10.118 -0.4042 -1.1994 -1.0405
    8CHL1    C1  562   3.148   3.899  10.156  0.0857  0.6063 -0.3882
    8CHL1   H1A  563   3.046   3.941  10.144 -0.6230 -0.5070  1.3883
    8CHL1   H1B  564   3.157   3.793  10.126 -1.6107 -0.4743  2.4806
    8CHL1    C2  565   3.175   3.896  10.308 -0.1001  0.8442 -0.0058
    8CHL1   H2A  566   3.096   3.835  10.358 -0.0012  1.5867  1.0957
    8CHL1   H2B  567   3.155   3.999  10.344  1.6848  1.7313 -1.4131
    8CHL1   C20  568   3.143   4.069   9.373 -0.4051 -0.2753 -0.0140
    8CHL1   H20  569   3.201   4.164   9.375 -1.1916  0.2015  1.4769
    8CHL1   C21  570   2.994   4.093   9.397 -0.2693 -1.2475 -0.8643
    8CHL1  H21A  571   2.971   4.141   9.494 -0.7854 -2.1296 -0.5346
    8CHL1  H21B  572   2.944   3.994   9.407 -1.5765 -0.4808  0.5646
    8CHL1  H21C  573   2.951   4.162   9.321  2.2997  1.5917  0.0621
    8CHL1   C22  574   3.153   4.004   9.235  0.0731  0.2174  0.4258
    8CHL1  H22A  575   3.108   4.069   9.157 -0.2663 -1.2946 -0.6845
    8CHL1  H22B  576   3.257   3.997   9.196  0.1186  2.8011 -0.0692
    8CHL1   C23  577   3.094   3.865   9.219  0.4266 -0.1300  0.1077
    8CHL1  H23A  578   3.172   3.811   9.276 -0.0195 -0.6162  0.2684
    8CHL1  H23B  579   2.995   3.845   9.266  0.4475 -2.8393 -0.8604
    8CHL1   C24  580   3.107   3.825   9.072  0.1271  0.4865  0.1663
    8CHL1  H24A  581   3.214   3.823   9.043  0.7326  5.3863  1.2919
    8CHL1  H24B  582   3.068   3.721   9.059 -0.5686  0.7084  0.4246
    8CHL1   C25  583   3.026   3.904   8.971 -0.6463  0.5769 -0.1484
    8CHL1   H25  584   3.050   4.013   8.973 -0.0710  0.4571 -0.2874
    8CHL1   C26  585   3.067   3.876   8.819  0.1086  0.6047 -0.9258
    8CHL1  H26A  586   3.177   3.882   8.809  0.1041  2.4785 -0.2652
    8CHL1  H26B  587   3.034   3.781   8.771  0.8335  0.5610 -1.3552
    8CHL1  H26C  588   3.022   3.956   8.756 -2.3648  0.2167  0.2418
    8CHL1   C27  589   2.877   3.898   8.996  0.2135  0.3816  1.0921
    8CHL1  H27A  590   2.833   3.797   8.987  1.8073 -0.2849  0.3173
    8CHL1  H27B  591   2.859   3.951   9.092  1.7539  1.2915  0.9249
    8CHL1  H27C  592   2.827   3.958   8.917 -0.7124 -0.9533  0.6343
    9CHL1    C3  593   5.945   1.474  10.308 -0.6999  0.2169 -0.1333
    9CHL1    H3  594   6.046   1.521  10.310 -0.7752  0.3566  0.5446
    9CHL1    O3  595   5.923   1.398  10.430  0.2516 -0.2079  0.0211
    9CHL1   H3'  596   5.984   1.325  10.416  1.7393  0.4472  2.5770
    9CHL1    C4  597   5.834   1.581  10.293 -1.1158  0.0036  0.1129
    9CHL1   H4A  598   5.733   1.544  10.321 -0.3019 -1.8691  0.7536
    9CHL1   H4B  599   5.849   1.653  10.376 -1.8533 -2.0015  2.1067
    9CHL1    C5  600   5.830   1.634  10.155  0.4893 -0.2364 -0.3963
    9CHL1    C6  601   5.838   1.766  10.136  0.9543 -0.1987 -0.1208
    9CHL1    H6  602   5.845   1.842  10.215  0.6484  0.1052 -0.3817
    9CHL1    C7  603   5.833   1.837  10.003  0.1538 -0.3645 -0.7329
    9CHL1   H7A  604   5.754   1.916   9.998  0.8855  0.3573 -1.1993
    9CHL1   H7B  605   5.923   1.900   9.989 -1.0417  1.7241  0.4559
    9CHL1    C8  606   5.829   1.751   9.882 -0.5343 -0.6086  1.3044
    9CHL1    H8  607   5.723   1.738   9.851  0.5090 -0.0982 -3.2306
    9CHL1   C14  608   5.892   1.817   9.760 -0.0365  0.3354 -0.2612
    9CHL1   H14  609   6.002   1.817   9.778 -0.2249  2.0153  1.2986
    9CHL1   C15  610   5.853   1.959   9.724 -0.4246  0.8533  0.1580
    9CHL1  H15A  611   5.744   1.978   9.733 -0.4239  0.4031  1.3678
    9CHL1  H15B  612   5.907   2.029   9.792 -0.1906  1.1315 -0.3107
    9CHL1   C16  613   5.907   1.982   9.585  0.8447 -0.2021 -0.3409
    9CHL1  H16A  614   5.824   2.023   9.525  1.3067  2.7787  0.9140
    9CHL1  H16B  615   5.997   2.047   9.592  1.4261 -1.1868  3.5320
    9CHL1   C17  616   5.946   1.837   9.526 -0.1470  0.7501  0.0019
    9CHL1   H17  617   6.056   1.833   9.544  0.1479 -1.2284 -1.8734
    9CHL1   C13  618   5.881   1.738   9.625  0.3049  0.0524 -0.2104
    9CHL1   C18  619   5.732   1.714   9.580 -0.3401  0.3585 -0.1510
    9CHL1  H18A  620   5.678   1.655   9.657  0.7323  1.1427  1.2483
    9CHL1  H18B  621   5.675   1.805   9.550 -0.8529 -0.8952 -3.4757
    9CHL1  H18C  622   5.744   1.650   9.489  1.6077  0.4072  0.0303
    9CHL1   C12  623   5.953   1.599   9.649 -0.0904  0.6306 -0.2186
    9CHL1  H12A  624   5.956   1.533   9.559 -0.6572  1.9538 -1.2378
    9CHL1  H12B  625   6.059   1.625   9.668  0.0498 -0.2852  0.3339
    9CHL1   C11  626   5.895   1.534   9.767  0.9322 -0.2663  0.4311
    9CHL1  H11A  627   5.791   1.507   9.738  1.1296  0.1736 -0.7272
    9CHL1  H11B  628   5.949   1.440   9.792  0.3684 -0.7513 -0.1272
    9CHL1    C9  629   5.893   1.612   9.903 -0.0490  0.1629  0.2180
    9CHL1    H9  630   5.998   1.634   9.930  1.3883 -2.1488 -2.8734
    9CHL1   C10  631   5.840   1.534  10.030 -0.2082  0.4613 -1.0182
    9CHL1   C19  632   5.697   1.473  10.014 -0.0090 -1.1171 -0.1106
    9CHL1  H19A  633   5.625   1.551   9.982  2.8706  2.7572  2.0349
    9CHL1  H19B  634   5.685   1.401   9.930  1.4914  0.8148 -2.0986
    9CHL1  H19C  635   5.673   1.411  10.103 -2.5630 -2.3703 -1.5458
    9CHL1    C1  636   5.945   1.421  10.061 -0.4317 -0.0582  0.4099
    9CHL1   H1A  637   5.942   1.337   9.989  3.0843 -1.7630  1.9961
    9CHL1   H1B  638   6.051   1.456  10.058 -0.4598  0.0156  0.2767
    9CHL1    C2  639   5.927   1.366  10.202  0.3783 -0.1937 -0.0084
    9CHL1   H2A  640   5.994   1.279  10.216  1.4732  0.2012 -2.3728
    9CHL1   H2B  641   5.822   1.330  10.206  0.4261 -0.3498 -0.1838
    9CHL1   C20  642   5.928   1.829   9.375  0.3995 -0.6906  0.3123
    9CHL1   H20  643   5.823   1.799   9.351  1.0856 -1.5085 -2.0274
    9CHL1   C21  644   6.017   1.713   9.326 -0.5477  0.0436  1.0531
    9CHL1  H21A  645   6.007   1.615   9.378 -0.7405 -0.4619  0.0828
    9CHL1  H21B  646   6.120   1.754   9.331  0.3608 -0.5697 -5.1319
    9CHL1  H21C  647   5.989   1.688   9.221 -1.8102 -0.5554  1.5080
    9CHL1   C22  648   5.959   1.964   9.296  0.3541  0.4679 -0.3635
    9CHL1  H22A  649   5.900   2.046   9.344 -1.1088 -0.2099 -0.9315
    9CHL1  H22B  650   6.068   1.979   9.306  0.5047 -1.1428  0.8919
    9CHL1   C23  651   5.905   1.964   9.150  0.6539  0.1981  0.3636
    9CHL1  H23A  652   5.809   1.908   9.145  0.5774  0.1845  1.6300
    9CHL1  H23B  653   5.866   2.066   9.127 -1.3537 -0.4683  0.5970
    9CHL1   C24  654   6.006   1.923   9.048 -0.1427  0.0910  0.6626
    9CHL1  H24A  655   6.093   1.991   9.045 -1.0021  1.1748 -0.9410
    9CHL1  H24B  656   6.046   1.822   9.069 -2.4440 -1.2407 -0.8728
    9CHL1   C25  657   5.949   1.951   8.896 -0.5558 -0.1415 -0.6006
    9CHL1   H25  658   5.929   2.060   8.887 -0.4817 -0.1517 -0.9111
    9CHL1   C26  659   6.057   1.905   8.808  0.7311 -0.4178  0.7795
    9CHL1  H26A  660   6.162   1.932   8.834  1.0395 -1.1288  0.3191
    9CHL1  H26B  661   6.053   1.794   8.804 -1.9992 -0.4597  2.5224
    9CHL1  H26C  662   6.051   1.955   8.709 -1.6310  0.9354  1.5265
    9CHL1   C27  663   5.815   1.893   8.847  0.1843 -0.1728  0.6730
    9CHL1  H27A  664   5.821   1.783   8.833  1.5381  0.0301 -0.6238
    9CHL1  H27B  665   5.733   1.902   8.922  0.2881  0.4030  0.7255
    9CHL1  H27C  666   5.774   1.950   8.761 -0.6520  0.3656  1.4055
   10CHL1    C3  667   6.743   3.993  10.271  0.1619  0.5327 -0.8300
   10CHL1    H3  668   6.816   4.074  10.248 -0.5092  0.5931 -3.0120
   10CHL1    O3  669   6.753   3.971  10.411  0.4698 -0.8222 -0.6722
   10CHL1   H3'  670   6.757   4.053  10.460 -2.3468 -0.9422 -0.0175
   10CHL1    C4  671   6.598   4.040  10.239 -0.3956 -0.2238  0.1505
   10CHL1   H4A  672   6.531   3.955  10.264 -2.2881  0.8335 -1.0523
   10CHL1   H4B  673   6.589   4.133  10.299  2.2401  0.7294 -0.7663
   10CHL1    C5  674   6.582   4.064  10.086  0.0900  0.2491 -0.0507
   10CHL1    C6  675   6.542   4.184  10.044 -0.1421 -0.7506 -0.7120
   10CHL1    H6  676   6.510   4.253  10.123  1.8392 -0.2616 -0.2609
   10CHL1    C7  677   6.525   4.225   9.902  0.6336  0.6668 -0.4236
   10CHL1   H7A  678   6.424   4.272   9.898  0.2588 -0.0270  0.5883
   10CHL1   H7B  679   6.599   4.306   9.886 -0.8561  2.2205  0.1223
   10CHL1    C8  680   6.535   4.115   9.796  0.1013 -0.6551 -0.5437
   10CHL1    H8  681   6.441   4.057   9.796  0.0574 -0.5848 -0.7158
   10CHL1   C14  682   6.549   4.173   9.656 -0.1033 -0.2869  0.2933
   10CHL1   H14  683   6.651   4.217   9.667  0.6804 -2.2888  1.6038
   10CHL1   C15  684   6.449   4.280   9.612  0.6086  0.1012  0.2632
   10CHL1  H15A  685   6.344   4.248   9.631  0.3100  1.4511  1.0266
   10CHL1  H15B  686   6.459   4.380   9.660 -1.5661 -0.0700  1.2165
   10CHL1   C16  687   6.469   4.275   9.460  0.3268  0.2608 -0.0504
   10CHL1  H16A  688   6.378   4.249   9.402 -1.2774  1.1327  1.9387
   10CHL1  H16B  689   6.505   4.371   9.419 -1.1296  1.0536  0.4347
   10CHL1   C17  690   6.576   4.166   9.421  0.2598 -0.0375  0.3319
   10CHL1   H17  691   6.678   4.211   9.422 -0.9564  2.9979  0.0878
   10CHL1   C13  692   6.564   4.066   9.545  0.2310 -0.4075 -0.0047
   10CHL1   C18  693   6.429   3.984   9.520 -0.6117 -0.8054 -0.2494
   10CHL1  H18A  694   6.334   4.041   9.519 -0.1862 -0.0672  0.4449
   10CHL1  H18B  695   6.431   3.912   9.435  1.0680 -0.0713 -0.8795
   10CHL1  H18C  696   6.418   3.910   9.602  1.7165  2.1242  3.0031
   10CHL1   C12  697   6.686   3.974   9.581  0.9951 -0.5639 -0.3328
   10CHL1  H12A  698   6.702   3.906   9.494  1.0083  2.6802 -3.0754
   10CHL1  H12B  699   6.775   4.041   9.585  1.3911 -1.0158 -1.1407
   10CHL1   C11  700   6.665   3.915   9.724  0.3948  0.0601  0.3364
   10CHL1  H11A  701   6.580   3.843   9.720  0.9653 -0.6920  1.2263
   10CHL1  H11B  702   6.750   3.855   9.764 -0.1356  1.3911  3.7263
   10CHL1    C9  703   6.652   4.018   9.836  0.1324  0.5350  0.3721
   10CHL1    H9  704   6.744   4.080   9.847  1.1328 -0.8642  0.1774
   10CHL1   C10  705   6.637   3.960   9.981  0.2724 -0.7120 -0.6512
   10CHL1   C19  706   6.536   3.841   9.968  0.4140  0.2898  0.0872
   10CHL1  H19A  707   6.531   3.796  10.069 -3.6610  0.2700  0.0151
   10CHL1  H19B  708   6.438   3.875   9.930 -0.8652 -1.7067  1.4195
   10CHL1  H19C  709   6.578   3.757   9.909  0.5658  0.4247  0.0009
   10CHL1    C1  710   6.775   3.918  10.036 -0.6941 -0.3730 -0.5567
   10CHL1   H1A  711   6.821   3.841   9.970 -0.4157 -0.1638 -0.6090
   10CHL1   H1B  712   6.837   4.009  10.024 -0.7331  0.0947  2.1502
   10CHL1    C2  713   6.788   3.878  10.181  0.9858 -0.0919 -0.2124
   10CHL1   H2A  714   6.887   3.838  10.211  0.1008 -1.4323  1.0839
   10CHL1   H2B  715   6.717   3.793  10.197 -0.1766  1.0409  0.9862
   10CHL1   C20  716   6.560   4.100   9.281  0.1683  0.8897 -0.0748
   10CHL1   H20  717   6.457   4.060   9.273  0.5500  0.1184 -1.3922
   10CHL1   C21  718   6.650   3.974   9.259  0.1410 -0.1794  0.2644
   10CHL1  H21A  719   6.754   4.005   9.284 -0.1804 -0.1095  1.5823
   10CHL1  H21B  720   6.653   3.956   9.149  1.4031  2.8239 -0.3026
   10CHL1  H21C  721   6.619   3.880   9.309  0.0497 -0.5337 -0.4336
   10CHL1   C22  722   6.565   4.195   9.156  0.0283 -0.6275  0.9062
   10CHL1  H22A  723   6.540   4.125   9.074  0.7361 -2.2020  1.9676
   10CHL1  H22B  724   6.490   4.276   9.149  1.0598  0.3622  1.0293
   10CHL1   C23  725   6.704   4.252   9.131 -0.1045 -0.1514  0.1730
   10CHL1  H23A  726   6.724   4.344   9.190  1.5422  0.1138 -0.7197
   10CHL1  H23B  727   6.785   4.179   9.151 -1.8264 -1.7092  1.7998
   10CHL1   C24  728   6.732   4.304   8.987  0.0169  0.2553  0.0996
   10CHL1  H24A  729   6.695   4.220   8.924  1.9451 -0.5917  0.0225
   10CHL1  H24B  730   6.673   4.395   8.962  1.4820  1.7434  1.7676
   10CHL1   C25  731   6.877   4.338   8.949  0.0436 -1.3710  0.0260
   10CHL1   H25  732   6.937   4.250   8.981  0.0060 -1.3075  0.2752
   10CHL1   C26  733   6.898   4.375   8.798  0.3329  1.0703  0.4220
   10CHL1  H26A  734   6.857   4.473   8.768 -0.7875  0.5698  0.2662
   10CHL1  H26B  735   7.007   4.380   8.773  0.4111  1.5506  0.8429
   10CHL1  H26C  736   6.859   4.301   8.725  2.4221  1.2626 -0.9992
   10CHL1   C27  737   6.932   4.456   9.042  0.6157  0.0964  0.3296
   10CHL1  H27A  738   7.023   4.492   8.989 -0.0913 -0.2985 -1.1957
   10CHL1  H27B  739   6.859   4.540   9.041  2.0066  1.3610 -1.4886
   10CHL1  H27C  740   6.957   4.418   9.143  2.9147 -0.2474 -0.3208
   11CHL1    C3  741   6.426   1.362  10.132  0.7339 -0.5159 -1.0878
   11CHL1    H3  742   6.360   1.272  10.134 -1.8655  1.2825 -1.0600
   11CHL1    O3  743   6.450   1.405  10.271  0.4446  0.6944 -0.0585
   11CHL1   H3'  744   6.516   1.349  10.312  0.9528  0.2477 -1.4319
   11CHL1    C4  745   6.557   1.337  10.065  0.5065 -0.7720 -0.0611
   11CHL1   H4A  746   6.633   1.414  10.088 -0.6686  0.8880 -1.4641
   11CHL1   H4B  747   6.592   1.240  10.107 -3.2800 -1.6997  1.3233
   11CHL1    C5  748   6.545   1.335   9.918 -0.1868 -0.4287  1.4028
   11CHL1    C6  749   6.594   1.231   9.848 -0.6596 -0.1261 -0.8339
   11CHL1    H6  750   6.630   1.146   9.907 -0.9386  0.0065 -0.4754
   11CHL1    C7  751   6.583   1.214   9.701 -0.1537 -0.1854  0.0396
   11CHL1   H7A  752   6.688   1.195   9.671  0.8357  1.9982  1.8308
   11CHL1   H7B  753   6.520   1.125   9.676 -2.5775  1.2366  0.6996
   11CHL1    C8  754   6.537   1.341   9.627 -0.4422  0.2519  0.0541
   11CHL1    H8  755   6.626   1.406   9.620  0.5502 -0.8785  1.5700
   11CHL1   C14  756   6.485   1.313   9.485 -0.3130  0.0756 -0.2512
   11CHL1   H14  757   6.393   1.251   9.497 -1.6803  2.1717  0.8172
   11CHL1   C15  758   6.571   1.228   9.392 -0.4224  0.4329  0.1439
   11CHL1  H15A  759   6.679   1.236   9.416 -0.3911 -0.3038  0.2843
   11CHL1  H15B  760   6.538   1.124   9.414 -0.4021  0.6049  1.0290
   11CHL1   C16  761   6.528   1.267   9.253  0.2414 -1.0983 -0.6880
   11CHL1  H16A  762   6.621   1.310   9.210  0.9707 -1.6737  0.2693
   11CHL1  H16B  763   6.486   1.182   9.194 -1.7488 -1.4993  1.1747
   11CHL1   C17  764   6.421   1.367   9.264 -0.0164 -0.5341  0.1553
   11CHL1   H17  765   6.323   1.315   9.274  0.0351 -0.6808 -0.1160
   11CHL1   C13  766   6.448   1.433   9.398 -0.4217 -0.1373 -1.1564
   11CHL1   C18  767   6.557   1.535   9.397 -0.0985 -0.2314  0.3844
   11CHL1  H18A  768   6.640   1.492   9.338 -2.5331 -2.8390 -1.4380
   11CHL1  H18B  769   6.520   1.625   9.343  1.5493  0.0647 -0.2896
   11CHL1  H18C  770   6.592   1.558   9.499  0.1465 -1.7602  0.6675
   11CHL1   C12  771   6.328   1.497   9.475  0.2415 -1.0463 -0.3739
   11CHL1  H12A  772   6.288   1.586   9.422 -0.1301  0.0100  1.6085
   11CHL1  H12B  773   6.241   1.429   9.485 -0.8762  0.3526 -0.3960
   11CHL1   C11  774   6.377   1.534   9.618 -0.0527  0.3155  0.6262
   11CHL1  H11A  775   6.434   1.628   9.602 -1.3247  0.6458 -3.0726
   11CHL1  H11B  776   6.288   1.567   9.675  0.8534 -1.8366  3.5528
   11CHL1    C9  777   6.424   1.412   9.703 -0.3688  0.5536 -0.1780
   11CHL1    H9  778   6.340   1.339   9.711  1.3318 -1.7055 -1.7362
   11CHL1   C10  779   6.463   1.445   9.845  0.2184  0.0960 -0.1776
   11CHL1   C19  780   6.553   1.575   9.839  0.2096  0.2213  0.3643
   11CHL1  H19A  781   6.604   1.599   9.934  3.1412  1.7824 -1.4560
   11CHL1  H19B  782   6.647   1.551   9.784 -0.3492 -1.5609  0.1038
   11CHL1  H19C  783   6.488   1.658   9.804  1.8033  0.9996 -0.8848
   11CHL1    C1  784   6.333   1.475   9.924  0.3780 -0.0281  0.5279
   11CHL1   H1A  785   6.282   1.564   9.880 -1.7513  0.6275  3.9225
   11CHL1   H1B  786   6.255   1.398   9.904 -0.0061 -0.0841  2.1339
   11CHL1    C2  787   6.344   1.484  10.075  0.0273 -0.3171  1.0393
   11CHL1   H2A  788   6.246   1.487  10.127 -2.6702 -0.0955 -3.5038
   11CHL1   H2B  789   6.401   1.573  10.108 -0.7955  0.8533 -0.5161
   11CHL1   C20  790   6.418   1.459   9.135  0.9259 -0.1119 -0.7960
   11CHL1   H20  791   6.505   1.526   9.145  0.7237  0.0181  0.1950
   11CHL1   C21  792   6.284   1.546   9.139  0.5132 -0.1879 -0.1308
   11CHL1  H21A  793   6.303   1.630   9.210  1.6093  1.1123 -1.8674
   11CHL1  H21B  794   6.195   1.483   9.162 -0.9982  1.0112 -2.2832
   11CHL1  H21C  795   6.265   1.589   9.038 -0.8280 -1.3934 -0.4311
   11CHL1   C22  796   6.426   1.377   9.000 -0.4043  0.1144 -0.4119
   11CHL1  H22A  797   6.514   1.309   9.002 -1.1160 -0.8280  0.5633
   11CHL1  H22B  798   6.346   1.299   8.999 -0.6728  0.2147  2.5979
   11CHL1   C23  799   6.423   1.465   8.869 -0.1030  0.4029 -0.4913
   11CHL1  H23A  800   6.431   1.396   8.783  1.1828 -2.4811  1.7888
   11CHL1  H23B  801   6.324   1.513   8.857  0.3783  1.1532 -1.6844
   11CHL1   C24  802   6.529   1.575   8.869 -1.0351  0.2824 -0.0787
   11CHL1  H24A  803   6.533   1.632   8.965  1.3260  2.5790 -1.4169
   11CHL1  H24B  804   6.625   1.521   8.860 -2.1800 -1.5014 -2.5565
   11CHL1   C25  805   6.525   1.674   8.748 -0.8994  0.0425  0.1971
   11CHL1   H25  806   6.518   1.603   8.662  0.8443 -2.0923  1.7052
   11CHL1   C26  807   6.403   1.766   8.743  0.0286 -0.2246  0.4155
   11CHL1  H26A  808   6.304   1.716   8.748 -0.1300  0.1644  1.1952
   11CHL1  H26B  809   6.407   1.832   8.832 -0.5788  1.4327 -0.7342
   11CHL1  H26C  810   6.407   1.832   8.653 -0.1020  0.7718  1.1279
   11CHL1   C27  811   6.649   1.766   8.735 -0.2665  0.4611 -0.1676
   11CHL1  H27A  812   6.750   1.719   8.733 -0.4110 -0.5423  4.4472
   11CHL1  H27B  813   6.641   1.831   8.646 -1.8147  0.4251 -0.0934
   11CHL1  H27C  814   6.655   1.833   8.824  2.3600 -0.7134  0.6303
   12CHL1    C3  815   2.238   4.387  10.431  0.5085 -0.5499 -0.3091
   12CHL1    H3  816   2.317   4.464  10.450  0.4909 -0.8377  1.0617
   12CHL1    O3  817   2.193   4.343  10.559 -0.4710 -0.2385  0.6455
   12CHL1   H3'  818   2.128   4.273  10.544  0.8147 -1.1184 -1.2580
   12CHL1    C4  819   2.123   4.463  10.358  0.2854  0.1144 -0.8780
   12CHL1   H4A  820   2.037   4.393  10.348 -0.5713  0.3122  3.2114
   12CHL1   H4B  821   2.082   4.544  10.422  2.1333 -0.0547  0.5927
   12CHL1    C5  822   2.157   4.497  10.218  0.0845 -0.4822  0.1392
   12CHL1    C6  823   2.137   4.617  10.167  0.1573  0.0757  0.0652
   12CHL1    H6  824   2.103   4.705  10.224  1.6005  1.5146 -1.2161
   12CHL1    C7  825   2.164   4.659  10.024 -0.3110  0.1876  0.2967
   12CHL1   H7A  826   2.067   4.695   9.982 -0.8293 -3.5254 -2.1689
   12CHL1   H7B  827   2.240   4.740  10.017  0.2072 -0.1093  2.0930
   12CHL1    C8  828   2.204   4.541   9.929  0.2747 -0.1100  0.4606
   12CHL1    H8  829   2.108   4.491   9.903  0.6895 -0.0177 -1.3513
   12CHL1   C14  830   2.272   4.589   9.810 -0.5822  0.4581 -0.3213
   12CHL1   H14  831   2.360   4.648   9.843 -0.5126  1.1806 -1.7551
   12CHL1   C15  832   2.197   4.689   9.722 -0.4101 -0.0371 -1.1501
   12CHL1  H15A  833   2.088   4.666   9.712 -0.7255 -0.9105  2.7049
   12CHL1  H15B  834   2.197   4.792   9.763  2.9540  0.2501 -1.6012
   12CHL1   C16  835   2.268   4.671   9.588  0.2796 -0.2810 -0.1259
   12CHL1  H16A  836   2.195   4.671   9.505  1.4330  0.5837 -1.1781
   12CHL1  H16B  837   2.320   4.769   9.574  0.4146 -0.1053  1.4176
   12CHL1   C17  838   2.369   4.554   9.590  0.0667  0.2729 -0.3739
   12CHL1   H17  839   2.462   4.610   9.612 -1.4969  2.6883  0.4607
   12CHL1   C13  840   2.321   4.475   9.713  0.4108  0.5105 -0.6155
   12CHL1   C18  841   2.200   4.392   9.675 -0.5173  0.2745  0.0037
   12CHL1  H18A  842   2.234   4.305   9.615 -2.3315 -1.2489  1.0712
   12CHL1  H18B  843   2.150   4.348   9.764 -1.3413 -0.5286 -0.8391
   12CHL1  H18C  844   2.130   4.450   9.611  0.1775  0.6164 -0.4655
   12CHL1   C12  845   2.420   4.391   9.789 -0.6601  0.6742 -0.2914
   12CHL1  H12A  846   2.455   4.308   9.724 -0.7999 -0.2091  0.7168
   12CHL1  H12B  847   2.509   4.451   9.817  0.0989  0.3454 -1.8903
   12CHL1   C11  848   2.361   4.329   9.919 -0.3797  0.1818 -0.0914
   12CHL1  H11A  849   2.297   4.247   9.880 -2.4672  1.0994  1.2297
   12CHL1  H11B  850   2.449   4.290   9.975 -1.2794  0.7411  1.7654
   12CHL1    C9  851   2.291   4.440  10.003  0.3804 -0.9213 -0.3690
   12CHL1    H9  852   2.380   4.494  10.044 -0.0920  0.3347 -0.9318
   12CHL1   C10  853   2.224   4.380  10.137 -0.1266 -0.4654 -0.0288
   12CHL1   C19  854   2.111   4.282  10.090  0.0812  0.2752 -0.5642
   12CHL1  H19A  855   2.159   4.201  10.030  0.3157  0.1318 -0.1854
   12CHL1  H19B  856   2.067   4.221  10.171 -0.7974 -0.5765 -1.6415
   12CHL1  H19C  857   2.035   4.333  10.028 -2.2888 -1.5857  0.6544
   12CHL1    C1  858   2.338   4.312  10.215  0.4334 -0.0636 -0.8905
   12CHL1   H1A  859   2.397   4.232  10.164  2.1315  0.2265  0.4976
   12CHL1   H1B  860   2.413   4.392  10.233  1.2029 -0.6254 -1.4886
   12CHL1    C2  861   2.302   4.266  10.358 -0.3935 -0.5341  0.4018
   12CHL1   H2A  862   2.383   4.231  10.427 -0.4162 -0.8855  0.2496
   12CHL1   H2B  863   2.222   4.190  10.352  0.7962 -1.9226  1.3239
   12CHL1   C20  864   2.382   4.486   9.448 -0.2072  0.1066  0.1829
   12CHL1   H20  865   2.287   4.430   9.436 -0.6281  0.9154 -0.4227
   12CHL1   C21  866   2.498   4.397   9.453  0.3357  0.3305  0.0129
   12CHL1  H21A  867   2.498   4.330   9.364 -0.2230  0.9507 -0.4555
   12CHL1  H21B  868   2.476   4.323   9.533  0.7388  1.2700  1.0195
   12CHL1  H21C  869   2.599   4.441   9.468 -0.0700  0.9967  0.8317
   12CHL1   C22  870   2.390   4.583   9.330 -0.2117 -0.2760 -0.3037
   12CHL1  H22A  871   2.329   4.676   9.328  1.7991  1.0958 -0.7842
   12CHL1  H22B  872   2.499   4.598   9.314  0.3884 -1.7198  1.8641
   12CHL1   C23  873   2.345   4.525   9.199 -0.4059  0.0228 -0.1768
   12CHL1  H23A  874   2.401   4.432   9.172 -0.6467 -0.1605 -0.0538
   12CHL1  H23B  875   2.239   4.494   9.210 -0.2347 -0.1736  0.9951
   12CHL1   C24  876   2.339   4.625   9.069  0.1279  0.0403  0.2215
   12CHL1  H24A  877   2.262   4.703   9.083  0.2393  0.1701  0.1206
   12CHL1  H24B  878   2.439   4.674   9.066 -0.2316  0.7937  0.3334
   12CHL1   C25  879   2.321   4.539   8.943 -0.3724 -0.1925 -0.3544
   12CHL1   H25  880   2.246   4.457   8.950 -0.6943 -0.0976 -2.2754
   12CHL1   C26  881   2.269   4.617   8.822 -0.1854 -0.1836  0.2593
   12CHL1  H26A  882   2.263   4.544   8.738  0.0572  0.0415  0.0451
   12CHL1  H26B  883   2.166   4.658   8.837  0.2433  0.3348  2.0531
   12CHL1  H26C  884   2.334   4.703   8.795  0.5506 -0.6224  0.6010
   12CHL1   C27  885   2.452   4.471   8.914 -0.1548 -0.0821 -0.0737
   12CHL1  H27A  886   2.540   4.533   8.890 -0.5136 -0.1153 -1.5521
   12CHL1  H27B  887   2.469   4.396   8.995 -0.0097  0.2208  0.1787
   12CHL1  H27C  888   2.443   4.407   8.824  1.5831 -2.7835  1.5159
   13CHL1    C3  889   5.445   6.113  10.147 -0.5624 -0.2091 -0.1907
   13CHL1    H3  890   5.389   6.026  10.106  0.1821 -0.2062 -1.2525
   13CHL1    O3  891   5.383   6.145  10.267 -0.1961 -0.6642 -0.2217
   13CHL1   H3'  892   5.325   6.217  10.240  1.4227  1.5152  1.6474
   13CHL1    C4  893   5.589   6.050  10.169 -0.9309  0.0329 -0.2670
   13CHL1   H4A  894   5.662   6.110  10.226  2.1999 -1.6704 -2.1527
   13CHL1   H4B  895   5.570   5.959  10.230 -2.3812 -0.7660 -1.8094
   13CHL1    C5  896   5.653   6.005  10.043  0.7310 -1.2243 -0.3624
   13CHL1    C6  897   5.707   5.888  10.024  0.0965 -0.4528  0.3487
   13CHL1    H6  898   5.699   5.809  10.100 -2.2695 -0.4807  0.1364
   13CHL1    C7  899   5.785   5.850   9.903  0.2418 -0.6811  0.5380
   13CHL1   H7A  900   5.885   5.807   9.922  0.2625 -1.0826 -0.3991
   13CHL1   H7B  901   5.732   5.779   9.835 -0.6910  1.7665 -1.4694
   13CHL1    C8  902   5.815   5.976   9.809 -0.1909 -0.5147 -0.0261
   13CHL1    H8  903   5.905   6.023   9.855 -1.0206  1.2929 -0.1755
   13CHL1   C14  904   5.841   5.921   9.665 -0.5865 -0.2599 -0.1186
   13CHL1   H14  905   5.736   5.897   9.635 -1.6244  1.0719  2.2139
   13CHL1   C15  906   5.933   5.803   9.648 -1.0123 -0.7338  0.1589
   13CHL1  H15A  907   6.026   5.813   9.708 -0.1739 -0.5285 -1.1430
   13CHL1  H15B  908   5.877   5.709   9.667 -1.3755 -0.9964 -2.0385
   13CHL1   C16  909   5.974   5.812   9.504 -0.1719  0.1937  0.1416
   13CHL1  H16A  910   6.085   5.817   9.499 -0.1296 -1.2124 -1.4543
   13CHL1  H16B  911   5.958   5.720   9.443 -0.0172  0.5775 -0.4818
   13CHL1   C17  912   5.921   5.945   9.442 -0.1010 -0.1569  0.3156
   13CHL1   H17  913   5.830   5.915   9.386  0.7215 -2.1837 -0.0198
   13CHL1   C13  914   5.888   6.026   9.568 -0.5308 -0.0480  0.0884
   13CHL1   C18  915   6.022   6.088   9.620 -0.6629 -0.1914 -1.1555
   13CHL1  H18A  916   6.045   6.183   9.568  2.2807  0.2103  0.7093
   13CHL1  H18B  917   6.022   6.111   9.728  1.0043 -0.8544 -0.9856
   13CHL1  H18C  918   6.106   6.015   9.614  0.1274  0.5555  0.3517
   13CHL1   C12  919   5.769   6.128   9.558 -0.0148 -0.0701  0.2336
   13CHL1  H12A  920   5.804   6.214   9.497 -1.4582  1.7717  1.8536
   13CHL1  H12B  921   5.692   6.075   9.498  2.3261 -0.9465 -2.2098
   13CHL1   C11  922   5.720   6.177   9.698 -0.4180  0.2822 -0.0237
   13CHL1  H11A  923   5.797   6.238   9.749  0.7584 -0.9286 -0.2816
   13CHL1  H11B  924   5.633   6.244   9.679 -1.0355 -0.9070 -1.6392
   13CHL1    C9  925   5.693   6.059   9.799  0.2849  0.3090 -0.4264
   13CHL1    H9  926   5.608   5.998   9.761 -0.2035 -0.2489  1.4443
   13CHL1   C10  927   5.647   6.119   9.940  0.9501  0.2277  0.8126
   13CHL1   C19  928   5.754   6.219   9.992 -0.2276  0.6093 -0.6153
   13CHL1  H19A  929   5.852   6.167   9.991 -0.1847  0.5869  1.1937
   13CHL1  H19B  930   5.747   6.313   9.932  0.3537  0.3873 -1.0330
   13CHL1  H19C  931   5.743   6.257  10.096 -0.3473 -0.7841 -0.0953
   13CHL1    C1  932   5.501   6.191   9.920 -0.5283  0.2200  0.1234
   13CHL1   H1A  933   5.508   6.280   9.852  0.9487  1.3312  1.6428
   13CHL1   H1B  934   5.437   6.117   9.867 -0.6998  0.0045  0.6302
   13CHL1    C2  935   5.441   6.230  10.055  0.3777  0.2233 -0.1282
   13CHL1   H2A  936   5.330   6.226  10.047  0.1915 -4.5627  1.3550
   13CHL1   H2B  937   5.486   6.322  10.097  1.2802 -0.3413  0.1659
   13CHL1   C20  938   6.018   6.002   9.342 -0.7382 -0.1112  0.2417
   13CHL1   H20  939   6.119   6.013   9.386 -1.1337  3.5816  0.5048
   13CHL1   C21  940   5.976   6.142   9.289 -0.1332 -0.6635 -0.0302
   13CHL1  H21A  941   5.869   6.148   9.261  0.2128  1.6093 -1.1567
   13CHL1  H21B  942   6.042   6.158   9.200 -0.5933  1.7213 -0.0161
   13CHL1  H21C  943   6.009   6.222   9.359  4.6043 -0.4338 -2.0784
   13CHL1   C22  944   6.026   5.903   9.218  0.5044  0.3392 -0.7128
   13CHL1  H22A  945   6.004   5.801   9.256  0.0048 -0.2933 -2.5814
   13CHL1  H22B  946   5.940   5.921   9.150 -0.0294 -2.3272 -0.8770
   13CHL1   C23  947   6.153   5.895   9.136 -0.3291 -0.4216 -0.2388
   13CHL1  H23A  948   6.173   5.994   9.090  0.0736 -0.2935  0.2141
   13CHL1  H23B  949   6.230   5.864   9.210  1.1297  0.1527 -1.4732
   13CHL1   C24  950   6.131   5.785   9.034 -1.0602  0.5131  0.0503
   13CHL1  H24A  951   6.134   5.690   9.091 -0.8013 -0.8294 -2.1287
   13CHL1  H24B  952   6.034   5.791   8.981 -1.3939 -1.3217  0.3986
   13CHL1   C25  953   6.244   5.772   8.931 -0.0993 -0.2033 -0.1003
   13CHL1   H25  954   6.344   5.785   8.978  0.6162 -1.3299 -1.2594
   13CHL1   C26  955   6.247   5.635   8.859 -0.4412  0.1791 -0.3500
   13CHL1  H26A  956   6.322   5.623   8.779  0.5939  0.8869  0.4826
   13CHL1  H26B  957   6.259   5.559   8.938 -2.2310  1.1751  0.9609
   13CHL1  H26C  958   6.150   5.609   8.811 -1.2005 -2.1272  2.2013
   13CHL1   C27  959   6.244   5.891   8.832 -0.4834 -0.2397 -0.0551
   13CHL1  H27A  960   6.319   5.878   8.751 -1.7363  1.2806 -1.5473
   13CHL1  H27B  961   6.150   5.892   8.772 -0.3200 -0.4258 -0.3199
   13CHL1  H27C  962   6.256   5.995   8.868 -1.1232  0.5132 -1.8629
   14CHL1    C3  963   2.332   1.460  10.187  0.3386 -0.0659 -0.1495
   14CHL1    H3  964   2.260   1.377  10.177 -0.4743  0.6445 -0.3448
   14CHL1    O3  965   2.341   1.490  10.328 -0.2409  0.1892 -1.1073
   14CHL1   H3'  966   2.422   1.450  10.363 -0.5725 -2.2017 -2.7792
   14CHL1    C4  967   2.467   1.420  10.136 -0.1047 -0.3414 -0.0795
   14CHL1   H4A  968   2.539   1.504  10.144 -0.0315 -0.6075  3.0566
   14CHL1   H4B  969   2.513   1.340  10.198  1.7716  1.4022  0.8776
   14CHL1    C5  970   2.459   1.379   9.992  0.0902  0.4180 -0.2654
   14CHL1    C6  971   2.507   1.260   9.950 -0.8266  0.3016  0.1203
   14CHL1    H6  972   2.565   1.191  10.014 -1.0739  0.3707  0.4209
   14CHL1    C7  973   2.497   1.212   9.808  0.6260 -0.4468  0.8480
   14CHL1   H7A  974   2.589   1.163   9.771  0.9610  0.8599 -0.1655
   14CHL1   H7B  975   2.417   1.135   9.808  2.6701 -2.9762 -3.7257
   14CHL1    C8  976   2.451   1.322   9.707 -0.3918 -0.8382  0.4845
   14CHL1    H8  977   2.546   1.379   9.697  0.2165 -1.4716  2.2345
   14CHL1   C14  978   2.400   1.271   9.577 -0.4582 -0.2422  0.1331
   14CHL1   H14  979   2.304   1.219   9.599  0.3948 -1.3583  1.3614
   14CHL1   C15  980   2.488   1.170   9.505 -0.5301  0.4747  0.3883
   14CHL1  H15A  981   2.598   1.187   9.514 -0.2574 -1.5319  1.2003
   14CHL1  H15B  982   2.467   1.067   9.540  1.3702 -0.3827 -0.8160
   14CHL1   C16  983   2.446   1.166   9.351 -0.0890 -0.2612  0.7232
   14CHL1  H16A  984   2.533   1.200   9.290 -0.6756  1.3845  0.7449
   14CHL1  H16B  985   2.407   1.065   9.331  0.4326  0.0329 -2.3728
   14CHL1   C17  986   2.336   1.284   9.346  0.0429  0.3865  0.1878
   14CHL1   H17  987   2.241   1.233   9.373 -0.1772  1.1454  0.8857
   14CHL1   C13  988   2.369   1.371   9.466  0.6782  0.6732  0.5063
   14CHL1   C18  989   2.506   1.451   9.438 -0.2037 -0.8669  0.2676
   14CHL1  H18A  990   2.551   1.498   9.528  0.6063 -1.8190  0.3806
   14CHL1  H18B  991   2.589   1.380   9.416 -0.3732 -0.6849 -1.0351
   14CHL1  H18C  992   2.498   1.532   9.362  1.4830 -0.3068  0.6245
   14CHL1   C12  993   2.257   1.459   9.521 -0.2046 -0.5065 -1.2022
   14CHL1  H12A  994   2.230   1.534   9.444 -0.8641 -0.6745 -1.1416
   14CHL1  H12B  995   2.167   1.397   9.541 -0.1029 -0.2002  0.2673
   14CHL1   C11  996   2.303   1.531   9.649  0.0037  0.7691 -0.2919
   14CHL1  H11A  997   2.395   1.591   9.629  1.0623 -0.1545  1.4708
   14CHL1  H11B  998   2.227   1.605   9.681  0.3442  0.9706  0.0655
   14CHL1    C9  999   2.348   1.429   9.763 -0.2636 -0.5528 -0.7311
   14CHL1    H9 1000   2.260   1.362   9.773 -0.3008 -0.4914 -0.6507
   14CHL1   C10 1001   2.379   1.482   9.901 -0.0187 -0.0007  0.0995
   14CHL1   C19 1002   2.474   1.605   9.882  0.3924  0.1117 -0.3365
   14CHL1  H19A 1003   2.441   1.690   9.819  1.3317 -0.7990 -2.1347
   14CHL1  H19B 1004   2.488   1.658   9.979 -1.3922 -0.6084  0.3774
   14CHL1  H19C 1005   2.574   1.571   9.849  0.3736  1.6411 -2.0593
   14CHL1    C1 1006   2.246   1.522   9.969  0.4457 -0.5286  0.5455
   14CHL1   H1A 1007   2.188   1.598   9.913  0.3514 -2.6921 -2.5748
   14CHL1   H1B 1008   2.174   1.438   9.968  0.4682 -0.5792 -1.3808
   14CHL1    C2 1009   2.260   1.572  10.115  0.6461 -0.9586  0.2502
   14CHL1   H2A 1010   2.155   1.590  10.147  0.4941 -2.8714  0.9219
   14CHL1   H2B 1011   2.310   1.668  10.140  0.8073 -1.0008  0.0908
   14CHL1   C20 1012   2.319   1.359   9.209  0.2171 -0.4465  0.0251
   14CHL1   H20 1013   2.313   1.468   9.229  0.0211 -0.3311 -0.6424
   14CHL1   C21 1014   2.179   1.316   9.150 -0.4910  0.7556 -0.1856
   14CHL1  H21A 1015   2.147   1.368   9.057 -0.6577 -1.0740 -1.1981
   14CHL1  H21B 1016   2.105   1.326   9.232  1.0476  2.1468  1.0907
   14CHL1  H21C 1017   2.179   1.209   9.120  1.4357  0.9561 -1.0128
   14CHL1   C22 1018   2.439   1.333   9.111  0.3966 -0.7208  0.3079
   14CHL1  H22A 1019   2.540   1.352   9.155  0.9646  2.4282 -2.0337
   14CHL1  H22B 1020   2.441   1.227   9.077  0.0351 -0.4493 -0.5814
   14CHL1   C23 1021   2.435   1.418   8.990  0.0391 -0.0426  0.4635
   14CHL1  H23A 1022   2.352   1.398   8.919  2.1199  0.0361 -2.1508
   14CHL1  H23B 1023   2.420   1.524   9.019  2.1491  0.8191 -1.3382
   14CHL1   C24 1024   2.567   1.419   8.906  0.6689 -0.2021 -0.0748
   14CHL1  H24A 1025   2.574   1.518   8.855  1.7607  0.1667  0.7329
   14CHL1  H24B 1026   2.638   1.411   8.991  1.0771 -1.9592 -0.5424
   14CHL1   C25 1027   2.588   1.300   8.810  0.7973  0.6952  0.2875
   14CHL1   H25 1028   2.516   1.223   8.845  0.7105  0.1175 -1.0824
   14CHL1   C26 1029   2.541   1.330   8.665 -0.7916 -0.5141  0.2669
   14CHL1  H26A 1030   2.450   1.394   8.669  0.2935  1.1464 -0.4371
   14CHL1  H26B 1031   2.619   1.398   8.624 -0.9190  0.2461  1.2445
   14CHL1  H26C 1032   2.528   1.245   8.595 -2.2160  1.1713 -1.6272
   14CHL1   C27 1033   2.729   1.239   8.816  0.3351 -0.3026 -0.0014
   14CHL1  H27A 1034   2.810   1.309   8.786 -0.1618  0.1015 -0.4251
   14CHL1  H27B 1035   2.749   1.192   8.915  3.8652 -1.3253 -1.0475
   14CHL1  H27C 1036   2.741   1.155   8.744  3.3892  0.0773 -0.1058
   15CHL1    C3 1037   2.096   1.142  10.276  0.3827  0.3982  0.0192
   15CHL1    H3 1038   2.096   1.248  10.243 -1.6335  0.3456 -0.2999
   15CHL1    O3 1039   2.082   1.130  10.421 -0.1064 -0.0802 -0.7048
   15CHL1   H3' 1040   2.116   1.214  10.454  0.6495 -0.8625  0.5547
   15CHL1    C4 1041   1.973   1.076  10.208 -0.4714  0.6216  0.0632
   15CHL1   H4A 1042   1.960   0.983  10.267 -0.4090 -0.4939 -1.6148
   15CHL1   H4B 1043   1.880   1.135  10.219  0.4175  1.7982  1.6200
   15CHL1    C5 1044   1.997   1.047  10.066  0.4494 -0.2290 -0.5964
   15CHL1    C6 1045   1.907   1.087   9.971  0.2534 -1.0126  0.1559
   15CHL1    H6 1046   1.830   1.162   9.997  0.3833 -0.4973 -0.8793
   15CHL1    C7 1047   1.922   1.056   9.823  0.4380  0.1180 -0.3834
   15CHL1   H7A 1048   1.823   1.040   9.776  0.9766 -0.0927 -1.5057
   15CHL1   H7B 1049   1.972   1.147   9.784  0.3396 -0.2414 -1.3834
   15CHL1    C8 1050   2.014   0.940   9.797  0.3237 -0.0605  0.3038
   15CHL1    H8 1051   1.976   0.845   9.839  1.1742  0.0343  1.3149
   15CHL1   C14 1052   2.055   0.932   9.651  0.6961 -0.2521  0.0693
   15CHL1   H14 1053   2.098   1.031   9.625 -0.3508  0.7551  1.9337
   15CHL1   C15 1054   1.951   0.919   9.539 -0.0355  0.0862 -0.0705
   15CHL1  H15A 1055   1.885   0.834   9.564  1.1764 -0.6561  0.7000
   15CHL1  H15B 1056   1.894   1.012   9.517  1.0336  0.0006 -3.7903
   15CHL1   C16 1057   2.035   0.885   9.417 -0.9551  0.6570 -0.3054
   15CHL1  H16A 1058   1.997   0.803   9.353 -0.0255  0.3856 -0.5159
   15CHL1  H16B 1059   2.043   0.978   9.357  0.4034  1.8617  1.6186
   15CHL1   C17 1060   2.177   0.839   9.466 -0.0902  0.1993 -0.0458
   15CHL1   H17 1061   2.248   0.922   9.451 -0.5525  0.2542 -2.3772
   15CHL1   C13 1062   2.154   0.822   9.615  0.0650 -0.2148 -0.5445
   15CHL1   C18 1063   2.108   0.675   9.650  0.0572 -0.0299 -0.5088
   15CHL1  H18A 1064   2.045   0.681   9.742  0.0148  0.8562 -0.5822
   15CHL1  H18B 1065   2.039   0.641   9.570  1.2998 -0.0334 -1.6107
   15CHL1  H18C 1066   2.195   0.607   9.659 -1.2752 -1.5488  2.0875
   15CHL1   C12 1067   2.284   0.856   9.695 -0.9997  0.0452  0.0847
   15CHL1  H12A 1068   2.375   0.799   9.667 -0.1930  0.5376  1.5786
   15CHL1  H12B 1069   2.313   0.953   9.648  1.2148 -1.4762 -1.9348
   15CHL1   C11 1070   2.259   0.866   9.843  0.4931  0.3660 -0.2121
   15CHL1  H11A 1071   2.245   0.762   9.881 -0.0457  1.1830  2.0008
   15CHL1  H11B 1072   2.349   0.905   9.895  1.6871 -1.8474 -0.5177
   15CHL1    C9 1073   2.142   0.959   9.878 -0.2617  0.6185 -0.1897
   15CHL1    H9 1074   2.177   1.058   9.841 -3.4880  1.3665 -1.5817
   15CHL1   C10 1075   2.118   0.973  10.028 -0.7012 -0.1772 -0.2095
   15CHL1   C19 1076   2.104   0.823  10.086  0.3891 -0.6579 -0.1689
   15CHL1  H19A 1077   2.111   0.831  10.197 -0.3898  0.5017 -0.1812
   15CHL1  H19B 1078   2.007   0.773  10.062 -0.1987  0.8623 -1.0818
   15CHL1  H19C 1079   2.192   0.763  10.056  1.4739  0.6929  0.2023
   15CHL1    C1 1080   2.240   1.060  10.090 -0.2754  0.1119 -0.0232
   15CHL1   H1A 1081   2.334   1.008  10.061 -0.0352  0.4197  0.1957
   15CHL1   H1B 1082   2.232   1.151  10.026 -1.1616 -0.4116 -0.6818
   15CHL1    C2 1083   2.231   1.080  10.240 -0.5578  0.5117 -0.2140
   15CHL1   H2A 1084   2.307   1.150  10.282 -0.0460 -1.5387  2.5665
   15CHL1   H2B 1085   2.245   0.989  10.302 -0.0044  1.6457  1.3934
   15CHL1   C20 1086   2.239   0.718   9.385 -0.1741 -0.4330 -0.1548
   15CHL1   H20 1087   2.175   0.630   9.410  0.8493 -0.5911  2.1300
   15CHL1   C21 1088   2.381   0.689   9.431  0.0956 -0.1830 -0.2296
   15CHL1  H21A 1089   2.384   0.650   9.535  0.2544 -0.1089 -0.2061
   15CHL1  H21B 1090   2.455   0.771   9.414  1.9438 -1.5753  0.6839
   15CHL1  H21C 1091   2.420   0.604   9.370  0.6781  1.5270 -2.3554
   15CHL1   C22 1092   2.247   0.753   9.234 -0.7060 -0.0335 -0.2608
   15CHL1  H22A 1093   2.189   0.846   9.215  1.5368  1.3342 -0.7873
   15CHL1  H22B 1094   2.349   0.787   9.206 -1.5818  3.1762  0.1398
   15CHL1   C23 1095   2.195   0.639   9.142  0.9278 -0.3592 -0.7935
   15CHL1  H23A 1096   2.229   0.540   9.181  0.4985 -0.5653 -0.9307
   15CHL1  H23B 1097   2.086   0.625   9.159  1.2578 -0.2941  1.7177
   15CHL1   C24 1098   2.228   0.647   8.992 -0.3430 -0.2295  0.3383
   15CHL1  H24A 1099   2.207   0.750   8.954 -0.3512 -1.0254 -1.9920
   15CHL1  H24B 1100   2.336   0.623   8.984 -0.5834 -0.9180 -1.2881
   15CHL1   C25 1101   2.140   0.550   8.914 -0.4019 -0.1493  0.1458
   15CHL1   H25 1102   2.034   0.571   8.941 -0.1685  2.0938 -0.4616
   15CHL1   C26 1103   2.152   0.561   8.763  0.6453 -0.8685 -0.3518
   15CHL1  H26A 1104   2.086   0.644   8.729  1.4748  0.0447  0.2322
   15CHL1  H26B 1105   2.259   0.583   8.741  0.9347 -0.0115  1.6577
   15CHL1  H26C 1106   2.137   0.462   8.715  2.3297 -2.0305  1.3935
   15CHL1   C27 1107   2.160   0.404   8.949  0.3437 -0.2008  0.3511
   15CHL1  H27A 1108   2.087   0.348   8.887 -0.6164  1.9163 -0.5340
   15CHL1  H27B 1109   2.263   0.375   8.920  0.9046  2.1590 -0.1882
   15CHL1  H27C 1110   2.133   0.383   9.055 -0.1758  0.0514  0.2715
   16CHL1    C3 1111   3.958   0.298  10.288  0.1024 -0.1305  0.1644
   16CHL1    H3 1112   4.048   0.265  10.345  0.8263 -0.2595 -1.0159
   16CHL1    O3 1113   3.850   0.305  10.375 -0.7280  0.1813 -0.2925
   16CHL1   H3' 1114   3.849   0.395  10.406 -1.4945 -0.1112  0.5894
   16CHL1    C4 1115   3.978   0.435  10.210 -0.3987 -0.3950 -0.5620
   16CHL1   H4A 1116   3.879   0.456  10.164 -0.2073  2.9605  0.3559
   16CHL1   H4B 1117   4.000   0.509  10.289  0.8584 -0.0819 -1.1910
   16CHL1    C5 1118   4.089   0.429  10.106  0.3322 -0.2343  0.5388
   16CHL1    C6 1119   4.187   0.516  10.094 -0.6438 -0.2046 -0.1535
   16CHL1    H6 1120   4.195   0.596  10.169 -0.4269  2.0181 -2.4131
   16CHL1    C7 1121   4.292   0.507   9.985  0.1250  0.1819 -1.2517
   16CHL1   H7A 1122   4.330   0.601   9.941  2.2122 -1.2106 -2.5743
   16CHL1   H7B 1123   4.382   0.457  10.027  1.5638  2.2542 -1.7169
   16CHL1    C8 1124   4.256   0.417   9.872  0.0616 -0.4997  0.2913
   16CHL1    H8 1125   4.180   0.467   9.808 -1.4399 -4.6653 -1.5622
   16CHL1   C14 1126   4.385   0.383   9.792  0.7202 -0.6288 -0.1961
   16CHL1   H14 1127   4.446   0.338   9.873 -2.3013 -2.1213  1.4223
   16CHL1   C15 1128   4.460   0.501   9.726 -0.8318  0.2746  0.2091
   16CHL1  H15A 1129   4.381   0.556   9.672  0.7726  2.5063 -0.0034
   16CHL1  H15B 1130   4.519   0.547   9.808 -0.2408 -2.1149  1.2323
   16CHL1   C16 1131   4.545   0.434   9.617 -0.4389  0.4649 -0.1166
   16CHL1  H16A 1132   4.509   0.471   9.519 -0.3530 -2.4836 -1.3757
   16CHL1  H16B 1133   4.653   0.459   9.621 -0.8250  2.2422 -0.1044
   16CHL1   C17 1134   4.508   0.280   9.625 -0.2252 -0.7967 -0.1923
   16CHL1   H17 1135   4.571   0.236   9.706  0.2755 -1.8548 -1.1296
   16CHL1   C13 1136   4.364   0.277   9.679 -0.3159 -0.0876 -0.6288
   16CHL1   C18 1137   4.264   0.322   9.567 -0.0099  0.0660 -0.8888
   16CHL1  H18A 1138   4.258   0.239   9.495 -1.3690 -1.6413  1.0697
   16CHL1  H18B 1139   4.163   0.336   9.613  0.6862 -1.6933  1.3707
   16CHL1  H18C 1140   4.294   0.417   9.517 -0.7842  1.3681  0.9582
   16CHL1   C12 1141   4.313   0.150   9.747  1.2254 -0.0516 -0.4371
   16CHL1  H12A 1142   4.296   0.065   9.678  1.8368 -0.7204  0.2248
   16CHL1  H12B 1143   4.392   0.109   9.813  0.8741 -0.2319 -0.1284
   16CHL1   C11 1144   4.182   0.172   9.822  0.2599  0.3381  0.2178
   16CHL1  H11A 1145   4.102   0.189   9.746  0.2477 -1.6147 -0.2539
   16CHL1  H11B 1146   4.164   0.075   9.874  1.4755  0.3058  0.6094
   16CHL1    C9 1147   4.193   0.290   9.925 -0.1687  0.1666  0.6942
   16CHL1    H9 1148   4.267   0.254   9.999 -0.5179 -2.5731 -0.1693
   16CHL1   C10 1149   4.065   0.318  10.011 -0.0153  0.2661  0.4265
   16CHL1   C19 1150   3.944   0.358   9.921 -0.2411  0.0671 -0.2707
   16CHL1  H19A 1151   3.914   0.269   9.862 -0.9648  0.7941 -1.0245
   16CHL1  H19B 1152   3.850   0.386   9.973 -0.5852 -1.2431 -0.1540
   16CHL1  H19C 1153   3.982   0.440   9.856  2.1947 -1.0890 -0.4297
   16CHL1    C1 1154   4.030   0.179  10.082  0.7684  0.5519  0.1215
   16CHL1   H1A 1155   3.996   0.110  10.002 -1.8452  1.0300  0.7244
   16CHL1   H1B 1156   4.123   0.128  10.116 -0.7612 -2.6112 -0.1783
   16CHL1    C2 1157   3.931   0.185  10.196  0.2883 -0.5593  0.0621
   16CHL1   H2A 1158   3.931   0.090  10.253 -2.5771 -0.3231  0.6150
   16CHL1   H2B 1159   3.832   0.202  10.147 -0.2595  0.7187  1.5663
   16CHL1   C20 1160   4.540   0.201   9.498 -1.0382 -0.4303 -0.7694
   16CHL1   H20 1161   4.462   0.220   9.420  0.7637  0.0950 -2.5228
   16CHL1   C21 1162   4.537   0.048   9.524  0.2868  0.7263 -0.5779
   16CHL1  H21A 1163   4.588  -0.018   9.450 -3.1068 -3.0029  0.0778
   16CHL1  H21B 1164   4.430   0.020   9.536  0.4935  0.4610  0.7738
   16CHL1  H21C 1165   4.589   0.031   9.620  0.7805  1.8875 -0.6200
   16CHL1   C22 1166   4.680   0.236   9.432  0.4115  0.6403  0.0021
   16CHL1  H22A 1167   4.685   0.343   9.403  1.7278  0.6329  0.1311
   16CHL1  H22B 1168   4.766   0.205   9.495 -0.8324 -0.6249  1.1378
   16CHL1   C23 1169   4.691   0.162   9.294 -0.0049 -0.2925  0.0024
   16CHL1  H23A 1170   4.690   0.053   9.316  1.5508  0.0478  2.0918
   16CHL1  H23B 1171   4.613   0.193   9.222 -0.8221 -0.1273  0.9350
   16CHL1   C24 1172   4.828   0.189   9.220  1.0132 -0.0681 -0.9681
   16CHL1  H24A 1173   4.840   0.297   9.194  1.9154 -0.1394 -0.8809
   16CHL1  H24B 1174   4.909   0.161   9.291  0.9956  0.2268 -0.8301
   16CHL1   C25 1175   4.836   0.119   9.082  0.0614  0.0419 -0.1541
   16CHL1   H25 1176   4.813   0.010   9.082 -3.4221  0.6368 -1.8348
   16CHL1   C26 1177   4.745   0.181   8.976  0.3255  1.0440 -0.5914
   16CHL1  H26A 1178   4.652   0.222   9.020  1.3570  1.1953  1.5561
   16CHL1  H26B 1179   4.790   0.270   8.927 -2.0358  1.7748 -1.5754
   16CHL1  H26C 1180   4.718   0.109   8.895  0.8675  0.9073 -0.6578
   16CHL1   C27 1181   4.985   0.136   9.044  0.0029 -0.2478 -0.2471
   16CHL1  H27A 1182   5.023   0.069   8.963  0.4410 -0.2958 -0.0039
   16CHL1  H27B 1183   4.986   0.240   9.004  1.9916 -0.5161 -1.0435
   16CHL1  H27C 1184   5.046   0.128   9.136 -0.0162  0.9143 -0.1273
   17CHL1    C3 1185   1.516   5.909  10.412 -0.3716  0.6611 -0.0956
   17CHL1    H3 1186   1.486   5.802  10.410  0.0004  0.5600 -0.3415
   17CHL1    O3 1187   1.514   5.943  10.544  0.2657 -0.2197 -0.6959
   17CHL1   H3' 1188   1.514   6.039  10.551  1.8574 -0.3021  1.8280
   17CHL1    C4 1189   1.657   5.906  10.351  0.5707 -0.6341 -0.2640
   17CHL1   H4A 1190   1.698   6.003  10.383 -0.6641  0.5325 -1.9983
   17CHL1   H4B 1191   1.723   5.835  10.406  0.4693 -0.4751  0.0636
   17CHL1    C5 1192   1.660   5.873  10.204  0.1107  0.3338 -0.0846
   17CHL1    C6 1193   1.747   5.781  10.156  0.2603 -0.0685  0.0837
   17CHL1    H6 1194   1.811   5.720  10.222  1.6092  1.9937  0.8010
   17CHL1    C7 1195   1.776   5.759  10.012  0.4650  0.2298 -0.5075
   17CHL1   H7A 1196   1.885   5.758   9.989  1.0622  1.7204  1.8353
   17CHL1   H7B 1197   1.742   5.658   9.980  0.7447  0.3293 -1.1338
   17CHL1    C8 1198   1.725   5.864   9.922 -0.1564  0.3913 -0.2714
   17CHL1    H8 1199   1.787   5.956   9.926 -2.8612  2.3139  1.8299
   17CHL1   C14 1200   1.714   5.817   9.779 -0.5013 -0.2662 -0.2573
   17CHL1   H14 1201   1.651   5.726   9.783 -0.0187 -0.7792 -2.5502
   17CHL1   C15 1202   1.847   5.762   9.725  0.3651 -0.1668 -0.4726
   17CHL1  H15A 1203   1.932   5.828   9.753 -0.4305  1.1040 -1.0166
   17CHL1  H15B 1204   1.884   5.664   9.762  0.5943  0.0021 -0.2490
   17CHL1   C16 1205   1.819   5.766   9.570 -0.3181  0.7477 -0.5477
   17CHL1  H16A 1206   1.893   5.831   9.519 -1.3898  2.0401 -0.4952
   17CHL1  H16B 1207   1.834   5.662   9.535 -0.6081  1.1645 -1.9378
   17CHL1   C17 1208   1.677   5.817   9.546 -0.5925 -0.7737 -0.5935
   17CHL1   H17 1209   1.597   5.741   9.556 -0.9920 -0.3281 -0.3440
   17CHL1   C13 1210   1.651   5.906   9.669  0.0580 -0.3446  0.2914
   17CHL1   C18 1211   1.739   6.040   9.668  0.4927 -0.4148 -0.1746
   17CHL1  H18A 1212   1.759   6.082   9.768 -0.9392  1.9628 -0.8146
   17CHL1  H18B 1213   1.839   6.032   9.622 -0.6360 -0.5382 -2.8182
   17CHL1  H18C 1214   1.689   6.114   9.601 -0.8460  0.7096  1.9478
   17CHL1   C12 1215   1.503   5.935   9.725  0.0427  0.4617  0.2273
   17CHL1  H12A 1216   1.445   5.997   9.654 -0.1391 -0.1614 -0.1804
   17CHL1  H12B 1217   1.448   5.841   9.748  1.1821  0.1850  1.9933
   17CHL1   C11 1218   1.508   5.994   9.863 -0.2232 -0.0228  0.2156
   17CHL1  H11A 1219   1.560   6.091   9.849 -1.7015  0.6461 -0.8875
   17CHL1  H11B 1220   1.405   6.015   9.900 -0.1070  0.1912  0.4226
   17CHL1    C9 1221   1.579   5.901   9.969 -0.1274 -0.3744  0.1329
   17CHL1    H9 1222   1.517   5.809   9.977 -0.6918 -0.0965 -0.8013
   17CHL1   C10 1223   1.577   5.966  10.118 -0.0640 -0.5080 -0.1990
   17CHL1   C19 1224   1.638   6.105  10.122 -0.7507 -0.3424 -0.6625
   17CHL1  H19A 1225   1.636   6.147  10.224  1.5870 -1.4547 -0.0911
   17CHL1  H19B 1226   1.745   6.099  10.092 -0.5669 -0.0837 -0.0773
   17CHL1  H19C 1227   1.601   6.181  10.050 -0.5767  0.6214  0.2365
   17CHL1    C1 1228   1.433   5.975  10.179  0.6979  0.3676 -0.1349
   17CHL1   H1A 1229   1.370   6.047  10.124  1.3600  0.1503 -1.1977
   17CHL1   H1B 1230   1.390   5.874  10.158 -1.2131  0.8559  1.1624
   17CHL1    C2 1231   1.430   5.999  10.334  0.0401  0.2149 -0.3155
   17CHL1   H2A 1232   1.325   5.977  10.364  0.5918 -2.2642  0.0524
   17CHL1   H2B 1233   1.454   6.106  10.350 -0.9358  0.3109  0.6628
   17CHL1   C20 1234   1.653   5.877   9.406 -0.3779  0.4967  0.3803
   17CHL1   H20 1235   1.685   5.983   9.402 -0.5842  0.5449 -3.9262
   17CHL1   C21 1236   1.506   5.885   9.373 -0.4366 -0.1137  0.3815
   17CHL1  H21A 1237   1.483   5.943   9.281 -0.7251  1.6599  1.5310
   17CHL1  H21B 1238   1.449   5.940   9.450 -1.4416  1.2856 -1.2971
   17CHL1  H21C 1239   1.454   5.789   9.351 -0.7315 -0.2826  1.7607
   17CHL1   C22 1240   1.733   5.811   9.287 -0.0692  0.4794 -0.2809
   17CHL1  H22A 1241   1.843   5.812   9.305  0.3118  0.7651 -2.3372
   17CHL1  H22B 1242   1.712   5.703   9.275  0.3940  0.0900  2.0113
   17CHL1   C23 1243   1.724   5.894   9.157  0.0100  0.3920 -0.2012
   17CHL1  H23A 1244   1.631   5.890   9.095 -0.0401  0.8314 -0.1567
   17CHL1  H23B 1245   1.738   6.001   9.183 -2.0144  0.8728 -0.8340
   17CHL1   C24 1246   1.840   5.869   9.055 -0.8955  0.0619 -0.4646
   17CHL1  H24A 1247   1.928   5.861   9.122 -2.3103 -0.3328  1.4334
   17CHL1  H24B 1248   1.830   5.767   9.013  4.3466 -0.5455 -0.9355
   17CHL1   C25 1249   1.870   5.967   8.940 -0.1474 -0.8402  0.2123
   17CHL1   H25 1250   1.860   6.068   8.987 -0.7383 -1.5124  1.6016
   17CHL1   C26 1251   2.016   5.946   8.887  0.1694 -0.5445 -0.7732
   17CHL1  H26A 1252   2.013   5.847   8.835 -0.3902 -0.6237 -0.6068
   17CHL1  H26B 1253   2.045   6.021   8.811  2.8689 -0.1584  0.5433
   17CHL1  H26C 1254   2.101   5.947   8.957 -0.8544 -0.1986  0.5088
   17CHL1   C27 1255   1.761   5.938   8.835 -0.2584  0.3078  0.0317
   17CHL1  H27A 1256   1.752   5.836   8.791 -2.3977  0.1936  0.6153
   17CHL1  H27B 1257   1.660   5.971   8.869 -0.1653 -0.6547  1.2920
   17CHL1  H27C 1258   1.783   6.003   8.748 -0.0505  0.2633  0.0510
   18CHL1    C3 1259   3.204   3.358  10.164  0.4121 -0.5309 -0.0582
   18CHL1    H3 1260   3.266   3.279  10.118 -0.5539 -0.7756 -0.9719
   18CHL1    O3 1261   3.228   3.378  10.306 -0.0853 -0.3804  0.0236
   18CHL1   H3' 1262   3.185   3.459  10.336 -0.7591 -0.6112 -0.2863
   18CHL1    C4 1263   3.260   3.483  10.084  0.0861  0.7143 -0.1883
   18CHL1   H4A 1264   3.205   3.567  10.131 -0.0153  2.0570 -2.5257
   18CHL1   H4B 1265   3.366   3.509  10.105  0.7083 -0.7657 -1.3097
   18CHL1    C5 1266   3.226   3.481   9.934  0.5490  0.2858  0.0839
   18CHL1    C6 1267   3.319   3.509   9.840  0.3050  0.3700 -0.1273
   18CHL1    H6 1268   3.421   3.536   9.868  0.0547  1.7743 -0.5115
   18CHL1    C7 1269   3.290   3.502   9.696  0.1326  0.0947  0.2209
   18CHL1   H7A 1270   3.334   3.589   9.642 -1.0554  0.1489 -0.7024
   18CHL1   H7B 1271   3.333   3.410   9.651 -0.4473  0.4635 -1.1245
   18CHL1    C8 1272   3.138   3.508   9.662 -0.2518  0.4913 -0.0466
   18CHL1    H8 1273   3.108   3.615   9.668  0.6991  0.7359  0.4500
   18CHL1   C14 1274   3.129   3.461   9.526  0.7342 -0.1013  0.3427
   18CHL1   H14 1275   3.163   3.355   9.521 -0.5522 -0.6769  2.4772
   18CHL1   C15 1276   3.227   3.533   9.423  0.4274 -0.6949  0.3012
   18CHL1  H15A 1277   3.238   3.641   9.447 -1.5940 -0.6039  0.9754
   18CHL1  H15B 1278   3.324   3.479   9.419 -0.0214 -1.6843  1.9145
   18CHL1   C16 1279   3.151   3.510   9.291  0.5398  0.0918 -0.3516
   18CHL1  H16A 1280   3.128   3.610   9.250 -0.2970 -0.6245 -1.6980
   18CHL1  H16B 1281   3.216   3.457   9.219  0.4369  0.9440 -1.0882
   18CHL1   C17 1282   3.022   3.430   9.323  0.3286  0.1628 -0.1900
   18CHL1   H17 1283   3.048   3.323   9.309  1.0972  0.5650 -2.0835
   18CHL1   C13 1284   2.988   3.457   9.473 -0.1256 -0.0093 -0.1544
   18CHL1   C18 1285   2.926   3.598   9.497 -0.0424  0.0332 -0.4911
   18CHL1  H18A 1286   2.832   3.604   9.438 -1.1394  1.1148  1.2924
   18CHL1  H18B 1287   2.892   3.621   9.600 -2.5946  0.6070 -1.3913
   18CHL1  H18C 1288   2.987   3.687   9.467 -1.0600  0.4450 -1.3996
   18CHL1   C12 1289   2.920   3.347   9.556  0.6609  0.1085 -0.5013
   18CHL1  H12A 1290   2.811   3.353   9.534  0.3253  0.5752  1.1747
   18CHL1  H12B 1291   2.965   3.248   9.534  2.1854  0.8741 -0.9553
   18CHL1   C11 1292   2.929   3.370   9.706  0.2536 -0.6304 -0.0009
   18CHL1  H11A 1293   2.858   3.452   9.732  2.9693  1.3547  1.6545
   18CHL1  H11B 1294   2.895   3.282   9.765  0.7968  0.4734  2.0600
   18CHL1    C9 1295   3.067   3.416   9.755 -0.1623  1.0969 -0.8261
   18CHL1    H9 1296   3.123   3.320   9.750  1.9008  2.0412  1.9042
   18CHL1   C10 1297   3.082   3.440   9.906  0.6083  0.4735 -0.3525
   18CHL1   C19 1298   2.997   3.560   9.938  0.1029  0.3090  0.8053
   18CHL1  H19A 1299   3.026   3.650   9.880 -1.0798 -0.3527 -0.8933
   18CHL1  H19B 1300   2.893   3.533   9.911  0.5178  0.8087 -1.5186
   18CHL1  H19C 1301   3.010   3.593  10.043  0.9087  1.1123  0.4747
   18CHL1    C1 1302   3.041   3.307   9.980 -0.5246  0.1044  0.2873
   18CHL1   H1A 1303   2.933   3.294   9.958 -1.0990  2.4041  1.4617
   18CHL1   H1B 1304   3.109   3.226   9.947 -1.5000 -0.6775  0.1502
   18CHL1    C2 1305   3.057   3.329  10.133  0.1014 -0.0058 -0.2902
   18CHL1   H2A 1306   3.041   3.237  10.193  0.5192 -0.1507 -0.4014
   18CHL1   H2B 1307   2.989   3.414  10.159  1.3069  0.8644  0.1115
   18CHL1   C20 1308   2.908   3.453   9.219  0.0615  0.0386 -0.3387
   18CHL1   H20 1309   2.866   3.556   9.221  0.9271  0.3874  0.4551
   18CHL1   C21 1310   2.782   3.374   9.259 -0.0250 -0.0676 -0.9231
   18CHL1  H21A 1311   2.702   3.387   9.184 -0.8585  1.0251  0.1197
   18CHL1  H21B 1312   2.751   3.418   9.356  1.3832  3.3217 -1.8456
   18CHL1  H21C 1313   2.799   3.265   9.273  1.2697 -0.1179 -2.5204
   18CHL1   C22 1314   2.950   3.431   9.072  0.0599 -0.2487 -0.1193
   18CHL1  H22A 1315   3.042   3.485   9.041  1.1129 -1.3119  1.0417
   18CHL1  H22B 1316   2.956   3.322   9.052  1.2268 -0.0444 -0.9793
   18CHL1   C23 1317   2.846   3.477   8.967 -0.2950  0.1373 -0.1502
   18CHL1  H23A 1318   2.742   3.443   8.985 -0.4940  1.3136  1.0275
   18CHL1  H23B 1319   2.828   3.586   8.964 -0.5456  0.0815 -1.3778
   18CHL1   C24 1320   2.890   3.431   8.829  0.7260  0.0001  0.4707
   18CHL1  H24A 1321   2.996   3.449   8.802  1.0178 -3.3111 -1.0619
   18CHL1  H24B 1322   2.884   3.321   8.833 -0.6441  0.0946  1.7806
   18CHL1   C25 1323   2.792   3.477   8.714  0.0113  0.3377 -0.7415
   18CHL1   H25 1324   2.688   3.474   8.753  1.2291  1.0961  2.9171
   18CHL1   C26 1325   2.820   3.620   8.677 -0.0142 -1.0304 -0.0965
   18CHL1  H26A 1326   2.819   3.688   8.766 -2.1970 -0.8694 -0.1778
   18CHL1  H26B 1327   2.921   3.634   8.634 -0.3174 -2.2397 -1.2495
   18CHL1  H26C 1328   2.736   3.652   8.612 -0.2139  1.1947  1.1230
   18CHL1   C27 1329   2.815   3.405   8.582  0.8499 -0.3336 -0.3824
   18CHL1  H27A 1330   2.919   3.401   8.543  0.9001  1.9886 -0.6486
   18CHL1  H27B 1331   2.784   3.300   8.599 -2.6671  0.1410 -2.8454
   18CHL1  H27C 1332   2.758   3.444   8.495 -0.7254  3.0742  1.9745
   19CHL1    C3 1333   2.828   1.951  10.147  0.1837  0.2921  0.5544
   19CHL1    H3 1334   2.873   1.851  10.161 -1.6049 -0.6272  0.0961
   19CHL1    O3 1335   2.806   2.017  10.268 -0.9194 -0.0857  0.1159
   19CHL1   H3' 1336   2.712   1.995  10.270 -1.0508 -0.5199 -3.4074
   19CHL1    C4 1337   2.914   2.037  10.052  0.2349 -0.6502 -0.2661
   19CHL1   H4A 1338   2.868   2.138  10.043 -1.8900 -1.5471  0.1460
   19CHL1   H4B 1339   3.016   2.047  10.096 -0.3804 -0.8113  1.2257
   19CHL1    C5 1340   2.929   1.986   9.906  0.6628  0.3623 -0.1355
   19CHL1    C6 1341   3.046   1.962   9.847  0.3620 -0.4520 -0.1412
   19CHL1    H6 1342   3.132   1.982   9.913  0.1007  0.5994 -0.0998
   19CHL1    C7 1343   3.062   1.900   9.711 -0.2792 -0.3426 -0.8794
   19CHL1   H7A 1344   3.134   1.959   9.652 -1.2652 -0.3582 -2.1412
   19CHL1   H7B 1345   3.104   1.797   9.713  1.1685  0.2218  1.4653
   19CHL1    C8 1346   2.934   1.910   9.626  0.5997  0.2490  0.0109
   19CHL1    H8 1347   2.929   2.016   9.594 -0.6595 -0.0782 -0.9306
   19CHL1   C14 1348   2.945   1.828   9.500 -0.9374  0.1309 -0.2025
   19CHL1   H14 1349   2.961   1.725   9.540  0.5092  0.4052 -0.0086
   19CHL1   C15 1350   3.062   1.852   9.404  0.1081  0.0641  0.1127
   19CHL1  H15A 1351   3.069   1.961   9.382  0.3402 -0.0998 -0.6479
   19CHL1  H15B 1352   3.163   1.824   9.442  0.4714  0.5689 -0.4597
   19CHL1   C16 1353   3.021   1.788   9.269 -0.0394  0.2561 -0.1715
   19CHL1  H16A 1354   3.036   1.861   9.187 -0.6465  0.6086  0.0247
   19CHL1  H16B 1355   3.079   1.695   9.250 -1.0262 -0.6787  1.2005
   19CHL1   C17 1356   2.872   1.756   9.291  0.1861 -0.4947 -0.0306
   19CHL1   H17 1357   2.876   1.651   9.327 -0.5991 -1.0638 -1.5536
   19CHL1   C13 1358   2.815   1.831   9.411  0.5412  0.1660  0.0310
   19CHL1   C18 1359   2.786   1.978   9.368  0.1156 -0.6368 -0.5331
   19CHL1  H18A 1360   2.695   1.980   9.304 -0.4361  0.4153  0.2640
   19CHL1  H18B 1361   2.765   2.040   9.458  0.5823 -1.3665  0.0877
   19CHL1  H18C 1362   2.866   2.029   9.311 -0.2891  0.5976 -0.0319
   19CHL1   C12 1363   2.699   1.764   9.490  0.2291 -0.1360 -0.0281
   19CHL1  H12A 1364   2.611   1.764   9.423 -0.7977 -1.8200  1.2233
   19CHL1  H12B 1365   2.736   1.661   9.508  0.7535  0.3647  2.0145
   19CHL1   C11 1366   2.680   1.843   9.617  0.7243 -0.1766 -0.7523
   19CHL1  H11A 1367   2.642   1.944   9.589 -1.2246  0.0217  2.1426
   19CHL1  H11B 1368   2.610   1.791   9.685 -1.8633  1.9160 -1.6329
   19CHL1    C9 1369   2.812   1.868   9.700  0.5724 -0.1977 -0.2215
   19CHL1    H9 1370   2.851   1.772   9.739  1.3471 -0.1168 -0.7710
   19CHL1   C10 1371   2.790   1.955   9.834  0.5228  0.1501 -0.6261
   19CHL1   C19 1372   2.726   2.089   9.794 -0.7581 -0.5431  0.5862
   19CHL1  H19A 1373   2.625   2.075   9.748 -1.3975  1.5734  1.2495
   19CHL1  H19B 1374   2.710   2.161   9.877  1.6998 -2.0634  2.5143
   19CHL1  H19C 1375   2.782   2.155   9.725 -2.1570  1.1743  1.0246
   19CHL1    C1 1376   2.691   1.879   9.931 -0.2498 -0.3210  0.0029
   19CHL1   H1A 1377   2.593   1.899   9.882  0.2490  1.0749 -0.5000
   19CHL1   H1B 1378   2.709   1.770   9.932 -0.7878 -0.4831 -2.4091
   19CHL1    C2 1379   2.688   1.936  10.074 -0.0990 -0.3587  0.1774
   19CHL1   H2A 1380   2.612   1.877  10.129  0.3421 -0.2949  0.8734
   19CHL1   H2B 1381   2.650   2.039  10.060 -1.2398 -0.6765  0.8331
   19CHL1   C20 1382   2.795   1.756   9.160 -0.0364  0.1636  0.2228
   19CHL1   H20 1383   2.686   1.751   9.181 -0.7209  0.5441 -2.8120
   19CHL1   C21 1384   2.836   1.613   9.097  0.6355  0.2162  0.4381
   19CHL1  H21A 1385   2.774   1.590   9.008  0.2271 -2.5847  1.3525
   19CHL1  H21B 1386   2.821   1.531   9.170  2.5431  0.7459  1.5059
   19CHL1  H21C 1387   2.945   1.610   9.078  0.8270  1.1257  1.2905
   19CHL1   C22 1388   2.829   1.864   9.059 -0.3666 -0.2911  0.1405
   19CHL1  H22A 1389   2.823   1.965   9.104 -0.7306  0.7492 -2.1060
   19CHL1  H22B 1390   2.933   1.850   9.022 -0.5179  0.8459 -0.7710
   19CHL1   C23 1391   2.741   1.863   8.935  0.1814 -0.0942 -0.8852
   19CHL1  H23A 1392   2.789   1.939   8.869  0.8705 -0.2781 -0.6077
   19CHL1  H23B 1393   2.746   1.768   8.879 -0.8552 -1.5747  1.3763
   19CHL1   C24 1394   2.592   1.911   8.957  0.1395 -0.1224 -0.1790
   19CHL1  H24A 1395   2.527   1.838   9.010 -0.6871 -0.5799 -1.7740
   19CHL1  H24B 1396   2.596   2.006   9.014  1.3341 -0.7809  0.8831
   19CHL1   C25 1397   2.520   1.953   8.826 -0.5022 -0.2663 -0.0229
   19CHL1   H25 1398   2.596   2.013   8.772 -1.0116  1.1292  0.7611
   19CHL1   C26 1399   2.472   1.845   8.741  0.1466 -0.3813  0.4298
   19CHL1  H26A 1400   2.377   1.809   8.785 -1.0584  0.7799 -1.1276
   19CHL1  H26B 1401   2.451   1.874   8.636  1.4597 -4.4712 -1.1499
   19CHL1  H26C 1402   2.538   1.756   8.744 -0.3767 -0.8216 -0.7596
   19CHL1   C27 1403   2.398   2.046   8.833 -0.2326  0.1249 -0.0627
   19CHL1  H27A 1404   2.310   1.993   8.877 -0.2873  0.0128 -0.3071
   19CHL1  H27B 1405   2.421   2.128   8.904  2.1831 -1.8130  1.5679
   19CHL1  H27C 1406   2.372   2.080   8.731 -0.0153  0.8251  0.1076
   20CHL1    C3 1407   4.391   2.088  10.458  0.0018 -0.3568 -0.1215
   20CHL1    H3 1408   4.318   2.163  10.422  0.4252  0.6301  1.0126
   20CHL1    O3 1409   4.415   2.093  10.601 -0.1889 -0.0868  0.0994
   20CHL1   H3' 1410   4.450   2.007  10.623 -2.8606 -1.1560  0.6374
   20CHL1    C4 1411   4.344   1.946  10.407 -0.7550 -0.0032  0.2485
   20CHL1   H4A 1412   4.426   1.879  10.441  0.2046  0.9160 -0.2060
   20CHL1   H4B 1413   4.253   1.925  10.467 -1.4109  1.7868 -0.0660
   20CHL1    C5 1414   4.342   1.936  10.260 -0.4592 -0.3541 -0.3342
   20CHL1    C6 1415   4.228   1.908  10.198  0.2920 -0.1750  0.1862
   20CHL1    H6 1416   4.136   1.889  10.255  0.5202 -2.1074 -0.0327
   20CHL1    C7 1417   4.217   1.898  10.044  0.0496  0.7391  0.0798
   20CHL1   H7A 1418   4.155   1.818   9.998  2.3710 -0.0846 -1.8351
   20CHL1   H7B 1419   4.163   1.990  10.015 -0.4386  0.1128 -1.0608
   20CHL1    C8 1420   4.355   1.893   9.963 -0.2540  0.4450 -0.0758
   20CHL1    H8 1421   4.408   1.797   9.972  1.7677  1.2502 -2.4657
   20CHL1   C14 1422   4.329   1.923   9.817 -0.0756 -0.0315 -0.4488
   20CHL1   H14 1423   4.286   2.025   9.811  1.2988  0.5073 -1.3605
   20CHL1   C15 1424   4.227   1.839   9.735 -0.0625  0.3855 -0.1881
   20CHL1  H15A 1425   4.252   1.731   9.735 -2.4966 -0.3896  3.6186
   20CHL1  H15B 1426   4.125   1.858   9.776 -0.7256 -0.8213 -1.1988
   20CHL1   C16 1427   4.240   1.902   9.594 -0.7036 -0.3871 -0.6005
   20CHL1  H16A 1428   4.227   1.826   9.514 -0.0665 -0.0488 -1.0340
   20CHL1  H16B 1429   4.152   1.970   9.594 -1.1393 -0.8768  1.5944
   20CHL1   C17 1430   4.374   1.979   9.593  0.4503  0.2364  0.5937
   20CHL1   H17 1431   4.339   2.083   9.606 -0.8501 -0.3500  2.1149
   20CHL1   C13 1432   4.451   1.935   9.722 -0.4128 -0.6707  0.5464
   20CHL1   C18 1433   4.521   1.796   9.714 -0.3685 -0.2653  0.4446
   20CHL1  H18A 1434   4.621   1.828   9.678 -1.4703  2.7145 -0.2322
   20CHL1  H18B 1435   4.524   1.754   9.817 -1.8598 -2.1500 -0.2288
   20CHL1  H18C 1436   4.483   1.728   9.635  0.2517 -0.2818  0.1541
   20CHL1   C12 1437   4.545   2.033   9.794 -0.3584 -0.4096 -0.0894
   20CHL1  H12A 1438   4.640   2.034   9.735  0.0616  0.8403  0.5676
   20CHL1  H12B 1439   4.505   2.136   9.778 -0.0881 -0.0260  1.5955
   20CHL1   C11 1440   4.575   2.005   9.943  0.1136 -0.7391  0.4355
   20CHL1  H11A 1441   4.635   1.912   9.943 -1.3259 -1.7020 -0.3459
   20CHL1  H11B 1442   4.642   2.085   9.980  0.7612 -1.7920  1.5994
   20CHL1    C9 1443   4.448   2.000  10.026  0.5075 -0.2022  0.2018
   20CHL1    H9 1444   4.392   2.095  10.028  1.2346  0.4529 -3.3497
   20CHL1   C10 1445   4.471   1.971  10.181 -0.3617 -0.2707  0.0984
   20CHL1   C19 1446   4.570   1.852  10.199  0.1707  0.4992 -0.5104
   20CHL1  H19A 1447   4.539   1.760  10.144 -1.9092  1.8156 -1.7147
   20CHL1  H19B 1448   4.677   1.874  10.181  0.4219 -0.7989 -0.7584
   20CHL1  H19C 1449   4.573   1.821  10.305 -0.7709 -1.7037 -1.0452
   20CHL1    C1 1450   4.525   2.101  10.241 -0.1359  0.1092  0.0518
   20CHL1   H1A 1451   4.627   2.124  10.202 -0.8054  2.4850 -0.4319
   20CHL1   H1B 1452   4.464   2.188  10.209  2.7665  2.2769 -0.0321
   20CHL1    C2 1453   4.528   2.104  10.395 -0.4234 -0.4021  0.0987
   20CHL1   H2A 1454   4.566   2.201  10.434  1.0738 -1.9502  2.8490
   20CHL1   H2B 1455   4.604   2.028  10.423 -0.3225 -0.9356 -1.5274
   20CHL1   C20 1456   4.447   1.993   9.459  0.0781 -0.4045  0.6397
   20CHL1   H20 1457   4.510   1.902   9.454  0.5311 -0.1636  1.6935
   20CHL1   C21 1458   4.534   2.120   9.452  0.4981 -0.0095 -0.3251
   20CHL1  H21A 1459   4.604   2.121   9.366 -1.7373 -0.9774 -2.2431
   20CHL1  H21B 1460   4.590   2.137   9.547 -3.3860  0.2733  2.1500
   20CHL1  H21C 1461   4.474   2.213   9.439 -1.3895 -0.8573  1.7755
   20CHL1   C22 1462   4.351   1.992   9.336 -0.0632  0.3931  0.4791
   20CHL1  H22A 1463   4.306   1.890   9.330 -2.4647  1.3409  1.1942
   20CHL1  H22B 1464   4.266   2.060   9.357 -3.0790 -3.0379  0.3069
   20CHL1   C23 1465   4.407   2.021   9.195 -0.8640  0.1657 -0.0317
   20CHL1  H23A 1466   4.433   2.128   9.183 -0.4527  0.3885  2.3040
   20CHL1  H23B 1467   4.509   1.976   9.187 -0.8113  0.2847 -0.0322
   20CHL1   C24 1468   4.313   1.985   9.079 -0.3593  0.1279  0.2432
   20CHL1  H24A 1469   4.300   1.876   9.068  1.9014 -0.1992  0.4464
   20CHL1  H24B 1470   4.219   2.039   9.104  0.1670  2.4324 -2.2564
   20CHL1   C25 1471   4.358   2.039   8.940 -0.0807 -0.1844 -0.2872
   20CHL1   H25 1472   4.286   1.999   8.865 -1.2316 -0.2536  0.8203
   20CHL1   C26 1473   4.346   2.186   8.930  0.2556  0.2841  0.0586
   20CHL1  H26A 1474   4.425   2.237   8.989  1.3324 -1.4292  0.1674
   20CHL1  H26B 1475   4.368   2.214   8.825 -1.0352  0.9299 -0.0545
   20CHL1  H26C 1476   4.243   2.224   8.944  0.2772  0.6951 -0.8281
   20CHL1   C27 1477   4.501   1.994   8.899 -0.3813  0.7729 -0.2418
   20CHL1  H27A 1478   4.571   2.030   8.978 -1.9331  0.7335  1.2026
   20CHL1  H27B 1479   4.508   1.884   8.884 -0.0314  0.0467  3.8965
   20CHL1  H27C 1480   4.528   2.034   8.799 -0.2415  0.9881 -0.1185
   21CHL1    C3 1481   4.397   4.630  10.372 -0.1349  0.2024  0.2284
   21CHL1    H3 1482   4.301   4.682  10.391 -0.8807 -0.4626 -1.5244
   21CHL1    O3 1483   4.476   4.621  10.495 -0.2740 -0.2092  0.6593
   21CHL1   H3' 1484   4.550   4.564  10.473  0.3360 -0.0060  2.0422
   21CHL1    C4 1485   4.380   4.482  10.314 -0.0127 -1.2114  0.5925
   21CHL1   H4A 1486   4.480   4.436  10.297  0.7245  1.0892 -1.9747
   21CHL1   H4B 1487   4.322   4.422  10.387 -1.9829 -2.6477 -1.9829
   21CHL1    C5 1488   4.317   4.486  10.180  0.0340 -0.1115  0.4036
   21CHL1    C6 1489   4.210   4.415  10.153 -0.3429  0.4117  0.0469
   21CHL1    H6 1490   4.172   4.355  10.237  0.8026  0.5568  0.6939
   21CHL1    C7 1491   4.140   4.410  10.026 -0.0329 -0.3061  0.4778
   21CHL1   H7A 1492   4.099   4.309  10.008  2.1321 -1.0958 -0.2826
   21CHL1   H7B 1493   4.051   4.476  10.026  1.3497  1.6549 -0.5092
   21CHL1    C8 1494   4.237   4.454   9.912 -0.1739 -0.2062 -0.3460
   21CHL1    H8 1495   4.312   4.374   9.890  1.2391 -0.1164  3.3044
   21CHL1   C14 1496   4.159   4.474   9.779 -0.0975  0.1417 -1.3392
   21CHL1   H14 1497   4.086   4.552   9.808  0.0506 -0.0557 -0.3964
   21CHL1   C15 1498   4.076   4.350   9.733  0.7824 -0.2525  0.5718
   21CHL1  H15A 1499   4.154   4.271   9.731  1.3886  0.3458 -0.2773
   21CHL1  H15B 1500   3.995   4.332   9.807  1.0264 -1.7593  0.4951
   21CHL1   C16 1501   4.037   4.397   9.591  0.9067  0.2619  0.0082
   21CHL1  H16A 1502   4.060   4.325   9.510  1.2168  0.9135 -0.4918
   21CHL1  H16B 1503   3.931   4.422   9.570  0.9339  0.0877 -0.3368
   21CHL1   C17 1504   4.117   4.525   9.556 -0.4484 -0.2054 -0.1095
   21CHL1   H17 1505   4.053   4.608   9.593 -1.3594 -1.3018  0.8335
   21CHL1   C13 1506   4.233   4.531   9.661 -0.2771  0.1345  0.1949
   21CHL1   C18 1507   4.347   4.433   9.621 -0.4183  0.1196 -0.2926
   21CHL1  H18A 1508   4.302   4.335   9.593  1.0832 -0.9713  0.8778
   21CHL1  H18B 1509   4.403   4.478   9.536  0.3378  1.8314  1.0563
   21CHL1  H18C 1510   4.424   4.416   9.699 -2.8357 -0.7342  2.0643
   21CHL1   C12 1511   4.298   4.657   9.700  0.7718 -0.2555 -0.6462
   21CHL1  H12A 1512   4.367   4.675   9.614  1.1894 -1.3293 -0.5474
   21CHL1  H12B 1513   4.224   4.740   9.698  0.0415 -0.8531 -3.8616
   21CHL1   C11 1514   4.379   4.643   9.825 -0.1281 -0.5651 -0.2405
   21CHL1  H11A 1515   4.469   4.581   9.807 -0.2204 -0.7586 -0.0409
   21CHL1  H11B 1516   4.415   4.741   9.862  0.3466 -0.6201 -0.5547
   21CHL1    C9 1517   4.304   4.586   9.945 -0.1893 -0.1996 -0.1058
   21CHL1    H9 1518   4.231   4.668   9.958  0.4856  0.3655  0.2126
   21CHL1   C10 1519   4.386   4.574  10.078 -0.0514  0.2389 -0.4087
   21CHL1   C19 1520   4.526   4.524  10.038  0.6872  0.2743 -0.7848
   21CHL1  H19A 1521   4.584   4.608   9.993  1.3856  0.4449  0.3962
   21CHL1  H19B 1522   4.587   4.497  10.127 -0.0824  0.6444 -0.1300
   21CHL1  H19C 1523   4.526   4.439   9.967 -0.6837 -1.0077  0.6788
   21CHL1    C1 1524   4.406   4.714  10.132  0.0959 -0.1672  0.0263
   21CHL1   H1A 1525   4.477   4.767  10.066  0.9323 -2.6926 -1.2586
   21CHL1   H1B 1526   4.303   4.756  10.138 -0.6509 -1.8574 -0.1662
   21CHL1    C2 1527   4.472   4.719  10.267 -0.3576  0.1851 -0.0362
   21CHL1   H2A 1528   4.482   4.822  10.308 -1.4936 -0.2571  1.4415
   21CHL1   H2B 1529   4.575   4.679  10.258 -0.7072 -0.7611  0.1026
   21CHL1   C20 1530   4.139   4.556   9.412  0.9027 -0.1858 -0.7841
   21CHL1   H20 1531   4.224   4.505   9.361  1.0552  0.5433 -1.2632
   21CHL1   C21 1532   4.153   4.708   9.404  0.7983 -0.6188  0.2105
   21CHL1  H21A 1533   4.237   4.739   9.470 -0.4565  2.5991  0.4732
   21CHL1  H21B 1534   4.067   4.765   9.444  2.2167 -0.1456  2.8831
   21CHL1  H21C 1535   4.169   4.740   9.299 -0.4571  0.4996  0.3265
   21CHL1   C22 1536   4.016   4.520   9.324 -0.3525  0.4489 -0.3014
   21CHL1  H22A 1537   3.986   4.413   9.328 -2.4888  1.0234  0.6753
   21CHL1  H22B 1538   3.934   4.576   9.374  1.3263  1.8543  1.0058
   21CHL1   C23 1539   4.038   4.566   9.174 -0.2236  0.3697 -0.3313
   21CHL1  H23A 1540   4.019   4.675   9.181  2.4354  0.9985 -1.8683
   21CHL1  H23B 1541   4.136   4.539   9.130 -1.0619 -0.9678 -1.4464
   21CHL1   C24 1542   3.937   4.498   9.082 -0.1591 -0.0981  0.0959
   21CHL1  H24A 1543   3.950   4.388   9.073  0.5854  0.0747 -1.2405
   21CHL1  H24B 1544   3.841   4.494   9.137  0.1950  0.4298  0.7731
   21CHL1   C25 1545   3.923   4.569   8.950 -0.7142  0.2775  0.3215
   21CHL1   H25 1546   3.914   4.679   8.967 -0.1449  0.2453  0.8551
   21CHL1   C26 1547   4.057   4.549   8.873 -0.0894 -0.0308 -0.0665
   21CHL1  H26A 1548   4.063   4.441   8.847 -0.1963  0.1324 -0.8055
   21CHL1  H26B 1549   4.058   4.611   8.780 -0.0235 -1.7023 -1.2366
   21CHL1  H26C 1550   4.155   4.573   8.920  0.3328 -1.7816  0.0127
   21CHL1   C27 1551   3.793   4.523   8.883  0.1419 -0.3210 -0.3545
   21CHL1  H27A 1552   3.776   4.589   8.795 -0.7109  0.4428  0.3639
   21CHL1  H27B 1553   3.799   4.414   8.862 -0.4574 -0.7803  1.6162
   21CHL1  H27C 1554   3.711   4.539   8.957 -1.0703  0.5734 -1.8195
   22CHL1    C3 1555   0.573   3.951  10.246  0.1052  0.5407  0.4665
   22CHL1    H3 1556   0.564   4.051  10.198 -1.4062  0.9964  1.6083
   22CHL1    O3 1557   0.545   3.974  10.382  0.3168  0.5540  0.0785
   22CHL1   H3' 1558   0.567   3.893  10.428  3.8094  0.3072 -1.7341
   22CHL1    C4 1559   0.469   3.860  10.191  0.1755 -0.1576  0.4166
   22CHL1   H4A 1560   0.455   3.766  10.248 -0.7761 -0.5050 -0.3746
   22CHL1   H4B 1561   0.369   3.907  10.204 -0.0550  1.0177 -3.9708
   22CHL1    C5 1562   0.488   3.829  10.044 -0.6150  0.0206  0.2913
   22CHL1    C6 1563   0.395   3.864   9.949 -0.5697 -1.1154 -0.1617
   22CHL1    H6 1564   0.302   3.915   9.979  0.7396  1.1152  0.3634
   22CHL1    C7 1565   0.424   3.835   9.803  0.4157 -0.2958  0.2236
   22CHL1   H7A 1566   0.333   3.787   9.759 -0.4772  1.4250  0.0985
   22CHL1   H7B 1567   0.422   3.933   9.749  0.9716  0.4189  1.4595
   22CHL1    C8 1568   0.542   3.741   9.766 -0.4383  0.6051 -0.7057
   22CHL1    H8 1569   0.513   3.637   9.792  2.9919  0.3946  3.5436
   22CHL1   C14 1570   0.583   3.748   9.621 -0.0458 -0.0767  0.2530
   22CHL1   H14 1571   0.617   3.851   9.600  2.5053 -0.7835  0.5579
   22CHL1   C15 1572   0.474   3.721   9.514  1.4791 -0.5587 -0.2771
   22CHL1  H15A 1573   0.403   3.640   9.543  0.6737  1.2097  3.2470
   22CHL1  H15B 1574   0.423   3.818   9.494  3.5801  1.0023  1.4270
   22CHL1   C16 1575   0.550   3.685   9.390 -0.1898  0.2424  0.3592
   22CHL1  H16A 1576   0.515   3.584   9.360  1.0717 -0.5658  1.4977
   22CHL1  H16B 1577   0.534   3.748   9.300  0.1230 -1.3349 -0.8278
   22CHL1   C17 1578   0.700   3.683   9.431 -0.9080 -0.2839 -0.0606
   22CHL1   H17 1579   0.733   3.787   9.414 -0.7339 -0.2761  0.3059
   22CHL1   C13 1580   0.702   3.657   9.584  0.6856  0.0644  0.2098
   22CHL1   C18 1581   0.675   3.505   9.603  0.3416 -0.3480 -0.1490
   22CHL1  H18A 1582   0.670   3.480   9.711  2.0555  4.0538  1.1600
   22CHL1  H18B 1583   0.582   3.481   9.547  0.3546 -0.7907  0.0165
   22CHL1  H18C 1584   0.748   3.431   9.566 -1.3846 -2.2239 -0.0188
   22CHL1   C12 1585   0.817   3.700   9.659 -0.7542 -1.1064 -0.6943
   22CHL1  H12A 1586   0.911   3.645   9.638  0.0959 -0.2102  0.5775
   22CHL1  H12B 1587   0.829   3.809   9.642 -3.6012 -0.2932  1.6954
   22CHL1   C11 1588   0.795   3.702   9.812  0.0016 -0.3998  0.1049
   22CHL1  H11A 1589   0.788   3.596   9.845  0.9835 -0.1621  1.1688
   22CHL1  H11B 1590   0.889   3.739   9.858 -0.4024  0.2542  0.4286
   22CHL1    C9 1591   0.668   3.777   9.848 -0.4136 -0.0187  0.1298
   22CHL1    H9 1592   0.692   3.882   9.822 -2.2633  0.5457  0.5953
   22CHL1   C10 1593   0.639   3.781  10.000  0.0233 -0.0404  1.4681
   22CHL1   C19 1594   0.642   3.633  10.065  0.6603 -0.6495 -0.0809
   22CHL1  H19A 1595   0.595   3.634  10.166 -0.8803 -3.0374 -0.6899
   22CHL1  H19B 1596   0.576   3.574   9.999 -3.6192  4.0248 -0.5965
   22CHL1  H19C 1597   0.744   3.589  10.068  0.2903 -1.4748  1.1886
   22CHL1    C1 1598   0.745   3.872  10.075  0.5269  0.0141  0.6293
   22CHL1   H1A 1599   0.844   3.824  10.061  0.1249 -0.5574 -0.3590
   22CHL1   H1B 1600   0.733   3.965  10.017  2.2945 -0.5511 -0.7222
   22CHL1    C2 1601   0.715   3.895  10.223  0.1392  1.4133 -0.2657
   22CHL1   H2A 1602   0.795   3.962  10.262  1.1523 -0.3123  0.7735
   22CHL1   H2B 1603   0.741   3.798  10.270 -0.5249  0.6828 -1.3643
   22CHL1   C20 1604   0.788   3.592   9.336  0.3231 -0.6201 -0.9217
   22CHL1   H20 1605   0.749   3.488   9.344  0.2521 -0.4950  1.0102
   22CHL1   C21 1606   0.929   3.574   9.389  0.6862 -0.5334  0.6319
   22CHL1  H21A 1607   0.930   3.513   9.482  1.3342 -2.2433 -0.4389
   22CHL1  H21B 1608   0.986   3.669   9.398 -0.8246  0.7250 -1.9870
   22CHL1  H21C 1609   0.985   3.512   9.315 -1.7998 -0.1135 -1.7323
   22CHL1   C22 1610   0.776   3.650   9.194 -0.1665 -0.4376  0.3253
   22CHL1  H22A 1611   0.678   3.701   9.180  0.4931  0.6201 -0.5721
   22CHL1  H22B 1612   0.869   3.709   9.186  1.1468 -2.4100  0.3452
   22CHL1   C23 1613   0.774   3.553   9.077  0.3420  0.1928  0.7884
   22CHL1  H23A 1614   0.865   3.492   9.060  0.8398  1.3084 -0.7376
   22CHL1  H23B 1615   0.696   3.482   9.110  0.8375 -0.5670  0.3483
   22CHL1   C24 1616   0.730   3.628   8.944 -0.5132  0.4077 -0.6347
   22CHL1  H24A 1617   0.643   3.693   8.968  0.1534  0.7928  0.8008
   22CHL1  H24B 1618   0.812   3.698   8.917  0.0958  0.2137  0.6657
   22CHL1   C25 1619   0.710   3.524   8.831 -0.1354 -0.4463 -0.1839
   22CHL1   H25 1620   0.804   3.466   8.818  0.3272  0.0442  0.8977
   22CHL1   C26 1621   0.591   3.435   8.861 -1.2438  0.3653 -1.0144
   22CHL1  H26A 1622   0.495   3.491   8.850 -1.4354  0.2165 -0.1564
   22CHL1  H26B 1623   0.593   3.365   8.775 -1.2999  1.5361 -1.9996
   22CHL1  H26C 1624   0.591   3.377   8.956  1.5827  0.6297 -0.7794
   22CHL1   C27 1625   0.675   3.605   8.706  0.2806  0.6451 -0.7238
   22CHL1  H27A 1626   0.624   3.535   8.637  1.2948 -1.1100  0.2486
   22CHL1  H27B 1627   0.597   3.681   8.727  0.2943  0.5541 -0.3434
   22CHL1  H27C 1628   0.764   3.659   8.667 -1.9394  3.1867 -2.6906
   23CHL1    C3 1629   2.206   6.208  10.210 -0.2276 -0.1738 -0.0335
   23CHL1    H3 1630   2.225   6.315  10.187 -1.0054  0.1882  0.9312
   23CHL1    O3 1631   2.205   6.202  10.349 -0.0152 -0.7848 -0.5788
   23CHL1   H3' 1632   2.250   6.119  10.365  2.0906  0.2503 -0.8351
   23CHL1    C4 1633   2.062   6.190  10.148  0.0627  1.0050  0.0328
   23CHL1   H4A 1634   2.039   6.083  10.168 -2.5244  1.0222 -2.2810
   23CHL1   H4B 1635   1.990   6.258  10.199 -2.0496 -0.2375 -1.1742
   23CHL1    C5 1636   2.061   6.215   9.999 -1.2298  0.0363 -0.3018
   23CHL1    C6 1637   1.988   6.306   9.936  0.2993 -0.9867 -0.2647
   23CHL1    H6 1638   1.911   6.366   9.987  0.0248  0.0479 -1.8065
   23CHL1    C7 1639   1.994   6.341   9.790 -0.5691 -0.2197  0.2713
   23CHL1   H7A 1640   1.896   6.357   9.741 -1.0401 -1.4490  0.7595
   23CHL1   H7B 1641   2.038   6.442   9.781 -2.1753  0.3476 -2.6167
   23CHL1    C8 1642   2.073   6.227   9.712 -0.6960  0.7071  0.2909
   23CHL1    H8 1643   2.004   6.142   9.693  0.2412 -0.1897  0.8341
   23CHL1   C14 1644   2.105   6.265   9.567  0.9078 -0.6428 -0.0895
   23CHL1   H14 1645   2.166   6.357   9.576 -2.2679  1.5140  1.3481
   23CHL1   C15 1646   1.987   6.309   9.474  0.0940 -0.3992  0.4809
   23CHL1  H15A 1647   1.894   6.249   9.478 -0.5369  0.3860 -1.3740
   23CHL1  H15B 1648   1.959   6.414   9.493  0.7670  0.0718 -0.9522
   23CHL1   C16 1649   2.045   6.287   9.332 -0.2879 -0.0092  0.0307
   23CHL1  H16A 1650   2.012   6.192   9.283 -1.4931  0.1031  0.5970
   23CHL1  H16B 1651   2.048   6.377   9.267  1.1562  1.6203  2.2276
   23CHL1   C17 1652   2.197   6.248   9.348 -0.7476  0.3734 -0.2158
   23CHL1   H17 1653   2.250   6.345   9.358  0.1216 -0.1399  0.2267
   23CHL1   C13 1654   2.192   6.173   9.479  0.0097 -0.6271  0.7218
   23CHL1   C18 1655   2.120   6.039   9.458  0.6891  0.5377 -0.6592
   23CHL1  H18A 1656   2.172   5.967   9.391  0.4018 -0.2079 -0.1006
   23CHL1  H18B 1657   2.096   5.979   9.548 -0.5847  1.2971 -0.4750
   23CHL1  H18C 1658   2.015   6.050   9.425 -0.1287 -1.7701  0.9339
   23CHL1   C12 1659   2.322   6.147   9.552  0.4994 -0.8832 -0.5170
   23CHL1  H12A 1660   2.386   6.070   9.503  1.3179 -1.2644  1.0735
   23CHL1  H12B 1661   2.387   6.238   9.554 -2.7169  1.5733  2.2139
   23CHL1   C11 1662   2.298   6.097   9.698  0.0743 -0.0108 -0.7400
   23CHL1  H11A 1663   2.264   5.991   9.697  0.1672 -0.0477 -0.0317
   23CHL1  H11B 1664   2.398   6.095   9.745  0.0664  1.0253 -0.6606
   23CHL1    C9 1665   2.201   6.182   9.790 -1.0507 -0.5269  1.6558
   23CHL1    H9 1666   2.249   6.280   9.805 -1.7979  0.1032  0.1156
   23CHL1   C10 1667   2.170   6.134   9.931  0.7490  0.5134  0.3054
   23CHL1   C19 1668   2.110   5.979   9.923 -0.9162 -0.1794  0.5585
   23CHL1  H19A 1669   2.005   5.976   9.884 -0.9506  1.5496  0.4160
   23CHL1  H19B 1670   2.179   5.913   9.867  0.7898  1.1550  1.0223
   23CHL1  H19C 1671   2.118   5.936  10.025 -1.1815 -0.2923  0.5317
   23CHL1    C1 1672   2.308   6.144  10.004  0.0363  0.0023 -0.0975
   23CHL1   H1A 1673   2.373   6.069   9.954  0.9621 -1.1247  2.6137
   23CHL1   H1B 1674   2.353   6.246   9.995  0.2968 -0.0266  0.8314
   23CHL1    C2 1675   2.312   6.110  10.156  0.5089 -0.6469  0.2069
   23CHL1   H2A 1676   2.410   6.140  10.198  2.0337 -1.6367 -2.4415
   23CHL1   H2B 1677   2.285   6.007  10.190 -1.0748  0.1300  1.4411
   23CHL1   C20 1678   2.284   6.189   9.230  0.2672  0.4454  0.0333
   23CHL1   H20 1679   2.249   6.083   9.220  0.0772  0.3369  1.6067
   23CHL1   C21 1680   2.435   6.198   9.266 -0.0077 -0.4928 -1.0807
   23CHL1  H21A 1681   2.495   6.155   9.183 -1.3430 -1.2220 -1.7062
   23CHL1  H21B 1682   2.470   6.146   9.358 -2.5498  1.0086  0.8683
   23CHL1  H21C 1683   2.461   6.304   9.284 -2.4312 -0.1397  0.8817
   23CHL1   C22 1684   2.256   6.257   9.095 -0.2311  0.4269  0.2342
   23CHL1  H22A 1685   2.146   6.246   9.082 -0.4642  1.9877  0.7450
   23CHL1  H22B 1686   2.275   6.366   9.102  0.7380  0.5569 -2.8321
   23CHL1   C23 1687   2.335   6.203   8.975 -0.3274  0.0941 -0.6193
   23CHL1  H23A 1688   2.440   6.237   8.971  0.1341 -1.2926 -0.7758
   23CHL1  H23B 1689   2.338   6.093   8.990 -2.8637  0.3638  3.2553
   23CHL1   C24 1690   2.261   6.246   8.843  0.6046  0.0367 -0.0573
   23CHL1  H24A 1691   2.156   6.209   8.844  0.6223 -0.2389 -2.3326
   23CHL1  H24B 1692   2.271   6.356   8.834  2.1852 -0.0895 -0.1787
   23CHL1   C25 1693   2.329   6.180   8.715  0.1252  0.3993 -0.0592
   23CHL1   H25 1694   2.350   6.073   8.738  0.9234  1.0644  2.7534
   23CHL1   C26 1695   2.231   6.186   8.592  1.1661 -0.1555  0.2494
   23CHL1  H26A 1696   2.223   6.293   8.562 -0.5934 -0.0024  1.1029
   23CHL1  H26B 1697   2.275   6.127   8.509 -0.1881  0.0665 -0.6647
   23CHL1  H26C 1698   2.128   6.149   8.612 -0.2314  2.6114 -1.1768
   23CHL1   C27 1699   2.466   6.239   8.690  0.2865  0.2307  0.4371
   23CHL1  H27A 1700   2.514   6.223   8.591 -1.5715 -0.7207 -0.3661
   23CHL1  H27B 1701   2.449   6.347   8.671  1.5689  0.1738 -1.3852
   23CHL1  H27C 1702   2.541   6.226   8.771  0.6286 -1.4272 -0.1117
   24CHL1    C3 1703   0.440   0.663  10.046  0.7484  0.2714  0.1577
   24CHL1    H3 1704   0.331   0.656  10.062  0.3788  0.8779 -1.8066
   24CHL1    O3 1705   0.505   0.663  10.173  0.0573 -0.1958  0.2509
   24CHL1   H3' 1706   0.591   0.625  10.157  0.6798  1.3564 -0.3053
   24CHL1    C4 1707   0.470   0.530   9.980  0.0352  0.5151 -0.0197
   24CHL1   H4A 1708   0.581   0.526   9.978  0.0645  1.1608 -1.8686
   24CHL1   H4B 1709   0.429   0.443  10.036 -1.6574  0.4916 -1.2119
   24CHL1    C5 1710   0.425   0.524   9.833  0.1260 -0.0454 -0.1259
   24CHL1    C6 1711   0.339   0.436   9.790 -0.0209  1.3747 -0.5667
   24CHL1    H6 1712   0.314   0.354   9.859  2.5745  0.7466 -0.2387
   24CHL1    C7 1713   0.284   0.417   9.651 -0.3647  0.4231  0.1705
   24CHL1   H7A 1714   0.285   0.310   9.619  0.3300 -0.2617  2.3055
   24CHL1   H7B 1715   0.175   0.437   9.658 -1.0513 -2.1337 -1.7244
   24CHL1    C8 1716   0.368   0.507   9.550 -0.3718 -0.0236 -0.0231
   24CHL1    H8 1717   0.456   0.443   9.529 -1.3592 -1.4656  0.0441
   24CHL1   C14 1718   0.294   0.533   9.421  0.3698  0.2505  1.2476
   24CHL1   H14 1719   0.206   0.598   9.442 -0.5517 -0.1493 -1.1062
   24CHL1   C15 1720   0.243   0.407   9.345 -0.3020  0.1034 -0.5173
   24CHL1  H15A 1721   0.326   0.335   9.360  0.9842  1.7056  0.2969
   24CHL1  H15B 1722   0.150   0.365   9.389 -0.5568  0.9841 -0.1818
   24CHL1   C16 1723   0.211   0.461   9.205  0.6341  0.7622  0.2893
   24CHL1  H16A 1724   0.260   0.388   9.137 -0.3753  0.0159  0.3403
   24CHL1  H16B 1725   0.102   0.462   9.183  0.1572  3.2230  2.2722
   24CHL1   C17 1726   0.260   0.607   9.196 -0.1874  0.3170 -0.3825
   24CHL1   H17 1727   0.176   0.673   9.225  1.7161  2.2667  1.0068
   24CHL1   C13 1728   0.371   0.608   9.312 -0.0870  0.2110  0.9445
   24CHL1   C18 1729   0.496   0.522   9.269  0.1836  0.6725 -0.4484
   24CHL1  H18A 1730   0.560   0.579   9.197 -1.3450  1.0839 -1.5428
   24CHL1  H18B 1731   0.562   0.500   9.355  0.7363  0.4611 -0.9152
   24CHL1  H18C 1732   0.461   0.424   9.229 -2.3227 -0.0565  3.0776
   24CHL1   C12 1733   0.420   0.742   9.367 -0.2250  0.4855  0.4707
   24CHL1  H12A 1734   0.496   0.782   9.297 -0.8193  0.6346 -0.0942
   24CHL1  H12B 1735   0.333   0.811   9.379  0.1485  1.0346  0.0243
   24CHL1   C11 1736   0.484   0.736   9.506  0.1502  0.0505 -0.1533
   24CHL1  H11A 1737   0.585   0.694   9.485  0.0623  0.9240 -2.5684
   24CHL1  H11B 1738   0.490   0.836   9.555 -2.1651 -0.0831  0.5413
   24CHL1    C9 1739   0.405   0.641   9.609  0.2843 -0.1679  0.9631
   24CHL1    H9 1740   0.309   0.697   9.620 -0.2059 -0.5980 -0.8082
   24CHL1   C10 1741   0.469   0.644   9.752  0.1570  0.7934 -1.0057
   24CHL1   C19 1742   0.622   0.625   9.728  0.3647  0.5236 -0.3302
   24CHL1  H19A 1743   0.670   0.712   9.678  1.0543 -1.0552 -2.5840
   24CHL1  H19B 1744   0.675   0.588   9.818 -0.4704  1.2201  0.4749
   24CHL1  H19C 1745   0.618   0.540   9.656  1.1470 -0.5824  0.9012
   24CHL1    C1 1746   0.443   0.785   9.819  0.0217 -0.0144  0.1914
   24CHL1   H1A 1747   0.499   0.865   9.767  0.2086 -0.0969  0.2631
   24CHL1   H1B 1748   0.336   0.807   9.799 -0.0311 -0.7390 -0.3923
   24CHL1    C2 1749   0.476   0.792   9.972 -0.0846 -0.6076  0.0753
   24CHL1   H2A 1750   0.419   0.876  10.016 -0.9010 -0.6254 -0.9174
   24CHL1   H2B 1751   0.579   0.827   9.995 -0.7817  0.6283  1.4823
   24CHL1   C20 1752   0.293   0.660   9.056 -0.2307 -0.0331  0.5181
   24CHL1   H20 1753   0.384   0.619   9.006 -1.5298 -1.3731 -0.8970
   24CHL1   C21 1754   0.324   0.817   9.063  0.0547  0.0961  0.5566
   24CHL1  H21A 1755   0.244   0.874   9.115 -2.0564  0.2065 -2.5390
   24CHL1  H21B 1756   0.327   0.855   8.959 -3.8219 -0.2731  0.1819
   24CHL1  H21C 1757   0.420   0.837   9.115 -0.3524  1.3155  0.8725
   24CHL1   C22 1758   0.176   0.639   8.961  0.8187  1.1071 -0.6765
   24CHL1  H22A 1759   0.169   0.529   8.954 -0.7398  1.1374  0.0242
   24CHL1  H22B 1760   0.086   0.681   9.011  1.2144 -0.6403  1.7067
   24CHL1   C23 1761   0.181   0.683   8.816  0.2410 -0.2484  0.4460
   24CHL1  H23A 1762   0.161   0.792   8.819  0.6808 -0.0801 -1.5197
   24CHL1  H23B 1763   0.281   0.673   8.768 -0.1066 -1.5725 -0.0396
   24CHL1   C24 1764   0.086   0.606   8.722 -1.1012 -0.4200  0.5873
   24CHL1  H24A 1765   0.072   0.500   8.752  0.0472 -0.6994  0.1952
   24CHL1  H24B 1766  -0.014   0.653   8.716  0.1200  2.3520  0.5199
   24CHL1   C25 1767   0.132   0.608   8.575 -0.7943 -1.1382  0.3577
   24CHL1   H25 1768   0.239   0.578   8.572  0.3813  2.6675 -0.6009
   24CHL1   C26 1769   0.052   0.514   8.482  0.2311  0.2240  0.9604
   24CHL1  H26A 1770   0.099   0.531   8.383  0.6633 -1.4105  0.8550
   24CHL1  H26B 1771   0.065   0.410   8.518  1.5094 -0.2140 -0.6695
   24CHL1  H26C 1772  -0.054   0.546   8.470  0.3241  0.2809  0.2038
   24CHL1   C27 1773   0.133   0.750   8.512 -0.1216  0.0373  0.0643
   24CHL1  H27A 1774   0.029   0.781   8.489  0.2642  2.3793  1.1622
   24CHL1  H27B 1775   0.180   0.823   8.581  0.7437 -1.1506  0.7674
   24CHL1  H27C 1776   0.191   0.744   8.417 -0.6483 -0.6584 -0.2249
   25CHL1    C3 1777   2.693   4.512  10.413  0.7248  0.7250 -0.5229
   25CHL1    H3 1778   2.611   4.448  10.375  1.2099 -0.6879  0.6929
   25CHL1    O3 1779   2.700   4.486  10.559 -0.4899 -0.1711  0.1675
   25CHL1   H3' 1780   2.766   4.550  10.587  0.7225 -2.1836  2.2762
   25CHL1    C4 1781   2.820   4.484  10.336  0.2614 -1.1148 -0.0687
   25CHL1   H4A 1782   2.901   4.548  10.378 -1.3271  1.8930 -1.2578
   25CHL1   H4B 1783   2.848   4.379  10.355 -1.1053 -1.6491 -0.8506
   25CHL1    C5 1784   2.810   4.516  10.188 -0.4426  0.4155 -0.1143
   25CHL1    C6 1785   2.846   4.419  10.097 -0.3828 -0.4824 -0.4279
   25CHL1    H6 1786   2.885   4.321  10.128  2.0725  0.7360  0.6166
   25CHL1    C7 1787   2.860   4.441   9.949 -0.4062 -0.2986  0.1232
   25CHL1   H7A 1788   2.964   4.420   9.918 -0.3953  1.9244 -1.5474
   25CHL1   H7B 1789   2.791   4.368   9.901 -0.4571  0.1657 -0.5117
   25CHL1    C8 1790   2.828   4.592   9.909  0.4796  0.5541  0.1725
   25CHL1    H8 1791   2.921   4.647   9.934 -0.2845  1.9125  0.1062
   25CHL1   C14 1792   2.790   4.609   9.758  0.1837  0.4033  0.2586
   25CHL1   H14 1793   2.696   4.551   9.743 -0.8944  1.6421  1.8644
   25CHL1   C15 1794   2.882   4.556   9.646 -0.0264 -0.0824  0.0344
   25CHL1  H15A 1795   2.980   4.574   9.694 -0.7472  0.7370  1.2623
   25CHL1  H15B 1796   2.862   4.447   9.637 -2.8866  0.3380  0.1946
   25CHL1   C16 1797   2.847   4.639   9.519 -1.0465  0.5277  0.5599
   25CHL1  H16A 1798   2.940   4.694   9.492 -0.8109 -1.0617 -2.2501
   25CHL1  H16B 1799   2.801   4.569   9.446  1.4028 -0.9864  0.3671
   25CHL1   C17 1800   2.739   4.738   9.553  0.7956 -0.0607 -0.2822
   25CHL1   H17 1801   2.635   4.700   9.551  0.8907 -0.3365 -0.0907
   25CHL1   C13 1802   2.762   4.752   9.710  0.0135 -0.2120  0.1554
   25CHL1   C18 1803   2.891   4.838   9.735 -0.1534 -0.0153 -0.0091
   25CHL1  H18A 1804   2.870   4.941   9.698  1.6476  1.9315  3.7880
   25CHL1  H18B 1805   2.913   4.845   9.844 -3.6086  1.8933  0.7244
   25CHL1  H18C 1806   2.978   4.789   9.687 -1.2950 -2.6298  0.4162
   25CHL1   C12 1807   2.641   4.800   9.796 -0.3685 -0.5333 -0.2586
   25CHL1  H12A 1808   2.611   4.904   9.770  1.7323  0.1371 -0.1586
   25CHL1  H12B 1809   2.552   4.737   9.774 -2.1389  1.5000  0.7031
   25CHL1   C11 1810   2.660   4.790   9.946  0.3268 -0.5085 -0.1807
   25CHL1  H11A 1811   2.714   4.883   9.974 -2.2271  0.6405  1.2937
   25CHL1  H11B 1812   2.560   4.812   9.990  0.2457  1.3118 -1.1955
   25CHL1    C9 1813   2.712   4.650   9.994  0.0504 -0.0759  1.0756
   25CHL1    H9 1814   2.632   4.574   9.986 -0.6866  0.8698 -1.7277
   25CHL1   C10 1815   2.755   4.654  10.147  0.1099  1.2860  0.1762
   25CHL1   C19 1816   2.846   4.781  10.172  0.2738 -0.0536  0.8388
   25CHL1  H19A 1817   2.932   4.782  10.102  0.7386  1.9826  1.3884
   25CHL1  H19B 1818   2.782   4.872  10.174 -1.7107 -1.3253  3.9487
   25CHL1  H19C 1819   2.882   4.786  10.277 -0.2330 -0.1608  1.0189
   25CHL1    C1 1820   2.631   4.675  10.232  0.6576 -0.3424 -0.0304
   25CHL1   H1A 1821   2.588   4.776  10.217 -0.6027 -0.5803  1.6268
   25CHL1   H1B 1822   2.556   4.595  10.210  0.1216  0.1746 -0.1006
   25CHL1    C2 1823   2.655   4.656  10.378  0.5153  0.1389  0.1826
   25CHL1   H2A 1824   2.560   4.690  10.424  0.2222  3.8381 -2.6518
   25CHL1   H2B 1825   2.735   4.725  10.413  0.1767  0.0775  1.1034
   25CHL1   C20 1826   2.718   4.860   9.454 -0.0251  0.3227  0.1271
   25CHL1   H20 1827   2.787   4.938   9.495 -0.0569 -0.6019  2.0158
   25CHL1   C21 1828   2.570   4.919   9.461 -0.1438  0.4155 -0.2675
   25CHL1  H21A 1829   2.538   4.935   9.566  0.8627  2.4645 -0.2092
   25CHL1  H21B 1830   2.507   4.853   9.398  0.1884 -0.5941  0.4496
   25CHL1  H21C 1831   2.572   5.021   9.416 -0.4099  0.7159  0.3863
   25CHL1   C22 1832   2.747   4.826   9.309  0.2619  0.2635  0.4382
   25CHL1  H22A 1833   2.855   4.802   9.300  0.4642  1.1013  0.5624
   25CHL1  H22B 1834   2.685   4.737   9.284  1.7666 -0.8180  0.4163
   25CHL1   C23 1835   2.730   4.936   9.203 -0.1957 -0.1194 -0.1868
   25CHL1  H23A 1836   2.622   4.950   9.178  0.6268 -0.6414 -5.1773
   25CHL1  H23B 1837   2.786   5.023   9.242  1.2302 -1.3101  0.5033
   25CHL1   C24 1838   2.776   4.877   9.071  0.6664 -0.1851  0.1743
   25CHL1  H24A 1839   2.881   4.840   9.075  1.0507  0.0571 -3.5273
   25CHL1  H24B 1840   2.711   4.794   9.035 -0.1943  0.6866 -0.3262
   25CHL1   C25 1841   2.786   4.982   8.949  0.3221  0.0588 -0.6014
   25CHL1   H25 1842   2.851   5.061   8.992  1.2162 -0.2241 -1.3901
   25CHL1   C26 1843   2.844   4.917   8.831 -0.0934 -0.1730  0.0084
   25CHL1  H26A 1844   2.780   4.833   8.798 -0.8288 -0.3089  1.6873
   25CHL1  H26B 1845   2.856   4.994   8.752  0.6872  0.1304  0.4027
   25CHL1  H26C 1846   2.943   4.871   8.852  0.1013  0.9615  1.8465
   25CHL1   C27 1847   2.643   5.044   8.916 -0.1530 -0.3040 -0.5266
   25CHL1  H27A 1848   2.606   5.105   9.002  0.0872  0.8454 -1.2149
   25CHL1  H27B 1849   2.669   5.106   8.828 -0.6953 -0.2540 -0.6550
   25CHL1  H27C 1850   2.570   4.969   8.880  0.7081 -1.0171 -0.8265
   26CHL1    C3 1851   3.900   4.675  10.242 -0.4600  0.2200 -0.5791
   26CHL1    H3 1852   3.993   4.633  10.198  0.7362  1.6837  0.4053
   26CHL1    O3 1853   3.887   4.648  10.382  0.2626 -0.7081 -0.5484
   26CHL1   H3' 1854   3.843   4.726  10.417  0.0303 -1.0502 -0.0510
   26CHL1    C4 1855   3.885   4.831  10.214 -0.2665 -0.4902 -0.4007
   26CHL1   H4A 1856   3.792   4.874  10.256  0.2801 -1.0114  1.4313
   26CHL1   H4B 1857   3.975   4.881  10.255 -0.2077  1.3404 -2.5715
   26CHL1    C5 1858   3.872   4.868  10.066 -0.5308 -0.0401 -0.2890
   26CHL1    C6 1859   3.952   4.961  10.002  0.1178  0.0257 -0.2121
   26CHL1    H6 1860   4.032   5.021  10.047 -0.2150 -0.0423  0.4894
   26CHL1    C7 1861   3.944   4.979   9.860  0.3124  0.4789  0.1179
   26CHL1   H7A 1862   3.956   5.087   9.837 -1.7230  0.6217 -0.4671
   26CHL1   H7B 1863   4.034   4.929   9.818 -0.2655  0.4234 -1.1210
   26CHL1    C8 1864   3.818   4.929   9.786 -0.0295  0.0761 -0.2334
   26CHL1    H8 1865   3.738   4.998   9.821  2.2614  2.9461 -0.2861
   26CHL1   C14 1866   3.842   4.926   9.632 -0.0788 -0.2582  0.4530
   26CHL1   H14 1867   3.916   4.844   9.618  0.4502  0.7037 -3.6840
   26CHL1   C15 1868   3.908   5.042   9.564 -0.4866 -0.2855  0.3338
   26CHL1  H15A 1869   3.878   5.136   9.614 -0.0441  1.2142 -2.0654
   26CHL1  H15B 1870   4.019   5.038   9.571 -0.3833  1.2144 -0.0085
   26CHL1   C16 1871   3.870   5.030   9.410 -0.1725  0.1320 -0.5484
   26CHL1  H16A 1872   3.825   5.123   9.370 -0.7152 -0.9739 -2.6195
   26CHL1  H16B 1873   3.958   5.006   9.347 -0.8499  0.2520 -1.5533
   26CHL1   C17 1874   3.776   4.911   9.403 -0.6795  0.3779  0.6502
   26CHL1   H17 1875   3.835   4.822   9.373  0.2158  1.5826 -1.3843
   26CHL1   C13 1876   3.720   4.889   9.547  0.3301  0.0478 -0.3652
   26CHL1   C18 1877   3.600   4.982   9.576  0.1142 -0.0047 -0.8444
   26CHL1  H18A 1878   3.599   5.004   9.685 -1.5636  1.5525 -1.1279
   26CHL1  H18B 1879   3.610   5.072   9.512  1.2954  0.8888  0.5238
   26CHL1  H18C 1880   3.507   4.927   9.550  0.1274 -0.2917 -0.3069
   26CHL1   C12 1881   3.693   4.738   9.594 -0.0777 -0.4790 -0.4951
   26CHL1  H12A 1882   3.602   4.702   9.542  0.0777 -2.3016  0.4181
   26CHL1  H12B 1883   3.784   4.681   9.569  1.8529  1.1216  2.2504
   26CHL1   C11 1884   3.675   4.729   9.747  1.1895  0.5406  0.2483
   26CHL1  H11A 1885   3.588   4.793   9.773 -1.4634 -3.5660  2.6694
   26CHL1  H11B 1886   3.658   4.620   9.766  1.0317  0.5933  0.4193
   26CHL1    C9 1887   3.787   4.785   9.831  0.4145 -0.0979  0.1700
   26CHL1    H9 1888   3.879   4.725   9.814  0.2670 -0.5676  0.9776
   26CHL1   C10 1889   3.767   4.778   9.988 -0.1022  0.2441  0.1244
   26CHL1   C19 1890   3.630   4.851  10.015  0.4802 -0.4859 -0.1962
   26CHL1  H19A 1891   3.615   4.858  10.124 -2.9516 -0.0769 -0.5817
   26CHL1  H19B 1892   3.635   4.959   9.989 -1.2507 -0.3229  0.0253
   26CHL1  H19C 1893   3.538   4.801   9.976 -1.1892  2.0010  0.3295
   26CHL1    C1 1894   3.768   4.631  10.028 -0.5102  0.0145  0.1985
   26CHL1   H1A 1895   3.672   4.586   9.995 -2.3940  3.2110  0.8286
   26CHL1   H1B 1896   3.853   4.583   9.975 -0.0196  1.3416 -0.2612
   26CHL1    C2 1897   3.779   4.605  10.181  0.3644 -0.6928 -0.4898
   26CHL1   H2A 1898   3.773   4.496  10.203 -1.8409 -0.9654 -2.0600
   26CHL1   H2B 1899   3.687   4.653  10.222  2.5028  2.3816  1.1048
   26CHL1   C20 1900   3.696   4.909   9.276 -0.4058 -0.4750 -0.1881
   26CHL1   H20 1901   3.618   4.988   9.282 -2.0620 -2.1409  2.1285
   26CHL1   C21 1902   3.624   4.776   9.259  0.9413 -0.4735  0.2356
   26CHL1  H21A 1903   3.553   4.775   9.174  1.4526  0.7323 -0.2215
   26CHL1  H21B 1904   3.553   4.757   9.343 -2.6544  1.3614 -2.1082
   26CHL1  H21C 1905   3.699   4.695   9.246 -1.0384 -2.1536 -1.4212
   26CHL1   C22 1906   3.788   4.942   9.148 -0.2254 -0.0262 -1.0641
   26CHL1  H22A 1907   3.846   5.033   9.177 -0.2674 -1.1469  3.2733
   26CHL1  H22B 1908   3.862   4.863   9.128  0.1512  0.0728 -0.1439
   26CHL1   C23 1909   3.704   4.955   9.022 -0.0027 -0.4492  0.2355
   26CHL1  H23A 1910   3.641   4.864   9.005  2.3958 -2.0416 -0.6746
   26CHL1  H23B 1911   3.630   5.034   9.047  0.8946  0.0705  1.3402
   26CHL1   C24 1912   3.770   4.994   8.887  0.3564  0.4825  0.2637
   26CHL1  H24A 1913   3.790   5.103   8.897 -0.3139  0.5446  0.9882
   26CHL1  H24B 1914   3.865   4.937   8.888  1.2936  1.8447  3.7438
   26CHL1   C25 1915   3.691   4.966   8.760 -0.0481  0.3488  0.1353
   26CHL1   H25 1916   3.652   4.863   8.776 -1.0206  0.7154  0.2192
   26CHL1   C26 1917   3.577   5.061   8.730 -0.8031 -0.1319  0.3982
   26CHL1  H26A 1918   3.507   5.019   8.654 -1.2466  1.1402  0.0803
   26CHL1  H26B 1919   3.510   5.101   8.810  0.5324 -0.5929  1.8027
   26CHL1  H26C 1920   3.628   5.152   8.693 -2.0877  1.4504  2.2931
   26CHL1   C27 1921   3.795   4.960   8.637  0.2358  0.1321 -1.0638
   26CHL1  H27A 1922   3.746   4.945   8.539 -0.2354 -0.9438 -0.6792
   26CHL1  H27B 1923   3.850   5.055   8.654 -0.0479  0.2174 -0.6135
   26CHL1  H27C 1924   3.869   4.877   8.651  1.4253  1.4893  1.4309
   27CHL1    C3 1925   2.677   2.967  10.429 -0.5678 -0.5779  0.3232
   27CHL1    H3 1926   2.688   2.858  10.447 -1.4402 -0.7142  0.1053
   27CHL1    O3 1927   2.651   3.020  10.557 -0.2544 -0.1569  0.0048
   27CHL1   H3' 1928   2.734   3.026  10.604 -1.3009 -1.1899  2.1252
   27CHL1    C4 1929   2.796   3.039  10.357 -0.3889 -0.1689  0.5873
   27CHL1   H4A 1930   2.783   3.150  10.356  0.5635 -0.0461  0.9321
   27CHL1   H4B 1931   2.891   3.034  10.415  0.5785  0.2244 -0.9071
   27CHL1    C5 1932   2.799   2.982  10.218  0.2015  0.1475  0.1412
   27CHL1    C6 1933   2.919   2.934  10.172 -0.5528 -0.1645  0.6375
   27CHL1    H6 1934   3.009   2.947  10.234  0.3635  1.0643 -0.8847
   27CHL1    C7 1935   2.937   2.882  10.030  0.2934  0.1503 -0.5952
   27CHL1   H7A 1936   3.037   2.908   9.991 -0.3916  0.1972 -2.4203
   27CHL1   H7B 1937   2.923   2.771  10.034 -1.8513  0.3962  3.6748
   27CHL1    C8 1938   2.821   2.937   9.933 -0.2592  0.1391 -0.7659
   27CHL1    H8 1939   2.831   3.047   9.920  1.1533  0.5229  2.6158
   27CHL1   C14 1940   2.838   2.865   9.803  0.4123  0.0709 -0.6197
   27CHL1   H14 1941   2.842   2.760   9.838  0.7187  0.7466  1.5958
   27CHL1   C15 1942   2.973   2.878   9.729  0.8423  0.4858  0.4657
   27CHL1  H15A 1943   3.005   2.984   9.724  1.5388  0.2178 -1.3403
   27CHL1  H15B 1944   3.057   2.821   9.776  1.0849  0.8977  0.5426
   27CHL1   C16 1945   2.933   2.841   9.581 -0.0879  0.0524 -0.4545
   27CHL1  H16A 1946   2.955   2.936   9.527 -2.2936 -0.7669 -2.9632
   27CHL1  H16B 1947   2.991   2.756   9.539  0.1126 -0.4967  0.8892
   27CHL1   C17 1948   2.778   2.816   9.580 -0.8953 -0.2454  0.4946
   27CHL1   H17 1949   2.765   2.713   9.620  0.2163 -0.3909  0.5068
   27CHL1   C13 1950   2.736   2.906   9.697  0.7661 -0.5320 -0.1480
   27CHL1   C18 1951   2.734   3.054   9.648  0.6983 -0.7320  0.0003
   27CHL1  H18A 1952   2.828   3.070   9.593  0.5482  0.8300  0.1693
   27CHL1  H18B 1953   2.648   3.080   9.583 -1.3736 -2.0357  2.0249
   27CHL1  H18C 1954   2.720   3.122   9.735 -1.0733 -0.5040 -0.4101
   27CHL1   C12 1955   2.601   2.867   9.757 -0.7153 -0.3264 -0.2514
   27CHL1  H12A 1956   2.518   2.877   9.684  0.3689 -1.7136 -1.7467
   27CHL1  H12B 1957   2.612   2.764   9.797 -1.5592 -0.1405  0.4731
   27CHL1   C11 1958   2.578   2.942   9.890 -0.0806  0.6026 -0.5336
   27CHL1  H11A 1959   2.576   3.050   9.866  0.8186  0.5259 -0.9853
   27CHL1  H11B 1960   2.478   2.914   9.931  0.2311  0.0650 -0.1303
   27CHL1    C9 1961   2.690   2.909   9.996  0.4752  0.0578 -0.8501
   27CHL1    H9 1962   2.682   2.801  10.020 -1.3958  0.3032 -0.2204
   27CHL1   C10 1963   2.665   2.988  10.136 -0.1250 -0.0783 -0.3662
   27CHL1   C19 1964   2.649   3.140  10.102 -0.4402  0.1188 -0.0907
   27CHL1  H19A 1965   2.646   3.202  10.194 -0.9613 -2.8685  2.0915
   27CHL1  H19B 1966   2.721   3.184  10.031 -2.1768  0.4862 -1.7006
   27CHL1  H19C 1967   2.546   3.161  10.064 -0.6544  0.7521  0.7943
   27CHL1    C1 1968   2.544   2.926  10.211 -0.1143 -0.1669 -1.0174
   27CHL1   H1A 1969   2.450   2.950  10.156 -0.4178  0.4773 -0.2416
   27CHL1   H1B 1970   2.565   2.817  10.204  0.8527  0.0519 -1.7162
   27CHL1    C2 1971   2.545   2.982  10.354 -0.2130  0.7007 -0.2409
   27CHL1   H2A 1972   2.462   2.923  10.399  0.9173 -2.0622 -1.5469
   27CHL1   H2B 1973   2.509   3.087  10.362 -1.0543  0.3467  0.9865
   27CHL1   C20 1974   2.717   2.828   9.439 -0.2456  0.1030  0.4211
   27CHL1   H20 1975   2.732   2.923   9.383  0.2165 -1.9662 -3.2944
   27CHL1   C21 1976   2.570   2.808   9.453  0.1417  0.0370 -0.3230
   27CHL1  H21A 1977   2.519   2.769   9.362  0.6715 -1.4936  0.0087
   27CHL1  H21B 1978   2.519   2.905   9.474  0.8103  0.0975  1.1305
   27CHL1  H21C 1979   2.566   2.733   9.534 -0.1897  0.8032  0.3862
   27CHL1   C22 1980   2.776   2.721   9.334 -0.1517 -0.6776 -0.4388
   27CHL1  H22A 1981   2.884   2.736   9.314 -0.3379 -0.1082 -1.0738
   27CHL1  H22B 1982   2.745   2.623   9.376 -3.6682  0.3615 -0.2487
   27CHL1   C23 1983   2.720   2.730   9.198  0.3312  0.4706  0.3425
   27CHL1  H23A 1984   2.609   2.723   9.195  0.2859  1.2637 -1.9145
   27CHL1  H23B 1985   2.737   2.830   9.153  1.6145 -1.0104 -2.7486
   27CHL1   C24 1986   2.789   2.636   9.099  0.7839 -0.3546 -0.1672
   27CHL1  H24A 1987   2.895   2.670   9.104  0.8592 -0.6836  0.5953
   27CHL1  H24B 1988   2.784   2.535   9.145 -0.2524  0.0952  0.7353
   27CHL1   C25 1989   2.748   2.640   8.949 -0.5311  0.1823 -0.2044
   27CHL1   H25 1990   2.748   2.746   8.917  0.7991  0.5097  0.7919
   27CHL1   C26 1991   2.857   2.580   8.855  0.1260  0.1708 -0.1306
   27CHL1  H26A 1992   2.882   2.473   8.873  0.8358  0.7407  2.9855
   27CHL1  H26B 1993   2.826   2.590   8.749 -1.0479 -2.8648 -0.1475
   27CHL1  H26C 1994   2.952   2.634   8.877 -0.0167  0.5956 -0.5273
   27CHL1   C27 1995   2.602   2.581   8.921  0.6097  0.3250 -0.5698
   27CHL1  H27A 1996   2.601   2.474   8.950 -1.0086  1.2916  3.7653
   27CHL1  H27B 1997   2.537   2.638   8.991 -0.0343  0.5813 -1.3520
   27CHL1  H27C 1998   2.568   2.607   8.818  0.6043 -0.1098 -0.6805
   28CHL1    C3 1999   0.877   0.888   9.953  0.1643 -0.2067 -0.0952
   28CHL1    H3 2000   0.801   0.807   9.953 -1.7215  1.4404  2.0093
   28CHL1    O3 2001   0.920   0.903  10.086  0.0372  0.0290 -0.3199
   28CHL1   H3' 2002   0.927   0.997  10.107  0.0220 -0.2794  1.1802
   28CHL1    C4 2003   0.997   0.866   9.862  0.1701 -0.1946 -0.6717
   28CHL1   H4A 2004   1.068   0.948   9.883 -0.0901 -0.4403  1.3888
   28CHL1   H4B 2005   1.046   0.776   9.906 -1.4530  0.2923  2.4207
   28CHL1    C5 2006   0.965   0.856   9.714 -0.3853 -0.2530  0.7178
   28CHL1    C6 2007   0.995   0.744   9.644 -0.6300 -0.4860 -0.1469
   28CHL1    H6 2008   1.041   0.660   9.697  3.0936  0.3499 -1.7534
   28CHL1    C7 2009   0.956   0.717   9.504 -0.1215  0.1601 -1.0081
   28CHL1   H7A 2010   1.039   0.685   9.437  0.8070  0.3870  0.0172
   28CHL1   H7B 2011   0.862   0.658   9.509 -0.8282  1.0887 -2.5844
   28CHL1    C8 2012   0.909   0.849   9.432  0.0782 -0.2736  1.1737
   28CHL1    H8 2013   1.006   0.904   9.428  0.5678 -1.0034  2.3595
   28CHL1   C14 2014   0.831   0.827   9.304 -0.3692 -0.1485 -0.3583
   28CHL1   H14 2015   0.729   0.792   9.333 -0.5326  1.0928  0.6613
   28CHL1   C15 2016   0.889   0.722   9.209 -0.2738  0.1188 -0.8984
   28CHL1  H15A 2017   0.999   0.734   9.202 -0.2766  0.2369 -0.7374
   28CHL1  H15B 2018   0.852   0.622   9.239 -1.5078 -0.0539 -2.7612
   28CHL1   C16 2019   0.821   0.766   9.073  0.3263 -0.4665 -0.0429
   28CHL1  H16A 2020   0.909   0.800   9.014 -0.2237  2.0865  0.5337
   28CHL1  H16B 2021   0.776   0.687   9.009  0.4582 -0.2614 -0.3924
   28CHL1   C17 2022   0.737   0.898   9.093 -0.1252 -0.0240  0.3311
   28CHL1   H17 2023   0.631   0.873   9.115 -0.1263  1.0582  1.7453
   28CHL1   C13 2024   0.798   0.952   9.222  0.2083 -1.3316  0.4519
   28CHL1   C18 2025   0.933   1.033   9.183 -0.5270  0.2341  0.3575
   28CHL1  H18A 2026   0.905   1.135   9.149 -0.8487  0.0690  0.1242
   28CHL1  H18B 2027   0.996   1.040   9.274 -1.5910 -2.7811  1.4514
   28CHL1  H18C 2028   1.008   0.981   9.121  0.2764  1.0384  0.6321
   28CHL1   C12 2029   0.704   1.042   9.309 -0.8041 -0.2759 -0.3570
   28CHL1  H12A 2030   0.683   1.144   9.270 -1.5149 -0.0619  0.5443
   28CHL1  H12B 2031   0.608   0.991   9.329 -2.6176  3.3113  0.9835
   28CHL1   C11 2032   0.770   1.071   9.446 -0.6093  0.1788  0.7244
   28CHL1  H11A 2033   0.862   1.130   9.431  0.6317 -1.7262  0.4738
   28CHL1  H11B 2034   0.702   1.130   9.511 -2.1614 -0.8819  0.1251
   28CHL1    C9 2035   0.824   0.943   9.519 -0.0706 -0.6295  0.1882
   28CHL1    H9 2036   0.733   0.884   9.545  0.1194 -0.6665  0.7872
   28CHL1   C10 2037   0.892   0.971   9.662 -0.1529 -0.4849 -0.2589
   28CHL1   C19 2038   0.992   1.100   9.645 -0.5991  0.1733  0.4665
   28CHL1  H19A 2039   0.927   1.191   9.643 -0.6198  0.1691  1.0304
   28CHL1  H19B 2040   1.068   1.108   9.725 -0.5582 -4.7336  1.2035
   28CHL1  H19C 2041   1.048   1.086   9.550 -1.5156 -0.8028  0.0409
   28CHL1    C1 2042   0.783   1.010   9.764  0.2394 -0.1535  0.1623
   28CHL1   H1A 2043   0.724   1.099   9.734  0.8442  0.0583 -0.4284
   28CHL1   H1B 2044   0.704   0.933   9.754  0.6492 -0.3200 -2.5359
   28CHL1    C2 2045   0.808   1.014   9.914  0.8844 -0.7939 -0.6290
   28CHL1   H2A 2046   0.712   1.028   9.968  1.0699 -3.2585  0.5113
   28CHL1   H2B 2047   0.874   1.101   9.937  0.4369 -0.1577 -1.6917
   28CHL1   C20 2048   0.719   0.988   8.969  0.0414  0.0933 -0.0529
   28CHL1   H20 2049   0.821   1.020   8.937 -0.7799  1.1731 -1.7103
   28CHL1   C21 2050   0.636   1.120   9.009  0.1461 -0.0249  0.5707
   28CHL1  H21A 2051   0.616   1.185   8.921  2.0716 -3.8918 -3.1095
   28CHL1  H21B 2052   0.700   1.181   9.076  0.0073  1.3669 -0.5149
   28CHL1  H21C 2053   0.537   1.096   9.053 -0.4240  1.6538  0.2813
   28CHL1   C22 2054   0.658   0.904   8.850 -0.0865  0.1078  0.0029
   28CHL1  H22A 2055   0.713   0.809   8.832 -2.6414 -1.6553  0.9340
   28CHL1  H22B 2056   0.553   0.874   8.871 -0.3942  1.5910  0.7225
   28CHL1   C23 2057   0.660   0.971   8.717 -0.2726 -0.1037  0.5091
   28CHL1  H23A 2058   0.606   1.068   8.722 -1.4128 -0.5882 -1.4360
   28CHL1  H23B 2059   0.764   1.010   8.704  0.7437 -1.9396  2.4040
   28CHL1   C24 2060   0.609   0.893   8.596 -0.3991 -0.8874  0.3636
   28CHL1  H24A 2061   0.506   0.857   8.616 -0.4855 -0.0576  1.4771
   28CHL1  H24B 2062   0.619   0.952   8.502  2.4255 -1.0261  0.4816
   28CHL1   C25 2063   0.696   0.763   8.563  0.3130  0.0079 -0.2485
   28CHL1   H25 2064   0.706   0.711   8.660 -3.3461  1.0454  0.8426
   28CHL1   C26 2065   0.617   0.675   8.468 -0.3168  0.3845 -0.8396
   28CHL1  H26A 2066   0.537   0.624   8.526  0.4686  0.2285  0.1507
   28CHL1  H26B 2067   0.575   0.726   8.379  1.3026  2.1749 -0.6403
   28CHL1  H26C 2068   0.682   0.595   8.427  0.0747  0.9646 -1.3700
   28CHL1   C27 2069   0.833   0.793   8.517 -0.5613 -0.4310  0.1382
   28CHL1  H27A 2070   0.883   0.698   8.487  3.1443  1.5742 -0.5586
   28CHL1  H27B 2071   0.824   0.873   8.441 -0.5027  2.0900  2.6129
   28CHL1  H27C 2072   0.898   0.832   8.598 -0.3164  1.0793 -0.7533
   29CHL1    C3 2073   2.666   6.714   6.609  0.4671  0.3655  0.3079
   29CHL1    H3 2074   2.728   6.623   6.624 -0.5248 -0.6984 -1.6977
   29CHL1    O3 2075   2.660   6.739   6.469  0.6521  0.3087 -0.0493
   29CHL1   H3' 2076   2.614   6.667   6.425 -1.5483  0.1188  2.3677
   29CHL1    C4 2077   2.522   6.690   6.678 -0.1495 -0.2893 -0.1980
   29CHL1   H4A 2078   2.462   6.778   6.648  1.3985  0.6701 -0.5648
   29CHL1   H4B 2079   2.470   6.606   6.627 -1.1031  1.1181 -1.6403
   29CHL1    C5 2080   2.525   6.687   6.833 -0.4524  0.6197  0.2299
   29CHL1    C6 2081   2.468   6.585   6.902  0.1430 -0.3029  0.0417
   29CHL1    H6 2082   2.422   6.493   6.863 -1.6704  0.5751 -0.0054
   29CHL1    C7 2083   2.461   6.589   7.051  0.2469  0.6229 -0.2141
   29CHL1   H7A 2084   2.360   6.557   7.085  0.7347 -0.1510  0.5357
   29CHL1   H7B 2085   2.526   6.513   7.098 -2.2565 -1.4682  0.0835
   29CHL1    C8 2086   2.474   6.727   7.122  0.1883 -0.2856 -0.4911
   29CHL1    H8 2087   2.385   6.793   7.112  0.8477  0.7828  0.4565
   29CHL1   C14 2088   2.520   6.711   7.266 -0.3866  0.1678 -0.3356
   29CHL1   H14 2089   2.619   6.660   7.265 -0.3608  0.1456  1.1196
   29CHL1   C15 2090   2.432   6.621   7.348 -0.4209  0.2428 -0.8353
   29CHL1  H15A 2091   2.327   6.643   7.322 -0.6588 -1.0286 -1.0059
   29CHL1  H15B 2092   2.452   6.514   7.329 -0.2107 -0.1041  1.0835
   29CHL1   C16 2093   2.467   6.665   7.491 -0.0944  0.2171 -0.3858
   29CHL1  H16A 2094   2.371   6.687   7.541  0.2377 -0.2388  0.4641
   29CHL1  H16B 2095   2.518   6.590   7.555  0.5544  0.9287 -0.0476
   29CHL1   C17 2096   2.569   6.783   7.483  0.1084  0.3798 -0.1345
   29CHL1   H17 2097   2.671   6.738   7.480 -0.5057 -1.2774  1.4688
   29CHL1   C13 2098   2.539   6.845   7.341  0.2189  0.2106  0.2866
   29CHL1   C18 2099   2.405   6.927   7.348 -0.1332  0.3482 -0.5313
   29CHL1  H18A 2100   2.369   6.948   7.245  1.1382 -1.3643 -1.3864
   29CHL1  H18B 2101   2.318   6.872   7.391  0.5460 -1.1375 -0.9753
   29CHL1  H18C 2102   2.423   7.018   7.408  0.0910  1.3173 -2.0244
   29CHL1   C12 2103   2.652   6.921   7.271 -0.8615 -0.3425 -0.2395
   29CHL1  H12A 2104   2.671   7.018   7.321  0.6548 -1.4175  1.4137
   29CHL1  H12B 2105   2.740   6.856   7.293 -1.2144  0.0544  2.7870
   29CHL1   C11 2106   2.629   6.931   7.122  0.5377 -0.1192 -0.1305
   29CHL1  H11A 2107   2.538   6.994   7.109 -0.1202 -1.2521 -1.2133
   29CHL1  H11B 2108   2.708   6.985   7.065 -1.8403  4.3774  0.3570
   29CHL1    C9 2109   2.590   6.800   7.054  0.3134  0.7829  0.0336
   29CHL1    H9 2110   2.678   6.733   7.064  0.3075  0.8562  0.5985
   29CHL1   C10 2111   2.581   6.812   6.899 -0.1980 -0.0261  0.0765
   29CHL1   C19 2112   2.492   6.940   6.866 -0.0837  0.1135 -0.4476
   29CHL1  H19A 2113   2.393   6.922   6.914 -1.4556  0.2691 -3.0616
   29CHL1  H19B 2114   2.540   7.032   6.906  0.6244  0.2294 -1.5408
   29CHL1  H19C 2115   2.470   6.958   6.759 -0.0268 -2.1493 -0.8882
   29CHL1    C1 2116   2.722   6.832   6.832 -0.0787  0.1511  0.5835
   29CHL1   H1A 2117   2.744   6.937   6.860 -1.2442  0.5270  0.1646
   29CHL1   H1B 2118   2.787   6.753   6.875  0.6999  0.0644 -0.7070
   29CHL1    C2 2119   2.723   6.839   6.678  0.0610  0.5777  0.2279
   29CHL1   H2A 2120   2.829   6.843   6.645 -0.1567 -2.1295 -1.0446
   29CHL1   H2B 2121   2.673   6.932   6.643  0.2407  0.9565  0.9580
   29CHL1   C20 2122   2.564   6.866   7.614  0.0332 -0.4626  0.2099
   29CHL1   H20 2123   2.505   6.957   7.591  2.3730  1.0204 -0.3669
   29CHL1   C21 2124   2.708   6.914   7.642  0.1923 -0.3788  0.0836
   29CHL1  H21A 2125   2.738   6.985   7.561 -0.1646 -0.6738 -0.3114
   29CHL1  H21B 2126   2.776   6.827   7.651  1.2493  0.4739  0.7333
   29CHL1  H21C 2127   2.714   6.974   7.735  1.0888  3.9135 -2.4548
   29CHL1   C22 2128   2.499   6.811   7.743  0.1013  0.5790 -0.5082
   29CHL1  H22A 2129   2.390   6.800   7.723 -0.1699  2.0932  0.0180
   29CHL1  H22B 2130   2.537   6.710   7.770  0.9570  0.7094 -1.1817
   29CHL1   C23 2131   2.494   6.899   7.866 -0.2424 -0.0104  0.8078
   29CHL1  H23A 2132   2.599   6.925   7.893 -0.3925  2.4673 -0.7011
   29CHL1  H23B 2133   2.459   6.999   7.832  0.5621 -0.4474 -1.4765
   29CHL1   C24 2134   2.393   6.851   7.979  0.1591 -0.0841  0.5998
   29CHL1  H24A 2135   2.344   6.935   8.033  0.6819  0.8339 -0.2986
   29CHL1  H24B 2136   2.304   6.804   7.932  1.1012 -0.4249 -0.9155
   29CHL1   C25 2137   2.449   6.753   8.081  0.1646  0.2309  0.2395
   29CHL1   H25 2138   2.511   6.672   8.038 -0.5039 -0.4327  0.5149
   29CHL1   C26 2139   2.542   6.834   8.176 -0.4001  0.0387  0.5099
   29CHL1  H26A 2140   2.571   6.766   8.259 -3.8635 -0.3443  1.5799
   29CHL1  H26B 2141   2.625   6.884   8.123 -1.1079  1.1301  0.3935
   29CHL1  H26C 2142   2.478   6.897   8.242 -2.7119  0.5274 -2.0348
   29CHL1   C27 2143   2.349   6.685   8.172 -0.4407 -0.0344  0.9886
   29CHL1  H27A 2144   2.278   6.762   8.209  1.0030  1.4209  0.7796
   29CHL1  H27B 2145   2.283   6.615   8.116  1.1919 -1.1662  0.4094
   29CHL1  H27C 2146   2.403   6.624   8.248  0.1244 -0.8819 -0.0700
   30CHL1    C3 2147   6.572   5.135   7.250 -0.3035 -0.2992  0.4890
   30CHL1    H3 2148   6.657   5.205   7.235 -0.6047  0.1325  0.7791
   30CHL1    O3 2149   6.506   5.112   7.124 -0.3955 -0.0854  0.5181
   30CHL1   H3' 2150   6.554   5.036   7.089 -2.3308 -2.0847  1.9258
   30CHL1    C4 2151   6.609   4.993   7.302 -0.1248 -0.6143  0.0895
   30CHL1   H4A 2152   6.516   4.933   7.308 -1.5175  1.3424 -0.6477
   30CHL1   H4B 2153   6.689   4.944   7.244  1.2912 -0.9156  2.1950
   30CHL1    C5 2154   6.666   5.004   7.440  0.1408 -0.3169  0.6301
   30CHL1    C6 2155   6.781   4.953   7.475 -0.1862  0.4809  0.2649
   30CHL1    H6 2156   6.828   4.901   7.391 -1.7695  0.9985 -1.0032
   30CHL1    C7 2157   6.845   4.954   7.618  0.3214 -0.2271  0.3065
   30CHL1   H7A 2158   6.888   4.857   7.651 -2.0037 -1.1513  0.7931
   30CHL1   H7B 2159   6.913   5.041   7.626 -0.4460  0.4288 -0.2119
   30CHL1    C8 2160   6.730   4.976   7.717 -1.0688  0.0186 -0.8745
   30CHL1    H8 2161   6.662   4.889   7.729 -0.4364 -0.3540  0.1999
   30CHL1   C14 2162   6.798   4.994   7.855 -0.3946  0.5497 -0.4045
   30CHL1   H14 2163   6.861   5.085   7.844 -0.9369  1.2789  2.0010
   30CHL1   C15 2164   6.893   4.887   7.914  0.4464 -0.7395 -0.3219
   30CHL1  H15A 2165   6.852   4.785   7.895  1.8002 -1.6629  1.3763
   30CHL1  H15B 2166   6.993   4.902   7.867  0.1031 -0.5985 -1.0199
   30CHL1   C16 2167   6.902   4.935   8.059  0.6875 -0.1102 -0.0435
   30CHL1  H16A 2168   6.878   4.846   8.121  2.0426 -0.4690 -0.0043
   30CHL1  H16B 2169   7.008   4.961   8.080  0.3068  1.8987 -0.3572
   30CHL1   C17 2170   6.810   5.056   8.080  0.0396 -0.2893 -0.3864
   30CHL1   H17 2171   6.857   5.152   8.049 -0.7326  0.2663  0.1267
   30CHL1   C13 2172   6.700   5.045   7.970  0.3820  0.4125 -0.6775
   30CHL1   C18 2173   6.603   4.935   8.015  0.4953  0.1750 -0.1412
   30CHL1  H18A 2174   6.542   4.905   7.927 -1.2198  1.3701  0.5848
   30CHL1  H18B 2175   6.660   4.846   8.050  1.0332  0.7241  0.3993
   30CHL1  H18C 2176   6.533   4.975   8.092 -1.4712  0.3523 -1.9195
   30CHL1   C12 2177   6.625   5.173   7.933 -0.5567  0.4070 -0.0802
   30CHL1  H12A 2178   6.559   5.206   8.016 -1.1362 -1.0025  0.0458
   30CHL1  H12B 2179   6.703   5.247   7.903  0.5016 -0.5691  0.2036
   30CHL1   C11 2180   6.549   5.138   7.799 -0.4757  0.0956 -0.9212
   30CHL1  H11A 2181   6.461   5.073   7.819  0.6514 -0.6582  2.0256
   30CHL1  H11B 2182   6.510   5.233   7.757 -1.7389 -0.7626 -1.7606
   30CHL1    C9 2183   6.637   5.089   7.683 -0.5382  0.1329  0.2696
   30CHL1    H9 2184   6.703   5.177   7.670 -0.9649  0.1781 -2.0289
   30CHL1   C10 2185   6.572   5.066   7.541 -0.8690  0.1470 -0.2785
   30CHL1   C19 2186   6.457   4.961   7.558  0.5642  0.5494 -0.0642
   30CHL1  H19A 2187   6.393   4.947   7.468  1.3515  0.3264 -0.5990
   30CHL1  H19B 2188   6.498   4.859   7.575 -1.6263 -0.4338 -0.2877
   30CHL1  H19C 2189   6.393   4.986   7.645 -0.8703 -0.7490 -0.6898
   30CHL1    C1 2190   6.519   5.206   7.495  0.3219 -0.7179 -0.3098
   30CHL1   H1A 2191   6.432   5.226   7.561  0.4732 -3.2763  0.7916
   30CHL1   H1B 2192   6.601   5.281   7.489  1.1504 -1.2719  2.3848
   30CHL1    C2 2193   6.467   5.197   7.346 -0.0563  0.1928  0.6035
   30CHL1   H2A 2194   6.439   5.297   7.307  0.6456  0.1125 -0.1258
   30CHL1   H2B 2195   6.378   5.130   7.352  0.4922 -0.7068 -0.9061
   30CHL1   C20 2196   6.782   5.076   8.229 -0.3065 -0.1634  0.3063
   30CHL1   H20 2197   6.693   5.013   8.253 -1.2822  0.1232 -2.1740
   30CHL1   C21 2198   6.748   5.223   8.256  0.2200 -0.9444  0.1915
   30CHL1  H21A 2199   6.646   5.246   8.218  0.1593 -0.6807  0.5156
   30CHL1  H21B 2200   6.829   5.290   8.221 -0.4590  0.0123  0.4327
   30CHL1  H21C 2201   6.746   5.237   8.366 -2.8285 -0.0458  0.1304
   30CHL1   C22 2202   6.894   5.032   8.329  0.7415  0.2488 -0.4301
   30CHL1  H22A 2203   6.842   5.024   8.427  0.1779 -1.0947 -0.8240
   30CHL1  H22B 2204   6.924   4.928   8.307  1.4229  0.5652 -1.0369
   30CHL1   C23 2205   7.021   5.117   8.347 -0.0496 -0.0551  0.0927
   30CHL1  H23A 2206   7.080   5.115   8.253  0.8815  0.6035  0.6423
   30CHL1  H23B 2207   6.991   5.223   8.365 -1.8742 -0.6132  0.6103
   30CHL1   C24 2208   7.112   5.062   8.461 -0.7297 -0.3174  0.1243
   30CHL1  H24A 2209   7.069   5.053   8.563  0.4383  2.2458  0.9275
   30CHL1  H24B 2210   7.143   4.960   8.430 -1.7214 -0.9287  1.0703
   30CHL1   C25 2211   7.235   5.157   8.491  0.0110 -0.0390 -0.3924
   30CHL1   H25 2212   7.170   5.247   8.490 -3.7337 -2.3949 -4.7256
   30CHL1   C26 2213   7.302   5.129   8.631  0.5033 -0.4439 -0.4346
   30CHL1  H26A 2214   7.323   5.020   8.623 -0.2879 -0.5864 -0.6635
   30CHL1  H26B 2215   7.391   5.194   8.643  0.4976 -0.2106 -1.6113
   30CHL1  H26C 2216   7.228   5.155   8.711  0.3194 -2.0057 -0.0641
   30CHL1   C27 2217   7.343   5.159   8.385 -0.2051  0.2262  0.5859
   30CHL1  H27A 2218   7.432   5.222   8.406  0.7939 -1.5304  1.9184
   30CHL1  H27B 2219   7.393   5.060   8.371 -1.8705 -0.4539 -0.9402
   30CHL1  H27C 2220   7.296   5.182   8.287  1.3655  3.1366  0.4176
   31CHL1    C3 2221   5.446   6.038   6.911  0.3293 -0.1176 -0.2174
   31CHL1    H3 2222   5.355   5.981   6.939  1.4357 -1.3075  1.1738
   31CHL1    O3 2223   5.471   6.020   6.776  0.3226 -0.7547  0.6146
   31CHL1   H3' 2224   5.564   6.042   6.775  0.0102  0.9378 -2.2954
   31CHL1    C4 2225   5.427   6.187   6.946  0.1970  0.2089  0.3092
   31CHL1   H4A 2226   5.513   6.251   6.917 -0.0895  1.1551  1.4934
   31CHL1   H4B 2227   5.343   6.214   6.879  0.0180  0.0966  0.4871
   31CHL1    C5 2228   5.407   6.208   7.098  0.0594  0.1611  0.2137
   31CHL1    C6 2229   5.294   6.269   7.150 -0.0375  0.4055  0.5538
   31CHL1    H6 2230   5.225   6.319   7.080  0.7457  2.2554  1.0637
   31CHL1    C7 2231   5.263   6.284   7.291  0.0845  0.3668 -0.2722
   31CHL1   H7A 2232   5.240   6.391   7.310  2.3955  0.8117  0.3952
   31CHL1   H7B 2233   5.174   6.227   7.323  0.6481 -0.5368 -0.2738
   31CHL1    C8 2234   5.391   6.251   7.372 -0.0200 -0.6433 -0.1801
   31CHL1    H8 2235   5.462   6.335   7.353 -0.4933  0.2212  1.6228
   31CHL1   C14 2236   5.359   6.256   7.524 -1.1872  0.6114  0.3718
   31CHL1   H14 2237   5.274   6.186   7.540 -0.7567  0.0509  0.2443
   31CHL1   C15 2238   5.305   6.395   7.571 -0.3759  0.2693 -0.2896
   31CHL1  H15A 2239   5.360   6.477   7.519  1.4088  0.2644  1.4527
   31CHL1  H15B 2240   5.195   6.403   7.576 -0.5015  0.0496 -2.1157
   31CHL1   C16 2241   5.335   6.401   7.723 -0.2321  0.3640 -0.0376
   31CHL1  H16A 2242   5.383   6.497   7.751  0.3346  0.3175 -0.8084
   31CHL1  H16B 2243   5.244   6.394   7.786  0.2361  0.1484  0.6184
   31CHL1   C17 2244   5.410   6.261   7.753  0.6534  0.1625  0.1678
   31CHL1   H17 2245   5.333   6.182   7.765 -0.1537  0.0834 -4.0732
   31CHL1   C13 2246   5.475   6.227   7.619  0.8784 -0.1912  0.3579
   31CHL1   C18 2247   5.594   6.318   7.594  0.5553  0.1871 -0.0413
   31CHL1  H18A 2248   5.677   6.309   7.668  1.0692 -0.4255 -0.6792
   31CHL1  H18B 2249   5.644   6.311   7.496  0.8876  1.3864  0.0245
   31CHL1  H18C 2250   5.567   6.425   7.602  0.9028  0.1803  1.9014
   31CHL1   C12 2251   5.518   6.077   7.582  0.3837 -0.6858 -0.0554
   31CHL1  H12A 2252   5.613   6.048   7.631  1.3464  2.3929  0.1091
   31CHL1  H12B 2253   5.431   6.012   7.605  1.2474 -2.1199 -0.7280
   31CHL1   C11 2254   5.554   6.070   7.430  0.7953 -0.2623  0.6983
   31CHL1  H11A 2255   5.647   6.129   7.415 -0.8235  2.4549  0.8128
   31CHL1  H11B 2256   5.587   5.966   7.407 -0.2699 -0.2444 -1.0618
   31CHL1    C9 2257   5.456   6.123   7.332 -0.7514 -0.3299  0.1112
   31CHL1    H9 2258   5.367   6.056   7.329 -0.5091 -0.6307 -1.1987
   31CHL1   C10 2259   5.511   6.131   7.187  1.3408  0.0477 -0.4173
   31CHL1   C19 2260   5.634   6.216   7.174  0.4295 -0.0089 -0.0580
   31CHL1  H19A 2261   5.667   6.251   7.074  1.7564  0.8190  0.6392
   31CHL1  H19B 2262   5.640   6.305   7.241  0.7709  1.2101 -1.6436
   31CHL1  H19C 2263   5.723   6.159   7.209  0.4739  1.2997  2.1567
   31CHL1    C1 2264   5.522   5.993   7.130 -0.1971  0.0909 -0.0051
   31CHL1   H1A 2265   5.606   5.943   7.183 -0.8287 -2.4924 -1.2997
   31CHL1   H1B 2266   5.433   5.934   7.159  1.4939 -2.3998  0.4256
   31CHL1    C2 2267   5.559   5.980   6.989  0.4741 -0.0993 -0.1354
   31CHL1   H2A 2268   5.578   5.880   6.945  3.0078  0.8557 -1.4267
   31CHL1   H2B 2269   5.652   6.041   6.990  0.0687  0.5635  1.8166
   31CHL1   C20 2270   5.492   6.282   7.880 -0.8048  0.1217 -0.1349
   31CHL1   H20 2271   5.572   6.358   7.864 -0.6666 -0.1137 -0.5789
   31CHL1   C21 2272   5.571   6.147   7.907  0.2583  0.2379  0.0988
   31CHL1  H21A 2273   5.627   6.158   8.002 -0.1683  0.9465  0.2744
   31CHL1  H21B 2274   5.651   6.132   7.832 -0.3836 -0.2300 -0.5093
   31CHL1  H21C 2275   5.506   6.056   7.904 -0.2303  0.6029 -1.6156
   31CHL1   C22 2276   5.414   6.316   8.008  0.4072 -0.1481  0.2836
   31CHL1  H22A 2277   5.340   6.394   7.979 -2.1854 -2.7630 -0.7318
   31CHL1  H22B 2278   5.350   6.234   8.048  1.0705 -0.4022  0.8342
   31CHL1   C23 2279   5.503   6.379   8.116  0.1624  0.0885  0.1526
   31CHL1  H23A 2280   5.582   6.308   8.149 -0.4962 -0.7000  0.0772
   31CHL1  H23B 2281   5.559   6.460   8.064 -0.5011  0.1201 -0.5239
   31CHL1   C24 2282   5.435   6.456   8.230  0.1442  0.3190  0.7357
   31CHL1  H24A 2283   5.501   6.538   8.265  1.3196  0.0544 -0.7442
   31CHL1  H24B 2284   5.340   6.502   8.195 -0.2384 -1.9332 -1.5072
   31CHL1   C25 2285   5.410   6.368   8.353 -0.1729  0.4158 -0.2237
   31CHL1   H25 2286   5.503   6.308   8.365 -0.3301  0.2134  0.0102
   31CHL1   C26 2287   5.381   6.465   8.469 -0.3179 -0.4386  0.1371
   31CHL1  H26A 2288   5.477   6.519   8.482  0.7125 -1.2763 -2.9681
   31CHL1  H26B 2289   5.299   6.538   8.460  0.3540  0.3148  0.0518
   31CHL1  H26C 2290   5.344   6.410   8.558  1.3497  1.5330  2.1887
   31CHL1   C27 2291   5.297   6.260   8.334  0.1282 -0.2081  0.2197
   31CHL1  H27A 2292   5.338   6.186   8.262 -0.3566 -0.4231  0.1607
   31CHL1  H27B 2293   5.206   6.314   8.301  0.7130  0.2870 -0.6070
   31CHL1  H27C 2294   5.275   6.208   8.430  0.8956  2.6760  2.0712
   32CHL1    C3 2295   0.828   3.914   6.864  0.6922 -0.9149  0.3288
   32CHL1    H3 2296   0.918   3.976   6.881  0.9520 -1.2297  0.1249
   32CHL1    O3 2297   0.806   3.893   6.724  0.4307  0.3036 -0.1167
   32CHL1   H3' 2298   0.825   3.801   6.706  0.2199  0.2721 -0.1752
   32CHL1    C4 2299   0.847   3.776   6.942 -0.0856  0.1186  0.4658
   32CHL1   H4A 2300   0.772   3.708   6.898  1.7829 -2.5585  1.1794
   32CHL1   H4B 2301   0.941   3.731   6.903 -0.1555 -0.7126  1.2375
   32CHL1    C5 2302   0.835   3.767   7.090 -0.3017 -0.5163 -0.4982
   32CHL1    C6 2303   0.930   3.703   7.163  0.7343  0.4549 -0.0224
   32CHL1    H6 2304   1.015   3.652   7.115  2.4832  1.9983  1.2477
   32CHL1    C7 2305   0.929   3.691   7.310 -0.2633 -0.5810  0.4120
   32CHL1   H7A 2306   0.952   3.593   7.357  1.1249 -0.9691 -0.9956
   32CHL1   H7B 2307   1.002   3.768   7.340 -1.0402  0.5023 -0.3952
   32CHL1    C8 2308   0.791   3.733   7.374  0.3277 -0.7991 -0.6481
   32CHL1    H8 2309   0.725   3.645   7.360 -0.3020 -0.9214  2.4667
   32CHL1   C14 2310   0.814   3.764   7.517 -0.3363  0.1295 -0.1964
   32CHL1   H14 2311   0.878   3.855   7.523 -1.6591  1.1724 -1.3426
   32CHL1   C15 2312   0.884   3.653   7.607  0.3021  0.2044  0.2494
   32CHL1  H15A 2313   0.848   3.548   7.591 -1.5865  0.9926 -1.1472
   32CHL1  H15B 2314   0.993   3.664   7.592  0.0776  0.9063 -1.0375
   32CHL1   C16 2315   0.841   3.689   7.746  0.7528 -0.0336 -0.1628
   32CHL1  H16A 2316   0.798   3.596   7.789 -0.3374 -0.3662 -1.8544
   32CHL1  H16B 2317   0.928   3.728   7.803 -1.7764  0.2057  3.8988
   32CHL1   C17 2318   0.744   3.819   7.734 -0.0464 -0.2061 -0.3151
   32CHL1   H17 2319   0.825   3.895   7.743  1.4807 -1.9774  1.9709
   32CHL1   C13 2320   0.685   3.809   7.588 -0.1681 -0.1039  0.6134
   32CHL1   C18 2321   0.564   3.708   7.596 -0.2745  0.7710 -0.3160
   32CHL1  H18A 2322   0.542   3.662   7.498  3.0955 -1.6185 -0.1115
   32CHL1  H18B 2323   0.580   3.626   7.669 -2.2061  0.1317 -0.5757
   32CHL1  H18C 2324   0.472   3.764   7.624 -1.7282 -0.4127 -2.4774
   32CHL1   C12 2325   0.626   3.938   7.518 -0.4492 -0.4905  0.4231
   32CHL1  H12A 2326   0.537   3.981   7.569  0.3022  3.6358 -1.3460
   32CHL1  H12B 2327   0.713   4.006   7.524  0.4800 -1.5695 -0.2973
   32CHL1   C11 2328   0.599   3.911   7.368  0.5479 -0.2264  0.1336
   32CHL1  H11A 2329   0.515   3.842   7.344 -1.0494  2.4250 -2.6668
   32CHL1  H11B 2330   0.573   4.007   7.317  0.7012 -0.4781 -0.4278
   32CHL1    C9 2331   0.734   3.858   7.305  0.3972 -0.7219  0.5847
   32CHL1    H9 2332   0.801   3.945   7.324 -1.6461  1.3055 -1.0715
   32CHL1   C10 2333   0.720   3.847   7.148 -0.0685  0.7121 -0.8542
   32CHL1   C19 2334   0.606   3.752   7.117 -0.0874 -0.4498 -0.8447
   32CHL1  H19A 2335   0.506   3.795   7.140 -0.1219 -1.6589  1.5702
   32CHL1  H19B 2336   0.591   3.731   7.009 -4.8761 -1.0164 -0.2923
   32CHL1  H19C 2337   0.617   3.654   7.168  1.0674  0.2918  0.4335
   32CHL1    C1 2338   0.702   3.983   7.081  0.4051 -0.5354  0.5614
   32CHL1   H1A 2339   0.609   4.034   7.115 -0.6619 -2.2629  0.3728
   32CHL1   H1B 2340   0.778   4.056   7.118  0.0322  0.6695 -0.9699
   32CHL1    C2 2341   0.706   3.989   6.926  0.1078  0.3702  0.4466
   32CHL1   H2A 2342   0.699   4.097   6.900  3.0430  0.4517 -0.3205
   32CHL1   H2B 2343   0.611   3.943   6.891  1.1260 -3.6587  2.3615
   32CHL1   C20 2344   0.647   3.821   7.856  0.2547  0.6517  0.7648
   32CHL1   H20 2345   0.563   3.749   7.842  0.3362  0.7704 -0.4448
   32CHL1   C21 2346   0.576   3.954   7.854  0.2665 -0.1175  0.2110
   32CHL1  H21A 2347   0.496   3.964   7.779 -0.5598  0.2647  1.1262
   32CHL1  H21B 2348   0.653   4.032   7.839  0.2481  0.0227  0.8016
   32CHL1  H21C 2349   0.532   3.983   7.952 -0.8593  0.3629 -0.4238
   32CHL1   C22 2350   0.729   3.810   7.989 -0.3321 -0.0392 -0.3865
   32CHL1  H22A 2351   0.775   3.710   8.003  2.7267  1.1406 -1.2280
   32CHL1  H22B 2352   0.808   3.888   7.985  0.3494 -0.3663  3.3091
   32CHL1   C23 2353   0.647   3.823   8.113  0.1026 -0.1174  0.6452
   32CHL1  H23A 2354   0.611   3.926   8.132 -0.3199 -0.3032  0.8607
   32CHL1  H23B 2355   0.557   3.761   8.092  0.1716  0.2447 -0.8686
   32CHL1   C24 2356   0.712   3.766   8.243  0.2731 -0.1084  0.0002
   32CHL1  H24A 2357   0.632   3.768   8.320 -0.0167  0.3249 -0.3070
   32CHL1  H24B 2358   0.738   3.658   8.235  1.6227  0.1752  0.4172
   32CHL1   C25 2359   0.834   3.848   8.296 -0.3354  0.2946  0.2871
   32CHL1   H25 2360   0.902   3.849   8.208 -0.2032  1.9176  0.3765
   32CHL1   C26 2361   0.806   3.988   8.338  1.2837 -0.0109 -0.4753
   32CHL1  H26A 2362   0.817   4.056   8.250  1.1845 -1.2490 -1.4741
   32CHL1  H26B 2363   0.701   3.994   8.375  0.0508  1.9392 -3.7760
   32CHL1  H26C 2364   0.869   4.019   8.424 -0.1430  4.0297 -0.6713
   32CHL1   C27 2365   0.902   3.761   8.409 -0.0969  0.0084  0.0329
   32CHL1  H27A 2366   0.942   3.664   8.372 -1.3233 -0.8371  0.8594
   32CHL1  H27B 2367   0.993   3.811   8.449 -0.0672 -0.0520  0.0395
   32CHL1  H27C 2368   0.831   3.751   8.494 -0.5031  0.9835 -0.1701
   33CHL1    C3 2369   0.196   0.340   6.792  0.6338  0.7376 -0.0688
   33CHL1    H3 2370   0.169   0.433   6.845 -1.7294 -1.1532  2.3286
   33CHL1    O3 2371   0.164   0.345   6.651  0.5001  0.4790 -0.0331
   33CHL1   H3' 2372   0.069   0.326   6.645  1.1302 -3.2690 -1.0804
   33CHL1    C4 2373   0.343   0.301   6.808 -0.8069  0.5340  0.2083
   33CHL1   H4A 2374   0.356   0.201   6.761  1.8880  0.3640  1.1068
   33CHL1   H4B 2375   0.414   0.362   6.749  2.3975 -2.3023  0.7843
   33CHL1    C5 2376   0.379   0.292   6.949 -0.4069 -0.0875  0.8452
   33CHL1    C6 2377   0.474   0.372   7.001  0.2746 -0.9421  0.8958
   33CHL1    H6 2378   0.516   0.455   6.943  1.8996 -0.4282  2.6961
   33CHL1    C7 2379   0.525   0.368   7.145 -0.0069 -0.0607 -0.4780
   33CHL1   H7A 2380   0.634   0.387   7.155  0.0143 -0.0706 -0.6840
   33CHL1   H7B 2381   0.469   0.451   7.193  1.6144 -0.0891  1.5824
   33CHL1    C8 2382   0.473   0.236   7.215 -0.3387 -0.1892 -0.1807
   33CHL1    H8 2383   0.527   0.145   7.183 -0.0546 -0.4083  0.8829
   33CHL1   C14 2384   0.481   0.256   7.367  0.1366 -0.1309 -0.1228
   33CHL1   H14 2385   0.403   0.331   7.392  0.7094  0.6354 -0.5968
   33CHL1   C15 2386   0.614   0.293   7.426  0.2713  0.0712 -0.4750
   33CHL1  H15A 2387   0.686   0.237   7.362 -0.5362 -1.0452 -0.4417
   33CHL1  H15B 2388   0.624   0.404   7.426 -0.4034  0.1981  1.9521
   33CHL1   C16 2389   0.611   0.248   7.567  0.3874  0.1766  0.2528
   33CHL1  H16A 2390   0.696   0.177   7.583  1.3137  1.1566 -0.1946
   33CHL1  H16B 2391   0.611   0.336   7.635 -0.2470 -1.6787  2.8170
   33CHL1   C17 2392   0.481   0.168   7.588  0.4207  0.5192  0.3297
   33CHL1   H17 2393   0.406   0.242   7.622  1.2610  1.2405  0.6531
   33CHL1   C13 2394   0.434   0.133   7.445  0.3499  0.5483 -0.7257
   33CHL1   C18 2395   0.501  -0.001   7.399 -0.2341 -0.0655 -0.3427
   33CHL1  H18A 2396   0.446  -0.087   7.443 -0.3155 -0.1284 -0.5637
   33CHL1  H18B 2397   0.511  -0.013   7.289  0.1999  0.4582 -0.3626
   33CHL1  H18C 2398   0.606  -0.009   7.437  0.0572 -2.9930 -1.4366
   33CHL1   C12 2399   0.289   0.115   7.416  0.0122 -0.7486 -0.3031
   33CHL1  H12A 2400   0.241   0.035   7.476  0.1419  0.1225  1.0214
   33CHL1  H12B 2401   0.234   0.203   7.456 -0.6603 -1.7374  1.0344
   33CHL1   C11 2402   0.254   0.101   7.266  0.2706  0.1061 -0.2592
   33CHL1  H11A 2403   0.295   0.002   7.234 -1.5093 -1.6468  2.4397
   33CHL1  H11B 2404   0.143   0.095   7.258  0.1332  0.3818  1.2561
   33CHL1    C9 2405   0.326   0.215   7.176 -0.1652 -0.3128 -0.4841
   33CHL1    H9 2406   0.269   0.308   7.200  0.2198  0.5523 -2.6996
   33CHL1   C10 2407   0.301   0.186   7.024  0.2494 -0.0528 -0.6673
   33CHL1   C19 2408   0.344   0.046   6.987 -0.4073 -0.3389  0.1188
   33CHL1  H19A 2409   0.453   0.028   6.998 -0.5334 -0.6310  0.9244
   33CHL1  H19B 2410   0.284  -0.037   7.029  0.6486 -1.2121 -0.0655
   33CHL1  H19C 2411   0.323   0.032   6.879 -0.5445 -0.8055  0.2050
   33CHL1    C1 2412   0.146   0.203   7.000 -0.2948  0.2014 -0.2547
   33CHL1   H1A 2413   0.078   0.126   7.042 -0.5016  0.6152  0.1898
   33CHL1   H1B 2414   0.106   0.295   7.048  0.2355 -0.2533  1.1205
   33CHL1    C2 2415   0.110   0.226   6.850  0.4225 -0.3827 -0.3765
   33CHL1   H2A 2416   0.000   0.241   6.841 -0.7098 -4.6978  2.8178
   33CHL1   H2B 2417   0.147   0.139   6.790 -1.4972 -0.9431 -0.8188
   33CHL1   C20 2418   0.477   0.066   7.704 -0.2898  0.3976 -0.0769
   33CHL1   H20 2419   0.546  -0.016   7.675 -0.6483  0.3702 -0.9031
   33CHL1   C21 2420   0.344  -0.005   7.715  0.0752 -0.3542  0.3417
   33CHL1  H21A 2421   0.333  -0.072   7.803  0.6702 -0.5470  0.2746
   33CHL1  H21B 2422   0.335  -0.071   7.627  0.1275 -1.9119  1.4540
   33CHL1  H21C 2423   0.254   0.061   7.711  0.7767  0.5838 -0.6813
   33CHL1   C22 2424   0.529   0.112   7.842  0.4403 -0.2200 -0.3526
   33CHL1  H22A 2425   0.538   0.023   7.907  0.8052  0.0914  0.0300
   33CHL1  H22B 2426   0.631   0.153   7.834 -0.6390  3.3673  1.9640
   33CHL1   C23 2427   0.446   0.232   7.900  0.4125  0.3052  0.3377
   33CHL1  H23A 2428   0.467   0.317   7.832 -0.5962 -2.4291 -3.7656
   33CHL1  H23B 2429   0.340   0.198   7.894  0.9369 -1.5278  0.5978
   33CHL1   C24 2430   0.495   0.231   8.039 -0.1748 -0.3648 -0.5094
   33CHL1  H24A 2431   0.486   0.128   8.079  0.0665 -0.4534 -0.6773
   33CHL1  H24B 2432   0.604   0.246   8.054 -0.5975  1.7952  0.8456
   33CHL1   C25 2433   0.422   0.333   8.141 -0.1927  0.2447 -0.7536
   33CHL1   H25 2434   0.423   0.439   8.109 -3.1309  0.2979 -0.8859
   33CHL1   C26 2435   0.273   0.312   8.159 -0.1230 -0.2760 -0.4643
   33CHL1  H26A 2436   0.216   0.342   8.068 -1.0329  0.4580  0.3243
   33CHL1  H26B 2437   0.237   0.215   8.199 -1.4132 -0.1738 -1.3072
   33CHL1  H26C 2438   0.241   0.392   8.229 -0.2275  0.4350 -1.3044
   33CHL1   C27 2439   0.483   0.326   8.278 -0.3284  0.0043  0.0128
   33CHL1  H27A 2440   0.483   0.228   8.331 -0.4974  0.7644  1.4741
   33CHL1  H27B 2441   0.589   0.354   8.260 -0.2041 -0.9178 -0.7699
   33CHL1  H27C 2442   0.445   0.407   8.345 -0.5971  0.9013 -1.1913
   34CHL1    C3 2443   2.946   1.994   7.154 -0.6452 -0.0949 -0.2456
   34CHL1    H3 2444   2.872   1.917   7.185 -1.8559  1.4972  0.9597
   34CHL1    O3 2445   2.924   2.000   7.016 -0.1287  0.1274  0.3674
   34CHL1   H3' 2446   2.887   2.087   7.000  1.0036  0.4551 -0.5610
   34CHL1    C4 2447   2.917   2.127   7.234 -0.3872 -0.1375 -0.0267
   34CHL1   H4A 2448   2.992   2.196   7.192  0.5877 -0.4832  1.0960
   34CHL1   H4B 2449   2.814   2.167   7.219 -0.7674 -0.8702  0.5378
   34CHL1    C5 2450   2.934   2.105   7.392  0.6636  0.5124  0.2555
   34CHL1    C6 2451   2.840   2.147   7.475 -0.1071 -0.3778  0.4916
   34CHL1    H6 2452   2.753   2.190   7.422 -0.1088 -2.0937 -0.9826
   34CHL1    C7 2453   2.839   2.136   7.618  0.2997  0.2166 -0.7659
   34CHL1   H7A 2454   2.795   2.225   7.667  0.5440  0.2506 -0.6050
   34CHL1   H7B 2455   2.770   2.056   7.652 -0.3528  1.0447 -0.0985
   34CHL1    C8 2456   2.976   2.099   7.681  0.3201 -0.3123  0.1737
   34CHL1    H8 2457   3.040   2.189   7.668 -1.8718  1.2772 -0.3313
   34CHL1   C14 2458   2.955   2.040   7.816 -0.2619 -0.4402  0.5060
   34CHL1   H14 2459   2.900   1.944   7.808  2.1669 -2.0060  1.2630
   34CHL1   C15 2460   2.865   2.103   7.919 -0.4883 -1.0540 -0.0191
   34CHL1  H15A 2461   2.887   2.212   7.921  2.0514 -1.5061  0.7858
   34CHL1  H15B 2462   2.757   2.088   7.898 -0.6692 -0.5329  0.5236
   34CHL1   C16 2463   2.906   2.036   8.054  0.1849 -0.4664 -0.6260
   34CHL1  H16A 2464   2.933   2.118   8.122 -0.6084 -1.3471  0.7956
   34CHL1  H16B 2465   2.822   1.986   8.107 -0.7303  0.5689 -1.0660
   34CHL1   C17 2466   3.030   1.949   8.024 -0.1520 -0.0542 -0.2377
   34CHL1   H17 2467   2.994   1.848   7.992  1.1938 -0.5862 -0.1482
   34CHL1   C13 2468   3.088   1.999   7.888  0.3405  0.0524 -0.2985
   34CHL1   C18 2469   3.180   2.118   7.918 -0.8577 -0.6001  0.4694
   34CHL1  H18A 2470   3.123   2.201   7.963 -1.9932 -0.6067 -0.8968
   34CHL1  H18B 2471   3.256   2.085   7.993 -0.3572  0.2025  0.3279
   34CHL1  H18C 2472   3.232   2.155   7.827 -1.1086  2.3402  1.4172
   34CHL1   C12 2473   3.160   1.898   7.805  1.0490 -0.5891  0.2654
   34CHL1  H12A 2474   3.264   1.888   7.841  1.5790  2.8200 -0.0161
   34CHL1  H12B 2475   3.099   1.805   7.809  0.4798 -0.2045  0.7990
   34CHL1   C11 2476   3.173   1.936   7.655  0.6467  0.0106 -0.3003
   34CHL1  H11A 2477   3.252   2.014   7.660  0.0247  0.6249  0.1740
   34CHL1  H11B 2478   3.208   1.848   7.597 -0.5074  0.1557 -1.2620
   34CHL1    C9 2479   3.044   1.994   7.591  0.5873 -0.3249  0.3433
   34CHL1    H9 2480   2.972   1.909   7.588 -0.0371  0.1033  2.1571
   34CHL1   C10 2481   3.061   2.038   7.443  0.2405 -0.3604  0.4403
   34CHL1   C19 2482   3.177   2.149   7.422  0.7385 -0.1951  0.1731
   34CHL1  H19A 2483   3.192   2.173   7.315  0.6974  1.1556  0.4578
   34CHL1  H19B 2484   3.155   2.244   7.475  1.5277  0.2330 -0.2582
   34CHL1  H19C 2485   3.273   2.105   7.458 -0.0885 -0.2689  2.4783
   34CHL1    C1 2486   3.090   1.916   7.349  0.2605  0.3017  0.1240
   34CHL1   H1A 2487   3.184   1.869   7.386  0.5796  1.1048  0.3695
   34CHL1   H1B 2488   3.008   1.845   7.371 -0.5321  1.4027  0.8295
   34CHL1    C2 2489   3.078   1.931   7.193 -0.2978 -0.1690  1.0464
   34CHL1   H2A 2490   3.084   1.831   7.147 -0.2853 -0.1290  0.9621
   34CHL1   H2B 2491   3.161   1.992   7.150 -1.0864 -1.2839 -2.3272
   34CHL1   C20 2492   3.117   1.926   8.147  0.4258 -0.1511 -0.4757
   34CHL1   H20 2493   3.185   2.012   8.162 -0.9669  0.7113  1.3512
   34CHL1   C21 2494   3.194   1.793   8.120  0.2600 -0.0443 -0.3765
   34CHL1  H21A 2495   3.130   1.704   8.104  2.4825 -2.0467  1.1398
   34CHL1  H21B 2496   3.268   1.766   8.199  3.3228  0.6779 -2.7636
   34CHL1  H21C 2497   3.248   1.805   8.023 -0.5625 -1.2963 -1.0155
   34CHL1   C22 2498   3.037   1.916   8.283 -0.1606 -0.0667 -0.0445
   34CHL1  H22A 2499   2.955   1.990   8.295  0.0261  0.0362  0.6897
   34CHL1  H22B 2500   2.999   1.813   8.271  1.0896 -0.4191 -1.2879
   34CHL1   C23 2501   3.130   1.911   8.410  0.3315 -0.0923  0.1465
   34CHL1  H23A 2502   3.226   1.870   8.376  0.1937 -0.5618  0.3211
   34CHL1  H23B 2503   3.149   2.016   8.442  0.8034  0.1598 -0.9203
   34CHL1   C24 2504   3.081   1.824   8.527 -0.1089  0.1852  0.2016
   34CHL1  H24A 2505   2.978   1.862   8.546  0.1134  0.1670  1.4872
   34CHL1  H24B 2506   3.057   1.718   8.504 -0.9192  0.4066 -0.0179
   34CHL1   C25 2507   3.157   1.833   8.663  0.0849  0.3174 -0.3801
   34CHL1   H25 2508   3.146   1.939   8.694 -0.1387  0.6289 -1.4884
   34CHL1   C26 2509   3.090   1.746   8.772  0.3165  1.1213 -0.2323
   34CHL1  H26A 2510   2.986   1.783   8.778  0.1569  1.0677 -2.1391
   34CHL1  H26B 2511   3.077   1.642   8.737 -1.3711  1.1791  0.1481
   34CHL1  H26C 2512   3.139   1.731   8.870  1.5863  1.1889 -0.8268
   34CHL1   C27 2513   3.306   1.793   8.646 -0.2825  0.7713 -0.6533
   34CHL1  H27A 2514   3.354   1.787   8.746 -0.2244  1.6338 -0.6216
   34CHL1  H27B 2515   3.339   1.696   8.603 -1.0232  1.0883 -2.0116
   34CHL1  H27C 2516   3.367   1.870   8.595  2.7056 -0.5254  0.7212
   35CHL1    C3 2517   6.720   4.525   6.953 -0.0443 -0.1596  0.7980
   35CHL1    H3 2518   6.781   4.436   6.981 -3.0508 -2.3150  0.9898
   35CHL1    O3 2519   6.738   4.559   6.816  0.0441  0.6748  0.3894
   35CHL1   H3' 2520   6.711   4.651   6.807 -1.3072  0.3901  1.2923
   35CHL1    C4 2521   6.571   4.486   6.981  0.1079 -1.0522  0.8901
   35CHL1   H4A 2522   6.509   4.575   6.958  0.7139 -1.2179 -1.6629
   35CHL1   H4B 2523   6.541   4.412   6.903  0.7002 -2.7121  2.1614
   35CHL1    C5 2524   6.553   4.448   7.130  0.0763  0.2408  0.3104
   35CHL1    C6 2525   6.519   4.327   7.162 -0.0195  0.8211 -0.1398
   35CHL1    H6 2526   6.483   4.255   7.087 -1.0680  0.7924  0.3730
   35CHL1    C7 2527   6.531   4.268   7.307 -0.3253 -0.1840  0.4868
   35CHL1   H7A 2528   6.436   4.214   7.331 -1.2478  0.4970 -1.4086
   35CHL1   H7B 2529   6.609   4.189   7.312  1.7966  1.8483  1.4289
   35CHL1    C8 2530   6.542   4.384   7.415  0.4340  1.1633  0.1191
   35CHL1    H8 2531   6.448   4.442   7.422 -0.2704  0.2398 -1.2153
   35CHL1   C14 2532   6.574   4.337   7.552 -0.4438  0.3820 -0.4451
   35CHL1   H14 2533   6.669   4.282   7.536 -1.4471 -2.0157  1.2106
   35CHL1   C15 2534   6.483   4.227   7.620 -0.0405 -0.0431 -0.0106
   35CHL1  H15A 2535   6.377   4.250   7.597 -0.5806 -2.3205 -0.0441
   35CHL1  H15B 2536   6.499   4.126   7.577  1.0365  0.4199 -0.7636
   35CHL1   C16 2537   6.518   4.247   7.769  0.1253  0.9214  0.0873
   35CHL1  H16A 2538   6.433   4.288   7.828  1.5934  0.9717  2.2774
   35CHL1  H16B 2539   6.536   4.144   7.805  1.5408  0.8501 -0.7564
   35CHL1   C17 2540   6.635   4.343   7.776 -0.1025  0.3234 -0.0919
   35CHL1   H17 2541   6.722   4.278   7.750 -0.2146 -0.0820  0.5116
   35CHL1   C13 2542   6.620   4.444   7.656  0.5557 -0.1468  0.2119
   35CHL1   C18 2543   6.496   4.540   7.683 -0.2858  0.0818  0.1972
   35CHL1  H18A 2544   6.529   4.637   7.725 -0.8040 -0.0683  0.9796
   35CHL1  H18B 2545   6.459   4.554   7.580 -1.6198 -0.5781  0.5603
   35CHL1  H18C 2546   6.414   4.493   7.742 -1.1127  0.0223 -0.9764
   35CHL1   C12 2547   6.737   4.521   7.615  0.4919 -0.3184  0.2269
   35CHL1  H12A 2548   6.762   4.604   7.685 -0.3587  0.5030 -0.4022
   35CHL1  H12B 2549   6.828   4.461   7.596  0.1608 -1.1624  1.2333
   35CHL1   C11 2550   6.699   4.588   7.477 -0.2770  0.5224  0.0066
   35CHL1  H11A 2551   6.623   4.668   7.490 -0.1480  0.4327  1.5085
   35CHL1  H11B 2552   6.794   4.632   7.439 -0.9141 -0.4883 -3.0578
   35CHL1    C9 2553   6.648   4.486   7.373 -0.4663  0.2775 -0.0928
   35CHL1    H9 2554   6.736   4.421   7.353 -0.8191  0.2463 -1.6430
   35CHL1   C10 2555   6.625   4.543   7.230  0.6020 -0.8916  0.1915
   35CHL1   C19 2556   6.527   4.663   7.247  0.8702 -0.3300  0.0430
   35CHL1  H19A 2557   6.435   4.617   7.288  0.5567  0.5946  0.4084
   35CHL1  H19B 2558   6.554   4.738   7.325 -0.6417  0.4226 -0.1223
   35CHL1  H19C 2559   6.487   4.705   7.152  0.6517  2.1759  1.1602
   35CHL1    C1 2560   6.765   4.605   7.177  0.1167  0.6333  0.2227
   35CHL1   H1A 2561   6.785   4.696   7.237  0.2551  1.5696 -1.1866
   35CHL1   H1B 2562   6.845   4.529   7.189  0.3617  0.8457 -0.0596
   35CHL1    C2 2563   6.763   4.644   7.036 -0.1548  0.2297  0.6097
   35CHL1   H2A 2564   6.869   4.670   7.018 -0.0688 -0.7100 -0.4020
   35CHL1   H2B 2565   6.699   4.733   7.018  1.9123  2.4969  3.5297
   35CHL1   C20 2566   6.657   4.404   7.916  0.3286 -0.4659  0.4007
   35CHL1   H20 2567   6.611   4.505   7.920 -0.8062 -1.0007  2.3705
   35CHL1   C21 2568   6.813   4.412   7.937  0.1487  0.0944 -0.3073
   35CHL1  H21A 2569   6.839   4.307   7.961 -1.6555 -0.6270 -1.2737
   35CHL1  H21B 2570   6.839   4.479   8.022 -0.6761  1.0164 -0.7643
   35CHL1  H21C 2571   6.860   4.435   7.839 -2.3163  0.8954 -1.3864
   35CHL1   C22 2572   6.588   4.341   8.044 -0.3520 -0.3613  0.0759
   35CHL1  H22A 2573   6.480   4.345   8.020 -0.5589  0.7459  1.0964
   35CHL1  H22B 2574   6.608   4.233   8.054 -1.8262 -0.6139  0.4299
   35CHL1   C23 2575   6.623   4.404   8.179  0.1151  0.4271 -0.7072
   35CHL1  H23A 2576   6.731   4.385   8.196 -0.4104 -1.7504  0.6690
   35CHL1  H23B 2577   6.609   4.513   8.167  0.8606  0.7342  1.0284
   35CHL1   C24 2578   6.535   4.353   8.299  0.6690  0.0538  0.0396
   35CHL1  H24A 2579   6.428   4.377   8.277  0.5729  0.7413  1.2029
   35CHL1  H24B 2580   6.551   4.244   8.313  1.3525  0.2174  0.5446
   35CHL1   C25 2581   6.575   4.421   8.431 -0.6655 -0.1209 -1.1400
   35CHL1   H25 2582   6.685   4.408   8.443 -0.4028  2.6186  0.2074
   35CHL1   C26 2583   6.548   4.572   8.425  0.2784  0.2088  0.1243
   35CHL1  H26A 2584   6.581   4.639   8.342 -2.2674  1.0012 -0.3327
   35CHL1  H26B 2585   6.438   4.579   8.413  0.0510 -2.6629 -0.1456
   35CHL1  H26C 2586   6.574   4.622   8.521 -0.3621 -0.2298  0.5377
   35CHL1   C27 2587   6.497   4.345   8.547 -0.1974 -0.4068 -0.1232
   35CHL1  H27A 2588   6.504   4.236   8.525  2.1037 -0.2757 -0.2875
   35CHL1  H27B 2589   6.390   4.376   8.545  0.6629  3.0321  0.6296
   35CHL1  H27C 2590   6.538   4.372   8.646  2.9444 -1.0742 -1.1347
   36CHL1    C3 2591   0.804   1.910   6.897  0.5115  0.6953 -0.0823
   36CHL1    H3 2592   0.713   1.961   6.936  1.0435  1.8228 -0.2969
   36CHL1    O3 2593   0.796   1.909   6.755  0.4201  0.1577 -0.1199
   36CHL1   H3' 2594   0.858   1.837   6.740  0.4903 -0.1917  1.6247
   36CHL1    C4 2595   0.933   1.994   6.925  0.2789  0.3008  0.7721
   36CHL1   H4A 2596   1.017   1.933   6.885 -1.5443 -1.7632 -0.1119
   36CHL1   H4B 2597   0.931   2.091   6.872  1.7339 -0.0442  0.0346
   36CHL1    C5 2598   0.952   2.002   7.077  0.5453 -0.1422  0.1812
   36CHL1    C6 2599   0.945   2.121   7.141 -0.2138 -0.3626 -0.4347
   36CHL1    H6 2600   0.945   2.214   7.082 -0.5047 -0.3837 -0.4714
   36CHL1    C7 2601   0.973   2.128   7.285  0.2030 -0.5875  0.1045
   36CHL1   H7A 2602   1.034   2.218   7.305 -2.3108  1.1260  0.5282
   36CHL1   H7B 2603   0.882   2.144   7.347 -1.1218  0.5003 -2.0141
   36CHL1    C8 2604   1.030   2.000   7.349 -0.5042  0.3963  0.6527
   36CHL1    H8 2605   1.134   2.003   7.311 -1.4159  1.0259 -2.0179
   36CHL1   C14 2606   1.023   2.004   7.499 -0.6655 -0.2433  0.4591
   36CHL1   H14 2607   0.915   2.020   7.520 -1.2308 -0.9099 -1.7066
   36CHL1   C15 2608   1.082   2.127   7.571  0.4577  0.8456  0.5110
   36CHL1  H15A 2609   1.191   2.134   7.548  0.8666  2.1904  2.6097
   36CHL1  H15B 2610   1.025   2.220   7.549 -0.6215 -0.2082 -1.4395
   36CHL1   C16 2611   1.073   2.089   7.720 -0.2459 -0.4903 -0.5089
   36CHL1  H16A 2612   1.171   2.114   7.766  0.2302  0.4538 -1.9759
   36CHL1  H16B 2613   0.993   2.139   7.777  0.0371 -1.1582  0.4979
   36CHL1   C17 2614   1.041   1.938   7.729  0.0744  0.0160  0.5940
   36CHL1   H17 2615   0.931   1.935   7.742 -0.0712  1.0834 -0.2747
   36CHL1   C13 2616   1.056   1.878   7.580 -0.0924  0.8481  0.2450
   36CHL1   C18 2617   1.202   1.841   7.563  0.0142 -0.7082 -0.0672
   36CHL1  H18A 2618   1.222   1.745   7.614 -0.6056  0.5426  2.7055
   36CHL1  H18B 2619   1.234   1.856   7.457 -0.1861  5.5478  0.3493
   36CHL1  H18C 2620   1.269   1.912   7.616  3.3277 -4.7275  1.7225
   36CHL1   C12 2621   0.960   1.772   7.532 -0.0031 -0.4451  0.0063
   36CHL1  H12A 2622   0.977   1.679   7.591 -0.3494  0.1059  0.9951
   36CHL1  H12B 2623   0.852   1.799   7.531  0.2435  0.6412  0.6608
   36CHL1   C11 2624   0.983   1.741   7.380 -0.5222 -0.0965  0.0765
   36CHL1  H11A 2625   1.082   1.695   7.357 -0.8303 -0.7373  0.0120
   36CHL1  H11B 2626   0.915   1.660   7.346  0.1710 -0.4654 -0.4468
   36CHL1    C9 2627   0.954   1.872   7.300  0.3900  0.0991 -0.1172
   36CHL1    H9 2628   0.848   1.900   7.323  0.0927 -1.6055  0.7335
   36CHL1   C10 2629   0.965   1.867   7.151 -0.2271 -0.0542  0.5987
   36CHL1   C19 2630   1.097   1.793   7.116  0.5319 -0.1241 -0.3635
   36CHL1  H19A 2631   1.126   1.807   7.009 -0.2999 -0.2421 -0.6135
   36CHL1  H19B 2632   1.178   1.847   7.169 -0.4169 -0.2791  1.2961
   36CHL1  H19C 2633   1.078   1.687   7.146 -1.1157 -0.5251 -2.5269
   36CHL1    C1 2634   0.843   1.775   7.103  0.5616  0.5876  0.3265
   36CHL1   H1A 2635   0.856   1.668   7.132 -0.6232  0.3545  0.0625
   36CHL1   H1B 2636   0.754   1.813   7.158  0.8030 -0.4442  1.4703
   36CHL1    C2 2637   0.827   1.766   6.949  0.5356 -0.0130 -0.4297
   36CHL1   H2A 2638   0.732   1.712   6.927 -0.1806  0.2495  1.7305
   36CHL1   H2B 2639   0.910   1.708   6.905  1.2293 -0.6133  1.5910
   36CHL1   C20 2640   1.106   1.858   7.843 -0.7866  0.2466 -0.4458
   36CHL1   H20 2641   1.210   1.847   7.804 -0.3750  0.3027  0.5986
   36CHL1   C21 2642   1.035   1.717   7.855  0.3375 -0.3398  0.1549
   36CHL1  H21A 2643   1.090   1.643   7.793 -0.6860  0.5029 -1.8328
   36CHL1  H21B 2644   0.929   1.727   7.824  1.0613 -0.7234 -2.7288
   36CHL1  H21C 2645   1.043   1.677   7.959  0.1602 -0.6567  0.0491
   36CHL1   C22 2646   1.103   1.937   7.978 -0.7925  0.0963  0.4083
   36CHL1  H22A 2647   1.146   2.037   7.956 -0.6669  0.2154  1.1410
   36CHL1  H22B 2648   0.999   1.962   8.008 -1.3415  0.5029 -1.6996
   36CHL1   C23 2649   1.181   1.886   8.094  0.1829  0.3396  0.0741
   36CHL1  H23A 2650   1.153   1.783   8.125  1.8465  0.2739  1.5033
   36CHL1  H23B 2651   1.282   1.854   8.062  0.3639  1.1832 -0.2273
   36CHL1   C24 2652   1.194   1.977   8.222 -0.3214 -0.5472 -0.0531
   36CHL1  H24A 2653   1.229   2.071   8.173  0.1250 -1.1735 -0.9640
   36CHL1  H24B 2654   1.091   1.995   8.261 -0.8394 -0.4093 -1.4151
   36CHL1   C25 2655   1.293   1.929   8.338  0.5139 -1.4326 -0.1954
   36CHL1   H25 2656   1.394   1.952   8.298  0.3441  1.5203  0.8491
   36CHL1   C26 2657   1.281   2.038   8.447 -0.1943  0.0089 -0.1915
   36CHL1  H26A 2658   1.349   2.019   8.532  0.4978 -1.1267 -0.9631
   36CHL1  H26B 2659   1.305   2.137   8.402 -2.6991 -0.0035 -1.7105
   36CHL1  H26C 2660   1.178   2.055   8.484  0.8533  1.0809  2.4527
   36CHL1   C27 2661   1.261   1.790   8.394 -0.3655 -0.2739 -0.4879
   36CHL1  H27A 2662   1.161   1.790   8.443 -1.0655 -2.6523 -1.7946
   36CHL1  H27B 2663   1.261   1.717   8.311  1.6244 -0.3928 -0.4276
   36CHL1  H27C 2664   1.335   1.763   8.472 -1.2010 -2.2864 -0.3385
   37CHL1    C3 2665   1.610   4.640   7.022  0.3807 -0.5204 -0.0531
   37CHL1    H3 2666   1.637   4.533   7.015  1.0471 -0.3633  0.0724
   37CHL1    O3 2667   1.607   4.708   6.893 -0.1387 -0.1311 -0.2980
   37CHL1   H3' 2668   1.516   4.721   6.868  0.5154  2.1161 -1.8609
   37CHL1    C4 2669   1.460   4.643   7.077 -0.0273  0.5062 -0.1051
   37CHL1   H4A 2670   1.409   4.741   7.064  0.0863  0.6220  0.2919
   37CHL1   H4B 2671   1.401   4.581   7.006 -1.9471 -1.4801  2.9609
   37CHL1    C5 2672   1.456   4.586   7.218  0.2966  0.1855 -0.0636
   37CHL1    C6 2673   1.367   4.485   7.252 -0.7659  0.2095  0.5840
   37CHL1    H6 2674   1.294   4.447   7.179 -0.5522 -3.0253  1.8799
   37CHL1    C7 2675   1.355   4.441   7.397 -0.4717 -0.2322  0.0461
   37CHL1   H7A 2676   1.249   4.446   7.430  0.2618  0.1222  2.5646
   37CHL1   H7B 2677   1.383   4.334   7.412  0.9264  0.0406 -0.5522
   37CHL1    C8 2678   1.428   4.534   7.498  0.6921  0.0005 -0.5615
   37CHL1    H8 2679   1.370   4.629   7.507 -0.5405 -0.8194  0.3668
   37CHL1   C14 2680   1.446   4.466   7.635 -1.4865  0.4272  0.3639
   37CHL1   H14 2681   1.524   4.390   7.611 -1.1165  1.0553 -0.4631
   37CHL1   C15 2682   1.334   4.391   7.704  1.0622 -0.4754 -0.2570
   37CHL1  H15A 2683   1.243   4.453   7.687  0.3326 -0.6516  2.6113
   37CHL1  H15B 2684   1.325   4.290   7.660  0.4866 -1.6121  2.3014
   37CHL1   C16 2685   1.370   4.393   7.855 -0.0979 -0.4620  0.4391
   37CHL1  H16A 2686   1.297   4.450   7.916 -0.3634 -1.3282  0.9400
   37CHL1  H16B 2687   1.376   4.291   7.897  1.2746 -0.6823 -0.2067
   37CHL1   C17 2688   1.506   4.461   7.867  0.0262  0.2710  0.6982
   37CHL1   H17 2689   1.586   4.386   7.848 -0.8747 -0.5051 -0.0897
   37CHL1   C13 2690   1.517   4.550   7.743  0.3950  0.2149  0.1439
   37CHL1   C18 2691   1.440   4.682   7.774 -0.4398 -0.4295 -0.6156
   37CHL1  H18A 2692   1.340   4.647   7.807 -1.1884 -0.3148 -2.6211
   37CHL1  H18B 2693   1.484   4.747   7.852  1.4542 -0.5427 -1.5081
   37CHL1  H18C 2694   1.425   4.745   7.684  0.1182 -1.8442 -1.7498
   37CHL1   C12 2695   1.656   4.588   7.691  1.2298 -0.2603  0.3201
   37CHL1  H12A 2696   1.707   4.666   7.752 -0.1313  1.9220 -1.1957
   37CHL1  H12B 2697   1.718   4.496   7.684 -2.2756 -2.7631 -0.6250
   37CHL1   C11 2698   1.646   4.652   7.555 -0.1505 -0.6115 -0.3567
   37CHL1  H11A 2699   1.619   4.759   7.570  0.3150 -0.7575  2.0270
   37CHL1  H11B 2700   1.752   4.664   7.525 -0.7565  2.9235 -1.5181
   37CHL1    C9 2701   1.568   4.580   7.446  0.3925 -0.7627 -0.6267
   37CHL1    H9 2702   1.631   4.490   7.428  0.2799 -1.1002  0.5637
   37CHL1   C10 2703   1.562   4.652   7.310 -0.1643 -0.4570 -0.5590
   37CHL1   C19 2704   1.523   4.797   7.341  0.3654 -0.5852  0.7204
   37CHL1  H19A 2705   1.453   4.801   7.427  0.2269  1.5587  0.5694
   37CHL1  H19B 2706   1.619   4.848   7.362  1.1226 -2.6688  2.7139
   37CHL1  H19C 2707   1.463   4.846   7.261 -1.0414 -1.7594  0.9987
   37CHL1    C1 2708   1.701   4.650   7.242  0.1528  0.4793  0.1685
   37CHL1   H1A 2709   1.777   4.696   7.308 -0.0679  0.0099  0.7574
   37CHL1   H1B 2710   1.728   4.543   7.236  2.0168  0.7078  2.9681
   37CHL1    C2 2711   1.714   4.709   7.106  0.5729 -0.0345  0.3062
   37CHL1   H2A 2712   1.816   4.697   7.065 -0.0606 -0.2820 -1.2632
   37CHL1   H2B 2713   1.685   4.817   7.104 -1.3320 -0.5061  0.2960
   37CHL1   C20 2714   1.527   4.527   8.008 -0.0032  0.3520  0.4926
   37CHL1   H20 2715   1.462   4.614   8.031  1.3507  1.3524  0.6364
   37CHL1   C21 2716   1.672   4.579   8.018  0.5095  0.0972  0.2224
   37CHL1  H21A 2717   1.707   4.608   8.119  0.1603  1.9247 -0.1613
   37CHL1  H21B 2718   1.690   4.662   7.947  0.2526  2.3973  2.6788
   37CHL1  H21C 2719   1.751   4.509   7.982  1.3959  0.4754  1.3739
   37CHL1   C22 2720   1.492   4.426   8.128 -0.2192 -0.1076  0.1105
   37CHL1  H22A 2721   1.393   4.382   8.100 -0.8406  0.5040  1.2817
   37CHL1  H22B 2722   1.566   4.343   8.117 -0.2342 -0.2047  0.7258
   37CHL1   C23 2723   1.503   4.483   8.274 -0.2798 -0.1401  0.4513
   37CHL1  H23A 2724   1.607   4.520   8.285 -0.5256  0.6734  0.0656
   37CHL1  H23B 2725   1.436   4.571   8.281 -0.5051 -0.2834  0.1239
   37CHL1   C24 2726   1.473   4.377   8.389 -0.2917  0.0978  0.5753
   37CHL1  H24A 2727   1.374   4.333   8.367 -1.2107  2.1220  0.4704
   37CHL1  H24B 2728   1.554   4.301   8.392 -0.3492 -0.1211 -1.5458
   37CHL1   C25 2729   1.453   4.427   8.527 -0.2460  0.2601  0.1898
   37CHL1   H25 2730   1.366   4.496   8.526 -0.5467 -0.0305 -2.7336
   37CHL1   C26 2731   1.436   4.311   8.630 -0.5772  0.0412  0.3824
   37CHL1  H26A 2732   1.346   4.250   8.610 -1.7721  2.1036 -0.8191
   37CHL1  H26B 2733   1.528   4.249   8.639  0.8548  2.1235  0.7662
   37CHL1  H26C 2734   1.421   4.360   8.729  0.0366  0.8392  0.0900
   37CHL1   C27 2735   1.569   4.518   8.571 -0.5782 -0.1509  0.0016
   37CHL1  H27A 2736   1.558   4.562   8.672  1.0720 -1.1747  0.6727
   37CHL1  H27B 2737   1.657   4.452   8.584 -1.9575 -2.1319 -0.1482
   37CHL1  H27C 2738   1.598   4.595   8.496  0.8033 -0.2938  0.3813
   38CHL1    C3 2739   4.046   5.891   6.979  0.1466  0.0650  0.0697
   38CHL1    H3 2740   4.092   5.992   6.979  0.6248 -0.0361 -3.3021
   38CHL1    O3 2741   4.049   5.850   6.841 -0.5292 -0.3238 -0.2686
   38CHL1   H3' 2742   4.138   5.815   6.836 -0.3861 -0.1924  1.0560
   38CHL1    C4 2743   4.125   5.789   7.063  0.5171 -0.3162 -0.1709
   38CHL1   H4A 2744   4.082   5.690   7.040  0.6489 -1.5720  4.0222
   38CHL1   H4B 2745   4.225   5.781   7.015  0.4621  3.0438 -1.0922
   38CHL1    C5 2746   4.115   5.812   7.211 -0.4929 -0.0048 -0.3413
   38CHL1    C6 2747   4.225   5.825   7.290 -0.8034  0.6072 -0.3301
   38CHL1    H6 2748   4.328   5.810   7.255 -0.3756 -0.2187  1.1987
   38CHL1    C7 2749   4.222   5.834   7.438 -0.0256 -0.3565  0.1502
   38CHL1   H7A 2750   4.300   5.769   7.483  0.1152 -0.2992 -0.0103
   38CHL1   H7B 2751   4.259   5.934   7.470 -0.9598  0.0835 -0.1309
   38CHL1    C8 2752   4.086   5.805   7.490  0.1458  0.0943  0.3609
   38CHL1    H8 2753   4.078   5.694   7.484  1.4514 -0.1077  1.8289
   38CHL1   C14 2754   4.078   5.856   7.637 -0.0771 -0.4571 -0.4789
   38CHL1   H14 2755   4.074   5.966   7.627 -1.6069 -0.4064  0.3698
   38CHL1   C15 2756   4.191   5.815   7.735 -0.3866  0.5614 -0.7386
   38CHL1  H15A 2757   4.185   5.704   7.729 -2.6030  0.6307 -0.4029
   38CHL1  H15B 2758   4.297   5.846   7.722  0.9246 -1.6899  2.8800
   38CHL1   C16 2759   4.142   5.861   7.875 -0.2173  0.4474  1.0352
   38CHL1  H16A 2760   4.159   5.786   7.955  0.7242 -0.8532 -0.3282
   38CHL1  H16B 2761   4.197   5.957   7.890  1.8710 -0.7251  1.3560
   38CHL1   C17 2762   3.989   5.887   7.860  0.0340  0.0449 -0.4403
   38CHL1   H17 2763   3.980   5.997   7.844  1.5015  0.3357  0.6177
   38CHL1   C13 2764   3.950   5.829   7.717 -0.7317 -0.3501  0.5878
   38CHL1   C18 2765   3.927   5.678   7.726  0.0112  0.4706 -0.0740
   38CHL1  H18A 2766   3.918   5.623   7.630  0.4663 -1.9857  1.2093
   38CHL1  H18B 2767   4.006   5.640   7.794 -0.5766  1.5540  1.2770
   38CHL1  H18C 2768   3.826   5.673   7.773 -0.8406  2.8267 -1.4663
   38CHL1   C12 2769   3.831   5.893   7.633  0.8213  0.6943  0.5497
   38CHL1  H12A 2770   3.738   5.856   7.681  0.1181  0.0537 -1.2535
   38CHL1  H12B 2771   3.829   6.004   7.630 -1.1153  0.6730 -0.6398
   38CHL1   C11 2772   3.836   5.843   7.485 -0.1078  0.9065  0.2330
   38CHL1  H11A 2773   3.823   5.733   7.488  1.4283  0.4695 -3.3690
   38CHL1  H11B 2774   3.751   5.885   7.428 -0.3687  1.9851  1.3557
   38CHL1    C9 2775   3.970   5.871   7.411  0.2184 -0.3143 -0.7725
   38CHL1    H9 2776   3.988   5.980   7.419  0.1864 -0.2942 -0.9661
   38CHL1   C10 2777   3.969   5.822   7.263  0.1978  0.4663 -0.5733
   38CHL1   C19 2778   3.883   5.695   7.245  0.2223 -0.0167 -0.2981
   38CHL1  H19A 2779   3.901   5.663   7.140  0.7664  3.0073 -1.2186
   38CHL1  H19B 2780   3.918   5.613   7.312  4.6091  0.6968 -1.4022
   38CHL1  H19C 2781   3.775   5.721   7.250 -0.0274 -1.2329  1.8217
   38CHL1    C1 2782   3.902   5.932   7.182 -0.0608 -0.6425  0.3053
   38CHL1   H1A 2783   3.799   5.949   7.217  0.2287  1.6955  0.1672
   38CHL1   H1B 2784   3.960   6.027   7.194 -1.0973  0.1833 -1.0370
   38CHL1    C2 2785   3.903   5.901   7.030  0.1323  0.5352 -0.0619
   38CHL1   H2A 2786   3.848   5.974   6.967 -0.7845 -1.6495 -1.9154
   38CHL1   H2B 2787   3.847   5.808   7.009  1.9698 -0.6786  0.1907
   38CHL1   C20 2788   3.907   5.848   7.980  0.5243  0.5221  0.1141
   38CHL1   H20 2789   3.912   5.737   7.982  2.5730  0.5298 -1.2605
   38CHL1   C21 2790   3.755   5.883   7.961  0.6764  0.7321 -0.2827
   38CHL1  H21A 2791   3.748   5.989   7.928  0.8351  0.7411 -0.2857
   38CHL1  H21B 2792   3.717   5.870   8.065  0.7615  2.8597  0.0579
   38CHL1  H21C 2793   3.704   5.827   7.880  2.4478 -0.9232 -0.3165
   38CHL1   C22 2794   3.948   5.909   8.122 -0.4743 -0.0976 -0.6334
   38CHL1  H22A 2795   3.872   5.883   8.199  0.8451  1.2447  1.2137
   38CHL1  H22B 2796   4.046   5.867   8.153 -0.7183 -1.0238 -1.0777
   38CHL1   C23 2797   3.962   6.062   8.146  0.7288 -0.2621  0.6838
   38CHL1  H23A 2798   4.037   6.100   8.074 -1.3126  1.1205 -0.8353
   38CHL1  H23B 2799   3.866   6.105   8.111  0.2673 -1.5598  0.3221
   38CHL1   C24 2800   3.986   6.110   8.281  0.1914 -0.1649 -0.9845
   38CHL1  H24A 2801   4.054   6.038   8.332  0.6549  0.6491 -0.4155
   38CHL1  H24B 2802   4.033   6.211   8.284 -1.2095  0.5095  1.2761
   38CHL1   C25 2803   3.857   6.121   8.359  0.7830 -0.1755  0.7783
   38CHL1   H25 2804   3.787   6.038   8.334 -2.9442  3.0805 -0.7301
   38CHL1   C26 2805   3.900   6.123   8.505 -0.3865  0.3590 -0.8454
   38CHL1  H26A 2806   3.927   6.024   8.548 -2.4631 -0.3549 -1.0328
   38CHL1  H26B 2807   3.989   6.185   8.527 -1.2642  0.9508  1.3370
   38CHL1  H26C 2808   3.815   6.163   8.564  0.4823  0.6751  0.2073
   38CHL1   C27 2809   3.778   6.253   8.326  0.4179  0.1300 -0.6110
   38CHL1  H27A 2810   3.771   6.321   8.413 -0.4199  0.1405 -0.6831
   38CHL1  H27B 2811   3.804   6.300   8.228 -0.3269  0.4282 -0.6663
   38CHL1  H27C 2812   3.678   6.212   8.303  0.8363 -0.6942 -1.0336
   39CHL1    C3 2813   4.438   6.654   7.152  0.2493  0.0011  0.8684
   39CHL1    H3 2814   4.487   6.566   7.198 -0.6184 -1.5097 -0.9699
   39CHL1    O3 2815   4.410   6.627   7.018 -0.2020 -0.0476 -0.6588
   39CHL1   H3' 2816   4.317   6.652   7.012 -1.0803 -2.5870  0.9462
   39CHL1    C4 2817   4.303   6.690   7.221 -0.3001  0.7693 -0.9285
   39CHL1   H4A 2818   4.242   6.762   7.162 -1.1009  0.3972 -0.5758
   39CHL1   H4B 2819   4.236   6.602   7.222 -0.6580  0.8112  3.9382
   39CHL1    C5 2820   4.310   6.737   7.364 -0.2005 -0.4824  0.9642
   39CHL1    C6 2821   4.238   6.671   7.459 -0.1783  0.0440 -0.0618
   39CHL1    H6 2822   4.172   6.589   7.426  0.9561  0.0010 -2.4363
   39CHL1    C7 2823   4.257   6.693   7.605 -0.7395 -0.3181  0.2257
   39CHL1   H7A 2824   4.156   6.689   7.650 -0.1116  0.7760  1.8125
   39CHL1   H7B 2825   4.325   6.617   7.650  0.3342  0.0306 -0.7531
   39CHL1    C8 2826   4.337   6.825   7.638 -0.0660 -0.4748 -0.6963
   39CHL1    H8 2827   4.266   6.910   7.625 -1.4175 -1.4361  0.1145
   39CHL1   C14 2828   4.376   6.829   7.788 -1.0584 -0.5897  0.1213
   39CHL1   H14 2829   4.448   6.745   7.795  0.9233  1.1172  2.5043
   39CHL1   C15 2830   4.271   6.818   7.901  0.0521 -0.9686 -0.2880
   39CHL1  H15A 2831   4.178   6.875   7.882 -1.2718 -3.2163 -0.8895
   39CHL1  H15B 2832   4.238   6.713   7.916  1.2154 -0.9855  3.1818
   39CHL1   C16 2833   4.340   6.862   8.027  0.3113 -0.2128  0.4264
   39CHL1  H16A 2834   4.307   6.958   8.072  0.7054  0.5048 -0.7862
   39CHL1  H16B 2835   4.351   6.794   8.115  2.6032  2.2633  2.2277
   39CHL1   C17 2836   4.489   6.908   7.987  0.0415 -0.0185 -0.5696
   39CHL1   H17 2837   4.551   6.816   7.995 -0.6150 -0.4340 -0.1596
   39CHL1   C13 2838   4.472   6.939   7.833  0.0143  0.4552 -0.6828
   39CHL1   C18 2839   4.402   7.073   7.815 -0.1392  0.4016 -0.7035
   39CHL1  H18A 2840   4.298   7.067   7.854  0.4918  0.4984  1.0407
   39CHL1  H18B 2841   4.456   7.157   7.862 -1.9067  1.2169 -0.0528
   39CHL1  H18C 2842   4.384   7.108   7.711 -1.0300  1.3846 -0.2329
   39CHL1   C12 2843   4.598   6.950   7.738  0.3240  0.0198  0.0601
   39CHL1  H12A 2844   4.654   7.043   7.760  1.3560 -0.6127  0.1837
   39CHL1  H12B 2845   4.651   6.855   7.761 -0.2926 -0.1623  0.7548
   39CHL1   C11 2846   4.557   6.951   7.591 -0.4517 -0.9683 -0.4803
   39CHL1  H11A 2847   4.500   7.044   7.568 -3.0663 -2.6128 -1.1687
   39CHL1  H11B 2848   4.652   6.956   7.533 -0.5655  2.4912 -0.5548
   39CHL1    C9 2849   4.459   6.836   7.547 -0.2285 -0.2824  0.8166
   39CHL1    H9 2850   4.514   6.746   7.582 -1.1410 -0.6705  1.2947
   39CHL1   C10 2851   4.434   6.833   7.396  0.2480  0.0297 -0.1432
   39CHL1   C19 2852   4.384   6.974   7.359 -0.2751 -0.2307 -0.2891
   39CHL1  H19A 2853   4.310   7.011   7.432 -1.9054 -0.9122 -1.5376
   39CHL1  H19B 2854   4.470   7.042   7.342 -1.0079  0.2722 -2.2669
   39CHL1  H19C 2855   4.343   6.967   7.256 -0.3952 -1.0103 -0.1975
   39CHL1    C1 2856   4.561   6.793   7.316  0.6315 -0.4039 -0.0704
   39CHL1   H1A 2857   4.652   6.854   7.336  1.3784 -1.3944 -0.3353
   39CHL1   H1B 2858   4.594   6.695   7.358 -2.9714 -2.3119 -1.3433
   39CHL1    C2 2859   4.534   6.770   7.166  0.2101  0.2365  0.5727
   39CHL1   H2A 2860   4.631   6.753   7.113  0.3537  1.1579  0.5107
   39CHL1   H2B 2861   4.486   6.861   7.123 -0.4039 -0.0633  0.6228
   39CHL1   C20 2862   4.541   7.021   8.090 -0.1370  0.1236  0.2987
   39CHL1   H20 2863   4.477   7.110   8.073  1.8674  1.8578  1.3124
   39CHL1   C21 2864   4.690   7.054   8.065 -0.0004  0.0073  0.1258
   39CHL1  H21A 2865   4.754   6.965   8.044  1.5091  1.4309 -1.6453
   39CHL1  H21B 2866   4.730   7.108   8.154 -0.7454  0.9427 -0.0924
   39CHL1  H21C 2867   4.698   7.127   7.981  0.3396  0.0311  0.1784
   39CHL1   C22 2868   4.516   6.973   8.243  0.0436 -0.7095  0.4533
   39CHL1  H22A 2869   4.430   6.904   8.252 -2.7992  2.3899 -0.8286
   39CHL1  H22B 2870   4.612   6.926   8.274 -0.7581 -1.5158  1.7787
   39CHL1   C23 2871   4.487   7.093   8.341 -0.3444  0.5898  0.4966
   39CHL1  H23A 2872   4.572   7.163   8.356 -1.2617  1.8798 -0.1930
   39CHL1  H23B 2873   4.393   7.144   8.313  0.2111  0.6877 -1.3022
   39CHL1   C24 2874   4.465   7.047   8.488 -0.2323  0.5490 -0.1330
   39CHL1  H24A 2875   4.383   6.972   8.482 -0.5837  0.9877 -0.8531
   39CHL1  H24B 2876   4.555   6.995   8.527 -0.0010  1.9459  1.3318
   39CHL1   C25 2877   4.435   7.157   8.589  0.0325  0.0540  0.4281
   39CHL1   H25 2878   4.365   7.230   8.543  0.3151  0.2165  0.2545
   39CHL1   C26 2879   4.363   7.087   8.708 -0.1702  1.0099  0.1352
   39CHL1  H26A 2880   4.412   7.000   8.756 -0.1767  0.3611 -1.0158
   39CHL1  H26B 2881   4.354   7.166   8.786  0.9946  0.2404  1.0802
   39CHL1  H26C 2882   4.257   7.061   8.685 -0.4223  0.7140  1.5219
   39CHL1   C27 2883   4.555   7.231   8.632 -0.6533  0.5278 -0.0819
   39CHL1  H27A 2884   4.622   7.161   8.686 -2.0212 -1.9494 -1.3710
   39CHL1  H27B 2885   4.616   7.259   8.543 -0.3767  2.1511  0.5890
   39CHL1  H27C 2886   4.521   7.315   8.696 -0.4352  0.2613  0.3924
   40CHL1    C3 2887   2.398   4.245   6.943  0.7166 -0.5587 -0.4316
   40CHL1    H3 2888   2.500   4.287   6.928  0.9260 -0.3771  1.2693
   40CHL1    O3 2889   2.345   4.255   6.813 -0.2580  0.0792  0.8919
   40CHL1   H3' 2890   2.346   4.348   6.791 -1.2637 -0.3493 -1.2042
   40CHL1    C4 2891   2.406   4.089   6.987  0.4719  0.3658  0.3611
   40CHL1   H4A 2892   2.308   4.042   6.964  1.5038 -1.4516 -0.5212
   40CHL1   H4B 2893   2.478   4.032   6.924  0.6190  1.6489 -0.6441
   40CHL1    C5 2894   2.441   4.073   7.129  0.0556  0.1184 -0.1473
   40CHL1    C6 2895   2.554   4.003   7.170  1.1282 -0.5415  0.1418
   40CHL1    H6 2896   2.612   3.948   7.095  1.1922 -0.8255  0.3965
   40CHL1    C7 2897   2.566   3.969   7.315 -0.9191  0.0499 -0.6100
   40CHL1   H7A 2898   2.579   3.860   7.331  2.1290  0.3809 -0.1217
   40CHL1   H7B 2899   2.660   4.025   7.337 -0.4158 -0.6668 -0.9008
   40CHL1    C8 2900   2.451   3.999   7.409 -0.0085  0.5388  0.2323
   40CHL1    H8 2901   2.377   3.920   7.386  1.0512  0.1609 -2.1467
   40CHL1   C14 2902   2.506   3.997   7.552 -0.1689 -0.1420 -0.1814
   40CHL1   H14 2903   2.584   4.077   7.560 -1.1554  1.0060 -1.4486
   40CHL1   C15 2904   2.575   3.868   7.596  0.3405  0.2603 -0.8310
   40CHL1  H15A 2905   2.509   3.793   7.547 -2.8648  2.5076 -0.2999
   40CHL1  H15B 2906   2.682   3.856   7.569  1.1164 -0.6833  2.2632
   40CHL1   C16 2907   2.567   3.869   7.747  0.6637 -0.1590 -0.0496
   40CHL1  H16A 2908   2.522   3.774   7.784  0.1844 -0.2957 -0.9333
   40CHL1  H16B 2909   2.669   3.890   7.784  0.8632  1.6806 -1.5135
   40CHL1   C17 2910   2.476   3.996   7.790  0.2307 -0.2053 -0.2169
   40CHL1   H17 2911   2.544   4.082   7.802  0.6835 -0.2567 -2.0143
   40CHL1   C13 2912   2.396   4.025   7.657 -0.6662 -0.1223 -0.1292
   40CHL1   C18 2913   2.285   3.922   7.641  0.0838  0.0298  0.5591
   40CHL1  H18A 2914   2.205   3.929   7.719  0.7235 -2.1421  1.4933
   40CHL1  H18B 2915   2.246   3.926   7.537 -0.2025 -1.2993  0.5919
   40CHL1  H18C 2916   2.322   3.818   7.652 -1.5135 -0.5012  1.3605
   40CHL1   C12 2917   2.345   4.173   7.638  0.3665 -0.0573 -0.4183
   40CHL1  H12A 2918   2.259   4.183   7.707 -0.4154 -2.2976 -1.0138
   40CHL1  H12B 2919   2.422   4.248   7.667  0.3866 -0.8677  1.8178
   40CHL1   C11 2920   2.303   4.198   7.491 -0.0422  0.1301 -0.1513
   40CHL1  H11A 2921   2.199   4.158   7.489  1.0917 -3.2145 -0.0050
   40CHL1  H11B 2922   2.296   4.308   7.480 -1.8018  0.2005  1.2842
   40CHL1    C9 2923   2.399   4.136   7.376 -0.0368 -0.2921  0.1720
   40CHL1    H9 2924   2.478   4.214   7.372 -0.6914  0.5132  2.0615
   40CHL1   C10 2925   2.348   4.145   7.226  0.1437  0.8900  0.0137
   40CHL1   C19 2926   2.204   4.077   7.222 -0.2207  0.5491  0.0051
   40CHL1  H19A 2927   2.145   4.142   7.290  1.3061  0.2709  1.7025
   40CHL1  H19B 2928   2.156   4.074   7.122  1.3018  0.2452 -0.7567
   40CHL1  H19C 2929   2.210   3.975   7.266 -1.1479  0.0387 -1.0192
   40CHL1    C1 2930   2.347   4.295   7.189  0.3134  0.2208  0.4460
   40CHL1   H1A 2931   2.274   4.340   7.259  1.1470  1.3904  0.5987
   40CHL1   H1B 2932   2.444   4.343   7.212 -0.7269  2.3893  0.5841
   40CHL1    C2 2933   2.311   4.327   7.042 -0.1233  0.2104 -0.1107
   40CHL1   H2A 2934   2.314   4.431   7.001 -0.9915 -0.3467 -1.6728
   40CHL1   H2B 2935   2.205   4.294   7.039  0.3505 -1.5048  0.6682
   40CHL1   C20 2936   2.384   3.974   7.915 -0.2143  0.4083 -1.1220
   40CHL1   H20 2937   2.288   3.922   7.898  0.8201 -2.3574  0.6835
   40CHL1   C21 2938   2.361   4.111   7.981 -0.1540 -0.4391  0.2975
   40CHL1  H21A 2939   2.451   4.143   8.037 -1.0623  3.1121 -0.0032
   40CHL1  H21B 2940   2.273   4.102   8.049 -1.9885 -0.5293 -1.9455
   40CHL1  H21C 2941   2.325   4.185   7.906  0.1903 -2.3374 -1.8500
   40CHL1   C22 2942   2.458   3.879   8.015 -0.3632 -0.0439 -0.1624
   40CHL1  H22A 2943   2.470   3.780   7.966 -1.8185 -0.8663  1.0835
   40CHL1  H22B 2944   2.559   3.925   8.027  0.5789 -1.8628 -0.6559
   40CHL1   C23 2945   2.376   3.855   8.146 -0.4732  0.8182 -0.9283
   40CHL1  H23A 2946   2.372   3.944   8.212  0.6683  0.0506  0.2413
   40CHL1  H23B 2947   2.277   3.813   8.116  0.2992 -1.6749 -0.2910
   40CHL1   C24 2948   2.442   3.731   8.226 -0.2685 -0.1120  0.2460
   40CHL1  H24A 2949   2.452   3.654   8.146 -1.7659  0.7746 -0.8503
   40CHL1  H24B 2950   2.549   3.757   8.242 -0.6920  1.2642  1.0027
   40CHL1   C25 2951   2.366   3.680   8.349 -0.3132 -0.0264  0.2789
   40CHL1   H25 2952   2.269   3.635   8.317  0.2480 -0.7915 -0.3787
   40CHL1   C26 2953   2.443   3.575   8.433  0.2252  0.6191 -0.5221
   40CHL1  H26A 2954   2.543   3.607   8.469  1.1698 -1.5995 -0.9726
   40CHL1  H26B 2955   2.378   3.533   8.512  0.6694  0.5824 -0.1680
   40CHL1  H26C 2956   2.468   3.489   8.367 -1.5663 -1.3369  1.2030
   40CHL1   C27 2957   2.336   3.795   8.438 -0.7207  0.3399  0.2401
   40CHL1  H27A 2958   2.261   3.865   8.396 -1.9617 -1.5353 -0.8168
   40CHL1  H27B 2959   2.302   3.757   8.537 -1.7467 -0.1878 -0.3013
   40CHL1  H27C 2960   2.421   3.861   8.465 -1.5868  0.6949  2.3141
   41CHL1    C3 2961   1.694   4.166   6.966  0.6226 -0.3527 -0.2448
   41CHL1    H3 2962   1.637   4.258   6.992 -1.4328 -1.0830 -1.8434
   41CHL1    O3 2963   1.698   4.153   6.825 -0.0408 -0.0146  0.1068
   41CHL1   H3' 2964   1.750   4.074   6.812  2.4593  1.2545  1.7266
   41CHL1    C4 2965   1.833   4.170   7.035  0.0248 -0.0230  1.4026
   41CHL1   H4A 2966   1.892   4.082   7.001 -0.2634 -0.2292  1.4288
   41CHL1   H4B 2967   1.886   4.260   6.999  0.6387 -0.7720  0.3517
   41CHL1    C5 2968   1.813   4.164   7.184 -0.2376 -0.3596  0.6445
   41CHL1    C6 2969   1.869   4.264   7.258 -0.2845 -0.1861  0.3222
   41CHL1    H6 2970   1.935   4.333   7.202 -1.3565  1.0941  0.5816
   41CHL1    C7 2971   1.863   4.270   7.408  0.2812 -0.0880 -0.4337
   41CHL1   H7A 2972   1.968   4.281   7.441  0.1083 -0.1965  0.1553
   41CHL1   H7B 2973   1.809   4.355   7.456  2.8552  1.6871 -0.4880
   41CHL1    C8 2974   1.816   4.136   7.459 -0.2167 -0.0560 -0.5092
   41CHL1    H8 2975   1.903   4.067   7.455  0.6376  0.8144  1.6297
   41CHL1   C14 2976   1.778   4.148   7.609 -0.0869  0.0272  0.5381
   41CHL1   H14 2977   1.685   4.208   7.609  0.8530  1.5636 -0.5916
   41CHL1   C15 2978   1.876   4.214   7.709 -0.5577 -0.1506 -0.5626
   41CHL1  H15A 2979   1.975   4.165   7.705  0.5677  2.0362 -0.8416
   41CHL1  H15B 2980   1.893   4.321   7.687 -1.8031  0.0077 -0.8553
   41CHL1   C16 2981   1.821   4.194   7.848 -0.0027 -0.5006  0.1852
   41CHL1  H16A 2982   1.886   4.172   7.935 -0.5109 -0.5678  0.5525
   41CHL1  H16B 2983   1.770   4.287   7.880  0.1265 -0.8519  1.4886
   41CHL1   C17 2984   1.720   4.074   7.827 -0.1832  0.1077  0.5871
   41CHL1   H17 2985   1.616   4.113   7.826 -1.4938 -3.1406  0.7476
   41CHL1   C13 2986   1.748   4.020   7.686 -0.1573 -1.0350 -0.2898
   41CHL1   C18 2987   1.866   3.924   7.687 -0.6045  0.6023 -0.1802
   41CHL1  H18A 2988   1.879   3.886   7.584 -0.4532  1.0719 -0.3377
   41CHL1  H18B 2989   1.964   3.963   7.720  0.5301 -2.2545  0.1037
   41CHL1  H18C 2990   1.846   3.835   7.751 -0.6835  0.4601 -0.4022
   41CHL1   C12 2991   1.624   3.960   7.606  0.3841  0.6796  0.0635
   41CHL1  H12A 2992   1.582   3.870   7.655  2.5869 -1.5279 -1.8748
   41CHL1  H12B 2993   1.543   4.036   7.594 -0.6962 -0.5962 -0.9988
   41CHL1   C11 2994   1.651   3.932   7.452 -0.0665  0.3493 -0.8019
   41CHL1  H11A 2995   1.722   3.847   7.449  0.7970  0.9820  0.6440
   41CHL1  H11B 2996   1.562   3.904   7.392  0.0390 -1.5410 -0.1357
   41CHL1    C9 2997   1.706   4.062   7.387  0.5764 -0.0693  0.1934
   41CHL1    H9 2998   1.620   4.131   7.396  0.0170 -0.7110 -0.1513
   41CHL1   C10 2999   1.727   4.055   7.236  0.2832 -0.0087 -0.3421
   41CHL1   C19 3000   1.814   3.929   7.213 -0.7763  0.7664  0.0367
   41CHL1  H19A 3001   1.910   3.937   7.268 -1.2680 -0.3236  1.0976
   41CHL1  H19B 3002   1.763   3.836   7.247  1.0541  0.4394  2.0597
   41CHL1  H19C 3003   1.829   3.921   7.103  3.3704  2.6957  0.2711
   41CHL1    C1 3004   1.594   4.058   7.164  1.3183 -0.4598 -0.2921
   41CHL1   H1A 3005   1.518   3.990   7.207  1.9481 -0.2551  1.2114
   41CHL1   H1B 3006   1.544   4.152   7.196  1.8460 -0.7380  1.4594
   41CHL1    C2 3007   1.608   4.048   7.015  0.0294 -0.2815 -0.0091
   41CHL1   H2A 3008   1.509   4.061   6.966 -0.1648  0.9684  0.6831
   41CHL1   H2B 3009   1.654   3.951   6.986 -1.7633 -1.7712  1.7954
   41CHL1   C20 3010   1.716   3.973   7.937 -0.6889 -0.1058 -0.0015
   41CHL1   H20 3011   1.808   3.915   7.959 -1.2178 -0.0898  2.6904
   41CHL1   C21 3012   1.609   3.865   7.919 -0.4614  0.6893 -0.4089
   41CHL1  H21A 3013   1.647   3.787   7.850 -0.8544  0.3471 -0.2438
   41CHL1  H21B 3014   1.505   3.889   7.887  0.1460  2.7672 -0.9042
   41CHL1  H21C 3015   1.590   3.814   8.016 -0.2113 -1.2534 -1.3224
   41CHL1   C22 3016   1.686   4.044   8.075 -0.3534 -0.5517 -0.2689
   41CHL1  H22A 3017   1.665   4.153   8.064  1.0085 -0.2621 -0.2204
   41CHL1  H22B 3018   1.593   4.009   8.124 -0.4943  0.7845  0.4729
   41CHL1   C23 3019   1.807   4.041   8.178 -0.1025  0.8591  0.3739
   41CHL1  H23A 3020   1.820   3.937   8.215  1.3430  1.5019  1.8127
   41CHL1  H23B 3021   1.907   4.069   8.138 -0.3651 -0.8784 -1.6126
   41CHL1   C24 3022   1.765   4.127   8.303 -0.7763  0.1724 -0.0922
   41CHL1  H24A 3023   1.733   4.229   8.274  0.9838  0.9297  0.4612
   41CHL1  H24B 3024   1.681   4.082   8.360 -1.2252  2.7679  1.4292
   41CHL1   C25 3025   1.881   4.154   8.404  0.2501  0.3464 -0.2020
   41CHL1   H25 3026   1.927   4.054   8.421 -0.5769 -0.1353 -0.6784
   41CHL1   C26 3027   1.989   4.240   8.359 -0.5694 -1.0601  0.0953
   41CHL1  H26A 3028   1.945   4.342   8.344  0.3929 -0.3064  2.0911
   41CHL1  H26B 3029   2.069   4.258   8.434  0.2102  1.8105 -1.2364
   41CHL1  H26C 3030   2.033   4.210   8.261  1.1474  0.7606  0.2472
   41CHL1   C27 3031   1.815   4.206   8.540  0.3386  0.4750  0.6114
   41CHL1  H27A 3032   1.723   4.151   8.568  0.6259 -0.0522  0.5256
   41CHL1  H27B 3033   1.896   4.196   8.614 -1.2328 -0.1199  2.3203
   41CHL1  H27C 3034   1.790   4.315   8.536 -2.2272 -0.0795 -1.0866
   42CHL1    C3 3035   3.687   1.907   7.106  0.7745  0.1472  1.3820
   42CHL1    H3 3036   3.646   1.826   7.170  1.4321 -1.4641 -0.1147
   42CHL1    O3 3037   3.670   1.865   6.967 -0.1575 -0.3885  0.3836
   42CHL1   H3' 3038   3.724   1.789   6.948  1.2639  0.9279 -1.0999
   42CHL1    C4 3039   3.625   2.041   7.138 -0.6946  0.5745 -1.0605
   42CHL1   H4A 3040   3.656   2.117   7.064  1.6024  0.3375 -0.4250
   42CHL1   H4B 3041   3.515   2.028   7.125 -0.6305 -0.9209 -0.4198
   42CHL1    C5 3042   3.664   2.084   7.280  0.3111  0.7425  0.1075
   42CHL1    C6 3043   3.560   2.130   7.358  0.1265  0.0093  0.5761
   42CHL1    H6 3044   3.459   2.122   7.315  0.2365 -1.8096  0.5755
   42CHL1    C7 3045   3.580   2.177   7.496 -0.8602 -0.3519 -0.6541
   42CHL1   H7A 3046   3.529   2.274   7.510 -2.1718 -1.1471  0.2669
   42CHL1   H7B 3047   3.540   2.100   7.565 -1.3136  1.5549  1.3034
   42CHL1    C8 3048   3.730   2.203   7.539 -0.6385  0.1240 -0.0851
   42CHL1    H8 3049   3.762   2.295   7.486 -2.2602  1.5250  1.2380
   42CHL1   C14 3050   3.738   2.216   7.692 -0.4421  0.4939  0.1021
   42CHL1   H14 3051   3.704   2.117   7.729  0.3441 -0.5094 -1.7531
   42CHL1   C15 3052   3.645   2.318   7.765 -0.0287  0.3460  0.8260
   42CHL1  H15A 3053   3.661   2.422   7.729 -0.2606  0.4058  0.8947
   42CHL1  H15B 3054   3.537   2.292   7.763  0.2758 -1.0563 -2.0550
   42CHL1   C16 3055   3.709   2.305   7.911 -0.3568 -0.9404 -0.3114
   42CHL1  H16A 3056   3.719   2.406   7.958  0.0489 -0.9240 -0.4282
   42CHL1  H16B 3057   3.642   2.248   7.978 -0.1402  1.6469  2.3595
   42CHL1   C17 3058   3.849   2.236   7.899 -0.0976 -0.4306  0.0348
   42CHL1   H17 3059   3.833   2.132   7.937 -2.0673  0.3641  1.5756
   42CHL1   C13 3060   3.878   2.232   7.744  0.5048 -0.3224 -0.1435
   42CHL1   C18 3061   3.945   2.365   7.701 -0.2652  0.0370 -0.3346
   42CHL1  H18A 3062   4.055   2.371   7.714  0.2238  0.5951 -3.7081
   42CHL1  H18B 3063   3.931   2.387   7.593 -0.4164 -0.2760 -0.3781
   42CHL1  H18C 3064   3.902   2.455   7.750 -1.8797 -0.0506 -1.5350
   42CHL1   C12 3065   3.954   2.103   7.700  0.0359 -0.4261 -0.1306
   42CHL1  H12A 3066   4.055   2.087   7.742 -0.0896 -0.8973  0.0064
   42CHL1  H12B 3067   3.889   2.019   7.733  0.8093 -1.5053 -1.2916
   42CHL1   C11 3068   3.961   2.085   7.546  0.3312  0.4727 -0.5786
   42CHL1  H11A 3069   4.026   2.167   7.507 -0.1923  0.6958 -1.0045
   42CHL1  H11B 3070   4.012   1.988   7.531 -0.0964  0.0339  0.6906
   42CHL1    C9 3071   3.819   2.086   7.483  0.5069 -0.0619 -0.4649
   42CHL1    H9 3072   3.777   1.995   7.530  2.0727 -1.2347 -1.2303
   42CHL1   C10 3073   3.811   2.078   7.326 -0.2123  0.1565 -0.4237
   42CHL1   C19 3074   3.894   2.189   7.256  0.1707  0.1391 -0.1162
   42CHL1  H19A 3075   4.001   2.164   7.274  0.0899 -0.5822 -0.5661
   42CHL1  H19B 3076   3.870   2.185   7.148  0.6908  0.8453 -0.2570
   42CHL1  H19C 3077   3.871   2.289   7.298 -1.6919 -0.4551  0.3950
   42CHL1    C1 3078   3.868   1.942   7.268 -0.4873  0.9930 -0.1131
   42CHL1   H1A 3079   3.978   1.928   7.277 -0.7543 -0.9646  0.7823
   42CHL1   H1B 3080   3.826   1.853   7.321  1.6948 -0.5981 -0.9099
   42CHL1    C2 3081   3.839   1.911   7.124  0.0751  0.1449  0.3252
   42CHL1   H2A 3082   3.883   1.813   7.096 -0.6280 -0.0839 -0.0033
   42CHL1   H2B 3083   3.877   1.985   7.050  3.3625  0.2998  2.0040
   42CHL1   C20 3084   3.951   2.287   8.009 -0.1412 -0.7844  0.6548
   42CHL1   H20 3085   3.968   2.396   7.991 -2.3456 -0.6607 -1.1017
   42CHL1   C21 3086   4.085   2.219   7.987 -0.6668  0.2756  0.0181
   42CHL1  H21A 3087   4.078   2.109   7.972  2.6479  0.1226 -1.3165
   42CHL1  H21B 3088   4.154   2.236   8.072  0.0434 -0.7005 -0.3410
   42CHL1  H21C 3089   4.124   2.261   7.892  1.1435  0.3499  0.7469
   42CHL1   C22 3090   3.903   2.241   8.148 -0.1122  0.1294 -0.3775
   42CHL1  H22A 3091   3.795   2.229   8.167 -0.1847 -2.8681 -2.0671
   42CHL1  H22B 3092   3.940   2.137   8.150  0.1064  0.1699 -1.3912
   42CHL1   C23 3093   3.977   2.298   8.269  1.3308  0.7198 -0.3447
   42CHL1  H23A 3094   4.072   2.349   8.245  0.4831  2.5709  0.0303
   42CHL1  H23B 3095   3.911   2.375   8.316  1.1964  0.6756 -0.4605
   42CHL1   C24 3096   3.989   2.200   8.393 -0.1231 -0.2187 -0.5956
   42CHL1  H24A 3097   3.889   2.152   8.406  0.1002 -0.1411  1.8717
   42CHL1  H24B 3098   4.063   2.121   8.368 -0.4226 -1.2875  1.6307
   42CHL1   C25 3099   4.019   2.276   8.523  0.4654  0.2583 -0.0522
   42CHL1   H25 3100   3.952   2.365   8.528 -0.7502 -0.5076 -1.5794
   42CHL1   C26 3101   3.996   2.187   8.646  0.6736  0.4343 -0.4919
   42CHL1  H26A 3102   3.902   2.128   8.644  1.6729 -1.4176  2.0317
   42CHL1  H26B 3103   4.086   2.122   8.650 -0.4861 -1.1448  1.5297
   42CHL1  H26C 3104   3.994   2.241   8.742  1.4125 -3.5124  1.9701
   42CHL1   C27 3105   4.164   2.332   8.519  0.4635  0.1781 -0.3304
   42CHL1  H27A 3106   4.178   2.380   8.420  2.2089 -1.4513 -0.9439
   42CHL1  H27B 3107   4.239   2.250   8.523  0.4725  0.0691 -2.0948
   42CHL1  H27C 3108   4.185   2.407   8.598  6.1042  1.0873 -2.2426
   43CHL1    C3 3109   1.890   6.177   6.813 -1.3773 -0.4440 -0.1735
   43CHL1    H3 3110   1.949   6.095   6.859  0.5869  0.7622 -0.4351
   43CHL1    O3 3111   1.918   6.179   6.670  0.1430  0.7583 -0.1281
   43CHL1   H3' 3112   1.857   6.249   6.644 -2.1149 -1.1696 -0.3775
   43CHL1    C4 3113   1.744   6.170   6.834  0.2502 -0.8539  0.6423
   43CHL1   H4A 3114   1.700   6.265   6.799 -0.8677 -1.6919 -0.3116
   43CHL1   H4B 3115   1.701   6.089   6.772 -0.3475 -2.3906  2.9205
   43CHL1    C5 3116   1.706   6.169   6.973  0.0193  0.1663 -0.1492
   43CHL1    C6 3117   1.651   6.060   7.026  0.6126  0.2220  0.5288
   43CHL1    H6 3118   1.627   5.980   6.955  3.3982  0.3684 -0.6712
   43CHL1    C7 3119   1.619   6.045   7.175 -0.1900  0.5996  0.3855
   43CHL1   H7A 3120   1.518   5.997   7.178  0.1878 -0.1974  0.4362
   43CHL1   H7B 3121   1.695   5.982   7.224  1.9987  2.2815 -0.6692
   43CHL1    C8 3122   1.623   6.182   7.251  0.1040  0.3731  0.0210
   43CHL1    H8 3123   1.540   6.251   7.223  0.2106  0.9667  1.1338
   43CHL1   C14 3124   1.619   6.149   7.396  0.0394 -0.0049  0.1815
   43CHL1   H14 3125   1.711   6.092   7.420 -0.7024 -0.8499  1.1329
   43CHL1   C15 3126   1.507   6.050   7.439 -0.1069  0.2204 -0.2911
   43CHL1  H15A 3127   1.403   6.073   7.406 -0.8178 -0.4460  1.3643
   43CHL1  H15B 3128   1.528   5.947   7.403  1.0478  1.5392 -3.7960
   43CHL1   C16 3129   1.503   6.074   7.594  0.2777  0.1025 -0.1408
   43CHL1  H16A 3130   1.398   6.103   7.616 -0.7678 -1.4643 -2.6355
   43CHL1  H16B 3131   1.529   5.979   7.647 -1.2062 -1.1044 -1.4866
   43CHL1   C17 3132   1.613   6.177   7.623 -0.0595 -0.3975  0.0226
   43CHL1   H17 3133   1.705   6.119   7.644 -0.8723 -2.3257 -1.3958
   43CHL1   C13 3134   1.617   6.262   7.490 -0.4754  0.1552 -0.2297
   43CHL1   C18 3135   1.501   6.362   7.494 -0.1496 -0.2632  0.0256
   43CHL1  H18A 3136   1.415   6.307   7.539 -0.7257  1.2897  0.9304
   43CHL1  H18B 3137   1.526   6.443   7.566 -2.9670  1.0492 -0.3415
   43CHL1  H18C 3138   1.466   6.416   7.404  1.1401 -0.3774 -0.5577
   43CHL1   C12 3139   1.751   6.335   7.462  0.1865  0.1345 -0.0645
   43CHL1  H12A 3140   1.765   6.423   7.528  1.9733  0.7525 -1.1902
   43CHL1  H12B 3141   1.838   6.273   7.492  0.8202  0.7634 -0.5749
   43CHL1   C11 3142   1.774   6.371   7.317  0.0931 -0.7916  0.3398
   43CHL1  H11A 3143   1.699   6.451   7.300 -2.5447 -2.3417  3.5151
   43CHL1  H11B 3144   1.878   6.407   7.302  0.2529 -1.1028  0.6550
   43CHL1    C9 3145   1.746   6.257   7.214 -0.5037 -0.6869 -0.5915
   43CHL1    H9 3146   1.820   6.178   7.239 -0.6466 -0.4002  0.7937
   43CHL1   C10 3147   1.754   6.289   7.057  0.3695 -0.5682  0.0582
   43CHL1   C19 3148   1.666   6.407   7.024  0.0212  0.5594  0.6316
   43CHL1  H19A 3149   1.672   6.427   6.915 -1.0485  2.5026  0.8871
   43CHL1  H19B 3150   1.561   6.384   7.054 -0.3245 -0.9119 -1.4898
   43CHL1  H19C 3151   1.706   6.502   7.066  1.7144  0.6894 -1.1369
   43CHL1    C1 3152   1.900   6.321   7.024 -0.0659  0.0508 -0.0087
   43CHL1   H1A 3153   1.926   6.420   7.066 -1.2466 -0.3280  1.7517
   43CHL1   H1B 3154   1.965   6.252   7.082 -0.4713  0.3986  0.8790
   43CHL1    C2 3155   1.941   6.313   6.871 -0.3230 -0.2523  0.1455
   43CHL1   H2A 3156   2.050   6.302   6.853 -0.6286 -1.5579 -1.0126
   43CHL1   H2B 3157   1.907   6.404   6.817  0.0899 -0.6344 -0.7585
   43CHL1   C20 3158   1.575   6.248   7.758  0.1397 -0.4825 -0.1763
   43CHL1   H20 3159   1.471   6.287   7.754  0.4170  0.2553 -0.4950
   43CHL1   C21 3160   1.672   6.359   7.790 -0.2070  0.3682  0.3150
   43CHL1  H21A 3161   1.652   6.444   7.722  0.3896  0.7300  0.5869
   43CHL1  H21B 3162   1.776   6.321   7.788 -0.5301 -0.6073  1.2910
   43CHL1  H21C 3163   1.656   6.391   7.895 -1.3015  1.6941 -0.2172
   43CHL1   C22 3164   1.563   6.153   7.879 -0.1143  0.1022  0.2308
   43CHL1  H22A 3165   1.559   6.217   7.970 -0.7964 -0.3731  0.5475
   43CHL1  H22B 3166   1.466   6.101   7.863 -0.6552  1.2345 -0.2736
   43CHL1   C23 3167   1.671   6.044   7.893 -0.2818 -0.3924  0.3983
   43CHL1  H23A 3168   1.656   5.966   7.815  0.1946 -0.7026  0.6192
   43CHL1  H23B 3169   1.778   6.064   7.875  0.2670 -1.8499  1.7885
   43CHL1   C24 3170   1.666   5.968   8.036  0.2064 -0.5067  0.2974
   43CHL1  H24A 3171   1.744   6.015   8.100  1.7659 -0.4605 -1.5145
   43CHL1  H24B 3172   1.570   5.981   8.089  1.0026  0.2830  1.6135
   43CHL1   C25 3173   1.705   5.819   8.013  1.1652 -0.2260  0.1047
   43CHL1   H25 3174   1.640   5.784   7.929  2.4272  0.0013 -0.9971
   43CHL1   C26 3175   1.853   5.801   7.978  0.3253  0.2467  0.2362
   43CHL1  H26A 3176   1.867   5.709   7.918  0.6106  1.6760 -1.9999
   43CHL1  H26B 3177   1.880   5.870   7.895 -3.4868  1.2508 -0.3413
   43CHL1  H26C 3178   1.924   5.812   8.063  0.5940 -2.4301  0.4147
   43CHL1   C27 3179   1.671   5.748   8.140 -0.2930 -0.3297 -0.2473
   43CHL1  H27A 3180   1.568   5.775   8.173  0.8415  1.0626  2.4468
   43CHL1  H27B 3181   1.676   5.638   8.127  1.2309 -0.5012  1.5043
   43CHL1  H27C 3182   1.743   5.778   8.219  0.4589 -1.1105 -0.6292
   44CHL1    C3 3183   1.264   5.507   6.919  0.1634  0.4025  0.2776
   44CHL1    H3 3184   1.345   5.435   6.944  0.8556  0.8002 -0.7794
   44CHL1    O3 3185   1.239   5.492   6.780  0.6699 -0.3966 -0.0176
   44CHL1   H3' 3186   1.236   5.397   6.766 -1.7324 -0.7289  1.9727
   44CHL1    C4 3187   1.139   5.473   6.990 -0.3519 -0.2324  0.0254
   44CHL1   H4A 3188   1.053   5.537   6.961  1.5212  2.2026 -0.4626
   44CHL1   H4B 3189   1.126   5.364   6.971 -1.1454 -0.1145 -0.1473
   44CHL1    C5 3190   1.148   5.493   7.145  0.7778 -0.8080 -0.9939
   44CHL1    C6 3191   1.117   5.391   7.226 -0.0408 -0.0502 -0.1213
   44CHL1    H6 3192   1.075   5.302   7.177 -0.0629  1.2582 -2.6476
   44CHL1    C7 3193   1.107   5.406   7.374 -0.4035  0.5624 -0.1573
   44CHL1   H7A 3194   1.010   5.363   7.406  1.8925 -3.2876  2.5547
   44CHL1   H7B 3195   1.185   5.340   7.419 -2.0917 -0.5034  1.3160
   44CHL1    C8 3196   1.119   5.548   7.432  0.6572 -0.0786  0.2960
   44CHL1    H8 3197   1.021   5.599   7.421  0.3709 -0.7998 -0.6500
   44CHL1   C14 3198   1.165   5.547   7.582  0.6623 -0.2473  0.1017
   44CHL1   H14 3199   1.259   5.486   7.583  0.6647 -0.2446  0.9411
   44CHL1   C15 3200   1.069   5.471   7.680  0.5837 -0.1244  0.1243
   44CHL1  H15A 3201   0.968   5.518   7.677  1.3124  1.5683  0.6575
   44CHL1  H15B 3202   1.060   5.363   7.659 -1.3927  0.2676 -1.3210
   44CHL1   C16 3203   1.124   5.504   7.817 -0.0675  0.3269  0.5241
   44CHL1  H16A 3204   1.040   5.536   7.883 -1.7530 -0.9204 -0.9349
   44CHL1  H16B 3205   1.173   5.411   7.854 -1.4678 -0.1801  1.1846
   44CHL1   C17 3206   1.226   5.630   7.793 -0.7672 -0.6262  0.5500
   44CHL1   H17 3207   1.326   5.584   7.785 -0.1464  0.6114  1.0146
   44CHL1   C13 3208   1.185   5.683   7.652 -0.4375  0.2978  0.5611
   44CHL1   C18 3209   1.052   5.767   7.659  0.1407  0.1545 -0.3278
   44CHL1  H18A 3210   1.078   5.868   7.700 -2.2688  1.4686 -1.8186
   44CHL1  H18B 3211   0.996   5.780   7.565 -1.4197  0.8295  0.6540
   44CHL1  H18C 3212   0.984   5.720   7.734 -1.4288  0.6535 -1.3995
   44CHL1   C12 3213   1.295   5.757   7.563  0.2008  0.2296  0.2982
   44CHL1  H12A 3214   1.316   5.861   7.598  1.4093  0.3690 -0.7463
   44CHL1  H12B 3215   1.387   5.696   7.551 -0.5047 -0.5742 -1.2089
   44CHL1   C11 3216   1.257   5.766   7.411  0.0659 -0.0338  0.4922
   44CHL1  H11A 3217   1.164   5.827   7.408 -0.5590 -0.7671  2.8769
   44CHL1  H11B 3218   1.333   5.818   7.349  0.2500 -0.2768  0.5146
   44CHL1    C9 3219   1.224   5.629   7.343  1.1292 -0.5985  0.0411
   44CHL1    H9 3220   1.315   5.567   7.343  1.9169  0.4772 -1.6355
   44CHL1   C10 3221   1.190   5.633   7.198  0.2568 -0.0381  0.8590
   44CHL1   C19 3222   1.093   5.747   7.178  1.0850 -0.0330  0.2158
   44CHL1  H19A 3223   1.147   5.843   7.171  1.7534 -0.1810  2.4984
   44CHL1  H19B 3224   1.044   5.730   7.079  0.2249 -0.4054  0.6862
   44CHL1  H19C 3225   1.017   5.745   7.260  0.5170  0.0506 -0.3017
   44CHL1    C1 3226   1.324   5.659   7.107  0.2430 -0.1539  0.4677
   44CHL1   H1A 3227   1.377   5.755   7.125 -1.5928  1.3747 -1.6939
   44CHL1   H1B 3228   1.402   5.585   7.132  0.7909  0.1568 -0.3140
   44CHL1    C2 3229   1.311   5.649   6.954 -0.8432  0.1575  0.1857
   44CHL1   H2A 3230   1.408   5.667   6.904  0.2021  2.2172  2.7001
   44CHL1   H2B 3231   1.229   5.717   6.923 -3.1776 -2.3080  0.6009
   44CHL1   C20 3232   1.229   5.734   7.906 -1.0340 -0.2438  0.6054
   44CHL1   H20 3233   1.125   5.774   7.906 -1.4257 -1.2278  0.2854
   44CHL1   C21 3234   1.325   5.846   7.870  1.0633  0.2764  0.6325
   44CHL1  H21A 3235   1.359   5.906   7.958  3.1578  0.1082 -0.0135
   44CHL1  H21B 3236   1.284   5.917   7.795 -1.7857 -0.3073  1.4986
   44CHL1  H21C 3237   1.414   5.792   7.833  0.9132 -0.3125  1.1066
   44CHL1   C22 3238   1.259   5.690   8.052  0.4817 -0.0297 -0.1065
   44CHL1  H22A 3239   1.197   5.604   8.087  2.5250 -0.8955  1.5948
   44CHL1  H22B 3240   1.363   5.653   8.050  0.8245  0.9331 -2.1480
   44CHL1   C23 3241   1.230   5.797   8.158  0.0395 -0.0103 -0.2612
   44CHL1  H23A 3242   1.313   5.871   8.156  0.6597 -0.7034 -0.3924
   44CHL1  H23B 3243   1.144   5.863   8.134  1.7768  2.2414 -0.6248
   44CHL1   C24 3244   1.219   5.733   8.301  0.1653 -0.6031 -0.0362
   44CHL1  H24A 3245   1.126   5.672   8.300  1.8818 -3.3699 -2.1210
   44CHL1  H24B 3246   1.301   5.659   8.310  1.2012 -0.1184 -3.7818
   44CHL1   C25 3247   1.216   5.837   8.412 -0.3170 -0.3163  0.2893
   44CHL1   H25 3248   1.296   5.911   8.394 -1.1586  0.0220 -2.6521
   44CHL1   C26 3249   1.079   5.914   8.418  0.3375  0.0810  0.0576
   44CHL1  H26A 3250   1.080   6.003   8.483 -1.6945 -0.3421  0.7452
   44CHL1  H26B 3251   1.051   5.930   8.312  1.3202  3.2703  0.1975
   44CHL1  H26C 3252   1.016   5.842   8.474 -0.2344  0.0347 -0.6353
   44CHL1   C27 3253   1.255   5.771   8.546 -0.0596  0.9360 -0.1278
   44CHL1  H27A 3254   1.252   5.838   8.634 -1.3277  0.3930  0.2626
   44CHL1  H27B 3255   1.174   5.696   8.558 -0.0995  1.1730  1.1742
   44CHL1  H27C 3256   1.355   5.724   8.535  0.4406  1.7138  0.8801
   45CHL1    C3 3257   6.260   4.749   6.921 -0.6271 -0.2744 -0.3150
   45CHL1    H3 3258   6.353   4.716   6.973 -0.4077  0.2325 -0.3783
   45CHL1    O3 3259   6.291   4.779   6.786 -0.4311 -0.3142  0.1183
   45CHL1   H3' 3260   6.233   4.723   6.734 -0.6154 -0.1026  0.0934
   45CHL1    C4 3261   6.158   4.642   6.927 -0.0552  0.2945  0.4620
   45CHL1   H4A 3262   6.065   4.688   6.887  1.5355  1.0536 -2.7256
   45CHL1   H4B 3263   6.191   4.559   6.860 -0.1002  0.7894 -0.1858
   45CHL1    C5 3264   6.134   4.606   7.073 -0.5613 -0.4421  0.0802
   45CHL1    C6 3265   6.161   4.481   7.110 -0.4398  0.4973  0.1564
   45CHL1    H6 3266   6.183   4.405   7.033 -0.9659  2.6173 -2.2240
   45CHL1    C7 3267   6.147   4.428   7.253  0.5152 -0.3456 -0.0626
   45CHL1   H7A 3268   6.083   4.337   7.256 -0.4838  0.3506  3.0102
   45CHL1   H7B 3269   6.247   4.408   7.296  0.7311 -0.9587 -0.8320
   45CHL1    C8 3270   6.072   4.532   7.340  0.6151 -0.1449 -0.5729
   45CHL1    H8 3271   5.964   4.533   7.316  0.3842  0.7845  0.3815
   45CHL1   C14 3272   6.096   4.497   7.493  0.0332  0.7167  0.5213
   45CHL1   H14 3273   6.204   4.517   7.508  0.1740  0.9129 -0.5972
   45CHL1   C15 3274   6.071   4.357   7.536 -0.2931  0.0308 -0.0953
   45CHL1  H15A 3275   5.971   4.331   7.497  1.4850 -1.2066 -4.5426
   45CHL1  H15B 3276   6.140   4.282   7.489  1.8016  0.2815  2.3746
   45CHL1   C16 3277   6.071   4.356   7.690  0.5089 -0.0236  1.1607
   45CHL1  H16A 3278   5.972   4.310   7.712 -0.1638 -0.3009 -1.9689
   45CHL1  H16B 3279   6.153   4.298   7.737  1.7372  0.5612 -0.1797
   45CHL1   C17 3280   6.077   4.507   7.728  0.2304  0.5591  0.4725
   45CHL1   H17 3281   6.184   4.533   7.740 -0.1060  2.7174 -0.5799
   45CHL1   C13 3282   6.029   4.584   7.599 -0.1152  0.0136 -1.1301
   45CHL1   C18 3283   5.874   4.583   7.600  0.3431  0.4668 -0.1193
   45CHL1  H18A 3284   5.840   4.652   7.680 -1.3031  0.4356 -0.7608
   45CHL1  H18B 3285   5.831   4.615   7.503 -2.1209 -1.0583  0.3645
   45CHL1  H18C 3286   5.840   4.479   7.617 -0.0088  0.7380  0.9061
   45CHL1   C12 3287   6.078   4.729   7.574 -0.4919  0.1322  0.8273
   45CHL1  H12A 3288   6.042   4.802   7.649 -2.1078  2.1659 -1.7388
   45CHL1  H12B 3289   6.187   4.739   7.592 -0.6522  0.2560  1.7977
   45CHL1   C11 3290   6.064   4.777   7.422  0.5775  0.3318  0.4583
   45CHL1  H11A 3291   5.954   4.794   7.420  0.3492 -1.1413 -0.8903
   45CHL1  H11B 3292   6.094   4.883   7.410 -0.6074  0.6530  0.1736
   45CHL1    C9 3293   6.119   4.677   7.319  0.4179 -0.0312  0.4358
   45CHL1    H9 3294   6.229   4.672   7.336  0.5532 -2.0785 -0.7401
   45CHL1   C10 3295   6.102   4.720   7.166 -0.0793  1.0090  0.1650
   45CHL1   C19 3296   5.953   4.768   7.143  0.1795  0.6609 -0.3811
   45CHL1  H19A 3297   5.941   4.812   7.042 -2.3038  1.6010  0.2414
   45CHL1  H19B 3298   5.870   4.694   7.155  0.1061  0.7560 -0.2977
   45CHL1  H19C 3299   5.929   4.847   7.218 -2.9162  1.3917 -1.9360
   45CHL1    C1 3300   6.190   4.839   7.134 -0.1512 -0.5818 -0.7445
   45CHL1   H1A 3301   6.146   4.921   7.194 -1.2077 -0.8686 -1.1106
   45CHL1   H1B 3302   6.282   4.820   7.192 -1.8813 -2.3386  1.6077
   45CHL1    C2 3303   6.212   4.875   6.991  0.5369 -0.1326 -0.3621
   45CHL1   H2A 3304   6.265   4.973   6.994 -1.2288  0.8707 -0.0549
   45CHL1   H2B 3305   6.118   4.899   6.936  0.4259 -1.6769 -0.8987
   45CHL1   C20 3306   6.017   4.537   7.863 -1.6388 -0.3487 -0.2109
   45CHL1   H20 3307   5.909   4.518   7.847 -1.0499 -2.3023 -2.6270
   45CHL1   C21 3308   6.043   4.685   7.902 -0.0442  0.1276  0.4495
   45CHL1  H21A 3309   6.152   4.708   7.894  0.4310 -1.2181  2.2676
   45CHL1  H21B 3310   6.024   4.712   8.008  0.6766 -3.2614  1.5894
   45CHL1  H21C 3311   5.979   4.754   7.844  0.3205  1.9837  2.1471
   45CHL1   C22 3312   6.071   4.444   7.975  0.5583  0.1527 -0.1718
   45CHL1  H22A 3313   6.059   4.338   7.943 -0.2835 -0.4343  1.9321
   45CHL1  H22B 3314   6.181   4.458   7.982  0.5182  0.2806  0.2016
   45CHL1   C23 3315   5.993   4.463   8.109 -0.4325  0.3142  0.5785
   45CHL1  H23A 3316   5.976   4.569   8.136  3.0681  0.3464  3.5318
   45CHL1  H23B 3317   5.895   4.415   8.086  0.1955  0.1759 -2.0467
   45CHL1   C24 3318   6.044   4.389   8.236 -1.0438 -0.4420 -0.0656
   45CHL1  H24A 3319   6.147   4.429   8.253 -1.7238  1.3136  0.0880
   45CHL1  H24B 3320   5.978   4.421   8.320  0.6003 -1.0003  1.5132
   45CHL1   C25 3321   6.048   4.243   8.221 -0.4718 -0.6583  0.8559
   45CHL1   H25 3322   6.098   4.212   8.127  0.9677 -0.6966  1.5993
   45CHL1   C26 3323   6.149   4.175   8.314  0.2207  0.5432  0.9419
   45CHL1  H26A 3324   6.240   4.237   8.299  0.7585 -0.4923 -0.3161
   45CHL1  H26B 3325   6.100   4.189   8.413 -1.3071  1.8856  0.0434
   45CHL1  H26C 3326   6.167   4.069   8.283 -1.9687  1.0156 -2.4611
   45CHL1   C27 3327   5.912   4.181   8.234 -0.0064  0.2723 -0.2730
   45CHL1  H27A 3328   5.870   4.211   8.333 -2.4057 -0.1755 -1.1126
   45CHL1  H27B 3329   5.845   4.227   8.159  1.4322  4.2261  0.6344
   45CHL1  H27C 3330   5.919   4.072   8.213  0.5104  0.6365 -2.0962
   46CHL1    C3 3331   3.504   5.055   7.182  0.0657 -0.6052 -0.5592
   46CHL1    H3 3332   3.395   5.070   7.199  0.0679  1.1393 -1.8486
   46CHL1    O3 3333   3.533   5.078   7.043  0.5269 -0.1708 -0.3554
   46CHL1   H3' 3334   3.535   4.993   7.000 -4.2551 -0.6952 -0.1399
   46CHL1    C4 3335   3.597   5.145   7.265 -1.0072  0.6014  0.2085
   46CHL1   H4A 3336   3.700   5.132   7.226 -0.3328 -1.1921  2.3607
   46CHL1   H4B 3337   3.575   5.252   7.245  0.4306  1.1152  1.2203
   46CHL1    C5 3338   3.603   5.115   7.412 -0.1702 -0.6817 -1.2591
   46CHL1    C6 3339   3.582   5.218   7.501  0.5714 -0.0541  0.3467
   46CHL1    H6 3340   3.572   5.319   7.457  1.0899 -0.4730 -0.7467
   46CHL1    C7 3341   3.593   5.206   7.648 -0.4978 -0.2522 -0.3010
   46CHL1   H7A 3342   3.665   5.284   7.680 -0.4867 -1.0392  1.7717
   46CHL1   H7B 3343   3.493   5.223   7.692 -1.0154 -2.3813 -0.5531
   46CHL1    C8 3344   3.636   5.064   7.693  0.2802 -0.5893  0.3636
   46CHL1    H8 3345   3.747   5.056   7.687  0.1644 -2.4614  0.0566
   46CHL1   C14 3346   3.586   5.031   7.835  0.0152  0.3240  0.4696
   46CHL1   H14 3347   3.476   5.042   7.821  0.2150 -0.7845 -2.6722
   46CHL1   C15 3348   3.623   5.132   7.945  0.2174 -0.6759 -0.1910
   46CHL1  H15A 3349   3.732   5.151   7.954 -0.1305  1.0053  0.7935
   46CHL1  H15B 3350   3.564   5.225   7.939  1.5880  0.2530  0.2714
   46CHL1   C16 3351   3.594   5.052   8.077 -0.3957  0.8692 -0.4697
   46CHL1  H16A 3352   3.682   5.059   8.145 -1.3439  0.8105  0.8024
   46CHL1  H16B 3353   3.499   5.079   8.129  1.3943 -0.6448  4.0981
   46CHL1   C17 3354   3.571   4.901   8.036  0.3387  0.1136 -0.2292
   46CHL1   H17 3355   3.461   4.892   8.028  0.4971 -1.6531 -0.9681
   46CHL1   C13 3356   3.618   4.893   7.886  0.2038 -0.3073  0.3153
   46CHL1   C18 3357   3.772   4.874   7.884 -0.0362 -0.4727 -0.5516
   46CHL1  H18A 3358   3.813   4.875   7.781  0.3197 -0.4689 -0.4116
   46CHL1  H18B 3359   3.835   4.944   7.943 -0.7252  0.3857 -0.8040
   46CHL1  H18C 3360   3.810   4.780   7.928  2.5126  0.5350 -0.4191
   46CHL1   C12 3361   3.555   4.793   7.793 -0.6906 -0.4614  0.0948
   46CHL1  H12A 3362   3.572   4.687   7.820 -2.8228 -0.7371  0.4838
   46CHL1  H12B 3363   3.444   4.794   7.798 -0.7306  0.1169 -0.6907
   46CHL1   C11 3364   3.590   4.814   7.641 -0.2805  0.3177 -0.4134
   46CHL1  H11A 3365   3.692   4.771   7.644 -0.3223  0.1632  3.2084
   46CHL1  H11B 3366   3.528   4.742   7.584  1.9488 -0.0607 -2.5449
   46CHL1    C9 3367   3.577   4.956   7.599  0.9972 -0.3276  0.0192
   46CHL1    H9 3368   3.468   4.975   7.595  1.1512  0.5770 -0.1200
   46CHL1   C10 3369   3.622   4.971   7.453  0.1078  1.1273 -0.3366
   46CHL1   C19 3370   3.782   4.948   7.438  0.1656  0.3860  0.0764
   46CHL1  H19A 3371   3.800   4.952   7.329  1.3055  0.0513  0.2385
   46CHL1  H19B 3372   3.838   5.028   7.491  0.5080  0.5418 -0.5170
   46CHL1  H19C 3373   3.817   4.849   7.475  0.1544  0.6243  0.7290
   46CHL1    C1 3374   3.537   4.878   7.355 -0.0940 -0.5318  0.0013
   46CHL1   H1A 3375   3.565   4.770   7.355 -2.1585 -1.1484  1.7080
   46CHL1   H1B 3376   3.434   4.892   7.393  0.2244 -2.5916  1.8794
   46CHL1    C2 3377   3.543   4.912   7.209  0.6966 -0.3506 -0.0309
   46CHL1   H2A 3378   3.468   4.840   7.169 -2.2992  1.4701  1.9320
   46CHL1   H2B 3379   3.646   4.887   7.174  1.0650 -0.0457  0.8150
   46CHL1   C20 3380   3.621   4.792   8.135 -0.3348 -0.1636 -0.2652
   46CHL1   H20 3381   3.628   4.695   8.082 -0.2083 -0.7978  0.8612
   46CHL1   C21 3382   3.504   4.763   8.233  0.0276  0.1855 -0.0498
   46CHL1  H21A 3383   3.467   4.850   8.292  0.4734 -0.7519  1.7083
   46CHL1  H21B 3384   3.544   4.694   8.310 -0.2657  0.0727  0.0018
   46CHL1  H21C 3385   3.418   4.722   8.175 -2.5318 -0.6762  3.9309
   46CHL1   C22 3386   3.753   4.820   8.215  0.4635  0.5492  0.4971
   46CHL1  H22A 3387   3.818   4.874   8.142  0.4925 -0.2196 -0.0579
   46CHL1  H22B 3388   3.741   4.893   8.298  0.0699  2.0592 -0.8279
   46CHL1   C23 3389   3.829   4.702   8.268 -1.3923  0.1261 -0.0779
   46CHL1  H23A 3390   3.781   4.651   8.354 -0.7141  1.1370  0.9229
   46CHL1  H23B 3391   3.841   4.628   8.186 -0.3432 -0.4557  0.5721
   46CHL1   C24 3392   3.969   4.754   8.308  0.2319 -0.3165 -0.2161
   46CHL1  H24A 3393   4.025   4.795   8.222  0.1582  1.0868  0.3758
   46CHL1  H24B 3394   3.953   4.839   8.378  0.0556  1.0100 -1.8058
   46CHL1   C25 3395   4.058   4.645   8.376 -0.5783 -0.2674 -0.7247
   46CHL1   H25 3396   4.078   4.565   8.302  1.8474 -0.2398 -0.1756
   46CHL1   C26 3397   4.198   4.706   8.420  0.1549  0.0698  0.7124
   46CHL1  H26A 3398   4.185   4.784   8.497  1.5847  1.6689 -0.5771
   46CHL1  H26B 3399   4.254   4.617   8.455  0.0570  0.6798  2.4696
   46CHL1  H26C 3400   4.257   4.732   8.330 -0.0654 -0.5892  0.3682
   46CHL1   C27 3401   4.002   4.577   8.503  0.2949 -0.2569 -0.2890
   46CHL1  H27A 3402   3.895   4.558   8.481 -0.3515 -0.1584  2.4952
   46CHL1  H27B 3403   4.048   4.482   8.537 -1.4431 -1.3966 -0.9999
   46CHL1  H27C 3404   4.011   4.654   8.582  3.4530 -1.4541  0.6919
   47CHL1    C3 3405   2.882   5.014   6.851 -0.6665 -0.7011  0.2668
   47CHL1    H3 3406   2.979   4.973   6.887 -1.3079 -2.3048  0.2565
   47CHL1    O3 3407   2.891   5.001   6.708 -0.4560  0.4056  0.8845
   47CHL1   H3' 3408   2.818   5.046   6.665  0.8674 -0.1010 -2.1256
   47CHL1    C4 3409   2.765   4.941   6.913 -0.0228 -0.5286 -0.9426
   47CHL1   H4A 3410   2.671   4.953   6.855  0.5591 -0.4148 -1.8795
   47CHL1   H4B 3411   2.775   4.832   6.895  1.3764 -0.9747  1.9332
   47CHL1    C5 3412   2.729   4.962   7.063 -0.4739  0.1203 -0.1521
   47CHL1    C6 3413   2.740   4.864   7.154 -0.6816 -0.1771  1.0624
   47CHL1    H6 3414   2.774   4.763   7.126 -0.6240  0.2465 -0.5186
   47CHL1    C7 3415   2.722   4.881   7.305  0.0132 -0.1438 -0.0639
   47CHL1   H7A 3416   2.650   4.803   7.336 -0.1951  1.2068  3.1950
   47CHL1   H7B 3417   2.815   4.872   7.366 -1.5680  0.1482  2.5219
   47CHL1    C8 3418   2.658   5.017   7.336  0.6704 -0.1732 -0.5292
   47CHL1    H8 3419   2.549   5.005   7.323  0.1728  1.2255  1.7296
   47CHL1   C14 3420   2.678   5.041   7.486 -0.5778 -0.5490 -0.5721
   47CHL1   H14 3421   2.784   5.074   7.493 -1.1293  2.3129 -3.2576
   47CHL1   C15 3422   2.651   4.938   7.589  0.6055 -0.4628 -0.0740
   47CHL1  H15A 3423   2.554   4.887   7.571  1.5929 -2.0442 -1.1585
   47CHL1  H15B 3424   2.717   4.849   7.598  1.3428  0.0049 -0.7058
   47CHL1   C16 3425   2.662   5.005   7.725  0.4392 -0.7925 -0.5894
   47CHL1  H16A 3426   2.574   4.978   7.788  0.1057 -0.1749 -0.7791
   47CHL1  H16B 3427   2.756   4.980   7.779 -0.4880 -2.0028  0.5339
   47CHL1   C17 3428   2.656   5.152   7.693 -0.0633 -1.4626  0.1434
   47CHL1   H17 3429   2.754   5.203   7.685 -0.7832 -0.2026 -1.2839
   47CHL1   C13 3430   2.607   5.167   7.544 -0.6921  0.0384 -0.0996
   47CHL1   C18 3431   2.455   5.161   7.527  0.6276  0.4650  0.9210
   47CHL1  H18A 3432   2.416   5.059   7.546 -0.0450  0.6796  0.7077
   47CHL1  H18B 3433   2.401   5.249   7.568  0.6287  0.4925  0.8622
   47CHL1  H18C 3434   2.433   5.163   7.419 -1.8024 -0.5393  1.3425
   47CHL1   C12 3435   2.678   5.286   7.466  0.2705  0.4750  0.5787
   47CHL1  H12A 3436   2.634   5.379   7.507 -0.3158  0.0035  1.0514
   47CHL1  H12B 3437   2.787   5.290   7.485  1.0694 -2.1262 -2.4890
   47CHL1   C11 3438   2.668   5.270   7.313  0.2724  0.4765 -0.0231
   47CHL1  H11A 3439   2.562   5.286   7.286  0.2206  1.5994  0.8081
   47CHL1  H11B 3440   2.713   5.360   7.266 -2.2892  2.9780  1.9928
   47CHL1    C9 3441   2.715   5.128   7.261 -0.3484 -0.2913  0.0950
   47CHL1    H9 3442   2.825   5.123   7.276 -0.4445 -1.3027  0.5308
   47CHL1   C10 3443   2.715   5.111   7.099  0.4211 -0.0293 -0.1861
   47CHL1   C19 3444   2.578   5.168   7.036  0.0652 -0.3144 -0.2658
   47CHL1  H19A 3445   2.496   5.119   7.093  1.0801 -0.7116  0.8860
   47CHL1  H19B 3446   2.575   5.277   7.057  0.4149 -0.3410 -0.0686
   47CHL1  H19C 3447   2.567   5.148   6.927 -2.7396 -2.0763  0.2272
   47CHL1    C1 3448   2.827   5.193   7.043  0.6075  1.0555  0.2751
   47CHL1   H1A 3449   2.806   5.302   7.052  0.0927  0.9598  0.2909
   47CHL1   H1B 3450   2.916   5.156   7.098 -0.8277 -2.1354  0.6769
   47CHL1    C2 3451   2.856   5.163   6.890  0.2509 -0.2847  0.3637
   47CHL1   H2A 3452   2.936   5.234   6.859  2.4351 -1.0920  3.6303
   47CHL1   H2B 3453   2.768   5.202   6.834  0.4003 -0.8326 -0.2678
   47CHL1   C20 3454   2.585   5.233   7.804  0.5073 -0.3121  0.2362
   47CHL1   H20 3455   2.479   5.202   7.817  0.5481  0.0575  1.6951
   47CHL1   C21 3456   2.582   5.390   7.772 -0.8391  0.0531  0.1769
   47CHL1  H21A 3457   2.532   5.424   7.678 -0.9135  1.8532  0.8371
   47CHL1  H21B 3458   2.687   5.422   7.755 -0.7008  0.2137  1.2793
   47CHL1  H21C 3459   2.543   5.449   7.857  1.3854 -0.3143  1.5312
   47CHL1   C22 3460   2.660   5.220   7.940 -0.1241  0.0771  0.3240
   47CHL1  H22A 3461   2.668   5.113   7.970 -1.0999  0.8983  4.1251
   47CHL1  H22B 3462   2.761   5.266   7.937  1.0952 -2.4125 -2.5384
   47CHL1   C23 3463   2.579   5.270   8.057  0.0294 -0.6436 -0.3823
   47CHL1  H23A 3464   2.572   5.380   8.068  0.0257 -0.6654 -0.1506
   47CHL1  H23B 3465   2.476   5.236   8.034  1.0087 -3.5904 -0.8180
   47CHL1   C24 3466   2.619   5.216   8.198 -0.5378  0.1881 -0.4288
   47CHL1  H24A 3467   2.631   5.107   8.177 -1.4583  0.1049 -0.5798
   47CHL1  H24B 3468   2.721   5.255   8.220 -1.9600  3.4671  1.0444
   47CHL1   C25 3469   2.538   5.238   8.315  0.3210  0.2544 -0.1772
   47CHL1   H25 3470   2.540   5.346   8.342 -0.8454  0.1182  0.5176
   47CHL1   C26 3471   2.387   5.195   8.293 -0.2314 -0.4546  0.7647
   47CHL1  H26A 3472   2.326   5.231   8.379 -1.5593  0.5081 -0.5384
   47CHL1  H26B 3473   2.354   5.217   8.190  2.4116 -2.1117 -0.5458
   47CHL1  H26C 3474   2.393   5.085   8.303  0.5033 -0.5165 -0.1999
   47CHL1   C27 3475   2.597   5.166   8.443  0.6230 -0.2013  0.8446
   47CHL1  H27A 3476   2.602   5.059   8.415  2.4629 -0.0120  0.2848
   47CHL1  H27B 3477   2.688   5.214   8.485 -0.6293  1.1413  2.1661
   47CHL1  H27C 3478   2.525   5.187   8.525  1.3961  0.6993  1.3266
   48CHL1    C3 3479   0.751   0.802   6.623  0.5079 -0.9286 -0.4246
   48CHL1    H3 3480   0.843   0.772   6.569  0.7500  2.3389 -2.1264
   48CHL1    O3 3481   0.664   0.852   6.524  0.0505 -0.9481  0.0870
   48CHL1   H3' 3482   0.574   0.823   6.540 -0.4447  0.2633 -0.3981
   48CHL1    C4 3483   0.683   0.684   6.686  0.3934  0.5135 -0.3064
   48CHL1   H4A 3484   0.580   0.707   6.722  0.5178 -0.5380  0.7937
   48CHL1   H4B 3485   0.670   0.617   6.598 -2.6119  0.0413  0.3833
   48CHL1    C5 3486   0.767   0.630   6.798  0.2614  0.3856  0.4689
   48CHL1    C6 3487   0.802   0.497   6.805 -0.0246  0.4344 -1.0646
   48CHL1    H6 3488   0.775   0.419   6.732 -0.0771  0.4805 -1.0940
   48CHL1    C7 3489   0.880   0.438   6.920 -0.0485 -0.1176  0.4694
   48CHL1   H7A 3490   0.841   0.342   6.960  3.7722 -0.7184  3.2845
   48CHL1   H7B 3491   0.980   0.404   6.887 -0.5180 -1.2288  0.1634
   48CHL1    C8 3492   0.889   0.539   7.030 -0.0761 -0.2977 -0.4537
   48CHL1    H8 3493   0.797   0.543   7.092  0.7457 -4.3193  1.3617
   48CHL1   C14 3494   0.989   0.490   7.131 -0.2271 -0.7006  0.3475
   48CHL1   H14 3495   1.085   0.489   7.076  1.3250  1.2008  2.8139
   48CHL1   C15 3496   0.972   0.349   7.191  0.4901  0.0145 -0.4888
   48CHL1  H15A 3497   0.868   0.346   7.232  0.5138  2.2761 -0.1545
   48CHL1  H15B 3498   0.985   0.268   7.116  1.8594 -1.3217  1.1019
   48CHL1   C16 3499   1.069   0.347   7.307 -0.5161  0.9065 -0.0364
   48CHL1  H16A 3500   0.998   0.313   7.386 -0.5814  3.6111  1.1940
   48CHL1  H16B 3501   1.154   0.278   7.292 -0.8626  0.1564  1.2834
   48CHL1   C17 3502   1.121   0.489   7.337  0.0821 -0.4976 -0.6314
   48CHL1   H17 3503   1.219   0.500   7.285 -0.5941  1.9656 -1.5258
   48CHL1   C13 3504   1.019   0.581   7.255  0.2495  0.1082  0.0591
   48CHL1   C18 3505   0.884   0.602   7.339 -0.0503  0.7820 -0.0565
   48CHL1  H18A 3506   0.803   0.656   7.285  0.4966  2.8673  1.0756
   48CHL1  H18B 3507   0.839   0.509   7.378  0.2850 -0.5559 -2.6364
   48CHL1  H18C 3508   0.893   0.659   7.434 -0.8619 -2.8182  2.3339
   48CHL1   C12 3509   1.079   0.711   7.198 -0.2856 -0.1697  0.0556
   48CHL1  H12A 3510   1.104   0.780   7.281  0.3396  1.0210 -1.0795
   48CHL1  H12B 3511   1.166   0.690   7.132  0.6172 -0.1322  1.1954
   48CHL1   C11 3512   0.968   0.773   7.108 -0.0651 -0.1196 -0.1786
   48CHL1  H11A 3513   0.880   0.795   7.172  0.9462  0.2235  1.1530
   48CHL1  H11B 3514   1.006   0.869   7.065  2.0099 -0.7121  0.2039
   48CHL1    C9 3515   0.927   0.681   6.985 -0.3143  0.0388 -0.1355
   48CHL1    H9 3516   1.017   0.673   6.920 -1.0593 -1.7008 -1.0328
   48CHL1   C10 3517   0.819   0.735   6.897 -0.9206  0.4198 -0.1283
   48CHL1   C19 3518   0.699   0.778   6.982 -0.2866  0.0606  0.0985
   48CHL1  H19A 3519   0.710   0.855   7.060  0.4414 -0.4352  0.5018
   48CHL1  H19B 3520   0.619   0.821   6.918 -0.1372  0.9288  0.4782
   48CHL1  H19C 3521   0.659   0.692   7.040  0.6459  0.3558  1.2065
   48CHL1    C1 3522   0.888   0.853   6.822  0.7391 -0.9189  0.0317
   48CHL1   H1A 3523   0.921   0.921   6.904  1.4010 -0.7756 -0.3446
   48CHL1   H1B 3524   0.980   0.815   6.771  0.9118  2.2802 -2.3140
   48CHL1    C2 3525   0.794   0.914   6.716  0.2621 -0.8424 -0.2384
   48CHL1   H2A 3526   0.842   1.003   6.670 -0.9464 -0.3831 -0.6590
   48CHL1   H2B 3527   0.711   0.961   6.773  2.2447  2.3461  0.2649
   48CHL1   C20 3528   1.145   0.513   7.486 -0.3499  0.1830  0.3060
   48CHL1   H20 3529   1.044   0.497   7.531  0.4251 -1.1668  1.6668
   48CHL1   C21 3530   1.206   0.650   7.515 -0.4547  0.3902 -0.2575
   48CHL1  H21A 3531   1.298   0.662   7.455  0.5353 -0.0559  1.1305
   48CHL1  H21B 3532   1.231   0.650   7.623 -0.5761 -0.9677 -0.2208
   48CHL1  H21C 3533   1.134   0.729   7.484  0.8105  0.4864 -3.3056
   48CHL1   C22 3534   1.231   0.406   7.552 -0.9127  0.5299 -0.0958
   48CHL1  H22A 3535   1.269   0.336   7.474  1.5474 -1.3309  2.5529
   48CHL1  H22B 3536   1.326   0.443   7.597 -0.7423 -1.7279  1.5803
   48CHL1   C23 3537   1.154   0.327   7.656 -0.6628 -0.6958 -0.2485
   48CHL1  H23A 3538   1.063   0.277   7.616 -0.2288 -2.3354  0.7190
   48CHL1  H23B 3539   1.221   0.243   7.682 -0.3439  0.2648  2.3742
   48CHL1   C24 3540   1.103   0.394   7.779 -0.4840 -0.4346  0.4181
   48CHL1  H24A 3541   1.183   0.447   7.835 -1.5812  0.0688  1.5680
   48CHL1  H24B 3542   1.044   0.483   7.747  0.3081  1.0784  2.9279
   48CHL1   C25 3543   1.046   0.310   7.896 -0.4030 -0.6661 -0.0560
   48CHL1   H25 3544   1.113   0.221   7.901  2.2725  1.3157  3.4611
   48CHL1   C26 3545   1.032   0.376   8.033  0.1302  0.0806 -0.8299
   48CHL1  H26A 3546   0.975   0.471   8.022 -1.3396 -0.3577  2.0964
   48CHL1  H26B 3547   0.967   0.318   8.101  0.7635 -0.1384 -0.4022
   48CHL1  H26C 3548   1.134   0.394   8.074 -0.4454 -0.6065  0.9757
   48CHL1   C27 3549   0.902   0.266   7.859  0.1442 -0.2662  0.2119
   48CHL1  H27A 3550   0.885   0.246   7.751 -2.4864 -1.1835  0.7141
   48CHL1  H27B 3551   0.867   0.181   7.922 -0.3231 -0.4532 -0.2934
   48CHL1  H27C 3552   0.828   0.343   7.888  1.3793  0.6315  1.1064
   49CHL1    C3 3553   6.172   1.692   6.810  0.4515  0.6035  0.5754
   49CHL1    H3 3554   6.173   1.591   6.855  0.5319  0.1963 -0.3259
   49CHL1    O3 3555   6.147   1.685   6.667  0.8089  0.3632  0.3488
   49CHL1   H3' 3556   6.164   1.777   6.649  0.5410  1.1681  3.6477
   49CHL1    C4 3557   6.059   1.769   6.885  0.3949 -0.9761  0.0136
   49CHL1   H4A 3558   6.042   1.870   6.843 -0.6451 -1.6765 -1.3382
   49CHL1   H4B 3559   5.962   1.719   6.860  0.1296 -0.2784 -0.3671
   49CHL1    C5 3560   6.073   1.778   7.031 -0.2891 -0.3440 -0.3256
   49CHL1    C6 3561   5.984   1.727   7.114  0.3494 -0.6575 -0.7888
   49CHL1    H6 3562   5.889   1.683   7.081 -0.8375  0.3926  1.0621
   49CHL1    C7 3563   5.995   1.725   7.267  0.2610 -0.2387  0.0408
   49CHL1   H7A 3564   5.902   1.762   7.316 -0.6614 -1.7454 -0.4890
   49CHL1   H7B 3565   6.008   1.619   7.299  1.7614  0.3311  1.4547
   49CHL1    C8 3566   6.124   1.799   7.317 -0.3299 -0.3399  0.6571
   49CHL1    H8 3567   6.086   1.903   7.323  2.3297  0.6666  1.5020
   49CHL1   C14 3568   6.161   1.756   7.451 -0.0214 -0.0049  0.2386
   49CHL1   H14 3569   6.191   1.649   7.447  0.8872  0.0537  3.0275
   49CHL1   C15 3570   6.046   1.767   7.553 -0.7620  0.1406 -0.1883
   49CHL1  H15A 3571   6.001   1.866   7.529  1.1616  1.4727  1.2660
   49CHL1  H15B 3572   5.964   1.694   7.535 -1.4553  0.1820  2.4132
   49CHL1   C16 3573   6.119   1.771   7.683  0.4592  0.3983 -0.7656
   49CHL1  H16A 3574   6.081   1.850   7.752 -0.7426  0.0017 -0.9444
   49CHL1  H16B 3575   6.091   1.675   7.730  0.3614  1.8237  2.3357
   49CHL1   C17 3576   6.274   1.761   7.654  0.5655 -0.0500  0.2278
   49CHL1   H17 3577   6.296   1.653   7.640  0.7590 -0.2689  1.9432
   49CHL1   C13 3578   6.280   1.826   7.511  0.0332  0.0222 -0.3554
   49CHL1   C18 3579   6.264   1.984   7.521 -0.6218  0.0924 -0.8011
   49CHL1  H18A 3580   6.215   2.019   7.428 -1.8561 -0.0963 -0.2469
   49CHL1  H18B 3581   6.199   2.008   7.608 -0.7759  2.7182 -1.5538
   49CHL1  H18C 3582   6.364   2.029   7.537 -0.1280 -1.4341  0.7408
   49CHL1   C12 3583   6.398   1.787   7.421 -0.3872 -0.0961  0.4431
   49CHL1  H12A 3584   6.491   1.837   7.455  0.1993 -0.6150 -0.3485
   49CHL1  H12B 3585   6.412   1.677   7.418  0.3153  0.0006 -0.2115
   49CHL1   C11 3586   6.377   1.833   7.276 -0.2325  0.4832  0.6022
   49CHL1  H11A 3587   6.387   1.944   7.273 -2.4427  0.7461  1.0410
   49CHL1  H11B 3588   6.455   1.784   7.214 -1.3366 -3.0472  1.7614
   49CHL1    C9 3589   6.242   1.787   7.222  0.2578  0.0388 -0.5444
   49CHL1    H9 3590   6.253   1.677   7.212 -0.4066  0.0112 -0.9837
   49CHL1   C10 3591   6.212   1.826   7.073  0.4828 -0.8526  0.3269
   49CHL1   C19 3592   6.214   1.981   7.063  0.4283 -0.4314 -0.0289
   49CHL1  H19A 3593   6.201   2.010   6.956  0.1140  3.5812  0.9560
   49CHL1  H19B 3594   6.133   2.025   7.125 -0.0868 -2.4877  0.8357
   49CHL1  H19C 3595   6.320   2.008   7.080  0.5397 -0.5887 -0.4403
   49CHL1    C1 3596   6.326   1.774   6.983 -0.2279  0.3586  0.0893
   49CHL1   H1A 3597   6.425   1.821   6.999 -0.0852  0.5864 -1.3425
   49CHL1   H1B 3598   6.349   1.671   7.018  1.8733  0.7202 -0.1093
   49CHL1    C2 3599   6.301   1.755   6.831 -0.2574 -0.5644  0.0146
   49CHL1   H2A 3600   6.386   1.707   6.778  0.4180  1.7676 -1.1485
   49CHL1   H2B 3601   6.290   1.853   6.781 -0.5300  0.7436  2.4541
   49CHL1   C20 3602   6.351   1.814   7.772  0.1406  0.1805 -0.2351
   49CHL1   H20 3603   6.344   1.924   7.779 -0.5949  0.3353 -2.5566
   49CHL1   C21 3604   6.501   1.786   7.739  0.6355 -1.0604 -0.2228
   49CHL1  H21A 3605   6.556   1.798   7.834 -1.2602 -1.9074  1.0553
   49CHL1  H21B 3606   6.537   1.869   7.675 -0.9335  1.1303  1.5779
   49CHL1  H21C 3607   6.521   1.689   7.689  1.0555 -0.7715 -0.6189
   49CHL1   C22 3608   6.308   1.762   7.911  0.3083 -0.3484 -0.1739
   49CHL1  H22A 3609   6.210   1.810   7.931  0.2112  0.0359 -1.4873
   49CHL1  H22B 3610   6.314   1.652   7.924  0.1348 -0.1158  2.6637
   49CHL1   C23 3611   6.392   1.822   8.024  0.4919  0.0897  0.0795
   49CHL1  H23A 3612   6.486   1.767   8.043  0.7832  0.7784  0.6619
   49CHL1  H23B 3613   6.424   1.925   8.000  0.8444  0.2532  1.1979
   49CHL1   C24 3614   6.313   1.816   8.158 -0.0606  0.0083 -0.0442
   49CHL1  H24A 3615   6.207   1.843   8.137 -0.1799  0.7701  1.4638
   49CHL1  H24B 3616   6.311   1.709   8.189  0.8203  0.2767  0.9924
   49CHL1   C25 3617   6.350   1.922   8.271  0.4827 -0.4335  0.2724
   49CHL1   H25 3618   6.405   2.003   8.218  0.7359  0.1087  1.3195
   49CHL1   C26 3619   6.224   1.990   8.336  0.1080 -0.5980  0.0396
   49CHL1  H26A 3620   6.177   2.059   8.262  0.2468 -1.5710 -0.9868
   49CHL1  H26B 3621   6.153   1.909   8.362 -0.0432 -1.1932 -2.0185
   49CHL1  H26C 3622   6.249   2.049   8.427 -1.3343 -0.9454  0.7036
   49CHL1   C27 3623   6.444   1.859   8.377  0.5122 -0.7040 -0.1405
   49CHL1  H27A 3624   6.534   1.810   8.334  1.2331 -0.5926  1.1635
   49CHL1  H27B 3625   6.481   1.945   8.437 -0.1586 -0.1332 -0.5373
   49CHL1  H27C 3626   6.389   1.792   8.446 -0.6824  0.9915  0.6294
   50CHL1    C3 3627   1.378   2.205   6.985 -0.2095 -0.1187  0.0153
   50CHL1    H3 3628   1.293   2.254   7.036  1.0313  1.4844  0.6382
   50CHL1    O3 3629   1.365   2.207   6.844 -0.1239 -0.1261  0.5694
   50CHL1   H3' 3630   1.423   2.271   6.801 -0.6006 -0.5303 -0.7311
   50CHL1    C4 3631   1.507   2.290   7.025  0.3810 -0.3446 -0.0466
   50CHL1   H4A 3632   1.591   2.250   6.965  1.1861 -0.3159  1.0303
   50CHL1   H4B 3633   1.487   2.392   6.985  0.6181 -0.2731  0.0166
   50CHL1    C5 3634   1.534   2.283   7.178  0.6196  0.6660  0.1928
   50CHL1    C6 3635   1.558   2.399   7.245  1.0730 -0.2912 -0.1431
   50CHL1    H6 3636   1.553   2.496   7.194  0.3048  0.0681  0.5775
   50CHL1    C7 3637   1.597   2.412   7.387 -0.0770 -0.1453 -0.1956
   50CHL1   H7A 3638   1.691   2.470   7.391  1.1573 -2.0781  0.4706
   50CHL1   H7B 3639   1.515   2.464   7.440  0.9970  1.5405 -0.1404
   50CHL1    C8 3640   1.629   2.271   7.446  0.7209  0.0183  0.0424
   50CHL1    H8 3641   1.731   2.239   7.417 -0.4355 -3.2400 -0.9316
   50CHL1   C14 3642   1.606   2.281   7.602 -0.6287  0.2340 -0.3751
   50CHL1   H14 3643   1.498   2.308   7.606 -1.2073 -1.6516 -1.9574
   50CHL1   C15 3644   1.674   2.392   7.689 -0.3817 -0.4999  0.2044
   50CHL1  H15A 3645   1.780   2.403   7.660 -0.1375 -0.4426  1.0939
   50CHL1  H15B 3646   1.620   2.489   7.688 -2.2216 -1.4624 -1.0700
   50CHL1   C16 3647   1.673   2.335   7.833  0.0993 -0.4949 -0.2898
   50CHL1  H16A 3648   1.776   2.318   7.871  0.0122  1.4434  0.9430
   50CHL1  H16B 3649   1.625   2.393   7.915 -0.5897 -1.3664 -0.0684
   50CHL1   C17 3650   1.610   2.189   7.827  0.1726  0.5927  0.5539
   50CHL1   H17 3651   1.501   2.204   7.840 -0.7216  1.2205 -4.9756
   50CHL1   C13 3652   1.635   2.149   7.674 -0.3996  0.0373  0.1559
   50CHL1   C18 3653   1.783   2.100   7.662  0.5540 -0.4495  0.4073
   50CHL1  H18A 3654   1.790   1.995   7.699 -0.0332 -1.0825 -1.1913
   50CHL1  H18B 3655   1.823   2.102   7.558  2.5979 -2.2722  1.0775
   50CHL1  H18C 3656   1.857   2.161   7.718  0.8682 -1.1161  0.7308
   50CHL1   C12 3657   1.536   2.038   7.623 -0.2145  0.0636  0.2881
   50CHL1  H12A 3658   1.574   1.948   7.675 -0.8506 -1.3058 -1.5268
   50CHL1  H12B 3659   1.434   2.074   7.648  0.8898  1.5514  3.0939
   50CHL1   C11 3660   1.562   2.023   7.471  0.0204  0.2841 -0.1367
   50CHL1  H11A 3661   1.664   1.988   7.444 -0.0517  0.4376 -0.6136
   50CHL1  H11B 3662   1.501   1.942   7.425  1.1916 -1.1705  0.7745
   50CHL1    C9 3663   1.537   2.160   7.397  1.0803  0.3369  0.0122
   50CHL1    H9 3664   1.434   2.191   7.424  1.1992  0.0016  0.9007
   50CHL1   C10 3665   1.543   2.145   7.241  0.4062  0.1000 -0.1850
   50CHL1   C19 3666   1.674   2.078   7.198 -0.0216 -0.1261 -0.5022
   50CHL1  H19A 3667   1.661   1.973   7.230 -0.6925 -0.6503 -2.3708
   50CHL1  H19B 3668   1.689   2.076   7.088 -0.0206 -0.0548 -0.5041
   50CHL1  H19C 3669   1.764   2.122   7.246  0.4764 -1.1218 -0.5197
   50CHL1    C1 3670   1.427   2.059   7.185  0.0652  0.2249  0.5349
   50CHL1   H1A 3671   1.446   1.953   7.212  1.8284  0.2050 -0.6372
   50CHL1   H1B 3672   1.334   2.083   7.242 -1.0474 -2.0351 -0.2191
   50CHL1    C2 3673   1.394   2.067   7.033  0.6531 -0.3507  0.4822
   50CHL1   H2A 3674   1.311   2.000   7.001  0.4022  0.1945 -0.0218
   50CHL1   H2B 3675   1.478   2.027   6.972  0.6150  2.5963 -1.7752
   50CHL1   C20 3676   1.660   2.096   7.948  0.8451  0.2276  0.2724
   50CHL1   H20 3677   1.761   2.055   7.927  0.2648 -0.3868 -1.4873
   50CHL1   C21 3678   1.566   1.972   7.959 -0.3436 -0.2006 -0.0663
   50CHL1  H21A 3679   1.471   2.016   7.994  0.2550  0.5355  0.6892
   50CHL1  H21B 3680   1.597   1.903   8.041 -0.1980  1.1525  1.0582
   50CHL1  H21C 3681   1.557   1.917   7.863  0.6572  0.4372 -0.5469
   50CHL1   C22 3682   1.652   2.175   8.080  0.6221 -0.3775  0.0151
   50CHL1  H22A 3683   1.702   2.274   8.078 -1.2851  0.6469  0.4929
   50CHL1  H22B 3684   1.546   2.206   8.095  0.4827  0.2752 -1.9800
   50CHL1   C23 3685   1.722   2.109   8.210  0.4409 -0.5179  0.4607
   50CHL1  H23A 3686   1.706   2.000   8.197 -0.0547 -0.1539 -3.1855
   50CHL1  H23B 3687   1.831   2.123   8.191 -0.0764  0.9237 -1.9731
   50CHL1   C24 3688   1.667   2.162   8.342  0.8046 -0.6117  0.3396
   50CHL1  H24A 3689   1.667   2.273   8.338  1.1667 -0.4901  2.3279
   50CHL1  H24B 3690   1.561   2.128   8.349 -0.0022  1.8940  1.6927
   50CHL1   C25 3691   1.740   2.121   8.471  0.1311 -0.5673  0.0229
   50CHL1   H25 3692   1.691   2.173   8.555  0.2597 -2.2895  1.2086
   50CHL1   C26 3693   1.735   1.972   8.499  0.1953  0.6781  0.3428
   50CHL1  H26A 3694   1.639   1.917   8.487  0.4238 -0.0470  1.6017
   50CHL1  H26B 3695   1.801   1.923   8.425 -1.3509 -0.3527 -0.4104
   50CHL1  H26C 3696   1.773   1.942   8.599 -0.0259  1.6864  0.7388
   50CHL1   C27 3697   1.884   2.172   8.476  0.5319 -0.1475  0.2914
   50CHL1  H27A 3698   1.943   2.107   8.407 -0.8983 -0.5228 -0.6242
   50CHL1  H27B 3699   1.888   2.275   8.434  1.2513  0.3791  1.6123
   50CHL1  H27C 3700   1.923   2.157   8.579  0.2126 -2.2997  0.1531
   51CHL1    C3 3701   5.679   2.086   7.014  0.6224 -0.3351 -0.2237
   51CHL1    H3 3702   5.645   1.981   7.026  0.7318 -0.2686  0.6691
   51CHL1    O3 3703   5.678   2.122   6.878  0.1850  0.0658 -0.0442
   51CHL1   H3' 3704   5.714   2.042   6.838 -0.4628  1.1824 -3.1615
   51CHL1    C4 3705   5.580   2.170   7.087  0.3248 -0.5557 -0.4225
   51CHL1   H4A 3706   5.595   2.276   7.058 -0.1182 -0.4792 -0.3785
   51CHL1   H4B 3707   5.474   2.152   7.060 -0.3692  0.4503  1.4070
   51CHL1    C5 3708   5.598   2.168   7.240  0.0802  0.4199  0.7074
   51CHL1    C6 3709   5.489   2.152   7.321 -1.1955 -0.6126  0.8348
   51CHL1    H6 3710   5.397   2.136   7.262  0.3712 -0.7816 -1.7567
   51CHL1    C7 3711   5.497   2.154   7.476 -0.7480 -0.1616 -0.2799
   51CHL1   H7A 3712   5.427   2.228   7.521  0.0497  0.9264 -0.7763
   51CHL1   H7B 3713   5.470   2.059   7.527  0.3793 -0.6135 -0.4891
   51CHL1    C8 3714   5.638   2.195   7.522 -0.4252 -0.0403  0.4620
   51CHL1    H8 3715   5.643   2.306   7.517  0.2834 -0.1096 -2.4279
   51CHL1   C14 3716   5.646   2.142   7.665 -0.7525  0.7595  0.0432
   51CHL1   H14 3717   5.671   2.035   7.647  0.3233  0.7909  1.1623
   51CHL1   C15 3718   5.529   2.134   7.761  0.3818  0.0479 -0.5645
   51CHL1  H15A 3719   5.486   2.237   7.768 -1.0059 -0.5718  0.5702
   51CHL1  H15B 3720   5.450   2.063   7.729 -0.2810  0.0673  0.9156
   51CHL1   C16 3721   5.596   2.104   7.897 -0.6748 -0.4657  0.5863
   51CHL1  H16A 3722   5.561   2.166   7.982  0.6879 -0.5967  1.2557
   51CHL1  H16B 3723   5.568   2.001   7.925 -0.6020 -0.4965  0.5473
   51CHL1   C17 3724   5.752   2.110   7.879 -0.2723 -0.0805 -0.0874
   51CHL1   H17 3725   5.775   2.007   7.846  1.7996  0.6841 -1.2121
   51CHL1   C13 3726   5.767   2.187   7.747  0.1379 -0.5720 -0.3937
   51CHL1   C18 3727   5.773   2.337   7.772  0.2838  0.3732 -0.9288
   51CHL1  H18A 3728   5.783   2.380   7.669  1.1530 -0.3364 -1.1473
   51CHL1  H18B 3729   5.692   2.389   7.828 -0.5053  2.8569 -4.0519
   51CHL1  H18C 3730   5.870   2.357   7.822 -0.3042 -2.0099  1.3521
   51CHL1   C12 3731   5.889   2.139   7.672 -0.3989 -0.0336 -0.3219
   51CHL1  H12A 3732   5.985   2.165   7.721 -0.2789 -3.2126  1.4177
   51CHL1  H12B 3733   5.893   2.028   7.665  0.3242  0.0191 -0.8331
   51CHL1   C11 3734   5.893   2.172   7.517  0.2444 -0.1310 -0.0740
   51CHL1  H11A 3735   5.915   2.281   7.509  1.4660 -0.3165  0.4925
   51CHL1  H11B 3736   5.979   2.128   7.462  0.3897 -1.7526  1.3524
   51CHL1    C9 3737   5.759   2.140   7.442  0.4077 -0.0685  0.7161
   51CHL1    H9 3738   5.745   2.030   7.439 -2.4123  0.2076  0.9832
   51CHL1   C10 3739   5.751   2.182   7.291  0.2362  0.3837  0.6929
   51CHL1   C19 3740   5.800   2.325   7.254 -0.1885 -0.4568  0.1331
   51CHL1  H19A 3741   5.907   2.329   7.283  0.9678  3.6895 -3.5926
   51CHL1  H19B 3742   5.799   2.337   7.144  1.5916 -1.6717 -0.0603
   51CHL1  H19C 3743   5.735   2.405   7.295  1.4249  1.6938 -1.2944
   51CHL1    C1 3744   5.843   2.083   7.207  0.2946  0.0786  0.0928
   51CHL1   H1A 3745   5.951   2.097   7.230  0.8800 -1.1332 -1.7333
   51CHL1   H1B 3746   5.810   1.982   7.239  1.9729 -0.4578  0.1994
   51CHL1    C2 3747   5.823   2.093   7.059  0.1086  0.1225  0.3245
   51CHL1   H2A 3748   5.877   2.004   7.020 -2.6731 -0.6957 -1.9934
   51CHL1   H2B 3749   5.874   2.184   7.021  2.8156 -1.6673 -0.6400
   51CHL1   C20 3750   5.832   2.144   7.998 -0.8643 -0.4306  0.1401
   51CHL1   H20 3751   5.919   2.206   7.968 -2.1969  0.6282 -1.6897
   51CHL1   C21 3752   5.870   2.018   8.075 -0.7776  0.9575 -0.0385
   51CHL1  H21A 3753   5.787   1.946   8.088 -1.2900  1.2788 -1.3354
   51CHL1  H21B 3754   5.922   2.047   8.169  0.9109  0.7827 -0.8678
   51CHL1  H21C 3755   5.945   1.964   8.013 -1.1088  3.6910 -3.1159
   51CHL1   C22 3756   5.757   2.238   8.097  0.5926 -0.0878 -0.4409
   51CHL1  H22A 3757   5.686   2.313   8.057 -1.1576  0.0291  2.5374
   51CHL1  H22B 3758   5.687   2.173   8.155  0.9319 -1.3891 -1.4631
   51CHL1   C23 3759   5.845   2.310   8.204  0.4017  0.1058 -0.5126
   51CHL1  H23A 3760   5.782   2.369   8.274  1.8435  1.1061  0.0059
   51CHL1  H23B 3761   5.887   2.230   8.268 -1.4341 -0.1103  0.4519
   51CHL1   C24 3762   5.963   2.393   8.157  0.6677  0.5444  0.3748
   51CHL1  H24A 3763   6.033   2.324   8.107 -0.2183 -0.2251  0.1705
   51CHL1  H24B 3764   5.929   2.462   8.077  0.6832  0.4930  0.3238
   51CHL1   C25 3765   6.033   2.467   8.274 -0.8826 -0.2806  0.0848
   51CHL1   H25 3766   5.961   2.532   8.330  1.2923  2.2393  0.1662
   51CHL1   C26 3767   6.102   2.375   8.377 -0.0390  0.4188 -0.1047
   51CHL1  H26A 3768   6.185   2.326   8.320 -2.1578 -1.8193 -1.4521
   51CHL1  H26B 3769   6.150   2.420   8.467  3.1127 -2.5969 -0.0560
   51CHL1  H26C 3770   6.024   2.304   8.413  0.9133 -0.6625 -0.1138
   51CHL1   C27 3771   6.137   2.562   8.227 -0.2323 -0.2522  0.3019
   51CHL1  H27A 3772   6.160   2.626   8.314 -2.4684  2.8117 -1.2093
   51CHL1  H27B 3773   6.226   2.507   8.188 -0.6479 -0.7160 -0.0150
   51CHL1  H27C 3774   6.101   2.637   8.154 -2.5661 -1.2114  0.3865
   52CHL1    C3 3775   3.265   1.191   6.995  0.7478 -0.0851 -0.6011
   52CHL1    H3 3776   3.318   1.289   6.997 -1.8608  1.4197  0.5483
   52CHL1    O3 3777   3.234   1.144   6.861  0.2266  0.2994 -0.3252
   52CHL1   H3' 3778   3.151   1.103   6.884  1.3381 -0.7185  2.2947
   52CHL1    C4 3779   3.351   1.091   7.065 -0.6159 -0.9179 -0.1463
   52CHL1   H4A 3780   3.312   0.988   7.054  2.2654 -2.1783  0.3751
   52CHL1   H4B 3781   3.444   1.093   7.004  0.1279  1.2602  0.9494
   52CHL1    C5 3782   3.371   1.126   7.206 -0.6051  0.2764  0.2359
   52CHL1    C6 3783   3.492   1.126   7.260  0.4310  0.2313 -0.1208
   52CHL1    H6 3784   3.575   1.088   7.199  0.1653  0.0942 -0.3981
   52CHL1    C7 3785   3.532   1.165   7.401  0.3356 -0.4519 -0.4295
   52CHL1   H7A 3786   3.595   1.083   7.440 -1.8494 -1.3256  1.5321
   52CHL1   H7B 3787   3.596   1.256   7.396 -1.4819  0.9587  0.6895
   52CHL1    C8 3788   3.416   1.175   7.500  0.8842  0.3805  0.4994
   52CHL1    H8 3789   3.389   1.079   7.548  0.7304  1.1335  1.9788
   52CHL1   C14 3790   3.460   1.269   7.614 -0.9261 -0.1127  0.0705
   52CHL1   H14 3791   3.478   1.375   7.584 -0.3632  0.4992  2.3280
   52CHL1   C15 3792   3.587   1.236   7.692  0.2223  0.3626  0.3692
   52CHL1  H15A 3793   3.587   1.128   7.719  1.5361 -0.1185 -1.3483
   52CHL1  H15B 3794   3.682   1.257   7.640  0.2984 -2.3072 -0.7695
   52CHL1   C16 3795   3.570   1.321   7.819  0.3337 -0.1819 -1.3659
   52CHL1  H16A 3796   3.581   1.255   7.908  1.4791  0.7514 -0.7825
   52CHL1  H16B 3797   3.638   1.410   7.818 -1.0780  0.9199 -1.6760
   52CHL1   C17 3798   3.423   1.377   7.820 -0.0294  0.8676 -0.1009
   52CHL1   H17 3799   3.439   1.479   7.778 -0.6724  0.5448 -1.1663
   52CHL1   C13 3800   3.346   1.292   7.722 -0.2743  0.0415  0.5483
   52CHL1   C18 3801   3.305   1.156   7.792  0.0987 -1.1131  0.4997
   52CHL1  H18A 3802   3.218   1.179   7.858 -1.3900 -1.0439 -1.3808
   52CHL1  H18B 3803   3.252   1.089   7.721 -1.1805 -1.2871  1.5853
   52CHL1  H18C 3804   3.393   1.110   7.841  1.5244  0.3268 -0.5702
   52CHL1   C12 3805   3.226   1.365   7.648  0.0513  0.1172 -0.0398
   52CHL1  H12A 3806   3.138   1.384   7.713 -0.4318 -0.8434 -0.3850
   52CHL1  H12B 3807   3.273   1.462   7.619  0.0896  0.0274 -0.2849
   52CHL1   C11 3808   3.182   1.300   7.519 -0.3233 -0.0817  0.6780
   52CHL1  H11A 3809   3.114   1.215   7.542 -0.7714  0.1469  0.2420
   52CHL1  H11B 3810   3.121   1.375   7.463 -1.0804  0.2792  1.9489
   52CHL1    C9 3811   3.295   1.243   7.422 -0.3431  0.2870 -0.6684
   52CHL1    H9 3812   3.344   1.334   7.382  1.5908 -0.5784 -0.3788
   52CHL1   C10 3813   3.247   1.163   7.291 -0.1470 -0.3136 -0.0217
   52CHL1   C19 3814   3.189   1.030   7.335 -0.3076 -0.3426 -0.0040
   52CHL1  H19A 3815   3.098   1.050   7.395 -1.5799  1.1536 -2.2857
   52CHL1  H19B 3816   3.155   0.968   7.249  1.6746  0.3708 -1.3923
   52CHL1  H19C 3817   3.260   0.965   7.390  0.9307 -0.1203 -1.2730
   52CHL1    C1 3818   3.149   1.251   7.210  0.1464 -0.6935  0.0848
   52CHL1   H1A 3819   3.044   1.246   7.248 -1.4933  0.5686 -3.7695
   52CHL1   H1B 3820   3.176   1.358   7.216  1.9442 -1.0658 -0.6926
   52CHL1    C2 3821   3.133   1.203   7.068 -0.7395 -0.2964 -0.1110
   52CHL1   H2A 3822   3.059   1.270   7.018 -0.9631 -1.4583 -1.4094
   52CHL1   H2B 3823   3.087   1.102   7.061 -1.7731  0.2508 -2.3166
   52CHL1   C20 3824   3.366   1.386   7.962 -0.4405  0.1066  0.8122
   52CHL1   H20 3825   3.355   1.289   8.015  1.0512 -0.1301  0.7351
   52CHL1   C21 3826   3.232   1.454   7.961  0.0169 -0.5133 -0.0125
   52CHL1  H21A 3827   3.192   1.473   8.062 -1.5637 -2.3401 -0.2469
   52CHL1  H21B 3828   3.155   1.390   7.912 -1.1802  1.2463 -0.5385
   52CHL1  H21C 3829   3.230   1.554   7.911  0.4951  0.2269  1.4142
   52CHL1   C22 3830   3.455   1.469   8.053  0.6859 -0.0883  0.5191
   52CHL1  H22A 3831   3.559   1.432   8.052 -0.1316 -2.5390  0.1488
   52CHL1  H22B 3832   3.460   1.577   8.027  1.4412 -0.6438 -1.9306
   52CHL1   C23 3833   3.404   1.459   8.199  0.3735  0.0352 -0.0152
   52CHL1  H23A 3834   3.320   1.530   8.213  1.1114  0.9732 -0.1866
   52CHL1  H23B 3835   3.364   1.356   8.207 -1.4714  0.5705 -1.7067
   52CHL1   C24 3836   3.519   1.478   8.295  0.5631  1.2374 -0.2445
   52CHL1  H24A 3837   3.578   1.385   8.307 -3.5894 -1.4140  1.9980
   52CHL1  H24B 3838   3.586   1.562   8.266  1.6006  0.2934 -0.6230
   52CHL1   C25 3839   3.480   1.524   8.438  0.4695  0.6859 -0.1358
   52CHL1   H25 3840   3.439   1.626   8.427 -1.2041 -0.0115 -0.7004
   52CHL1   C26 3841   3.368   1.440   8.498  0.2311  0.1551  0.1999
   52CHL1  H26A 3842   3.361   1.462   8.606  0.7567  1.9667 -0.1097
   52CHL1  H26B 3843   3.267   1.475   8.470  0.9118  1.5748 -0.6072
   52CHL1  H26C 3844   3.383   1.330   8.488  0.0307  0.0863  0.6256
   52CHL1   C27 3845   3.608   1.515   8.526  0.1092  0.0114 -0.0439
   52CHL1  H27A 3846   3.583   1.578   8.614 -0.2470  0.3118 -0.3555
   52CHL1  H27B 3847   3.623   1.413   8.568 -0.8313  0.6612  2.0064
   52CHL1  H27C 3848   3.701   1.552   8.477  0.0090  1.3274  0.7079
   53CHL1    C3 3849   5.947   5.191   7.152 -0.0729  0.3777 -0.0933
   53CHL1    H3 3850   5.987   5.088   7.146  0.8666  0.8275 -4.6671
   53CHL1    O3 3851   5.908   5.251   7.029 -0.1914 -0.4413  0.0646
   53CHL1   H3' 3852   5.893   5.342   7.054  1.6310 -0.8938  3.3098
   53CHL1    C4 3853   5.821   5.203   7.244  0.4979  0.1314  0.2218
   53CHL1   H4A 3854   5.799   5.312   7.246 -0.4526 -0.0126 -0.9675
   53CHL1   H4B 3855   5.739   5.141   7.201  1.2079 -0.3445 -0.4789
   53CHL1    C5 3856   5.844   5.158   7.389 -0.3728 -1.3184  0.2803
   53CHL1    C6 3857   5.773   5.056   7.441  0.1084  0.2504  0.1012
   53CHL1    H6 3858   5.691   5.017   7.379  0.5830 -0.3314 -0.1723
   53CHL1    C7 3859   5.783   5.010   7.584  0.1566 -0.9845  0.6568
   53CHL1   H7A 3860   5.683   5.026   7.630  0.8584  2.1125  1.3313
   53CHL1   H7B 3861   5.827   4.909   7.601  0.1490 -1.0452  0.3208
   53CHL1    C8 3862   5.864   5.120   7.665  0.6158  0.1777 -0.3249
   53CHL1    H8 3863   5.800   5.211   7.673  1.7621  0.8997  1.2616
   53CHL1   C14 3864   5.891   5.073   7.800 -0.1763  0.0606  0.1728
   53CHL1   H14 3865   5.955   4.986   7.775 -0.6850  0.0655 -1.2376
   53CHL1   C15 3866   5.778   5.016   7.887 -0.5656 -0.0504 -0.3260
   53CHL1  H15A 3867   5.692   5.085   7.895 -1.4220 -1.1010 -0.1407
   53CHL1  H15B 3868   5.753   4.911   7.858  0.1288  0.3311 -2.5051
   53CHL1   C16 3869   5.840   5.011   8.033  0.6232  0.0060  0.3402
   53CHL1  H16A 3870   5.773   5.070   8.099 -0.7270 -0.3122 -0.7177
   53CHL1  H16B 3871   5.833   4.905   8.064  2.3650 -0.8274 -1.8033
   53CHL1   C17 3872   5.983   5.069   8.021 -0.5999 -0.5580 -0.4301
   53CHL1   H17 3873   6.051   4.986   7.995 -1.4510 -1.5041  0.2561
   53CHL1   C13 3874   5.979   5.157   7.893 -0.1573 -0.0977 -0.0573
   53CHL1   C18 3875   5.900   5.283   7.922  0.1169 -0.1297  0.0105
   53CHL1  H18A 3876   5.802   5.272   7.973  0.8350 -0.9801  1.2504
   53CHL1  H18B 3877   5.964   5.359   7.973  1.1763  1.5097 -3.4289
   53CHL1  H18C 3878   5.889   5.347   7.831  1.7391  0.8145  0.4288
   53CHL1   C12 3879   6.117   5.188   7.822  0.7282  0.4112  0.1405
   53CHL1  H12A 3880   6.185   5.254   7.881 -0.7902 -0.4289  3.0358
   53CHL1  H12B 3881   6.164   5.087   7.815 -2.8228 -1.6084  2.4231
   53CHL1   C11 3882   6.090   5.247   7.685  0.3177  0.1494 -0.3790
   53CHL1  H11A 3883   6.049   5.349   7.701  1.1262  0.2243  1.5029
   53CHL1  H11B 3884   6.182   5.275   7.630 -0.6146  0.3922 -1.8687
   53CHL1    C9 3885   5.989   5.165   7.593 -1.2068 -0.5409 -0.4864
   53CHL1    H9 3886   6.048   5.074   7.566  1.4934  0.8196  0.4692
   53CHL1   C10 3887   5.957   5.230   7.454 -0.2169 -0.5365  0.5844
   53CHL1   C19 3888   5.917   5.379   7.476  0.0981  1.0140 -0.1597
   53CHL1  H19A 3889   6.005   5.431   7.519  1.7089 -3.9718  3.5414
   53CHL1  H19B 3890   5.893   5.428   7.379 -1.9059 -1.1976 -0.8754
   53CHL1  H19C 3891   5.832   5.377   7.548  0.8144  0.6088  0.6858
   53CHL1    C1 3892   6.079   5.222   7.364 -0.0920  0.5387  0.6900
   53CHL1   H1A 3893   6.156   5.285   7.413 -0.1531 -0.1564  1.7108
   53CHL1   H1B 3894   6.106   5.115   7.356 -0.8824  0.4350 -0.9896
   53CHL1    C2 3895   6.056   5.273   7.218 -0.0551 -0.6022 -0.1830
   53CHL1   H2A 3896   6.158   5.271   7.173  2.1503  2.7113  3.9811
   53CHL1   H2B 3897   6.025   5.380   7.220 -2.6648 -1.2917  0.0816
   53CHL1   C20 3898   6.043   5.134   8.149  0.4243 -0.3561 -0.3760
   53CHL1   H20 3899   5.996   5.234   8.164  0.4202 -0.5760  1.3294
   53CHL1   C21 3900   6.195   5.157   8.139  1.1117  0.3981  0.2292
   53CHL1  H21A 3901   6.213   5.253   8.086 -2.7391  1.3001  0.2542
   53CHL1  H21B 3902   6.247   5.072   8.089 -0.3905 -0.4783  0.0989
   53CHL1  H21C 3903   6.240   5.179   8.239  1.4034  2.5263 -0.3290
   53CHL1   C22 3904   6.021   5.066   8.290  0.0179  0.3194  0.3703
   53CHL1  H22A 3905   6.069   5.114   8.377 -0.0189  2.2838 -0.6449
   53CHL1  H22B 3906   5.911   5.054   8.296  0.0344 -1.9085 -1.8848
   53CHL1   C23 3907   6.085   4.926   8.290 -0.1543 -0.1725  0.1200
   53CHL1  H23A 3908   6.012   4.872   8.227 -0.4173  2.0677 -1.6543
   53CHL1  H23B 3909   6.185   4.921   8.241  0.9570  0.3468  2.2200
   53CHL1   C24 3910   6.109   4.854   8.422  0.6883  0.4010 -0.2634
   53CHL1  H24A 3911   6.021   4.862   8.489 -0.2713  2.4489 -1.6613
   53CHL1  H24B 3912   6.131   4.746   8.404 -1.4670 -0.0605 -0.3393
   53CHL1   C25 3913   6.227   4.909   8.504 -0.6876 -0.4485  0.4300
   53CHL1   H25 3914   6.197   5.014   8.524  0.2592 -0.3862  1.6264
   53CHL1   C26 3915   6.232   4.844   8.642  0.3397 -0.4101 -0.9894
   53CHL1  H26A 3916   6.238   4.924   8.720 -0.5074 -1.0471 -0.2499
   53CHL1  H26B 3917   6.143   4.779   8.660 -0.4361  0.6495 -0.8594
   53CHL1  H26C 3918   6.318   4.777   8.663  2.1020  2.6608  3.0001
   53CHL1   C27 3919   6.364   4.924   8.438  0.2676 -0.0071  0.7490
   53CHL1  H27A 3920   6.380   4.839   8.368 -0.7878 -0.4915  1.0820
   53CHL1  H27B 3921   6.374   5.017   8.378  0.4052 -0.6978 -0.3470
   53CHL1  H27C 3922   6.451   4.941   8.505 -0.0910  0.9835  0.9776
   54CHL1    C3 3923   5.055   0.169   7.082  0.1650 -0.2687 -0.1034
   54CHL1    H3 3924   4.997   0.263   7.091  0.2345 -0.1979 -0.3772
   54CHL1    O3 3925   5.063   0.153   6.945  0.1266 -0.6250 -0.1185
   54CHL1   H3' 3926   5.115   0.226   6.909 -1.5285 -0.0733 -1.4987
   54CHL1    C4 3927   5.191   0.190   7.150  0.2930 -0.1100  0.0350
   54CHL1   H4A 3928   5.248   0.098   7.127  2.0989  0.7105  1.0049
   54CHL1   H4B 3929   5.237   0.279   7.102 -0.0925 -0.2022 -0.5097
   54CHL1    C5 3930   5.177   0.205   7.302  0.4913 -0.5128  0.1651
   54CHL1    C6 3931   5.226   0.317   7.358 -0.3317 -0.3811  0.8180
   54CHL1    H6 3932   5.275   0.390   7.291  0.8644 -2.0795 -0.2415
   54CHL1    C7 3933   5.239   0.337   7.511 -0.2725 -0.3911  0.1778
   54CHL1   H7A 3934   5.339   0.378   7.537 -0.2254 -1.0221  1.0700
   54CHL1   H7B 3935   5.161   0.407   7.545  0.9587  1.2257 -0.2223
   54CHL1    C8 3936   5.211   0.202   7.588 -0.2727  0.2686  0.2741
   54CHL1    H8 3937   5.298   0.135   7.571 -1.4584 -1.2791  0.1716
   54CHL1   C14 3938   5.190   0.224   7.735 -0.5965  0.1078  0.4565
   54CHL1   H14 3939   5.107   0.296   7.747 -0.7879 -0.3965  2.6858
   54CHL1   C15 3940   5.303   0.295   7.809  0.1515  0.2566 -0.3938
   54CHL1  H15A 3941   5.398   0.247   7.779  0.0184 -0.7734  0.7443
   54CHL1  H15B 3942   5.304   0.405   7.790  1.1532  0.4809  0.7807
   54CHL1   C16 3943   5.268   0.266   7.957  0.2624  0.6461 -0.0109
   54CHL1  H16A 3944   5.365   0.237   8.002  0.5650  1.2346 -0.2745
   54CHL1  H16B 3945   5.228   0.354   8.011  0.5849  1.3542 -0.8872
   54CHL1   C17 3946   5.146   0.161   7.957 -0.7791 -0.4914 -0.6971
   54CHL1   H17 3947   5.058   0.228   7.970 -0.2767  0.0279  0.1514
   54CHL1   C13 3948   5.148   0.101   7.817 -0.0624  0.9671 -0.0694
   54CHL1   C18 3949   5.257  -0.006   7.812  0.5363 -0.0915  0.8109
   54CHL1  H18A 3950   5.257  -0.048   7.709  1.9885  2.5969 -0.4195
   54CHL1  H18B 3951   5.362   0.028   7.827  2.3806 -3.0554 -3.3811
   54CHL1  H18C 3952   5.237  -0.093   7.877  1.8557 -2.5456 -1.8570
   54CHL1   C12 3953   5.012   0.055   7.755  0.8268  0.4343  0.0710
   54CHL1  H12A 3954   4.986  -0.038   7.809  1.4461 -1.0661 -2.1130
   54CHL1  H12B 3955   4.928   0.126   7.773 -0.6294 -1.4374  1.0094
   54CHL1   C11 3956   5.023   0.019   7.610  0.1756 -0.3082  0.1193
   54CHL1  H11A 3957   5.090  -0.069   7.599 -0.6431 -0.6771 -2.8118
   54CHL1  H11B 3958   4.926   0.003   7.558  0.9375  1.0958 -1.8704
   54CHL1    C9 3959   5.087   0.130   7.525 -0.9622 -0.0890  0.7199
   54CHL1    H9 3960   5.007   0.207   7.526 -1.6576 -0.8118  0.8373
   54CHL1   C10 3961   5.101   0.094   7.372  0.4788  0.1900 -0.5359
   54CHL1   C19 3962   5.178  -0.044   7.364 -0.1907  0.3785 -0.4553
   54CHL1  H19A 3963   5.128  -0.121   7.426  0.8170  0.7123  0.8174
   54CHL1  H19B 3964   5.182  -0.073   7.257  2.4425  0.7354 -0.5063
   54CHL1  H19C 3965   5.283  -0.034   7.397 -0.8168  2.5590  1.1766
   54CHL1    C1 3966   4.965   0.078   7.303 -0.3654  0.3026 -0.2895
   54CHL1   H1A 3967   4.923  -0.017   7.343  1.3003  0.3491  1.7644
   54CHL1   H1B 3968   4.896   0.155   7.343 -0.1585 -0.7302  2.1900
   54CHL1    C2 3969   4.967   0.065   7.150 -0.5006 -0.1199  0.2297
   54CHL1   H2A 3970   4.861   0.073   7.117 -0.6403  1.4382  0.9663
   54CHL1   H2B 3971   4.994  -0.037   7.117  0.5250  0.3373 -0.3957
   54CHL1   C20 3972   5.141   0.075   8.085 -0.2914 -0.3399  0.3503
   54CHL1   H20 3973   5.230   0.011   8.067  0.0532  0.3469 -0.4314
   54CHL1   C21 3974   5.014  -0.006   8.091 -0.6418 -1.2116  0.4053
   54CHL1  H21A 3975   4.998  -0.069   8.181 -0.6013 -2.3770 -0.3743
   54CHL1  H21B 3976   5.002  -0.074   8.003 -1.8128  0.8420 -1.1099
   54CHL1  H21C 3977   4.933   0.069   8.094  0.2939 -0.1806  0.6244
   54CHL1   C22 3978   5.168   0.159   8.213  0.4388 -0.9157  0.0215
   54CHL1  H22A 3979   5.261   0.220   8.204  2.0493 -2.9430  1.7045
   54CHL1  H22B 3980   5.089   0.237   8.215  0.0635 -1.2480 -1.2568
   54CHL1   C23 3981   5.168   0.084   8.349  0.5485 -1.0690  0.2004
   54CHL1  H23A 3982   5.199  -0.023   8.344  0.4717 -1.4107  4.0042
   54CHL1  H23B 3983   5.226   0.137   8.427 -0.9809 -0.1820  0.7985
   54CHL1   C24 3984   5.030   0.083   8.420 -0.4531 -0.4636  0.2044
   54CHL1  H24A 3985   4.952   0.046   8.351  0.2324  0.9600 -1.4195
   54CHL1  H24B 3986   5.027   0.007   8.501  3.7792 -0.3051  0.7519
   54CHL1   C25 3987   4.995   0.224   8.479  0.7304  0.3241  0.5744
   54CHL1   H25 3988   5.068   0.288   8.425  1.2024 -1.4715 -1.0361
   54CHL1   C26 3989   4.857   0.275   8.437 -0.3793 -0.0475 -0.0122
   54CHL1  H26A 3990   4.858   0.281   8.326  0.3811 -0.7166 -0.0566
   54CHL1  H26B 3991   4.774   0.213   8.476  0.7018  0.5726  3.6176
   54CHL1  H26C 3992   4.840   0.377   8.476  0.4364  0.4018 -0.7748
   54CHL1   C27 3993   4.996   0.210   8.628  0.7361  0.1694  0.0744
   54CHL1  H27A 3994   4.959   0.305   8.671  1.7400  0.3894  0.4864
   54CHL1  H27B 3995   4.926   0.135   8.671  1.6131  0.4924  2.2197
   54CHL1  H27C 3996   5.098   0.190   8.666  0.4595 -1.3387  0.0857
   55CHL1    C3 3997   6.108   3.924   7.096 -0.2930 -0.2610 -0.0477
   55CHL1    H3 3998   6.210   3.879   7.101  0.9346  2.4475  1.9741
   55CHL1    O3 3999   6.064   3.952   6.966  0.0599 -0.7630 -0.2874
   55CHL1   H3' 4000   6.146   3.970   6.919  0.0653  0.2181  0.0569
   55CHL1    C4 4001   6.003   3.832   7.172 -0.0820 -0.3006  0.0704
   55CHL1   H4A 4002   5.903   3.879   7.159  0.1160  0.0752 -0.0964
   55CHL1   H4B 4003   5.998   3.738   7.112 -0.4252 -1.4210  1.7515
   55CHL1    C5 4004   6.037   3.806   7.319  0.5456 -0.3299 -0.2114
   55CHL1    C6 4005   6.052   3.682   7.369 -0.0818 -0.5031  1.2262
   55CHL1    H6 4006   6.029   3.593   7.310 -1.0295  1.1125 -0.9824
   55CHL1    C7 4007   6.095   3.655   7.507  0.0281  0.1048  0.1899
   55CHL1   H7A 4008   6.033   3.570   7.544 -1.0851 -0.8511 -3.4383
   55CHL1   H7B 4009   6.203   3.631   7.510  0.3519  1.4428  3.3281
   55CHL1    C8 4010   6.079   3.774   7.598 -0.4994 -0.2072 -0.8407
   55CHL1    H8 4011   5.970   3.774   7.620 -0.1410 -1.5089  1.1607
   55CHL1   C14 4012   6.144   3.742   7.726 -0.2429  1.2293  0.1941
   55CHL1   H14 4013   6.252   3.743   7.700 -0.5890 -1.2024 -1.7333
   55CHL1   C15 4014   6.132   3.598   7.794 -0.4597 -0.0342 -0.7561
   55CHL1  H15A 4015   6.027   3.565   7.777 -0.7361  0.6110 -0.3076
   55CHL1  H15B 4016   6.200   3.516   7.761 -0.4070  0.1334 -1.0758
   55CHL1   C16 4017   6.154   3.622   7.938 -0.5259 -0.2988 -0.2974
   55CHL1  H16A 4018   6.064   3.619   8.003  0.0286  0.5912  0.5434
   55CHL1  H16B 4019   6.235   3.564   7.988  2.2473  1.5501 -2.3317
   55CHL1   C17 4020   6.204   3.771   7.941 -0.8673 -0.4135  0.9536
   55CHL1   H17 4021   6.310   3.776   7.907 -1.0067 -0.6324  0.4748
   55CHL1   C13 4022   6.132   3.841   7.826  0.8951  0.3383  0.4166
   55CHL1   C18 4023   5.989   3.868   7.876  0.0833  0.3392 -0.7661
   55CHL1  H18A 4024   5.922   3.889   7.790 -0.7049  0.9433 -0.0185
   55CHL1  H18B 4025   5.948   3.784   7.936  1.2663  1.1910  1.3479
   55CHL1  H18C 4026   5.985   3.953   7.947  0.4938 -1.1870  1.1854
   55CHL1   C12 4027   6.189   3.983   7.776 -0.6100  0.2345  0.1104
   55CHL1  H12A 4028   6.168   4.063   7.849 -1.5702  1.1478 -1.1318
   55CHL1  H12B 4029   6.299   3.979   7.759 -0.4234  3.2669  0.1292
   55CHL1   C11 4030   6.138   4.020   7.638  0.4073  0.4239  0.0216
   55CHL1  H11A 4031   6.044   4.074   7.658 -0.3208 -1.0097  0.6151
   55CHL1  H11B 4032   6.205   4.095   7.591  1.2210  0.2418  0.8658
   55CHL1    C9 4033   6.134   3.900   7.540 -0.0185 -0.1708  0.1764
   55CHL1    H9 4034   6.239   3.873   7.517  0.7121 -0.3516  3.2948
   55CHL1   C10 4035   6.070   3.932   7.401  0.7289  0.5397 -0.4434
   55CHL1   C19 4036   5.938   4.012   7.427 -0.2960  0.0207  0.7058
   55CHL1  H19A 4037   5.872   4.032   7.340  0.8536 -0.9981 -0.4472
   55CHL1  H19B 4038   5.881   3.968   7.512  2.0882 -1.8803  1.4215
   55CHL1  H19C 4039   5.975   4.112   7.455 -1.2306  1.3729 -2.3842
   55CHL1    C1 4040   6.169   4.015   7.322 -0.8389  0.5407 -0.1160
   55CHL1   H1A 4041   6.205   4.110   7.366 -0.3601  0.5496 -0.5254
   55CHL1   H1B 4042   6.259   3.953   7.305 -0.8598  0.2181  0.8509
   55CHL1    C2 4043   6.132   4.052   7.177 -0.5076 -0.3843  0.0881
   55CHL1   H2A 4044   6.206   4.115   7.125  0.0270  0.7237  2.0890
   55CHL1   H2B 4045   6.032   4.098   7.191 -0.8686 -1.5565  1.6503
   55CHL1   C20 4046   6.219   3.845   8.080 -0.2886 -0.0755  0.5528
   55CHL1   H20 4047   6.126   3.903   8.098 -1.0308 -1.2639  0.6617
   55CHL1   C21 4048   6.335   3.951   8.077 -0.2409 -0.3095 -0.0597
   55CHL1  H21A 4049   6.316   4.028   7.999 -1.0414 -0.6371 -0.2012
   55CHL1  H21B 4050   6.427   3.890   8.059  1.8471  2.7839 -0.5771
   55CHL1  H21C 4051   6.359   4.004   8.171  0.9355  1.1516 -1.1273
   55CHL1   C22 4052   6.232   3.747   8.207 -0.6974 -0.2933 -0.1555
   55CHL1  H22A 4053   6.218   3.819   8.291 -1.0002 -0.1545 -0.3265
   55CHL1  H22B 4054   6.144   3.681   8.221  0.4797 -1.9374 -0.2295
   55CHL1   C23 4055   6.368   3.679   8.220 -0.7196  0.3746  0.3644
   55CHL1  H23A 4056   6.380   3.624   8.124 -2.1588  1.4778 -0.4893
   55CHL1  H23B 4057   6.452   3.751   8.210  0.7187 -1.4014 -1.3301
   55CHL1   C24 4058   6.392   3.584   8.341 -0.5738 -0.7214  0.7078
   55CHL1  H24A 4059   6.380   3.635   8.439 -3.3357 -0.2875  0.2387
   55CHL1  H24B 4060   6.303   3.518   8.328 -1.7138  0.9869 -0.6880
   55CHL1   C25 4061   6.521   3.501   8.334  0.4390  0.1861 -0.7347
   55CHL1   H25 4062   6.538   3.453   8.235  4.0216 -0.0959 -0.1060
   55CHL1   C26 4063   6.636   3.599   8.371 -0.0110  0.7091 -0.4049
   55CHL1  H26A 4064   6.638   3.690   8.308 -0.2049 -0.0295 -1.4933
   55CHL1  H26B 4065   6.626   3.636   8.476 -4.1096 -1.2832  0.1101
   55CHL1  H26C 4066   6.736   3.549   8.370  0.5422  1.7652 -2.0532
   55CHL1   C27 4067   6.520   3.384   8.437 -0.1028  0.6723 -0.0102
   55CHL1  H27A 4068   6.430   3.325   8.408 -0.9168  2.5303 -1.4535
   55CHL1  H27B 4069   6.611   3.322   8.423 -1.5404 -1.9024  1.2880
   55CHL1  H27C 4070   6.507   3.412   8.544 -0.1399 -1.7697  0.6844
   56CHL1    C3 4071   2.505   5.876   6.836  0.7080  0.0706 -0.0091
   56CHL1    H3 4072   2.520   5.780   6.891 -1.4712 -0.1541  0.2866
   56CHL1    O3 4073   2.547   5.842   6.706  0.1211 -0.0772  0.1804
   56CHL1   H3' 4074   2.541   5.920   6.651  0.1751 -0.8734 -0.9849
   56CHL1    C4 4075   2.349   5.902   6.837  0.0073  0.4983 -0.1515
   56CHL1   H4A 4076   2.324   5.977   6.759 -1.9340 -1.9859 -2.0533
   56CHL1   H4B 4077   2.292   5.812   6.806  1.2377 -0.0322 -0.9418
   56CHL1    C5 4078   2.300   5.942   6.973 -0.0803 -0.7197 -0.5083
   56CHL1    C6 4079   2.199   5.877   7.038 -0.1887  0.1816 -0.1903
   56CHL1    H6 4080   2.150   5.797   6.980 -1.4308  0.6767  0.1444
   56CHL1    C7 4081   2.161   5.906   7.180 -0.0805  0.3747 -0.0176
   56CHL1   H7A 4082   2.055   5.884   7.202  0.0529  0.5287  0.8158
   56CHL1   H7B 4083   2.213   5.830   7.242 -1.4489  0.4445  1.2924
   56CHL1    C8 4084   2.214   6.036   7.232  0.6673  0.0899 -0.2474
   56CHL1    H8 4085   2.149   6.116   7.190  0.5541  1.3914  2.2085
   56CHL1   C14 4086   2.193   6.047   7.383  0.0954 -0.0361 -0.5218
   56CHL1   H14 4087   2.262   5.971   7.426  0.6029 -0.0052 -1.2655
   56CHL1   C15 4088   2.055   6.002   7.433  0.4696 -0.0854  0.3337
   56CHL1  H15A 4089   1.981   6.071   7.389  1.4458  3.2987  3.4587
   56CHL1  H15B 4090   2.028   5.895   7.433 -0.9413  0.2522  0.5506
   56CHL1   C16 4091   2.062   6.057   7.578  0.0180  0.4859  0.1238
   56CHL1  H16A 4092   1.980   6.129   7.598  0.3547  1.8135 -2.7320
   56CHL1  H16B 4093   2.076   5.978   7.654 -0.0141  2.0966  1.8733
   56CHL1   C17 4094   2.188   6.145   7.595 -0.6990 -0.3288  0.3863
   56CHL1   H17 4095   2.273   6.083   7.631  1.4563  0.8338 -2.3320
   56CHL1   C13 4096   2.232   6.175   7.444 -0.1764 -0.7428 -0.3688
   56CHL1   C18 4097   2.151   6.294   7.396 -0.0760  0.6442 -0.0032
   56CHL1  H18A 4098   2.207   6.375   7.448  1.3147  0.4304 -1.1065
   56CHL1  H18B 4099   2.165   6.308   7.287 -1.9792  0.9451 -0.2378
   56CHL1  H18C 4100   2.045   6.294   7.429  1.3573  0.6927  5.5129
   56CHL1   C12 4101   2.387   6.206   7.426  0.5630  0.4492  0.6628
   56CHL1  H12A 4102   2.422   6.309   7.448 -0.7496  1.0523  0.0350
   56CHL1  H12B 4103   2.458   6.134   7.472  0.5374  0.2376  0.3782
   56CHL1   C11 4104   2.413   6.192   7.266 -0.0131 -0.5757  0.0137
   56CHL1  H11A 4105   2.366   6.277   7.213 -0.8451 -1.4879 -0.7407
   56CHL1  H11B 4106   2.523   6.190   7.249 -0.1129 -0.2651 -0.7011
   56CHL1    C9 4107   2.355   6.061   7.196  0.6977 -0.1366 -0.5371
   56CHL1    H9 4108   2.412   5.978   7.243  2.5414  1.4064  0.1102
   56CHL1   C10 4109   2.381   6.054   7.044 -0.5286 -0.3618 -0.0233
   56CHL1   C19 4110   2.350   6.189   6.968  0.1221 -0.3333 -0.1276
   56CHL1  H19A 4111   2.367   6.176   6.859 -1.8645 -1.2431 -0.3846
   56CHL1  H19B 4112   2.241   6.213   6.975  0.3423  0.5629  0.2973
   56CHL1  H19C 4113   2.399   6.277   7.014  0.6197 -0.7062  0.0671
   56CHL1    C1 4114   2.534   6.038   7.028  0.0498  0.6955 -0.2911
   56CHL1   H1A 4115   2.583   6.130   7.066 -1.4125  1.9235 -1.2612
   56CHL1   H1B 4116   2.565   5.955   7.095 -2.0776 -1.8081 -2.1777
   56CHL1    C2 4117   2.583   5.995   6.889 -0.3219 -0.2569 -0.3169
   56CHL1   H2A 4118   2.692   5.973   6.890 -0.4983 -1.1731  0.8928
   56CHL1   H2B 4119   2.572   6.091   6.835  1.2943  2.6996  4.0902
   56CHL1   C20 4120   2.178   6.259   7.703  0.7621  1.0013 -0.3912
   56CHL1   H20 4121   2.095   6.325   7.672 -0.0912 -0.0409 -0.3905
   56CHL1   C21 4122   2.305   6.338   7.701  0.0560 -0.2962 -0.1840
   56CHL1  H21A 4123   2.310   6.419   7.777  1.1673 -1.3217  0.8889
   56CHL1  H21B 4124   2.313   6.386   7.602  2.1586 -0.9365 -0.3725
   56CHL1  H21C 4125   2.395   6.276   7.720 -1.1895 -1.6164  1.7728
   56CHL1   C22 4126   2.142   6.202   7.839  0.1868 -0.1783 -0.0630
   56CHL1  H22A 4127   2.079   6.110   7.839 -1.5126  0.9422 -0.1294
   56CHL1  H22B 4128   2.231   6.175   7.900 -0.2172  2.8866  2.1260
   56CHL1   C23 4129   2.069   6.302   7.933  0.1123 -0.1164 -0.4515
   56CHL1  H23A 4130   2.135   6.387   7.963 -0.6344  0.2501  0.1538
   56CHL1  H23B 4131   1.986   6.350   7.876  0.1711  1.2132  0.5444
   56CHL1   C24 4132   1.990   6.245   8.061 -0.4762 -0.1126  0.2639
   56CHL1  H24A 4133   1.915   6.168   8.033  0.1656 -0.8521  0.5562
   56CHL1  H24B 4134   2.068   6.191   8.120 -1.4338 -2.3776 -0.4482
   56CHL1   C25 4135   1.914   6.350   8.149  0.4489  0.6005 -0.3954
   56CHL1   H25 4136   1.872   6.431   8.085 -0.4536 -1.2027 -2.1963
   56CHL1   C26 4137   1.785   6.282   8.224  0.2587 -0.0500 -0.8693
   56CHL1  H26A 4138   1.815   6.187   8.272  2.2892  0.5428 -0.8388
   56CHL1  H26B 4139   1.704   6.250   8.155 -1.1110 -0.4231  0.8652
   56CHL1  H26C 4140   1.737   6.350   8.298 -1.0872 -1.2011 -0.6575
   56CHL1   C27 4141   2.002   6.417   8.254  0.0004 -0.7171  0.5831
   56CHL1  H27A 4142   2.041   6.344   8.327  0.7034 -0.2809  0.6508
   56CHL1  H27B 4143   2.090   6.473   8.215 -0.4653 -0.7342 -0.5375
   56CHL1  H27C 4144   1.944   6.481   8.324 -1.2661 -1.9459  0.7065
   57SAPC     N 4145   6.272   3.246  11.291 -0.6979 -0.5529  0.4361
   57SAPC   C12 4146   6.199   3.266  11.162 -0.3004 -0.7672 -0.0191
   57SAPC  H12A 4147   6.199   3.365  11.120  2.0639 -0.5298  0.4007
   57SAPC  H12B 4148   6.093   3.251  11.177 -0.4041 -0.6122 -0.5962
   57SAPC   C13 4149   6.308   3.377  11.350 -0.0462  0.1206 -0.1107
   57SAPC  H13A 4150   6.340   3.367  11.453 -0.6997 -2.6906 -0.1088
   57SAPC  H13B 4151   6.377   3.434  11.289 -0.4018  2.2086  1.3369
   57SAPC  H13C 4152   6.220   3.439  11.358 -0.6828 -0.6835 -0.7827
   57SAPC   C14 4153   6.199   3.181  11.386  0.7032  0.5194 -0.8034
   57SAPC  H14A 4154   6.246   3.180  11.483 -3.0430  0.6661  1.1703
   57SAPC  H14B 4155   6.107   3.235  11.403  0.1525 -0.7685  0.5463
   57SAPC  H14C 4156   6.178   3.079  11.359 -0.9779  0.2787  1.1909
   57SAPC   C15 4157   6.403   3.178  11.289  0.1719 -0.2890  1.1055
   57SAPC  H15A 4158   6.450   3.160  11.384  1.5334 -1.3109  0.2948
   57SAPC  H15B 4159   6.390   3.080  11.244  1.6576 -0.0541  0.0435
   57SAPC  H15C 4160   6.481   3.225  11.230 -1.3478  0.5805 -0.2867
   57SAPC   C11 4161   6.234   3.174  11.049  0.1958  0.4649 -0.0323
   57SAPC  H11A 4162   6.344   3.166  11.045  0.0870 -0.7680 -1.3426
   57SAPC  H11B 4163   6.205   3.209  10.948  0.2932 -0.0844 -0.2537
   57SAPC     P 4164   6.038   3.014  11.029  0.0584 -0.2515 -0.6106
   57SAPC   O13 4165   6.019   2.866  11.025  0.3374 -0.3719 -0.3695
   57SAPC   O14 4166   5.939   3.092  11.105 -0.5080  0.5285  0.0714
   57SAPC   O12 4167   6.182   3.047  11.082  0.1737 -0.0019 -0.1870
   57SAPC   O11 4168   6.030   3.068  10.881  0.0164 -0.2034  0.2472
   57SAPC    C1 4169   6.013   2.995  10.765 -0.0362 -0.0900  0.0429
   57SAPC    HA 4170   5.931   2.922  10.781 -1.2418  0.2430 -3.6639
   57SAPC    HB 4171   5.982   3.055  10.677  1.0552  1.2337  0.5162
   57SAPC    C2 4172   6.151   2.927  10.736  0.1344 -0.5752  0.2151
   57SAPC    HS 4173   6.175   2.857  10.819 -0.0470 -2.0564 -0.9420
   57SAPC   O21 4174   6.255   3.019  10.730 -0.4074  0.1895 -0.0098
   57SAPC   C21 4175   6.372   2.968  10.739 -0.1961  0.2719 -0.1805
   57SAPC   O22 4176   6.401   2.851  10.753  0.1211 -0.2532 -0.0248
   57SAPC   C22 4177   6.474   3.081  10.717 -0.6288 -0.1966  0.4127
   57SAPC   H2R 4178   6.438   3.164  10.782 -1.7861 -1.9160  2.0847
   57SAPC   H2S 4179   6.568   3.039  10.759  0.2438 -0.0869 -1.3554
   57SAPC    C3 4180   6.151   2.828  10.612  0.8153 -0.3211  0.9158
   57SAPC    HX 4181   6.056   2.771  10.621  0.0005  0.3810 -2.0478
   57SAPC    HY 4182   6.236   2.758  10.601  0.4121 -0.5925 -0.7888
   57SAPC   O31 4183   6.144   2.898  10.487  0.1039 -0.3186  0.5734
   57SAPC   C31 4184   6.155   2.839  10.371  0.1457 -0.6669 -0.2252
   57SAPC   O32 4185   6.187   2.724  10.349 -0.0352  0.5866 -0.0160
   57SAPC   C32 4186   6.128   2.936  10.257  0.3579  0.6284  0.2489
   57SAPC   H2X 4187   6.200   3.020  10.245 -0.8185  1.8181  1.3194
   57SAPC   H2Y 4188   6.031   2.988  10.270 -0.4644 -0.3109 -1.7094
   57SAPC   C23 4189   6.505   3.114  10.572 -0.3128  0.2018 -0.4484
   57SAPC   H3R 4190   6.522   3.223  10.579 -1.2951  0.3032  0.7325
   57SAPC   H3S 4191   6.424   3.096  10.498 -0.5615 -0.4674 -0.0232
   57SAPC   C24 4192   6.633   3.041  10.530 -0.3465 -0.9487 -0.3692
   57SAPC   H4R 4193   6.611   2.932  10.528  0.0346 -1.0209 -0.9556
   57SAPC   H4S 4194   6.706   3.068  10.610 -2.3116  2.9775  0.3145
   57SAPC   C25 4195   6.684   3.085  10.395 -0.2974 -0.2867 -0.6427
   57SAPC   H5R 4196   6.783   3.131  10.409  0.9870 -3.0803 -0.0763
   57SAPC   C26 4197   6.626   3.063  10.271  0.3102 -0.3888  0.3906
   57SAPC   H6R 4198   6.687   3.101  10.188  0.5074 -0.2411  0.6015
   57SAPC   C27 4199   6.495   2.997  10.232 -0.1753  0.6025  0.1459
   57SAPC   H7R 4200   6.423   3.059  10.174 -0.1608 -2.4885 -3.6074
   57SAPC   H7S 4201   6.440   2.972  10.325 -0.2424 -2.2439 -0.5558
   57SAPC   C28 4202   6.530   2.873  10.158  0.9781  0.7441 -0.1875
   57SAPC   H8R 4203   6.565   2.791  10.223  0.7220  0.9159  0.1682
   57SAPC   C29 4204   6.551   2.863  10.029  0.3890 -0.1566  0.0155
   57SAPC   H9R 4205   6.570   2.761   9.991 -1.2464 -1.4621  2.4303
   57SAPC  C210 4206   6.531   2.962   9.919 -1.1271  0.4473  0.3688
   57SAPC  H10R 4207   6.447   3.032   9.940 -0.7273  1.2210 -0.5233
   57SAPC  H10S 4208   6.498   2.904   9.830  0.3838 -0.2866  0.2694
   57SAPC  C211 4209   6.664   3.024   9.886 -0.1387  0.2366  0.8516
   57SAPC  H11R 4210   6.747   3.020   9.958 -0.1044 -0.5554  0.7821
   57SAPC  C212 4211   6.675   3.104   9.771  0.1844  0.1136 -0.3333
   57SAPC  H12R 4212   6.774   3.150   9.758  0.8234 -0.9286  0.6474
   57SAPC  C213 4213   6.576   3.150   9.672 -0.1999  0.6101  0.2585
   57SAPC  H13R 4214   6.594   3.259   9.657  0.9220  0.0128 -3.9373
   57SAPC  H13S 4215   6.474   3.136   9.713 -0.2894 -2.5114 -0.7567
   57SAPC  C214 4216   6.583   3.070   9.540 -0.3655 -0.5594  1.1543
   57SAPC  H14R 4217   6.604   2.963   9.550  0.4894 -0.4048  1.0181
   57SAPC  C215 4218   6.569   3.124   9.412 -0.4989 -0.7824 -0.2417
   57SAPC  H15R 4219   6.582   3.054   9.328 -1.8643  0.0337 -1.1809
   57SAPC  C216 4220   6.542   3.263   9.377  0.4055  0.6458 -0.2564
   57SAPC  H16R 4221   6.586   3.324   9.458  4.3767 -1.4624 -0.5543
   57SAPC  H16S 4222   6.434   3.288   9.375  0.1635 -0.3027  0.2630
   57SAPC  C217 4223   6.600   3.306   9.242 -0.0717  0.1981  0.7389
   57SAPC  H17R 4224   6.708   3.278   9.238 -0.0542  0.2635  0.7549
   57SAPC  H17S 4225   6.616   3.416   9.237  1.1902  0.0089 -3.7180
   57SAPC  C218 4226   6.520   3.262   9.124 -0.5729  0.1446 -0.6141
   57SAPC  H18R 4227   6.412   3.281   9.137 -0.9122 -1.9393 -0.0366
   57SAPC  H18S 4228   6.534   3.152   9.117 -0.7099  0.0625  0.2623
   57SAPC  C219 4229   6.570   3.319   8.993  0.1306 -0.0321  0.2678
   57SAPC  H19R 4230   6.565   3.430   8.993  1.5451  0.1182  2.6497
   57SAPC  H19S 4231   6.509   3.287   8.906  2.4256 -2.0231 -0.7249
   57SAPC  C220 4232   6.718   3.281   8.961 -0.1946 -0.2473  0.2290
   57SAPC  H20R 4233   6.788   3.354   9.007 -1.3234 -0.3065  2.1418
   57SAPC  H20S 4234   6.730   3.290   8.851 -2.2246  4.5833  0.1976
   57SAPC  H20T 4235   6.729   3.174   8.992  0.5652  0.0010  0.8659
   57SAPC   C33 4236   6.125   2.866  10.116 -0.7258 -0.2548  0.2118
   57SAPC   H3X 4237   6.035   2.803  10.106 -1.2402  0.5443 -0.3736
   57SAPC   H3Y 4238   6.216   2.801  10.111  0.3095  1.1506  0.0490
   57SAPC   C34 4239   6.125   2.961  10.000  0.2693 -0.5972  0.5281
   57SAPC   H4X 4240   6.186   3.053  10.014  0.7101 -0.8777  0.4665
   57SAPC   H4Y 4241   6.019   2.996   9.993 -0.8205 -3.8861 -1.8872
   57SAPC   C35 4242   6.168   2.888   9.873  0.0858 -0.3676  0.1093
   57SAPC   H5X 4243   6.109   2.795   9.860 -0.5898 -0.0378  0.7539
   57SAPC   H5Y 4244   6.270   2.849   9.895 -0.5619 -1.0625  2.1712
   57SAPC   C36 4245   6.171   2.963   9.742  0.5922 -0.4948 -0.6011
   57SAPC   H6X 4246   6.248   3.042   9.758 -0.3129  0.3894 -0.5289
   57SAPC   H6Y 4247   6.074   3.011   9.720  0.7256 -0.3612 -0.8905
   57SAPC   C37 4248   6.215   2.881   9.618 -0.6546  0.7074 -0.2518
   57SAPC   H7X 4249   6.156   2.788   9.607 -0.1524 -0.0161  2.4599
   57SAPC   H7Y 4250   6.321   2.853   9.640 -1.3746 -1.2600  0.9733
   57SAPC   C38 4251   6.206   2.957   9.484 -0.5953 -0.3932  0.5673
   57SAPC   H8X 4252   6.257   3.056   9.485 -1.3893  0.0550 -1.0432
   57SAPC   H8Y 4253   6.102   2.981   9.454 -0.4759  0.3791  0.7395
   57SAPC   C39 4254   6.250   2.866   9.367 -0.2998  0.2886  0.1281
   57SAPC   H9X 4255   6.190   2.776   9.347  0.6814  0.0613 -2.0224
   57SAPC   H9Y 4256   6.353   2.829   9.385 -0.0645  0.3788 -0.9612
   57SAPC  C310 4257   6.273   2.953   9.242  0.0127  0.0197  0.1690
   57SAPC  H10X 4258   6.334   3.042   9.267 -2.6855  1.3828  2.5092
   57SAPC  H10Y 4259   6.176   2.986   9.199  0.1153  0.3163  0.1713
   57SAPC  C311 4260   6.345   2.867   9.136 -0.7716  0.7602  0.0943
   57SAPC  H11X 4261   6.295   2.769   9.118  1.3005 -0.1296 -1.2142
   57SAPC  H11Y 4262   6.444   2.836   9.177 -0.4775  0.4685 -0.8176
   57SAPC  C312 4263   6.338   2.935   9.008 -0.7689  0.5667  0.6193
   57SAPC  H12X 4264   6.383   3.036   9.018  0.8958  0.0210 -0.8670
   57SAPC  H12Y 4265   6.233   2.957   8.978 -1.4930 -2.9705  0.0945
   57SAPC  C313 4266   6.410   2.862   8.891  0.3101 -0.2572 -0.5131
   57SAPC  H13X 4267   6.430   2.757   8.920 -3.3494 -0.7346  0.9291
   57SAPC  H13Y 4268   6.510   2.909   8.884  0.7066 -0.8763  0.6711
   57SAPC  C314 4269   6.327   2.863   8.760 -0.1848  1.0139 -0.0351
   57SAPC  H14X 4270   6.255   2.948   8.765 -0.3345  0.8005  2.0041
   57SAPC  H14Y 4271   6.264   2.771   8.756 -1.7921  2.0767 -0.2655
   57SAPC  C315 4272   6.410   2.885   8.632  0.4259 -0.6910  0.5167
   57SAPC  H15X 4273   6.475   2.795   8.629  1.5237  0.0764  0.4152
   57SAPC  H15Y 4274   6.467   2.980   8.645  1.3291 -0.7208 -2.6062
   57SAPC  C316 4275   6.325   2.885   8.506 -0.0884  0.2491  0.1150
   57SAPC  H16X 4276   6.262   2.977   8.509 -0.1307  0.1970  1.9896
   57SAPC  H16Y 4277   6.247   2.806   8.510 -1.0896  1.2060  0.0241
   57SAPC  C317 4278   6.406   2.877   8.374  0.1081 -0.9999  0.0641
   57SAPC  H17X 4279   6.332   2.845   8.298 -0.0154 -0.2966 -0.1127
   57SAPC  H17Y 4280   6.470   2.786   8.380 -1.0974 -2.3076 -4.1293
   57SAPC  C318 4281   6.486   3.000   8.330 -0.4662 -0.3482 -0.3798
   57SAPC  H18X 4282   6.576   3.019   8.392  0.4274 -1.2891 -1.3365
   57SAPC  H18Y 4283   6.420   3.089   8.327  0.7136  0.6144  0.9087
   57SAPC  H18Z 4284   6.526   2.987   8.227  1.8579 -2.2254  0.6485
   58SAPC     N 4285   2.119   0.777  10.955  0.3219  0.8479  0.1798
   58SAPC   C12 4286   2.077   0.852  10.825 -0.0449  0.4655  0.2439
   58SAPC  H12A 4287   2.018   0.940  10.844 -0.2079  0.1241  1.4102
   58SAPC  H12B 4288   2.028   0.771  10.772 -2.6875 -0.4808  3.7303
   58SAPC   C13 4289   2.231   0.683  10.926 -0.0731  0.1298 -0.6169
   58SAPC  H13A 4290   2.207   0.616  10.845  0.8330 -0.4092 -0.4586
   58SAPC  H13B 4291   2.319   0.740  10.899 -0.2606  0.0550 -1.4136
   58SAPC  H13C 4292   2.248   0.635  11.021 -0.0000  2.8525  0.8415
   58SAPC   C14 4293   2.167   0.882  11.053  0.0448  0.1366  0.0196
   58SAPC  H14A 4294   2.260   0.929  11.025  0.5642  0.6519  2.4238
   58SAPC  H14B 4295   2.093   0.961  11.061  1.5783  1.5774  0.4142
   58SAPC  H14C 4296   2.189   0.848  11.153 -0.3182  2.7156  1.0482
   58SAPC   C15 4297   2.003   0.704  11.020  0.1434  0.4269 -0.2175
   58SAPC  H15A 4298   1.935   0.778  11.060 -0.9705 -0.3892 -0.5424
   58SAPC  H15B 4299   1.944   0.643  10.953 -1.7344  0.5682  1.2224
   58SAPC  H15C 4300   2.035   0.636  11.097 -0.6837 -1.9993 -1.9096
   58SAPC   C11 4301   2.186   0.914  10.740  0.4714  0.2086 -0.6718
   58SAPC  H11A 4302   2.142   0.943  10.642  0.6224  1.0300 -0.5032
   58SAPC  H11B 4303   2.274   0.848  10.722  0.7884  0.4275  0.0549
   58SAPC     P 4304   2.373   1.089  10.826  0.1547  0.2096 -0.3695
   58SAPC   O13 4305   2.359   1.236  10.833 -0.5306 -0.2471 -1.1465
   58SAPC   O14 4306   2.432   1.024  10.943 -0.0655  0.0912 -0.3140
   58SAPC   O12 4307   2.225   1.036  10.801 -0.2446 -0.3991  0.0672
   58SAPC   O11 4308   2.452   1.038  10.698 -0.0238 -0.7116 -0.8128
   58SAPC    C1 4309   2.412   1.088  10.575  0.8523 -0.1988  1.1900
   58SAPC    HA 4310   2.320   1.037  10.540  0.8417  1.0109 -0.7033
   58SAPC    HB 4311   2.396   1.198  10.576  0.3404 -0.1433 -2.0624
   58SAPC    C2 4312   2.522   1.067  10.463  0.4406 -0.7340  0.5032
   58SAPC    HS 4313   2.513   1.135  10.375  1.5290 -0.4333  0.6169
   58SAPC   O21 4314   2.506   0.925  10.426  0.1312 -0.5997  0.4411
   58SAPC   C21 4315   2.519   0.896  10.297 -0.4088  0.0923  0.7460
   58SAPC   O22 4316   2.568   0.973  10.213 -0.0226  0.2076 -0.3594
   58SAPC   C22 4317   2.471   0.753  10.268  0.3399  0.0844 -0.3534
   58SAPC   H2R 4318   2.538   0.694  10.333  0.2299  1.2050  0.8365
   58SAPC   H2S 4319   2.362   0.748  10.292  0.2938  0.6066 -0.4231
   58SAPC    C3 4320   2.667   1.089  10.520 -0.8399 -0.8482  0.5349
   58SAPC    HX 4321   2.683   1.012  10.597  0.7404 -1.6526 -0.5370
   58SAPC    HY 4322   2.671   1.191  10.565 -2.8939 -0.7706  0.6093
   58SAPC   O31 4323   2.772   1.075  10.424 -0.1417  0.6896 -0.4134
   58SAPC   C31 4324   2.806   1.182  10.354 -0.8056 -0.9322  0.4089
   58SAPC   O32 4325   2.784   1.298  10.389 -0.0282 -0.5860  0.0255
   58SAPC   C32 4326   2.873   1.130  10.225 -0.4903 -0.4481 -0.8100
   58SAPC   H2X 4327   2.806   1.058  10.174  0.1375 -2.4530  1.0636
   58SAPC   H2Y 4328   2.970   1.081  10.246 -0.0736  0.1486 -1.3076
   58SAPC   C23 4329   2.499   0.708  10.121  0.2602  0.2947 -1.5116
   58SAPC   H3R 4330   2.463   0.783  10.048 -0.9947  2.0381  0.7579
   58SAPC   H3S 4331   2.466   0.602  10.111  1.6879 -0.1371 -1.9006
   58SAPC   C24 4332   2.652   0.698  10.101  0.4113 -0.3632  0.0441
   58SAPC   H4R 4333   2.694   0.627  10.176 -0.0943  0.5412  1.2094
   58SAPC   H4S 4334   2.693   0.801  10.110  1.1190 -0.8031  2.6020
   58SAPC   C25 4335   2.678   0.643   9.965  0.0659 -0.3348 -0.1593
   58SAPC   H5R 4336   2.691   0.534   9.974 -2.6334 -0.5282  4.3578
   58SAPC   C26 4337   2.682   0.706   9.846 -0.7698 -0.1066 -0.2543
   58SAPC   H6R 4338   2.705   0.643   9.759 -1.2921  0.1066 -0.5477
   58SAPC   C27 4339   2.656   0.853   9.820  0.1485 -0.3048 -0.3175
   58SAPC   H7R 4340   2.631   0.894   9.920  1.1022  2.7778 -1.2440
   58SAPC   H7S 4341   2.576   0.855   9.743  0.6530 -1.4036 -0.9091
   58SAPC   C28 4342   2.788   0.917   9.770  0.4031  0.1659 -0.3466
   58SAPC   H8R 4343   2.871   0.935   9.840 -1.4000  0.5385  1.8025
   58SAPC   C29 4344   2.812   0.941   9.641 -0.2791  0.2169 -0.1847
   58SAPC   H9R 4345   2.902   0.993   9.606 -0.8916  0.8672 -0.8470
   58SAPC  C210 4346   2.734   0.918   9.521 -0.3052  0.4464  0.4721
   58SAPC  H10R 4347   2.706   1.015   9.477 -0.6832  0.2616  0.2968
   58SAPC  H10S 4348   2.637   0.865   9.537 -0.0998 -0.7427 -1.7872
   58SAPC  C211 4349   2.819   0.840   9.424  0.4165  0.3827 -0.1568
   58SAPC  H11R 4350   2.895   0.771   9.465  0.6128 -0.5408 -2.0016
   58SAPC  C212 4351   2.821   0.852   9.291 -0.7685 -0.1139 -1.2164
   58SAPC  H12R 4352   2.881   0.780   9.233  4.3306  1.9030  0.9612
   58SAPC  C213 4353   2.754   0.962   9.213 -0.1467  0.8344  0.9058
   58SAPC  H13R 4354   2.839   0.987   9.146  1.2109 -1.4309  1.6508
   58SAPC  H13S 4355   2.734   1.056   9.268 -1.3410  1.4151 -0.4504
   58SAPC  C214 4356   2.624   0.911   9.155  0.3615  0.2520  0.9893
   58SAPC  H14R 4357   2.549   0.891   9.233 -0.1433 -3.3751 -0.2234
   58SAPC  C215 4358   2.593   0.874   9.030 -0.0103 -0.1803  0.2113
   58SAPC  H15R 4359   2.488   0.852   9.007  0.1846  0.2216 -1.1850
   58SAPC  C216 4360   2.694   0.885   8.916  0.6182  0.2499 -0.2234
   58SAPC  H16R 4361   2.765   0.799   8.916  0.2045 -0.2710  3.6867
   58SAPC  H16S 4362   2.751   0.980   8.912 -0.5955  0.9497 -2.1458
   58SAPC  C217 4363   2.626   0.891   8.773 -0.2383  0.4111 -0.1506
   58SAPC  H17R 4364   2.580   0.992   8.761 -0.6628  0.2921  0.4436
   58SAPC  H17S 4365   2.539   0.824   8.755 -0.2102  0.3674 -0.1235
   58SAPC  C218 4366   2.735   0.857   8.668  0.6179  0.0681  0.8206
   58SAPC  H18R 4367   2.752   0.748   8.656  1.0434  0.3246 -1.3203
   58SAPC  H18S 4368   2.833   0.899   8.701  1.3191  1.1505 -2.3257
   58SAPC  C219 4369   2.698   0.913   8.531 -0.6496  0.7886  0.2197
   58SAPC  H19R 4370   2.776   0.872   8.464  1.5499  0.7988  2.6249
   58SAPC  H19S 4371   2.714   1.023   8.534 -4.2410  1.4093  2.4986
   58SAPC  C220 4372   2.555   0.891   8.487 -0.6410  0.2855  0.1401
   58SAPC  H20R 4373   2.543   0.917   8.379 -0.5906  1.2437  0.3604
   58SAPC  H20S 4374   2.476   0.943   8.545 -0.4302 -0.5587  1.2243
   58SAPC  H20T 4375   2.535   0.783   8.505  1.6225 -0.6470 -2.2586
   58SAPC   C33 4376   2.903   1.249  10.135 -0.4559  0.0560 -0.2722
   58SAPC   H3X 4377   2.991   1.299  10.181 -0.1851 -0.6787  0.0336
   58SAPC   H3Y 4378   2.823   1.324  10.117 -1.2931 -0.9270 -0.7944
   58SAPC   C34 4379   2.937   1.202   9.991  0.2367 -0.2939  0.3043
   58SAPC   H4X 4380   2.845   1.176   9.935  0.1109  0.2473  0.2493
   58SAPC   H4Y 4381   3.004   1.113   9.997  0.5765 -0.0249  0.5426
   58SAPC   C35 4382   2.994   1.315   9.909  0.3416  0.7054  0.5496
   58SAPC   H5X 4383   3.089   1.350   9.955  0.8426  1.2925 -0.9071
   58SAPC   H5Y 4384   2.918   1.396   9.912 -0.9824 -0.5259  1.7898
   58SAPC   C36 4385   3.014   1.266   9.762  0.0215  0.7695 -0.2936
   58SAPC   H6X 4386   2.913   1.244   9.721  0.6765 -1.6994 -0.7473
   58SAPC   H6Y 4387   3.080   1.177   9.757  0.6800  1.3078 -1.6327
   58SAPC   C37 4388   3.070   1.386   9.685 -0.4047 -1.0539 -0.2771
   58SAPC   H7X 4389   3.176   1.398   9.717 -0.9383  2.0524  0.6924
   58SAPC   H7Y 4390   3.008   1.478   9.690  0.1399 -0.6067 -1.3158
   58SAPC   C38 4391   3.065   1.344   9.541  0.1908  0.1039 -0.8138
   58SAPC   H8X 4392   3.116   1.246   9.534 -0.4150 -0.2242 -0.6734
   58SAPC   H8Y 4393   3.111   1.427   9.483 -0.9271  1.4715  0.1580
   58SAPC   C39 4394   2.936   1.328   9.464 -0.0140  0.0687  0.1226
   58SAPC   H9X 4395   2.870   1.416   9.476  1.0183  0.8036  0.5198
   58SAPC   H9Y 4396   2.869   1.254   9.513 -2.6141  0.9456 -1.8623
   58SAPC  C310 4397   2.950   1.273   9.319  0.6387  0.5430  0.1122
   58SAPC  H10X 4398   2.850   1.281   9.270  0.1616  1.0056  1.1213
   58SAPC  H10Y 4399   2.981   1.167   9.333 -0.3661  0.3039  0.7030
   58SAPC  C311 4400   3.062   1.344   9.245 -0.4514 -0.7779  0.0183
   58SAPC  H11X 4401   3.155   1.324   9.302 -0.8062  0.2130  0.9641
   58SAPC  H11Y 4402   3.039   1.452   9.252  0.3075 -0.6933  1.4655
   58SAPC  C312 4403   3.071   1.301   9.097  1.1013 -0.2836  0.3960
   58SAPC  H12X 4404   2.986   1.320   9.029  1.8550  1.2348 -0.1670
   58SAPC  H12Y 4405   3.097   1.193   9.105  2.3384 -0.3795 -3.3214
   58SAPC  C313 4406   3.197   1.353   9.030  0.4077 -0.4071 -0.1456
   58SAPC  H13X 4407   3.181   1.456   8.991  1.6149 -0.2126 -0.1551
   58SAPC  H13Y 4408   3.210   1.284   8.944 -1.5903  0.3407 -1.1248
   58SAPC  C314 4409   3.332   1.347   9.103 -0.1944 -0.0905  0.0958
   58SAPC  H14X 4410   3.347   1.250   9.155 -2.4713 -0.6926 -0.2748
   58SAPC  H14Y 4411   3.333   1.430   9.177  2.3312  2.4210 -2.5225
   58SAPC  C315 4412   3.452   1.371   9.012 -0.0888  0.0510 -0.8075
   58SAPC  H15X 4413   3.542   1.366   9.077  0.3108 -1.9208 -1.4441
   58SAPC  H15Y 4414   3.447   1.468   8.959  1.8994  0.0223 -1.1020
   58SAPC  C316 4415   3.488   1.262   8.907  0.1554  0.1270 -0.0601
   58SAPC  H16X 4416   3.400   1.256   8.839 -0.1633  0.4854  0.3154
   58SAPC  H16Y 4417   3.485   1.162   8.955 -0.4096  0.1194 -0.1021
   58SAPC  C317 4418   3.607   1.304   8.827 -0.3459 -0.4956  0.9153
   58SAPC  H17X 4419   3.596   1.413   8.809 -3.1962 -1.0072 -1.0859
   58SAPC  H17Y 4420   3.588   1.266   8.725  0.4409  1.3063  0.0391
   58SAPC  C318 4421   3.743   1.268   8.881 -1.5393  0.1344  0.5161
   58SAPC  H18X 4422   3.739   1.302   8.987 -1.1468  1.9008  0.0028
   58SAPC  H18Y 4423   3.825   1.331   8.840 -0.3417 -0.4386  1.9510
   58SAPC  H18Z 4424   3.783   1.165   8.879  2.1498  1.4202 -0.7304
   59SAPC     N 4425   3.608   3.293  11.284 -0.2304  0.1198  0.0219
   59SAPC   C12 4426   3.560   3.149  11.272 -0.1404 -0.5545 -0.1170
   59SAPC  H12A 4427   3.548   3.144  11.165 -1.1911  0.7733 -0.0736
   59SAPC  H12B 4428   3.468   3.140  11.328  1.3049 -0.4532  2.3980
   59SAPC   C13 4429   3.539   3.378  11.182  0.0588 -1.1042  0.7970
   59SAPC  H13A 4430   3.555   3.483  11.204  1.6780 -1.2439  0.4227
   59SAPC  H13B 4431   3.564   3.357  11.079  2.2551 -0.0715  1.0530
   59SAPC  H13C 4432   3.433   3.362  11.183 -0.0618 -0.3878  0.1904
   59SAPC   C14 4433   3.572   3.355  11.415 -0.2940 -0.0842  0.2447
   59SAPC  H14A 4434   3.620   3.300  11.495 -1.3799 -0.9070  0.3519
   59SAPC  H14B 4435   3.614   3.455  11.415 -0.3067 -0.0733  0.9845
   59SAPC  H14C 4436   3.466   3.357  11.436  0.0200  0.2364  2.0003
   59SAPC   C15 4437   3.757   3.312  11.272  0.1074  0.2860 -0.2051
   59SAPC  H15A 4438   3.819   3.291  11.358  1.9003 -1.7127 -1.8465
   59SAPC  H15B 4439   3.795   3.247  11.194 -1.3626  0.0268 -0.7476
   59SAPC  H15C 4440   3.778   3.413  11.240 -1.0884  0.4103 -0.6495
   59SAPC   C11 4441   3.671   3.039  11.316  0.9649 -0.3363 -0.4659
   59SAPC  H11A 4442   3.624   2.939  11.321 -1.2329  0.4546 -3.1997
   59SAPC  H11B 4443   3.704   3.074  11.417 -0.3641 -1.6908  0.4847
   59SAPC     P 4444   3.788   2.943  11.103  0.8441  0.3062 -0.0880
   59SAPC   O13 4445   3.912   2.963  11.029 -1.0294 -0.4667 -0.5130
   59SAPC   O14 4446   3.749   2.803  11.137  0.3861 -0.0968  0.6808
   59SAPC   O12 4447   3.782   3.036  11.228 -0.2902 -0.2244  0.6585
   59SAPC   O11 4448   3.675   3.009  11.012  0.3261  0.7704  0.3914
   59SAPC    C1 4449   3.567   2.934  10.961  0.0151 -0.0491 -0.1766
   59SAPC    HA 4450   3.544   2.846  11.024  0.9225 -2.5637 -3.0518
   59SAPC    HB 4451   3.482   3.004  10.969  0.4079  0.4846 -0.5419
   59SAPC    C2 4452   3.582   2.887  10.820 -0.3338  0.2129  0.5611
   59SAPC    HS 4453   3.660   2.808  10.810 -1.5438 -0.8231 -1.4546
   59SAPC   O21 4454   3.623   2.998  10.739 -0.2980 -0.5589 -0.0684
   59SAPC   C21 4455   3.702   2.973  10.638  0.6446 -0.2426  0.1533
   59SAPC   O22 4456   3.763   2.873  10.610 -0.6188 -0.3286 -0.2509
   59SAPC   C22 4457   3.710   3.110  10.566 -0.3064 -0.0400 -0.6965
   59SAPC   H2R 4458   3.630   3.173  10.611 -1.9485 -2.0855 -0.6289
   59SAPC   H2S 4459   3.812   3.153  10.580 -0.5251  0.0368  0.9477
   59SAPC    C3 4460   3.455   2.826  10.757 -0.4774 -0.5247 -0.1354
   59SAPC    HX 4461   3.380   2.906  10.737 -1.3940 -1.1798  0.6422
   59SAPC    HY 4462   3.416   2.746  10.823 -1.2334 -0.9900 -1.1185
   59SAPC   O31 4463   3.490   2.773  10.630  0.0351 -0.0298  0.6810
   59SAPC   C31 4464   3.535   2.651  10.627 -0.0640  0.4647 -0.4086
   59SAPC   O32 4465   3.555   2.580  10.726 -0.2099 -0.5901  0.3201
   59SAPC   C32 4466   3.521   2.595  10.479 -0.6745 -0.1820 -0.6005
   59SAPC   H2X 4467   3.416   2.604  10.443 -1.0550 -0.2939  0.4478
   59SAPC   H2Y 4468   3.548   2.487  10.492  0.4362  0.2806  1.4161
   59SAPC   C23 4469   3.677   3.088  10.418  0.8097 -0.4811  0.2004
   59SAPC   H3R 4470   3.584   3.142  10.388  0.7141 -0.2008  0.9726
   59SAPC   H3S 4471   3.659   2.980  10.400  3.7230 -0.6745 -2.3618
   59SAPC   C24 4472   3.784   3.145  10.322 -0.0797 -0.0891 -0.0896
   59SAPC   H4R 4473   3.794   3.253  10.345 -0.3030 -0.3815  1.5332
   59SAPC   H4S 4474   3.734   3.125  10.225 -1.7594 -0.7689  0.8784
   59SAPC   C25 4475   3.911   3.069  10.342 -0.2527  0.3237 -0.4458
   59SAPC   H5R 4476   3.965   3.089  10.436 -1.4211 -0.7462  0.5033
   59SAPC   C26 4477   3.961   2.966  10.277 -0.1655 -0.1159 -0.1843
   59SAPC   H6R 4478   4.063   2.933  10.299 -0.6885 -0.9772  1.0144
   59SAPC   C27 4479   3.890   2.919  10.156 -0.0314  0.2147  0.9425
   59SAPC   H7R 4480   3.905   2.992  10.074 -1.8719  1.0331  1.2800
   59SAPC   H7S 4481   3.780   2.926  10.166 -0.2609  0.8434 -1.3872
   59SAPC   C28 4482   3.933   2.782  10.116  0.5409 -0.4906 -0.4623
   59SAPC   H8R 4483   3.909   2.697  10.183  0.8154  0.5825  1.0536
   59SAPC   C29 4484   3.997   2.747  10.006 -0.6755 -0.4377  0.0261
   59SAPC   H9R 4485   4.020   2.640   9.994  0.1081 -0.4153  1.1603
   59SAPC  C210 4486   4.056   2.839   9.900 -0.3396  0.0548  0.1315
   59SAPC  H10R 4487   4.062   2.941   9.943 -1.8822 -0.1703  0.9779
   59SAPC  H10S 4488   3.988   2.844   9.812 -0.1106 -2.2462 -0.2414
   59SAPC  C211 4489   4.197   2.794   9.856 -0.2349 -0.1783  0.1471
   59SAPC  H11R 4490   4.264   2.772   9.941  0.1434 -0.3173 -0.1799
   59SAPC  C212 4491   4.252   2.808   9.737 -0.2682  0.6759 -0.3637
   59SAPC  H12R 4492   4.347   2.753   9.728 -0.1227  1.2135 -2.6734
   59SAPC  C213 4493   4.201   2.869   9.611  0.5630  0.1751 -0.0683
   59SAPC  H13R 4494   4.229   2.976   9.605 -1.6546  0.8051  0.0338
   59SAPC  H13S 4495   4.090   2.859   9.614  0.7127 -3.0949 -0.8284
   59SAPC  C214 4496   4.254   2.810   9.484  0.1996  0.5002 -0.2348
   59SAPC  H14R 4497   4.305   2.713   9.490  0.1867  0.2728 -2.7202
   59SAPC  C215 4498   4.224   2.864   9.361  0.1778 -0.3967 -0.0443
   59SAPC  H15R 4499   4.258   2.811   9.270  0.2104 -0.9711  0.2977
   59SAPC  C216 4500   4.156   2.997   9.320 -0.5515  0.4974 -0.3178
   59SAPC  H16R 4501   4.125   3.060   9.407  1.4698  0.3918  0.5406
   59SAPC  H16S 4502   4.056   2.989   9.271 -0.6492  0.7751 -0.1669
   59SAPC  C217 4503   4.251   3.077   9.236 -0.1555  0.3526 -0.6194
   59SAPC  H17R 4504   4.345   3.075   9.295 -1.1360  0.9048  1.0077
   59SAPC  H17S 4505   4.211   3.180   9.233 -0.4675  0.2280 -0.8603
   59SAPC  C218 4506   4.286   3.017   9.093  0.8219 -0.8829 -0.3753
   59SAPC  H18R 4507   4.339   2.920   9.097 -2.4040 -2.8337 -0.7056
   59SAPC  H18S 4508   4.362   3.087   9.054  0.8174  0.2370  1.5121
   59SAPC  C219 4509   4.161   3.001   8.998  0.2956  1.4365 -0.3254
   59SAPC  H19R 4510   4.089   3.084   9.014 -1.0269  0.3445 -0.4318
   59SAPC  H19S 4511   4.106   2.906   9.018  1.1961  0.7560 -1.0220
   59SAPC  C220 4512   4.208   3.007   8.862 -0.9763 -0.0764 -0.0049
   59SAPC  H20R 4513   4.251   3.107   8.841 -0.1361 -0.5136 -0.4547
   59SAPC  H20S 4514   4.122   2.992   8.793  0.3639 -0.0567 -1.7699
   59SAPC  H20T 4515   4.278   2.922   8.848 -0.3385  0.3300  0.6391
   59SAPC   C33 4516   3.622   2.649  10.371 -0.5873  0.2074  0.4630
   59SAPC   H3X 4517   3.722   2.613  10.403 -1.3441 -2.6758 -0.1250
   59SAPC   H3Y 4518   3.621   2.758  10.394  0.3406  0.0444  1.3586
   59SAPC   C34 4519   3.601   2.602  10.221  0.6454 -0.0720  0.5043
   59SAPC   H4X 4520   3.668   2.672  10.166  0.2779  0.8828  1.2440
   59SAPC   H4Y 4521   3.496   2.627  10.196  0.4819 -0.8056  0.4387
   59SAPC   C35 4522   3.645   2.458  10.205 -0.4300 -0.3032 -1.1359
   59SAPC   H5X 4523   3.579   2.388  10.261 -0.1058  0.0778 -0.2575
   59SAPC   H5Y 4524   3.749   2.454  10.245 -0.2229  0.7606 -1.5286
   59SAPC   C36 4525   3.647   2.415  10.056  0.6876 -0.5883 -0.0882
   59SAPC   H6X 4526   3.540   2.415  10.024  0.5100 -1.4190  0.4902
   59SAPC   H6Y 4527   3.680   2.310  10.041 -1.2878 -1.1924 -0.4679
   59SAPC   C37 4528   3.730   2.505   9.955  0.5278 -0.2087  0.5979
   59SAPC   H7X 4529   3.840   2.501   9.973  0.5575 -0.8951  0.2935
   59SAPC   H7Y 4530   3.697   2.611   9.957 -2.2903 -1.0053 -0.2238
   59SAPC   C38 4531   3.724   2.455   9.805  1.0740 -0.5296  0.1902
   59SAPC   H8X 4532   3.614   2.451   9.787  1.0940  1.9936 -0.9778
   59SAPC   H8Y 4533   3.766   2.353   9.797 -0.8265 -1.4189  0.7777
   59SAPC   C39 4534   3.796   2.550   9.707  0.7341  0.4850  0.0971
   59SAPC   H9X 4535   3.805   2.508   9.604  0.5030 -0.2038  0.3506
   59SAPC   H9Y 4536   3.903   2.549   9.736  0.6237  1.0899  0.5304
   59SAPC  C310 4537   3.742   2.697   9.699 -0.3077 -0.2239 -0.3985
   59SAPC  H10X 4538   3.764   2.744   9.797 -0.5967 -2.6496  0.9248
   59SAPC  H10Y 4539   3.631   2.708   9.692 -0.1310  1.9182 -0.4704
   59SAPC  C311 4540   3.811   2.779   9.587 -0.4458  0.7023  0.2418
   59SAPC  H11X 4541   3.914   2.738   9.580 -0.0956  1.1510  2.0962
   59SAPC  H11Y 4542   3.826   2.884   9.618 -0.9439  1.1220 -0.9189
   59SAPC  C312 4543   3.732   2.767   9.455  0.6367 -0.2726 -0.1548
   59SAPC  H12X 4544   3.637   2.825   9.459  0.9247  0.3794 -1.7779
   59SAPC  H12Y 4545   3.713   2.660   9.431 -0.6238 -0.1972  0.4248
   59SAPC  C313 4546   3.825   2.829   9.342  0.0818 -0.5516 -0.9038
   59SAPC  H13X 4547   3.913   2.763   9.332  0.4466 -0.2279 -0.0163
   59SAPC  H13Y 4548   3.853   2.934   9.368  1.1481 -1.1973  0.7942
   59SAPC  C314 4549   3.745   2.823   9.218  0.0208 -0.2053 -0.0998
   59SAPC  H14X 4550   3.654   2.884   9.236  0.5606  0.2112  1.3843
   59SAPC  H14Y 4551   3.705   2.719   9.216 -0.3099 -0.0883  0.2123
   59SAPC  C315 4552   3.824   2.846   9.087  0.2394 -0.3422  0.1916
   59SAPC  H15X 4553   3.914   2.783   9.101 -0.6303 -1.5768  0.3578
   59SAPC  H15Y 4554   3.842   2.956   9.078 -0.1423 -0.2046  1.0289
   59SAPC  C316 4555   3.744   2.800   8.969 -0.3841  0.3183  0.0113
   59SAPC  H16X 4556   3.637   2.827   8.971 -0.4341  0.2945 -1.3674
   59SAPC  H16Y 4557   3.740   2.690   8.977 -2.2453  0.5121  3.6927
   59SAPC  C317 4558   3.809   2.850   8.838 -0.2706 -0.5130  0.2889
   59SAPC  H17X 4559   3.917   2.823   8.837 -0.0482  0.0729  2.5142
   59SAPC  H17Y 4560   3.810   2.961   8.834 -0.4910 -0.5423 -1.0765
   59SAPC  C318 4561   3.732   2.800   8.716  0.4670  0.3948  0.3903
   59SAPC  H18X 4562   3.621   2.813   8.722  0.5062  0.8075  0.2386
   59SAPC  H18Y 4563   3.748   2.693   8.691 -1.4304  0.1326  0.1428
   59SAPC  H18Z 4564   3.758   2.865   8.630 -0.6653 -0.4523 -0.6334
   60SAPC     N 4565   5.628   5.447  11.056  0.5496  0.4267  0.4806
   60SAPC   C12 4566   5.636   5.303  11.015 -0.5076  0.0689 -0.0052
   60SAPC  H12A 4567   5.551   5.276  10.954  0.9111 -1.4584 -1.4051
   60SAPC  H12B 4568   5.632   5.244  11.106  0.9270  2.8019  2.0090
   60SAPC   C13 4569   5.756   5.495  11.120  0.4664 -0.3297 -0.2524
   60SAPC  H13A 4570   5.837   5.499  11.049  0.5891 -1.4861 -0.2051
   60SAPC  H13B 4571   5.752   5.597  11.155  1.9307 -0.1928 -0.4162
   60SAPC  H13C 4572   5.786   5.429  11.201  0.6770 -0.0426 -0.0963
   60SAPC   C14 4573   5.601   5.538  10.936 -0.2378  0.1623  0.6006
   60SAPC  H14A 4574   5.566   5.637  10.962  1.6302  0.4625  2.2721
   60SAPC  H14B 4575   5.689   5.549  10.874 -0.2074  0.7674  0.7444
   60SAPC  H14C 4576   5.535   5.480  10.874  2.1243 -1.1312 -0.8381
   60SAPC   C15 4577   5.517   5.456  11.164  0.3833 -0.3154  0.9562
   60SAPC  H15A 4578   5.544   5.410  11.258  0.9695 -2.0082 -0.0068
   60SAPC  H15B 4579   5.514   5.562  11.189 -0.9939 -0.7903  3.0538
   60SAPC  H15C 4580   5.419   5.426  11.131 -0.8937  1.5437  2.7569
   60SAPC   C11 4581   5.774   5.246  10.943 -0.3033 -0.4875 -1.0030
   60SAPC  H11A 4582   5.756   5.142  10.906  0.0313 -1.2876  0.9587
   60SAPC  H11B 4583   5.839   5.241  11.033 -0.8495  1.4379 -0.4711
   60SAPC     P 4584   5.973   5.344  10.815 -0.1706  0.2056  0.0460
   60SAPC   O13 4585   6.046   5.433  10.909 -0.0330  0.1676  0.1497
   60SAPC   O14 4586   6.018   5.203  10.795 -0.5011  0.0546 -0.3998
   60SAPC   O12 4587   5.815   5.346  10.848 -0.8396 -0.6983  0.2632
   60SAPC   O11 4588   5.969   5.408  10.678  0.1580  0.2894  0.0998
   60SAPC    C1 4589   5.879   5.503  10.628 -0.4602  0.2085  0.0857
   60SAPC    HA 4590   5.777   5.461  10.621 -0.6098  0.3881  0.9816
   60SAPC    HB 4591   5.878   5.585  10.703 -0.6047  0.3028 -0.0192
   60SAPC    C2 4592   5.922   5.574  10.504  0.3767  0.1040  0.4044
   60SAPC    HS 4593   5.837   5.618  10.448  0.4324 -1.2544 -0.8303
   60SAPC   O21 4594   5.982   5.474  10.418  0.5663  0.2586  0.7653
   60SAPC   C21 4595   5.897   5.419  10.331 -0.0756  0.2992 -0.5394
   60SAPC   O22 4596   5.778   5.443  10.319 -0.4965  0.3882 -0.0816
   60SAPC   C22 4597   5.969   5.298  10.268 -0.1136  0.0096 -0.4814
   60SAPC   H2R 4598   6.078   5.318  10.268 -0.0632  0.0467  1.9822
   60SAPC   H2S 4599   5.959   5.214  10.340 -3.3205  1.6405  1.1955
   60SAPC    C3 4600   6.021   5.688  10.515 -0.0244  0.4692 -0.5887
   60SAPC    HX 4601   6.106   5.651  10.577 -1.0408 -1.7020 -0.3887
   60SAPC    HY 4602   5.973   5.769  10.573 -1.0638 -2.0328  2.3357
   60SAPC   O31 4603   6.072   5.736  10.389  0.3735  0.6474 -0.4927
   60SAPC   C31 4604   5.991   5.830  10.332 -1.0317  0.3097  0.5330
   60SAPC   O32 4605   5.883   5.861  10.378  0.3902 -0.0207  0.7578
   60SAPC   C32 4606   6.070   5.894  10.220 -0.2246 -0.9809  0.4976
   60SAPC   H2X 4607   6.040   5.857  10.120  1.0978  3.7583 -1.9284
   60SAPC   H2Y 4608   6.176   5.861  10.226 -0.5461 -1.8092  2.1947
   60SAPC   C23 4609   5.911   5.258  10.131  0.4188 -0.6109 -0.4949
   60SAPC   H3R 4610   5.812   5.209  10.141 -0.0457  0.3850  0.0167
   60SAPC   H3S 4611   5.987   5.192  10.083  0.2785  0.2248 -1.9238
   60SAPC   C24 4612   5.896   5.386  10.037 -1.2921  0.6418  0.2772
   60SAPC   H4R 4613   5.815   5.452  10.074 -1.2672  0.9831 -0.2708
   60SAPC   H4S 4614   5.869   5.336   9.942 -0.4708 -0.2701  0.4975
   60SAPC   C25 4615   6.020   5.465  10.008  0.5750 -0.1646  0.7278
   60SAPC   H5R 4616   6.064   5.504  10.101  1.3967 -1.8892  1.1131
   60SAPC   C26 4617   6.094   5.476   9.895  0.0311  0.3263 -0.1326
   60SAPC   H6R 4618   6.174   5.551   9.907 -1.4927  1.7311  1.9359
   60SAPC   C27 4619   6.067   5.417   9.764  0.3183 -0.1898  0.7131
   60SAPC   H7R 4620   6.097   5.482   9.679  0.4932  0.7668  1.4897
   60SAPC   H7S 4621   5.960   5.406   9.735 -0.3941 -0.5725  3.1952
   60SAPC   C28 4622   6.142   5.292   9.734 -0.3848 -0.3026  0.1105
   60SAPC   H8R 4623   6.208   5.259   9.816  0.9595  0.6481 -0.5413
   60SAPC   C29 4624   6.167   5.234   9.617  0.9765  0.4382 -0.3221
   60SAPC   H9R 4625   6.217   5.137   9.603 -0.7065 -1.0226  2.7298
   60SAPC  C210 4626   6.101   5.292   9.492  0.1927 -0.8447 -0.0271
   60SAPC  H10R 4627   5.994   5.317   9.511  0.4161  1.3845 -1.3377
   60SAPC  H10S 4628   6.105   5.203   9.426  3.1101 -1.1313  0.4168
   60SAPC  C211 4629   6.178   5.407   9.429 -0.1804  0.3423 -0.0729
   60SAPC  H11R 4630   6.272   5.438   9.476 -0.3675  1.2776 -0.3014
   60SAPC  C212 4631   6.129   5.479   9.335 -0.0623  0.1672  1.0336
   60SAPC  H12R 4632   6.192   5.560   9.294 -1.5637  0.7154 -0.2999
   60SAPC  C213 4633   5.989   5.477   9.264  0.1749  0.2969  0.4699
   60SAPC  H13R 4634   5.990   5.543   9.175  1.3127 -1.5363 -0.9493
   60SAPC  H13S 4635   5.915   5.522   9.334 -0.0475  0.2845  0.2468
   60SAPC  C214 4636   5.949   5.338   9.217  0.2056 -0.7219 -0.3238
   60SAPC  H14R 4637   6.027   5.260   9.215  0.2359 -0.7467  0.8599
   60SAPC  C215 4638   5.822   5.298   9.201  0.0529  0.0462 -0.3187
   60SAPC  H15R 4639   5.798   5.199   9.162 -1.1730  0.8023 -1.5864
   60SAPC  C216 4640   5.695   5.377   9.232  0.3270  0.5939 -0.2543
   60SAPC  H16R 4641   5.711   5.466   9.296 -2.1235  0.8449  0.0875
   60SAPC  H16S 4642   5.622   5.306   9.276  3.1458 -2.8887 -0.7561
   60SAPC  C217 4643   5.631   5.437   9.096  0.0508  0.0736 -0.3698
   60SAPC  H17R 4644   5.708   5.484   9.032 -1.3718 -0.0304 -2.2166
   60SAPC  H17S 4645   5.556   5.516   9.117 -1.7821 -1.2136 -1.7029
   60SAPC  C218 4646   5.560   5.334   9.011 -0.7438  0.4999  0.2371
   60SAPC  H18R 4647   5.471   5.294   9.065 -0.2072  0.2137  0.9292
   60SAPC  H18S 4648   5.637   5.254   9.011 -0.2534  0.9379  1.4834
   60SAPC  C219 4649   5.526   5.391   8.874 -0.6614  0.3289 -0.8539
   60SAPC  H19R 4650   5.624   5.430   8.840  0.9261 -1.3896  1.4590
   60SAPC  H19S 4651   5.455   5.475   8.889  2.0962  2.5178  0.9598
   60SAPC  C220 4652   5.470   5.289   8.776  0.3563 -0.0289  0.0346
   60SAPC  H20R 4653   5.545   5.216   8.739  0.2191  0.0349 -0.3741
   60SAPC  H20S 4654   5.441   5.358   8.694  1.9756 -1.0546 -1.4691
   60SAPC  H20T 4655   5.383   5.232   8.817  0.2527  1.1232  1.4795
   60SAPC   C33 4656   6.071   6.045  10.222  0.1649 -0.0527  0.0925
   60SAPC   H3X 4657   6.119   6.080  10.316  0.0825  0.2509  0.0219
   60SAPC   H3Y 4658   5.972   6.094  10.224  0.3093  0.2675 -0.3902
   60SAPC   C34 4659   6.156   6.111  10.111 -0.5118  1.1965 -0.0477
   60SAPC   H4X 4660   6.187   6.215  10.133  0.5651  0.9854 -0.4629
   60SAPC   H4Y 4661   6.108   6.103  10.011  0.1262 -2.5215 -0.2107
   60SAPC   C35 4662   6.292   6.031  10.086  0.3373 -0.6025  0.2080
   60SAPC   H5X 4663   6.258   5.930  10.053  1.3212 -1.1986  1.0045
   60SAPC   H5Y 4664   6.351   6.025  10.179  1.5379  0.4425 -0.4667
   60SAPC   C36 4665   6.371   6.086   9.969  0.5910 -0.2034  0.2627
   60SAPC   H6X 4666   6.299   6.074   9.885 -1.2479 -2.5150  2.0265
   60SAPC   H6Y 4667   6.455   6.018   9.946  0.2769 -0.7378  0.6745
   60SAPC   C37 4668   6.407   6.236   9.958  1.0118  0.6225 -0.9169
   60SAPC   H7X 4669   6.514   6.239   9.989  1.4348  2.0190 -2.3896
   60SAPC   H7Y 4670   6.346   6.296  10.029  0.5345  0.0629 -0.8486
   60SAPC   C38 4671   6.394   6.295   9.814 -0.3972 -0.2802 -0.2989
   60SAPC   H8X 4672   6.291   6.333   9.801 -1.0175 -1.1507  1.6675
   60SAPC   H8Y 4673   6.413   6.209   9.746  0.2653 -2.6680  2.6444
   60SAPC   C39 4674   6.503   6.401   9.790 -0.2717  0.4105  0.6076
   60SAPC   H9X 4675   6.600   6.347   9.801 -1.3385 -1.8947 -0.5526
   60SAPC   H9Y 4676   6.494   6.487   9.859  2.5628  0.5800  0.8882
   60SAPC  C310 4677   6.501   6.463   9.645  0.1487 -0.2260 -0.0431
   60SAPC  H10X 4678   6.527   6.375   9.582  3.1057 -0.2743  1.0829
   60SAPC  H10Y 4679   6.591   6.525   9.627  1.7139 -1.7226  2.2256
   60SAPC  C311 4680   6.367   6.543   9.605 -1.1156  1.2328  0.2990
   60SAPC  H11X 4681   6.359   6.631   9.672 -1.1357  0.7035  0.9953
   60SAPC  H11Y 4682   6.280   6.480   9.632 -0.1598 -1.4501 -2.2937
   60SAPC  C312 4683   6.357   6.565   9.448  0.3961 -0.0514 -0.0206
   60SAPC  H12X 4684   6.457   6.599   9.414 -0.3130  2.6228  0.3629
   60SAPC  H12Y 4685   6.282   6.645   9.433  0.0216 -0.2522  0.7262
   60SAPC  C313 4686   6.314   6.450   9.355  0.2413 -0.1594 -0.2716
   60SAPC  H13X 4687   6.204   6.436   9.358  0.1344  0.8129  1.6355
   60SAPC  H13Y 4688   6.363   6.355   9.387 -0.4925 -1.0641 -1.7093
   60SAPC  C314 4689   6.351   6.476   9.206  0.2542  0.1794 -0.3161
   60SAPC  H14X 4690   6.331   6.384   9.148 -3.5177  1.7755 -1.8892
   60SAPC  H14Y 4691   6.453   6.520   9.206  0.2033  0.3020  0.0179
   60SAPC  C315 4692   6.254   6.580   9.142  0.1421 -0.3692  0.4465
   60SAPC  H15X 4693   6.248   6.660   9.219 -2.8682 -0.1352  0.1060
   60SAPC  H15Y 4694   6.156   6.530   9.126  0.3099 -0.6231  0.1935
   60SAPC  C316 4695   6.293   6.640   9.002  0.5584  0.2108 -0.0278
   60SAPC  H16X 4696   6.402   6.619   8.993  0.6566  1.0616 -1.0398
   60SAPC  H16Y 4697   6.286   6.747   9.029 -0.9164  0.0446  0.3210
   60SAPC  C317 4698   6.224   6.605   8.870 -0.0459  0.2826  0.1538
   60SAPC  H17X 4699   6.259   6.674   8.791  0.5924  0.2515  0.4039
   60SAPC  H17Y 4700   6.115   6.618   8.888  0.2530  1.3968  1.3059
   60SAPC  C318 4701   6.272   6.457   8.829 -0.2075  0.8886  0.3970
   60SAPC  H18X 4702   6.382   6.464   8.809 -0.4866  0.6905 -1.3930
   60SAPC  H18Y 4703   6.219   6.425   8.737  2.0577 -0.0580 -0.6712
   60SAPC  H18Z 4704   6.234   6.382   8.901 -2.5473 -0.1077 -1.7374
   61SAPC     N 4705   6.625   5.012  11.216 -0.4798  0.0036 -0.5052
   61SAPC   C12 4706   6.640   4.862  11.191 -0.0898 -0.1133 -0.4944
   61SAPC  H12A 4707   6.585   4.809  11.267  0.0607  1.5235  0.8123
   61SAPC  H12B 4708   6.739   4.827  11.215 -0.6357 -0.8894  0.6724
   61SAPC   C13 4709   6.707   5.101  11.132  0.2287  0.6067 -0.3498
   61SAPC  H13A 4710   6.813   5.081  11.140  0.4209  1.7704  0.3720
   61SAPC  H13B 4711   6.690   5.083  11.027  1.4793  0.8902 -0.6265
   61SAPC  H13C 4712   6.674   5.202  11.151 -2.9400 -0.7501  2.5829
   61SAPC   C14 4713   6.480   5.044  11.197 -0.3669 -0.3775 -0.1604
   61SAPC  H14A 4714   6.440   5.028  11.098 -0.9560 -1.9039  0.2968
   61SAPC  H14B 4715   6.418   4.981  11.259 -2.0166  0.6104 -0.7297
   61SAPC  H14C 4716   6.459   5.149  11.216 -1.9999 -0.2984 -2.0554
   61SAPC   C15 4717   6.651   5.042  11.363  0.3326 -0.5465 -0.5073
   61SAPC  H15A 4718   6.605   5.134  11.394  0.0643 -0.7979 -0.1472
   61SAPC  H15B 4719   6.618   4.970  11.436  0.0310  0.1127  0.0065
   61SAPC  H15C 4720   6.758   5.051  11.380  0.2110 -1.3530  0.8268
   61SAPC   C11 4721   6.602   4.800  11.050  0.0967 -0.8968  0.4226
   61SAPC  H11A 4722   6.493   4.809  11.028 -0.2348  3.7221  2.7130
   61SAPC  H11B 4723   6.621   4.691  11.057  2.8706 -0.5380 -0.1159
   61SAPC     P 4724   6.809   4.809  10.904 -0.4851 -0.1746  0.0277
   61SAPC   O13 4725   6.881   4.787  11.030  0.1320 -0.1032 -0.3708
   61SAPC   O14 4726   6.812   4.696  10.804 -0.2758 -0.6382  0.3567
   61SAPC   O12 4727   6.668   4.860  10.939 -0.6126  0.2561  0.0590
   61SAPC   O11 4728   6.870   4.946  10.844  0.3890 -0.4571 -0.3060
   61SAPC    C1 4729   6.796   5.017  10.738  0.1579  0.0001  0.5759
   61SAPC    HA 4730   6.691   4.982  10.727  0.4520 -1.1685  1.2833
   61SAPC    HB 4731   6.771   5.119  10.774 -1.1587 -0.0676 -0.0957
   61SAPC    C2 4732   6.853   5.026  10.597 -0.2623 -0.0992 -0.1511
   61SAPC    HS 4733   6.767   5.081  10.553 -0.5652 -0.2211  0.2802
   61SAPC   O21 4734   6.875   4.896  10.536  0.5248 -0.3381 -0.0065
   61SAPC   C21 4735   6.764   4.832  10.498 -0.1242 -0.1687  0.0045
   61SAPC   O22 4736   6.651   4.869  10.520  0.4430 -0.2769 -0.3216
   61SAPC   C22 4737   6.799   4.695  10.437 -0.9884 -0.4932 -0.4357
   61SAPC   H2R 4738   6.870   4.703  10.353 -0.5971  0.2697 -0.0433
   61SAPC   H2S 4739   6.843   4.633  10.518 -0.6879  1.1213  0.6841
   61SAPC    C3 4740   6.985   5.108  10.589  0.6233 -0.5434  0.2740
   61SAPC    HX 4741   7.069   5.048  10.631  0.3240 -0.3683  1.1481
   61SAPC    HY 4742   6.979   5.197  10.656  0.2917 -0.9255  0.7610
   61SAPC   O31 4743   7.017   5.137  10.454  0.4247 -0.2575  0.1591
   61SAPC   C31 4744   7.128   5.207  10.439 -0.2797 -0.5716 -0.3944
   61SAPC   O32 4745   7.210   5.224  10.528 -0.1870  0.0288 -0.3158
   61SAPC   C32 4746   7.148   5.236  10.292 -0.0799  0.2679 -0.5054
   61SAPC   H2X 4747   7.070   5.297  10.241  0.3801  0.8935 -0.4858
   61SAPC   H2Y 4748   7.148   5.148  10.224  0.2962  0.7637 -1.1598
   61SAPC   C23 4749   6.681   4.622  10.377  0.5175  0.2243 -0.0911
   61SAPC   H3R 4750   6.597   4.619  10.449  0.6725 -0.7430  0.0689
   61SAPC   H3S 4751   6.715   4.517  10.368 -1.0962 -0.3520  0.2142
   61SAPC   C24 4752   6.646   4.673  10.236 -0.2761  0.6833  1.0100
   61SAPC   H4R 4753   6.739   4.698  10.180 -0.9816  1.2620  0.0540
   61SAPC   H4S 4754   6.591   4.769  10.229 -4.0075 -1.3327 -2.9749
   61SAPC   C25 4755   6.555   4.572  10.172 -0.4583 -0.3380  0.3543
   61SAPC   H5R 4756   6.495   4.529  10.254  0.5284  2.4929  2.7555
   61SAPC   C26 4757   6.558   4.546  10.043 -0.2218  0.2965 -0.0878
   61SAPC   H6R 4758   6.491   4.476   9.990  0.1725  1.8159 -2.7905
   61SAPC   C27 4759   6.658   4.615   9.944  1.0190 -0.3049 -0.2034
   61SAPC   H7R 4760   6.739   4.545   9.917  2.0883  1.0883 -0.7046
   61SAPC   H7S 4761   6.716   4.700   9.986  0.9983 -0.1721 -0.4392
   61SAPC   C28 4762   6.576   4.660   9.825 -0.1750 -0.3350  0.1836
   61SAPC   H8R 4763   6.468   4.675   9.842 -0.4356 -0.5785 -1.1087
   61SAPC   C29 4764   6.632   4.675   9.703 -0.3609  0.0944  0.1140
   61SAPC   H9R 4765   6.569   4.722   9.626 -0.5785 -0.4724 -0.0629
   61SAPC  C210 4766   6.779   4.649   9.665 -0.1269  0.2331 -0.4610
   61SAPC  H10R 4767   6.845   4.608   9.745 -1.0910 -1.3589 -0.4295
   61SAPC  H10S 4768   6.840   4.738   9.640  0.3599  0.6638  2.0002
   61SAPC  C211 4769   6.779   4.543   9.554 -0.2912 -0.3337  0.0393
   61SAPC  H11R 4770   6.833   4.458   9.600  1.0170  1.2507  1.5998
   61SAPC  C212 4771   6.741   4.551   9.423  0.1134 -0.4877 -0.4692
   61SAPC  H12R 4772   6.757   4.455   9.372 -3.3339 -2.7816  2.2309
   61SAPC  C213 4773   6.689   4.671   9.356 -0.0955 -0.0599 -0.1604
   61SAPC  H13R 4774   6.734   4.674   9.255  2.0136 -0.1667  0.7435
   61SAPC  H13S 4775   6.716   4.768   9.403  2.0537  0.5408 -2.4359
   61SAPC  C214 4776   6.537   4.681   9.340 -1.0571 -0.3261 -0.5194
   61SAPC  H14R 4777   6.489   4.692   9.438 -1.5058  3.3589 -1.0325
   61SAPC  C215 4778   6.462   4.659   9.231 -0.6610 -0.4368  0.2208
   61SAPC  H15R 4779   6.352   4.666   9.243 -1.0405 -0.4162 -2.6716
   61SAPC  C216 4780   6.510   4.611   9.098 -0.2403  0.4629 -0.0109
   61SAPC  H16R 4781   6.436   4.539   9.057  1.8086 -3.3335  2.3013
   61SAPC  H16S 4782   6.610   4.562   9.107  0.2607  1.5051  0.3334
   61SAPC  C217 4783   6.519   4.733   9.008 -0.7529 -0.2867 -0.0742
   61SAPC  H17R 4784   6.586   4.805   9.060 -1.0792  1.1154 -1.5016
   61SAPC  H17S 4785   6.423   4.788   9.003 -1.9574 -2.3937 -3.3314
   61SAPC  C218 4786   6.578   4.701   8.879 -0.8485  0.0088  0.7062
   61SAPC  H18R 4787   6.490   4.673   8.818  1.0187 -1.3915 -1.4703
   61SAPC  H18S 4788   6.659   4.625   8.878  0.0529  0.9114  1.7312
   61SAPC  C219 4789   6.648   4.828   8.823  0.4282 -0.1170  0.1184
   61SAPC  H19R 4790   6.737   4.858   8.882  1.5421 -0.1103 -1.5131
   61SAPC  H19S 4791   6.583   4.918   8.823 -1.7453 -1.5836 -0.5491
   61SAPC  C220 4792   6.681   4.808   8.675 -0.3238 -0.5012  0.3410
   61SAPC  H20R 4793   6.740   4.714   8.664 -0.1095 -0.1911 -1.5582
   61SAPC  H20S 4794   6.719   4.898   8.623  0.1816 -0.9931 -0.1553
   61SAPC  H20T 4795   6.591   4.789   8.613  1.7863  0.5718 -3.3678
   61SAPC   C33 4796   7.286   5.292  10.263 -0.2671 -0.0766  0.0924
   61SAPC   H3X 4797   7.368   5.223  10.290 -1.3000 -1.2877  0.2574
   61SAPC   H3Y 4798   7.294   5.377  10.333 -0.3484 -0.3203  0.4022
   61SAPC   C34 4799   7.298   5.330  10.118  0.1252 -0.1294  0.2165
   61SAPC   H4X 4800   7.206   5.373  10.074  0.4073 -1.7338 -2.1229
   61SAPC   H4Y 4801   7.319   5.237  10.060 -0.1850 -0.0136 -0.0844
   61SAPC   C35 4802   7.420   5.425  10.094 -0.1760  0.9683  0.0100
   61SAPC   H5X 4803   7.507   5.366  10.130 -1.4655 -1.6544 -0.9027
   61SAPC   H5Y 4804   7.411   5.506  10.169 -1.1953  1.5361 -0.7010
   61SAPC   C36 4805   7.410   5.490   9.955  0.5059 -0.0085 -1.1437
   61SAPC   H6X 4806   7.480   5.576   9.949  1.9240 -0.9880  0.3239
   61SAPC   H6Y 4807   7.305   5.525   9.948  0.6099  0.2058 -1.6868
   61SAPC   C37 4808   7.439   5.399   9.832  0.3783  0.1022 -0.1621
   61SAPC   H7X 4809   7.371   5.311   9.839 -0.0857  0.2882 -1.9580
   61SAPC   H7Y 4810   7.543   5.360   9.843 -0.3112 -1.6490  0.6107
   61SAPC   C38 4811   7.413   5.470   9.694 -0.0644  0.2547 -0.4415
   61SAPC   H8X 4812   7.502   5.532   9.667  0.4368 -0.2393  0.0383
   61SAPC   H8Y 4813   7.323   5.534   9.697 -0.8157 -0.8231  1.6532
   61SAPC   C39 4814   7.395   5.371   9.574 -0.6896  0.6361  0.2488
   61SAPC   H9X 4815   7.305   5.308   9.590  1.2301 -2.0133  1.4483
   61SAPC   H9Y 4816   7.481   5.301   9.570  0.1362  1.6203  0.3343
   61SAPC  C310 4817   7.384   5.433   9.435  1.1196 -0.1622 -0.1971
   61SAPC  H10X 4818   7.479   5.491   9.429  1.1238 -0.1650 -0.1537
   61SAPC  H10Y 4819   7.305   5.511   9.432  1.3870  0.1682  1.0074
   61SAPC  C311 4820   7.370   5.328   9.324 -0.0777 -0.0981 -0.6911
   61SAPC  H11X 4821   7.266   5.290   9.320 -0.8637  1.9429 -1.1492
   61SAPC  H11Y 4822   7.433   5.239   9.344 -0.4361 -0.3345 -0.6030
   61SAPC  C312 4823   7.412   5.383   9.187  0.1799 -0.4082 -0.2727
   61SAPC  H12X 4824   7.508   5.439   9.195 -0.9632  1.5525  0.6621
   61SAPC  H12Y 4825   7.335   5.456   9.154  0.5020  0.3158  0.5264
   61SAPC  C313 4826   7.417   5.276   9.074 -0.3263  0.1012 -0.2601
   61SAPC  H13X 4827   7.486   5.195   9.108 -2.5820 -2.3217 -1.1239
   61SAPC  H13Y 4828   7.466   5.311   8.980  3.0632 -0.3291  1.2004
   61SAPC  C314 4829   7.282   5.217   9.030 -0.1276 -1.1561  0.3088
   61SAPC  H14X 4830   7.218   5.212   9.121 -1.0337  2.5966  0.0128
   61SAPC  H14Y 4831   7.309   5.124   8.975 -0.1711 -1.3475  0.6069
   61SAPC  C315 4832   7.195   5.307   8.935  0.2412 -0.1710 -0.5630
   61SAPC  H15X 4833   7.248   5.319   8.838 -0.9946  1.0830 -1.1123
   61SAPC  H15Y 4834   7.183   5.407   8.982 -0.8983 -0.0172 -1.1508
   61SAPC  C316 4835   7.056   5.258   8.896  0.7171 -0.4323 -0.0079
   61SAPC  H16X 4836   6.985   5.291   8.975 -0.9838  2.4520 -2.5257
   61SAPC  H16Y 4837   7.060   5.147   8.889  2.6653 -0.3194 -1.7889
   61SAPC  C317 4838   7.005   5.319   8.766 -0.0879 -0.4222  0.3696
   61SAPC  H17X 4839   7.075   5.303   8.682 -1.4782 -2.7201 -0.4318
   61SAPC  H17Y 4840   6.997   5.428   8.786 -2.2922 -0.1702 -1.5238
   61SAPC  C318 4841   6.862   5.273   8.725  0.4067  0.1045  0.5476
   61SAPC  H18X 4842   6.793   5.307   8.805  0.7022  2.5959 -0.1683
   61SAPC  H18Y 4843   6.865   5.164   8.702 -0.0784  0.5292 -1.7908
   61SAPC  H18Z 4844   6.833   5.326   8.632 -1.5402 -0.3644  0.8558
   62SAPC     N 4845   4.804   4.768  10.989 -0.0152  0.5325 -0.1152
   62SAPC   C12 4846   4.859   4.842  10.874 -0.2354 -0.2574 -0.6835
   62SAPC  H12A 4847   4.955   4.879  10.907  0.4819 -2.6236  0.1000
   62SAPC  H12B 4848   4.796   4.926  10.851 -0.5497 -0.6253 -1.1913
   62SAPC   C13 4849   4.789   4.869  11.105  0.1807 -0.8409  0.0095
   62SAPC  H13A 4850   4.719   4.945  11.074  1.4140  0.2228 -0.2324
   62SAPC  H13B 4851   4.759   4.820  11.197  2.4707 -0.8662  0.8098
   62SAPC  H13C 4852   4.874   4.935  11.114  0.1009 -0.7530  0.1097
   62SAPC   C14 4853   4.669   4.703  10.956 -0.3477  0.5673 -0.4117
   62SAPC  H14A 4854   4.610   4.661  11.036 -1.1550  1.9736 -0.2394
   62SAPC  H14B 4855   4.608   4.775  10.905  0.5355  1.1839 -0.6232
   62SAPC  H14C 4856   4.678   4.628  10.879 -0.9291  2.0895 -2.0258
   62SAPC   C15 4857   4.901   4.664  11.031  0.7245  0.3403 -0.3562
   62SAPC  H15A 4858   4.918   4.583  10.962  1.3372  2.7864 -3.2818
   62SAPC  H15B 4859   4.992   4.714  11.063  0.8828 -0.9512  1.3274
   62SAPC  H15C 4860   4.873   4.627  11.128  1.5794 -0.2671 -0.3282
   62SAPC   C11 4861   4.877   4.764  10.747  0.0091 -0.5046 -0.5658
   62SAPC  H11A 4862   4.895   4.835  10.663  2.2326  0.1890  0.4091
   62SAPC  H11B 4863   4.785   4.709  10.720 -1.0674  0.4325  1.0314
   62SAPC     P 4864   5.010   4.528  10.719  0.0457 -0.2055  0.2042
   62SAPC   O13 4865   5.150   4.498  10.763 -0.4316 -0.3776  0.3092
   62SAPC   O14 4866   4.902   4.441  10.767  0.9551  0.1785  0.2435
   62SAPC   O12 4867   4.990   4.682  10.756 -0.2298 -0.0329 -0.0008
   62SAPC   O11 4868   4.992   4.533  10.566 -0.3855 -0.4152  0.0967
   62SAPC    C1 4869   5.062   4.632  10.496 -0.8533 -0.4838 -0.2550
   62SAPC    HA 4870   5.015   4.732  10.506  1.2899  0.6792 -1.0366
   62SAPC    HB 4871   5.165   4.653  10.532 -1.8237 -0.5399  2.9153
   62SAPC    C2 4872   5.045   4.618  10.342  0.0049  0.7388  0.1506
   62SAPC    HS 4873   4.936   4.608  10.325  0.5934 -2.2134 -2.6636
   62SAPC   O21 4874   5.131   4.512  10.297 -0.5294  0.2288 -0.4421
   62SAPC   C21 4875   5.089   4.389  10.326 -0.1498 -0.2402 -0.2613
   62SAPC   O22 4876   4.982   4.346  10.357 -0.0165 -0.2304  0.2151
   62SAPC   C22 4877   5.215   4.293  10.315 -0.0766  0.0983 -0.0277
   62SAPC   H2R 4878   5.297   4.355  10.271 -1.1032  1.9395  0.5273
   62SAPC   H2S 4879   5.239   4.265  10.420  2.8261 -0.1962 -0.6767
   62SAPC    C3 4880   5.097   4.744  10.260  0.5137  0.3924  0.4566
   62SAPC    HX 4881   5.200   4.766  10.294 -0.1782  2.1354  1.5595
   62SAPC    HY 4882   5.036   4.829  10.296  2.1743  0.9909  2.0553
   62SAPC   O31 4883   5.087   4.719  10.122 -0.1808 -0.1534 -0.2178
   62SAPC   C31 4884   5.149   4.807  10.040 -0.0715  0.2087 -0.6464
   62SAPC   O32 4885   5.209   4.901  10.079  0.4992 -0.6383  0.6144
   62SAPC   C32 4886   5.128   4.771   9.896  0.6359 -0.2870  0.1124
   62SAPC   H2X 4887   5.057   4.849   9.860  1.8624  0.6882 -0.2754
   62SAPC   H2Y 4888   5.070   4.677   9.887 -0.9747  0.7687 -1.4581
   62SAPC   C23 4889   5.196   4.167  10.222  0.1087 -0.5868 -0.7133
   62SAPC   H3R 4890   5.104   4.119  10.263  1.7624 -1.5680  2.1231
   62SAPC   H3S 4891   5.275   4.093  10.243  0.7032  0.4669  1.0296
   62SAPC   C24 4892   5.190   4.197  10.071  0.7925 -0.0107 -0.2564
   62SAPC   H4R 4893   5.263   4.278  10.051  0.8103  0.7808  2.6167
   62SAPC   H4S 4894   5.086   4.236  10.069  0.6502 -0.3421  0.3243
   62SAPC   C25 4895   5.208   4.075   9.988  0.2314 -0.0795 -0.4635
   62SAPC   H5R 4896   5.276   3.995  10.022 -0.7376  0.0431  1.9865
   62SAPC   C26 4897   5.139   4.059   9.874 -0.4633 -0.4570  0.2304
   62SAPC   H6R 4898   5.154   3.969   9.813 -0.0538  0.7407 -1.5140
   62SAPC   C27 4899   5.038   4.147   9.801 -0.9641 -0.5650  0.5515
   62SAPC   H7R 4900   4.938   4.140   9.849 -1.1676 -3.0417 -0.0940
   62SAPC   H7S 4901   5.030   4.106   9.698  0.6821  0.3432  0.0283
   62SAPC   C28 4902   5.090   4.298   9.797  0.0069  0.1098  0.6645
   62SAPC   H8R 4903   5.194   4.305   9.760 -0.5590  2.1322 -0.7282
   62SAPC   C29 4904   5.032   4.412   9.844  0.2811  0.4161 -0.1397
   62SAPC   H9R 4905   5.082   4.510   9.838 -2.1199  1.9996  2.9607
   62SAPC  C210 4906   4.891   4.410   9.893 -0.0056 -0.0167  0.2632
   62SAPC  H10R 4907   4.888   4.403  10.004  4.3346 -1.7593  0.4436
   62SAPC  H10S 4908   4.829   4.322   9.864 -0.3119 -0.1494  1.2775
   62SAPC  C211 4909   4.817   4.538   9.850  0.3852 -0.2744 -0.2681
   62SAPC  H11R 4910   4.835   4.633   9.902  0.2168  0.1874 -1.0415
   62SAPC  C212 4911   4.737   4.540   9.744  0.5036  0.5845  0.5443
   62SAPC  H12R 4912   4.695   4.637   9.715  0.5831  0.1426 -1.1692
   62SAPC  C213 4913   4.694   4.430   9.645 -0.2674  0.3593  0.3812
   62SAPC  H13R 4914   4.620   4.466   9.571 -0.1606  0.8753  0.5207
   62SAPC  H13S 4915   4.632   4.361   9.706  2.5361 -1.0257  1.8657
   62SAPC  C214 4916   4.797   4.349   9.570 -0.4967  0.0598 -0.1406
   62SAPC  H14R 4917   4.902   4.358   9.601 -0.7183 -0.8519  0.9694
   62SAPC  C215 4918   4.783   4.272   9.463 -0.7895  0.1368 -0.5054
   62SAPC  H15R 4919   4.864   4.202   9.440 -1.5535 -0.6935 -0.7693
   62SAPC  C216 4920   4.655   4.249   9.386 -0.3240 -0.3063 -0.5560
   62SAPC  H16R 4921   4.567   4.270   9.451  1.7208  0.4969  2.1262
   62SAPC  H16S 4922   4.643   4.148   9.342  1.5909 -0.0290 -1.7999
   62SAPC  C217 4923   4.639   4.353   9.275 -0.8904  0.9840  1.0075
   62SAPC  H17R 4924   4.572   4.311   9.198  0.9089 -0.2065  0.0007
   62SAPC  H17S 4925   4.734   4.366   9.218 -2.5761  2.7505 -1.6075
   62SAPC  C218 4926   4.603   4.499   9.307  0.5210 -0.4157 -1.4169
   62SAPC  H18R 4927   4.680   4.528   9.382 -0.6763 -1.8221  0.4172
   62SAPC  H18S 4928   4.505   4.503   9.358  1.3503 -0.1115  0.2412
   62SAPC  C219 4929   4.613   4.591   9.183  0.8343 -0.1394 -0.6788
   62SAPC  H19R 4930   4.700   4.573   9.117  1.4553  0.1686  0.0418
   62SAPC  H19S 4931   4.635   4.690   9.227 -1.3839 -0.0475  0.3934
   62SAPC  C220 4932   4.479   4.600   9.105  0.1915  0.5046  0.2046
   62SAPC  H20R 4933   4.458   4.503   9.055 -0.0125  0.9022 -0.5036
   62SAPC  H20S 4934   4.474   4.686   9.035 -1.7027 -0.6399 -1.1604
   62SAPC  H20T 4935   4.400   4.625   9.178 -0.4274 -0.4340 -0.1342
   62SAPC   C33 4936   5.253   4.778   9.806  0.3368 -0.7517 -0.9057
   62SAPC   H3X 4937   5.319   4.692   9.827  0.8479 -0.3435 -0.8204
   62SAPC   H3Y 4938   5.309   4.871   9.829  0.9209 -1.2584 -0.2255
   62SAPC   C34 4939   5.229   4.788   9.656 -0.2638  0.5760  0.0538
   62SAPC   H4X 4940   5.330   4.781   9.610 -0.6488 -0.8081 -0.6344
   62SAPC   H4Y 4941   5.171   4.879   9.629  0.7133  0.8461 -1.2505
   62SAPC   C35 4942   5.153   4.662   9.599 -0.1166 -0.4653 -0.2411
   62SAPC   H5X 4943   5.051   4.646   9.641  1.1257  0.3456  3.4425
   62SAPC   H5Y 4944   5.204   4.569   9.632 -1.7403 -0.7142  1.7758
   62SAPC   C36 4945   5.147   4.685   9.450 -0.3541  0.4739 -0.3248
   62SAPC   H6X 4946   5.250   4.701   9.412  0.0019 -0.2657  0.3011
   62SAPC   H6Y 4947   5.078   4.771   9.437 -0.1087  0.6227 -0.6599
   62SAPC   C37 4948   5.065   4.570   9.386 -0.3261 -0.4366  0.5620
   62SAPC   H7X 4949   4.956   4.575   9.405 -0.4469 -0.2699 -0.1311
   62SAPC   H7Y 4950   5.103   4.480   9.439  1.9527  0.0956 -0.0589
   62SAPC   C38 4951   5.099   4.566   9.232 -0.1569 -0.2636 -0.3366
   62SAPC   H8X 4952   5.206   4.581   9.205 -0.1126  0.3732  0.1636
   62SAPC   H8Y 4953   5.048   4.652   9.184 -0.3427 -1.1284 -1.7528
   62SAPC   C39 4954   5.058   4.433   9.165  0.5913  0.7062 -0.7380
   62SAPC   H9X 4955   4.948   4.426   9.175  0.6202  3.0626  2.7059
   62SAPC   H9Y 4956   5.094   4.344   9.222 -0.0153 -0.5610 -2.2567
   62SAPC  C310 4957   5.110   4.421   9.020 -0.1521 -0.4613 -0.8771
   62SAPC  H10X 4958   5.203   4.360   9.029 -0.7970 -1.4027 -0.4515
   62SAPC  H10Y 4959   5.130   4.528   8.998  0.2884 -0.2695  0.3458
   62SAPC  C311 4960   5.033   4.365   8.904  0.0336  0.4875  0.8583
   62SAPC  H11X 4961   5.006   4.257   8.906 -0.4470  0.3483 -3.7043
   62SAPC  H11Y 4962   5.091   4.374   8.810  0.6361 -0.5466  1.1131
   62SAPC  C312 4963   4.907   4.451   8.889 -0.0591 -0.0724  0.0596
   62SAPC  H12X 4964   4.954   4.551   8.881 -0.0508 -0.0850 -0.0569
   62SAPC  H12Y 4965   4.846   4.459   8.981  0.5873  0.2357  0.4678
   62SAPC  C313 4966   4.820   4.426   8.767 -0.4826  0.2690 -0.3037
   62SAPC  H13X 4967   4.790   4.319   8.767 -0.5193  0.2788  0.0613
   62SAPC  H13Y 4968   4.882   4.456   8.680 -0.2674 -0.6163 -0.4578
   62SAPC  C314 4969   4.700   4.516   8.776  0.1207 -0.3042 -0.2605
   62SAPC  H14X 4970   4.637   4.482   8.861 -0.6803  0.7626 -0.4158
   62SAPC  H14Y 4971   4.637   4.488   8.688 -0.4541 -2.5203  0.7709
   62SAPC  C315 4972   4.728   4.670   8.793  0.1257  0.0262  0.8490
   62SAPC  H15X 4973   4.807   4.703   8.722 -2.4171  0.0514 -2.2584
   62SAPC  H15Y 4974   4.761   4.693   8.896 -0.2809  2.0943  0.5670
   62SAPC  C316 4975   4.588   4.742   8.772 -0.0513 -0.1469 -0.1518
   62SAPC  H16X 4976   4.522   4.683   8.839  1.0920 -0.4934  0.7017
   62SAPC  H16Y 4977   4.561   4.720   8.666 -1.0935  0.1328  0.0428
   62SAPC  C317 4978   4.562   4.890   8.796  0.2197  0.3799 -0.8534
   62SAPC  H17X 4979   4.597   4.934   8.892  0.6779  0.1419 -0.9107
   62SAPC  H17Y 4980   4.451   4.902   8.792  0.1806 -0.0900 -1.3662
   62SAPC  C318 4981   4.616   4.978   8.677 -0.4148 -0.1306  0.4992
   62SAPC  H18X 4982   4.564   5.076   8.674 -0.9313 -0.4004 -2.3067
   62SAPC  H18Y 4983   4.609   4.916   8.585 -1.7893  0.8390 -0.0793
   62SAPC  H18Z 4984   4.726   4.985   8.695 -0.0722 -1.5112 -0.8296
   63SAPC     N 4985   1.908   4.909   6.330  0.0591  0.5494 -0.3057
   63SAPC   C12 4986   1.812   4.850   6.431 -0.8684 -0.3093  0.2555
   63SAPC  H12A 4987   1.864   4.822   6.521  0.5201 -0.8775 -0.6877
   63SAPC  H12B 4988   1.774   4.755   6.396 -0.3258  0.0938 -1.5601
   63SAPC   C13 4989   1.836   4.938   6.202  0.3020 -0.6952  0.4242
   63SAPC  H13A 4990   1.792   4.846   6.165 -2.4786  0.9194 -0.5873
   63SAPC  H13B 4991   1.756   5.007   6.224 -2.8909 -3.1265 -2.5387
   63SAPC  H13C 4992   1.898   4.986   6.128  0.8162 -1.4500  0.3546
   63SAPC   C14 4993   1.968   5.033   6.380 -0.1974  0.2710 -0.0396
   63SAPC  H14A 4994   2.002   5.007   6.480 -0.4335 -0.7258 -0.2004
   63SAPC  H14B 4995   2.049   5.069   6.318 -1.6358  2.5727 -0.6752
   63SAPC  H14C 4996   1.903   5.117   6.398  0.9779  1.0099  0.9290
   63SAPC   C15 4997   2.018   4.816   6.313 -0.2428  0.1475  0.9518
   63SAPC  H15A 4998   2.067   4.796   6.407  0.1493 -3.4674  0.1068
   63SAPC  H15B 4999   1.997   4.719   6.271  1.5062 -0.6042  1.7105
   63SAPC  H15C 5000   2.095   4.851   6.246  0.2007  2.7838  2.6907
   63SAPC   C11 5001   1.696   4.933   6.484 -0.1609  0.1110 -0.1014
   63SAPC  H11A 5002   1.725   5.039   6.504 -0.3105  0.3908 -1.2724
   63SAPC  H11B 5003   1.652   4.898   6.580  0.1411 -0.0575 -0.0245
   63SAPC     P 5004   1.516   4.814   6.349 -0.4831 -0.0170  0.4845
   63SAPC   O13 5005   1.460   4.846   6.217 -0.5198  0.2876  0.3280
   63SAPC   O14 5006   1.601   4.694   6.355 -0.3898  0.2675  0.5194
   63SAPC   O12 5007   1.596   4.938   6.378 -0.7402 -0.3624 -0.6163
   63SAPC   O11 5008   1.404   4.811   6.468 -0.4612  0.1569  0.6692
   63SAPC    C1 5009   1.291   4.902   6.464 -0.2790 -0.5979  0.0430
   63SAPC    HA 5010   1.248   4.906   6.361 -2.0461 -0.5731  0.7428
   63SAPC    HB 5011   1.217   4.855   6.533  0.4383 -2.6468 -0.4961
   63SAPC    C2 5012   1.333   5.044   6.533 -0.4497 -0.2836  0.3356
   63SAPC    HS 5013   1.418   5.082   6.472  0.8053 -2.3434  0.6942
   63SAPC   O21 5014   1.379   5.018   6.668 -0.3909 -0.3894  0.5703
   63SAPC   C21 5015   1.457   5.107   6.722 -0.7351 -0.4769  0.7037
   63SAPC   O22 5016   1.504   5.206   6.666 -0.1003  0.3268  0.1872
   63SAPC   C22 5017   1.502   5.062   6.858  0.2028  0.1847  0.2997
   63SAPC   H2R 5018   1.502   4.952   6.843 -1.2981  0.3291 -0.9619
   63SAPC   H2S 5019   1.607   5.095   6.874  0.3077  0.3689 -0.7069
   63SAPC    C3 5020   1.216   5.148   6.534 -0.2496 -1.0205  0.1348
   63SAPC    HX 5021   1.211   5.164   6.425  0.8269  0.9086  0.3127
   63SAPC    HY 5022   1.268   5.239   6.573  3.5372 -3.1521  0.6152
   63SAPC   O31 5023   1.090   5.095   6.598 -0.2088 -0.2448 -0.3613
   63SAPC   C31 5024   1.056   5.155   6.709  0.2988 -0.5497  0.0140
   63SAPC   O32 5025   1.127   5.233   6.767  0.6595  0.0052 -0.5371
   63SAPC   C32 5026   0.923   5.102   6.760  0.2630 -0.2637 -1.0679
   63SAPC   H2X 5027   0.940   4.993   6.776  4.1445 -0.0119 -2.4028
   63SAPC   H2Y 5028   0.845   5.132   6.688 -0.7240  3.0376  1.1432
   63SAPC   C23 5029   1.409   5.108   6.968  0.5844  0.4924 -0.1127
   63SAPC   H3R 5030   1.301   5.095   6.947  1.2490 -0.6344 -3.5239
   63SAPC   H3S 5031   1.411   5.219   6.967 -2.4930  0.6152  0.7620
   63SAPC   C24 5032   1.453   5.060   7.109 -1.3924  0.1504 -0.2491
   63SAPC   H4R 5033   1.441   4.950   7.100  1.2459 -0.3391  1.0650
   63SAPC   H4S 5034   1.380   5.108   7.178  0.9940  1.6139  1.4201
   63SAPC   C25 5035   1.599   5.085   7.142 -0.3344  0.2892 -0.3924
   63SAPC   H5R 5036   1.672   5.032   7.080  0.4200  1.2478 -0.3506
   63SAPC   C26 5037   1.642   5.147   7.254  0.2659 -0.4242 -0.6318
   63SAPC   H6R 5038   1.749   5.152   7.278  0.5472  0.5744 -1.9842
   63SAPC   C27 5039   1.559   5.193   7.366  1.1257 -0.8915  0.0301
   63SAPC   H7R 5040   1.454   5.209   7.334  1.0599 -0.4120  0.4676
   63SAPC   H7S 5041   1.601   5.289   7.403 -0.4662  0.7036 -2.0925
   63SAPC   C28 5042   1.566   5.088   7.478 -0.5046  0.0424  0.9795
   63SAPC   H8R 5043   1.664   5.038   7.481  0.0865  0.6452 -2.9983
   63SAPC   C29 5044   1.465   5.049   7.559 -0.3520 -1.1126 -0.0928
   63SAPC   H9R 5045   1.489   4.962   7.621  2.2952 -0.7125 -0.4486
   63SAPC  C210 5046   1.327   5.104   7.566  0.7254  0.6946  0.0937
   63SAPC  H10R 5047   1.268   5.047   7.491  2.1577  0.2098 -0.6970
   63SAPC  H10S 5048   1.337   5.207   7.526 -0.6990  0.6548 -0.3947
   63SAPC  C211 5049   1.261   5.115   7.705 -0.6397  0.1920 -0.4161
   63SAPC  H11R 5050   1.307   5.170   7.789 -1.6343  1.0444 -0.4145
   63SAPC  C212 5051   1.153   5.051   7.750  0.0120  0.3212  0.1408
   63SAPC  H12R 5052   1.116   5.068   7.853  1.3259 -1.6779  1.0081
   63SAPC  C213 5053   1.075   4.951   7.677  0.0044  0.3618 -0.2038
   63SAPC  H13R 5054   1.057   4.985   7.573 -1.1652  2.4065  0.6014
   63SAPC  H13S 5055   0.975   4.960   7.725 -2.1117  0.6109 -4.2149
   63SAPC  C214 5056   1.119   4.810   7.688  0.7188  0.1400  0.0125
   63SAPC  H14R 5057   1.184   4.780   7.772  0.8262  0.7754  0.1566
   63SAPC  C215 5058   1.074   4.713   7.602  0.7714 -0.5769 -0.5807
   63SAPC  H15R 5059   1.123   4.615   7.615 -0.2162 -0.8486  1.3498
   63SAPC  C216 5060   0.977   4.729   7.483  0.5196 -0.8396  0.1541
   63SAPC  H16R 5061   0.923   4.825   7.495  0.7058 -1.0064  3.0944
   63SAPC  H16S 5062   0.894   4.655   7.480  0.2656 -0.5068 -1.3643
   63SAPC  C217 5063   1.054   4.729   7.352  0.0737  0.1000  1.3563
   63SAPC  H17R 5064   1.136   4.655   7.358  1.4370  1.6230  2.2930
   63SAPC  H17S 5065   1.118   4.819   7.343 -1.8724  1.4938  0.6492
   63SAPC  C218 5066   0.957   4.725   7.235 -0.2862 -0.1143  0.0600
   63SAPC  H18R 5067   0.902   4.822   7.242  0.3034  0.1574  1.2720
   63SAPC  H18S 5068   0.880   4.649   7.262 -0.5476 -0.5406 -1.7442
   63SAPC  C219 5069   1.027   4.711   7.098 -0.0131  1.0755 -0.4785
   63SAPC  H19R 5070   1.050   4.606   7.070 -0.5693  0.7843  0.1417
   63SAPC  H19S 5071   1.122   4.767   7.112  1.5816 -0.9793 -2.3353
   63SAPC  C220 5072   0.944   4.770   6.984 -0.1704 -0.2204 -0.5135
   63SAPC  H20R 5073   0.855   4.704   6.971  1.0099 -1.5381 -2.4558
   63SAPC  H20S 5074   1.000   4.781   6.889  1.7961  4.1699  0.9181
   63SAPC  H20T 5075   0.903   4.871   7.006 -1.8481 -0.9806  0.0826
   63SAPC   C33 5076   0.886   5.152   6.901  0.3714  0.3267 -0.6092
   63SAPC   H3X 5077   0.906   5.260   6.921 -0.1194  0.0527  1.6282
   63SAPC   H3Y 5078   0.946   5.105   6.982  0.1837  0.5918 -0.3141
   63SAPC   C34 5079   0.743   5.121   6.930  0.3785 -0.1851 -0.8711
   63SAPC   H4X 5080   0.720   5.012   6.927  0.3947 -0.2781  1.0053
   63SAPC   H4Y 5081   0.680   5.170   6.853 -0.9671 -1.0283 -0.3441
   63SAPC   C35 5082   0.700   5.170   7.068 -0.0587 -0.0484  0.2968
   63SAPC   H5X 5083   0.590   5.156   7.069 -0.2165  1.1332  0.9981
   63SAPC   H5Y 5084   0.707   5.281   7.075  0.7732 -0.2068  3.5859
   63SAPC   C36 5085   0.749   5.107   7.202  0.2509  0.2184  0.0904
   63SAPC   H6X 5086   0.859   5.114   7.199  0.3851 -1.7083 -0.5137
   63SAPC   H6Y 5087   0.726   4.999   7.197  1.8317 -0.1032 -0.8917
   63SAPC   C37 5088   0.699   5.182   7.325 -0.3696  0.4757 -0.2030
   63SAPC   H7X 5089   0.588   5.186   7.320 -0.5206 -2.2049 -0.1052
   63SAPC   H7Y 5090   0.740   5.284   7.310  0.7962 -0.1708 -1.7771
   63SAPC   C38 5091   0.746   5.115   7.460  0.5977 -0.1763 -0.1013
   63SAPC   H8X 5092   0.857   5.111   7.458  0.7596  2.6354 -0.3795
   63SAPC   H8Y 5093   0.705   5.012   7.470 -0.5369  0.1346 -1.2329
   63SAPC   C39 5094   0.712   5.202   7.577 -0.1079 -0.0604 -0.5035
   63SAPC   H9X 5095   0.601   5.199   7.587 -0.1930 -1.9578 -1.5312
   63SAPC   H9Y 5096   0.740   5.308   7.560 -1.5449  1.0712  3.3079
   63SAPC  C310 5097   0.785   5.169   7.708 -0.4304  0.4347 -0.5678
   63SAPC  H10X 5098   0.893   5.168   7.684 -0.5469  1.2542 -1.2039
   63SAPC  H10Y 5099   0.767   5.066   7.744 -0.1822  0.9189  1.0299
   63SAPC  C311 5100   0.752   5.279   7.816 -0.0688  0.9811 -0.0621
   63SAPC  H11X 5101   0.651   5.250   7.851  0.9224 -2.6280  0.2303
   63SAPC  H11Y 5102   0.755   5.375   7.760 -0.2619 -0.3204 -2.4360
   63SAPC  C312 5103   0.839   5.298   7.935  0.1496 -0.8016 -0.4998
   63SAPC  H12X 5104   0.837   5.405   7.964  1.3284 -0.5132 -1.4086
   63SAPC  H12Y 5105   0.943   5.281   7.900 -0.4236 -0.0520 -2.7305
   63SAPC  C313 5106   0.816   5.184   8.038  0.7555  0.5642  0.0833
   63SAPC  H13X 5107   0.823   5.083   7.990 -0.8224  0.0069  0.9321
   63SAPC  H13Y 5108   0.711   5.193   8.075 -0.5790 -3.1947 -2.1725
   63SAPC  C314 5109   0.911   5.202   8.153  0.7205 -0.6317 -0.0533
   63SAPC  H14X 5110   0.859   5.177   8.248 -1.1126  2.8375  0.0509
   63SAPC  H14Y 5111   0.930   5.311   8.167 -0.4574 -0.2902 -0.9366
   63SAPC  C315 5112   1.044   5.127   8.132 -0.2771  0.6496  0.2204
   63SAPC  H15X 5113   1.099   5.144   8.228 -0.4942 -1.4478  0.7559
   63SAPC  H15Y 5114   1.110   5.175   8.056 -0.3208  1.7799  0.8710
   63SAPC  C316 5115   1.042   4.978   8.127 -0.4762  0.1057  0.0528
   63SAPC  H16X 5116   0.995   4.932   8.038 -1.1604  2.4506 -0.8661
   63SAPC  H16Y 5117   0.979   4.939   8.210 -0.7683 -0.2814 -0.3475
   63SAPC  C317 5118   1.179   4.907   8.141 -0.3300  0.4377 -0.1544
   63SAPC  H17X 5119   1.238   4.936   8.231 -0.3208  1.2535 -0.4156
   63SAPC  H17Y 5120   1.230   4.938   8.048  0.5425  1.4808  0.6428
   63SAPC  C318 5121   1.169   4.758   8.142 -0.7466 -0.0322 -0.0868
   63SAPC  H18X 5122   1.140   4.718   8.043 -0.6349 -0.7062  0.1416
   63SAPC  H18Y 5123   1.085   4.725   8.208 -1.8794  0.0380 -1.4611
   63SAPC  H18Z 5124   1.264   4.711   8.173 -0.0842 -1.4481 -3.7826
   64SAPC     N 5125   2.144   5.977   6.101 -0.6481  0.3782  0.2235
   64SAPC   C12 5126   2.184   5.839   6.136 -0.4735 -0.2559  0.0375
   64SAPC  H12A 5127   2.175   5.836   6.244  1.8844 -1.7887  0.2847
   64SAPC  H12B 5128   2.288   5.831   6.107 -1.0776  0.9845 -2.7637
   64SAPC   C13 5129   2.173   5.999   5.958  0.0952 -0.2087  0.2725
   64SAPC  H13A 5130   2.154   6.103   5.933  1.3183  0.3959  1.6894
   64SAPC  H13B 5131   2.274   5.980   5.926 -0.5635  0.1163 -2.2174
   64SAPC  H13C 5132   2.110   5.940   5.893 -2.3866  0.2431  2.1102
   64SAPC   C14 5133   1.999   6.007   6.136 -0.1383  0.5727 -0.9096
   64SAPC  H14A 5134   1.999   6.052   6.234  0.6781 -1.4131  0.0494
   64SAPC  H14B 5135   1.963   6.083   6.068 -0.4811  1.7240  0.5033
   64SAPC  H14C 5136   1.941   5.916   6.133 -1.3762  1.3665 -1.7446
   64SAPC   C15 5137   2.231   6.076   6.170 -0.1191  0.1937  0.2709
   64SAPC  H15A 5138   2.228   6.177   6.131 -1.5248 -0.8336 -2.5182
   64SAPC  H15B 5139   2.206   6.084   6.275 -1.4965 -0.0700 -0.0200
   64SAPC  H15C 5140   2.338   6.057   6.165 -0.0139  1.0074 -1.1071
   64SAPC   C11 5141   2.106   5.717   6.070 -0.4226 -0.2276  0.8193
   64SAPC  H11A 5142   2.153   5.623   6.107  0.9935  0.9128  2.0487
   64SAPC  H11B 5143   2.122   5.729   5.961 -1.5857  0.5380  0.7138
   64SAPC     P 5144   1.910   5.638   6.216 -0.0579 -0.0217  0.3032
   64SAPC   O13 5145   1.771   5.681   6.247 -0.3467  0.1784  0.3253
   64SAPC   O14 5146   1.940   5.499   6.187 -0.1318  0.9854  0.2499
   64SAPC   O12 5147   1.970   5.726   6.103 -0.1251  0.4901 -0.2505
   64SAPC   O11 5148   2.005   5.675   6.337  0.9827 -0.1191 -0.4197
   64SAPC    C1 5149   1.977   5.773   6.431  0.1380  0.4446  0.2512
   64SAPC    HA 5150   2.043   5.859   6.406  0.6381 -0.2567 -0.9311
   64SAPC    HB 5151   1.871   5.807   6.425  0.0389 -0.0290 -1.1099
   64SAPC    C2 5152   2.007   5.730   6.574  0.0782 -0.4191 -0.2942
   64SAPC    HS 5153   2.112   5.696   6.586 -0.4945 -3.0144 -1.7843
   64SAPC   O21 5154   1.910   5.637   6.628  0.4820 -0.4896  0.8644
   64SAPC   C21 5155   1.950   5.516   6.601  0.3245 -0.9204 -0.4754
   64SAPC   O22 5156   2.046   5.478   6.534  0.6458  0.1445 -0.1481
   64SAPC   C22 5157   1.864   5.410   6.678  0.2747 -0.3727  0.2718
   64SAPC   H2R 5158   1.829   5.445   6.777  3.1235 -1.2908  1.7126
   64SAPC   H2S 5159   1.771   5.394   6.620  1.1932 -2.8969 -0.6185
   64SAPC    C3 5160   1.988   5.849   6.677 -0.6695  0.4845  0.2755
   64SAPC    HX 5161   1.898   5.895   6.631  0.8887  2.8743 -0.5857
   64SAPC    HY 5162   2.063   5.931   6.672 -1.6106  1.5731  2.4504
   64SAPC   O31 5163   1.982   5.807   6.820 -0.4533  0.2669  0.7474
   64SAPC   C31 5164   1.855   5.786   6.870 -0.6178 -0.2083 -0.0876
   64SAPC   O32 5165   1.753   5.824   6.824 -0.0938 -0.2518 -0.4435
   64SAPC   C32 5166   1.861   5.702   6.995 -0.1603  0.5869  0.0285
   64SAPC   H2X 5167   1.891   5.775   7.073  0.8764  1.5993 -1.2729
   64SAPC   H2Y 5168   1.939   5.622   6.995 -2.1199 -1.4262 -1.0014
   64SAPC   C23 5169   1.937   5.271   6.689  0.0708  0.2047  0.0811
   64SAPC   H3R 5170   2.029   5.279   6.751 -0.0362  0.3848  0.2189
   64SAPC   H3S 5171   1.960   5.257   6.581  1.7812 -0.8367  0.5395
   64SAPC   C24 5172   1.850   5.158   6.744  0.3055  0.0536  0.3160
   64SAPC   H4R 5173   1.759   5.155   6.681 -0.3106 -0.5655  1.2165
   64SAPC   H4S 5174   1.817   5.199   6.842  0.4715  0.8282  0.0570
   64SAPC   C25 5175   1.913   5.022   6.764 -0.7373 -0.3552  0.2134
   64SAPC   H5R 5176   1.889   4.947   6.686  3.1153 -0.3358 -1.2129
   64SAPC   C26 5177   1.992   4.990   6.873  0.3043  0.7516  0.3336
   64SAPC   H6R 5178   2.025   4.886   6.883 -0.7863  0.2794 -0.6824
   64SAPC   C27 5179   2.035   5.080   6.986  0.4839 -0.4770  0.6489
   64SAPC   H7R 5180   2.008   5.187   6.973 -1.6404 -0.8149  1.8523
   64SAPC   H7S 5181   2.143   5.065   7.007  0.6209  0.2308  0.4828
   64SAPC   C28 5182   1.956   5.028   7.108 -0.5708  0.3980  0.8845
   64SAPC   H8R 5183   1.882   4.950   7.084 -0.2814  0.5114 -0.4338
   64SAPC   C29 5184   1.981   5.052   7.235 -0.3927 -0.3567 -0.2539
   64SAPC   H9R 5185   1.924   4.996   7.310  0.2479 -0.3252  0.2650
   64SAPC  C210 5186   2.095   5.128   7.300  0.3330 -0.2287  0.2522
   64SAPC  H10R 5187   2.163   5.160   7.218 -0.8680  0.9977 -0.3072
   64SAPC  H10S 5188   2.150   5.067   7.374 -1.6406  0.0767  2.0668
   64SAPC  C211 5189   2.040   5.249   7.369 -0.6853  0.0016  0.2128
   64SAPC  H11R 5190   2.017   5.332   7.300  1.6516 -2.5449 -4.0280
   64SAPC  C212 5191   2.001   5.260   7.499  0.0640  0.6522 -0.2384
   64SAPC  H12R 5192   1.961   5.357   7.532  1.2008  1.7701 -1.9432
   64SAPC  C213 5193   1.999   5.149   7.597  0.6441  0.1167 -0.2700
   64SAPC  H13R 5194   2.090   5.126   7.657 -0.8297  0.9788  2.4706
   64SAPC  H13S 5195   1.979   5.053   7.546 -2.6092 -0.1920  1.3461
   64SAPC  C214 5196   1.893   5.184   7.704  0.1741  0.7930 -0.6238
   64SAPC  H14R 5197   1.829   5.272   7.686  2.2447  2.0967 -2.0676
   64SAPC  C215 5198   1.861   5.103   7.810  0.1736 -0.0126  0.9048
   64SAPC  H15R 5199   1.789   5.138   7.886 -1.2256 -0.8436  0.0089
   64SAPC  C216 5200   1.921   4.968   7.839 -0.7894 -0.2045 -0.7064
   64SAPC  H16R 5201   2.011   4.945   7.778 -0.7104  1.3276 -1.2005
   64SAPC  H16S 5202   1.849   4.884   7.823 -1.4323  0.2691 -0.3537
   64SAPC  C217 5203   1.976   4.961   7.981 -0.8447  0.3762  0.0375
   64SAPC  H17R 5204   1.991   4.855   8.013 -3.2694  0.2583  0.9742
   64SAPC  H17S 5205   1.916   5.016   8.056  0.2799  0.8870  0.5837
   64SAPC  C218 5206   2.119   5.021   7.994 -0.6415 -0.3904 -0.8443
   64SAPC  H18R 5207   2.137   5.060   8.097  3.3585  1.4702 -2.0528
   64SAPC  H18S 5208   2.127   5.112   7.932  0.2748  1.6294  2.0156
   64SAPC  C219 5209   2.233   4.929   7.951 -0.2729 -0.1162  0.6075
   64SAPC  H19R 5210   2.236   4.918   7.841  0.3309  1.8259  0.3849
   64SAPC  H19S 5211   2.211   4.828   7.992 -1.6289  0.6631  1.9017
   64SAPC  C220 5212   2.371   4.969   7.999 -0.4028  0.6269 -0.3150
   64SAPC  H20R 5213   2.447   4.905   7.949 -0.6107  0.2193 -0.1179
   64SAPC  H20S 5214   2.369   4.961   8.110 -1.5960 -0.5228 -0.3898
   64SAPC  H20T 5215   2.392   5.074   7.969  0.3007  0.1685 -1.4913
   64SAPC   C33 5216   1.733   5.629   7.019 -0.1518 -0.0629  0.7665
   64SAPC   H3X 5217   1.725   5.545   6.947  0.0788  2.7689 -2.8647
   64SAPC   H3Y 5218   1.647   5.698   6.999 -0.2275  0.2985  2.2001
   64SAPC   C34 5219   1.731   5.575   7.162  1.3962 -0.4481  0.1604
   64SAPC   H4X 5220   1.827   5.524   7.181  0.5574 -2.1054  0.1232
   64SAPC   H4Y 5221   1.647   5.502   7.162  0.6615  0.3628  1.1159
   64SAPC   C35 5222   1.704   5.688   7.262  0.0878 -0.2419 -0.1876
   64SAPC   H5X 5223   1.639   5.770   7.223  1.5877  0.5924 -1.0750
   64SAPC   H5Y 5224   1.802   5.740   7.257 -0.1953  0.2038 -1.9171
   64SAPC   C36 5225   1.652   5.660   7.401 -0.7039  0.3280  0.3010
   64SAPC   H6X 5226   1.562   5.595   7.404 -1.1200  0.9145  0.9734
   64SAPC   H6Y 5227   1.633   5.752   7.460 -1.6023  0.6921 -0.5170
   64SAPC   C37 5228   1.763   5.605   7.486 -0.5627 -0.5626 -0.1848
   64SAPC   H7X 5229   1.860   5.658   7.499  0.4750 -2.4424  0.0016
   64SAPC   H7Y 5230   1.794   5.502   7.462 -0.2163 -0.7536  0.9885
   64SAPC   C38 5231   1.725   5.594   7.637 -0.6073 -0.3730  0.4563
   64SAPC   H8X 5232   1.692   5.687   7.688  0.2642 -0.7714  1.7892
   64SAPC   H8Y 5233   1.817   5.567   7.693  0.6290  0.6792 -0.9473
   64SAPC   C39 5234   1.616   5.491   7.666 -0.4294 -0.4630 -0.4194
   64SAPC   H9X 5235   1.644   5.405   7.602 -1.3981 -1.9971  1.1301
   64SAPC   H9Y 5236   1.513   5.503   7.626 -0.1203 -2.1836 -1.8227
   64SAPC  C310 5237   1.598   5.454   7.817  0.3437 -0.0740 -0.6676
   64SAPC  H10X 5238   1.559   5.541   7.873 -2.2687 -2.1163  0.8948
   64SAPC  H10Y 5239   1.697   5.441   7.866 -0.5064  0.2272  1.2116
   64SAPC  C311 5240   1.504   5.335   7.830 -0.4693 -0.2418  0.9924
   64SAPC  H11X 5241   1.557   5.243   7.798 -1.2912  0.1891 -1.8416
   64SAPC  H11Y 5242   1.429   5.363   7.753 -1.0635 -0.6073  1.4275
   64SAPC  C312 5243   1.435   5.337   7.965 -0.2932  0.0494 -0.8733
   64SAPC  H12X 5244   1.331   5.297   7.964  0.5355 -2.3594  0.7322
   64SAPC  H12Y 5245   1.424   5.438   8.010  0.7564 -0.9413  1.7901
   64SAPC  C313 5246   1.503   5.241   8.056 -0.0359  0.7864  0.2381
   64SAPC  H13X 5247   1.434   5.242   8.143 -0.3911 -0.0158 -0.0187
   64SAPC  H13Y 5248   1.599   5.285   8.090 -0.7045  2.6212 -0.1679
   64SAPC  C314 5249   1.519   5.093   8.006 -0.3094  0.3710 -0.4984
   64SAPC  H14X 5250   1.587   5.084   7.918  1.6862 -2.7192  1.1875
   64SAPC  H14Y 5251   1.421   5.048   7.978  0.1662 -0.7579 -0.4026
   64SAPC  C315 5252   1.608   5.013   8.102  0.4662 -0.4259  0.3763
   64SAPC  H15X 5253   1.681   5.085   8.144 -0.6758  1.6092 -0.9457
   64SAPC  H15Y 5254   1.662   4.933   8.047  1.5027  0.1420  0.5367
   64SAPC  C316 5255   1.542   4.959   8.227  0.4752  0.6086  0.6378
   64SAPC  H16X 5256   1.503   4.862   8.188  3.0927 -0.9247  1.5500
   64SAPC  H16Y 5257   1.457   5.013   8.273 -1.1836 -0.3543 -1.1148
   64SAPC  C317 5258   1.639   4.938   8.344  0.1712  0.5533 -0.3614
   64SAPC  H17X 5259   1.669   5.043   8.366 -1.5280  0.9800  0.0722
   64SAPC  H17Y 5260   1.726   4.879   8.309  0.1505 -1.1408  2.1820
   64SAPC  C318 5261   1.576   4.879   8.474 -0.8402 -0.1657  0.3140
   64SAPC  H18X 5262   1.523   4.786   8.445  1.5843 -2.0946  1.6542
   64SAPC  H18Y 5263   1.504   4.946   8.527  0.3060  1.5486 -0.2036
   64SAPC  H18Z 5264   1.659   4.860   8.545  1.3337  0.9666 -1.7655
   65SAPC     N 5265   4.712   6.704   6.075 -0.4772 -0.1546 -0.0828
   65SAPC   C12 5266   4.619   6.826   6.087  0.4307  0.7070  0.5715
   65SAPC  H12A 5267   4.522   6.783   6.067  0.2418  1.2890  0.2193
   65SAPC  H12B 5268   4.635   6.892   6.003  0.6852  0.7035  0.6154
   65SAPC   C13 5269   4.700   6.611   6.187 -0.1210  0.2844  0.1596
   65SAPC  H13A 5270   4.602   6.566   6.199 -0.3346  0.9874  1.1816
   65SAPC  H13B 5271   4.767   6.526   6.182 -1.5973 -0.8595 -1.7184
   65SAPC  H13C 5272   4.731   6.652   6.282  0.0562  0.5186  0.0020
   65SAPC   C14 5273   4.691   6.627   5.943 -0.6003 -0.5615  0.1238
   65SAPC  H14A 5274   4.755   6.542   5.925  0.9819  0.6322 -0.0722
   65SAPC  H14B 5275   4.588   6.596   5.943 -0.9795  0.6585  0.1315
   65SAPC  H14C 5276   4.702   6.690   5.856 -1.6803 -0.2944  0.1695
   65SAPC   C15 5277   4.852   6.755   6.071  0.2021  0.6349 -0.7872
   65SAPC  H15A 5278   4.866   6.814   5.982  1.1532  0.7999 -0.5313
   65SAPC  H15B 5279   4.872   6.818   6.156 -2.7655  0.3485  0.2328
   65SAPC  H15C 5280   4.925   6.675   6.068 -0.5692 -0.0737 -1.5134
   65SAPC   C11 5281   4.611   6.911   6.211  0.4127 -0.4696 -0.3162
   65SAPC  H11A 5282   4.609   6.845   6.300 -2.1659 -1.1261 -0.7635
   65SAPC  H11B 5283   4.513   6.964   6.217 -0.9454 -2.8496 -0.5440
   65SAPC     P 5284   4.748   7.115   6.108  0.4668 -0.1080 -0.4081
   65SAPC   O13 5285   4.880   7.098   6.047 -0.6685 -0.4038  0.5784
   65SAPC   O14 5286   4.635   7.110   6.008  0.3521 -0.0095 -0.2614
   65SAPC   O12 5287   4.718   7.005   6.214 -0.3992 -0.1696 -0.0688
   65SAPC   O11 5288   4.738   7.250   6.189 -0.1032 -0.4485 -0.8143
   65SAPC    C1 5289   4.742   7.242   6.330 -0.1016  0.0471 -1.0356
   65SAPC    HA 5290   4.808   7.163   6.372 -0.0818  1.3000  1.4767
   65SAPC    HB 5291   4.793   7.334   6.367  1.1639 -1.4084  1.0235
   65SAPC    C2 5292   4.603   7.232   6.398  0.1079  0.2121  0.7702
   65SAPC    HS 5293   4.546   7.173   6.323  1.3587  0.4931 -0.4470
   65SAPC   O21 5294   4.544   7.362   6.402 -0.0638 -0.2402  0.1503
   65SAPC   C21 5295   4.414   7.361   6.392  0.7697  0.2248 -0.2124
   65SAPC   O22 5296   4.343   7.261   6.393 -0.0422 -0.2478  0.1870
   65SAPC   C22 5297   4.357   7.499   6.395 -0.4228  0.2302  0.0522
   65SAPC   H2R 5298   4.405   7.566   6.321  0.7748 -0.9637 -0.2922
   65SAPC   H2S 5299   4.251   7.485   6.364 -0.0033 -0.4488 -1.1385
   65SAPC    C3 5300   4.604   7.158   6.531 -0.5551  0.2112 -0.5608
   65SAPC    HX 5301   4.668   7.068   6.512 -1.4395 -0.4601 -0.4412
   65SAPC    HY 5302   4.503   7.121   6.559  0.0054 -0.8115  0.2006
   65SAPC   O31 5303   4.675   7.242   6.632 -0.2738 -0.1144  0.5467
   65SAPC   C31 5304   4.660   7.182   6.744  0.6621 -0.3833 -0.5580
   65SAPC   O32 5305   4.603   7.074   6.762  0.5260 -0.0530  0.1487
   65SAPC   C32 5306   4.704   7.274   6.851 -0.4013  0.3100 -0.5914
   65SAPC   H2X 5307   4.637   7.361   6.869 -3.6059 -2.2888  1.1038
   65SAPC   H2Y 5308   4.808   7.304   6.826 -0.0548  1.0277  1.5487
   65SAPC   C23 5309   4.370   7.562   6.531  0.3076 -0.2460 -0.5202
   65SAPC   H3R 5310   4.374   7.671   6.509  0.3130  0.2607  1.7573
   65SAPC   H3S 5311   4.465   7.543   6.586 -0.0345 -0.1489  0.1212
   65SAPC   C24 5312   4.251   7.545   6.630  0.5888  0.9866  0.0755
   65SAPC   H4R 5313   4.154   7.575   6.585 -1.1243 -3.5819  0.1323
   65SAPC   H4S 5314   4.268   7.613   6.715  0.4075  2.0331 -0.7083
   65SAPC   C25 5315   4.255   7.400   6.676 -0.0006 -0.1542  0.6488
   65SAPC   H5R 5316   4.232   7.329   6.596 -0.0139  0.6929 -0.1194
   65SAPC   C26 5317   4.292   7.352   6.802 -0.0071 -0.3677 -0.2687
   65SAPC   H6R 5318   4.304   7.243   6.814  2.0358 -0.3679 -1.7911
   65SAPC   C27 5319   4.345   7.429   6.920  0.3256  0.8540 -1.1101
   65SAPC   H7R 5320   4.364   7.535   6.895 -2.3073  1.2180 -1.7816
   65SAPC   H7S 5321   4.433   7.376   6.964 -0.6224  0.6091  0.6012
   65SAPC   C28 5322   4.229   7.439   7.018 -0.0621 -0.0001  0.4233
   65SAPC   H8R 5323   4.135   7.434   6.962  1.3930  2.0368 -2.4760
   65SAPC   C29 5324   4.220   7.452   7.153 -0.6492  0.3118  0.0681
   65SAPC   H9R 5325   4.120   7.462   7.198 -0.4453 -0.1583  0.6460
   65SAPC  C210 5326   4.341   7.454   7.241  0.2223  0.1972 -0.9865
   65SAPC  H10R 5327   4.344   7.551   7.296 -2.9866 -0.9552  1.4719
   65SAPC  H10S 5328   4.436   7.446   7.183  1.0112 -1.0438  0.4086
   65SAPC  C211 5329   4.341   7.338   7.342  0.5203  0.4264  0.5288
   65SAPC  H11R 5330   4.296   7.246   7.300 -0.2540  1.0747 -0.0798
   65SAPC  C212 5331   4.375   7.345   7.468  0.9323 -0.0724 -0.4181
   65SAPC  H12R 5332   4.358   7.260   7.536  1.9502  1.6476  2.1451
   65SAPC  C213 5333   4.426   7.469   7.541  0.2093 -0.4820 -0.8806
   65SAPC  H13R 5334   4.486   7.528   7.468 -0.2700 -1.3596 -2.0217
   65SAPC  H13S 5335   4.498   7.435   7.618 -0.8772  0.4984  0.6106
   65SAPC  C214 5336   4.304   7.537   7.605 -0.5220  0.3511 -0.3278
   65SAPC  H14R 5337   4.209   7.522   7.553  0.6777 -0.5509 -2.3652
   65SAPC  C215 5338   4.324   7.623   7.709 -0.1662  0.0765  0.1270
   65SAPC  H15R 5339   4.244   7.688   7.748 -1.7765 -0.4466 -2.0745
   65SAPC  C216 5340   4.461   7.654   7.768 -0.1279  0.3415 -0.6598
   65SAPC  H16R 5341   4.473   7.764   7.768  0.2722  0.3143  0.5282
   65SAPC  H16S 5342   4.551   7.617   7.715 -0.8055 -2.0796 -0.2413
   65SAPC  C217 5343   4.472   7.586   7.911  0.1227  0.1180  0.4691
   65SAPC  H17R 5344   4.574   7.607   7.951  0.5037 -0.6590 -0.0949
   65SAPC  H17S 5345   4.476   7.479   7.884 -1.4381  1.0933 -4.5969
   65SAPC  C218 5346   4.359   7.624   8.007 -0.4119  1.2104  0.4762
   65SAPC  H18R 5347   4.267   7.578   7.967 -0.3909  2.0208 -0.5225
   65SAPC  H18S 5348   4.355   7.734   8.021 -1.4185  1.4710 -1.5412
   65SAPC  C219 5349   4.368   7.558   8.147 -0.7223  0.0351  0.9240
   65SAPC  H19R 5350   4.456   7.601   8.200  0.5562  0.7856 -1.6444
   65SAPC  H19S 5351   4.383   7.449   8.131 -2.2569  0.0959 -1.3076
   65SAPC  C220 5352   4.240   7.569   8.229  0.1659  0.2969 -0.0859
   65SAPC  H20R 5353   4.245   7.506   8.321  0.8406 -1.0121 -0.9836
   65SAPC  H20S 5354   4.149   7.550   8.168  1.6068 -1.8600 -1.7270
   65SAPC  H20T 5355   4.231   7.674   8.265 -1.4491  0.8123 -1.8450
   65SAPC   C33 5356   4.732   7.196   6.978 -0.5564 -0.4576  1.0739
   65SAPC   H3X 5357   4.839   7.166   6.970 -0.1484  1.2934 -0.9576
   65SAPC   H3Y 5358   4.671   7.104   6.992 -0.2535 -0.9035 -0.3512
   65SAPC   C34 5359   4.713   7.279   7.110  0.5195 -0.7790 -0.0796
   65SAPC   H4X 5360   4.603   7.278   7.127  0.7827 -1.5366  1.8089
   65SAPC   H4Y 5361   4.749   7.383   7.100  0.5918 -0.8588 -0.6989
   65SAPC   C35 5362   4.788   7.218   7.236 -0.7466  0.1303  0.0604
   65SAPC   H5X 5363   4.897   7.228   7.216 -0.3932 -1.8246  0.7189
   65SAPC   H5Y 5364   4.767   7.109   7.246  0.5928 -0.0667  0.9463
   65SAPC   C36 5365   4.746   7.277   7.368 -0.1756  0.6821 -0.1798
   65SAPC   H6X 5366   4.641   7.245   7.382  0.4017 -0.6204  1.5778
   65SAPC   H6Y 5367   4.745   7.388   7.368 -1.6429  0.6774  0.0230
   65SAPC   C37 5368   4.828   7.219   7.483  0.3697  0.0231 -0.2396
   65SAPC   H7X 5369   4.936   7.234   7.465  0.8428 -0.9482  1.4963
   65SAPC   H7Y 5370   4.811   7.110   7.491  0.9638 -0.2717 -2.4263
   65SAPC   C38 5371   4.786   7.288   7.615  0.1989  0.0721  0.2598
   65SAPC   H8X 5372   4.682   7.255   7.636  0.2307  0.5838  1.2434
   65SAPC   H8Y 5373   4.806   7.396   7.607  0.8336  0.2266  3.0534
   65SAPC   C39 5374   4.879   7.256   7.730 -0.7500  0.7712  0.7075
   65SAPC   H9X 5375   4.979   7.292   7.696  0.2911 -2.8742 -0.5909
   65SAPC   H9Y 5376   4.891   7.147   7.749  0.0038  0.9262  1.1649
   65SAPC  C310 5377   4.844   7.328   7.861  0.1613 -0.3955 -0.5003
   65SAPC  H10X 5378   4.737   7.306   7.882  0.3224 -0.9246 -0.2021
   65SAPC  H10Y 5379   4.832   7.435   7.837 -0.2278 -0.1213  0.8472
   65SAPC  C311 5380   4.938   7.304   7.980  0.6319  0.5049  0.6508
   65SAPC  H11X 5381   5.043   7.310   7.945  0.5179 -0.3059  0.1520
   65SAPC  H11Y 5382   4.928   7.199   8.017 -1.5719  0.9171  1.4092
   65SAPC  C312 5383   4.914   7.396   8.099 -0.2553  0.2915  0.1608
   65SAPC  H12X 5384   4.807   7.395   8.125 -0.8753  2.9137 -1.9000
   65SAPC  H12Y 5385   4.944   7.500   8.077  1.0887  0.1481  1.1829
   65SAPC  C313 5386   4.990   7.353   8.229  1.1093 -0.2201 -0.1022
   65SAPC  H13X 5387   5.098   7.352   8.204  1.0577  2.1085 -0.6195
   65SAPC  H13Y 5388   4.970   7.245   8.249 -1.3226  0.5248  1.9649
   65SAPC  C314 5389   4.956   7.434   8.351 -0.9311  0.0022 -0.3181
   65SAPC  H14X 5390   4.848   7.431   8.377 -1.1020  3.2895 -0.2116
   65SAPC  H14Y 5391   4.990   7.540   8.347 -0.9030  0.0838  1.1889
   65SAPC  C315 5392   5.042   7.382   8.472 -0.3225 -0.2949 -0.1545
   65SAPC  H15X 5393   5.151   7.398   8.454 -0.4162  1.3745  0.5080
   65SAPC  H15Y 5394   5.026   7.273   8.485  3.4415 -1.6171 -4.1533
   65SAPC  C316 5395   5.021   7.479   8.600 -0.1149 -0.0532  1.0821
   65SAPC  H16X 5396   5.054   7.429   8.694 -0.3767 -1.9963  0.1983
   65SAPC  H16Y 5397   4.915   7.511   8.601 -0.9056 -2.0427 -2.2938
   65SAPC  C317 5398   5.092   7.617   8.584  0.1447  0.9379  0.2239
   65SAPC  H17X 5399   5.052   7.674   8.498 -0.0201  1.7834  0.8446
   65SAPC  H17Y 5400   5.202   7.605   8.576 -0.0721  0.2085 -2.3753
   65SAPC  C318 5401   5.064   7.705   8.711 -0.2710 -0.3515 -0.4796
   65SAPC  H18X 5402   5.096   7.654   8.804 -0.0631  1.6072  0.5674
   65SAPC  H18Y 5403   4.954   7.719   8.722 -0.2111 -0.0169 -0.3094
   65SAPC  H18Z 5404   5.117   7.800   8.694  0.7949 -1.2812 -2.7730
   66SAPC     N 5405   1.862   1.870   6.120  0.4788  0.3378 -1.1067
   66SAPC   C12 5406   1.893   1.877   6.267  0.1548 -0.4176 -0.2380
   66SAPC  H12A 5407   1.795   1.875   6.312 -0.5309  0.9399 -1.6167
   66SAPC  H12B 5408   1.945   1.968   6.294 -2.9080  1.5328 -0.4706
   66SAPC   C13 5409   1.815   2.000   6.065 -0.1860 -0.4033 -0.3529
   66SAPC  H13A 5410   1.789   1.994   5.960 -1.6017  0.5192 -0.0786
   66SAPC  H13B 5411   1.725   2.030   6.117  0.5942  0.1299  0.7103
   66SAPC  H13C 5412   1.881   2.083   6.080 -0.0896 -0.1824 -1.8363
   66SAPC   C14 5413   1.977   1.815   6.035 -0.8546 -0.4880 -0.4509
   66SAPC  H14A 5414   2.061   1.883   6.046 -2.0009  0.8031  0.7526
   66SAPC  H14B 5415   2.007   1.719   6.074 -2.5770 -0.2839  1.5650
   66SAPC  H14C 5416   1.947   1.804   5.932  0.3443 -0.9770 -0.7628
   66SAPC   C15 5417   1.748   1.773   6.100 -0.6595 -0.3994 -0.1181
   66SAPC  H15A 5418   1.786   1.680   6.139 -1.3916 -0.7789 -0.3007
   66SAPC  H15B 5419   1.662   1.802   6.159  0.0287 -0.3730  0.9002
   66SAPC  H15C 5420   1.711   1.768   5.999 -0.4097 -0.0080 -0.2299
   66SAPC   C11 5421   1.968   1.751   6.325  0.0409  0.2961  0.2497
   66SAPC  H11A 5422   1.968   1.778   6.433  1.7670 -1.4807  0.7676
   66SAPC  H11B 5423   2.078   1.755   6.307  0.2607 -1.8457  0.8215
   66SAPC     P 5424   1.791   1.573   6.372  0.0716  0.3773  0.0942
   66SAPC   O13 5425   1.673   1.664   6.378 -0.1765 -0.2203 -0.6654
   66SAPC   O14 5426   1.771   1.431   6.322 -0.0448  0.1366 -0.2525
   66SAPC   O12 5427   1.913   1.629   6.291 -0.0635  0.4306  0.3720
   66SAPC   O11 5428   1.837   1.576   6.516  0.3533 -0.1939 -0.4954
   66SAPC    C1 5429   1.939   1.491   6.569 -0.5440  1.0364 -0.3487
   66SAPC    HA 5430   2.019   1.461   6.498 -0.8853 -1.5007  0.2197
   66SAPC    HB 5431   1.990   1.543   6.653 -1.3337  0.2349  0.6671
   66SAPC    C2 5432   1.876   1.363   6.642  0.1810  0.1404 -0.3189
   66SAPC    HS 5433   1.950   1.312   6.707 -0.3632  0.9446  0.9685
   66SAPC   O21 5434   1.826   1.265   6.550  0.3733  0.0987 -0.0913
   66SAPC   C21 5435   1.923   1.194   6.503 -0.0026  1.4255 -0.3148
   66SAPC   O22 5436   2.045   1.211   6.510  0.4267 -0.2322 -0.0405
   66SAPC   C22 5437   1.867   1.072   6.415 -0.2157 -0.3294  0.1311
   66SAPC   H2R 5438   1.809   1.133   6.341  1.7828  1.3536 -0.1415
   66SAPC   H2S 5439   1.954   1.030   6.361  1.1135  3.3252 -0.8657
   66SAPC    C3 5440   1.758   1.397   6.739  0.7901 -0.2523 -0.1753
   66SAPC    HX 5441   1.664   1.418   6.684  0.7627  0.1654  0.0260
   66SAPC    HY 5442   1.788   1.496   6.778  1.6605 -1.0018  1.1471
   66SAPC   O31 5443   1.738   1.300   6.841 -0.1179 -0.4388  0.0360
   66SAPC   C31 5444   1.805   1.316   6.957 -0.2811  0.5886 -0.1055
   66SAPC   O32 5445   1.893   1.398   6.979  0.4701 -0.0589 -0.6874
   66SAPC   C32 5446   1.755   1.216   7.066 -0.5624 -0.2825 -0.1147
   66SAPC   H2X 5447   1.778   1.113   7.031  0.3151 -0.2859  0.4373
   66SAPC   H2Y 5448   1.646   1.237   7.063 -0.4954 -0.0350 -1.5123
   66SAPC   C23 5449   1.778   0.969   6.485 -0.4801  0.2843 -0.2491
   66SAPC   H3R 5450   1.706   0.928   6.412 -1.5660  0.8205  0.4918
   66SAPC   H3S 5451   1.709   1.023   6.553 -0.8722  0.1199 -0.5191
   66SAPC   C24 5452   1.842   0.849   6.564 -0.6543  0.2186 -0.2810
   66SAPC   H4R 5453   1.903   0.786   6.495  2.3802  2.8626 -0.2603
   66SAPC   H4S 5454   1.759   0.782   6.595  0.1754 -0.2422  1.0031
   66SAPC   C25 5455   1.917   0.892   6.687  0.1960  0.7024  0.4689
   66SAPC   H5R 5456   2.010   0.947   6.670 -0.1042  0.7707 -1.1084
   66SAPC   C26 5457   1.859   0.889   6.811 -0.0964 -0.1998  0.2096
   66SAPC   H6R 5458   1.915   0.920   6.901 -0.0016 -0.6102  0.2951
   66SAPC   C27 5459   1.722   0.848   6.857  0.4584 -0.7626  1.2491
   66SAPC   H7R 5460   1.654   0.842   6.769 -0.7724  1.0670  2.0170
   66SAPC   H7S 5461   1.665   0.924   6.915 -1.9590 -1.4273 -0.0859
   66SAPC   C28 5462   1.730   0.712   6.923  0.2408  0.6212 -0.7919
   66SAPC   H8R 5463   1.764   0.621   6.871  1.7934  0.1783  0.8742
   66SAPC   C29 5464   1.691   0.682   7.048 -0.3357  0.0196 -0.4092
   66SAPC   H9R 5465   1.721   0.582   7.083 -1.1744 -0.7230 -1.7256
   66SAPC  C210 5466   1.638   0.773   7.158  0.5623 -0.1223 -0.2693
   66SAPC  H10R 5467   1.574   0.720   7.233 -0.9390  0.9147 -0.7690
   66SAPC  H10S 5468   1.572   0.849   7.111  1.7094  2.5770  2.1936
   66SAPC  C211 5469   1.745   0.850   7.234  0.2924 -0.2628  0.0479
   66SAPC  H11R 5470   1.844   0.855   7.186 -0.8267  0.8181 -2.3611
   66SAPC  C212 5471   1.726   0.917   7.350 -0.7603  0.1158  1.0260
   66SAPC  H12R 5472   1.804   0.985   7.388 -0.1271 -0.1756  0.2508
   66SAPC  C213 5473   1.597   0.924   7.414 -0.3534 -0.1326  0.2295
   66SAPC  H13R 5474   1.577   0.816   7.425  0.8627 -0.5492 -1.3633
   66SAPC  H13S 5475   1.525   0.969   7.342  0.1609  2.3451  1.1363
   66SAPC  C214 5476   1.563   0.992   7.546  0.3886  0.1133  0.2846
   66SAPC  H14R 5477   1.502   1.083   7.544  1.7676  1.0532 -0.6238
   66SAPC  C215 5478   1.612   0.951   7.663  0.2535  0.3841  1.1053
   66SAPC  H15R 5479   1.595   1.010   7.755 -0.9024 -1.4364  2.1048
   66SAPC  C216 5480   1.705   0.827   7.678 -0.3816  0.5220 -0.7041
   66SAPC  H16R 5481   1.810   0.850   7.654 -0.0172  0.6783  0.9453
   66SAPC  H16S 5482   1.668   0.747   7.610 -0.3710  0.9737 -1.2447
   66SAPC  C217 5483   1.703   0.763   7.817 -0.1416 -0.7483  0.7443
   66SAPC  H17R 5484   1.766   0.672   7.831  3.6205  1.7082  0.9659
   66SAPC  H17S 5485   1.599   0.736   7.847  0.1770 -2.2349  0.6229
   66SAPC  C218 5486   1.754   0.849   7.935  0.0651  0.2899 -0.1832
   66SAPC  H18R 5487   1.704   0.948   7.934  0.8134  0.6947  0.8178
   66SAPC  H18S 5488   1.862   0.865   7.918  0.3287  0.0032  1.0999
   66SAPC  C219 5489   1.719   0.784   8.072  0.1260  0.3872  0.4755
   66SAPC  H19R 5490   1.736   0.678   8.043 -0.5625  0.0363  1.3196
   66SAPC  H19S 5491   1.612   0.804   8.094  0.4620  2.1837  0.5925
   66SAPC  C220 5492   1.812   0.822   8.186 -0.7170  0.0242  0.1669
   66SAPC  H20R 5493   1.770   0.771   8.276 -0.9661 -0.1576 -0.0525
   66SAPC  H20S 5494   1.822   0.932   8.198  0.7216  0.0703 -1.2438
   66SAPC  H20T 5495   1.912   0.779   8.164 -0.4927  0.5407  0.1644
   66SAPC   C33 5496   1.829   1.225   7.202 -0.2059 -0.5876 -0.5907
   66SAPC   H3X 5497   1.939   1.210   7.203  0.0513  0.9738  1.1533
   66SAPC   H3Y 5498   1.781   1.144   7.261  1.8067 -1.4454 -0.0387
   66SAPC   C34 5499   1.798   1.363   7.268 -0.2273 -0.4739  0.2865
   66SAPC   H4X 5500   1.688   1.376   7.277 -0.3076 -1.0916  0.2262
   66SAPC   H4Y 5501   1.842   1.445   7.208  0.4590  0.0819  1.5081
   66SAPC   C35 5502   1.861   1.374   7.404  0.8879  0.7463 -0.5311
   66SAPC   H5X 5503   1.816   1.462   7.455  0.9256  0.2070  0.4662
   66SAPC   H5Y 5504   1.970   1.395   7.394  1.2116  1.1419  2.7102
   66SAPC   C36 5505   1.852   1.251   7.499 -0.0407  1.0048 -0.2540
   66SAPC   H6X 5506   1.917   1.167   7.468 -0.6932 -1.0778  3.4403
   66SAPC   H6Y 5507   1.748   1.212   7.497 -0.3914  1.7314  1.5532
   66SAPC   C37 5508   1.885   1.290   7.638 -0.0910  0.3213 -0.2024
   66SAPC   H7X 5509   1.805   1.353   7.685  1.9237  1.7495  1.5091
   66SAPC   H7Y 5510   1.977   1.352   7.640 -1.3515  2.2856  0.7422
   66SAPC   C38 5511   1.902   1.165   7.730 -0.4405  0.0384  0.1348
   66SAPC   H8X 5512   1.994   1.110   7.702 -0.9302 -0.6642 -0.1417
   66SAPC   H8Y 5513   1.816   1.099   7.703  0.9727 -1.5128 -0.7831
   66SAPC   C39 5514   1.912   1.189   7.885 -0.5302  0.1559 -0.1629
   66SAPC   H9X 5515   2.002   1.251   7.906  1.5208 -2.9832  1.0890
   66SAPC   H9Y 5516   1.926   1.092   7.939 -1.0285  1.1556  1.8641
   66SAPC  C310 5517   1.788   1.249   7.941 -0.4059 -0.0118  0.9690
   66SAPC  H10X 5518   1.700   1.201   7.892  1.0791 -0.2525 -1.6275
   66SAPC  H10Y 5519   1.780   1.353   7.902  1.1322 -0.2578 -0.0663
   66SAPC  C311 5520   1.758   1.224   8.090 -0.4808 -0.4185  1.0913
   66SAPC  H11X 5521   1.740   1.117   8.114  0.6946 -0.5433  1.4855
   66SAPC  H11Y 5522   1.666   1.283   8.108 -0.0154  0.5238  0.4842
   66SAPC  C312 5523   1.858   1.280   8.187 -0.6944  0.2477 -0.6691
   66SAPC  H12X 5524   1.889   1.384   8.165 -1.7724  1.4060  2.6292
   66SAPC  H12Y 5525   1.953   1.222   8.180 -0.8406 -0.0874  0.0225
   66SAPC  C313 5526   1.815   1.269   8.334  0.6761  0.2907 -0.2628
   66SAPC  H13X 5527   1.766   1.172   8.356  0.5923  0.0034 -1.5941
   66SAPC  H13Y 5528   1.738   1.348   8.347  0.0360  0.3172 -3.3788
   66SAPC  C314 5529   1.933   1.290   8.433  0.0785 -0.6410  0.1850
   66SAPC  H14X 5530   1.966   1.395   8.426  1.1689 -1.0783 -2.2823
   66SAPC  H14Y 5531   2.027   1.234   8.413 -0.0780 -0.6568 -0.5268
   66SAPC  C315 5532   1.895   1.246   8.572  0.0447 -0.6239 -0.0105
   66SAPC  H15X 5533   1.857   1.142   8.567 -0.6972 -0.3598  0.0410
   66SAPC  H15Y 5534   1.817   1.321   8.599  0.4520 -0.3885  0.5453
   66SAPC  C316 5535   2.019   1.244   8.670  0.4438 -0.5997 -0.1178
   66SAPC  H16X 5536   1.973   1.264   8.770  2.6537  2.4863  0.4135
   66SAPC  H16Y 5537   2.077   1.338   8.662 -0.6431 -0.0772 -3.8268
   66SAPC  C317 5538   2.110   1.131   8.659 -0.5050 -0.4065  0.5167
   66SAPC  H17X 5539   2.171   1.141   8.566 -0.1263  0.5802  0.8560
   66SAPC  H17Y 5540   2.055   1.035   8.657 -0.4407 -0.4381 -0.1342
   66SAPC  C318 5541   2.209   1.119   8.773  0.1252  0.1262  0.1516
   66SAPC  H18X 5542   2.155   1.110   8.870  0.2914 -2.6196  0.0792
   66SAPC  H18Y 5543   2.266   1.213   8.786  0.3404 -0.0036  0.1502
   66SAPC  H18Z 5544   2.273   1.028   8.767  0.5987  0.5282 -1.3643
   67SAPC     N 5545   2.674   2.746   6.523  0.0342 -0.1107  0.2368
   67SAPC   C12 5546   2.809   2.812   6.497 -0.4190  0.0646 -0.4154
   67SAPC  H12A 5547   2.815   2.896   6.566 -3.4728  1.6770 -1.9145
   67SAPC  H12B 5548   2.808   2.870   6.406 -0.2012 -1.7425 -1.6091
   67SAPC   C13 5549   2.563   2.843   6.512  0.4186  0.1445  0.9887
   67SAPC  H13A 5550   2.555   2.925   6.581 -1.5592  1.7797 -1.0047
   67SAPC  H13B 5551   2.554   2.892   6.416 -0.8136  1.7494  1.8917
   67SAPC  H13C 5552   2.472   2.785   6.523 -0.3266  0.1654 -3.2146
   67SAPC   C14 5553   2.648   2.634   6.422  0.0817  0.1999 -0.0853
   67SAPC  H14A 5554   2.544   2.608   6.414 -0.6755  2.8293  0.2737
   67SAPC  H14B 5555   2.678   2.669   6.325 -0.3988  1.3451  0.1571
   67SAPC  H14C 5556   2.707   2.545   6.439 -2.4750 -1.6792 -0.5507
   67SAPC   C15 5557   2.670   2.672   6.654 -0.2144 -0.3480  0.2290
   67SAPC  H15A 5558   2.717   2.727   6.734 -0.0081 -0.2934  0.0706
   67SAPC  H15B 5559   2.578   2.623   6.680 -1.1530  1.2310  0.0352
   67SAPC  H15C 5560   2.738   2.589   6.640 -0.8631 -0.7335 -0.7268
   67SAPC   C11 5561   2.930   2.726   6.483  0.0859 -0.2279  0.4043
   67SAPC  H11A 5562   2.953   2.673   6.577  1.6245 -0.5552 -0.1299
   67SAPC  H11B 5563   3.010   2.798   6.458  0.8927 -1.6880 -1.5324
   67SAPC     P 5564   3.028   2.516   6.380  0.1412  0.3658  0.3003
   67SAPC   O13 5565   2.986   2.432   6.263  0.0058 -0.6020 -0.3464
   67SAPC   O14 5566   3.176   2.550   6.388  0.5574  0.2103  0.0677
   67SAPC   O12 5567   2.939   2.639   6.370  0.1877  0.6167 -1.4769
   67SAPC   O11 5568   2.988   2.423   6.505  0.3359 -0.2498  0.0630
   67SAPC    C1 5569   3.084   2.378   6.599  0.4813  0.4125  0.3060
   67SAPC    HA 5570   3.148   2.310   6.540 -0.0326  0.2021 -0.0117
   67SAPC    HB 5571   3.159   2.454   6.633  2.9474 -0.9306 -1.7715
   67SAPC    C2 5572   3.007   2.302   6.719 -0.0582 -0.5235 -0.8947
   67SAPC    HS 5573   2.944   2.219   6.679 -1.0196  0.5410 -1.6417
   67SAPC   O21 5574   2.931   2.395   6.790  0.0654 -0.1087  0.0433
   67SAPC   C21 5575   2.860   2.348   6.888  0.5173  0.0537 -0.6863
   67SAPC   O22 5576   2.848   2.232   6.925  0.4688 -0.0961  0.5484
   67SAPC   C22 5577   2.792   2.469   6.963  0.5049  0.0916 -0.0698
   67SAPC   H2R 5578   2.837   2.558   6.913  0.5802  1.0188  1.5942
   67SAPC   H2S 5579   2.683   2.463   6.943  0.7201 -0.2630 -1.2129
   67SAPC    C3 5580   3.120   2.234   6.807 -0.3111  0.2722 -0.2140
   67SAPC    HX 5581   3.162   2.148   6.750  2.6521  0.5038  1.4168
   67SAPC    HY 5582   3.071   2.187   6.895  1.8691  1.1138  1.5368
   67SAPC   O31 5583   3.215   2.339   6.837  0.1824 -0.2606  0.1780
   67SAPC   C31 5584   3.268   2.319   6.959  0.0431 -0.0866  0.1467
   67SAPC   O32 5585   3.254   2.219   7.029 -0.1262  0.3935 -0.1219
   67SAPC   C32 5586   3.318   2.463   7.007  0.9615 -0.5314 -1.6249
   67SAPC   H2X 5587   3.228   2.522   7.031  0.4351 -2.3726  1.5308
   67SAPC   H2Y 5588   3.382   2.512   6.930  0.6714 -2.4630 -3.1658
   67SAPC   C23 5589   2.813   2.472   7.118  0.4653 -0.5880  0.0324
   67SAPC   H3R 5590   2.887   2.398   7.155  1.2668 -0.1463 -0.6857
   67SAPC   H3S 5591   2.713   2.459   7.167  0.5714 -1.7862 -0.0338
   67SAPC   C24 5592   2.878   2.610   7.149  0.5560 -0.3343  0.2589
   67SAPC   H4R 5593   2.831   2.685   7.081  1.6331  0.0648 -0.0771
   67SAPC   H4S 5594   2.988   2.611   7.133  0.5225 -0.9624 -0.0287
   67SAPC   C25 5595   2.840   2.671   7.286  0.1222  0.2282 -0.6728
   67SAPC   H5R 5596   2.761   2.747   7.282 -1.1317 -1.0606 -1.2001
   67SAPC   C26 5597   2.890   2.620   7.402 -0.0905 -0.1216 -0.2171
   67SAPC   H6R 5598   2.864   2.664   7.499  1.6103 -1.2882  0.8037
   67SAPC   C27 5599   2.983   2.501   7.420 -0.0363  0.4017  0.3741
   67SAPC   H7R 5600   3.020   2.473   7.319 -2.9534 -1.2223 -0.3611
   67SAPC   H7S 5601   2.913   2.420   7.448 -0.4505 -1.3071 -4.5908
   67SAPC   C28 5602   3.095   2.515   7.518  0.4819  0.0895 -0.0751
   67SAPC   H8R 5603   3.191   2.513   7.464 -0.1265  1.6952 -1.2839
   67SAPC   C29 5604   3.092   2.509   7.652  0.6042  0.2549  0.7724
   67SAPC   H9R 5605   3.184   2.538   7.704  0.8480 -0.9656  1.0619
   67SAPC  C210 5606   2.967   2.491   7.738 -0.3989 -0.0011 -0.3307
   67SAPC  H10R 5607   2.972   2.385   7.770 -3.0951 -0.3018 -0.6437
   67SAPC  H10S 5608   2.873   2.497   7.679 -0.3457  0.7516 -0.3405
   67SAPC  C211 5609   2.958   2.583   7.860  0.0830  0.7085 -0.1235
   67SAPC  H11R 5610   2.871   2.650   7.867 -1.0099 -0.7108  0.3255
   67SAPC  C212 5611   3.045   2.578   7.958  0.1810 -0.1457 -1.0424
   67SAPC  H12R 5612   3.038   2.645   8.045  1.6729  1.1659 -1.8653
   67SAPC  C213 5613   3.170   2.485   7.967 -0.0537 -0.7585  0.6445
   67SAPC  H13R 5614   3.254   2.554   7.942  0.1237 -1.7290 -1.7220
   67SAPC  H13S 5615   3.172   2.407   7.887 -0.5634  0.6707 -0.8115
   67SAPC  C214 5616   3.183   2.414   8.095 -0.2312 -0.1551 -0.3449
   67SAPC  H14R 5617   3.084   2.398   8.141  0.8379 -1.4553  1.6397
   67SAPC  C215 5618   3.292   2.379   8.166  0.9926  0.1148 -0.2801
   67SAPC  H15R 5619   3.277   2.336   8.266  0.1633  0.3645 -0.2913
   67SAPC  C216 5620   3.439   2.395   8.129  0.5334 -0.2951  0.3414
   67SAPC  H16R 5621   3.459   2.385   8.020 -0.8462 -1.7717  0.1801
   67SAPC  H16S 5622   3.480   2.299   8.166 -1.6533 -1.4482 -0.0422
   67SAPC  C217 5623   3.507   2.515   8.192 -0.1684 -0.8092 -0.5107
   67SAPC  H17R 5624   3.457   2.614   8.179  1.5526 -0.1019 -2.2316
   67SAPC  H17S 5625   3.606   2.522   8.143 -0.6965 -0.0642 -1.5052
   67SAPC  C218 5626   3.534   2.494   8.347  0.0106  0.6393  0.7885
   67SAPC  H18R 5627   3.593   2.400   8.348 -3.3812 -1.7118 -0.4776
   67SAPC  H18S 5628   3.435   2.472   8.392 -0.2748 -1.5595 -0.7317
   67SAPC  C219 5629   3.602   2.607   8.433 -0.1078  0.6844  0.1007
   67SAPC  H19R 5630   3.710   2.616   8.408  0.1934 -0.5430  0.8171
   67SAPC  H19S 5631   3.597   2.573   8.539 -0.6502 -0.4000 -0.2602
   67SAPC  C220 5632   3.528   2.737   8.419 -0.5170 -0.8402  0.0300
   67SAPC  H20R 5633   3.542   2.801   8.330  0.5679 -0.2446  0.6102
   67SAPC  H20S 5634   3.555   2.804   8.503 -1.5835 -0.1112 -0.1941
   67SAPC  H20T 5635   3.420   2.713   8.424 -0.5645 -0.6301  0.0144
   67SAPC   C33 5636   3.390   2.453   7.147  0.8582 -0.3175  0.4222
   67SAPC   H3X 5637   3.479   2.389   7.133  0.3974 -0.7229 -0.7119
   67SAPC   H3Y 5638   3.325   2.393   7.215 -0.2998  1.4379  0.9678
   67SAPC   C34 5639   3.406   2.581   7.234 -0.3415 -0.1195  0.8657
   67SAPC   H4X 5640   3.301   2.615   7.249 -0.3552 -0.0642  0.6457
   67SAPC   H4Y 5641   3.468   2.647   7.171 -0.6287 -0.1465  0.5528
   67SAPC   C35 5642   3.473   2.553   7.367 -0.2634 -0.3952  0.2452
   67SAPC   H5X 5643   3.581   2.544   7.345 -0.5627 -1.8252 -0.7560
   67SAPC   H5Y 5644   3.435   2.457   7.408 -1.5899 -0.6864 -1.5588
   67SAPC   C36 5645   3.435   2.661   7.477  0.1484 -0.4441  0.8473
   67SAPC   H6X 5646   3.326   2.677   7.486  0.2098  0.4070  0.2671
   67SAPC   H6Y 5647   3.471   2.758   7.435  1.1127 -1.2066 -0.1644
   67SAPC   C37 5648   3.494   2.640   7.616  0.2218  0.0645  0.3809
   67SAPC   H7X 5649   3.603   2.615   7.616  0.2553  0.2039  0.1381
   67SAPC   H7Y 5650   3.449   2.550   7.662  2.4441 -0.6191  1.3440
   67SAPC   C38 5651   3.475   2.765   7.692  0.0599 -0.1966  0.5397
   67SAPC   H8X 5652   3.369   2.759   7.724 -0.5651 -0.5243 -1.4711
   67SAPC   H8Y 5653   3.487   2.857   7.632  1.9865  0.6163  2.0777
   67SAPC   C39 5654   3.568   2.780   7.814 -0.2187  0.4838  0.1415
   67SAPC   H9X 5655   3.673   2.761   7.785 -1.1056  0.1700 -3.3844
   67SAPC   H9Y 5656   3.538   2.705   7.890 -0.1822 -1.5683 -1.7538
   67SAPC  C310 5657   3.561   2.918   7.889  0.4552 -0.0179  0.3663
   67SAPC  H10X 5658   3.457   2.958   7.881  1.0183  1.1469 -1.6614
   67SAPC  H10Y 5659   3.612   2.987   7.820  2.2105  0.5302  2.1229
   67SAPC  C311 5660   3.620   2.902   8.027  0.5518 -1.0681  0.6917
   67SAPC  H11X 5661   3.721   2.856   8.019  0.9546 -0.0971  0.0680
   67SAPC  H11Y 5662   3.556   2.834   8.087 -0.1558 -1.6504 -0.6656
   67SAPC  C312 5663   3.622   3.031   8.096  0.7446 -0.0360  0.2568
   67SAPC  H12X 5664   3.517   3.062   8.117  1.2941  1.2952  1.1341
   67SAPC  H12Y 5665   3.666   3.113   8.035  1.4191  0.4638  1.3853
   67SAPC  C313 5666   3.701   3.020   8.231 -0.0306  0.1478 -0.4121
   67SAPC  H13X 5667   3.810   3.023   8.211  0.1941  0.2371  0.7518
   67SAPC  H13Y 5668   3.678   2.921   8.276 -0.8914 -0.4802 -2.1301
   67SAPC  C314 5669   3.661   3.132   8.327  0.0136 -0.5600 -0.1698
   67SAPC  H14X 5670   3.549   3.131   8.325  0.0102 -1.7177 -1.6603
   67SAPC  H14Y 5671   3.701   3.226   8.284  1.9184 -1.4409 -0.4019
   67SAPC  C315 5672   3.710   3.122   8.477  0.6442 -0.5447  0.9244
   67SAPC  H15X 5673   3.651   3.040   8.521 -0.5493  0.6402  1.6045
   67SAPC  H15Y 5674   3.678   3.211   8.535 -1.6598  0.9350 -2.2693
   67SAPC  C316 5675   3.860   3.088   8.494 -0.0818 -0.0675  1.0288
   67SAPC  H16X 5676   3.871   2.990   8.442 -1.7417 -0.1298  0.7569
   67SAPC  H16Y 5677   3.875   3.070   8.603  0.4160  0.3004  1.0242
   67SAPC  C317 5678   3.951   3.203   8.442  0.5929  0.5081 -0.0118
   67SAPC  H17X 5679   3.909   3.300   8.475  0.7654 -0.3001  2.7882
   67SAPC  H17Y 5680   3.947   3.197   8.331  1.5444 -2.6645  0.0178
   67SAPC  C318 5681   4.090   3.199   8.500 -0.2498  0.5842 -0.8373
   67SAPC  H18X 5682   4.173   3.238   8.438  2.1952 -0.4947  1.5652
   67SAPC  H18Y 5683   4.131   3.097   8.514 -0.3658  0.6747  0.2861
   67SAPC  H18Z 5684   4.081   3.241   8.603 -1.6153 -1.3402 -0.0922
   68SAPC     N 5685   0.166   1.267   5.886  0.1643  0.1936 -0.1331
   68SAPC   C12 5686   0.231   1.344   5.992 -0.3049  0.1677 -1.1303
   68SAPC  H12A 5687   0.247   1.445   5.957  1.0505  0.6832  0.8372
   68SAPC  H12B 5688   0.333   1.314   6.010  0.8068  3.4043 -1.4625
   68SAPC   C13 5689   0.266   1.246   5.782 -0.2530  0.2225  0.0120
   68SAPC  H13A 5690   0.215   1.201   5.699  0.8497  0.7434 -0.9796
   68SAPC  H13B 5691   0.309   1.341   5.753  3.1495 -0.7467  1.3560
   68SAPC  H13C 5692   0.352   1.189   5.814 -0.3078 -0.3369 -0.8194
   68SAPC   C14 5693   0.101   1.143   5.936 -0.2653 -0.0056  0.2527
   68SAPC  H14A 5694   0.171   1.089   5.997 -0.2716 -0.2219  0.0714
   68SAPC  H14B 5695   0.010   1.170   5.987  0.7681  3.4277  0.5623
   68SAPC  H14C 5696   0.072   1.082   5.852 -2.3527  0.1028  0.8321
   68SAPC   C15 5697   0.062   1.349   5.822  0.4486 -0.4529 -0.1076
   68SAPC  H15A 5698   0.012   1.285   5.750  2.1505 -3.8313  1.4873
   68SAPC  H15B 5699   0.003   1.390   5.902 -1.0692 -1.3046 -0.7391
   68SAPC  H15C 5700   0.108   1.428   5.764  1.2227 -1.2766 -0.6330
   68SAPC   C11 5701   0.155   1.347   6.133  0.3974  0.1213  0.8673
   68SAPC  H11A 5702   0.207   1.428   6.189 -0.2787  2.3538 -1.5350
   68SAPC  H11B 5703   0.167   1.248   6.181  0.9091 -0.6647 -0.8061
   68SAPC     P 5704  -0.098   1.350   6.216 -0.4448  0.5788 -0.1741
   68SAPC   O13 5705  -0.212   1.436   6.180 -0.0356  0.1116  0.3615
   68SAPC   O14 5706  -0.131   1.201   6.221  0.1903 -0.3706  0.3206
   68SAPC   O12 5707   0.018   1.383   6.108 -0.5879  0.4252 -0.3010
   68SAPC   O11 5708  -0.040   1.390   6.355 -0.0120  1.0540  0.0434
   68SAPC    C1 5709   0.006   1.287   6.444  0.2840  0.6398  0.2091
   68SAPC    HA 5710   0.073   1.217   6.392 -1.0293  0.0266 -0.7118
   68SAPC    HB 5711   0.062   1.336   6.527  1.8664 -0.5605 -0.1135
   68SAPC    C2 5712  -0.113   1.221   6.522 -0.1534  0.0794  0.9968
   68SAPC    HS 5713  -0.166   1.152   6.453 -1.2790  0.9727  0.9470
   68SAPC   O21 5714  -0.191   1.332   6.562 -0.3708 -0.0246  0.2241
   68SAPC   C21 5715  -0.313   1.292   6.581 -0.3968 -0.1203  0.6783
   68SAPC   O22 5716  -0.365   1.178   6.575 -0.6037  0.5180 -0.3594
   68SAPC   C22 5717  -0.382   1.421   6.640 -0.1341  0.0756  0.0013
   68SAPC   H2R 5718  -0.328   1.508   6.597 -0.2689 -0.8432 -2.1437
   68SAPC   H2S 5719  -0.489   1.410   6.612 -0.2184 -1.9635  0.9474
   68SAPC    C3 5720  -0.058   1.139   6.648  0.2673  0.2367  0.2949
   68SAPC    HX 5721   0.017   1.074   6.596  0.0124 -0.0493  0.2798
   68SAPC    HY 5722  -0.143   1.079   6.687 -0.1280  2.6868  3.6467
   68SAPC   O31 5723  -0.005   1.226   6.750  0.2038  0.0595  0.2119
   68SAPC   C31 5724   0.124   1.221   6.768  0.7250  0.3770 -0.8212
   68SAPC   O32 5725   0.204   1.177   6.687  0.4547 -0.1431 -0.5051
   68SAPC   C32 5726   0.160   1.265   6.913  0.7540  0.2655  0.2971
   68SAPC   H2X 5727   0.071   1.257   6.978  1.3890 -1.7163  0.9894
   68SAPC   H2Y 5728   0.177   1.375   6.915 -0.2041  0.4671 -1.0772
   68SAPC   C23 5729  -0.364   1.407   6.793  0.5027  0.4187  0.4415
   68SAPC   H3R 5730  -0.382   1.507   6.837  1.6450  1.8574 -2.0858
   68SAPC   H3S 5731  -0.260   1.379   6.822 -0.0740 -1.1852  1.0166
   68SAPC   C24 5732  -0.462   1.314   6.857 -0.1930  0.2616 -0.4783
   68SAPC   H4R 5733  -0.440   1.212   6.820 -1.2474  0.3038 -1.2657
   68SAPC   H4S 5734  -0.562   1.335   6.814 -0.4142  0.2961  0.0481
   68SAPC   C25 5735  -0.472   1.330   7.008 -0.1201 -0.6926  0.5859
   68SAPC   H5R 5736  -0.528   1.413   7.055  1.3076 -0.3372  1.7671
   68SAPC   C26 5737  -0.423   1.246   7.098 -0.1735 -0.0503  0.1508
   68SAPC   H6R 5738  -0.452   1.265   7.202 -2.1789 -1.2585 -0.1411
   68SAPC   C27 5739  -0.343   1.121   7.081  0.6449  0.9152 -0.1962
   68SAPC   H7R 5740  -0.305   1.107   6.978 -1.5348  0.3693 -0.9773
   68SAPC   H7S 5741  -0.411   1.035   7.098 -0.2831  1.8344  0.8515
   68SAPC   C28 5742  -0.222   1.119   7.180  0.0267 -0.6461 -0.1376
   68SAPC   H8R 5743  -0.137   1.181   7.148  0.1887 -0.8889 -0.1811
   68SAPC   C29 5744  -0.211   1.054   7.298 -0.2980  0.9303  0.7215
   68SAPC   H9R 5745  -0.124   1.057   7.365  1.0104 -1.4062 -0.7141
   68SAPC  C210 5746  -0.320   0.975   7.364 -0.1868  0.0761  0.7373
   68SAPC  H10R 5747  -0.304   0.867   7.342  1.5897  0.5610 -0.5792
   68SAPC  H10S 5748  -0.417   1.004   7.316  0.5511  0.1025 -0.8019
   68SAPC  C211 5749  -0.342   1.007   7.511  0.4613  0.3271  0.8067
   68SAPC  H11R 5750  -0.392   1.103   7.533  1.4956  1.0615  0.0243
   68SAPC  C212 5751  -0.294   0.935   7.610  0.4950 -0.6886  0.2923
   68SAPC  H12R 5752  -0.315   0.969   7.713 -2.2487 -1.1564 -0.0425
   68SAPC  C213 5753  -0.208   0.809   7.597 -0.6186 -0.1394 -0.4026
   68SAPC  H13R 5754  -0.101   0.827   7.621 -0.5762  1.6734 -1.7632
   68SAPC  H13S 5755  -0.203   0.773   7.493  0.1666 -1.9810  0.2381
   68SAPC  C214 5756  -0.267   0.708   7.686 -0.2205 -0.1431 -0.4756
   68SAPC  H14R 5757  -0.350   0.651   7.640 -0.7024  1.3555 -1.5299
   68SAPC  C215 5758  -0.242   0.694   7.819 -0.2227 -0.2229 -0.4161
   68SAPC  H15R 5759  -0.289   0.614   7.879 -2.4689  2.1251  1.1386
   68SAPC  C216 5760  -0.144   0.771   7.909  0.2586  0.0204 -0.0638
   68SAPC  H16R 5761  -0.081   0.831   7.839 -0.9984 -0.7742 -1.9466
   68SAPC  H16S 5762  -0.078   0.692   7.952 -1.4692 -0.6039  1.5553
   68SAPC  C217 5763  -0.213   0.857   8.012 -0.4556  0.3072 -0.1696
   68SAPC  H17R 5764  -0.299   0.807   8.060  0.1053  0.7082  1.3033
   68SAPC  H17S 5765  -0.255   0.947   7.960  0.2803 -0.7183 -2.7093
   68SAPC  C218 5766  -0.129   0.919   8.115 -0.6990  0.0689 -0.1810
   68SAPC  H18R 5767  -0.180   1.005   8.165  2.2543  3.7116 -2.8117
   68SAPC  H18S 5768  -0.031   0.961   8.080 -0.3421 -0.2017  0.4816
   68SAPC  C219 5769  -0.084   0.813   8.233  0.4644 -0.2721  0.5513
   68SAPC  H19R 5770  -0.010   0.870   8.292 -1.7422  2.6367  0.7295
   68SAPC  H19S 5771  -0.038   0.729   8.177  1.6898  0.5285  0.3211
   68SAPC  C220 5772  -0.204   0.766   8.309  0.3339  0.1023 -0.4743
   68SAPC  H20R 5773  -0.228   0.833   8.394  1.0657  0.0703 -0.2447
   68SAPC  H20S 5774  -0.186   0.668   8.358  2.2825 -0.0695 -1.4414
   68SAPC  H20T 5775  -0.296   0.760   8.247 -0.0748  2.8191 -0.2589
   68SAPC   C33 5776   0.287   1.197   6.962  0.2540 -0.5079 -0.2427
   68SAPC   H3X 5777   0.361   1.230   6.887 -1.7465 -0.2741 -2.2357
   68SAPC   H3Y 5778   0.270   1.087   6.960 -1.9287 -0.2089 -1.0001
   68SAPC   C34 5779   0.322   1.257   7.101  0.7325  0.6431  0.7871
   68SAPC   H4X 5780   0.320   1.368   7.090  2.7959  0.6697  0.1344
   68SAPC   H4Y 5781   0.429   1.232   7.113  0.1392 -2.8995 -0.2059
   68SAPC   C35 5782   0.240   1.191   7.215 -0.3838 -0.1132 -0.5078
   68SAPC   H5X 5783   0.256   1.081   7.217  1.6048  0.1464  1.3028
   68SAPC   H5Y 5784   0.131   1.201   7.195 -1.0444 -1.6528  1.8855
   68SAPC   C36 5785   0.258   1.242   7.361  0.1807 -0.1435  0.3711
   68SAPC   H6X 5786   0.194   1.333   7.368 -1.5032 -1.3932  2.0670
   68SAPC   H6Y 5787   0.364   1.273   7.371  1.4320 -3.3705 -1.4893
   68SAPC   C37 5788   0.218   1.143   7.470  0.4674 -0.1499 -0.3902
   68SAPC   H7X 5789   0.266   1.043   7.463 -0.8298 -1.1221  2.7277
   68SAPC   H7Y 5790   0.108   1.126   7.474  0.3735 -0.3117 -2.5822
   68SAPC   C38 5791   0.251   1.197   7.612 -0.2521 -0.1890 -0.2485
   68SAPC   H8X 5792   0.175   1.277   7.629  0.2440 -0.1395  1.9500
   68SAPC   H8Y 5793   0.352   1.242   7.616 -0.1522 -0.4784  3.0255
   68SAPC   C39 5794   0.239   1.089   7.724  0.1939  0.2422  0.2405
   68SAPC   H9X 5795   0.315   1.009   7.711  2.5087  2.4607 -0.7821
   68SAPC   H9Y 5796   0.137   1.046   7.711 -0.1765  0.9965  0.5874
   68SAPC  C310 5797   0.237   1.143   7.865 -0.2827 -0.0855 -0.2512
   68SAPC  H10X 5798   0.225   1.062   7.940  2.8785  1.3321  1.9968
   68SAPC  H10Y 5799   0.149   1.209   7.883  0.9366  1.1437  1.5025
   68SAPC  C311 5800   0.358   1.233   7.908  0.4227 -0.0677 -0.1176
   68SAPC  H11X 5801   0.371   1.310   7.829  0.6042  1.8354  1.6880
   68SAPC  H11Y 5802   0.445   1.164   7.903 -0.6343 -1.5679  1.2858
   68SAPC  C312 5803   0.339   1.311   8.041  0.4483  0.2255 -0.1890
   68SAPC  H12X 5804   0.305   1.235   8.114  4.1466 -0.3532  1.1490
   68SAPC  H12Y 5805   0.258   1.383   8.021  0.2131 -0.3434 -1.3834
   68SAPC  C313 5806   0.479   1.369   8.093 -0.3704 -0.3531  0.4270
   68SAPC  H13X 5807   0.495   1.464   8.038  1.3677 -0.4559  0.6968
   68SAPC  H13Y 5808   0.568   1.304   8.078  0.2078 -0.1644  2.6787
   68SAPC  C314 5809   0.471   1.418   8.241 -0.3110  0.1763  0.1102
   68SAPC  H14X 5810   0.570   1.453   8.276 -0.4077  0.1800  0.3786
   68SAPC  H14Y 5811   0.446   1.338   8.314 -0.1287 -0.0307 -0.0532
   68SAPC  C315 5812   0.370   1.533   8.260 -0.6828 -0.1224  0.4239
   68SAPC  H15X 5813   0.271   1.514   8.213 -0.5780 -0.0623  0.1760
   68SAPC  H15Y 5814   0.421   1.614   8.204  0.7173 -0.4832  1.1272
   68SAPC  C316 5815   0.346   1.565   8.403  0.2933  0.0451 -0.3725
   68SAPC  H16X 5816   0.447   1.571   8.448  0.4150 -0.4725 -0.5781
   68SAPC  H16Y 5817   0.296   1.478   8.449  0.4867  0.6187  0.9704
   68SAPC  C317 5818   0.274   1.698   8.433 -0.0867 -0.4779  0.4210
   68SAPC  H17X 5819   0.210   1.728   8.347 -0.9919 -0.5242  1.0703
   68SAPC  H17Y 5820   0.362   1.766   8.430 -1.1702  0.9355 -0.6184
   68SAPC  C318 5821   0.201   1.697   8.562 -0.2444 -0.1423 -0.2094
   68SAPC  H18X 5822   0.111   1.632   8.567 -0.3587  0.0409  0.1583
   68SAPC  H18Y 5823   0.170   1.803   8.574 -1.5620 -0.6315  1.0019
   68SAPC  H18Z 5824   0.271   1.676   8.646 -0.9544  0.4777  0.5603
   69SLPC     N 5825   0.510   2.649  11.736 -0.4452 -0.1060 -0.2858
   69SLPC   C13 5826   0.424   2.541  11.690 -0.2022 -0.0152  0.3383
   69SLPC  H13A 5827   0.368   2.493  11.769 -1.0030  0.0849 -0.1628
   69SLPC  H13B 5828   0.351   2.585  11.624  0.5494  1.3274  0.3628
   69SLPC  H13C 5829   0.471   2.456  11.644 -0.4025 -2.0303  3.5390
   69SLPC   C14 5830   0.608   2.592  11.841  0.5090 -0.3663  0.3366
   69SLPC  H14A 5831   0.679   2.530  11.788  0.2734  1.4187 -2.3073
   69SLPC  H14B 5832   0.662   2.679  11.876  0.6287 -1.0390  1.8806
   69SLPC  H14C 5833   0.566   2.538  11.924 -0.4790 -0.3970 -0.1667
   69SLPC   C15 5834   0.426   2.753  11.798  0.1101  0.2044  0.2956
   69SLPC  H15A 5835   0.347   2.779  11.729 -0.2733  0.2211  0.7351
   69SLPC  H15B 5836   0.373   2.714  11.884 -1.7580  1.1603 -0.3653
   69SLPC  H15C 5837   0.476   2.845  11.823  2.0123 -0.9584  0.9855
   69SLPC   C12 5838   0.588   2.701  11.618  0.0167  0.0967  0.8894
   69SLPC  H12A 5839   0.630   2.612  11.575 -1.3233 -1.0125  1.7887
   69SLPC  H12B 5840   0.669   2.761  11.656  0.7459 -1.0374  1.1754
   69SLPC   C11 5841   0.519   2.789  11.509  0.2847  0.7237 -0.1757
   69SLPC  H11A 5842   0.600   2.818  11.438 -0.2677  0.0534 -1.0970
   69SLPC  H11B 5843   0.480   2.886  11.547  0.0943  0.6700 -0.2379
   69SLPC     P 5844   0.446   2.640  11.308 -0.4970 -0.0393  0.2274
   69SLPC   O13 5845   0.585   2.595  11.303  0.4425 -0.0407 -0.6717
   69SLPC   O14 5846   0.343   2.539  11.290 -0.1417 -0.4097 -0.3921
   69SLPC   O12 5847   0.413   2.717  11.442 -0.3083  0.4383  0.0169
   69SLPC   O11 5848   0.439   2.753  11.206  0.0480 -0.1584 -0.1332
   69SLPC    C1 5849   0.327   2.810  11.147  0.4122  0.4052 -0.3027
   69SLPC    HA 5850   0.238   2.805  11.213  0.5877 -1.8414 -0.1801
   69SLPC    HB 5851   0.341   2.920  11.145 -0.2497  0.4998 -0.0246
   69SLPC    C2 5852   0.284   2.757  11.002 -0.1973 -0.1530  0.2775
   69SLPC    HS 5853   0.270   2.646  11.004  1.6834 -0.4753 -1.4072
   69SLPC   O21 5854   0.373   2.814  10.910 -0.4935  0.6255  1.0545
   69SLPC   C21 5855   0.392   2.736  10.800  0.0306 -0.0296 -0.1587
   69SLPC   O22 5856   0.349   2.623  10.793 -0.0976  0.6778 -0.4187
   69SLPC   C22 5857   0.481   2.803  10.699  0.7466  0.2879  0.3240
   69SLPC   H2R 5858   0.468   2.913  10.711  0.6099  0.4103 -0.8032
   69SLPC   H2S 5859   0.589   2.782  10.711  0.7645 -1.5966 -2.2318
   69SLPC    C3 5860   0.138   2.808  10.979 -0.0878 -0.1648 -0.1928
   69SLPC    HX 5861   0.144   2.915  10.950  0.0289 -0.7976 -2.6515
   69SLPC    HY 5862   0.075   2.802  11.071  0.7455 -3.7200  0.3000
   69SLPC   O31 5863   0.082   2.716  10.888 -0.1566  0.2243 -0.2029
   69SLPC   C31 5864  -0.034   2.759  10.840 -0.1290  0.7783 -0.1540
   69SLPC   O32 5865  -0.107   2.843  10.882  0.9522 -0.2536  0.5104
   69SLPC   C32 5866  -0.062   2.679  10.711  0.9768 -0.4883 -0.1961
   69SLPC   H2X 5867  -0.160   2.721  10.679  0.7708  0.3584  1.4061
   69SLPC   H2Y 5868  -0.063   2.569  10.728 -0.2191 -0.4358  0.1948
   69SLPC   C23 5869   0.451   2.775  10.549  0.6206  0.4767 -0.3002
   69SLPC   H3R 5870   0.507   2.850  10.489  1.1177  1.9112  1.8409
   69SLPC   H3S 5871   0.344   2.797  10.532  0.2772 -0.8241  0.0090
   69SLPC   C24 5872   0.499   2.637  10.504 -0.0541 -0.0895 -0.7202
   69SLPC   H4R 5873   0.456   2.561  10.573  0.7527  0.1605  0.0822
   69SLPC   H4S 5874   0.608   2.629  10.526 -0.5111 -1.9935  1.2628
   69SLPC   C25 5875   0.487   2.604  10.352  0.4626  0.4264 -0.4358
   69SLPC   H5R 5876   0.390   2.651  10.324  0.5222  1.4306  0.9478
   69SLPC   H5S 5877   0.474   2.496  10.326 -0.9123  0.4359  0.1044
   69SLPC   C26 5878   0.589   2.680  10.266 -0.0207  0.8741  0.3981
   69SLPC   H6R 5879   0.687   2.632  10.283 -0.2615  0.6925  1.3587
   69SLPC   H6S 5880   0.591   2.786  10.301  1.0996  1.4653 -1.3210
   69SLPC   C27 5881   0.555   2.689  10.116  0.3037  0.2365  0.2912
   69SLPC   H7R 5882   0.461   2.748  10.118 -0.3388 -0.7636  1.0934
   69SLPC   H7S 5883   0.531   2.597  10.058 -0.2394  0.0729  0.7671
   69SLPC   C28 5884   0.666   2.758  10.038  0.1329  0.5418 -0.1913
   69SLPC   H8R 5885   0.754   2.690  10.045 -1.7482 -1.9963  0.3481
   69SLPC   H8S 5886   0.699   2.847  10.095 -0.4485  1.3351 -1.0781
   69SLPC   C29 5887   0.625   2.801   9.900  0.1011  0.0888  0.0018
   69SLPC   H9R 5888   0.532   2.764   9.856  0.1873 -1.5353  1.0869
   69SLPC  C210 5889   0.701   2.879   9.823 -0.6718 -0.2771  0.5931
   69SLPC  H10R 5890   0.668   2.906   9.722  1.6145  0.7754  0.0617
   69SLPC  C211 5891   0.835   2.938   9.866  0.6863  0.4457 -0.9628
   69SLPC  H11R 5892   0.922   2.891   9.816  1.2106 -0.6989  0.9161
   69SLPC  H11S 5893   0.858   2.914   9.972  2.3308  4.0496 -0.3503
   69SLPC  C212 5894   0.849   3.086   9.855 -0.7519  0.1753 -0.4512
   69SLPC  H12R 5895   0.828   3.145   9.945  0.3652  0.1472 -0.1570
   69SLPC  C213 5896   0.877   3.147   9.737 -0.0384  0.1478  0.0704
   69SLPC  H13R 5897   0.907   3.252   9.747  1.4610 -0.0449 -1.8302
   69SLPC  C214 5898   0.892   3.088   9.597 -0.0803 -0.0779 -0.0635
   69SLPC  H14R 5899   0.848   2.987   9.585  0.7117 -0.7561  2.2749
   69SLPC  H14S 5900   1.000   3.093   9.572  0.0290 -0.7531  0.2423
   69SLPC  C215 5901   0.833   3.177   9.488 -0.2207  0.8795 -0.6549
   69SLPC  H15R 5902   0.873   3.281   9.497  3.2477 -0.3080 -0.7809
   69SLPC  H15S 5903   0.722   3.183   9.489 -0.3072 -0.5777 -0.3498
   69SLPC  C216 5904   0.865   3.122   9.352 -0.1903  0.0742  0.4619
   69SLPC  H16R 5905   0.830   3.017   9.344 -1.0560  0.0274  3.7520
   69SLPC  H16S 5906   0.976   3.122   9.338 -0.2839  1.1923 -0.4999
   69SLPC  C217 5907   0.805   3.199   9.232  0.3261  0.4063 -0.1437
   69SLPC  H17R 5908   0.828   3.306   9.250  2.0368  0.3233 -1.6254
   69SLPC  H17S 5909   0.694   3.188   9.235  0.4516 -1.2804 -0.7029
   69SLPC  C218 5910   0.876   3.162   9.092  0.0510 -0.5544  0.3880
   69SLPC  H18R 5911   0.978   3.207   9.095  0.7060 -1.9365  0.1457
   69SLPC  H18S 5912   0.814   3.201   9.009  3.3034  0.6918 -1.6635
   69SLPC  H18T 5913   0.883   3.053   9.073  0.1039  0.1284 -5.0884
   69SLPC   C33 5914   0.042   2.713  10.599  0.1691  1.0326  0.0114
   69SLPC   H3X 5915   0.139   2.668  10.627  0.1784  1.6122  0.9498
   69SLPC   H3Y 5916   0.051   2.822  10.577  1.9149  0.6910 -1.1395
   69SLPC   C34 5917   0.001   2.662  10.454  0.5256 -0.2011  0.2898
   69SLPC   H4X 5918  -0.109   2.663  10.442  0.4891 -0.9237  0.5339
   69SLPC   H4Y 5919   0.031   2.555  10.453  0.7714 -0.1412  0.8390
   69SLPC   C35 5920   0.065   2.740  10.339  0.0876  0.1022  0.3998
   69SLPC   H5X 5921   0.171   2.770  10.351  0.1985  0.0729 -0.4687
   69SLPC   H5Y 5922   0.021   2.841  10.327  0.1996  0.0616 -0.4171
   69SLPC   C36 5923   0.058   2.660  10.203 -0.0947  0.1440 -0.1565
   69SLPC   H6X 5924  -0.043   2.627  10.169  0.9998 -1.8487 -1.7454
   69SLPC   H6Y 5925   0.115   2.566  10.216  1.1425  0.5695 -2.1214
   69SLPC   C37 5926   0.126   2.737  10.085  0.1202 -0.5347  0.2102
   69SLPC   H7X 5927   0.223   2.769  10.130  0.0840 -2.2309  1.5949
   69SLPC   H7Y 5928   0.061   2.825  10.064 -0.2103 -0.8948 -0.2907
   69SLPC   C38 5929   0.142   2.649   9.951 -0.8988 -0.2328  0.2448
   69SLPC   H8X 5930   0.040   2.653   9.907 -0.1471 -0.0041 -1.5414
   69SLPC   H8Y 5931   0.167   2.542   9.967 -0.0441 -0.1226 -0.3491
   69SLPC   C39 5932   0.251   2.708   9.859 -0.7081  0.4603  0.1983
   69SLPC   H9X 5933   0.340   2.649   9.889 -2.1094 -0.8683  2.0377
   69SLPC   H9Y 5934   0.264   2.811   9.896  0.4899  0.1490  0.6754
   69SLPC  C310 5935   0.212   2.711   9.713 -0.4789 -0.7456  0.1162
   69SLPC  H10X 5936   0.111   2.758   9.713 -0.9701 -1.7232  1.6407
   69SLPC  H10Y 5937   0.198   2.604   9.688 -1.1383 -0.9739  1.3606
   69SLPC  C311 5938   0.312   2.797   9.636 -0.3867  0.7024  0.5472
   69SLPC  H11X 5939   0.416   2.760   9.650 -0.2265  0.2476 -1.5493
   69SLPC  H11Y 5940   0.310   2.902   9.672  1.7337  0.6080  1.0967
   69SLPC  C312 5941   0.301   2.776   9.486  0.3261  0.4815  0.0594
   69SLPC  H12X 5942   0.278   2.669   9.469  2.1236  0.0478  0.1550
   69SLPC  H12Y 5943   0.403   2.807   9.454  1.0830  1.5882  3.1111
   69SLPC  C313 5944   0.194   2.854   9.419  0.2997  0.3121  0.0296
   69SLPC  H13X 5945   0.235   2.956   9.403  1.7222 -0.4323 -1.4544
   69SLPC  H13Y 5946   0.102   2.851   9.481 -0.1033  1.3071 -0.4944
   69SLPC  C314 5947   0.146   2.790   9.292 -0.3388 -0.4315  0.0008
   69SLPC  H14X 5948   0.124   2.681   9.299 -0.4419 -0.4966 -1.1381
   69SLPC  H14Y 5949   0.226   2.790   9.216 -2.7627 -1.0264 -2.7154
   69SLPC  C315 5950   0.035   2.884   9.240 -0.7783  0.1587  0.3422
   69SLPC  H15X 5951   0.075   2.988   9.245 -1.5764  0.5656 -1.0644
   69SLPC  H15Y 5952  -0.051   2.869   9.307 -0.4657  1.8448  1.1698
   69SLPC  C316 5953  -0.005   2.852   9.089 -0.0515 -0.0594 -0.1416
   69SLPC  H16X 5954  -0.102   2.902   9.071 -0.5077 -1.1517 -0.7700
   69SLPC  H16Y 5955  -0.033   2.745   9.087 -0.2905 -0.0492 -4.1879
   69SLPC  C317 5956   0.096   2.895   8.983 -0.0092  0.0451  0.3237
   69SLPC  H17X 5957   0.198   2.876   9.021 -0.0911 -3.2395 -0.8352
   69SLPC  H17Y 5958   0.095   3.006   8.969  1.9403 -0.1192 -1.4608
   69SLPC  C318 5959   0.081   2.834   8.843 -0.2594 -0.5900 -0.2002
   69SLPC  H18X 5960  -0.007   2.880   8.795 -3.4636 -3.1734  2.6746
   69SLPC  H18Y 5961   0.061   2.725   8.840  0.8472 -0.7787 -1.7373
   69SLPC  H18Z 5962   0.174   2.867   8.792  0.1028  0.5821  1.1419
   70SLPC     N 5963   1.353   2.453  11.440  0.2502  0.0509 -0.5087
   70SLPC   C13 5964   1.339   2.438  11.589 -0.0866  0.4285  0.6580
   70SLPC  H13A 5965   1.371   2.341  11.624 -0.2310  0.0986 -0.1092
   70SLPC  H13B 5966   1.381   2.525  11.638  3.2208 -0.5839 -0.1450
   70SLPC  H13C 5967   1.234   2.449  11.612 -0.3238  0.7169 -0.4957
   70SLPC   C14 5968   1.498   2.425  11.403 -0.4789 -0.1161 -0.1602
   70SLPC  H14A 5969   1.569   2.488  11.455  0.4137  1.0959 -2.6500
   70SLPC  H14B 5970   1.534   2.324  11.412 -0.3906 -0.3135 -2.2387
   70SLPC  H14C 5971   1.517   2.456  11.301 -1.7887  2.5465  0.3178
   70SLPC   C15 5972   1.316   2.601  11.408  0.4951 -0.3454  0.0613
   70SLPC  H15A 5973   1.283   2.607  11.305 -1.8635  0.1109  0.7693
   70SLPC  H15B 5974   1.247   2.636  11.484  0.8461 -0.1870  0.3078
   70SLPC  H15C 5975   1.408   2.657  11.401 -0.1905  0.8727  0.4904
   70SLPC   C12 5976   1.259   2.352  11.368  0.0880  0.1911 -0.2547
   70SLPC  H12A 5977   1.153   2.367  11.382  0.0224  0.1992 -0.7484
   70SLPC  H12B 5978   1.277   2.252  11.404  2.6074  0.2782 -1.0601
   70SLPC   C11 5979   1.266   2.345  11.218  0.5773 -0.5114  0.9749
   70SLPC  H11A 5980   1.200   2.263  11.183  1.7017 -1.5539  1.2159
   70SLPC  H11B 5981   1.369   2.313  11.191 -0.6599 -3.0294 -1.2907
   70SLPC     P 5982   1.161   2.496  11.033  0.2834 -0.0340  0.1971
   70SLPC   O13 5983   1.021   2.531  11.079 -0.0045 -0.1057  0.2980
   70SLPC   O14 5984   1.235   2.591  10.945  0.2005 -0.6959 -0.5798
   70SLPC   O12 5985   1.240   2.479  11.165 -0.5397  0.0945 -0.0346
   70SLPC   O11 5986   1.149   2.351  10.966 -0.5208  0.3953 -0.1835
   70SLPC    C1 5987   1.187   2.351  10.828 -0.1202 -0.2650 -0.4787
   70SLPC    HA 5988   1.133   2.265  10.783  1.5787 -2.0706  0.7864
   70SLPC    HB 5989   1.152   2.438  10.768 -1.8685 -0.8935 -0.4290
   70SLPC    C2 5990   1.344   2.330  10.809  0.2341 -0.5258  0.3779
   70SLPC    HS 5991   1.397   2.422  10.840 -0.3172  1.1748 -3.2718
   70SLPC   O21 5992   1.383   2.295  10.674 -0.3564  0.6317  0.4409
   70SLPC   C21 5993   1.413   2.398  10.596  0.0217 -0.3605  0.3828
   70SLPC   O22 5994   1.389   2.512  10.626 -0.0121 -0.1051  0.1858
   70SLPC   C22 5995   1.477   2.355  10.471 -0.1902 -0.4208 -0.2396
   70SLPC   H2R 5996   1.504   2.248  10.488 -0.4050 -0.4676 -0.1803
   70SLPC   H2S 5997   1.392   2.349  10.399  0.1483  2.7149 -1.0144
   70SLPC    C3 5998   1.396   2.216  10.901 -0.1899  0.7184  0.3036
   70SLPC    HX 5999   1.321   2.133  10.894  1.7400 -1.1444  0.6568
   70SLPC    HY 6000   1.399   2.246  11.007  1.9746  1.0393  0.1927
   70SLPC   O31 6001   1.535   2.171  10.859 -0.1214  0.1337  0.3905
   70SLPC   C31 6002   1.533   2.055  10.791 -0.2626 -0.3907 -1.3926
   70SLPC   O32 6003   1.435   1.987  10.770 -0.5424  0.4968  0.6374
   70SLPC   C32 6004   1.676   2.016  10.756  0.5619 -0.0892  0.9967
   70SLPC   H2X 6005   1.726   1.965  10.840  1.0057  0.0743  0.8322
   70SLPC   H2Y 6006   1.737   2.108  10.753  1.9470 -0.9757  1.0199
   70SLPC   C23 6007   1.596   2.438  10.426 -0.5494  0.5533  0.4857
   70SLPC   H3R 6008   1.670   2.451  10.509 -1.0887 -3.4262  1.8022
   70SLPC   H3S 6009   1.557   2.539  10.400 -2.9308 -0.7032 -1.0704
   70SLPC   C24 6010   1.666   2.378  10.307  0.0520 -0.6743 -0.1801
   70SLPC   H4R 6011   1.680   2.268  10.314 -2.1913 -0.9446  0.6782
   70SLPC   H4S 6012   1.763   2.432  10.295 -0.9253  1.1460 -0.3544
   70SLPC   C25 6013   1.589   2.399  10.173 -0.3003 -0.4304 -0.8191
   70SLPC   H5R 6014   1.578   2.505  10.144 -2.0301  0.0150  1.1984
   70SLPC   H5S 6015   1.488   2.353  10.185 -0.5106  0.4723  1.4949
   70SLPC   C26 6016   1.670   2.345  10.048  0.4588  0.4704 -0.6231
   70SLPC   H6R 6017   1.702   2.246  10.088 -1.6587  0.7276  1.9727
   70SLPC   H6S 6018   1.764   2.399  10.023  0.6711 -0.6945 -2.5674
   70SLPC   C27 6019   1.585   2.335   9.926  0.4492  0.4058  0.0272
   70SLPC   H7R 6020   1.565   2.442   9.905 -0.5155  0.3393  0.5634
   70SLPC   H7S 6021   1.490   2.292   9.963  0.1018  1.1856  0.0735
   70SLPC   C28 6022   1.658   2.261   9.808 -0.5391  0.4195 -0.3153
   70SLPC   H8R 6023   1.573   2.251   9.737 -0.2931  1.5438 -0.7782
   70SLPC   H8S 6024   1.698   2.161   9.836  2.1088  1.8017  1.2212
   70SLPC   C29 6025   1.763   2.350   9.752 -0.0768 -0.0154 -0.0530
   70SLPC   H9R 6026   1.840   2.384   9.823 -2.5120  1.9417  1.8630
   70SLPC  C210 6027   1.780   2.378   9.621  0.0017 -0.1101  0.9005
   70SLPC  H10R 6028   1.874   2.430   9.599 -0.5378  0.4467 -0.1399
   70SLPC  C211 6029   1.705   2.326   9.501 -0.1789 -0.4070  0.4585
   70SLPC  H11R 6030   1.652   2.410   9.450 -0.0665 -1.4830 -1.5123
   70SLPC  H11S 6031   1.624   2.256   9.531  0.0928 -0.5154  0.9644
   70SLPC  C212 6032   1.797   2.259   9.406 -0.5698 -0.6791  0.0453
   70SLPC  H12R 6033   1.806   2.150   9.415 -1.5447 -0.8994 -1.4010
   70SLPC  C213 6034   1.852   2.311   9.295 -0.2628  0.3091 -0.4743
   70SLPC  H13R 6035   1.909   2.244   9.228 -1.5675 -0.3230 -0.9828
   70SLPC  C214 6036   1.847   2.449   9.243 -0.1292 -0.3748 -0.0273
   70SLPC  H14R 6037   1.944   2.486   9.204 -0.6932  0.5026 -0.6393
   70SLPC  H14S 6038   1.835   2.527   9.321  3.4173  2.0903 -1.6873
   70SLPC  C215 6039   1.726   2.471   9.145  0.1166 -0.3597 -0.4055
   70SLPC  H15R 6040   1.740   2.576   9.113 -0.9674 -0.6869 -2.0693
   70SLPC  H15S 6041   1.624   2.465   9.189 -1.2319  3.2891 -2.5988
   70SLPC  C216 6042   1.734   2.376   9.021  0.0441  0.5780 -0.3096
   70SLPC  H16R 6043   1.669   2.287   9.035 -1.9320  2.3479  2.7095
   70SLPC  H16S 6044   1.843   2.359   9.004 -0.0032  2.2324 -2.8963
   70SLPC  C217 6045   1.684   2.453   8.897  0.2063  0.5846 -0.3899
   70SLPC  H17R 6046   1.731   2.551   8.874 -0.9325  1.2991  0.2232
   70SLPC  H17S 6047   1.586   2.485   8.939  1.3290  1.4728  1.7145
   70SLPC  C218 6048   1.672   2.362   8.774 -0.2578  0.0310  0.4540
   70SLPC  H18R 6049   1.771   2.343   8.726 -0.6852 -1.2206  0.0139
   70SLPC  H18S 6050   1.611   2.413   8.696 -0.3470  0.7462  0.9818
   70SLPC  H18T 6051   1.628   2.265   8.806 -1.0920  0.6022  1.0745
   70SLPC   C33 6052   1.683   1.921  10.632  0.1334  0.0803  0.0515
   70SLPC   H3X 6053   1.612   1.836  10.633 -1.1378  1.0926  1.6751
   70SLPC   H3Y 6054   1.784   1.877  10.629  0.3914  0.6875 -2.8458
   70SLPC   C34 6055   1.664   1.990  10.493  1.0192  0.1229  0.2045
   70SLPC   H4X 6056   1.739   2.072  10.482 -0.1692  1.1420 -0.6821
   70SLPC   H4Y 6057   1.567   2.043  10.481  1.2324  0.5297  0.2511
   70SLPC   C35 6058   1.674   1.893  10.374 -0.1569  0.0588 -0.0979
   70SLPC   H5X 6059   1.611   1.803  10.392 -2.3406  1.4681 -0.4035
   70SLPC   H5Y 6060   1.780   1.861  10.362  0.9820  2.5162  2.3075
   70SLPC   C36 6061   1.641   1.957  10.240 -0.3746 -0.0048  0.4099
   70SLPC   H6X 6062   1.708   2.043  10.216 -0.3174  0.3914  1.8605
   70SLPC   H6Y 6063   1.536   1.993  10.241 -0.8441 -1.1319 -1.6840
   70SLPC   C37 6064   1.640   1.855  10.123  0.9964  0.0426  0.1443
   70SLPC   H7X 6065   1.571   1.771  10.142 -1.0848  1.2878 -1.4702
   70SLPC   H7Y 6066   1.738   1.805  10.137  0.3536 -0.9986  1.0812
   70SLPC   C38 6067   1.628   1.911   9.987  0.0851 -0.6726  0.0066
   70SLPC   H8X 6068   1.703   1.991   9.964 -1.0716 -0.2106 -2.5734
   70SLPC   H8Y 6069   1.533   1.967   9.976 -0.0175 -1.1624 -2.0457
   70SLPC   C39 6070   1.651   1.807   9.877 -0.8393 -0.3368  0.1076
   70SLPC   H9X 6071   1.583   1.719   9.883 -0.3800 -0.7111 -0.1336
   70SLPC   H9Y 6072   1.749   1.758   9.891 -1.0996 -0.8549  0.1497
   70SLPC  C310 6073   1.670   1.857   9.733  0.3347  0.1375 -0.5669
   70SLPC  H10X 6074   1.709   1.772   9.673  1.6204 -1.5176  2.3649
   70SLPC  H10Y 6075   1.749   1.935   9.728  2.4664 -1.6805  1.9025
   70SLPC  C311 6076   1.542   1.912   9.680 -0.7170  0.2829 -0.0590
   70SLPC  H11X 6077   1.522   2.012   9.724  0.5063  0.6730 -0.3384
   70SLPC  H11Y 6078   1.446   1.857   9.685 -0.2763 -0.8745 -2.7466
   70SLPC  C312 6079   1.547   1.956   9.525 -0.3073 -0.0975 -0.9951
   70SLPC  H12X 6080   1.623   2.035   9.504 -0.1341 -1.1384 -5.2109
   70SLPC  H12Y 6081   1.449   2.003   9.504 -1.3977 -2.7254 -2.2609
   70SLPC  C313 6082   1.557   1.846   9.418 -0.1954 -0.0876  1.0773
   70SLPC  H13X 6083   1.468   1.780   9.421  1.8749 -3.0851  0.3316
   70SLPC  H13Y 6084   1.633   1.774   9.455  0.2186 -0.4093 -0.3549
   70SLPC  C314 6085   1.587   1.891   9.271 -0.1695  0.7626 -0.0140
   70SLPC  H14X 6086   1.570   1.801   9.207  1.0186  0.2257  0.3987
   70SLPC  H14Y 6087   1.694   1.922   9.266 -0.0772  0.2889 -1.7638
   70SLPC  C315 6088   1.495   2.000   9.233  1.0363  0.2613  0.6238
   70SLPC  H15X 6089   1.499   2.093   9.294 -2.0067  0.9542 -0.0599
   70SLPC  H15Y 6090   1.392   1.958   9.230 -0.0677  2.7744  0.0489
   70SLPC  C316 6091   1.511   2.045   9.085  0.5692 -0.3314 -0.1997
   70SLPC  H16X 6092   1.611   2.095   9.085 -0.7283  2.4439  0.6680
   70SLPC  H16Y 6093   1.433   2.120   9.062 -0.2438 -1.0391  0.1998
   70SLPC  C317 6094   1.501   1.927   8.984 -0.0505  0.4517 -0.0475
   70SLPC  H17X 6095   1.447   1.844   9.034 -0.4786  0.7009 -0.0936
   70SLPC  H17Y 6096   1.604   1.890   8.963 -0.7090 -1.2421 -0.4437
   70SLPC  C318 6097   1.430   1.958   8.855  0.0006  0.6035 -0.0884
   70SLPC  H18X 6098   1.490   2.025   8.790 -1.2063  1.5314 -0.2823
   70SLPC  H18Y 6099   1.344   2.018   8.892 -0.2972  0.1158  0.0292
   70SLPC  H18Z 6100   1.384   1.873   8.799  1.0450 -0.1613  0.1856
   71SLPC     N 6101   0.318   6.719  10.880  0.1136 -0.1762  0.1507
   71SLPC   C13 6102   0.333   6.861  10.925 -0.5214  0.1178 -0.5551
   71SLPC  H13A 6103   0.421   6.908  10.883 -1.1183  0.7174 -1.1585
   71SLPC  H13B 6104   0.252   6.923  10.891 -1.4329 -0.5988  0.2682
   71SLPC  H13C 6105   0.338   6.863  11.033 -2.8489 -4.3543 -0.1226
   71SLPC   C14 6106   0.198   6.677  10.964 -0.2358  0.4380 -1.1266
   71SLPC  H14A 6107   0.228   6.677  11.068 -0.0358  0.2133 -1.1822
   71SLPC  H14B 6108   0.113   6.743  10.968  0.0321  0.7497  0.9603
   71SLPC  H14C 6109   0.162   6.580  10.935 -1.0153 -0.1957  1.6663
   71SLPC   C15 6110   0.446   6.640  10.914  0.1946 -0.1613 -0.0862
   71SLPC  H15A 6111   0.539   6.679  10.874  1.1194 -0.1571  1.9224
   71SLPC  H15B 6112   0.470   6.640  11.020  0.4465  1.9833 -0.1012
   71SLPC  H15C 6113   0.435   6.536  10.888 -0.7130 -0.0996  0.0329
   71SLPC   C12 6114   0.303   6.705  10.723 -0.6983 -0.0391  0.5391
   71SLPC  H12A 6115   0.220   6.768  10.693 -0.2799  0.3617  0.2176
   71SLPC  H12B 6116   0.265   6.606  10.703  0.8235 -0.5805  0.1770
   71SLPC   C11 6117   0.423   6.748  10.637  0.0384 -1.1347  0.3069
   71SLPC  H11A 6118   0.405   6.734  10.529 -2.1242  0.9761  0.3017
   71SLPC  H11B 6119   0.515   6.693  10.665  1.2172  0.0527 -1.0974
   71SLPC     P 6120   0.390   7.015  10.618 -0.7412 -0.1770  0.0009
   71SLPC   O13 6121   0.239   6.995  10.620 -0.2241 -0.6248 -0.1999
   71SLPC   O14 6122   0.435   7.122  10.713 -0.0032  0.4261 -0.3034
   71SLPC   O12 6123   0.468   6.884  10.654 -0.2407  0.6889  0.2013
   71SLPC   O11 6124   0.433   7.062  10.475  0.3164 -0.1077 -0.2167
   71SLPC    C1 6125   0.567   7.079  10.437 -0.7269 -0.0506  0.2624
   71SLPC    HA 6126   0.613   7.175  10.471 -1.7005  0.5487 -0.0675
   71SLPC    HB 6127   0.627   6.995  10.479 -0.1494  0.1585 -0.1405
   71SLPC    C2 6128   0.593   7.061  10.284 -0.0770 -0.8664 -0.3678
   71SLPC    HS 6129   0.550   7.150  10.232 -0.3664 -0.3913  0.6527
   71SLPC   O21 6130   0.545   6.940  10.234 -0.2148 -0.2268 -0.3327
   71SLPC   C21 6131   0.410   6.947  10.214  0.3211  0.0741 -0.4099
   71SLPC   O22 6132   0.339   7.044  10.216  0.1154 -0.2884 -0.3648
   71SLPC   C22 6133   0.357   6.810  10.179  0.1009  0.0811  0.6760
   71SLPC   H2R 6134   0.385   6.750  10.268  0.9112  1.1147  1.1466
   71SLPC   H2S 6135   0.249   6.800  10.156  0.4748 -3.5425 -0.0268
   71SLPC    C3 6136   0.750   7.073  10.263 -0.1879  0.8330 -1.0798
   71SLPC    HX 6137   0.793   6.984  10.314  1.0340  1.1954 -1.4349
   71SLPC    HY 6138   0.782   7.162  10.322 -0.8260  0.0557  0.5048
   71SLPC   O31 6139   0.781   7.094  10.121 -0.6974  0.1061  0.3540
   71SLPC   C31 6140   0.894   7.145  10.091 -0.0261  0.8341  0.6243
   71SLPC   O32 6141   0.987   7.158  10.168 -0.0835 -0.0682 -0.0141
   71SLPC   C32 6142   0.904   7.173   9.940 -0.7970 -0.0953 -0.3453
   71SLPC   H2X 6143   1.008   7.148   9.910 -0.8303 -0.0392 -0.5078
   71SLPC   H2Y 6144   0.873   7.278   9.920  0.7792  0.3617 -0.4651
   71SLPC   C23 6145   0.432   6.749  10.057 -0.0706  0.0115  0.5682
   71SLPC   H3R 6146   0.392   6.649  10.031  1.2803 -0.5488  0.5783
   71SLPC   H3S 6147   0.539   6.730  10.077  1.0068  3.3885 -1.1217
   71SLPC   C24 6148   0.425   6.831   9.927 -0.1534  0.0194  0.2641
   71SLPC   H4R 6149   0.477   6.926   9.951 -0.6568 -0.1519  2.1977
   71SLPC   H4S 6150   0.321   6.846   9.890  0.1173  0.5382 -0.2933
   71SLPC   C25 6151   0.509   6.761   9.810  0.1958  0.0516 -0.6540
   71SLPC   H5R 6152   0.482   6.653   9.809 -0.9200  0.3031 -0.1261
   71SLPC   H5S 6153   0.615   6.767   9.843 -0.1180 -1.7955  0.8707
   71SLPC   C26 6154   0.482   6.834   9.680 -0.1474  0.4659 -0.8576
   71SLPC   H6R 6155   0.492   6.944   9.689 -0.6586  0.4177  0.5447
   71SLPC   H6S 6156   0.376   6.818   9.654 -0.5775  0.9123  0.5085
   71SLPC   C27 6157   0.578   6.774   9.577  0.6862  0.0942  0.2269
   71SLPC   H7R 6158   0.549   6.667   9.584 -0.9132  0.5243  0.6880
   71SLPC   H7S 6159   0.684   6.790   9.606  0.6705  2.0641 -0.6318
   71SLPC   C28 6160   0.549   6.831   9.433 -0.5868 -0.0972  0.6565
   71SLPC   H8R 6161   0.572   6.940   9.437 -1.2032  0.0541  0.1915
   71SLPC   H8S 6162   0.443   6.827   9.399 -0.2403 -1.1486 -0.3732
   71SLPC   C29 6163   0.640   6.760   9.335  0.0589  0.5704 -0.0767
   71SLPC   H9R 6164   0.694   6.667   9.359  1.2469  1.3778  0.4575
   71SLPC  C210 6165   0.667   6.811   9.213  0.1402  0.2068  0.3180
   71SLPC  H10R 6166   0.732   6.750   9.148  0.2746  0.0793  0.5711
   71SLPC  C211 6167   0.616   6.942   9.160 -0.7265  0.0066  0.9215
   71SLPC  H11R 6168   0.524   6.977   9.211 -1.8556  5.0005 -3.6803
   71SLPC  H11S 6169   0.579   6.928   9.057 -1.3691  0.2084  1.1177
   71SLPC  C212 6170   0.727   7.045   9.193 -0.0817 -0.3504  0.4667
   71SLPC  H12R 6171   0.736   7.077   9.298 -1.0839  0.6617  0.2576
   71SLPC  C213 6172   0.820   7.085   9.104  0.0048  0.2882 -0.4242
   71SLPC  H13R 6173   0.891   7.159   9.145 -0.4811  0.1902  0.6425
   71SLPC  C214 6174   0.840   7.049   8.957  0.2048  0.3041  0.0479
   71SLPC  H14R 6175   0.784   6.956   8.932  0.0817  0.6010 -0.8079
   71SLPC  H14S 6176   0.947   7.048   8.931  0.1625  1.8505 -0.2701
   71SLPC  C215 6177   0.777   7.168   8.885 -0.3418  0.1982 -0.3261
   71SLPC  H15R 6178   0.840   7.257   8.903 -1.6045  1.3675 -1.4112
   71SLPC  H15S 6179   0.678   7.197   8.927  1.3084  1.3896  3.1148
   71SLPC  C216 6180   0.752   7.139   8.733 -0.0358  0.3630 -0.1844
   71SLPC  H16R 6181   0.724   7.241   8.701  1.3387  0.3044 -1.6842
   71SLPC  H16S 6182   0.663   7.073   8.740 -1.3426  2.0186 -0.7370
   71SLPC  C217 6183   0.872   7.073   8.651  0.7438  0.0752 -0.5133
   71SLPC  H17R 6184   0.902   6.983   8.708 -0.5388  0.4594  0.8316
   71SLPC  H17S 6185   0.950   7.152   8.649 -0.1602  0.9976 -0.5629
   71SLPC  C218 6186   0.829   7.031   8.507 -0.5796 -0.6138  0.2045
   71SLPC  H18R 6187   0.756   6.948   8.512 -0.2489 -0.9782 -0.8271
   71SLPC  H18S 6188   0.918   6.995   8.451 -2.4037 -1.1059 -2.5903
   71SLPC  H18T 6189   0.776   7.110   8.448 -0.3231 -0.8627 -0.3633
   71SLPC   C33 6190   0.815   7.083   9.839  0.0372 -0.3772  0.0549
   71SLPC   H3X 6191   0.724   7.137   9.805  0.0281 -1.0739 -1.0469
   71SLPC   H3Y 6192   0.792   6.990   9.896 -1.0526  0.3211  0.7885
   71SLPC   C34 6193   0.895   7.032   9.716  0.4634  0.2431  0.4412
   71SLPC   H4X 6194   0.847   6.942   9.672 -1.2008  1.3375 -0.0557
   71SLPC   H4Y 6195   0.998   6.993   9.735  0.0599 -1.4948 -0.6863
   71SLPC   C35 6196   0.896   7.143   9.615 -0.7893 -0.1807 -0.0895
   71SLPC   H5X 6197   0.963   7.223   9.654  0.0959 -0.3903 -1.1166
   71SLPC   H5Y 6198   0.793   7.181   9.602 -0.9877 -0.7742 -0.2982
   71SLPC   C36 6199   0.963   7.110   9.479 -0.2667 -0.4169 -0.0469
   71SLPC   H6X 6200   0.941   7.191   9.406  2.6011  1.0140  0.5105
   71SLPC   H6Y 6201   0.916   7.019   9.437  0.4043 -0.2350 -1.2075
   71SLPC   C37 6202   1.111   7.097   9.481  0.0144  0.1045 -0.1344
   71SLPC   H7X 6203   1.149   7.020   9.552  0.3126 -0.4034 -0.8330
   71SLPC   H7Y 6204   1.146   7.192   9.525 -0.3326  0.0121  0.3462
   71SLPC   C38 6205   1.172   7.076   9.339 -0.1795  0.4240  0.3652
   71SLPC   H8X 6206   1.101   7.004   9.295 -1.9327  0.4180  2.9546
   71SLPC   H8Y 6207   1.274   7.037   9.358 -0.0982  0.3982 -0.1313
   71SLPC   C39 6208   1.202   7.199   9.248  0.1534  0.2736 -0.0656
   71SLPC   H9X 6209   1.287   7.253   9.296 -0.1459 -0.3349  1.1953
   71SLPC   H9Y 6210   1.123   7.274   9.228 -0.5229  0.3606  2.5234
   71SLPC  C310 6211   1.252   7.155   9.103 -0.0979  0.1669 -0.1622
   71SLPC  H10X 6212   1.171   7.087   9.068  0.3878 -0.9451  0.8083
   71SLPC  H10Y 6213   1.339   7.086   9.103  0.3273  0.6968 -0.0572
   71SLPC  C311 6214   1.272   7.268   8.996 -0.1957 -0.2776  0.7347
   71SLPC  H11X 6215   1.330   7.237   8.907 -2.8517 -0.9081 -0.9188
   71SLPC  H11Y 6216   1.340   7.343   9.041 -0.5345  2.4952 -2.8426
   71SLPC  C312 6217   1.149   7.342   8.948  0.2852 -0.6078  0.8052
   71SLPC  H12X 6218   1.085   7.362   9.036  1.4648 -0.9178  1.7625
   71SLPC  H12Y 6219   1.101   7.276   8.873 -0.1269  1.0801 -0.4820
   71SLPC  C313 6220   1.171   7.471   8.873 -0.5545 -0.3515  0.3253
   71SLPC  H13X 6221   1.069   7.500   8.839 -0.4418 -2.0162 -1.7027
   71SLPC  H13Y 6222   1.241   7.448   8.789 -0.6344  1.7500 -0.3864
   71SLPC  C314 6223   1.237   7.589   8.948 -0.2616  0.0857  0.4587
   71SLPC  H14X 6224   1.327   7.548   8.999  0.1398  0.4485  0.0435
   71SLPC  H14Y 6225   1.168   7.623   9.028  2.7546  1.7578  2.5605
   71SLPC  C315 6226   1.279   7.699   8.845  0.0169  0.7932 -0.9005
   71SLPC  H15X 6227   1.275   7.804   8.882  0.1698  1.0899 -1.7135
   71SLPC  H15Y 6228   1.219   7.693   8.752  0.0408  0.5749 -0.9032
   71SLPC  C316 6229   1.424   7.666   8.790 -0.4549 -0.0964 -0.7617
   71SLPC  H16X 6230   1.440   7.560   8.761  2.3374  0.6957 -2.4105
   71SLPC  H16Y 6231   1.484   7.689   8.880 -0.6134 -4.7640  0.8294
   71SLPC  C317 6232   1.454   7.752   8.667 -0.6909 -0.2914  0.1525
   71SLPC  H17X 6233   1.436   7.861   8.684 -0.0406 -0.2124  0.3605
   71SLPC  H17Y 6234   1.390   7.741   8.577 -0.8559 -1.2312  0.3811
   71SLPC  C318 6235   1.601   7.735   8.616 -0.0573  0.2625  0.1753
   71SLPC  H18X 6236   1.636   7.630   8.624  1.5828  0.7908  0.4164
   71SLPC  H18Y 6237   1.664   7.799   8.682  1.8504 -0.0453 -1.2562
   71SLPC  H18Z 6238   1.608   7.768   8.510 -0.4141  1.8159  0.6054
   72SLPC     N 6239   1.469   0.703  10.901 -0.0669  0.1354  0.8737
   72SLPC   C13 6240   1.485   0.555  10.926  0.4864  0.0049 -0.4889
   72SLPC  H13A 6241   1.581   0.512  10.905 -0.0027 -1.6909  0.6199
   72SLPC  H13B 6242   1.449   0.532  11.025 -0.7796 -1.1105 -1.1754
   72SLPC  H13C 6243   1.415   0.508  10.858 -0.5499 -1.9034  1.7553
   72SLPC   C14 6244   1.586   0.778  10.957 -0.3186 -0.5040  0.1683
   72SLPC  H14A 6245   1.592   0.737  11.057 -3.1177  0.8069  0.9671
   72SLPC  H14B 6246   1.674   0.749  10.902 -1.3829 -0.4448 -1.6658
   72SLPC  H14C 6247   1.579   0.885  10.953 -0.9559 -0.5824 -1.7127
   72SLPC   C15 6248   1.344   0.745  10.976 -0.2984 -0.0849  0.1857
   72SLPC  H15A 6249   1.352   0.743  11.083  1.3578 -0.8187  0.0813
   72SLPC  H15B 6250   1.325   0.846  10.945 -1.2802 -0.4502 -0.4577
   72SLPC  H15C 6251   1.254   0.693  10.944  0.3207 -1.5400  0.7211
   72SLPC   C12 6252   1.449   0.728  10.747  0.6824  0.5737  0.2114
   72SLPC  H12A 6253   1.445   0.832  10.718 -1.2131  0.0011 -1.8559
   72SLPC  H12B 6254   1.348   0.695  10.727 -0.0628  1.8338  1.7464
   72SLPC   C11 6255   1.540   0.664  10.644 -0.2449  0.1114  0.0050
   72SLPC  H11A 6256   1.506   0.687  10.541  1.9787 -1.0568 -1.0662
   72SLPC  H11B 6257   1.530   0.553  10.651 -2.1060  0.0582 -2.3445
   72SLPC     P 6258   1.755   0.790  10.570  0.4915  0.4225  0.1790
   72SLPC   O13 6259   1.705   0.929  10.580 -0.2379 -0.2635  0.0731
   72SLPC   O14 6260   1.893   0.778  10.613 -0.3566  0.3429  0.2364
   72SLPC   O12 6261   1.673   0.700  10.665 -0.2804  0.3307 -0.6243
   72SLPC   O11 6262   1.738   0.735  10.429 -0.0262  0.3803  0.1211
   72SLPC    C1 6263   1.777   0.594  10.399  0.2771 -0.4362 -0.0582
   72SLPC    HA 6264   1.864   0.571  10.465  1.3578  2.0785 -0.4870
   72SLPC    HB 6265   1.683   0.540  10.421 -0.4585  0.3778 -1.1096
   72SLPC    C2 6266   1.813   0.581  10.250  0.2691 -0.4974 -0.5717
   72SLPC    HS 6267   1.776   0.479  10.225 -2.2848  0.1903  0.0605
   72SLPC   O21 6268   1.957   0.584  10.237  0.0687 -0.1400  0.8452
   72SLPC   C21 6269   2.032   0.490  10.289  0.4105  0.9030 -0.4820
   72SLPC   O22 6270   1.984   0.393  10.344 -0.0179 -0.2342  0.0940
   72SLPC   C22 6271   2.179   0.520  10.265  0.1097  0.2065  0.0115
   72SLPC   H2R 6272   2.193   0.618  10.214  0.3220  1.0970  1.7142
   72SLPC   H2S 6273   2.233   0.512  10.362 -4.0095 -0.5419  2.4461
   72SLPC    C3 6274   1.748   0.679  10.150 -0.0998  0.5069  0.0808
   72SLPC    HX 6275   1.777   0.778  10.192 -0.1709  0.1393  1.0237
   72SLPC    HY 6276   1.638   0.670  10.159 -0.1884  0.2227 -1.0946
   72SLPC   O31 6277   1.788   0.659  10.010 -0.6436 -0.4117 -0.3915
   72SLPC   C31 6278   1.733   0.560   9.953  0.5387  0.3007  0.2526
   72SLPC   O32 6279   1.651   0.481  10.004 -0.2197  0.0074  0.3856
   72SLPC   C32 6280   1.779   0.544   9.817 -0.3811 -0.5750  0.2091
   72SLPC   H2X 6281   1.890   0.547   9.816 -0.4067  1.4968 -0.8483
   72SLPC   H2Y 6282   1.741   0.622   9.749  1.1419 -2.5925 -3.2107
   72SLPC   C23 6283   2.241   0.409  10.185 -0.4129  0.2230  0.6127
   72SLPC   H3R 6284   2.201   0.307  10.202  1.2748 -0.7044 -0.7304
   72SLPC   H3S 6285   2.351   0.396  10.198 -0.0315 -1.4437 -3.0465
   72SLPC   C24 6286   2.244   0.440  10.033  0.1613 -0.4520 -1.2616
   72SLPC   H4R 6287   2.283   0.543  10.017  2.3965 -1.6166 -4.0079
   72SLPC   H4S 6288   2.140   0.440   9.993 -0.1331 -1.0388 -0.5181
   72SLPC   C25 6289   2.339   0.349   9.950 -0.7751 -0.2434 -0.0225
   72SLPC   H5R 6290   2.288   0.253   9.928  1.5671 -1.3647 -0.9005
   72SLPC   H5S 6291   2.425   0.325  10.016 -0.9093 -0.9023 -0.0763
   72SLPC   C26 6292   2.388   0.422   9.821  0.3012 -0.3786 -0.1632
   72SLPC   H6R 6293   2.472   0.493   9.839  1.2255 -0.8724 -2.2147
   72SLPC   H6S 6294   2.304   0.486   9.785  2.2573  2.0177 -0.8203
   72SLPC   C27 6295   2.441   0.328   9.711 -0.1919 -0.5972  0.4330
   72SLPC   H7R 6296   2.375   0.239   9.712  1.0109 -1.5183  1.7403
   72SLPC   H7S 6297   2.539   0.292   9.748 -0.2945 -1.4975 -0.1553
   72SLPC   C28 6298   2.448   0.382   9.569 -0.2590 -0.2323  0.4210
   72SLPC   H8R 6299   2.518   0.468   9.571  1.3176 -1.4561  2.0264
   72SLPC   H8S 6300   2.341   0.405   9.553 -1.4327 -3.1599  2.9451
   72SLPC   C29 6301   2.496   0.283   9.463 -0.0265 -0.0013  0.2696
   72SLPC   H9R 6302   2.440   0.188   9.464  0.6584 -0.4167  1.0604
   72SLPC  C210 6303   2.604   0.289   9.390 -0.1491  0.1390  0.0670
   72SLPC  H10R 6304   2.625   0.208   9.318 -1.8168 -1.9119  1.7415
   72SLPC  C211 6305   2.706   0.403   9.397 -0.5349 -0.8108 -0.4525
   72SLPC  H11R 6306   2.810   0.363   9.389 -0.6060 -1.2451  0.6726
   72SLPC  H11S 6307   2.710   0.449   9.498 -0.1146 -0.8801 -0.4378
   72SLPC  C212 6308   2.690   0.523   9.305  0.4323 -0.1223 -0.4438
   72SLPC  H12R 6309   2.647   0.616   9.344  1.6895  0.3851 -0.2310
   72SLPC  C213 6310   2.729   0.538   9.172 -0.3298 -0.2436  0.2680
   72SLPC  H13R 6311   2.711   0.633   9.120  0.1559  0.5111  1.4454
   72SLPC  C214 6312   2.795   0.433   9.095  0.3479  0.1160 -0.1014
   72SLPC  H14R 6313   2.838   0.354   9.160  1.0030  0.6624  0.1365
   72SLPC  H14S 6314   2.877   0.476   9.034 -0.7611  0.1255 -1.6593
   72SLPC  C215 6315   2.698   0.359   8.998 -0.3441  0.6624 -0.3409
   72SLPC  H15R 6316   2.620   0.301   9.052 -1.2273  1.2715 -0.9396
   72SLPC  H15S 6317   2.770   0.280   8.968  0.3311 -0.4974  3.7284
   72SLPC  C216 6318   2.675   0.439   8.868  0.0626  0.7378  0.6022
   72SLPC  H16R 6319   2.657   0.546   8.895  3.8431  1.6386  0.1807
   72SLPC  H16S 6320   2.594   0.392   8.808  0.7289 -1.1059  1.0860
   72SLPC  C217 6321   2.796   0.465   8.774  0.6147 -0.7511  0.1190
   72SLPC  H17R 6322   2.887   0.493   8.832  0.8626  0.6778 -0.9072
   72SLPC  H17S 6323   2.771   0.555   8.714  0.0783 -1.1929 -0.3334
   72SLPC  C218 6324   2.821   0.344   8.681  0.2336  0.6274 -0.4401
   72SLPC  H18R 6325   2.909   0.371   8.620  0.3452  1.2200 -0.0242
   72SLPC  H18S 6326   2.740   0.320   8.609  0.1094  0.9097 -0.3930
   72SLPC  H18T 6327   2.857   0.262   8.747  1.2058  0.7113 -0.8556
   72SLPC   C33 6328   1.738   0.410   9.759 -0.3847 -0.1606 -1.1625
   72SLPC   H3X 6329   1.630   0.406   9.734 -0.5416 -0.1873 -0.5040
   72SLPC   H3Y 6330   1.742   0.333   9.840 -0.7773 -0.1854 -1.1650
   72SLPC   C34 6331   1.809   0.367   9.636 -0.5302  0.2893  0.3663
   72SLPC   H4X 6332   1.787   0.262   9.606  2.0972 -0.9239  2.2867
   72SLPC   H4Y 6333   1.917   0.355   9.655 -0.3179 -1.6211 -1.7013
   72SLPC   C35 6334   1.789   0.468   9.524 -0.4084  0.1459 -0.2440
   72SLPC   H5X 6335   1.845   0.562   9.540 -0.4844  0.3253 -0.9578
   72SLPC   H5Y 6336   1.683   0.499   9.533 -0.7682 -1.0268 -0.2188
   72SLPC   C36 6337   1.810   0.416   9.387  0.6342  0.2119 -0.3895
   72SLPC   H6X 6338   1.758   0.320   9.365  0.0158  0.7291 -1.2586
   72SLPC   H6Y 6339   1.914   0.388   9.362  0.8430  0.1166  0.5472
   72SLPC   C37 6340   1.759   0.505   9.273  0.2597 -0.2304 -0.2363
   72SLPC   H7X 6341   1.826   0.593   9.278  0.6007 -0.5077  0.1352
   72SLPC   H7Y 6342   1.654   0.535   9.296  0.8683  0.1432  2.3688
   72SLPC   C38 6343   1.777   0.445   9.132 -0.1242  0.0785 -0.1677
   72SLPC   H8X 6344   1.720   0.350   9.145  0.7407 -0.2929  1.1211
   72SLPC   H8Y 6345   1.888   0.437   9.132  0.0054  1.6351  0.1665
   72SLPC   C39 6346   1.744   0.535   9.012  0.0930 -0.4534 -0.4141
   72SLPC   H9X 6347   1.827   0.606   8.991 -0.4256  0.5125  0.6694
   72SLPC   H9Y 6348   1.657   0.598   9.042  0.4615 -0.9245  1.8700
   72SLPC  C310 6349   1.713   0.449   8.884  1.0400  0.4676  0.2833
   72SLPC  H10X 6350   1.635   0.375   8.913  1.5047 -0.7055 -1.3628
   72SLPC  H10Y 6351   1.793   0.374   8.868  0.1264 -0.3219 -0.7204
   72SLPC  C311 6352   1.693   0.525   8.756  0.4716 -0.0434  0.2715
   72SLPC  H11X 6353   1.777   0.595   8.732  0.1952 -0.9032 -4.0472
   72SLPC  H11Y 6354   1.602   0.589   8.751  1.7095  1.7054 -2.2569
   72SLPC  C312 6355   1.693   0.425   8.635  0.4829 -0.2408 -0.4770
   72SLPC  H12X 6356   1.610   0.353   8.648 -1.4186  1.8821 -0.3228
   72SLPC  H12Y 6357   1.793   0.376   8.625  0.7650 -0.6240  2.9096
   72SLPC  C313 6358   1.669   0.495   8.509  0.0603  0.5843 -0.5346
   72SLPC  H13X 6359   1.689   0.439   8.415 -0.3190  0.6006 -0.6287
   72SLPC  H13Y 6360   1.728   0.588   8.508 -0.3968  0.9352  1.1635
   72SLPC  C314 6361   1.519   0.537   8.494 -0.4329  0.1295 -0.0085
   72SLPC  H14X 6362   1.484   0.575   8.593  2.1532  3.0057 -0.0588
   72SLPC  H14Y 6363   1.480   0.435   8.479  1.3496 -0.6080  0.0895
   72SLPC  C315 6364   1.488   0.627   8.376  0.1527  0.3737 -0.7955
   72SLPC  H15X 6365   1.519   0.581   8.280  0.4970 -0.4557 -0.2945
   72SLPC  H15Y 6366   1.558   0.714   8.373 -2.7818  3.0714  1.8714
   72SLPC  C316 6367   1.348   0.683   8.369 -0.1524 -0.3455  0.6355
   72SLPC  H16X 6368   1.346   0.761   8.290 -1.5870  0.6519  1.6033
   72SLPC  H16Y 6369   1.322   0.742   8.460 -0.0795 -0.6237  0.8380
   72SLPC  C317 6370   1.245   0.579   8.336  0.5112  0.7076 -0.7020
   72SLPC  H17X 6371   1.229   0.506   8.418 -1.5043  2.1549  0.2681
   72SLPC  H17Y 6372   1.277   0.524   8.245 -0.8535 -2.8215  0.7984
   72SLPC  C318 6373   1.105   0.640   8.312 -0.1077 -0.6148 -0.0323
   72SLPC  H18X 6374   1.077   0.696   8.404  0.6231 -1.4819  0.7318
   72SLPC  H18Y 6375   1.024   0.566   8.303 -1.8664  1.2407 -0.1187
   72SLPC  H18Z 6376   1.093   0.705   8.222  0.6897  0.1309  0.3748
   73SLPC     N 6377   4.649   1.517  11.166  0.0723 -0.6284  0.0177
   73SLPC   C13 6378   4.639   1.661  11.156 -0.7557 -0.1524  0.4248
   73SLPC  H13A 6379   4.712   1.704  11.088 -0.8780  0.3496  0.6048
   73SLPC  H13B 6380   4.548   1.671  11.099 -1.2331 -0.4544  1.1277
   73SLPC  H13C 6381   4.616   1.719  11.244 -1.5975 -1.8478  1.3671
   73SLPC   C14 6382   4.527   1.461  11.238 -0.9177 -0.2881  0.1180
   73SLPC  H14A 6383   4.435   1.480  11.186 -1.2462 -0.2330  0.7106
   73SLPC  H14B 6384   4.530   1.353  11.239 -0.9936 -0.2946  1.0899
   73SLPC  H14C 6385   4.509   1.511  11.332 -2.0434 -0.0268 -0.2212
   73SLPC   C15 6386   4.767   1.480  11.247 -0.1217 -0.4883  0.1885
   73SLPC  H15A 6387   4.755   1.526  11.344  2.3003 -0.2048  0.4118
   73SLPC  H15B 6388   4.763   1.375  11.271  1.6937 -0.3725  1.1329
   73SLPC  H15C 6389   4.861   1.506  11.200  0.3602 -1.2456  0.7257
   73SLPC   C12 6390   4.663   1.450  11.032  0.0666  0.0632  0.3566
   73SLPC  H12A 6391   4.671   1.343  11.044 -1.0377  0.0303  0.8958
   73SLPC  H12B 6392   4.756   1.484  10.989 -0.0741 -0.2839 -0.2464
   73SLPC   C11 6393   4.556   1.466  10.922 -0.4380  0.2403 -0.2147
   73SLPC  H11A 6394   4.585   1.433  10.820 -1.0140 -0.0971 -0.2745
   73SLPC  H11B 6395   4.545   1.576  10.910 -2.1651  0.1191 -0.0324
   73SLPC     P 6396   4.296   1.462  10.931 -0.2658 -0.4021 -0.2394
   73SLPC   O13 6397   4.192   1.377  10.995 -0.0002 -0.1560  0.2725
   73SLPC   O14 6398   4.304   1.607  10.968  0.3706 -0.2260  0.5399
   73SLPC   O12 6399   4.438   1.396  10.967 -0.0720  0.1523 -0.2622
   73SLPC   O11 6400   4.290   1.443  10.776  0.3447  0.2299  0.1939
   73SLPC    C1 6401   4.355   1.529  10.686 -0.6674 -0.3839  0.1303
   73SLPC    HA 6402   4.410   1.615  10.731  0.4485  1.2287 -3.9225
   73SLPC    HB 6403   4.426   1.466  10.630 -0.4483 -0.6774  0.7246
   73SLPC    C2 6404   4.243   1.575  10.591  0.8553 -0.7129  0.0621
   73SLPC    HS 6405   4.167   1.495  10.596  0.6442 -0.4406  1.6996
   73SLPC   O21 6406   4.311   1.597  10.464  0.4693 -0.0299  0.1063
   73SLPC   C21 6407   4.295   1.503  10.370  0.5290  0.5940 -0.3568
   73SLPC   O22 6408   4.248   1.394  10.393  0.5744 -0.5951 -0.0274
   73SLPC   C22 6409   4.341   1.565  10.234  0.8483  0.3035  0.4345
   73SLPC   H2R 6410   4.262   1.639  10.207  0.0739 -0.7356 -0.1957
   73SLPC   H2S 6411   4.444   1.604  10.249  1.1185  0.2941 -1.2679
   73SLPC    C3 6412   4.185   1.711  10.637 -0.2238 -0.4389 -0.5496
   73SLPC    HX 6413   4.254   1.798  10.641 -0.1561 -0.5205  0.1740
   73SLPC    HY 6414   4.143   1.706  10.740 -0.2514  0.6777 -0.4892
   73SLPC   O31 6415   4.070   1.735  10.552 -0.5489 -0.1492 -0.0422
   73SLPC   C31 6416   4.016   1.851  10.579 -0.0916 -0.4747  0.8952
   73SLPC   O32 6417   4.054   1.937  10.654 -0.3633  0.4437 -0.3576
   73SLPC   C32 6418   3.898   1.875  10.481 -0.0283 -0.3450  0.2639
   73SLPC   H2X 6419   3.928   1.963  10.419 -1.0577  0.4049  0.8083
   73SLPC   H2Y 6420   3.815   1.915  10.543 -0.7975 -0.7781 -0.4640
   73SLPC   C23 6421   4.344   1.457  10.123  0.1682  0.4054 -0.5318
   73SLPC   H3R 6422   4.247   1.405  10.110 -0.7325  1.9582 -0.1951
   73SLPC   H3S 6423   4.412   1.377  10.159 -1.2923  0.1360  1.8115
   73SLPC   C24 6424   4.383   1.503   9.985  0.2728 -0.4284 -0.0193
   73SLPC   H4R 6425   4.478   1.557  10.002 -0.6477  1.2056  0.1402
   73SLPC   H4S 6426   4.308   1.567   9.933  0.8655  0.6819  0.4573
   73SLPC   C25 6427   4.410   1.385   9.885 -0.4931  0.1377  0.5166
   73SLPC   H5R 6428   4.311   1.340   9.865 -0.1570 -0.5044  0.2730
   73SLPC   H5S 6429   4.481   1.310   9.927 -0.1741  0.8377  1.2551
   73SLPC   C26 6430   4.483   1.427   9.757  0.3554 -0.2560  0.6535
   73SLPC   H6R 6431   4.587   1.456   9.782  1.2056 -1.7011 -0.9583
   73SLPC   H6S 6432   4.430   1.513   9.711 -1.1795 -1.6180 -0.2476
   73SLPC   C27 6433   4.498   1.309   9.654  0.4340 -0.5744  0.6392
   73SLPC   H7R 6434   4.400   1.293   9.604 -0.6358  1.5146  1.9621
   73SLPC   H7S 6435   4.548   1.219   9.696  2.6984  0.3694  0.1346
   73SLPC   C28 6436   4.584   1.359   9.535  0.2885 -0.5868  0.1144
   73SLPC   H8R 6437   4.682   1.403   9.564 -0.1158 -0.7395  1.8096
   73SLPC   H8S 6438   4.539   1.452   9.495  1.5893  0.7610  1.6494
   73SLPC   C29 6439   4.587   1.246   9.432  0.4986 -0.1932  0.4979
   73SLPC   H9R 6440   4.488   1.219   9.392 -0.3724  0.3445  2.1697
   73SLPC  C210 6441   4.698   1.185   9.383 -0.5253  0.3959 -1.0594
   73SLPC  H10R 6442   4.685   1.111   9.303  0.0036  0.4590 -1.2037
   73SLPC  C211 6443   4.835   1.219   9.433 -0.5340 -0.0651  0.2913
   73SLPC  H11R 6444   4.841   1.217   9.544 -1.7429 -1.3216  0.3565
   73SLPC  H11S 6445   4.872   1.318   9.397 -0.1787  0.4095  1.8667
   73SLPC  C212 6446   4.923   1.110   9.373  0.0695  0.4447  0.7517
   73SLPC  H12R 6447   4.927   1.010   9.419 -0.0908 -0.9993 -2.1327
   73SLPC  C213 6448   4.997   1.123   9.263 -0.7206  0.4226  0.0168
   73SLPC  H13R 6449   5.055   1.032   9.241  0.9673  0.9659  2.0305
   73SLPC  C214 6450   5.018   1.235   9.165  0.1119  0.3535  0.5520
   73SLPC  H14R 6451   5.128   1.252   9.161  0.7272 -3.0462 -1.1329
   73SLPC  H14S 6452   4.964   1.328   9.189  3.0497  2.0529  1.1006
   73SLPC  C215 6453   4.963   1.207   9.023  0.2554  0.0164 -0.1337
   73SLPC  H15R 6454   5.001   1.107   8.990 -2.5094 -1.3227  0.4415
   73SLPC  H15S 6455   4.999   1.283   8.951 -0.6033  1.4342  0.8967
   73SLPC  C216 6456   4.807   1.198   9.030  0.6574  0.4089 -0.7022
   73SLPC  H16R 6457   4.757   1.163   9.123  0.5221  1.7487 -0.2491
   73SLPC  H16S 6458   4.798   1.131   8.942  0.9744 -0.2601 -0.2317
   73SLPC  C217 6459   4.729   1.323   8.976 -0.1323  0.1342 -0.0933
   73SLPC  H17R 6460   4.781   1.352   8.881  1.8936  0.3419  1.0217
   73SLPC  H17S 6461   4.740   1.404   9.051  2.5117 -0.3626  0.1529
   73SLPC  C218 6462   4.578   1.306   8.953 -0.4855  0.8269  0.0665
   73SLPC  H18R 6463   4.528   1.259   9.040 -0.6307  1.5413  0.3712
   73SLPC  H18S 6464   4.570   1.245   8.860  1.9747 -0.6352  0.7008
   73SLPC  H18T 6465   4.535   1.408   8.943  0.0839  1.2664  1.7552
   73SLPC   C33 6466   3.838   1.761  10.399  0.1142 -0.5943  0.9436
   73SLPC   H3X 6467   3.778   1.704  10.473  0.6187  0.2593  2.0538
   73SLPC   H3Y 6468   3.919   1.706  10.347 -0.3946  1.2780 -2.1185
   73SLPC   C34 6469   3.732   1.802  10.290 -0.1616  0.3061  0.1296
   73SLPC   H4X 6470   3.656   1.874  10.328  0.2332  2.2705 -2.5365
   73SLPC   H4Y 6471   3.684   1.707  10.257 -1.0159  0.8758 -0.3183
   73SLPC   C35 6472   3.786   1.873  10.163 -0.3861 -0.5873 -0.9337
   73SLPC   H5X 6473   3.861   1.945  10.203 -1.6924  0.5205 -0.3905
   73SLPC   H5Y 6474   3.711   1.943  10.121 -1.2488  0.4005  1.9779
   73SLPC   C36 6475   3.839   1.771  10.067 -0.5262 -0.1081  0.6180
   73SLPC   H6X 6476   3.753   1.703  10.051 -0.7985  0.4469 -0.3867
   73SLPC   H6Y 6477   3.922   1.715  10.115 -0.1204 -2.1125 -2.1537
   73SLPC   C37 6478   3.888   1.822   9.935 -0.8610 -0.1883  0.0569
   73SLPC   H7X 6479   3.942   1.741   9.881 -2.0346  0.0451 -1.5347
   73SLPC   H7Y 6480   3.954   1.910   9.953 -0.8859 -0.2261  0.3305
   73SLPC   C38 6481   3.768   1.866   9.845  0.5639  0.1893  0.9209
   73SLPC   H8X 6482   3.735   1.959   9.897  0.9726  0.1268  1.2883
   73SLPC   H8Y 6483   3.704   1.777   9.831  0.9182  0.4111 -3.8446
   73SLPC   C39 6484   3.817   1.914   9.703  0.9045 -0.3517  0.4800
   73SLPC   H9X 6485   3.923   1.947   9.705  0.6057  0.6692 -0.1647
   73SLPC   H9Y 6486   3.754   1.997   9.666  1.0972 -0.1009  0.7133
   73SLPC  C310 6487   3.800   1.803   9.594 -0.1222 -0.6190 -0.7373
   73SLPC  H10X 6488   3.689   1.804   9.579  0.0011 -0.0583 -1.7089
   73SLPC  H10Y 6489   3.806   1.698   9.630 -0.4435 -0.9675 -1.6408
   73SLPC  C311 6490   3.888   1.806   9.475  0.4391  0.4151  0.7165
   73SLPC  H11X 6491   3.849   1.721   9.414 -2.9798  0.5539  2.4879
   73SLPC  H11Y 6492   3.989   1.772   9.508 -0.8019 -1.5280  2.8033
   73SLPC  C312 6493   3.886   1.933   9.388 -0.0591 -0.1469  0.2008
   73SLPC  H12X 6494   3.939   2.017   9.438  0.0850 -0.8942  1.3400
   73SLPC  H12Y 6495   3.781   1.968   9.375  0.0079 -0.5432 -1.6285
   73SLPC  C313 6496   3.947   1.911   9.248  0.0269 -0.3190 -0.6136
   73SLPC  H13X 6497   3.940   1.809   9.205  0.9017 -0.3182 -0.7968
   73SLPC  H13Y 6498   4.056   1.933   9.252 -0.1312  0.3106  2.0384
   73SLPC  C314 6499   3.876   2.004   9.142  0.5354 -0.0507 -0.1430
   73SLPC  H14X 6500   3.871   2.107   9.184  1.3375 -0.5712  1.3109
   73SLPC  H14Y 6501   3.771   1.969   9.130  0.8150 -0.5886 -1.1365
   73SLPC  C315 6502   3.944   1.999   9.008  0.3054  0.2141  0.1967
   73SLPC  H15X 6503   4.041   2.053   9.013 -0.6375  1.8839  2.1900
   73SLPC  H15Y 6504   3.879   2.063   8.944  0.6191 -1.6957 -2.1558
   73SLPC  C316 6505   3.958   1.860   8.940 -0.0094 -0.1107  0.1783
   73SLPC  H16X 6506   4.024   1.790   8.996 -0.5573 -0.3566  0.5235
   73SLPC  H16Y 6507   4.002   1.882   8.840 -0.1462  1.7044  0.4878
   73SLPC  C317 6508   3.829   1.785   8.923 -0.1379 -0.0469 -0.3308
   73SLPC  H17X 6509   3.771   1.785   9.018 -2.3664  1.7488 -1.5930
   73SLPC  H17Y 6510   3.845   1.678   8.901 -0.0630  0.2617 -1.9001
   73SLPC  C318 6511   3.740   1.839   8.810 -0.2920 -0.3084  0.5546
   73SLPC  H18X 6512   3.681   1.928   8.841 -2.3463 -0.4217 -2.5745
   73SLPC  H18Y 6513   3.668   1.756   8.798  2.4186 -2.8520  0.7919
   73SLPC  H18Z 6514   3.800   1.852   8.717  0.5653 -1.8529  0.8616
   74SLPC     N 6515   3.787   0.324  10.983  0.2888  0.2150 -0.0644
   74SLPC   C13 6516   3.717   0.271  11.102 -0.0367 -0.6171 -0.4591
   74SLPC  H13A 6517   3.769   0.187  11.145  0.9988  0.3936  0.3288
   74SLPC  H13B 6518   3.719   0.332  11.191 -0.5791 -1.2846  0.0238
   74SLPC  H13C 6519   3.617   0.237  11.078 -0.7551 -0.1708  1.6974
   74SLPC   C14 6520   3.850   0.206  10.912 -0.2728  0.2422  0.0322
   74SLPC  H14A 6521   3.903   0.143  10.983 -1.9235 -1.7983 -0.4507
   74SLPC  H14B 6522   3.782   0.145  10.855 -0.9103 -0.5195  1.5359
   74SLPC  H14C 6523   3.916   0.241  10.834 -2.0480  2.1957 -0.6965
   74SLPC   C15 6524   3.888   0.417  11.023 -0.5984 -0.5317 -0.6658
   74SLPC  H15A 6525   3.926   0.461  10.932 -4.5564 -0.9263 -2.7614
   74SLPC  H15B 6526   3.849   0.494  11.088  0.8190 -0.1327 -0.2429
   74SLPC  H15C 6527   3.970   0.366  11.072  0.6766  2.1050  0.1385
   74SLPC   C12 6528   3.692   0.398  10.893  0.4664 -0.1358  0.3628
   74SLPC  H12A 6529   3.659   0.482  10.952 -0.7533 -1.7270  2.0489
   74SLPC  H12B 6530   3.598   0.346  10.879 -0.0694  0.7170  0.6688
   74SLPC   C11 6531   3.753   0.434  10.752  0.5190 -0.8877 -0.1505
   74SLPC  H11A 6532   3.663   0.482  10.708  1.3067  0.6691 -0.1324
   74SLPC  H11B 6533   3.777   0.341  10.698  1.9261 -0.5877 -0.0793
   74SLPC     P 6534   3.977   0.537  10.661 -0.0350  0.1176 -0.0999
   74SLPC   O13 6535   4.071   0.653  10.681  1.0243 -0.1354  0.4099
   74SLPC   O14 6536   4.044   0.404  10.664  0.7820  0.5607  0.4673
   74SLPC   O12 6537   3.864   0.532  10.764 -0.0433 -0.0213  0.4748
   74SLPC   O11 6538   3.904   0.550  10.526 -0.1584  0.1308  0.4465
   74SLPC    C1 6539   3.841   0.677  10.492  0.4868  0.3883 -0.2951
   74SLPC    HA 6540   3.836   0.743  10.581 -0.8937 -2.0476  1.5337
   74SLPC    HB 6541   3.899   0.713  10.404 -0.9268 -1.6140 -2.1414
   74SLPC    C2 6542   3.700   0.661  10.439  0.6151 -1.1693 -0.0934
   74SLPC    HS 6543   3.639   0.633  10.528  0.6460  0.5978  0.5158
   74SLPC   O21 6544   3.700   0.565  10.340 -0.5988  0.2832  0.9946
   74SLPC   C21 6545   3.584   0.522  10.305 -0.2462 -0.4165  0.5659
   74SLPC   O22 6546   3.478   0.565  10.354 -0.2701  0.6146 -0.4224
   74SLPC   C22 6547   3.584   0.432  10.180 -0.6507  0.0124  0.4298
   74SLPC   H2R 6548   3.610   0.498  10.095  2.5767 -2.6314 -0.8543
   74SLPC   H2S 6549   3.671   0.364  10.184  1.0819  2.0841 -0.5036
   74SLPC    C3 6550   3.642   0.798  10.392  0.9252  0.1728  0.4071
   74SLPC    HX 6551   3.660   0.881  10.464  0.4884  0.5175  0.1286
   74SLPC    HY 6552   3.531   0.790  10.384  0.6051  3.5779 -0.4064
   74SLPC   O31 6553   3.686   0.834  10.258  0.1877 -0.2990 -0.9389
   74SLPC   C31 6554   3.772   0.938  10.260  0.4397  0.1633  0.7523
   74SLPC   O32 6555   3.831   0.989  10.348  0.1030 -0.2314 -0.5807
   74SLPC   C32 6556   3.791   0.975  10.107  0.0314  0.7476 -0.0428
   74SLPC   H2X 6557   3.872   1.052  10.101  1.0657 -0.3736 -1.0128
   74SLPC   H2Y 6558   3.698   1.025  10.073 -0.0371  0.0948 -0.8513
   74SLPC   C23 6559   3.453   0.346  10.156  0.6058  0.1429  0.1948
   74SLPC   H3R 6560   3.360   0.405  10.162 -0.2673 -1.1507 -0.2692
   74SLPC   H3S 6561   3.437   0.269  10.235  1.3575 -0.1149  0.1106
   74SLPC   C24 6562   3.452   0.275  10.018 -0.3646  1.1351  0.2855
   74SLPC   H4R 6563   3.353   0.226  10.011  0.4425 -0.6125  0.5530
   74SLPC   H4S 6564   3.527   0.193  10.027 -0.7269  0.8001  0.2896
   74SLPC   C25 6565   3.467   0.367   9.888 -0.4619  0.2050  0.0155
   74SLPC   H5R 6566   3.558   0.430   9.900  1.6853 -2.4756 -1.1526
   74SLPC   H5S 6567   3.380   0.435   9.876  0.3059  1.0991 -0.6037
   74SLPC   C26 6568   3.504   0.276   9.775 -0.1872  0.1951  0.1492
   74SLPC   H6R 6569   3.429   0.197   9.754  3.5567 -3.8119  0.3129
   74SLPC   H6S 6570   3.593   0.232   9.824 -0.4402  0.7129  1.1029
   74SLPC   C27 6571   3.566   0.342   9.652 -0.3450 -0.6510  0.1836
   74SLPC   H7R 6572   3.632   0.278   9.588 -0.7540 -0.1450 -0.7703
   74SLPC   H7S 6573   3.629   0.426   9.688  0.3803 -1.8327  1.7791
   74SLPC   C28 6574   3.462   0.413   9.564 -1.3679 -0.2756 -0.5565
   74SLPC   H8R 6575   3.407   0.489   9.624 -1.1206 -0.9034  0.5022
   74SLPC   H8S 6576   3.386   0.346   9.518 -0.7078  0.3439 -2.6185
   74SLPC   C29 6577   3.536   0.483   9.449  0.1968 -0.0266 -0.2320
   74SLPC   H9R 6578   3.575   0.582   9.478  0.0683 -0.0358 -0.0277
   74SLPC  C210 6579   3.541   0.451   9.315  0.6291  0.6226  0.5802
   74SLPC  H10R 6580   3.582   0.520   9.240  2.3587 -0.0307  0.8739
   74SLPC  C211 6581   3.481   0.329   9.251  0.2840  0.0432  0.9223
   74SLPC  H11R 6582   3.491   0.340   9.141 -0.3616  3.3209  1.1125
   74SLPC  H11S 6583   3.371   0.315   9.258  0.3051 -0.7341 -0.0759
   74SLPC  C212 6584   3.547   0.198   9.289  0.0501  0.3758  0.0044
   74SLPC  H12R 6585   3.522   0.165   9.391 -1.1290 -0.2661 -0.4792
   74SLPC  C213 6586   3.625   0.114   9.218 -0.3179 -0.2821  0.2554
   74SLPC  H13R 6587   3.650   0.020   9.269  0.6569 -0.0571  0.2023
   74SLPC  C214 6588   3.676   0.124   9.074 -0.5026  0.1435  0.2542
   74SLPC  H14R 6589   3.787   0.116   9.073 -0.5995 -1.4611 -1.2939
   74SLPC  H14S 6590   3.639   0.216   9.024 -1.0808 -0.5173 -0.5628
   74SLPC  C215 6591   3.617   0.008   8.987  0.0665 -0.8883  0.2759
   74SLPC  H15R 6592   3.631   0.035   8.880  0.8580  1.0155  0.8167
   74SLPC  H15S 6593   3.509  -0.009   9.007  0.5840 -1.9702  2.3724
   74SLPC  C216 6594   3.688  -0.128   9.001  0.9100  0.3885 -0.1242
   74SLPC  H16R 6595   3.706  -0.142   9.109  1.5016 -1.9160 -0.4669
   74SLPC  H16S 6596   3.786  -0.109   8.952  1.6627  3.0010  2.1175
   74SLPC  C217 6597   3.599  -0.239   8.931 -0.0218  0.3768  0.7787
   74SLPC  H17R 6598   3.498  -0.248   8.977 -1.6854 -0.6958 -2.7749
   74SLPC  H17S 6599   3.642  -0.338   8.954  0.5788  0.0632 -1.4754
   74SLPC  C218 6600   3.571  -0.232   8.778  0.5089  0.0211 -0.1464
   74SLPC  H18R 6601   3.665  -0.243   8.719 -0.0857  1.0155 -1.3324
   74SLPC  H18S 6602   3.510  -0.143   8.753 -0.9767 -0.8071  0.4239
   74SLPC  H18T 6603   3.496  -0.311   8.762 -0.2898  0.9646 -1.1887
   74SLPC   C33 6604   3.831   0.849  10.023  0.5732 -0.7746 -0.1102
   74SLPC   H3X 6605   3.746   0.777  10.026 -0.4302  0.3725  0.0313
   74SLPC   H3Y 6606   3.929   0.805  10.051  0.3794 -2.1176 -1.4145
   74SLPC   C34 6607   3.855   0.888   9.875 -0.7086 -0.1124  0.5355
   74SLPC   H4X 6608   3.945   0.953   9.881 -0.7406  0.3714 -2.6903
   74SLPC   H4Y 6609   3.769   0.951   9.845  0.0205  0.2692 -0.8146
   74SLPC   C35 6610   3.899   0.775   9.785  0.1648  0.5883  0.4988
   74SLPC   H5X 6611   3.811   0.707   9.778 -0.2808  1.2729 -0.8983
   74SLPC   H5Y 6612   3.967   0.712   9.846 -0.6309 -0.4465  0.3434
   74SLPC   C36 6613   3.948   0.823   9.650 -0.3701 -0.1696 -0.0023
   74SLPC   H6X 6614   4.018   0.908   9.656  0.3338 -0.7525  0.1240
   74SLPC   H6Y 6615   3.859   0.859   9.595 -0.9819  0.1203  1.1347
   74SLPC   C37 6616   4.030   0.719   9.559  0.7226  0.2932  0.1642
   74SLPC   H7X 6617   4.129   0.689   9.600  1.1050 -1.7448 -2.0136
   74SLPC   H7Y 6618   4.045   0.760   9.458 -0.6193  1.2531  0.3369
   74SLPC   C38 6619   3.948   0.592   9.548  0.5450 -0.5519  0.0749
   74SLPC   H8X 6620   3.839   0.612   9.556  0.7599  0.7943 -0.1321
   74SLPC   H8Y 6621   3.973   0.537   9.642 -0.0163  2.0092  1.8218
   74SLPC   C39 6622   3.969   0.506   9.421  0.2937 -0.0833  0.2145
   74SLPC   H9X 6623   3.927   0.405   9.438 -0.0055  0.1717  1.0167
   74SLPC   H9Y 6624   4.077   0.481   9.418  0.8648  2.2617 -1.7807
   74SLPC  C310 6625   3.939   0.554   9.280 -0.7036 -0.1867  0.5865
   74SLPC  H10X 6626   3.994   0.649   9.263  1.4120 -1.5125 -0.2386
   74SLPC  H10Y 6627   3.828   0.566   9.278 -1.1704 -3.6115 -1.5988
   74SLPC  C311 6628   3.975   0.455   9.166  0.7601  0.8368 -0.1548
   74SLPC  H11X 6629   3.893   0.381   9.183  0.1485  1.8724  1.7930
   74SLPC  H11Y 6630   4.071   0.399   9.174  0.4774  0.3328 -0.2389
   74SLPC  C312 6631   3.974   0.519   9.024  0.5419  0.3315 -0.5625
   74SLPC  H12X 6632   3.904   0.604   9.030  0.2773  0.0199  2.1858
   74SLPC  H12Y 6633   3.932   0.443   8.954 -0.7480 -0.6765  1.2251
   74SLPC  C313 6634   4.099   0.561   8.956 -0.7013 -0.6317  0.3288
   74SLPC  H13X 6635   4.165   0.475   8.932  0.1082  0.0105  0.1995
   74SLPC  H13Y 6636   4.158   0.627   9.024  0.6678  0.3473 -1.6929
   74SLPC  C314 6637   4.064   0.631   8.823  0.1070 -0.0030 -0.3008
   74SLPC  H14X 6638   3.975   0.589   8.774  0.9514 -0.8476 -1.1410
   74SLPC  H14Y 6639   4.144   0.632   8.746  0.6543  0.6774  0.2553
   74SLPC  C315 6640   4.029   0.778   8.841  0.3598  0.3723 -0.6022
   74SLPC  H15X 6641   4.098   0.826   8.914  0.3442  0.3923 -0.6006
   74SLPC  H15Y 6642   3.922   0.799   8.862 -0.6321 -2.6836 -2.0290
   74SLPC  C316 6643   4.066   0.864   8.722  0.4655 -0.0890  0.3595
   74SLPC  H16X 6644   4.177   0.865   8.715  0.4721  0.4206  0.4664
   74SLPC  H16Y 6645   4.037   0.970   8.740  0.2200  0.1109 -1.1092
   74SLPC  C317 6646   4.011   0.815   8.592 -0.0375 -0.6267  0.4960
   74SLPC  H17X 6647   3.902   0.795   8.604  0.2322 -2.1568  0.5713
   74SLPC  H17Y 6648   4.051   0.717   8.562  0.6043  0.5155 -2.7783
   74SLPC  C318 6649   4.027   0.920   8.481  0.3350  0.7679  0.5126
   74SLPC  H18X 6650   3.985   0.893   8.382 -1.4730  1.6284  0.9946
   74SLPC  H18Y 6651   4.134   0.934   8.454  0.1759  2.8235  0.7237
   74SLPC  H18Z 6652   3.990   1.019   8.515  2.5068  1.7232  0.3075
   75SLPC     N 6653   5.021   4.574   6.212 -0.2275 -0.2758 -0.6371
   75SLPC   C13 6654   4.876   4.592   6.226  1.0726 -0.0186 -0.2007
   75SLPC  H13A 6655   4.845   4.688   6.187  0.2085 -0.9898 -2.0297
   75SLPC  H13B 6656   4.824   4.518   6.167  2.6596 -2.3064  1.1094
   75SLPC  H13C 6657   4.838   4.582   6.327  0.9392 -0.4943 -0.2974
   75SLPC   C14 6658   5.052   4.585   6.068 -0.8624 -0.3513  1.0991
   75SLPC  H14A 6659   5.035   4.681   6.023  0.4033 -0.9679 -0.8248
   75SLPC  H14B 6660   5.158   4.570   6.053 -0.8398  0.0919  0.8205
   75SLPC  H14C 6661   4.998   4.505   6.019 -2.7816 -0.4822  3.2591
   75SLPC   C15 6662   5.054   4.432   6.255  0.0474 -0.5451  0.4243
   75SLPC  H15A 6663   5.014   4.407   6.352  0.1414  1.8058  1.1233
   75SLPC  H15B 6664   5.017   4.363   6.180  0.8981  0.2688 -0.7757
   75SLPC  H15C 6665   5.162   4.429   6.254  0.3785  4.0756 -0.1150
   75SLPC   C12 6666   5.100   4.671   6.299  0.1451 -0.3800 -0.1507
   75SLPC  H12A 6667   5.066   4.644   6.397 -0.9259 -1.3343 -0.7589
   75SLPC  H12B 6668   5.065   4.764   6.257  0.4206 -0.9681 -1.7500
   75SLPC   C11 6669   5.261   4.666   6.304  0.5207  0.5485  0.3445
   75SLPC  H11A 6670   5.301   4.736   6.380  2.0641  1.0155 -0.8424
   75SLPC  H11B 6671   5.298   4.697   6.203 -0.0345  1.0983  0.2954
   75SLPC     P 6672   5.321   4.475   6.474  0.7763  0.1129 -0.1860
   75SLPC   O13 6673   5.264   4.340   6.461  0.0670 -0.3038 -1.0302
   75SLPC   O14 6674   5.456   4.488   6.527 -0.6649  0.0470 -0.1435
   75SLPC   O12 6675   5.318   4.535   6.326  0.2375  0.4173 -0.0721
   75SLPC   O11 6676   5.214   4.546   6.571  0.5699 -0.1178  0.4246
   75SLPC    C1 6677   5.220   4.502   6.709 -0.3898  0.3101  0.6833
   75SLPC    HA 6678   5.120   4.476   6.751  0.7965 -4.6367  1.1477
   75SLPC    HB 6679   5.278   4.409   6.729  0.7581  1.5154  3.3837
   75SLPC    C2 6680   5.275   4.616   6.800  0.1221 -0.2048  0.3673
   75SLPC    HS 6681   5.386   4.612   6.805  0.2649  2.5653  4.3825
   75SLPC   O21 6682   5.229   4.601   6.930  0.2937  0.2730 -0.1512
   75SLPC   C21 6683   5.268   4.499   6.985  0.2489  0.2354  0.1274
   75SLPC   O22 6684   5.366   4.428   6.956 -0.6095 -0.3729  0.4834
   75SLPC   C22 6685   5.177   4.475   7.112  0.1593  0.5161  0.2047
   75SLPC   H2R 6686   5.107   4.394   7.083  2.7031 -1.6416 -0.4086
   75SLPC   H2S 6687   5.242   4.415   7.180  0.4631 -0.2633 -0.7524
   75SLPC    C3 6688   5.246   4.761   6.733 -0.4158 -0.3003  0.1921
   75SLPC    HX 6689   5.138   4.770   6.712 -1.4349 -2.2988  3.7185
   75SLPC    HY 6690   5.300   4.773   6.637 -2.1027  0.3418 -0.7204
   75SLPC   O31 6691   5.297   4.866   6.824  0.2544  0.3114 -0.2263
   75SLPC   C31 6692   5.198   4.917   6.904  0.3947 -0.8532  0.0818
   75SLPC   O32 6693   5.076   4.893   6.893  0.1035 -0.5100  0.1412
   75SLPC   C32 6694   5.257   5.024   6.996 -0.4763 -0.2261  0.1745
   75SLPC   H2X 6695   5.194   5.115   6.993 -1.1544 -0.6972 -0.1498
   75SLPC   H2Y 6696   5.361   5.047   6.963 -0.5132  0.5655  0.5908
   75SLPC   C23 6697   5.117   4.596   7.184  0.7798 -0.4720 -0.8621
   75SLPC   H3R 6698   5.052   4.649   7.112 -0.6557  0.1724  0.8391
   75SLPC   H3S 6699   5.185   4.670   7.233 -2.3729  0.2941  2.8111
   75SLPC   C24 6700   5.034   4.554   7.310 -0.2465 -0.4767 -0.5516
   75SLPC   H4R 6701   4.964   4.475   7.277  0.3101 -0.6469 -1.3368
   75SLPC   H4S 6702   4.979   4.645   7.342 -1.1004 -0.6590 -1.4602
   75SLPC   C25 6703   5.122   4.502   7.426  0.6505  0.2463  0.4103
   75SLPC   H5R 6704   5.179   4.587   7.468 -0.1942 -0.0012  2.1355
   75SLPC   H5S 6705   5.183   4.414   7.395 -0.7347  0.1072 -2.2265
   75SLPC   C26 6706   5.029   4.457   7.542 -0.6237  0.0933 -0.6772
   75SLPC   H6R 6707   4.971   4.371   7.503 -0.2391 -0.2504 -0.4905
   75SLPC   H6S 6708   4.948   4.533   7.553 -2.0172 -0.8585 -3.3866
   75SLPC   C27 6709   5.105   4.432   7.679 -0.4392  0.5630  0.7536
   75SLPC   H7R 6710   5.156   4.525   7.712  1.7056 -0.9077  1.8572
   75SLPC   H7S 6711   5.180   4.352   7.660 -2.1128 -1.4176  2.0242
   75SLPC   C28 6712   5.021   4.379   7.800  0.2432  0.1085 -0.4606
   75SLPC   H8R 6713   4.951   4.305   7.755 -0.9842 -0.3145  1.9885
   75SLPC   H8S 6714   4.958   4.469   7.819  0.4704 -0.0053  0.8954
   75SLPC   C29 6715   5.113   4.327   7.913  0.2346 -0.3755  0.0111
   75SLPC   H9R 6716   5.174   4.239   7.889 -0.5275 -0.0067 -3.9215
   75SLPC  C210 6717   5.136   4.400   8.027  0.6325 -0.1108 -0.5078
   75SLPC  H10R 6718   5.206   4.356   8.100 -1.0683  1.8061  2.5042
   75SLPC  C211 6719   5.067   4.531   8.071  0.3346  0.3615  0.4360
   75SLPC  H11R 6720   5.015   4.578   7.985  0.0396  0.5801  0.7304
   75SLPC  H11S 6721   5.148   4.603   8.095  0.9704  0.1727 -1.0829
   75SLPC  C212 6722   4.972   4.518   8.180  0.0137  0.4235  0.1054
   75SLPC  H12R 6723   4.873   4.484   8.145 -0.2716 -1.1386  2.1957
   75SLPC  C213 6724   4.970   4.559   8.309 -0.0133  0.4426 -0.0397
   75SLPC  H13R 6725   4.883   4.532   8.370  1.4557 -2.1816  1.0545
   75SLPC  C214 6726   5.080   4.614   8.381 -0.2184 -0.3738 -0.5387
   75SLPC  H14R 6727   5.166   4.616   8.311 -1.5818 -1.2187 -2.3230
   75SLPC  H14S 6728   5.119   4.549   8.462 -0.6311  1.4353  1.1872
   75SLPC  C215 6729   5.050   4.751   8.439  0.0410 -0.2766 -0.1275
   75SLPC  H15R 6730   5.147   4.793   8.475  0.6851  0.0279 -2.1156
   75SLPC  H15S 6731   4.987   4.733   8.529 -0.1083 -2.0670 -0.5691
   75SLPC  C216 6732   4.977   4.858   8.355  0.3855 -0.2279 -0.2577
   75SLPC  H16R 6733   4.878   4.825   8.316  0.0747 -0.0440  0.3592
   75SLPC  H16S 6734   5.048   4.868   8.271  2.5000 -0.1050  1.4640
   75SLPC  C217 6735   4.945   4.994   8.421 -0.0968  0.7385 -0.3167
   75SLPC  H17R 6736   4.841   5.001   8.461  0.4767 -1.2605  1.7209
   75SLPC  H17S 6737   4.962   5.061   8.334  1.0581 -0.5564 -1.1336
   75SLPC  C218 6738   5.035   5.049   8.533 -0.1159  0.1492 -0.2827
   75SLPC  H18R 6739   5.141   5.031   8.505  0.0562 -0.8057  0.9101
   75SLPC  H18S 6740   5.014   5.003   8.632  2.5561 -0.1039  0.2194
   75SLPC  H18T 6741   5.021   5.159   8.541  2.2336  0.5298 -0.7792
   75SLPC   C33 6742   5.267   4.991   7.149 -0.0466  0.1631  0.3439
   75SLPC   H3X 6743   5.309   4.888   7.162 -0.5971  0.1334  2.0577
   75SLPC   H3Y 6744   5.330   5.065   7.202 -0.3860  1.2421 -0.7353
   75SLPC   C34 6745   5.126   4.980   7.210  0.0104  0.1652  0.0933
   75SLPC   H4X 6746   5.065   4.910   7.150  1.9857 -0.8930 -0.7914
   75SLPC   H4Y 6747   5.076   5.079   7.202  1.0822  0.7481  0.3861
   75SLPC   C35 6748   5.131   4.941   7.356 -0.0595  0.4147 -0.8786
   75SLPC   H5X 6749   5.192   5.020   7.406 -3.0678  2.1990  0.2432
   75SLPC   H5Y 6750   5.179   4.841   7.358  4.1230  2.1987  1.1666
   75SLPC   C36 6751   4.993   4.930   7.434 -0.5000 -0.5369  0.5871
   75SLPC   H6X 6752   4.922   4.866   7.378  0.0627  0.3042 -1.1564
   75SLPC   H6Y 6753   4.947   5.031   7.431  0.2350 -0.2275 -0.4909
   75SLPC   C37 6754   5.009   4.877   7.581 -0.2425 -0.5589 -0.2128
   75SLPC   H7X 6755   5.088   4.939   7.626 -0.9417 -1.1319  1.9426
   75SLPC   H7Y 6756   5.041   4.770   7.583 -1.6714 -1.0611 -1.7736
   75SLPC   C38 6757   4.876   4.887   7.662 -0.0539  0.3126 -0.2025
   75SLPC   H8X 6758   4.798   4.854   7.590  1.9236 -2.3279 -1.2970
   75SLPC   H8Y 6759   4.857   4.996   7.674  0.9750  0.6403 -1.3701
   75SLPC   C39 6760   4.892   4.807   7.789  0.3902 -0.1463 -0.1678
   75SLPC   H9X 6761   4.988   4.840   7.835 -0.5767  2.0647  0.4074
   75SLPC   H9Y 6762   4.896   4.699   7.767  2.2683  0.4763 -3.5392
   75SLPC  C310 6763   4.786   4.838   7.900  0.2759 -0.0748  0.4284
   75SLPC  H10X 6764   4.798   4.759   7.977 -1.6405  0.0169  0.8595
   75SLPC  H10Y 6765   4.684   4.828   7.857  0.0714  1.2933  0.5592
   75SLPC  C311 6766   4.812   4.973   7.971  0.2529  0.0566 -0.1559
   75SLPC  H11X 6767   4.803   5.058   7.899  1.6987  0.0174 -0.4107
   75SLPC  H11Y 6768   4.913   4.977   8.016 -0.0308  3.8250  0.4714
   75SLPC  C312 6769   4.732   4.993   8.100  0.3107  0.0063 -0.1940
   75SLPC  H12X 6770   4.783   5.073   8.159 -1.2530  2.3043 -1.7779
   75SLPC  H12Y 6771   4.705   4.900   8.154 -2.4549  0.0830 -1.2884
   75SLPC  C313 6772   4.591   5.038   8.058 -0.2976 -0.6710  0.2396
   75SLPC  H13X 6773   4.530   4.960   8.007  0.3882  0.1705 -2.0205
   75SLPC  H13Y 6774   4.600   5.131   7.997  0.1838  0.5928  2.1598
   75SLPC  C314 6775   4.500   5.077   8.189 -0.2894  0.2968 -0.0746
   75SLPC  H14X 6776   4.518   4.997   8.263 -0.6505  1.2865  1.1264
   75SLPC  H14Y 6777   4.393   5.077   8.158  0.5471 -0.9990 -3.4518
   75SLPC  C315 6778   4.546   5.212   8.253 -0.7752 -0.4843 -0.2359
   75SLPC  H15X 6779   4.527   5.294   8.180  1.6746  0.7284  0.3689
   75SLPC  H15Y 6780   4.654   5.199   8.275  0.3915  2.8213 -3.0163
   75SLPC  C316 6781   4.484   5.244   8.392  0.2255 -0.3723  0.3389
   75SLPC  H16X 6782   4.524   5.340   8.430  1.5360 -1.0893  0.8662
   75SLPC  H16Y 6783   4.505   5.168   8.471  2.0148 -0.5764 -0.2914
   75SLPC  C317 6784   4.332   5.270   8.392 -0.2593 -0.3732  0.7162
   75SLPC  H17X 6785   4.313   5.292   8.285  0.7960 -0.0366  0.5888
   75SLPC  H17Y 6786   4.302   5.365   8.442  0.0322  1.3250 -2.1503
   75SLPC  C318 6787   4.244   5.155   8.441  0.1245  0.2984  0.1108
   75SLPC  H18X 6788   4.243   5.137   8.550 -1.2139 -1.5760 -0.1594
   75SLPC  H18Y 6789   4.281   5.062   8.392  0.7378 -0.3871  1.8132
   75SLPC  H18Z 6790   4.143   5.173   8.397 -0.1798  0.4681  0.8573
   76SLPC     N 6791   0.631   2.956   6.413 -0.2704  0.3611 -0.6363
   76SLPC   C13 6792   0.633   3.081   6.489  0.2806  0.1674 -0.2862
   76SLPC  H13A 6793   0.703   3.151   6.444 -1.8180  0.0770 -4.1495
   76SLPC  H13B 6794   0.535   3.124   6.500  0.3796  0.6657 -1.2234
   76SLPC  H13C 6795   0.666   3.061   6.590 -0.2204  0.8281  0.0119
   76SLPC   C14 6796   0.775   2.906   6.412 -0.6973  0.6143  0.0295
   76SLPC  H14A 6797   0.829   2.942   6.499 -0.0764  0.6741 -0.3735
   76SLPC  H14B 6798   0.791   2.802   6.388  1.5493  1.0670 -0.6511
   76SLPC  H14C 6799   0.833   2.962   6.340  0.9588 -0.2016  0.6780
   76SLPC   C15 6800   0.571   2.971   6.279 -0.7650  0.0103 -0.7693
   76SLPC  H15A 6801   0.471   3.011   6.290 -0.7644 -0.4568  1.5955
   76SLPC  H15B 6802   0.634   3.018   6.205 -3.1278  0.7153 -2.4767
   76SLPC  H15C 6803   0.554   2.871   6.243 -1.1411 -1.0673  2.1204
   76SLPC   C12 6804   0.549   2.867   6.505 -0.2831  0.2880 -0.0463
   76SLPC  H12A 6805   0.453   2.916   6.513 -0.6119  0.4126 -3.2878
   76SLPC  H12B 6806   0.603   2.853   6.598 -0.4914 -1.2454 -0.1295
   76SLPC   C11 6807   0.509   2.731   6.448  1.0028  0.0952  0.0302
   76SLPC  H11A 6808   0.460   2.678   6.533 -2.1518  3.5090  0.6114
   76SLPC  H11B 6809   0.596   2.667   6.421  0.4846 -0.6512  0.0848
   76SLPC     P 6810   0.373   2.637   6.240  0.2175 -0.4662 -0.2647
   76SLPC   O13 6811   0.263   2.689   6.157 -0.0241  0.2428 -0.2405
   76SLPC   O14 6812   0.498   2.578   6.179 -0.1712 -0.6701 -0.1101
   76SLPC   O12 6813   0.413   2.746   6.339 -0.4342 -0.2540 -0.4947
   76SLPC   O11 6814   0.316   2.533   6.344  0.8030 -0.4031  0.8625
   76SLPC    C1 6815   0.171   2.509   6.372  0.3105  0.3323  0.3378
   76SLPC    HA 6816   0.113   2.602   6.391 -2.2514 -1.0578 -0.2929
   76SLPC    HB 6817   0.122   2.450   6.293  0.8154  0.7822 -0.3217
   76SLPC    C2 6818   0.160   2.429   6.506  0.0647  0.4009  0.1563
   76SLPC    HS 6819   0.056   2.393   6.525  0.4000 -0.7463 -0.0902
   76SLPC   O21 6820   0.200   2.505   6.619  0.0380 -0.5067 -0.4120
   76SLPC   C21 6821   0.113   2.603   6.655 -0.1101  0.3238 -0.2126
   76SLPC   O22 6822   0.002   2.612   6.607 -0.0471  0.0905 -0.8399
   76SLPC   C22 6823   0.181   2.703   6.757  0.2525  0.2506  1.0222
   76SLPC   H2R 6824   0.254   2.765   6.700 -0.2579  0.8128  0.9797
   76SLPC   H2S 6825   0.099   2.766   6.797 -0.8758 -0.6941  0.2571
   76SLPC    C3 6826   0.256   2.308   6.503 -0.6099 -0.0472  0.1039
   76SLPC    HX 6827   0.361   2.344   6.493  0.0466 -2.2050 -1.8991
   76SLPC    HY 6828   0.246   2.244   6.413  0.3961  0.5025 -0.4212
   76SLPC   O31 6829   0.233   2.230   6.625  0.2774 -0.2064 -0.4747
   76SLPC   C31 6830   0.317   2.133   6.632 -0.0584 -0.3124  0.0262
   76SLPC   O32 6831   0.416   2.117   6.569  0.2240  0.3957  0.3369
   76SLPC   C32 6832   0.268   2.034   6.739 -0.0758  1.4062 -0.3805
   76SLPC   H2X 6833   0.316   1.937   6.715 -0.1776  1.0376  0.8366
   76SLPC   H2Y 6834   0.159   2.022   6.726 -0.5284  3.2331  1.2734
   76SLPC   C23 6835   0.255   2.624   6.871 -1.0058 -0.6092  0.5524
   76SLPC   H3R 6836   0.330   2.697   6.909 -0.5730  0.3778 -2.0129
   76SLPC   H3S 6837   0.310   2.538   6.826 -0.1249 -0.4778  1.3455
   76SLPC   C24 6838   0.160   2.576   6.980  0.3550 -0.7421 -0.4982
   76SLPC   H4R 6839   0.094   2.495   6.945  1.3444 -1.5677 -0.5090
   76SLPC   H4S 6840   0.106   2.668   7.013  2.6783  1.3934 -2.2202
   76SLPC   C25 6841   0.238   2.512   7.098  0.2529 -0.7069  0.2972
   76SLPC   H5R 6842   0.330   2.572   7.112  1.4023 -1.1300 -3.9440
   76SLPC   H5S 6843   0.289   2.416   7.075  1.0312 -0.4169  0.8066
   76SLPC   C26 6844   0.150   2.507   7.228  0.6556  0.3081  0.1447
   76SLPC   H6R 6845   0.077   2.426   7.208  1.6860 -0.3236 -1.2632
   76SLPC   H6S 6846   0.114   2.608   7.258 -0.2189  0.0639 -0.0599
   76SLPC   C27 6847   0.235   2.432   7.336 -0.1922  0.3922 -0.2614
   76SLPC   H7R 6848   0.323   2.499   7.346  1.5757 -1.5039 -2.1623
   76SLPC   H7S 6849   0.268   2.331   7.302  1.0059  1.4776 -2.5767
   76SLPC   C28 6850   0.158   2.413   7.468 -0.1000  0.1912 -0.6787
   76SLPC   H8R 6851   0.133   2.515   7.505 -1.3420  0.0453 -1.0701
   76SLPC   H8S 6852   0.066   2.352   7.466 -0.5858  0.9128 -1.3634
   76SLPC   C29 6853   0.245   2.344   7.566 -0.7405  0.2517  0.2495
   76SLPC   H9R 6854   0.294   2.256   7.522 -1.0863  0.2996 -0.2455
   76SLPC  C210 6855   0.278   2.370   7.697 -0.5471 -0.8085 -0.2196
   76SLPC  H10R 6856   0.345   2.298   7.747  3.9475  1.7669 -1.9486
   76SLPC  C211 6857   0.241   2.487   7.789  0.7870  0.3428  0.3260
   76SLPC  H11R 6858   0.156   2.453   7.851 -0.7853  1.2822 -1.2286
   76SLPC  H11S 6859   0.201   2.563   7.719 -4.4163 -1.6413  0.7224
   76SLPC  C212 6860   0.357   2.548   7.866 -0.0825  0.5675 -0.1242
   76SLPC  H12R 6861   0.454   2.547   7.814  0.4179 -0.3940  0.8154
   76SLPC  C213 6862   0.366   2.589   7.994 -0.8491 -0.1762  0.1935
   76SLPC  H13R 6863   0.460   2.629   8.034 -0.9532  0.0896  0.1772
   76SLPC  C214 6864   0.257   2.583   8.097  0.4274  0.2581  0.9188
   76SLPC  H14R 6865   0.166   2.537   8.054  1.3117 -2.3005  1.5859
   76SLPC  H14S 6866   0.224   2.683   8.134 -1.4091 -0.3244  0.9576
   76SLPC  C215 6867   0.302   2.492   8.213 -0.6637  0.3298 -0.1733
   76SLPC  H15R 6868   0.223   2.504   8.289 -1.8171 -2.4857 -0.7888
   76SLPC  H15S 6869   0.390   2.535   8.266 -0.1716  0.0850 -0.7654
   76SLPC  C216 6870   0.299   2.341   8.179 -1.2740 -0.1314  0.5453
   76SLPC  H16R 6871   0.378   2.332   8.102 -1.5184 -0.0150  0.2793
   76SLPC  H16S 6872   0.203   2.318   8.129 -1.1883  0.0882  0.2701
   76SLPC  C217 6873   0.338   2.270   8.310  0.5535 -0.1751  0.0112
   76SLPC  H17R 6874   0.273   2.289   8.399  0.9027  1.9149 -0.1222
   76SLPC  H17S 6875   0.437   2.305   8.347  0.4426  1.6814 -1.3395
   76SLPC  C218 6876   0.347   2.126   8.279 -0.6949  0.0811  0.0466
   76SLPC  H18R 6877   0.243   2.095   8.258 -1.1148  2.1378 -1.2080
   76SLPC  H18S 6878   0.393   2.073   8.366 -1.4175  1.7391  1.4934
   76SLPC  H18T 6879   0.407   2.103   8.188  1.4254  0.9064  1.1522
   76SLPC   C33 6880   0.292   2.079   6.884 -0.0168  0.6278  0.7768
   76SLPC   H3X 6881   0.252   2.004   6.955 -1.9742  0.2993 -0.5779
   76SLPC   H3Y 6882   0.234   2.172   6.901  1.7599  1.9068  0.2044
   76SLPC   C34 6883   0.438   2.099   6.920 -0.3086  0.3468  0.3740
   76SLPC   H4X 6884   0.491   2.154   6.840  0.9278 -3.1373 -1.3973
   76SLPC   H4Y 6885   0.490   2.002   6.913  0.9182  0.9559  0.6981
   76SLPC   C35 6886   0.456   2.172   7.049  0.2780 -0.0757  0.2829
   76SLPC   H5X 6887   0.363   2.228   7.068  0.1157 -0.8236  1.9087
   76SLPC   H5Y 6888   0.538   2.247   7.044  0.2469 -0.1260 -1.9927
   76SLPC   C36 6889   0.485   2.065   7.159 -0.3269 -0.7010 -0.1712
   76SLPC   H6X 6890   0.581   2.016   7.131  0.5640  1.7079 -1.5808
   76SLPC   H6Y 6891   0.407   1.986   7.163 -1.5733  0.4724 -0.7628
   76SLPC   C37 6892   0.500   2.131   7.293 -0.2892 -0.1961  0.2583
   76SLPC   H7X 6893   0.408   2.187   7.317 -0.2489 -1.2038  3.2289
   76SLPC   H7Y 6894   0.592   2.194   7.294 -1.9286  2.3380  1.0659
   76SLPC   C38 6895   0.514   2.011   7.395 -0.4364  0.2142  0.0164
   76SLPC   H8X 6896   0.599   1.958   7.346 -0.6673  0.8828 -1.1537
   76SLPC   H8Y 6897   0.425   1.946   7.398  1.1905 -2.0999  0.7074
   76SLPC   C39 6898   0.548   2.049   7.535 -0.0651  0.0751 -0.7273
   76SLPC   H9X 6899   0.486   2.137   7.562  0.7863  0.8284 -1.1587
   76SLPC   H9Y 6900   0.655   2.082   7.536 -0.5053  1.7372 -2.8379
   76SLPC  C310 6901   0.533   1.936   7.643 -0.1548  0.4520 -0.1467
   76SLPC  H10X 6902   0.599   1.852   7.611 -1.6828 -0.6618 -0.4892
   76SLPC  H10Y 6903   0.429   1.901   7.656  0.2011  0.0445  2.0981
   76SLPC  C311 6904   0.584   1.973   7.781  0.1538 -0.8459 -0.2622
   76SLPC  H11X 6905   0.510   2.049   7.817 -0.3951 -0.9518 -1.1374
   76SLPC  H11Y 6906   0.684   2.022   7.778 -1.0100  1.7008 -1.0575
   76SLPC  C312 6907   0.600   1.855   7.870  0.2917 -0.3566 -0.2673
   76SLPC  H12X 6908   0.679   1.791   7.824  1.3299  0.2966  0.5517
   76SLPC  H12Y 6909   0.511   1.794   7.894 -0.4160  1.2071  1.2445
   76SLPC  C313 6910   0.648   1.890   8.010  0.7337 -0.2707 -0.3722
   76SLPC  H13X 6911   0.571   1.948   8.066  1.2937  2.4666 -2.2716
   76SLPC  H13Y 6912   0.734   1.957   8.032 -1.5039  1.7102  3.6761
   76SLPC  C314 6913   0.686   1.762   8.087 -0.3206 -1.3279 -0.1208
   76SLPC  H14X 6914   0.764   1.703   8.034 -1.1573 -0.6497 -2.2112
   76SLPC  H14Y 6915   0.597   1.698   8.107  0.4781 -2.0965  1.1900
   76SLPC  C315 6916   0.755   1.787   8.229 -0.5610  0.0695 -0.1494
   76SLPC  H15X 6917   0.852   1.840   8.216 -0.6294  0.9987  2.4571
   76SLPC  H15Y 6918   0.796   1.693   8.271  3.6932  0.4421 -2.8847
   76SLPC  C316 6919   0.669   1.862   8.340 -0.3795 -0.7250  0.2517
   76SLPC  H16X 6920   0.579   1.797   8.346  1.2368 -3.1235 -0.2846
   76SLPC  H16Y 6921   0.633   1.965   8.316 -0.5538 -0.6177  0.9555
   76SLPC  C317 6922   0.728   1.885   8.472 -0.5709 -0.1626 -0.2952
   76SLPC  H17X 6923   0.807   1.962   8.463  0.4328 -1.2122 -0.6445
   76SLPC  H17Y 6924   0.778   1.793   8.507  0.0249 -0.3569 -1.6211
   76SLPC  C318 6925   0.629   1.921   8.580  0.4226 -0.4729  0.1605
   76SLPC  H18X 6926   0.545   1.850   8.592  1.8338 -2.4000 -0.7833
   76SLPC  H18Y 6927   0.590   2.025   8.567 -1.3191 -0.8484  1.9126
   76SLPC  H18Z 6928   0.675   1.925   8.682 -0.8547  0.1460  0.7430
   77SLPC     N 6929   4.780   1.727   6.176  0.1184 -0.7267 -0.2585
   77SLPC   C13 6930   4.903   1.738   6.091 -0.2024 -0.1041 -0.3994
   77SLPC  H13A 6931   4.928   1.646   6.039 -0.3240  0.6148 -1.7696
   77SLPC  H13B 6932   4.905   1.821   6.022  0.2037  0.0097 -0.2502
   77SLPC  H13C 6933   4.984   1.758   6.160 -0.3012  0.3354 -0.4091
   77SLPC   C14 6934   4.656   1.702   6.097 -0.9240 -0.4618  0.4573
   77SLPC  H14A 6935   4.572   1.716   6.163 -0.4479  1.3104  0.7509
   77SLPC  H14B 6936   4.651   1.764   6.009 -1.7070  1.8783  2.0409
   77SLPC  H14C 6937   4.647   1.597   6.076 -0.6561 -0.4827  0.4456
   77SLPC   C15 6938   4.765   1.869   6.237  0.0076 -0.1902 -0.3138
   77SLPC  H15A 6939   4.689   1.854   6.312  0.4301  1.4223  0.4740
   77SLPC  H15B 6940   4.857   1.906   6.280 -0.2149  0.2628 -0.2199
   77SLPC  H15C 6941   4.738   1.938   6.158  0.8999  2.2011  1.3450
   77SLPC   C12 6942   4.800   1.625   6.291 -0.1655  0.0163 -0.5159
   77SLPC  H12A 6943   4.888   1.656   6.344 -1.2794  0.2808  1.2653
   77SLPC  H12B 6944   4.810   1.533   6.235 -1.2134 -0.3834 -0.0852
   77SLPC   C11 6945   4.684   1.604   6.390 -0.1893 -0.4224 -0.3464
   77SLPC  H11A 6946   4.659   1.706   6.427  0.0505  0.1200 -1.6031
   77SLPC  H11B 6947   4.726   1.548   6.476  1.0791 -0.4433 -0.9589
   77SLPC     P 6948   4.509   1.412   6.360 -0.3532 -0.0055 -0.1006
   77SLPC   O13 6949   4.395   1.387   6.271  0.1277 -0.4008  0.5845
   77SLPC   O14 6950   4.610   1.303   6.360  0.2562 -0.5000 -0.0882
   77SLPC   O12 6951   4.574   1.552   6.319 -0.2085  0.4064  0.0873
   77SLPC   O11 6952   4.451   1.443   6.502 -0.4202  0.0945 -0.1460
   77SLPC    C1 6953   4.526   1.422   6.616  0.1901 -0.4525  0.2226
   77SLPC    HA 6954   4.623   1.372   6.596  0.7820  0.7467  0.0174
   77SLPC    HB 6955   4.552   1.525   6.650  1.0210  0.0067 -1.6773
   77SLPC    C2 6956   4.454   1.342   6.728 -0.3875  0.2000 -0.3479
   77SLPC    HS 6957   4.356   1.387   6.754 -0.7663 -0.8676  0.1424
   77SLPC   O21 6958   4.530   1.328   6.848 -0.3414  0.1381  0.1641
   77SLPC   C21 6959   4.568   1.436   6.914  0.6252 -0.7243  0.3085
   77SLPC   O22 6960   4.503   1.543   6.897  0.0774  0.7144  0.1235
   77SLPC   C22 6961   4.673   1.399   7.025  0.4178  0.2643  0.1864
   77SLPC   H2R 6962   4.644   1.295   7.051 -0.2573 -0.1863 -2.1363
   77SLPC   H2S 6963   4.777   1.406   6.989  0.4892  1.1595  0.5443
   77SLPC    C3 6964   4.419   1.199   6.681 -0.0591  0.4379  0.3549
   77SLPC    HX 6965   4.517   1.158   6.650  0.2129  0.2739  1.3892
   77SLPC    HY 6966   4.355   1.205   6.590  0.7070 -0.6218 -0.2786
   77SLPC   O31 6967   4.353   1.113   6.779  0.0291 -0.3097  0.4636
   77SLPC   C31 6968   4.225   1.139   6.809  0.6286  0.0105  0.7324
   77SLPC   O32 6969   4.162   1.232   6.760 -0.1773  0.1930  0.0608
   77SLPC   C32 6970   4.172   1.035   6.913  0.2473 -0.1653 -0.3940
   77SLPC   H2X 6971   4.248   0.954   6.915  2.0318  1.3769  3.0223
   77SLPC   H2Y 6972   4.069   1.013   6.878 -0.3174  0.7935  0.6055
   77SLPC   C23 6973   4.653   1.482   7.153 -0.3255 -0.2421 -0.6523
   77SLPC   H3R 6974   4.544   1.472   7.170  0.0294 -0.8880  1.4316
   77SLPC   H3S 6975   4.679   1.589   7.136 -2.1075 -0.0119 -2.3569
   77SLPC   C24 6976   4.725   1.417   7.269  0.2915  0.3466  0.9747
   77SLPC   H4R 6977   4.821   1.367   7.246 -1.4353 -1.7626 -2.3144
   77SLPC   H4S 6978   4.659   1.334   7.303  1.9900 -1.2232  0.5877
   77SLPC   C25 6979   4.739   1.518   7.386 -0.1005  0.0315 -0.2510
   77SLPC   H5R 6980   4.637   1.551   7.414 -1.0106 -1.8549 -1.1911
   77SLPC   H5S 6981   4.802   1.606   7.360  1.2414 -1.6786 -3.4133
   77SLPC   C26 6982   4.799   1.459   7.509  0.1109  0.5882 -0.6709
   77SLPC   H6R 6983   4.897   1.419   7.478 -0.2209 -0.2077 -0.7058
   77SLPC   H6S 6984   4.735   1.370   7.527  1.3656 -0.3884 -0.9925
   77SLPC   C27 6985   4.804   1.555   7.630  0.4926  0.1085  0.3257
   77SLPC   H7R 6986   4.722   1.629   7.616 -0.0292 -0.5905 -0.4091
   77SLPC   H7S 6987   4.898   1.614   7.640  0.9424 -0.6937  0.9515
   77SLPC   C28 6988   4.782   1.491   7.770 -0.2691 -0.1949  0.0932
   77SLPC   H8R 6989   4.850   1.403   7.772  1.0772  0.8117 -0.1736
   77SLPC   H8S 6990   4.678   1.457   7.751 -1.4125  3.8562 -1.9341
   77SLPC   C29 6991   4.817   1.585   7.887 -0.0796 -0.1043  0.1590
   77SLPC   H9R 6992   4.755   1.672   7.910 -2.2019 -1.0040 -1.7560
   77SLPC  C210 6993   4.915   1.561   7.973 -0.0304 -0.0173 -0.2471
   77SLPC  H10R 6994   4.918   1.639   8.050  0.9528 -2.0321  1.8618
   77SLPC  C211 6995   5.012   1.449   7.994 -0.0143  0.0658 -0.0388
   77SLPC  H11R 6996   4.979   1.361   7.936 -2.7920  2.0308 -1.6748
   77SLPC  H11S 6997   4.996   1.429   8.101 -0.4348  4.1814  0.8537
   77SLPC  C212 6998   5.156   1.481   7.977  0.1074 -0.4175  0.1757
   77SLPC  H12R 6999   5.206   1.540   8.055  1.5104  0.1183 -1.0843
   77SLPC  C213 7000   5.237   1.443   7.877  0.5891  0.2248 -0.1012
   77SLPC  H13R 7001   5.342   1.470   7.892  0.8237 -1.1465  0.9590
   77SLPC  C214 7002   5.204   1.360   7.749  0.3446  0.1832  0.4115
   77SLPC  H14R 7003   5.122   1.289   7.770  1.3597 -0.4387  2.5684
   77SLPC  H14S 7004   5.288   1.294   7.719  1.3820  0.7381  1.9224
   77SLPC  C215 7005   5.180   1.447   7.623 -0.0113  0.0974 -0.4962
   77SLPC  H15R 7006   5.260   1.523   7.613 -1.1296  1.3396 -0.2416
   77SLPC  H15S 7007   5.088   1.509   7.624  0.3686  0.6653 -0.4253
   77SLPC  C216 7008   5.176   1.361   7.497 -0.6689 -0.8997 -1.2003
   77SLPC  H16R 7009   5.091   1.290   7.489 -1.6597  0.0892  0.1926
   77SLPC  H16S 7010   5.268   1.298   7.497 -1.0044 -1.3935 -0.9373
   77SLPC  C217 7011   5.172   1.463   7.379  0.1721  0.5756  0.2855
   77SLPC  H17R 7012   5.263   1.527   7.380  0.3982  0.3774 -2.0711
   77SLPC  H17S 7013   5.090   1.534   7.402  0.5589  0.2011  3.2022
   77SLPC  C218 7014   5.151   1.402   7.239 -0.4432  0.4498 -0.5366
   77SLPC  H18R 7015   5.066   1.331   7.233 -1.2486  1.3830 -0.2348
   77SLPC  H18S 7016   5.241   1.352   7.196 -0.3759 -0.4046  0.5547
   77SLPC  H18T 7017   5.135   1.490   7.173  0.4693 -0.8647 -2.6138
   77SLPC   C33 7018   4.170   1.114   7.050  0.1583  0.4685  0.1911
   77SLPC   H3X 7019   4.124   1.052   7.130 -0.7107  1.4865  0.5104
   77SLPC   H3Y 7020   4.118   1.212   7.050 -1.2084 -0.2314  0.5375
   77SLPC   C34 7021   4.312   1.140   7.095 -0.2989  0.0085  0.6655
   77SLPC   H4X 7022   4.361   1.221   7.037 -0.3499 -2.1663 -2.6193
   77SLPC   H4Y 7023   4.372   1.048   7.078 -0.4224  0.0474  0.0349
   77SLPC   C35 7024   4.317   1.167   7.243 -0.0139 -0.2842 -0.3787
   77SLPC   H5X 7025   4.425   1.177   7.266 -0.4283  0.3878  1.4424
   77SLPC   H5Y 7026   4.295   1.073   7.298  1.0995 -0.1722  0.2970
   77SLPC   C36 7027   4.225   1.273   7.304 -0.0128 -0.4350  0.0589
   77SLPC   H6X 7028   4.120   1.250   7.279 -0.4236  0.0481  1.2395
   77SLPC   H6Y 7029   4.237   1.371   7.252  2.5982 -1.6490 -1.8647
   77SLPC   C37 7030   4.223   1.277   7.455 -0.4303 -0.9570 -1.1586
   77SLPC   H7X 7031   4.232   1.177   7.503 -3.6440 -0.9994 -0.3765
   77SLPC   H7Y 7032   4.126   1.321   7.488  0.5703  1.5687 -1.3766
   77SLPC   C38 7033   4.345   1.356   7.511  0.0513  0.1594  0.1763
   77SLPC   H8X 7034   4.326   1.465   7.515 -0.7369  0.0237  0.3041
   77SLPC   H8Y 7035   4.432   1.328   7.448 -1.1914 -2.7094 -0.4377
   77SLPC   C39 7036   4.377   1.318   7.658 -0.4484  0.0044 -0.8362
   77SLPC   H9X 7037   4.470   1.374   7.680  0.1648 -1.1389 -0.4660
   77SLPC   H9Y 7038   4.395   1.209   7.660  1.6520  0.2237 -2.9118
   77SLPC  C310 7039   4.271   1.373   7.757 -0.4452  0.1203  0.7740
   77SLPC  H10X 7040   4.177   1.318   7.733 -0.1458 -0.4651  0.9298
   77SLPC  H10Y 7041   4.251   1.480   7.731  0.2705  0.4660  1.6113
   77SLPC  C311 7042   4.290   1.352   7.910 -0.0143  0.0913  0.5190
   77SLPC  H11X 7043   4.288   1.243   7.935 -0.1016 -0.0672 -0.1680
   77SLPC  H11Y 7044   4.201   1.400   7.957 -1.1053 -1.1620 -0.1644
   77SLPC  C312 7045   4.413   1.413   7.956  0.4526  0.5090  0.2275
   77SLPC  H12X 7046   4.425   1.514   7.911  0.6751 -0.5608 -2.2999
   77SLPC  H12Y 7047   4.497   1.344   7.934 -1.0247 -1.4024  0.3667
   77SLPC  C313 7048   4.419   1.432   8.117 -0.2709 -0.0385 -0.1392
   77SLPC  H13X 7049   4.387   1.343   8.176 -1.6548 -0.2640 -1.1859
   77SLPC  H13Y 7050   4.351   1.516   8.138 -0.5876 -0.3304  0.0114
   77SLPC  C314 7051   4.555   1.483   8.168  1.2345  0.3334  0.2446
   77SLPC  H14X 7052   4.595   1.549   8.088 -1.1149  1.9968  0.3459
   77SLPC  H14Y 7053   4.633   1.407   8.190  1.2192  0.9742  2.8031
   77SLPC  C315 7054   4.536   1.572   8.295  0.0530 -0.5915  0.6607
   77SLPC  H15X 7055   4.466   1.657   8.283  1.1904  0.3317  0.3014
   77SLPC  H15Y 7056   4.632   1.626   8.307  0.3505 -0.8898 -0.2819
   77SLPC  C316 7057   4.524   1.500   8.428  0.6745 -0.2183  0.3550
   77SLPC  H16X 7058   4.624   1.457   8.447  0.6660 -1.0328 -1.1857
   77SLPC  H16Y 7059   4.458   1.411   8.417 -2.4242  2.1119 -1.6142
   77SLPC  C317 7060   4.498   1.574   8.558 -0.1875 -0.3756 -0.0529
   77SLPC  H17X 7061   4.403   1.630   8.547 -0.2631 -0.0153  2.0234
   77SLPC  H17Y 7062   4.583   1.642   8.583 -0.1409 -0.3894 -0.1743
   77SLPC  C318 7063   4.480   1.489   8.686  0.6523  0.3200  0.0062
   77SLPC  H18X 7064   4.570   1.425   8.695  1.7408  1.8760  0.7523
   77SLPC  H18Y 7065   4.404   1.412   8.662  1.4297 -0.4639  0.0091
   77SLPC  H18Z 7066   4.469   1.546   8.780  0.0365  0.6793 -0.2761
   78SLPC     N 7067   5.448   3.093   5.962  0.2324 -0.3267 -0.3288
   78SLPC   C13 7068   5.537   2.976   5.957 -0.5502 -0.0599  0.5794
   78SLPC  H13A 7069   5.634   3.000   5.916 -0.9719 -0.5634 -0.7954
   78SLPC  H13B 7070   5.569   2.924   6.045 -0.7629 -2.1916 -0.5360
   78SLPC  H13C 7071   5.501   2.896   5.893  0.6262 -0.3745  0.2897
   78SLPC   C14 7072   5.412   3.133   5.824 -0.6075  0.6424 -0.2648
   78SLPC  H14A 7073   5.347   3.219   5.826 -0.7448  0.5272  1.0012
   78SLPC  H14B 7074   5.500   3.163   5.768  0.4146  1.2434  1.6002
   78SLPC  H14C 7075   5.366   3.051   5.771  0.4502 -0.6007  0.7064
   78SLPC   C15 7076   5.488   3.208   6.036  0.0995  0.3633  0.2159
   78SLPC  H15A 7077   5.409   3.281   6.052 -0.2769 -0.3729  1.9033
   78SLPC  H15B 7078   5.520   3.167   6.130 -1.3646 -1.5994 -0.0895
   78SLPC  H15C 7079   5.575   3.246   5.985 -0.3313  0.1835 -0.6653
   78SLPC   C12 7080   5.314   3.048   6.029 -0.4740  0.5057  0.2006
   78SLPC  H12A 7081   5.284   2.970   5.961 -1.3335  0.2746  0.8401
   78SLPC  H12B 7082   5.247   3.132   6.014  0.4153  1.3346  0.7368
   78SLPC   C11 7083   5.310   3.001   6.177 -0.7833 -0.0948 -0.6741
   78SLPC  H11A 7084   5.204   2.990   6.207 -0.0749 -3.0144  1.1649
   78SLPC  H11B 7085   5.367   3.074   6.239  0.0733 -2.1540  1.0845
   78SLPC     P 7086   5.298   2.742   6.153  0.0520  0.6099 -0.1739
   78SLPC   O13 7087   5.209   2.764   6.038 -0.4183  0.0067 -0.0928
   78SLPC   O14 7088   5.401   2.632   6.154  0.5768  0.8493 -0.4598
   78SLPC   O12 7089   5.371   2.879   6.201 -0.3558 -0.0539  0.3827
   78SLPC   O11 7090   5.204   2.719   6.279  0.5147 -0.2808  0.7955
   78SLPC    C1 7091   5.253   2.693   6.410  0.1634  0.3869 -0.0883
   78SLPC    HA 7092   5.334   2.617   6.407 -0.5212 -0.3296 -1.3489
   78SLPC    HB 7093   5.293   2.786   6.455  2.1479 -1.0805  1.3849
   78SLPC    C2 7094   5.142   2.630   6.507  0.6197  0.7742  0.5526
   78SLPC    HS 7095   5.078   2.718   6.532  1.2886  1.1118  1.1041
   78SLPC   O21 7096   5.209   2.562   6.619 -0.2685  0.3658 -0.1357
   78SLPC   C21 7097   5.177   2.616   6.739 -0.4261 -0.2946  0.1341
   78SLPC   O22 7098   5.095   2.707   6.755 -0.5674 -0.5177  0.1315
   78SLPC   C22 7099   5.274   2.565   6.848  0.9078  0.1988 -0.4702
   78SLPC   H2R 7100   5.229   2.467   6.876 -0.7536  1.5700  2.0546
   78SLPC   H2S 7101   5.371   2.561   6.794  1.1285 -0.4731 -0.0488
   78SLPC    C3 7102   5.059   2.524   6.425 -0.8438  0.0928  0.1880
   78SLPC    HX 7103   5.135   2.451   6.390 -0.8531  0.4874 -0.6757
   78SLPC    HY 7104   5.015   2.571   6.334 -1.3555 -1.8702 -0.6239
   78SLPC   O31 7105   4.955   2.465   6.503  0.5488  0.4051 -0.6470
   78SLPC   C31 7106   4.855   2.545   6.531  0.0590  0.4812  0.4499
   78SLPC   O32 7107   4.824   2.650   6.481  0.4257 -0.2324  0.0224
   78SLPC   C32 7108   4.770   2.483   6.645 -0.5022 -0.1268  0.0264
   78SLPC   H2X 7109   4.800   2.381   6.678 -1.3569  0.3417  2.5010
   78SLPC   H2Y 7110   4.670   2.491   6.598 -0.4977  2.3074  0.2835
   78SLPC   C23 7111   5.269   2.653   6.979 -0.0079 -0.6492 -0.4611
   78SLPC   H3R 7112   5.168   2.639   7.024  0.0383  0.5903  0.0465
   78SLPC   H3S 7113   5.283   2.761   6.961  1.6873 -0.6089  0.8553
   78SLPC   C24 7114   5.390   2.612   7.071  0.7035 -1.3805 -0.5861
   78SLPC   H4R 7115   5.476   2.635   7.006 -1.1930  0.9766 -2.4773
   78SLPC   H4S 7116   5.396   2.502   7.083 -0.7139 -1.6868 -2.3169
   78SLPC   C25 7117   5.404   2.682   7.211 -0.1714  0.4978  0.3126
   78SLPC   H5R 7118   5.301   2.686   7.254 -0.8791 -0.1602 -1.2344
   78SLPC   H5S 7119   5.432   2.785   7.178 -0.4018  0.7063  0.7556
   78SLPC   C26 7120   5.509   2.625   7.297 -0.3808 -0.6792  0.8395
   78SLPC   H6R 7121   5.609   2.605   7.253  0.2102 -1.4941  2.5082
   78SLPC   H6S 7122   5.470   2.524   7.321 -0.1254 -0.7817  0.8226
   78SLPC   C27 7123   5.538   2.703   7.432 -0.6527  0.3355  0.2649
   78SLPC   H7R 7124   5.442   2.727   7.483 -0.5270 -0.9467  1.1600
   78SLPC   H7S 7125   5.580   2.804   7.411 -0.2905  0.1269 -0.0140
   78SLPC   C28 7126   5.632   2.642   7.531  0.0311 -0.1919 -0.0536
   78SLPC   H8R 7127   5.614   2.533   7.543  0.0646 -0.1984 -0.0638
   78SLPC   H8S 7128   5.607   2.685   7.630  0.0829  0.1185 -0.1746
   78SLPC   C29 7129   5.781   2.648   7.494  0.7158 -0.7036 -0.8774
   78SLPC   H9R 7130   5.806   2.580   7.411 -0.3718 -0.7912 -1.1436
   78SLPC  C210 7131   5.868   2.731   7.556 -0.6590 -0.6738 -0.2456
   78SLPC  H10R 7132   5.972   2.718   7.523 -0.0557  1.2884  0.7459
   78SLPC  C211 7133   5.853   2.826   7.667 -0.1042 -0.2038 -1.1493
   78SLPC  H11R 7134   5.953   2.857   7.703 -0.2773  0.2945 -1.0893
   78SLPC  H11S 7135   5.816   2.775   7.758  1.0528  1.1120  0.1075
   78SLPC  C212 7136   5.763   2.942   7.634 -0.1827 -0.3012 -0.1377
   78SLPC  H12R 7137   5.811   3.017   7.571 -0.9659  1.0516  0.8311
   78SLPC  C213 7138   5.641   2.966   7.686  0.1216  0.2691  0.2784
   78SLPC  H13R 7139   5.595   3.059   7.650  0.2805  1.1813  2.2727
   78SLPC  C214 7140   5.565   2.893   7.795 -0.2464  0.3712 -0.3820
   78SLPC  H14R 7141   5.588   2.785   7.789  1.0605  0.6813 -1.7029
   78SLPC  H14S 7142   5.456   2.907   7.776 -0.3105 -1.1975 -1.4008
   78SLPC  C215 7143   5.590   2.921   7.949  0.1561 -0.1421  0.0068
   78SLPC  H15R 7144   5.521   2.850   7.999 -0.2441  0.6142  0.5507
   78SLPC  H15S 7145   5.556   3.025   7.969 -0.0133 -0.1797 -0.0869
   78SLPC  C216 7146   5.733   2.902   7.997  0.5203 -0.6654  0.0835
   78SLPC  H16R 7147   5.793   2.980   7.947  0.9742 -0.5545  0.7966
   78SLPC  H16S 7148   5.763   2.799   7.966  0.0359 -1.0002  0.6989
   78SLPC  C217 7149   5.744   2.915   8.150 -0.3497  0.0761 -1.0437
   78SLPC  H17R 7150   5.661   2.858   8.196  0.5020  0.4090  1.0268
   78SLPC  H17S 7151   5.741   3.023   8.179  1.6516  0.4217 -1.9308
   78SLPC  C218 7152   5.863   2.843   8.217  0.3519 -0.4205  0.0750
   78SLPC  H18R 7153   5.952   2.907   8.201 -2.0340  2.9726 -0.7218
   78SLPC  H18S 7154   5.869   2.738   8.183 -3.0557 -1.0196  0.9119
   78SLPC  H18T 7155   5.843   2.840   8.326 -2.3379  1.0508 -0.2839
   78SLPC   C33 7156   4.761   2.577   6.771 -0.2634 -0.3359  0.2033
   78SLPC   H3X 7157   4.690   2.662   6.759 -0.5180  0.1138  3.8991
   78SLPC   H3Y 7158   4.862   2.613   6.797 -0.9321  1.2234  0.8123
   78SLPC   C34 7159   4.710   2.499   6.893 -0.2312  0.4001  0.5392
   78SLPC   H4X 7160   4.745   2.394   6.894 -1.3293 -0.0228 -1.2709
   78SLPC   H4Y 7161   4.601   2.480   6.881 -0.1946  0.6950 -0.2646
   78SLPC   C35 7162   4.727   2.570   7.023 -0.6566  0.2120  0.0199
   78SLPC   H5X 7163   4.700   2.678   7.014 -2.0196 -0.0328  0.8620
   78SLPC   H5Y 7164   4.833   2.554   7.052 -0.7379 -1.4030 -0.5130
   78SLPC   C36 7165   4.635   2.514   7.129  0.0391  0.6251 -0.0078
   78SLPC   H6X 7166   4.673   2.429   7.189  1.1600  0.8229 -0.4066
   78SLPC   H6Y 7167   4.538   2.481   7.088  0.9124 -3.0752  0.5981
   78SLPC   C37 7168   4.612   2.621   7.243  0.6531  0.5518 -0.0793
   78SLPC   H7X 7169   4.518   2.583   7.289  0.6673 -0.4821 -0.8743
   78SLPC   H7Y 7170   4.601   2.725   7.206 -1.8815  0.5600  0.4786
   78SLPC   C38 7171   4.721   2.623   7.345 -0.4680 -0.1623 -0.5104
   78SLPC   H8X 7172   4.814   2.669   7.304  0.8031  1.4192  3.6081
   78SLPC   H8Y 7173   4.748   2.519   7.374 -1.6036 -0.6267 -1.0560
   78SLPC   C39 7174   4.670   2.677   7.482  0.4651 -0.1764  0.3767
   78SLPC   H9X 7175   4.575   2.628   7.513  0.6062 -0.7820 -0.1224
   78SLPC   H9Y 7176   4.653   2.785   7.463  4.2900  0.6605  0.9591
   78SLPC  C310 7177   4.757   2.669   7.604  0.3186 -0.3683 -0.4245
   78SLPC  H10X 7178   4.858   2.708   7.579  0.6054 -1.2328 -0.6381
   78SLPC  H10Y 7179   4.767   2.566   7.646 -0.2240 -0.3375 -0.2120
   78SLPC  C311 7180   4.683   2.758   7.713 -0.6672 -0.3435 -0.5650
   78SLPC  H11X 7181   4.587   2.709   7.741 -0.1746 -1.7156 -1.1799
   78SLPC  H11Y 7182   4.662   2.855   7.663 -3.6108 -0.9148 -0.6188
   78SLPC  C312 7183   4.762   2.762   7.845 -0.0854 -0.3700  0.0162
   78SLPC  H12X 7184   4.867   2.789   7.821 -0.6533  0.4569 -1.7432
   78SLPC  H12Y 7185   4.751   2.659   7.885  0.9021 -0.2813  0.5352
   78SLPC  C313 7186   4.702   2.856   7.936  0.9381  0.4064  0.3717
   78SLPC  H13X 7187   4.592   2.855   7.923  1.1176 -1.1696 -1.5209
   78SLPC  H13Y 7188   4.720   2.959   7.898  1.8700  0.4049  0.7692
   78SLPC  C314 7189   4.765   2.840   8.077  0.2520  0.1368  0.1918
   78SLPC  H14X 7190   4.875   2.828   8.072  0.3699  1.5051 -1.8108
   78SLPC  H14Y 7191   4.723   2.740   8.102  0.2436 -0.4451 -1.9292
   78SLPC  C315 7192   4.725   2.936   8.188 -0.0752 -0.1661 -0.0859
   78SLPC  H15X 7193   4.772   3.036   8.178 -0.3355 -0.1400 -1.1348
   78SLPC  H15Y 7194   4.767   2.891   8.280 -1.5740 -0.9195  0.2646
   78SLPC  C316 7195   4.569   2.957   8.201 -1.3447  0.5046 -0.2313
   78SLPC  H16X 7196   4.521   2.865   8.242 -1.0203 -0.4321 -1.9029
   78SLPC  H16Y 7197   4.518   2.969   8.103  0.4191  0.5597 -1.1630
   78SLPC  C317 7198   4.532   3.086   8.281  0.4804 -0.3184 -0.1377
   78SLPC  H17X 7199   4.423   3.098   8.264  0.7440  1.4297 -0.7185
   78SLPC  H17Y 7200   4.577   3.184   8.258 -0.5724  0.2201  0.0442
   78SLPC  C318 7201   4.551   3.065   8.434 -0.3876  0.7695 -0.2745
   78SLPC  H18X 7202   4.553   2.956   8.456  0.8448  0.3135 -2.3154
   78SLPC  H18Y 7203   4.485   3.117   8.506  1.4558  1.0569  1.2763
   78SLPC  H18Z 7204   4.653   3.104   8.456 -0.1589  0.5675 -0.9506
   79SLPC     N 7205   3.117   5.041   6.392  0.0038  0.1417  0.0567
   79SLPC   C13 7206   3.208   5.005   6.280  0.3208  0.6168  0.9734
   79SLPC  H13A 7207   3.264   4.916   6.306 -0.5802 -0.6819 -1.2694
   79SLPC  H13B 7208   3.144   4.977   6.197 -1.3085 -0.1863  2.4312
   79SLPC  H13C 7209   3.261   5.095   6.255 -0.7016  0.7202 -1.0180
   79SLPC   C14 7210   3.030   4.927   6.428  0.5982  0.4446 -1.1709
   79SLPC  H14A 7211   3.018   4.916   6.534  1.5233 -1.6990 -1.2319
   79SLPC  H14B 7212   2.936   4.935   6.375 -0.1611  0.5082  0.1563
   79SLPC  H14C 7213   3.068   4.828   6.407  2.1072  1.0616 -1.5382
   79SLPC   C15 7214   3.030   5.162   6.358  0.1949  0.0607  0.7906
   79SLPC  H15A 7215   2.944   5.167   6.423  1.2679  1.0717  2.2096
   79SLPC  H15B 7216   3.085   5.255   6.359 -2.6009  1.8504  1.0782
   79SLPC  H15C 7217   3.008   5.150   6.253  0.3233  2.2121  0.4601
   79SLPC   C12 7218   3.203   5.075   6.511  0.0086 -0.1592 -0.5398
   79SLPC  H12A 7219   3.145   5.124   6.588  0.6001 -0.0904 -0.1359
   79SLPC  H12B 7220   3.281   5.135   6.467  1.8249 -1.7890  0.3034
   79SLPC   C11 7221   3.288   4.969   6.580 -0.4322  0.0140  0.1293
   79SLPC  H11A 7222   3.236   4.881   6.624 -2.2615  0.9295 -0.1247
   79SLPC  H11B 7223   3.355   5.008   6.660 -0.5350 -2.7619  1.7247
   79SLPC     P 7224   3.474   4.811   6.500 -0.2325  0.2449  0.2949
   79SLPC   O13 7225   3.438   4.710   6.393 -0.1157  0.6996 -0.6072
   79SLPC   O14 7226   3.607   4.875   6.498  0.2952 -0.2524  0.3294
   79SLPC   O12 7227   3.375   4.929   6.475 -0.5245  0.4813  0.2424
   79SLPC   O11 7228   3.443   4.748   6.640  0.5928  0.1835 -0.4571
   79SLPC    C1 7229   3.352   4.638   6.658 -0.0143  0.7457  0.2819
   79SLPC    HA 7230   3.251   4.680   6.639 -0.6346 -0.8489 -0.0668
   79SLPC    HB 7231   3.366   4.562   6.578  0.4514 -0.2240  1.2520
   79SLPC    C2 7232   3.376   4.554   6.783  0.3194  0.1768 -0.7014
   79SLPC    HS 7233   3.309   4.466   6.768  1.5275 -0.7040 -1.0191
   79SLPC   O21 7234   3.351   4.633   6.904  0.4077  0.2300  0.2181
   79SLPC   C21 7235   3.227   4.670   6.932  0.1410 -0.1332  0.0584
   79SLPC   O22 7236   3.126   4.657   6.865 -0.0694 -0.3564 -0.0247
   79SLPC   C22 7237   3.224   4.741   7.072  0.6222 -0.4149  0.0654
   79SLPC   H2R 7238   3.295   4.677   7.129  0.0980 -0.8035  0.2887
   79SLPC   H2S 7239   3.268   4.843   7.064 -1.4031  0.4713 -0.1555
   79SLPC    C3 7240   3.521   4.487   6.795  0.1529 -0.6622 -0.2729
   79SLPC    HX 7241   3.586   4.574   6.817 -0.2602 -0.2766 -0.5662
   79SLPC    HY 7242   3.554   4.443   6.699 -0.8529  0.7484 -1.3057
   79SLPC   O31 7243   3.542   4.400   6.912 -0.0738  0.6337  0.4906
   79SLPC   C31 7244   3.482   4.276   6.908  0.7532 -0.2751 -0.2699
   79SLPC   O32 7245   3.422   4.236   6.809 -0.1887 -0.5176  0.2302
   79SLPC   C32 7246   3.500   4.193   7.030  0.2150 -0.2077  0.1627
   79SLPC   H2X 7247   3.544   4.258   7.109  0.3516  0.4938 -0.4796
   79SLPC   H2Y 7248   3.579   4.120   7.002  0.0346 -0.4318  0.2347
   79SLPC   C23 7249   3.089   4.736   7.134  0.4434  0.4278 -0.4004
   79SLPC   H3R 7250   3.047   4.634   7.122  0.7199 -0.2065  3.0054
   79SLPC   H3S 7251   3.026   4.814   7.086  1.4822  1.9298  0.5842
   79SLPC   C24 7252   3.089   4.765   7.283 -0.1066  1.2578  0.3633
   79SLPC   H4R 7253   3.175   4.704   7.317 -0.1293  0.0755 -1.5480
   79SLPC   H4S 7254   2.997   4.742   7.340 -0.8795  0.3075 -1.2079
   79SLPC   C25 7255   3.130   4.908   7.314  0.2137  0.3382  0.3534
   79SLPC   H5R 7256   3.051   4.974   7.273 -0.3592  0.2677  1.2959
   79SLPC   H5S 7257   3.224   4.938   7.263 -0.9131  2.2863 -0.6741
   79SLPC   C26 7258   3.143   4.924   7.469 -0.4120  0.5499  0.3274
   79SLPC   H6R 7259   3.237   4.881   7.509  0.4244  0.8311 -1.2187
   79SLPC   H6S 7260   3.062   4.867   7.518  0.5895 -1.7766 -0.6119
   79SLPC   C27 7261   3.149   5.073   7.510  0.4092 -0.3208 -0.7329
   79SLPC   H7R 7262   3.044   5.106   7.496  0.0086 -1.2559 -0.0088
   79SLPC   H7S 7263   3.213   5.136   7.445  1.9838 -0.6156  0.4713
   79SLPC   C28 7264   3.173   5.105   7.665  0.1468 -0.1333  0.6912
   79SLPC   H8R 7265   3.200   5.211   7.682 -0.2645  0.6628 -2.9932
   79SLPC   H8S 7266   3.255   5.040   7.702  0.6541 -0.2675 -0.6253
   79SLPC   C29 7267   3.049   5.064   7.743 -0.7410 -0.5118 -0.3055
   79SLPC   H9R 7268   2.982   5.011   7.674 -1.0443  0.3028 -0.6532
   79SLPC  C210 7269   3.023   5.101   7.876 -0.3007  0.3867  0.9771
   79SLPC  H10R 7270   2.921   5.083   7.912 -1.1036  2.3881 -0.1261
   79SLPC  C211 7271   3.096   5.197   7.965 -0.6698 -0.0977 -0.1749
   79SLPC  H11R 7272   3.034   5.278   8.007  1.2933  2.0830 -1.2232
   79SLPC  H11S 7273   3.162   5.260   7.901 -0.5051 -0.3095 -0.2165
   79SLPC  C212 7274   3.193   5.142   8.067  0.3060 -0.4222  0.2056
   79SLPC  H12R 7275   3.286   5.095   8.034  1.3217  1.0272  0.8822
   79SLPC  C213 7276   3.169   5.160   8.199  0.0245 -0.0743  0.7227
   79SLPC  H13R 7277   3.237   5.102   8.263 -1.4833 -3.1436 -0.2973
   79SLPC  C214 7278   3.053   5.226   8.261  0.3956  0.5052 -0.2066
   79SLPC  H14R 7279   2.965   5.159   8.273  0.5353  0.4752  0.7216
   79SLPC  H14S 7280   3.020   5.311   8.198  1.5606 -1.3805 -3.5712
   79SLPC  C215 7281   3.093   5.258   8.409  0.1166 -0.0995  0.9060
   79SLPC  H15R 7282   3.022   5.337   8.443  1.6810  2.7660 -1.9117
   79SLPC  H15S 7283   3.192   5.308   8.417 -0.5951  1.2346  1.8202
   79SLPC  C216 7284   3.091   5.138   8.506 -0.4120  0.1416  0.2179
   79SLPC  H16R 7285   3.169   5.064   8.476 -1.2566  0.0048 -1.8191
   79SLPC  H16S 7286   2.989   5.095   8.506 -0.4981  0.3468  0.5305
   79SLPC  C217 7287   3.124   5.166   8.650  0.1325 -0.4105  0.0863
   79SLPC  H17R 7288   3.112   5.066   8.698 -0.9062  0.6491  2.1926
   79SLPC  H17S 7289   3.055   5.240   8.696 -1.3695 -1.6002 -0.1634
   79SLPC  C218 7290   3.256   5.232   8.661 -0.0207 -0.3195 -0.4566
   79SLPC  H18R 7291   3.334   5.180   8.602 -0.2585  0.2280 -1.2646
   79SLPC  H18S 7292   3.288   5.237   8.768 -1.4707  0.2243 -0.0272
   79SLPC  H18T 7293   3.257   5.338   8.628 -0.0163 -0.0267  0.4412
   79SLPC   C33 7294   3.370   4.120   7.072 -0.4571 -0.9545  0.4841
   79SLPC   H3X 7295   3.397   4.045   7.150  0.5862  0.2351  1.2994
   79SLPC   H3Y 7296   3.336   4.064   6.982 -0.7383  1.2906 -0.8905
   79SLPC   C34 7297   3.249   4.213   7.105  0.0249  0.4200  0.4067
   79SLPC   H4X 7298   3.155   4.153   7.112 -0.7914  1.5366 -0.5219
   79SLPC   H4Y 7299   3.226   4.288   7.026  0.4426 -0.6950 -0.7900
   79SLPC   C35 7300   3.263   4.283   7.235  0.0507 -0.8212 -1.0776
   79SLPC   H5X 7301   3.364   4.329   7.236 -0.6103  0.7155 -1.9490
   79SLPC   H5Y 7302   3.267   4.205   7.314  1.3276 -0.2059 -0.5111
   79SLPC   C36 7303   3.153   4.388   7.258 -0.0805  0.1462  0.0229
   79SLPC   H6X 7304   3.056   4.344   7.227  0.1661 -1.1904  1.0415
   79SLPC   H6Y 7305   3.165   4.477   7.192 -1.0660  1.2024  1.2319
   79SLPC   C37 7306   3.145   4.433   7.404 -0.5905  0.1695 -0.2650
   79SLPC   H7X 7307   3.116   4.351   7.474  0.8625  1.4757  1.9925
   79SLPC   H7Y 7308   3.067   4.511   7.414  0.4800  1.2696 -0.2966
   79SLPC   C38 7309   3.279   4.481   7.457  0.2890 -0.2291  0.1524
   79SLPC   H8X 7310   3.326   4.563   7.399 -0.0995  1.0482  1.5721
   79SLPC   H8Y 7311   3.355   4.401   7.458  3.9669  2.9685  1.6233
   79SLPC   C39 7312   3.275   4.540   7.601  0.4209  0.0551  0.2991
   79SLPC   H9X 7313   3.192   4.613   7.592 -0.8231 -1.4342 -1.3067
   79SLPC   H9Y 7314   3.372   4.583   7.630 -0.4219  2.0743  0.2472
   79SLPC  C310 7315   3.256   4.426   7.698  0.1617  0.5775 -0.0347
   79SLPC  H10X 7316   3.341   4.354   7.693  0.5761  1.1074 -0.7917
   79SLPC  H10Y 7317   3.167   4.360   7.685  0.1891  0.5037  0.1354
   79SLPC  C311 7318   3.263   4.466   7.845  0.1273 -0.4125  0.4003
   79SLPC  H11X 7319   3.192   4.550   7.861 -0.5404 -0.7292 -0.7631
   79SLPC  H11Y 7320   3.366   4.501   7.867  0.1515  0.5097 -1.0276
   79SLPC  C312 7321   3.250   4.345   7.946 -0.3350  0.2583  0.4858
   79SLPC  H12X 7322   3.325   4.268   7.919 -1.1301 -1.1486  2.1090
   79SLPC  H12Y 7323   3.149   4.299   7.945 -0.3785  0.2210  2.6963
   79SLPC  C313 7324   3.275   4.398   8.085  0.4131  0.0591 -0.0782
   79SLPC  H13X 7325   3.373   4.448   8.094  0.6362 -0.6728  2.0144
   79SLPC  H13Y 7326   3.272   4.306   8.148  0.1421  0.9955  1.3165
   79SLPC  C314 7327   3.169   4.496   8.144  0.3748 -0.2871  0.0714
   79SLPC  H14X 7328   3.063   4.467   8.129  0.0197  0.4382  1.0881
   79SLPC  H14Y 7329   3.182   4.597   8.099 -1.2327  0.2129  0.6749
   79SLPC  C315 7330   3.196   4.504   8.295 -0.4059  0.0432  0.2149
   79SLPC  H15X 7331   3.303   4.522   8.317 -0.4946  2.8291 -1.1785
   79SLPC  H15Y 7332   3.159   4.407   8.336  0.2620  0.1590  1.1065
   79SLPC  C316 7333   3.108   4.615   8.358 -0.0095 -0.1140 -0.7083
   79SLPC  H16X 7334   3.002   4.595   8.332 -1.0513  2.5642  1.0699
   79SLPC  H16Y 7335   3.127   4.717   8.319  0.2697  0.7352  1.4724
   79SLPC  C317 7336   3.117   4.626   8.512 -0.3225  0.6384 -0.2609
   79SLPC  H17X 7337   3.221   4.662   8.530 -0.1112 -0.7831  1.6245
   79SLPC  H17Y 7338   3.114   4.523   8.552  3.1575  1.1190  1.6653
   79SLPC  C318 7339   3.015   4.711   8.577  0.1751 -0.0472 -0.2897
   79SLPC  H18X 7340   3.037   4.711   8.686 -1.1053  0.5907 -0.0162
   79SLPC  H18Y 7341   2.912   4.674   8.557  0.4065  0.8476 -3.6098
   79SLPC  H18Z 7342   3.016   4.813   8.534 -2.8314  0.2224  0.0858
   80SLPC     N 7343   4.220   3.612   5.964 -0.0401  0.0604 -0.5266
   80SLPC   C13 7344   4.208   3.760   5.954  0.4273 -0.1493 -0.8030
   80SLPC  H13A 7345   4.125   3.799   6.011 -0.6855 -3.3198 -0.0974
   80SLPC  H13B 7346   4.297   3.808   5.992  1.5569 -3.9263  1.9736
   80SLPC  H13C 7347   4.204   3.785   5.849  0.7003 -1.2979 -1.0920
   80SLPC   C14 7348   4.344   3.583   5.878  0.6630 -0.0841  0.2245
   80SLPC  H14A 7349   4.351   3.643   5.788  0.5071  0.6020  0.6590
   80SLPC  H14B 7350   4.438   3.612   5.923  1.2913  0.5872 -1.4542
   80SLPC  H14C 7351   4.345   3.477   5.859 -1.9102 -1.1957  4.7494
   80SLPC   C15 7352   4.094   3.556   5.916  0.0508  0.5867 -0.0629
   80SLPC  H15A 7353   4.018   3.602   5.977 -0.2454  2.4433 -1.7074
   80SLPC  H15B 7354   4.076   3.587   5.814  2.0911  1.5979 -0.1733
   80SLPC  H15C 7355   4.099   3.451   5.937 -0.6437  0.7956  1.2328
   80SLPC   C12 7356   4.246   3.566   6.103  0.2173  0.1011  0.0505
   80SLPC  H12A 7357   4.239   3.459   6.110  1.4138 -0.0176 -0.2267
   80SLPC  H12B 7358   4.158   3.605   6.152 -1.8000 -1.1544 -2.3312
   80SLPC   C11 7359   4.376   3.613   6.164 -0.2154  0.8670  0.2848
   80SLPC  H11A 7360   4.365   3.589   6.272  0.9667 -3.2699 -0.3361
   80SLPC  H11B 7361   4.387   3.723   6.149 -2.2987  1.2986  1.4935
   80SLPC     P 7362   4.633   3.584   6.169 -0.2350 -0.0484  0.1411
   80SLPC   O13 7363   4.735   3.485   6.142 -0.5751  0.3840 -0.7045
   80SLPC   O14 7364   4.656   3.721   6.122  0.1163 -0.5797  0.1666
   80SLPC   O12 7365   4.489   3.537   6.122  0.1046  0.3369  0.6304
   80SLPC   O11 7366   4.625   3.595   6.325  0.6592  0.7056 -0.8255
   80SLPC    C1 7367   4.739   3.599   6.409  0.2496 -0.3461  0.0114
   80SLPC    HA 7368   4.835   3.633   6.365 -0.2656  0.4139 -0.5429
   80SLPC    HB 7369   4.727   3.661   6.500  1.9800 -1.6574  1.2088
   80SLPC    C2 7370   4.773   3.458   6.460 -0.2899 -0.0166  0.0501
   80SLPC    HS 7371   4.769   3.390   6.372 -2.3937  0.7463 -0.5132
   80SLPC   O21 7372   4.684   3.422   6.563 -0.0875 -0.0711  0.2913
   80SLPC   C21 7373   4.575   3.362   6.519  0.2837  0.2545 -0.2835
   80SLPC   O22 7374   4.563   3.308   6.409  0.2331  0.1873  0.5168
   80SLPC   C22 7375   4.479   3.353   6.637  0.1723 -0.2632  0.1546
   80SLPC   H2R 7376   4.488   3.442   6.703 -0.8100 -0.5350  0.6663
   80SLPC   H2S 7377   4.373   3.338   6.609 -0.1367  0.8126  0.6894
   80SLPC    C3 7378   4.924   3.469   6.514 -0.4539 -0.8428 -0.6892
   80SLPC    HX 7379   4.980   3.476   6.418  0.4940  1.8965 -0.0364
   80SLPC    HY 7380   4.960   3.376   6.563  0.3184 -1.2353 -1.9449
   80SLPC   O31 7381   4.946   3.598   6.582 -0.8610 -0.3321  0.4504
   80SLPC   C31 7382   4.917   3.582   6.714 -0.3031  0.6060  0.6426
   80SLPC   O32 7383   4.897   3.476   6.775  0.4394 -0.0073 -0.3648
   80SLPC   C32 7384   4.888   3.723   6.773  0.2796 -0.0786 -0.2616
   80SLPC   H2X 7385   4.801   3.769   6.721 -0.8178  0.7415  2.1933
   80SLPC   H2Y 7386   4.975   3.789   6.753 -0.7732  1.2468 -0.6278
   80SLPC   C23 7387   4.522   3.241   6.737 -0.0059 -0.3520  0.3049
   80SLPC   H3R 7388   4.626   3.248   6.775 -0.2086 -1.2142  1.0617
   80SLPC   H3S 7389   4.518   3.147   6.678 -0.3256 -2.6617  3.7168
   80SLPC   C24 7390   4.425   3.225   6.857  0.0683  0.7850 -0.4270
   80SLPC   H4R 7391   4.325   3.193   6.821  0.0966  0.4323 -0.1987
   80SLPC   H4S 7392   4.425   3.316   6.920  0.3944 -1.4550  3.0973
   80SLPC   C25 7393   4.475   3.122   6.961  0.3498 -0.0893  0.3068
   80SLPC   H5R 7394   4.576   3.134   7.005  0.3709 -0.1446  0.2734
   80SLPC   H5S 7395   4.473   3.021   6.916  2.6130  0.5642 -1.4395
   80SLPC   C26 7396   4.378   3.118   7.082 -0.3841  0.2110  0.1160
   80SLPC   H6R 7397   4.276   3.092   7.046  0.2216 -3.1560  0.5261
   80SLPC   H6S 7398   4.389   3.217   7.132  2.9333  0.7773 -1.4358
   80SLPC   C27 7399   4.417   3.013   7.195 -0.2881  0.1170  0.5684
   80SLPC   H7R 7400   4.524   3.036   7.214  0.2056 -1.1276 -0.5759
   80SLPC   H7S 7401   4.410   2.912   7.149  0.0814  0.9143 -1.3594
   80SLPC   C28 7402   4.320   3.021   7.314 -0.3621  0.3552  0.0803
   80SLPC   H8R 7403   4.217   2.997   7.278  0.1396 -0.0767 -1.1371
   80SLPC   H8S 7404   4.318   3.124   7.354 -0.8493  0.3307  0.1230
   80SLPC   C29 7405   4.374   2.916   7.409 -0.3158  0.0163 -1.0920
   80SLPC   H9R 7406   4.426   2.827   7.371 -0.2734 -0.8314  0.8472
   80SLPC  C210 7407   4.351   2.922   7.541  0.5383  0.2789 -0.3270
   80SLPC  H10R 7408   4.383   2.842   7.610  1.0333 -0.2522 -1.1446
   80SLPC  C211 7409   4.288   3.027   7.617 -0.0522  0.3615  0.6867
   80SLPC  H11R 7410   4.178   3.014   7.612 -0.0280  0.1007  0.7975
   80SLPC  H11S 7411   4.308   3.124   7.568  0.3229  0.1441  0.3973
   80SLPC  C212 7412   4.332   3.056   7.755 -0.0711  0.3385 -0.4100
   80SLPC  H12R 7413   4.261   3.010   7.825 -0.9907 -1.4576 -2.3952
   80SLPC  C213 7414   4.437   3.137   7.794  0.5976  0.3524 -0.1276
   80SLPC  H13R 7415   4.456   3.157   7.901  1.1248 -0.0809 -0.1368
   80SLPC  C214 7416   4.531   3.207   7.703 -0.3298  0.1078  0.0615
   80SLPC  H14R 7417   4.486   3.295   7.653  0.9620  1.1455  0.6416
   80SLPC  H14S 7418   4.561   3.149   7.613 -0.6654  1.8366 -1.2154
   80SLPC  C215 7419   4.665   3.239   7.779 -0.5405  0.0108 -0.1341
   80SLPC  H15R 7420   4.736   3.293   7.713  1.2164  0.2294  1.8274
   80SLPC  H15S 7421   4.719   3.148   7.811 -0.0400 -0.2647 -1.6968
   80SLPC  C216 7422   4.638   3.342   7.893  0.0632  0.4982  0.1539
   80SLPC  H16R 7423   4.725   3.347   7.963  0.5119 -2.1313 -0.1120
   80SLPC  H16S 7424   4.555   3.316   7.961 -1.3057  1.7469 -0.9887
   80SLPC  C217 7425   4.610   3.481   7.844 -0.5871  0.1862  0.4858
   80SLPC  H17R 7426   4.508   3.481   7.799 -0.2225 -0.4823 -0.3773
   80SLPC  H17S 7427   4.681   3.505   7.762 -0.6102 -1.9849 -0.2176
   80SLPC  C218 7428   4.610   3.589   7.950  0.5412  0.6133 -0.0428
   80SLPC  H18R 7429   4.590   3.687   7.901 -2.7859 -1.1210 -2.5641
   80SLPC  H18S 7430   4.702   3.592   8.012  1.0906 -1.0650 -0.7306
   80SLPC  H18T 7431   4.528   3.561   8.019  1.0703 -0.2653  0.2390
   80SLPC   C33 7432   4.872   3.717   6.929 -0.0393 -0.2968  0.1630
   80SLPC   H3X 7433   4.781   3.661   6.960 -0.2961  0.0772  0.0868
   80SLPC   H3Y 7434   4.860   3.820   6.968  0.2236  0.7442 -2.3430
   80SLPC   C34 7435   5.005   3.673   7.001 -0.4930 -0.5130 -0.8557
   80SLPC   H4X 7436   5.085   3.746   6.975 -2.2081  0.7720 -2.8815
   80SLPC   H4Y 7437   5.036   3.573   6.965 -0.3492 -0.9994  0.5521
   80SLPC   C35 7438   4.993   3.675   7.151  0.3021 -1.0348 -0.3306
   80SLPC   H5X 7439   4.922   3.594   7.178  0.2256 -0.8100  0.1526
   80SLPC   H5Y 7440   4.947   3.770   7.186  2.1409 -1.1511  2.7633
   80SLPC   C36 7441   5.132   3.670   7.218  0.5752  0.0013  0.6646
   80SLPC   H6X 7442   5.184   3.768   7.213 -2.5388  1.7419 -0.3634
   80SLPC   H6Y 7443   5.186   3.589   7.165 -1.0621 -0.9707  0.4119
   80SLPC   C37 7444   5.129   3.616   7.358 -0.0260  0.2902  0.6903
   80SLPC   H7X 7445   5.080   3.516   7.358  0.3235  0.1133  0.1134
   80SLPC   H7Y 7446   5.067   3.682   7.423  0.0606 -1.5744  2.7700
   80SLPC   C38 7447   5.274   3.588   7.410 -0.0539 -0.0735 -0.2254
   80SLPC   H8X 7448   5.325   3.686   7.425  0.4001 -0.0999 -1.5435
   80SLPC   H8Y 7449   5.342   3.525   7.349  2.6291  1.6245  0.8044
   80SLPC   C39 7450   5.269   3.508   7.544 -0.9513 -0.5690 -0.2275
   80SLPC   H9X 7451   5.377   3.495   7.568 -0.4759 -2.2825 -2.8986
   80SLPC   H9Y 7452   5.240   3.404   7.522  0.5421 -0.6118 -2.2954
   80SLPC  C310 7453   5.189   3.585   7.649  0.2433 -0.1164  0.3345
   80SLPC  H10X 7454   5.080   3.563   7.647  0.2246 -0.5231  2.5701
   80SLPC  H10Y 7455   5.210   3.692   7.626  0.3669  0.0278  1.0973
   80SLPC  C311 7456   5.232   3.555   7.788 -0.5811  0.4058  0.2074
   80SLPC  H11X 7457   5.339   3.580   7.805 -0.4813 -0.4151  0.8414
   80SLPC  H11Y 7458   5.213   3.447   7.809 -2.2930  0.8490  1.1222
   80SLPC  C312 7459   5.152   3.616   7.896 -0.0719 -0.4002 -0.0294
   80SLPC  H12X 7460   5.045   3.603   7.870 -0.5059  2.8981 -0.3104
   80SLPC  H12Y 7461   5.164   3.726   7.904  1.9422 -0.6743  1.3520
   80SLPC  C313 7462   5.166   3.549   8.034 -0.3942 -0.5922  0.5044
   80SLPC  H13X 7463   5.145   3.441   8.019 -2.0662 -0.2744  0.4322
   80SLPC  H13Y 7464   5.086   3.582   8.103  0.4189  0.0441  1.1731
   80SLPC  C314 7465   5.306   3.582   8.095  0.1119 -0.0949 -0.7088
   80SLPC  H14X 7466   5.301   3.690   8.122  0.2279 -0.8867  3.0370
   80SLPC  H14Y 7467   5.378   3.565   8.012  1.0535 -0.3028  0.1175
   80SLPC  C315 7468   5.341   3.492   8.213 -0.2031 -0.5074 -0.4501
   80SLPC  H15X 7469   5.450   3.510   8.213 -0.3347  1.0559  2.9670
   80SLPC  H15Y 7470   5.317   3.385   8.193  0.2550 -0.7269  0.1562
   80SLPC  C316 7471   5.283   3.532   8.347 -0.3802  0.6469 -0.5589
   80SLPC  H16X 7472   5.173   3.543   8.342 -0.7272 -0.1378  2.7430
   80SLPC  H16Y 7473   5.314   3.632   8.385 -0.7911  0.2830  0.7953
   80SLPC  C317 7474   5.317   3.432   8.457  0.3005 -0.2892  0.2907
   80SLPC  H17X 7475   5.421   3.393   8.444 -0.1058 -1.6375  0.9363
   80SLPC  H17Y 7476   5.253   3.342   8.451 -0.2966  0.1847 -0.8881
   80SLPC  C318 7477   5.321   3.495   8.597  0.0862  0.5507 -0.0812
   80SLPC  H18X 7478   5.411   3.561   8.602  0.1707  0.4623 -0.3864
   80SLPC  H18Y 7479   5.339   3.408   8.664  0.7372 -0.5149 -1.5869
   80SLPC  H18Z 7480   5.234   3.561   8.619  0.2558  0.5988  0.4553
   81SAPS     N 7481   0.743   1.629  11.042  0.1830  0.1853 -0.4689
   81SAPS   HN1 7482   0.840   1.603  11.015 -0.2465 -1.2709 -0.6844
   81SAPS   HN2 7483   0.681   1.561  10.995 -1.0941  2.1237 -1.7586
   81SAPS   HN3 7484   0.720   1.727  11.014  0.8925 -0.0076 -1.8013
   81SAPS   C12 7485   0.756   1.617  11.194  0.3766  0.7458 -0.3332
   81SAPS  H12A 7486   0.656   1.628  11.234  0.2544 -2.7201  0.6582
   81SAPS   C13 7487   0.802   1.481  11.244  0.1377  0.7133 -0.2066
   81SAPS  O13A 7488   0.826   1.389  11.156  0.0875  0.3851 -0.5126
   81SAPS  O13B 7489   0.796   1.453  11.366  0.1384 -0.8950 -0.4215
   81SAPS   C11 7490   0.865   1.717  11.241 -0.1590  1.1970 -0.0250
   81SAPS  H11A 7491   0.908   1.701  11.342 -4.3461 -0.4752  1.7132
   81SAPS  H11B 7492   0.824   1.820  11.232  0.5989  1.3787 -2.0772
   81SAPS     P 7493   1.121   1.723  11.176  0.5470 -0.0777 -0.0422
   81SAPS   O13 7494   1.144   1.782  11.307  0.0871 -0.9643 -0.1080
   81SAPS   O14 7495   1.190   1.597  11.152 -0.0130  0.0434 -0.3031
   81SAPS   O12 7496   0.973   1.705  11.147 -0.0145  0.0852 -0.5719
   81SAPS   O11 7497   1.171   1.826  11.070 -0.2808 -0.5885  0.6673
   81SAPS    C1 7498   1.111   1.952  11.044 -0.5458 -0.6425 -0.1081
   81SAPS    HA 7499   1.051   1.993  11.129  0.1271  0.8205 -0.3013
   81SAPS    HB 7500   1.183   2.032  11.013  0.0472 -0.7480  0.9527
   81SAPS    C2 7501   1.001   1.947  10.923 -0.0106 -0.3562 -0.2799
   81SAPS    HS 7502   0.966   1.842  10.921 -1.2376  0.0308 -0.1324
   81SAPS   O21 7503   1.058   1.989  10.802  0.3595 -0.5484 -0.2649
   81SAPS   C21 7504   1.078   1.899  10.712 -0.4039 -0.2074  0.5266
   81SAPS   O22 7505   1.040   1.787  10.709 -0.2942  0.2608  0.3302
   81SAPS   C22 7506   1.141   1.971  10.584  0.5059  0.3269  0.1507
   81SAPS   H2R 7507   1.096   2.072  10.570  0.5598  0.2263 -0.8195
   81SAPS   H2S 7508   1.249   1.983  10.604  0.9093 -1.4701 -0.7746
   81SAPS    C3 7509   0.886   2.056  10.951  0.1098 -0.1356  0.2269
   81SAPS    HX 7510   0.932   2.155  10.971  0.7368 -0.2101 -0.7593
   81SAPS    HY 7511   0.841   2.024  11.047  0.6163  1.5884  1.0663
   81SAPS   O31 7512   0.805   2.064  10.841 -0.6836 -0.2807 -0.2958
   81SAPS   C31 7513   0.706   1.975  10.844  0.2762 -0.1693 -0.1912
   81SAPS   O32 7514   0.690   1.886  10.924 -0.5201 -0.4652 -0.3990
   81SAPS   C32 7515   0.616   2.009  10.724 -1.0059 -0.6869 -0.0523
   81SAPS   H2X 7516   0.590   2.115  10.743 -2.0719 -0.8823 -0.3296
   81SAPS   H2Y 7517   0.524   1.947  10.723 -1.3350 -0.2133 -1.3894
   81SAPS   C23 7518   1.129   1.889  10.459 -0.3511 -0.3931  0.3425
   81SAPS   H3R 7519   1.027   1.853  10.434 -0.9457  0.6895  1.0970
   81SAPS   H3S 7520   1.200   1.804  10.452  0.6352  0.0812  3.2916
   81SAPS   C24 7521   1.171   1.968  10.330  0.2961  0.5551  0.2869
   81SAPS   H4R 7522   1.271   2.010  10.353  1.7468 -2.7494  0.5448
   81SAPS   H4S 7523   1.088   2.034  10.296  0.4101  0.5517 -0.0005
   81SAPS   C25 7524   1.211   1.867  10.224  0.0751  0.4202 -0.2021
   81SAPS   H5R 7525   1.274   1.784  10.259 -2.0587 -1.1568  0.0950
   81SAPS   C26 7526   1.178   1.877  10.093  0.0507  0.3370  0.8113
   81SAPS   H6R 7527   1.218   1.802  10.023  0.9141  0.4408  1.1798
   81SAPS   C27 7528   1.091   1.981  10.025 -0.3565 -0.7116 -0.0735
   81SAPS   H7R 7529   1.071   2.062  10.098  1.6250 -1.2268  1.1399
   81SAPS   H7S 7530   0.990   1.943   9.999 -0.5916 -1.3373  1.6402
   81SAPS   C28 7531   1.160   2.038   9.895 -0.1234 -0.1823 -0.3128
   81SAPS   H8R 7532   1.206   2.138   9.897  0.0715 -0.2198 -1.7772
   81SAPS   C29 7533   1.150   1.976   9.776  0.3120  0.3333 -0.6315
   81SAPS   H9R 7534   1.208   2.016   9.692  0.4414 -3.5329 -2.5979
   81SAPS  C210 7535   1.079   1.850   9.735 -0.0346 -0.5521 -0.6312
   81SAPS  H10R 7536   1.071   1.782   9.823  3.2291  1.3505  1.3893
   81SAPS  H10S 7537   1.142   1.790   9.665  1.5968  1.7462 -1.2585
   81SAPS  C211 7538   0.943   1.882   9.676  0.1746 -0.3454 -0.0172
   81SAPS  H11R 7539   0.861   1.856   9.745  1.2108 -1.7544  0.7188
   81SAPS  C212 7540   0.911   1.937   9.563 -0.2246 -0.7126  0.4690
   81SAPS  H12R 7541   0.808   1.934   9.522 -0.1241  0.3440  0.0901
   81SAPS  C213 7542   1.021   1.967   9.454  0.6292  0.2702  0.1432
   81SAPS  H13R 7543   1.120   1.986   9.501  0.2767 -0.5330  1.2592
   81SAPS  H13S 7544   0.985   2.056   9.398  3.4412  0.9386 -0.7440
   81SAPS  C214 7545   1.035   1.850   9.357  0.2861  0.1751  0.8609
   81SAPS  H14R 7546   1.049   1.750   9.402  1.2001 -0.1726 -0.1500
   81SAPS  C215 7547   1.030   1.853   9.218  0.3501  0.5499  0.0952
   81SAPS  H15R 7548   1.053   1.760   9.164  2.2122  0.3710  1.1095
   81SAPS  C216 7549   1.009   1.974   9.127 -0.7269 -0.7875 -0.2937
   81SAPS  H16R 7550   1.049   2.067   9.172  0.7969 -0.5725 -1.9733
   81SAPS  H16S 7551   0.903   1.994   9.103 -0.7096  1.6489  1.2925
   81SAPS  C217 7552   1.092   1.949   8.995  0.2476 -0.1943 -0.3712
   81SAPS  H17R 7553   1.196   1.912   9.009  0.6221  0.6273 -0.8752
   81SAPS  H17S 7554   1.108   2.040   8.934  1.5047 -0.2350 -0.1221
   81SAPS  C218 7555   1.018   1.852   8.910 -1.0555  0.0617 -0.2730
   81SAPS  H18R 7556   0.936   1.904   8.857 -0.6440 -0.5319 -1.5321
   81SAPS  H18S 7557   0.968   1.770   8.966  1.7280 -1.1578  0.6239
   81SAPS  C219 7558   1.114   1.781   8.808  0.7247 -0.0279  0.8087
   81SAPS  H19R 7559   1.180   1.716   8.869  1.4917  0.4770  0.5258
   81SAPS  H19S 7560   1.154   1.864   8.746 -2.8269  0.9752 -0.3711
   81SAPS  C220 7561   1.035   1.701   8.715  0.3370  0.0788  0.1176
   81SAPS  H20R 7562   0.964   1.754   8.649 -1.9115  0.0876  2.4160
   81SAPS  H20S 7563   0.966   1.635   8.772 -0.4649  2.2779  1.8593
   81SAPS  H20T 7564   1.093   1.635   8.647 -0.7230 -1.0574  0.3002
   81SAPS   C33 7565   0.685   2.003  10.587 -0.3942 -0.2176  0.2871
   81SAPS   H3X 7566   0.713   1.896  10.577  1.9539  0.4355 -0.6381
   81SAPS   H3Y 7567   0.783   2.054  10.591 -0.5270  0.0038  0.8566
   81SAPS   C34 7568   0.601   2.055  10.472 -0.6917  0.2733 -0.3670
   81SAPS   H4X 7569   0.559   2.156  10.492 -0.7250  0.3720 -0.9202
   81SAPS   H4Y 7570   0.517   1.987  10.452 -1.9514  1.8472 -0.6368
   81SAPS   C35 7571   0.698   2.064  10.352  0.3088 -0.0761  0.5452
   81SAPS   H5X 7572   0.719   1.961  10.315  0.1854  0.2590 -0.4981
   81SAPS   H5Y 7573   0.800   2.090  10.388  0.2021  1.7316 -0.3463
   81SAPS   C36 7574   0.655   2.170  10.250 -0.1894  0.0536  0.8652
   81SAPS   H6X 7575   0.636   2.272  10.290 -2.3757 -0.4339  1.2011
   81SAPS   H6Y 7576   0.553   2.135  10.222  0.7592 -0.9955 -1.5831
   81SAPS   C37 7577   0.739   2.175  10.123 -0.6552 -0.9092  0.6465
   81SAPS   H7X 7578   0.690   2.099  10.058 -0.6496  0.8430 -1.5394
   81SAPS   H7Y 7579   0.846   2.147  10.131 -0.4000 -0.0297  0.3516
   81SAPS   C38 7580   0.725   2.313  10.052  0.5940 -0.5676 -0.2685
   81SAPS   H8X 7581   0.807   2.375  10.095  1.3165 -1.3706 -0.4353
   81SAPS   H8Y 7582   0.623   2.349  10.076  0.2126 -1.9254  0.2295
   81SAPS   C39 7583   0.737   2.306   9.894  0.2234 -0.2187 -0.1246
   81SAPS   H9X 7584   0.653   2.240   9.863 -1.0958  0.6567  1.4015
   81SAPS   H9Y 7585   0.838   2.269   9.868  0.0827 -0.2428 -0.6425
   81SAPS  C310 7586   0.717   2.437   9.823  0.4637  0.0367 -0.1369
   81SAPS  H10X 7587   0.812   2.493   9.834  0.4391 -0.0974  0.8031
   81SAPS  H10Y 7588   0.639   2.501   9.869  0.1359  0.6162 -1.4446
   81SAPS  C311 7589   0.687   2.406   9.671 -0.0434 -0.4618 -0.3594
   81SAPS  H11X 7590   0.584   2.366   9.661 -0.1282 -0.6337  0.9726
   81SAPS  H11Y 7591   0.761   2.337   9.626 -0.3927 -0.4497 -0.9568
   81SAPS  C312 7592   0.708   2.539   9.587  0.0612 -0.7109 -0.5994
   81SAPS  H12X 7593   0.806   2.584   9.612 -0.9392  0.2013  2.0503
   81SAPS  H12Y 7594   0.619   2.600   9.614 -0.6069 -2.7707  2.1965
   81SAPS  C313 7595   0.709   2.521   9.435  0.3260  0.2901 -0.3102
   81SAPS  H13X 7596   0.612   2.475   9.404  1.2703 -3.6486  1.9008
   81SAPS  H13Y 7597   0.786   2.444   9.409  2.1829  1.6236  1.0356
   81SAPS  C314 7598   0.719   2.659   9.371  0.7426  0.0699  0.0161
   81SAPS  H14X 7599   0.824   2.695   9.384  1.4114 -0.6485 -2.6691
   81SAPS  H14Y 7600   0.650   2.733   9.416  1.8887  1.3190 -0.2009
   81SAPS  C315 7601   0.689   2.655   9.220 -0.0023 -0.4897  0.1775
   81SAPS  H15X 7602   0.584   2.621   9.202 -0.6784  0.7041  1.6750
   81SAPS  H15Y 7603   0.758   2.588   9.165 -1.5176 -2.3680  0.4247
   81SAPS  C316 7604   0.685   2.795   9.153  0.5601 -0.0931 -0.2640
   81SAPS  H16X 7605   0.782   2.848   9.142 -1.2998  3.4608 -1.0271
   81SAPS  H16Y 7606   0.621   2.857   9.220 -0.7240 -1.4936 -0.1341
   81SAPS  C317 7607   0.621   2.791   9.014 -0.1792  0.2837 -0.5811
   81SAPS  H17X 7608   0.619   2.896   8.980  1.2071  0.1658 -1.0644
   81SAPS  H17Y 7609   0.516   2.754   9.017 -0.2688  0.4683 -1.2836
   81SAPS  C318 7610   0.697   2.706   8.906  0.1822  0.1610  0.7275
   81SAPS  H18X 7611   0.670   2.599   8.916 -0.7498  0.3146  0.0621
   81SAPS  H18Y 7612   0.803   2.720   8.936 -0.3769  1.2048  2.3844
   81SAPS  H18Z 7613   0.681   2.750   8.805  0.4544 -0.8088  0.2545
   82SAPS     N 7614   4.316   3.911  10.786 -0.0896 -0.4419  0.6102
   82SAPS   HN1 7615   4.329   3.845  10.706  2.3503  0.7835 -0.0926
   82SAPS   HN2 7616   4.223   3.957  10.777 -0.7280 -1.9220 -0.8402
   82SAPS   HN3 7617   4.385   3.987  10.772 -0.5388  0.0646  1.0847
   82SAPS   C12 7618   4.333   3.835  10.917  0.0868  0.4370 -0.5133
   82SAPS  H12A 7619   4.288   3.886  11.001  1.2879 -1.0931  1.1167
   82SAPS   C13 7620   4.258   3.694  10.912  0.1957 -0.4526  0.4220
   82SAPS  O13A 7621   4.222   3.653  10.797 -0.7153 -0.4679  0.3258
   82SAPS  O13B 7622   4.239   3.626  11.013  0.0889 -0.3064  0.0988
   82SAPS   C11 7623   4.489   3.812  10.949 -0.1784  0.3074 -0.1063
   82SAPS  H11A 7624   4.503   3.751  11.041  1.7061  1.5222  0.4648
   82SAPS  H11B 7625   4.515   3.918  10.969  1.2874  0.0846 -0.7323
   82SAPS     P 7626   4.710   3.804  10.794 -0.1455 -0.0178  0.2377
   82SAPS   O13 7627   4.730   3.955  10.799  0.1070 -0.0353  0.2841
   82SAPS   O14 7628   4.811   3.725  10.870 -0.7715  0.0632  0.4379
   82SAPS   O12 7629   4.565   3.746  10.850  0.2116  0.2230  0.1418
   82SAPS   O11 7630   4.704   3.751  10.641 -0.8171 -0.2319 -0.0828
   82SAPS    C1 7631   4.815   3.692  10.579 -0.8567 -0.6432  0.2247
   82SAPS    HA 7632   4.899   3.762  10.596 -1.2329  0.3256 -1.6590
   82SAPS    HB 7633   4.840   3.596  10.629  0.1330 -1.4879 -1.7780
   82SAPS    C2 7634   4.801   3.694  10.425 -0.4280  0.0415 -0.3023
   82SAPS    HS 7635   4.905   3.669  10.396  0.1716 -1.0625  2.4630
   82SAPS   O21 7636   4.753   3.821  10.391 -0.1611 -0.5344 -0.5119
   82SAPS   C21 7637   4.847   3.907  10.360  0.0111  0.1907 -0.4677
   82SAPS   O22 7638   4.966   3.890  10.383  0.3640  0.0171 -0.1449
   82SAPS   C22 7639   4.788   4.041  10.319 -0.2607 -0.0194  0.5981
   82SAPS   H2R 7640   4.688   4.046  10.366  0.1324  0.1407  1.4344
   82SAPS   H2S 7641   4.864   4.118  10.344  2.5048 -2.0736 -0.9444
   82SAPS    C3 7642   4.704   3.587  10.377 -0.1035 -0.4374  0.4565
   82SAPS    HX 7643   4.599   3.619  10.389  0.1905  0.1911  1.5190
   82SAPS    HY 7644   4.724   3.491  10.429  0.7713 -0.2366  0.5173
   82SAPS   O31 7645   4.735   3.566  10.239  0.5724 -0.1084  0.1739
   82SAPS   C31 7646   4.660   3.623  10.146  0.6868 -0.7223 -0.2088
   82SAPS   O32 7647   4.575   3.715  10.165  0.2056  0.5994 -0.3803
   82SAPS   C32 7648   4.705   3.576  10.007  1.0339  0.3223 -0.4099
   82SAPS   H2X 7649   4.626   3.511   9.965  0.0659  1.0173  0.2872
   82SAPS   H2Y 7650   4.807   3.533  10.017  1.3953  1.1618 -0.3301
   82SAPS   C23 7651   4.784   4.049  10.158  0.2849  0.2764 -0.8012
   82SAPS   H3R 7652   4.729   3.963  10.116 -0.8511 -0.5712  2.1860
   82SAPS   H3S 7653   4.887   4.034  10.119  0.2393  0.6003 -1.0474
   82SAPS   C24 7654   4.741   4.189  10.121 -0.5237  0.1472 -0.3828
   82SAPS   H4R 7655   4.762   4.200  10.012  0.8071 -0.2929 -0.1883
   82SAPS   H4S 7656   4.805   4.268  10.167 -0.2560 -0.0966 -0.3347
   82SAPS   C25 7657   4.593   4.202  10.149  0.5997 -0.2645 -0.1306
   82SAPS   H5R 7658   4.569   4.233  10.252 -0.5271 -0.5558 -0.2954
   82SAPS   C26 7659   4.500   4.182  10.058 -0.3387  0.0264  0.0490
   82SAPS   H6R 7660   4.395   4.205  10.084 -0.7850 -0.7166 -1.0198
   82SAPS   C27 7661   4.522   4.143   9.907 -0.7169 -0.6102 -0.0516
   82SAPS   H7R 7662   4.630   4.124   9.885 -0.1647  1.1516  0.9487
   82SAPS   H7S 7663   4.472   4.223   9.847  0.4918  0.7323  0.6769
   82SAPS   C28 7664   4.463   4.010   9.885 -0.2979 -0.2720 -0.5378
   82SAPS   H8R 7665   4.486   3.935   9.962  0.1403  0.8292  0.4157
   82SAPS   C29 7666   4.401   3.961   9.778 -0.5340 -0.4782  0.3545
   82SAPS   H9R 7667   4.361   3.858   9.781 -1.1927 -0.3333 -2.0415
   82SAPS  C210 7668   4.395   4.034   9.650 -0.0701 -0.2119 -0.5142
   82SAPS  H10R 7669   4.436   4.137   9.649  0.4763 -0.4202 -1.4845
   82SAPS  H10S 7670   4.291   4.056   9.619  1.0514  0.7409 -4.1206
   82SAPS  C211 7671   4.475   3.959   9.541  0.6472  0.0602 -0.3952
   82SAPS  H11R 7672   4.575   3.917   9.560  1.0066  0.5238 -1.1855
   82SAPS  C212 7673   4.431   3.932   9.417 -0.0544  0.0477 -0.2201
   82SAPS  H12R 7674   4.506   3.890   9.348  1.6086  1.7085  0.5093
   82SAPS  C213 7675   4.295   3.970   9.361  0.6014 -0.1161  0.3273
   82SAPS  H13R 7676   4.221   3.945   9.440  1.7344  1.0539  1.8271
   82SAPS  H13S 7677   4.273   3.902   9.276  0.3335  0.3624  0.0055
   82SAPS  C214 7678   4.255   4.109   9.311 -0.3921 -0.2949  0.4592
   82SAPS  H14R 7679   4.221   4.179   9.390  2.0104  0.8881  0.5574
   82SAPS  C215 7680   4.280   4.160   9.188  0.0144 -0.2899  0.5085
   82SAPS  H15R 7681   4.260   4.268   9.173 -0.0309 -0.4052 -0.3218
   82SAPS  C216 7682   4.344   4.077   9.072  0.5119  0.1334 -0.7452
   82SAPS  H16R 7683   4.273   4.073   8.987  0.2394 -2.9959 -0.4963
   82SAPS  H16S 7684   4.344   3.968   9.095 -0.9598  0.6316  2.0930
   82SAPS  C217 7685   4.479   4.125   9.017  0.2544  0.0092  0.9354
   82SAPS  H17R 7686   4.558   4.088   9.086  0.8433  0.8984  0.7417
   82SAPS  H17S 7687   4.488   4.235   9.017 -1.4998  0.1785  1.2026
   82SAPS  C218 7688   4.517   4.068   8.877 -0.2715  0.3958 -0.4529
   82SAPS  H18R 7689   4.513   3.958   8.885  0.2743  0.2999 -1.4004
   82SAPS  H18S 7690   4.619   4.098   8.847 -0.8278  3.7990  0.6021
   82SAPS  C219 7691   4.439   4.121   8.752  0.4720  0.2100  0.0390
   82SAPS  H19R 7692   4.358   4.045   8.743  1.3267 -0.9249  1.3593
   82SAPS  H19S 7693   4.497   4.094   8.662  2.5329 -0.1155  1.4026
   82SAPS  C220 7694   4.384   4.266   8.755  0.8968  0.2334  0.3884
   82SAPS  H20R 7695   4.323   4.295   8.666 -1.6638  1.2189  2.3178
   82SAPS  H20S 7696   4.457   4.347   8.773  0.8404 -0.0625  2.0853
   82SAPS  H20T 7697   4.319   4.273   8.845  0.4330 -0.0584  0.0791
   82SAPS   C33 7698   4.727   3.690   9.903 -0.3078  0.2212 -0.1662
   82SAPS   H3X 7699   4.815   3.754   9.926  0.0293 -0.6583  1.1265
   82SAPS   H3Y 7700   4.640   3.759   9.909  0.1582  0.8738 -0.8117
   82SAPS   C34 7701   4.747   3.640   9.756 -0.3937 -0.0172  0.4345
   82SAPS   H4X 7702   4.652   3.604   9.711  0.7631 -1.3944 -1.0602
   82SAPS   H4Y 7703   4.814   3.553   9.740  1.1381  1.2266 -0.2013
   82SAPS   C35 7704   4.798   3.753   9.663 -0.0940 -0.1172 -0.5657
   82SAPS   H5X 7705   4.899   3.783   9.701 -0.6471 -0.5244  1.3498
   82SAPS   H5Y 7706   4.734   3.844   9.659  0.0764 -0.0291 -1.2947
   82SAPS   C36 7707   4.801   3.709   9.518 -1.0243 -0.3766  0.6664
   82SAPS   H6X 7708   4.707   3.657   9.493 -0.4217 -0.0669 -2.6154
   82SAPS   H6Y 7709   4.875   3.628   9.502  0.2243  0.8690 -0.1282
   82SAPS   C37 7710   4.815   3.829   9.413  0.3605 -0.2080  0.6073
   82SAPS   H7X 7711   4.916   3.869   9.438 -1.2504  2.1125  4.3608
   82SAPS   H7Y 7712   4.746   3.906   9.454 -1.0547 -1.9515  1.6688
   82SAPS   C38 7713   4.783   3.798   9.262 -0.0260  0.3117  0.5533
   82SAPS   H8X 7714   4.769   3.898   9.216 -0.8799  0.0439  0.2012
   82SAPS   H8Y 7715   4.680   3.755   9.257  0.2622 -0.2253 -1.7634
   82SAPS   C39 7716   4.868   3.691   9.200  0.5537 -0.1167 -0.6856
   82SAPS   H9X 7717   4.854   3.594   9.254  0.4611 -0.2885 -1.0170
   82SAPS   H9Y 7718   4.976   3.714   9.210 -0.0825  2.4897  1.1801
   82SAPS  C310 7719   4.821   3.668   9.054 -0.2211  0.1610 -0.1548
   82SAPS  H10X 7720   4.714   3.641   9.054 -0.3142  0.4256  1.3446
   82SAPS  H10Y 7721   4.876   3.578   9.017 -1.6493 -2.6855  3.8741
   82SAPS  C311 7722   4.843   3.792   8.956  0.9806 -0.0709  0.1220
   82SAPS  H11X 7723   4.953   3.810   8.959  0.8855  1.7225 -3.2113
   82SAPS  H11Y 7724   4.798   3.882   9.004 -0.6087 -2.5020  3.5857
   82SAPS  C312 7725   4.783   3.776   8.819 -0.5154  0.5498 -0.0887
   82SAPS  H12X 7726   4.675   3.800   8.805 -0.6258 -0.1289 -0.4706
   82SAPS  H12Y 7727   4.792   3.672   8.782  1.5318 -0.0045  1.7737
   82SAPS  C313 7728   4.857   3.860   8.717  0.4849 -0.1996 -0.0727
   82SAPS  H13X 7729   4.954   3.888   8.763 -0.5087 -0.2121  2.1469
   82SAPS  H13Y 7730   4.809   3.957   8.692  0.8032  0.7301  2.5861
   82SAPS  C314 7731   4.880   3.773   8.588 -0.5121 -0.1342 -0.0793
   82SAPS  H14X 7732   4.778   3.745   8.555  0.0628 -2.4306 -0.0746
   82SAPS  H14Y 7733   4.945   3.685   8.606  0.5941  0.5055 -0.8234
   82SAPS  C315 7734   4.934   3.862   8.475  0.9211  0.3079 -0.3431
   82SAPS  H15X 7735   5.015   3.924   8.520  0.5676 -0.5433  1.5391
   82SAPS  H15Y 7736   4.854   3.926   8.431  1.2316 -0.8122 -2.7278
   82SAPS  C316 7737   4.991   3.788   8.357 -0.0754  0.3429 -0.5535
   82SAPS  H16X 7738   4.906   3.733   8.312  0.9504 -2.0487  0.2596
   82SAPS  H16Y 7739   5.061   3.711   8.394  1.2252  0.7588 -2.0327
   82SAPS  C317 7740   5.056   3.866   8.252 -0.1466 -0.6809  0.0371
   82SAPS  H17X 7741   5.095   3.796   8.175  0.1169  0.8612 -1.2982
   82SAPS  H17Y 7742   5.137   3.926   8.298 -0.7483  1.5234 -1.5933
   82SAPS  C318 7743   4.974   3.974   8.175  0.4301 -0.0271 -0.2318
   82SAPS  H18X 7744   4.885   3.938   8.120 -1.3673  0.9289  1.8465
   82SAPS  H18Y 7745   5.048   4.028   8.113  0.5711  0.5172  0.3911
   82SAPS  H18Z 7746   4.936   4.058   8.238 -0.6232  1.1338 -2.3341
   83SAPS     N 7747   0.832   2.650  11.232 -0.6612 -0.2213 -0.0886
   83SAPS   HN1 7748   0.747   2.616  11.281 -0.3608 -0.2802  0.3934
   83SAPS   HN2 7749   0.804   2.675  11.135 -0.3781 -0.0938 -0.1383
   83SAPS   HN3 7750   0.909   2.581  11.232 -0.9693 -0.6422 -2.4690
   83SAPS   C12 7751   0.876   2.765  11.307 -0.1716 -0.2851  0.6623
   83SAPS  H12A 7752   0.798   2.839  11.292 -0.1498 -0.2066  0.9235
   83SAPS   C13 7753   0.909   2.747  11.461  0.2284  0.1018 -0.4800
   83SAPS  O13A 7754   0.902   2.638  11.520  0.2293  0.8006  0.2572
   83SAPS  O13B 7755   0.948   2.848  11.522 -0.2171  0.0762  0.0082
   83SAPS   C11 7756   1.011   2.811  11.243 -0.1830  0.6177 -0.0691
   83SAPS  H11A 7757   1.089   2.733  11.254  0.2004  1.0488  0.3137
   83SAPS  H11B 7758   1.053   2.894  11.304 -1.6084 -1.0735  3.5216
   83SAPS     P 7759   1.002   2.989  11.053  0.6680  0.1369  0.1836
   83SAPS   O13 7760   0.952   3.083  11.152  0.0943 -0.9159  0.7319
   83SAPS   O14 7761   1.139   3.000  11.002 -0.5020 -0.8451 -0.5084
   83SAPS   O12 7762   0.987   2.839  11.104  0.0248  0.2507 -0.0194
   83SAPS   O11 7763   0.907   2.993  10.929  0.0928  0.1821 -0.5390
   83SAPS    C1 7764   0.926   2.880  10.833  0.6549 -0.4588  0.0796
   83SAPS    HA 7765   0.985   2.795  10.872 -0.0284 -2.4873 -2.9957
   83SAPS    HB 7766   0.826   2.839  10.807  0.1657  0.4060  0.5128
   83SAPS    C2 7767   0.995   2.926  10.701 -0.3178  0.2914 -0.3699
   83SAPS    HS 7768   1.084   2.984  10.732 -0.3647 -1.1816  2.9279
   83SAPS   O21 7769   0.899   2.997  10.626  0.3424  0.2692  0.1508
   83SAPS   C21 7770   0.943   3.095  10.544  0.6065  0.8000 -0.4931
   83SAPS   O22 7771   1.060   3.131  10.540  0.7474  0.8569 -0.2705
   83SAPS   C22 7772   0.824   3.151  10.472  0.8400  0.3173  1.0216
   83SAPS   H2R 7773   0.759   3.200  10.548 -3.3791 -0.0303 -2.0426
   83SAPS   H2S 7774   0.859   3.225  10.396 -2.2019  0.1382 -0.7208
   83SAPS    C3 7775   1.039   2.797  10.623  0.2805  0.2885 -0.5717
   83SAPS    HX 7776   0.949   2.733  10.620  0.1673  0.0438  3.3593
   83SAPS    HY 7777   1.114   2.739  10.681  0.4280  1.6903  0.7121
   83SAPS   O31 7778   1.094   2.826  10.492 -0.1767 -0.1521  0.2363
   83SAPS   C31 7779   1.228   2.857  10.483  0.0723  0.3032 -0.3320
   83SAPS   O32 7780   1.304   2.870  10.579 -0.3704  0.2372 -0.2751
   83SAPS   C32 7781   1.258   2.866  10.336  0.5610 -0.0394  0.0352
   83SAPS   H2X 7782   1.222   2.773  10.288 -1.5897  0.2797  0.9318
   83SAPS   H2Y 7783   1.368   2.874  10.322  0.2165  0.2792 -3.5157
   83SAPS   C23 7784   0.748   3.044  10.391 -0.1798 -0.4274  0.1334
   83SAPS   H3R 7785   0.686   2.983  10.460 -1.5347 -0.0355 -0.6938
   83SAPS   H3S 7786   0.829   2.986  10.341 -1.1346 -0.1896 -1.7760
   83SAPS   C24 7787   0.635   3.100  10.292 -0.4426 -0.8019 -0.3470
   83SAPS   H4R 7788   0.602   3.018  10.225  0.0363 -1.4620  0.2088
   83SAPS   H4S 7789   0.686   3.171  10.223  0.0910  0.1298  0.9553
   83SAPS   C25 7790   0.521   3.167  10.374 -0.1739  0.0841 -0.3989
   83SAPS   H5R 7791   0.552   3.246  10.444  1.3337 -2.9354  2.6263
   83SAPS   C26 7792   0.391   3.138  10.361  0.3026 -0.8484 -0.4647
   83SAPS   H6R 7793   0.319   3.187  10.428  0.0810 -0.7561 -0.7676
   83SAPS   C27 7794   0.329   3.030  10.273 -0.2804  0.2920  1.0245
   83SAPS   H7R 7795   0.283   2.944  10.327 -0.9473  0.3249  0.5151
   83SAPS   H7S 7796   0.406   2.976  10.212 -2.6407  0.1967 -2.1323
   83SAPS   C28 7797   0.224   3.088  10.179 -0.6426  0.3711 -0.5046
   83SAPS   H8R 7798   0.134   3.132  10.225  0.4094  1.0356  0.9916
   83SAPS   C29 7799   0.237   3.106  10.049 -0.3500 -0.6053 -0.0055
   83SAPS   H9R 7800   0.152   3.145   9.991 -0.6104  0.9084  1.3308
   83SAPS  C210 7801   0.361   3.068   9.971 -0.3325 -0.4505  0.0180
   83SAPS  H10R 7802   0.331   3.062   9.864  1.2681  2.1494 -0.6749
   83SAPS  H10S 7803   0.403   2.967   9.992  0.7140 -0.0057  0.1237
   83SAPS  C211 7804   0.468   3.174   9.987 -0.1081  0.1244  0.0706
   83SAPS  H11R 7805   0.530   3.155  10.076 -0.9730 -1.9529  0.3102
   83SAPS  C212 7806   0.495   3.272   9.899 -0.1527 -0.0747 -0.0837
   83SAPS  H12R 7807   0.578   3.339   9.927  0.2925 -0.9373  0.7264
   83SAPS  C213 7808   0.425   3.290   9.768 -0.6058  1.0901 -0.1320
   83SAPS  H13R 7809   0.426   3.396   9.736 -1.2804  0.7324 -1.3994
   83SAPS  H13S 7810   0.318   3.262   9.776  0.4435 -4.5086 -1.3206
   83SAPS  C214 7811   0.485   3.204   9.658  0.2855 -0.5900  0.5956
   83SAPS  H14R 7812   0.579   3.151   9.680  0.0456 -1.2283  0.1293
   83SAPS  C215 7813   0.416   3.180   9.546 -0.0396 -0.2022  0.0117
   83SAPS  H15R 7814   0.454   3.102   9.479  0.9331  0.7872 -0.6340
   83SAPS  C216 7815   0.281   3.240   9.520  0.8086 -0.3233  0.1945
   83SAPS  H16R 7816   0.269   3.347   9.548  0.0789 -0.8484  2.0611
   83SAPS  H16S 7817   0.193   3.187   9.562 -0.6393 -0.2056 -2.4515
   83SAPS  C217 7818   0.256   3.234   9.364 -0.4668  0.0231  0.1271
   83SAPS  H17R 7819   0.151   3.257   9.335 -0.8990 -2.0373 -0.1046
   83SAPS  H17S 7820   0.271   3.132   9.322 -0.6701  0.0141  0.0754
   83SAPS  C218 7821   0.354   3.326   9.284 -0.4649  0.2659 -0.6609
   83SAPS  H18R 7822   0.459   3.298   9.309 -0.6738 -0.1465 -0.2382
   83SAPS  H18S 7823   0.327   3.430   9.312 -0.0100  0.7371 -1.8699
   83SAPS  C219 7824   0.335   3.319   9.130 -0.2106  0.9410 -0.0475
   83SAPS  H19R 7825   0.405   3.391   9.083  2.7325 -0.9183  1.2594
   83SAPS  H19S 7826   0.225   3.332   9.117 -0.6476 -0.8231  1.3470
   83SAPS  C220 7827   0.380   3.188   9.074 -0.4188  0.9577  0.0888
   83SAPS  H20R 7828   0.486   3.165   9.098 -0.3703  1.3842  0.2902
   83SAPS  H20S 7829   0.365   3.195   8.964  0.2428 -1.3573 -0.1876
   83SAPS  H20T 7830   0.312   3.109   9.110 -2.5884  2.0748 -1.3263
   83SAPS   C33 7831   1.193   2.992  10.267 -0.4271  1.2425  0.1085
   83SAPS   H3X 7832   1.250   3.083  10.294  1.3957 -0.1201  0.9995
   83SAPS   H3Y 7833   1.087   2.996  10.301 -0.7180 -0.1717 -0.5503
   83SAPS   C34 7834   1.173   2.967  10.119 -0.7777  0.3407  0.6217
   83SAPS   H4X 7835   1.115   3.055  10.082 -1.0545 -0.4964 -1.0106
   83SAPS   H4Y 7836   1.109   2.882  10.089 -0.0903 -0.4734  1.4239
   83SAPS   C35 7837   1.304   2.969  10.037 -0.1386 -0.4171 -0.1888
   83SAPS   H5X 7838   1.361   2.877  10.063  1.8759  1.1906  1.5550
   83SAPS   H5Y 7839   1.367   3.057  10.063  3.2056 -2.3784 -1.0184
   83SAPS   C36 7840   1.288   2.962   9.885  0.2430  0.5651 -0.0647
   83SAPS   H6X 7841   1.269   3.067   9.853  1.2328  0.6567 -0.3982
   83SAPS   H6Y 7842   1.195   2.905   9.864  0.0313  0.8281  0.1521
   83SAPS   C37 7843   1.395   2.889   9.811  0.0331  0.2202 -0.4298
   83SAPS   H7X 7844   1.401   2.781   9.836  1.2180  0.7815  2.0498
   83SAPS   H7Y 7845   1.496   2.930   9.837 -0.2376  1.2810 -0.9846
   83SAPS   C38 7846   1.376   2.913   9.663 -0.2408 -0.3389  0.3066
   83SAPS   H8X 7847   1.471   2.878   9.617  1.0172  2.3382  0.6711
   83SAPS   H8Y 7848   1.364   3.022   9.644 -1.4472 -0.7657 -1.7561
   83SAPS   C39 7849   1.252   2.856   9.588  0.0903  0.8531 -0.1252
   83SAPS   H9X 7850   1.163   2.904   9.634 -2.2239 -2.1545 -1.1105
   83SAPS   H9Y 7851   1.249   2.747   9.608 -3.2561  0.3860 -2.4230
   83SAPS  C310 7852   1.266   2.873   9.439 -0.0550 -0.1776 -0.3371
   83SAPS  H10X 7853   1.358   2.817   9.410 -1.4748 -2.0283 -1.5112
   83SAPS  H10Y 7854   1.270   2.982   9.418 -2.4513  0.1137  0.4363
   83SAPS  C311 7855   1.156   2.815   9.357  0.2391 -0.2270 -0.9720
   83SAPS  H11X 7856   1.060   2.824   9.412  1.2189 -4.1309  1.7945
   83SAPS  H11Y 7857   1.180   2.707   9.345  0.7453 -0.2180 -0.1434
   83SAPS  C312 7858   1.149   2.875   9.219 -0.3242 -0.1973 -0.1322
   83SAPS  H12X 7859   1.118   2.982   9.226 -0.5507 -0.3562  2.1234
   83SAPS  H12Y 7860   1.077   2.823   9.152  1.5526 -0.8002 -1.7555
   83SAPS  C313 7861   1.278   2.878   9.125 -0.7383  0.2172  0.6450
   83SAPS  H13X 7862   1.363   2.910   9.188 -0.7521  0.7242  0.4049
   83SAPS  H13Y 7863   1.276   2.928   9.026 -1.0549 -1.6953 -0.3845
   83SAPS  C314 7864   1.306   2.736   9.078  0.4203 -0.2312  0.1751
   83SAPS  H14X 7865   1.327   2.668   9.163  1.5059 -0.1183  0.0117
   83SAPS  H14Y 7866   1.401   2.746   9.020  0.1892  2.1486  0.0966
   83SAPS  C315 7867   1.206   2.673   8.992 -0.1350 -0.2769  0.4607
   83SAPS  H15X 7868   1.156   2.760   8.945 -2.1639 -0.3052  2.4089
   83SAPS  H15Y 7869   1.137   2.610   9.051  0.2230 -0.1982  0.9778
   83SAPS  C316 7870   1.268   2.599   8.870 -0.0880  0.6845 -0.2986
   83SAPS  H16X 7871   1.352   2.657   8.829  0.1455  1.7030  1.5174
   83SAPS  H16Y 7872   1.187   2.598   8.793 -1.1674  3.5286  0.6754
   83SAPS  C317 7873   1.300   2.454   8.908  0.6349  0.2554 -0.1628
   83SAPS  H17X 7874   1.367   2.448   8.996  1.8457  0.5135 -1.0370
   83SAPS  H17Y 7875   1.357   2.399   8.831  1.6128  1.0688 -0.0419
   83SAPS  C318 7876   1.174   2.382   8.942  0.4044 -0.3944 -0.0465
   83SAPS  H18X 7877   1.192   2.273   8.950 -1.2629 -0.6220  1.0693
   83SAPS  H18Y 7878   1.102   2.394   8.858  0.2845 -1.1862 -0.0650
   83SAPS  H18Z 7879   1.130   2.417   9.037 -0.0613 -2.1566  0.4268
   84SAPS     N 7880   2.690   2.197  11.256 -0.0882  1.0259 -0.4325
   84SAPS   HN1 7881   2.660   2.101  11.283 -0.1893  0.5638 -2.0935
   84SAPS   HN2 7882   2.707   2.189  11.154 -0.8142  1.2759 -0.5792
   84SAPS   HN3 7883   2.783   2.208  11.302  0.1239  1.9236 -1.0558
   84SAPS   C12 7884   2.591   2.285  11.319 -0.3768  0.3884 -0.6451
   84SAPS  H12A 7885   2.492   2.244  11.309 -0.2540 -1.0114  2.5380
   84SAPS   C13 7886   2.607   2.297  11.474 -0.0466 -0.4201  0.5609
   84SAPS  O13A 7887   2.712   2.253  11.522 -0.0877 -0.1871 -0.0987
   84SAPS  O13B 7888   2.517   2.362  11.535 -0.0141 -0.2848 -0.1719
   84SAPS   C11 7889   2.617   2.427  11.258  0.2050 -0.1989 -0.1057
   84SAPS  H11A 7890   2.708   2.472  11.303  0.0896 -0.1232  0.0521
   84SAPS  H11B 7891   2.537   2.496  11.292  0.7907  1.2673 -1.5769
   84SAPS     P 7892   2.694   2.548  11.042 -0.0757  0.4352  0.2405
   84SAPS   O13 7893   2.806   2.577  11.133  0.2987  0.5029 -0.0361
   84SAPS   O14 7894   2.728   2.513  10.902  0.4376 -0.0791  0.4621
   84SAPS   O12 7895   2.622   2.429  11.111 -0.0285  0.8624 -0.6700
   84SAPS   O11 7896   2.588   2.665  11.046  0.2238  0.8529 -0.0829
   84SAPS    C1 7897   2.467   2.662  10.970 -0.3090 -0.4262 -0.4136
   84SAPS    HA 7898   2.438   2.562  10.931 -0.5856 -0.3806 -0.3253
   84SAPS    HB 7899   2.387   2.694  11.040  1.2943 -0.0119  1.2885
   84SAPS    C2 7900   2.470   2.774  10.858 -0.6886  0.6965 -0.3840
   84SAPS    HS 7901   2.369   2.782  10.815 -1.0734 -0.8404  0.1412
   84SAPS   O21 7902   2.562   2.740  10.751 -0.0191 -0.3127 -0.2486
   84SAPS   C21 7903   2.522   2.634  10.678  0.3769  0.0900 -0.5246
   84SAPS   O22 7904   2.409   2.593  10.682  0.0743  0.0229 -0.4534
   84SAPS   C22 7905   2.632   2.585  10.580 -0.1797  0.1792 -0.2026
   84SAPS   H2R 7906   2.718   2.656  10.584  1.5614 -1.6638 -2.1430
   84SAPS   H2S 7907   2.660   2.480  10.601  0.0129  0.1767 -0.4656
   84SAPS    C3 7908   2.510   2.907  10.911 -0.2373 -0.8534  0.4996
   84SAPS    HX 7909   2.620   2.916  10.914 -0.0979 -1.5990 -1.2248
   84SAPS    HY 7910   2.468   2.915  11.013 -0.1688  1.2356  0.4120
   84SAPS   O31 7911   2.452   3.016  10.842 -0.0467 -0.2157 -0.0642
   84SAPS   C31 7912   2.518   3.137  10.810 -0.3592  0.3086 -0.8819
   84SAPS   O32 7913   2.640   3.146  10.811  0.1475  0.0779 -0.7048
   84SAPS   C32 7914   2.426   3.254  10.779 -0.8142 -0.1463 -0.6188
   84SAPS   H2X 7915   2.478   3.351  10.796 -0.6306 -0.0609 -1.6010
   84SAPS   H2Y 7916   2.339   3.255  10.848  0.4681  0.4647  1.0606
   84SAPS   C23 7917   2.581   2.586  10.427  0.4171  0.2154  0.4290
   84SAPS   H3R 7918   2.516   2.675  10.414 -0.8580 -0.8987 -1.1680
   84SAPS   H3S 7919   2.509   2.502  10.430  0.6978 -0.0728 -0.6804
   84SAPS   C24 7920   2.681   2.555  10.323 -0.1496  0.6116  0.1403
   84SAPS   H4R 7921   2.782   2.586  10.356  0.5691 -1.4051 -0.0396
   84SAPS   H4S 7922   2.655   2.595  10.222  1.8756  1.6304 -0.0353
   84SAPS   C25 7923   2.685   2.405  10.310  0.2512  0.4057 -0.1390
   84SAPS   H5R 7924   2.678   2.343  10.401 -2.4937 -1.0597 -1.2396
   84SAPS   C26 7925   2.684   2.335  10.198  0.0620 -0.4518  0.2616
   84SAPS   H6R 7926   2.682   2.225  10.199  2.8981 -0.5711  1.0368
   84SAPS   C27 7927   2.694   2.394  10.065  0.8753 -1.0762  0.1620
   84SAPS   H7R 7928   2.772   2.340  10.007  2.5939  1.3196  0.0700
   84SAPS   H7S 7929   2.739   2.496  10.067  1.9710 -1.4791 -1.5911
   84SAPS   C28 7930   2.568   2.400   9.984  0.0702 -0.8080  0.3195
   84SAPS   H8R 7931   2.475   2.383  10.040 -0.4558  1.1571  0.1116
   84SAPS   C29 7932   2.560   2.433   9.852  0.0795 -0.0805  0.0044
   84SAPS   H9R 7933   2.459   2.431   9.808  0.3857  3.2529 -1.1082
   84SAPS  C210 7934   2.674   2.459   9.760 -0.1172  0.1542  0.0687
   84SAPS  H10R 7935   2.757   2.396   9.798 -0.3717 -0.7436 -0.8208
   84SAPS  H10S 7936   2.718   2.561   9.762  3.0663 -0.9586 -2.6842
   84SAPS  C211 7937   2.636   2.429   9.619  0.4951 -0.0603  0.4009
   84SAPS  H11R 7938   2.536   2.464   9.590  0.7589  0.6533  0.3462
   84SAPS  C212 7939   2.712   2.385   9.521 -0.2969 -0.0028 -0.4204
   84SAPS  H12R 7940   2.666   2.393   9.422 -3.1927  2.5594  0.9310
   84SAPS  C213 7941   2.860   2.351   9.520  0.1102 -0.2288  0.1361
   84SAPS  H13R 7942   2.881   2.253   9.472  4.0992  0.8239 -0.6236
   84SAPS  H13S 7943   2.893   2.340   9.625  1.0884 -0.9128 -0.2229
   84SAPS  C214 7944   2.946   2.462   9.470 -0.2671  0.8450 -0.0368
   84SAPS  H14R 7945   2.961   2.551   9.532  1.3267  0.3215  0.3556
   84SAPS  C215 7946   3.014   2.441   9.355  0.0451  0.2932 -0.2808
   84SAPS  H15R 7947   3.084   2.520   9.323 -0.5708  1.4358  1.0921
   84SAPS  C216 7948   3.004   2.316   9.265 -0.5924  0.3414  0.2392
   84SAPS  H16R 7949   2.906   2.264   9.273 -0.0462 -0.9204 -0.9210
   84SAPS  H16S 7950   3.076   2.239   9.301 -0.4762  0.9871  1.4630
   84SAPS  C217 7951   3.022   2.341   9.112 -0.5176 -0.0557  0.6030
   84SAPS  H17R 7952   3.120   2.385   9.083  0.0396 -0.7956  1.2896
   84SAPS  H17S 7953   2.943   2.412   9.082 -0.3239  0.5899  1.5604
   84SAPS  C218 7954   3.002   2.208   9.035 -0.2885  0.4855  0.0563
   84SAPS  H18R 7955   2.970   2.229   8.930 -0.6358 -3.0564 -0.6841
   84SAPS  H18S 7956   2.922   2.147   9.081  1.1212 -1.3548  0.1760
   84SAPS  C219 7957   3.126   2.121   9.034  0.0689  0.7184 -0.0369
   84SAPS  H19R 7958   3.102   2.020   8.994  1.9892  0.4356 -0.5699
   84SAPS  H19S 7959   3.169   2.109   9.136  0.4554 -0.6767 -0.3450
   84SAPS  C220 7960   3.235   2.173   8.944  0.1717  0.6503 -0.7525
   84SAPS  H20R 7961   3.181   2.197   8.850 -2.7223 -0.1276  0.6022
   84SAPS  H20S 7962   3.314   2.099   8.917  0.5417  0.8234 -0.1685
   84SAPS  H20T 7963   3.275   2.270   8.980  0.2897 -0.7820  3.5704
   84SAPS   C33 7964   2.386   3.256  10.633 -0.9255  0.0100 -0.7276
   84SAPS   H3X 7965   2.364   3.150  10.608 -2.7331 -0.0937  1.0427
   84SAPS   H3Y 7966   2.470   3.294  10.571  0.8254 -0.5795  1.1788
   84SAPS   C34 7967   2.248   3.325  10.623  0.2490 -0.7176 -0.4079
   84SAPS   H4X 7968   2.276   3.430  10.646 -0.7443 -0.3341 -0.8825
   84SAPS   H4Y 7969   2.176   3.283  10.696 -0.0182  1.3569  0.6040
   84SAPS   C35 7970   2.177   3.312  10.480  0.4850 -0.1549 -0.4227
   84SAPS   H5X 7971   2.079   3.365  10.480  0.7206  0.6425 -4.3137
   84SAPS   H5Y 7972   2.137   3.209  10.469  1.1274 -0.8640  2.8948
   84SAPS   C36 7973   2.260   3.368  10.358 -0.1223  0.6538 -1.0326
   84SAPS   H6X 7974   2.359   3.321  10.372 -0.4899  0.7086  2.9220
   84SAPS   H6Y 7975   2.284   3.475  10.378  0.1671  0.1955  1.3985
   84SAPS   C37 7976   2.220   3.346  10.214  0.0483  0.8609 -1.2378
   84SAPS   H7X 7977   2.299   3.377  10.142  1.4472  0.1792 -0.0469
   84SAPS   H7Y 7978   2.127   3.400  10.188  0.3849  1.1606 -1.8490
   84SAPS   C38 7979   2.195   3.198  10.196 -0.4029  0.0847  0.6418
   84SAPS   H8X 7980   2.118   3.166  10.270 -0.7205 -0.6043  0.0279
   84SAPS   H8Y 7981   2.293   3.149  10.214  1.4398  3.6282  1.1303
   84SAPS   C39 7982   2.133   3.169  10.055 -0.0539 -0.6830 -0.2726
   84SAPS   H9X 7983   2.074   3.257  10.024  1.8292  0.7715  0.1030
   84SAPS   H9Y 7984   2.061   3.085  10.049 -5.0840  3.1206  0.4746
   84SAPS  C310 7985   2.243   3.152   9.953 -0.5177 -0.0156  0.1455
   84SAPS  H10X 7986   2.290   3.055   9.981 -1.3346 -0.3605  0.3600
   84SAPS  H10Y 7987   2.318   3.233   9.960  0.2894 -0.5974 -1.2362
   84SAPS  C311 7988   2.192   3.134   9.808 -0.2490 -0.4437  0.0748
   84SAPS  H11X 7989   2.196   3.234   9.760  1.0456 -0.2403  0.5710
   84SAPS  H11Y 7990   2.082   3.119   9.808 -0.7841  2.5231 -1.9997
   84SAPS  C312 7991   2.264   3.023   9.732 -0.1977 -0.4093 -0.4180
   84SAPS  H12X 7992   2.266   2.927   9.787  2.2471  0.4837  1.2454
   84SAPS  H12Y 7993   2.371   3.052   9.722 -0.4646  0.4759 -0.8237
   84SAPS  C313 7994   2.189   3.003   9.597 -0.8131  0.4806 -0.0903
   84SAPS  H13X 7995   2.166   3.104   9.555  0.2581  0.5742 -0.4636
   84SAPS  H13Y 7996   2.091   2.951   9.607 -0.0145 -1.0567 -0.0796
   84SAPS  C314 7997   2.266   2.933   9.485 -0.2209 -0.1490  0.0075
   84SAPS  H14X 7998   2.318   2.843   9.524  0.9105  0.7016  0.4851
   84SAPS  H14Y 7999   2.339   3.003   9.440 -1.9760  1.4002 -0.5634
   84SAPS  C315 8000   2.160   2.901   9.385 -0.0896 -0.0429  0.9110
   84SAPS  H15X 8001   2.088   2.984   9.371  1.1078  0.8444 -0.2156
   84SAPS  H15Y 8002   2.097   2.815   9.415 -0.8515  0.5445  1.0386
   84SAPS  C316 8003   2.226   2.861   9.252 -0.2117  0.3781  0.2656
   84SAPS  H16X 8004   2.303   2.783   9.268 -0.7436 -0.1805  0.1173
   84SAPS  H16Y 8005   2.276   2.954   9.216  1.8476 -0.3826  0.9664
   84SAPS  C317 8006   2.121   2.810   9.161 -0.4499  0.1529  0.4587
   84SAPS  H17X 8007   2.042   2.887   9.145 -0.7551 -0.3485 -0.5315
   84SAPS  H17Y 8008   2.059   2.728   9.203  2.4992 -1.0231  2.8596
   84SAPS  C318 8009   2.172   2.767   9.020 -0.2496  0.1822 -0.3901
   84SAPS  H18X 8010   2.230   2.674   9.041 -0.0478  0.1272 -1.1782
   84SAPS  H18Y 8011   2.239   2.852   8.995  1.4007 -1.0102 -0.2250
   84SAPS  H18Z 8012   2.089   2.730   8.957  0.3206 -1.9128  0.0019
   85SAPS     N 8013   6.171   5.434  11.150  0.2731 -0.4409 -0.2467
   85SAPS   HN1 8014   6.122   5.448  11.060  0.7726 -0.0214 -0.4609
   85SAPS   HN2 8015   6.203   5.335  11.144 -1.3102 -1.0099  0.3169
   85SAPS   HN3 8016   6.101   5.435  11.226 -0.0677 -4.1391 -0.3523
   85SAPS   C12 8017   6.287   5.530  11.166  0.2044 -0.9299 -0.6633
   85SAPS  H12A 8018   6.256   5.633  11.168  2.7557 -0.0900  0.9226
   85SAPS   C13 8019   6.373   5.509  11.292  0.2640 -0.5774  0.3178
   85SAPS  O13A 8020   6.335   5.425  11.376 -0.3416 -1.3116  0.3763
   85SAPS  O13B 8021   6.479   5.583  11.308  0.0857  0.5858 -0.6020
   85SAPS   C11 8022   6.388   5.509  11.048 -0.2449  0.1325  0.4426
   85SAPS  H11A 8023   6.476   5.576  11.063  0.9156 -0.5339 -2.6695
   85SAPS  H11B 8024   6.338   5.542  10.954  2.1528  0.8098 -0.6720
   85SAPS     P 8025   6.518   5.329  10.923  0.0632  0.0089 -0.1665
   85SAPS   O13 8026   6.652   5.373  10.946 -0.4794 -0.4044  0.0385
   85SAPS   O14 8027   6.492   5.186  10.902 -0.7609  0.3764  0.1836
   85SAPS   O12 8028   6.433   5.374  11.047  0.2985 -0.0959 -0.1663
   85SAPS   O11 8029   6.465   5.411  10.796 -0.1373 -0.7131 -0.2801
   85SAPS    C1 8030   6.345   5.374  10.730  0.0228  0.5017  0.9293
   85SAPS    HA 8031   6.275   5.321  10.798  0.4716  2.0462  2.6984
   85SAPS    HB 8032   6.304   5.475  10.710  1.6296  1.1726  0.8979
   85SAPS    C2 8033   6.377   5.282  10.604 -0.5293 -0.3298 -0.0427
   85SAPS    HS 8034   6.428   5.195  10.651 -0.9898  0.1993  1.5147
   85SAPS   O21 8035   6.463   5.348  10.508  0.4855  0.4401  0.1239
   85SAPS   C21 8036   6.591   5.359  10.529  0.3345  0.5973  0.1640
   85SAPS   O22 8037   6.662   5.297  10.605  0.3486  0.1787  0.3584
   85SAPS   C22 8038   6.645   5.465  10.440 -0.1968  0.0811  0.5306
   85SAPS   H2R 8039   6.583   5.465  10.348 -0.8113  0.1498  0.9403
   85SAPS   H2S 8040   6.635   5.565  10.487  0.4661  0.6029 -0.4162
   85SAPS    C3 8041   6.241   5.237  10.532  0.7778  0.1074  0.0397
   85SAPS    HX 8042   6.178   5.327  10.517 -1.5882 -1.2259  1.3441
   85SAPS    HY 8043   6.180   5.167  10.594  0.2053 -0.0074 -0.6368
   85SAPS   O31 8044   6.259   5.177  10.399  0.3919  0.6164 -0.2727
   85SAPS   C31 8045   6.310   5.054  10.381 -0.1726  0.5486 -0.6988
   85SAPS   O32 8046   6.349   4.977  10.471  0.3103  0.2809 -0.0922
   85SAPS   C32 8047   6.322   5.025  10.229  0.5904 -0.0935 -0.1427
   85SAPS   H2X 8048   6.221   5.043  10.186  0.2599 -0.0353  0.6443
   85SAPS   H2Y 8049   6.343   4.917  10.210 -1.0365 -0.3992 -0.3227
   85SAPS   C23 8050   6.798   5.450  10.396 -0.3054 -0.2899  0.4292
   85SAPS   H3R 8051   6.814   5.365  10.327  1.8163 -0.1312  0.6528
   85SAPS   H3S 8052   6.865   5.438  10.484 -0.4888 -2.0193  0.3642
   85SAPS   C24 8053   6.838   5.574  10.323 -1.2941 -0.3320  0.7829
   85SAPS   H4R 8054   6.834   5.661  10.392 -1.8694  0.3734 -0.1221
   85SAPS   H4S 8055   6.766   5.606  10.244  1.5822  1.3189 -1.3557
   85SAPS   C25 8056   6.979   5.569  10.278 -0.4696  0.0478 -0.1253
   85SAPS   H5R 8057   7.052   5.587  10.358 -0.6505  5.0413 -0.7537
   85SAPS   C26 8058   7.036   5.569  10.155 -0.5577 -0.2726  0.3710
   85SAPS   H6R 8059   7.146   5.576  10.163 -0.7483  0.9806  2.3642
   85SAPS   C27 8060   6.959   5.561  10.028  0.0409  0.5843  0.6676
   85SAPS   H7R 8061   6.853   5.530  10.039 -0.4495 -0.0962 -4.0643
   85SAPS   H7S 8062   7.000   5.469   9.983  0.6762  0.8586  0.6703
   85SAPS   C28 8063   6.969   5.672   9.929 -0.2385 -0.0546 -0.1239
   85SAPS   H8R 8064   6.961   5.769   9.980  1.5402  1.4011 -2.4341
   85SAPS   C29 8065   6.994   5.669   9.800  1.2098  0.0386 -0.3144
   85SAPS   H9R 8066   6.994   5.769   9.755  0.8567  1.6248  2.9244
   85SAPS  C210 8067   7.028   5.553   9.709  0.1910  1.0077 -0.4311
   85SAPS  H10R 8068   7.108   5.495   9.759 -1.1371 -0.2837  0.2633
   85SAPS  H10S 8069   7.069   5.596   9.615 -0.9825 -0.1085 -1.4979
   85SAPS  C211 8070   6.914   5.465   9.677  0.5518  0.2787 -0.5893
   85SAPS  H11R 8071   6.848   5.440   9.762  3.5417 -0.5366  1.6831
   85SAPS  C212 8072   6.881   5.419   9.558  0.3428  0.3828 -0.0849
   85SAPS  H12R 8073   6.786   5.364   9.552  0.5253  0.0464  0.0974
   85SAPS  C213 8074   6.950   5.435   9.421 -0.2323 -0.0312  0.1987
   85SAPS  H13R 8075   7.051   5.391   9.434  0.5818  0.5435 -3.1654
   85SAPS  H13S 8076   6.960   5.545   9.407  0.8293 -0.2717 -1.0653
   85SAPS  C214 8077   6.879   5.378   9.299 -0.5356 -0.1644 -0.0969
   85SAPS  H14R 8078   6.906   5.274   9.276  3.1797  0.7161 -0.2485
   85SAPS  C215 8079   6.792   5.441   9.222 -0.3161 -0.4128  0.3086
   85SAPS  H15R 8080   6.765   5.381   9.134  0.1973 -0.8775  0.4603
   85SAPS  C216 8081   6.743   5.588   9.226 -0.0158  0.0565 -0.5401
   85SAPS  H16R 8082   6.827   5.655   9.254 -0.4652  0.6974 -0.7290
   85SAPS  H16S 8083   6.663   5.600   9.302  1.0092 -0.1648  0.6246
   85SAPS  C217 8084   6.685   5.640   9.098 -0.4144 -0.3315  0.7703
   85SAPS  H17R 8085   6.654   5.744   9.124 -0.5446 -0.1757  0.0325
   85SAPS  H17S 8086   6.594   5.580   9.075 -0.0437 -0.3613 -0.7501
   85SAPS  C218 8087   6.770   5.653   8.972  0.8508 -0.6160  0.6689
   85SAPS  H18R 8088   6.795   5.550   8.938 -0.2861 -1.0300  1.0510
   85SAPS  H18S 8089   6.864   5.698   9.010 -0.1370  1.2476  0.9762
   85SAPS  C219 8090   6.728   5.739   8.848 -0.2366  0.4222  0.0911
   85SAPS  H19R 8091   6.709   5.841   8.888  0.1726  0.2327  0.7735
   85SAPS  H19S 8092   6.641   5.694   8.797  1.3079 -1.1255 -1.3291
   85SAPS  C220 8093   6.842   5.763   8.742 -0.0053  0.4361 -0.7994
   85SAPS  H20R 8094   6.873   5.664   8.703 -1.2125 -0.3838  0.1983
   85SAPS  H20S 8095   6.934   5.812   8.780 -0.0316 -1.0341  1.3568
   85SAPS  H20T 8096   6.802   5.808   8.649  1.3532  3.0494 -0.2317
   85SAPS   C33 8097   6.430   5.105  10.152 -0.1628 -0.0156 -0.3002
   85SAPS   H3X 8098   6.410   5.214  10.157  1.4235  0.2959 -0.4221
   85SAPS   H3Y 8099   6.426   5.077  10.045 -1.5522  0.5490 -0.4169
   85SAPS   C34 8100   6.574   5.079  10.199 -0.1059 -0.1266 -0.1082
   85SAPS   H4X 8101   6.574   4.976  10.240 -3.1859 -0.3252 -0.3165
   85SAPS   H4Y 8102   6.583   5.149  10.285 -1.6448  2.7435 -2.1269
   85SAPS   C35 8103   6.684   5.111  10.094  0.3665  0.2458  0.2575
   85SAPS   H5X 8104   6.667   5.219  10.077 -1.0516 -0.1694 -1.3249
   85SAPS   H5Y 8105   6.675   5.070   9.991  1.4494  1.2455 -0.2452
   85SAPS   C36 8106   6.820   5.069  10.154 -0.3433  0.3850  0.1912
   85SAPS   H6X 8107   6.811   4.973  10.209  0.4898  0.2016  0.0130
   85SAPS   H6Y 8108   6.852   5.144  10.229  0.6016  0.7017 -0.5078
   85SAPS   C37 8109   6.925   5.062  10.037  0.6305 -0.6242 -0.2048
   85SAPS   H7X 8110   6.876   4.987   9.970  0.9627  0.9183 -2.2636
   85SAPS   H7Y 8111   7.025   5.039  10.079 -0.1263 -1.3191  1.2854
   85SAPS   C38 8112   6.942   5.194   9.953 -0.7655 -0.4606 -0.2801
   85SAPS   H8X 8113   6.975   5.274  10.023  1.0826 -0.7991 -0.6876
   85SAPS   H8Y 8114   6.850   5.235   9.907  0.0306 -0.2189 -1.7368
   85SAPS   C39 8115   7.039   5.177   9.835  0.0290 -0.0986 -0.2369
   85SAPS   H9X 8116   7.144   5.144   9.854 -0.4463 -1.4394  0.1450
   85SAPS   H9Y 8117   7.052   5.274   9.782 -1.9436 -0.0159 -0.6493
   85SAPS  C310 8118   6.986   5.074   9.737  0.3930 -0.2097  0.1885
   85SAPS  H10X 8119   6.876   5.078   9.720  0.4725  1.0750 -0.1325
   85SAPS  H10Y 8120   7.012   4.973   9.773 -2.2922 -0.6478  1.1612
   85SAPS  C311 8121   7.045   5.091   9.596  0.1578 -0.4015 -0.5131
   85SAPS  H11X 8122   7.156   5.085   9.592  0.3227  2.1026 -1.1016
   85SAPS  H11Y 8123   7.035   5.196   9.564  0.1600  0.1055  1.0357
   85SAPS  C312 8124   6.984   4.996   9.493 -0.2238 -0.5277  0.2918
   85SAPS  H12X 8125   6.884   5.040   9.471  0.6202  1.1025 -0.5229
   85SAPS  H12Y 8126   6.976   4.897   9.542 -3.0624  0.9555  3.2074
   85SAPS  C313 8127   7.062   5.003   9.357 -0.3189  0.1813  0.2439
   85SAPS  H13X 8128   7.170   4.983   9.374 -0.6601 -1.2241  0.8873
   85SAPS  H13Y 8129   7.056   5.101   9.305 -0.2101 -0.2365 -0.5881
   85SAPS  C314 8130   7.012   4.906   9.253 -0.7760 -0.1284 -0.0843
   85SAPS  H14X 8131   6.907   4.927   9.225 -1.1549 -2.1662 -0.2893
   85SAPS  H14Y 8132   7.014   4.800   9.287  2.3790  0.1336  0.8899
   85SAPS  C315 8133   7.102   4.905   9.129 -0.6234 -0.0888 -0.5492
   85SAPS  H15X 8134   7.202   4.862   9.150 -1.6599 -2.5554 -0.3229
   85SAPS  H15Y 8135   7.119   5.013   9.109 -4.1822  1.3463  2.9643
   85SAPS  C316 8136   7.062   4.816   9.009  0.8062  0.2529 -0.3765
   85SAPS  H16X 8137   6.958   4.840   8.979  1.2599 -1.2269 -3.5118
   85SAPS  H16Y 8138   7.057   4.707   9.029  0.7803  0.0873 -1.2455
   85SAPS  C317 8139   7.148   4.825   8.885  0.0556  0.1704  0.4205
   85SAPS  H17X 8140   7.239   4.766   8.909 -0.7498 -1.6732 -0.8362
   85SAPS  H17Y 8141   7.165   4.934   8.871 -1.1883  0.1566 -1.6020
   85SAPS  C318 8142   7.084   4.767   8.754 -0.2348 -0.6038 -0.0586
   85SAPS  H18X 8143   7.133   4.812   8.665  1.1736  0.4395  1.1948
   85SAPS  H18Y 8144   6.979   4.803   8.755 -0.9205 -2.5424  0.5972
   85SAPS  H18Z 8145   7.086   4.656   8.751 -1.5748 -0.6285 -0.4868
   86SAPS     N 8146   1.576   6.687  10.834 -0.7978 -0.6454  0.0020
   86SAPS   HN1 8147   1.526   6.681  10.743  0.5781  0.0666 -0.8455
   86SAPS   HN2 8148   1.509   6.676  10.913 -1.8522  0.9586 -0.6160
   86SAPS   HN3 8149   1.617   6.783  10.835  0.8406 -1.2793 -1.2404
   86SAPS   C12 8150   1.674   6.583  10.852  0.0518  0.5453 -0.0208
   86SAPS  H12A 8151   1.735   6.576  10.763  0.6019  0.3452  0.3700
   86SAPS   C13 8152   1.764   6.604  10.975 -0.7518 -0.4168 -0.2711
   86SAPS  O13A 8153   1.740   6.693  11.061  0.4960 -0.4498 -0.2092
   86SAPS  O13B 8154   1.867   6.528  10.985  0.6061 -0.1031 -0.1160
   86SAPS   C11 8155   1.611   6.443  10.876  0.2063  1.0816 -0.6391
   86SAPS  H11A 8156   1.549   6.458  10.967  0.2344  0.0942 -0.4511
   86SAPS  H11B 8157   1.701   6.379  10.885 -0.9236 -0.5235 -0.2562
   86SAPS     P 8158   1.477   6.255  10.757  0.1340 -0.2458  0.4998
   86SAPS   O13 8159   1.561   6.159  10.832 -0.0060 -0.0208  0.2190
   86SAPS   O14 8160   1.333   6.256  10.797  0.2620 -0.4216 -0.1514
   86SAPS   O12 8161   1.530   6.404  10.771  0.0632  0.1673  0.2431
   86SAPS   O11 8162   1.489   6.218  10.605  0.2432  0.1913 -0.7757
   86SAPS    C1 8163   1.606   6.266  10.533  0.1537  0.9852 -0.2884
   86SAPS    HA 8164   1.699   6.290  10.590  1.7533 -5.8319  0.8922
   86SAPS    HB 8165   1.651   6.186  10.470 -2.7186 -0.7260 -0.3145
   86SAPS    C2 8166   1.579   6.398  10.454 -0.5642  0.5211 -0.4098
   86SAPS    HS 8167   1.527   6.463  10.527  1.2078  1.6078 -0.0472
   86SAPS   O21 8168   1.497   6.378  10.339  0.8921  0.6380 -0.1477
   86SAPS   C21 8169   1.403   6.463  10.318  0.2648 -0.0810  0.0331
   86SAPS   O22 8170   1.373   6.561  10.390 -0.5541 -0.3511  0.0746
   86SAPS   C22 8171   1.338   6.428  10.186  0.8312 -0.0327  0.3331
   86SAPS   H2R 8172   1.294   6.328  10.204 -1.6324  0.6922 -1.2778
   86SAPS   H2S 8173   1.252   6.497  10.174  0.3377 -0.6865  0.0605
   86SAPS    C3 8174   1.717   6.455  10.400  0.0765 -0.1432 -0.2809
   86SAPS    HX 8175   1.766   6.378  10.337 -1.2235 -1.6075  0.4311
   86SAPS    HY 8176   1.777   6.464  10.493 -0.2324  0.8910 -0.1773
   86SAPS   O31 8177   1.709   6.586  10.336  0.2968  0.3302 -0.1853
   86SAPS   C31 8178   1.687   6.687  10.410 -0.3554 -0.2044  0.4432
   86SAPS   O32 8179   1.679   6.692  10.531 -0.1843 -0.0022 -0.3894
   86SAPS   C32 8180   1.687   6.803  10.322  0.6908 -0.1338  0.8900
   86SAPS   H2X 8181   1.686   6.894  10.386  0.2089  0.1277  0.5204
   86SAPS   H2Y 8182   1.596   6.795  10.258  0.0389 -1.5689  1.9384
   86SAPS   C23 8183   1.437   6.432  10.068  0.0675 -0.5152 -0.0330
   86SAPS   H3R 8184   1.388   6.380   9.983  1.7911 -0.9097 -0.8248
   86SAPS   H3S 8185   1.527   6.370  10.090 -0.5457 -0.9614  1.3077
   86SAPS   C24 8186   1.486   6.574  10.031  0.5558  0.4210  0.3468
   86SAPS   H4R 8187   1.496   6.652  10.109  0.8192  1.5941 -0.8257
   86SAPS   H4S 8188   1.404   6.621   9.973 -0.0132 -0.0091  0.7894
   86SAPS   C25 8189   1.621   6.552   9.967  0.8416  0.3310 -0.4586
   86SAPS   H5R 8190   1.709   6.559  10.033 -0.3637 -1.1664  1.4093
   86SAPS   C26 8191   1.635   6.523   9.838 -0.4536  0.7738 -0.1136
   86SAPS   H6R 8192   1.734   6.524   9.790  0.0426 -0.3318  0.8433
   86SAPS   C27 8193   1.519   6.512   9.738 -0.2488 -0.0561  0.0474
   86SAPS   H7R 8194   1.534   6.569   9.644 -2.6138  1.6326  0.6058
   86SAPS   H7S 8195   1.431   6.566   9.780  0.9022  1.8698  0.1003
   86SAPS   C28 8196   1.489   6.368   9.712 -0.4469  0.5959  0.9506
   86SAPS   H8R 8197   1.499   6.303   9.801  2.0263 -0.6568 -0.1446
   86SAPS   C29 8198   1.463   6.310   9.591 -0.6991  0.1181  0.0676
   86SAPS   H9R 8199   1.427   6.207   9.598  0.4035 -0.1828  1.8570
   86SAPS  C210 8200   1.448   6.376   9.459 -0.0901 -0.2712 -0.7136
   86SAPS  H10R 8201   1.513   6.465   9.447 -0.1195 -0.3235 -1.2854
   86SAPS  H10S 8202   1.342   6.412   9.455 -0.2659 -0.7632 -0.5523
   86SAPS  C211 8203   1.476   6.278   9.354  0.1830  0.3246  1.0312
   86SAPS  H11R 8204   1.445   6.173   9.366  1.1249  0.0759  1.3357
   86SAPS  C212 8205   1.537   6.300   9.240 -0.6576 -0.8292  0.7859
   86SAPS  H12R 8206   1.542   6.212   9.174 -0.3326 -1.3855  1.5440
   86SAPS  C213 8207   1.601   6.428   9.190  0.0131 -0.1133  0.9709
   86SAPS  H13R 8208   1.635   6.494   9.272  1.1628 -0.8079  1.0792
   86SAPS  H13S 8209   1.525   6.492   9.139  0.1927 -0.9138 -0.3476
   86SAPS  C214 8210   1.721   6.384   9.112 -0.1981 -0.4098 -0.1789
   86SAPS  H14R 8211   1.808   6.367   9.177  0.3650 -0.2070 -0.8777
   86SAPS  C215 8212   1.728   6.375   8.981 -0.5692  0.5442  0.9222
   86SAPS  H15R 8213   1.825   6.354   8.932  0.6043  0.8200  2.9996
   86SAPS  C216 8214   1.623   6.392   8.879 -0.6846 -0.6969  0.1232
   86SAPS  H16R 8215   1.656   6.473   8.810 -1.2619 -0.6445 -0.1003
   86SAPS  H16S 8216   1.529   6.424   8.929 -0.4027  0.3855 -0.0174
   86SAPS  C217 8217   1.598   6.262   8.809  0.6714  0.2125 -0.3194
   86SAPS  H17R 8218   1.519   6.206   8.864  0.7891  0.2047 -0.1591
   86SAPS  H17S 8219   1.683   6.192   8.796 -0.1936 -0.6168 -1.7246
   86SAPS  C218 8220   1.548   6.301   8.661  0.3148  0.2301  0.1885
   86SAPS  H18R 8221   1.609   6.391   8.635 -0.1178  1.5298  3.2668
   86SAPS  H18S 8222   1.440   6.325   8.666  0.2234  0.1162 -0.9804
   86SAPS  C219 8223   1.567   6.204   8.550  0.3930  0.3242  0.1084
   86SAPS  H19R 8224   1.677   6.189   8.545  0.1559 -1.2538 -2.7541
   86SAPS  H19S 8225   1.542   6.243   8.449  0.7005  0.3759  0.0512
   86SAPS  C220 8226   1.498   6.065   8.571  0.7801 -0.8766  0.5193
   86SAPS  H20R 8227   1.388   6.069   8.567  0.7365 -1.9408  0.3438
   86SAPS  H20S 8228   1.520   6.035   8.676 -0.8642  0.8263  1.3961
   86SAPS  H20T 8229   1.543   5.998   8.494  1.5892  1.8126 -1.5173
   86SAPS   C33 8230   1.813   6.809  10.236 -0.0666 -0.4264  0.5317
   86SAPS   H3X 8231   1.830   6.720  10.172 -0.3190 -1.5275  1.9436
   86SAPS   H3Y 8232   1.903   6.819  10.301  0.3081  0.4049 -0.1006
   86SAPS   C34 8233   1.800   6.916  10.125  0.7417  0.5523  0.7311
   86SAPS   H4X 8234   1.814   7.014  10.175 -0.3046  0.6856  0.7835
   86SAPS   H4Y 8235   1.699   6.905  10.081 -0.6192 -1.5250  3.9711
   86SAPS   C35 8236   1.903   6.911  10.009 -0.2147 -0.3246  0.1572
   86SAPS   H5X 8237   2.000   6.894  10.062 -1.4073  0.7587  2.8428
   86SAPS   H5Y 8238   1.904   7.007   9.955  2.0422  0.8039  1.9929
   86SAPS   C36 8239   1.879   6.797   9.904 -0.3334 -0.4466  0.3643
   86SAPS   H6X 8240   1.774   6.787   9.871 -0.8814  2.0417  1.1496
   86SAPS   H6Y 8241   1.895   6.695   9.947  3.5615 -0.6422 -1.0842
   86SAPS   C37 8242   1.977   6.814   9.787 -0.1663 -0.1340  0.4459
   86SAPS   H7X 8243   2.080   6.793   9.825  0.9339  1.1994 -1.5887
   86SAPS   H7Y 8244   1.975   6.919   9.750  1.6113  0.5820  2.1835
   86SAPS   C38 8245   1.949   6.720   9.670  0.6311 -0.9126  0.0346
   86SAPS   H8X 8246   1.875   6.767   9.602  2.3256  0.7172 -0.7552
   86SAPS   H8Y 8247   1.922   6.618   9.707  3.3725 -1.1855  1.5481
   86SAPS   C39 8248   2.063   6.701   9.572 -0.3277  0.4682  0.8377
   86SAPS   H9X 8249   2.026   6.633   9.493 -0.1457  0.9463  0.3343
   86SAPS   H9Y 8250   2.143   6.661   9.639  1.5632  1.7197 -0.5432
   86SAPS  C310 8251   2.120   6.828   9.510  0.1506 -0.9279  0.0248
   86SAPS  H10X 8252   2.217   6.803   9.462 -0.5689 -1.9616 -0.9462
   86SAPS  H10Y 8253   2.129   6.908   9.586 -0.1865 -1.5055  0.6884
   86SAPS  C311 8254   2.038   6.897   9.395 -0.4065 -0.3021 -0.4626
   86SAPS  H11X 8255   2.079   6.998   9.373  1.6590 -0.3420  2.5341
   86SAPS  H11Y 8256   1.944   6.926   9.445  0.0166  0.2408  0.0431
   86SAPS  C312 8257   2.020   6.810   9.270 -0.4879  0.4600 -0.1884
   86SAPS  H12X 8258   1.959   6.720   9.294  2.0252 -1.2694  0.0580
   86SAPS  H12Y 8259   2.120   6.766   9.253  0.0912  2.0395 -1.0611
   86SAPS  C313 8260   1.956   6.868   9.141 -0.6936 -0.5996 -0.5855
   86SAPS  H13X 8261   2.011   6.963   9.120  0.3511 -0.9305  0.5092
   86SAPS  H13Y 8262   1.853   6.898   9.168 -0.2965  0.5420 -0.2695
   86SAPS  C314 8263   1.955   6.774   9.017  0.2402 -0.2658 -0.2831
   86SAPS  H14X 8264   1.879   6.693   9.022  0.6331 -0.5503  1.7836
   86SAPS  H14Y 8265   2.054   6.723   9.021  0.5604  0.3908  0.3405
   86SAPS  C315 8266   1.929   6.854   8.886 -0.2730 -0.2813 -0.3993
   86SAPS  H15X 8267   2.014   6.922   8.863  0.0652 -0.3159  0.7083
   86SAPS  H15Y 8268   1.833   6.904   8.912 -0.3002 -1.6905  2.6438
   86SAPS  C316 8269   1.883   6.764   8.763 -0.3021  0.0940  0.4564
   86SAPS  H16X 8270   1.842   6.829   8.683  0.2929 -1.8925 -1.5533
   86SAPS  H16Y 8271   1.796   6.705   8.799 -0.5247  0.5802  0.7314
   86SAPS  C317 8272   1.992   6.665   8.717 -0.2954 -0.0080  0.0490
   86SAPS  H17X 8273   2.020   6.609   8.809  0.5863 -0.1953 -0.3232
   86SAPS  H17Y 8274   2.089   6.716   8.695 -0.2786 -0.4839 -1.0347
   86SAPS  C318 8275   1.962   6.570   8.589 -0.1283 -0.3137 -0.2284
   86SAPS  H18X 8276   2.035   6.488   8.571 -0.2261 -1.1035  2.4669
   86SAPS  H18Y 8277   1.961   6.636   8.499  0.0947 -0.4071 -0.2994
   86SAPS  H18Z 8278   1.865   6.525   8.616 -0.3530 -1.4466 -2.6679
   87SAPS     N 8279   0.326   1.068  10.648 -0.1110 -0.3594  0.4496
   87SAPS   HN1 8280   0.268   1.148  10.679  0.2157 -0.4418  1.2841
   87SAPS   HN2 8281   0.406   1.114  10.600  0.1109 -1.2225 -0.0313
   87SAPS   HN3 8282   0.269   1.017  10.577  0.4556  2.0401 -1.8790
   87SAPS   C12 8283   0.377   0.977  10.761 -0.4007  0.1046 -0.5821
   87SAPS  H12A 8284   0.449   0.909  10.717  0.0164  1.5511 -2.2353
   87SAPS   C13 8285   0.445   1.043  10.885 -0.3009  0.1554  0.3718
   87SAPS  O13A 8286   0.466   1.168  10.874  0.7656 -0.0591  0.8365
   87SAPS  O13B 8287   0.511   0.972  10.965  0.1957 -0.4120  0.1703
   87SAPS   C11 8288   0.258   0.892  10.810  0.2049  0.6859  0.1682
   87SAPS  H11A 8289   0.279   0.830  10.899 -1.4094  2.1547  1.6359
   87SAPS  H11B 8290   0.244   0.823  10.724  0.7464 -0.1917  0.7646
   87SAPS     P 8291   0.013   0.903  10.873 -0.4245 -0.2491  0.2864
   87SAPS   O13 8292   0.037   0.819  10.992  0.2188 -0.0449  0.2170
   87SAPS   O14 8293  -0.092   1.003  10.890  0.4223 -0.2448  0.4923
   87SAPS   O12 8294   0.141   0.976  10.830 -0.1862  0.5580 -0.0584
   87SAPS   O11 8295  -0.033   0.802  10.758  0.0361  0.3618 -0.0335
   87SAPS    C1 8296  -0.075   0.846  10.632 -0.1029 -0.0257  0.5323
   87SAPS    HA 8297  -0.161   0.915  10.641  0.9522  1.5153 -0.7020
   87SAPS    HB 8298   0.009   0.901  10.584 -0.6906  0.3861 -0.0293
   87SAPS    C2 8299  -0.104   0.729  10.534 -0.2327  0.1609 -0.0103
   87SAPS    HS 8300  -0.147   0.648  10.598  1.8653  0.6961  2.2184
   87SAPS   O21 8301   0.020   0.691  10.466  0.0385  0.5719 -0.0767
   87SAPS   C21 8302   0.035   0.566  10.445 -0.3059 -0.8671  0.5109
   87SAPS   O22 8303  -0.039   0.478  10.485  0.0636  0.4493 -0.1227
   87SAPS   C22 8304   0.163   0.545  10.360 -0.2015 -0.3159  0.1076
   87SAPS   H2R 8305   0.214   0.642  10.341  0.2137 -0.5857 -0.1470
   87SAPS   H2S 8306   0.233   0.475  10.410  1.9167  1.5128 -0.1338
   87SAPS    C3 8307  -0.210   0.768  10.432  0.7082 -0.0503  0.4038
   87SAPS    HX 8308  -0.164   0.833  10.354 -1.3584 -1.4088 -2.1328
   87SAPS    HY 8309  -0.282   0.831  10.488  2.4251  0.5203  2.0654
   87SAPS   O31 8310  -0.277   0.660  10.364 -0.5013  0.0478  0.4254
   87SAPS   C31 8311  -0.368   0.611  10.439  0.0284  0.3094 -0.0316
   87SAPS   O32 8312  -0.406   0.659  10.547  0.5613 -0.3295  0.8536
   87SAPS   C32 8313  -0.425   0.480  10.374 -0.0501  0.1615 -0.1112
   87SAPS   H2X 8314  -0.492   0.442  10.454 -0.5672 -1.6584 -1.3422
   87SAPS   H2Y 8315  -0.346   0.403  10.365 -0.7929 -0.8171  1.4431
   87SAPS   C23 8316   0.125   0.504  10.216  1.0248 -0.0794 -0.1888
   87SAPS   H3R 8317   0.098   0.396  10.220  0.8167 -0.0152  0.2065
   87SAPS   H3S 8318   0.212   0.517  10.148 -0.3760  0.3764 -1.9872
   87SAPS   C24 8319  -0.002   0.572  10.158  0.4722 -0.2590 -0.1048
   87SAPS   H4R 8320  -0.086   0.566  10.231  1.4183  1.6932  1.2522
   87SAPS   H4S 8321  -0.034   0.524  10.064 -1.8430 -1.8888  1.4102
   87SAPS   C25 8322   0.024   0.717  10.141 -0.7741  0.1127  0.0464
   87SAPS   H5R 8323   0.056   0.775  10.229  0.5541 -1.4280  0.6431
   87SAPS   C26 8324   0.046   0.785  10.025  0.2979 -0.7334 -0.1174
   87SAPS   H6R 8325   0.066   0.893  10.033  0.2016 -0.7780  0.7818
   87SAPS   C27 8326   0.029   0.728   9.883 -0.6665 -0.4085 -0.0478
   87SAPS   H7R 8327   0.085   0.633   9.868  2.8025  1.4502  0.2003
   87SAPS   H7S 8328   0.080   0.795   9.810  0.6771 -1.1301  0.2021
   87SAPS   C28 8329  -0.117   0.717   9.855  0.4824 -0.4503 -0.2995
   87SAPS   H8R 8330  -0.180   0.677   9.935  1.0695 -1.1666 -0.1817
   87SAPS   C29 8331  -0.186   0.746   9.741  0.2391 -0.0985 -0.1521
   87SAPS   H9R 8332  -0.295   0.738   9.733  0.2811 -1.1095  0.1178
   87SAPS  C210 8333  -0.125   0.799   9.610  0.3228  0.1228  0.0976
   87SAPS  H10R 8334  -0.022   0.836   9.628  0.7717 -1.1995  0.3581
   87SAPS  H10S 8335  -0.189   0.878   9.565  1.6916  1.6355  0.7178
   87SAPS  C211 8336  -0.113   0.683   9.517  0.6415  0.0028  0.0114
   87SAPS  H11R 8337  -0.127   0.587   9.568  0.8318 -0.1891 -0.2962
   87SAPS  C212 8338  -0.096   0.686   9.386  0.0988 -0.3036 -0.4596
   87SAPS  H12R 8339  -0.085   0.592   9.329  2.1406  0.5497 -1.5937
   87SAPS  C213 8340  -0.088   0.810   9.302  0.0807  0.0928  0.2220
   87SAPS  H13R 8341  -0.012   0.809   9.221 -1.9344  0.1773 -1.7702
   87SAPS  H13S 8342  -0.046   0.895   9.359 -0.7644 -0.1876  1.2904
   87SAPS  C214 8343  -0.225   0.848   9.246 -0.1034  0.4867 -0.3133
   87SAPS  H14R 8344  -0.306   0.833   9.318  0.3484  1.2143  0.3612
   87SAPS  C215 8345  -0.240   0.885   9.118  0.0124  0.0958 -0.7713
   87SAPS  H15R 8346  -0.340   0.918   9.086  1.0991  1.9176 -2.5034
   87SAPS  C216 8347  -0.146   0.897   9.000 -0.1140  0.6045  0.1074
   87SAPS  H16R 8348  -0.142   0.807   8.935  0.7837  1.4392 -1.0259
   87SAPS  H16S 8349  -0.046   0.915   9.045  0.2086 -1.5360  0.3398
   87SAPS  C217 8350  -0.184   1.019   8.926 -0.1664  0.1043  0.4756
   87SAPS  H17R 8351  -0.094   1.044   8.864  1.6331 -3.7397  1.2649
   87SAPS  H17S 8352  -0.204   1.105   8.993 -0.9186 -1.0317  1.7418
   87SAPS  C218 8353  -0.303   1.003   8.829  0.3220 -0.2751  0.5357
   87SAPS  H18R 8354  -0.402   1.012   8.880 -0.5454 -1.7098 -0.7866
   87SAPS  H18S 8355  -0.294   0.902   8.783  2.1337 -0.0453  0.3316
   87SAPS  C219 8356  -0.288   1.091   8.707  0.5682 -0.0411 -0.2085
   87SAPS  H19R 8357  -0.222   1.043   8.631  0.6013 -0.3673  0.0243
   87SAPS  H19S 8358  -0.246   1.187   8.745  0.5015 -0.4306  0.8782
   87SAPS  C220 8359  -0.429   1.131   8.648 -0.9139 -0.1536  0.1051
   87SAPS  H20R 8360  -0.485   1.183   8.730 -0.2622  1.3859 -0.3835
   87SAPS  H20S 8361  -0.488   1.041   8.622  0.0403 -0.0284 -2.9075
   87SAPS  H20T 8362  -0.419   1.200   8.561 -0.7163 -0.3265 -0.0114
   87SAPS   C33 8363  -0.508   0.510  10.249  0.6074  0.4254  0.6422
   87SAPS   H3X 8364  -0.561   0.605  10.269  0.7191  0.9599 -1.3941
   87SAPS   H3Y 8365  -0.570   0.419  10.237 -0.7437  1.4898 -0.7912
   87SAPS   C34 8366  -0.426   0.526  10.119  0.2189  0.2850  0.2312
   87SAPS   H4X 8367  -0.353   0.442  10.122 -1.4720 -1.1958  2.2431
   87SAPS   H4Y 8368  -0.373   0.623  10.107 -1.7816  1.8221  2.8857
   87SAPS   C35 8369  -0.513   0.494   9.996 -0.1298 -0.5760  0.1720
   87SAPS   H5X 8370  -0.598   0.565   9.986 -0.4924 -1.1245 -0.7292
   87SAPS   H5Y 8371  -0.565   0.397  10.010 -1.7931  0.3442  0.7668
   87SAPS   C36 8372  -0.438   0.492   9.858  0.4278  0.1376 -0.3493
   87SAPS   H6X 8373  -0.336   0.453   9.877 -0.1364 -0.7231  1.1399
   87SAPS   H6Y 8374  -0.426   0.596   9.822 -0.8056  0.0893 -0.9518
   87SAPS   C37 8375  -0.520   0.410   9.758 -1.0985  0.3177  0.0817
   87SAPS   H7X 8376  -0.504   0.456   9.658 -0.0235 -0.2065  0.0038
   87SAPS   H7Y 8377  -0.629   0.416   9.781 -0.6668 -0.2605  2.5971
   87SAPS   C38 8378  -0.488   0.262   9.738  0.2006  0.0114 -0.5316
   87SAPS   H8X 8379  -0.522   0.205   9.827  1.0471  0.0614 -0.1585
   87SAPS   H8Y 8380  -0.382   0.229   9.729  0.6851  0.8986  1.3224
   87SAPS   C39 8381  -0.565   0.211   9.612  0.1294  0.5376 -0.6509
   87SAPS   H9X 8382  -0.673   0.236   9.618 -0.0469 -0.4936  1.0833
   87SAPS   H9Y 8383  -0.565   0.101   9.629 -1.5106  0.7874  1.3783
   87SAPS  C310 8384  -0.508   0.241   9.481  0.6082 -0.0743  0.6389
   87SAPS  H10X 8385  -0.411   0.189   9.468  0.1469 -0.6304 -0.8596
   87SAPS  H10Y 8386  -0.496   0.350   9.462 -0.5698 -0.3014 -1.8399
   87SAPS  C311 8387  -0.600   0.194   9.366 -0.1395 -0.9966  0.0377
   87SAPS  H11X 8388  -0.685   0.266   9.362  1.1048  0.6070  1.1301
   87SAPS  H11Y 8389  -0.639   0.094   9.395 -1.4681 -0.5369 -0.1158
   87SAPS  C312 8390  -0.533   0.196   9.222  0.7000  0.3748  0.5404
   87SAPS  H12X 8391  -0.451   0.122   9.211  0.0072 -0.0703 -2.9491
   87SAPS  H12Y 8392  -0.480   0.292   9.209 -1.4991  2.0004  2.6111
   87SAPS  C313 8393  -0.647   0.186   9.116 -0.3868  0.2218  0.2333
   87SAPS  H13X 8394  -0.734   0.245   9.151 -1.1062  0.6521 -2.1325
   87SAPS  H13Y 8395  -0.682   0.081   9.114 -0.9520  0.4144 -0.5189
   87SAPS  C314 8396  -0.605   0.241   8.978  0.2668 -0.6647 -0.0398
   87SAPS  H14X 8397  -0.507   0.199   8.948  0.6599 -0.0168  0.3123
   87SAPS  H14Y 8398  -0.594   0.351   8.983  1.9679 -0.7532 -1.1010
   87SAPS  C315 8399  -0.714   0.226   8.873  0.1971 -0.0344  0.5848
   87SAPS  H15X 8400  -0.763   0.132   8.907  1.3146 -0.9564 -0.2974
   87SAPS  H15Y 8401  -0.664   0.211   8.775 -1.2478  0.3870 -0.2505
   87SAPS  C316 8402  -0.818   0.344   8.878  0.1125  0.6452 -0.2902
   87SAPS  H16X 8403  -0.766   0.440   8.855 -1.3596  1.3560 -0.7200
   87SAPS  H16Y 8404  -0.865   0.365   8.977 -1.2534  1.0995 -1.0179
   87SAPS  C317 8405  -0.923   0.316   8.784 -0.7936 -0.6692  0.4095
   87SAPS  H17X 8406  -0.987   0.229   8.812  0.9186 -2.3564 -0.6286
   87SAPS  H17Y 8407  -0.861   0.300   8.692 -1.2129  1.7068 -0.3594
   87SAPS  C318 8408  -1.007   0.445   8.747  0.0198  0.1547 -0.4209
   87SAPS  H18X 8409  -0.940   0.522   8.705  1.5749 -1.0789 -0.2891
   87SAPS  H18Y 8410  -1.067   0.480   8.834  0.8215 -1.3958  0.8184
   87SAPS  H18Z 8411  -1.075   0.425   8.661  2.5791  2.8124 -3.2981
   88SAPS     N 8412   4.013   4.435  11.146 -0.2110 -0.3553 -0.1566
   88SAPS   HN1 8413   4.088   4.470  11.210 -0.2153  2.0054 -1.3467
   88SAPS   HN2 8414   4.054   4.427  11.051 -0.3649  1.1469 -0.3729
   88SAPS   HN3 8415   3.925   4.490  11.143  0.7126  1.1405 -1.8181
   88SAPS   C12 8416   3.960   4.300  11.183  0.1857 -0.5898 -0.4538
   88SAPS  H12A 8417   4.043   4.236  11.205  2.1915  2.6587  2.5559
   88SAPS   C13 8418   3.867   4.317  11.311  0.6209 -0.5717 -0.5074
   88SAPS  O13A 8419   3.879   4.422  11.377  0.7191 -0.5356 -0.5064
   88SAPS  O13B 8420   3.812   4.209  11.355 -0.6476  0.6067  0.1919
   88SAPS   C11 8421   3.868   4.241  11.077 -0.2754 -0.0289 -0.1456
   88SAPS  H11A 8422   3.788   4.311  11.045  0.2122  0.8102  0.4222
   88SAPS  H11B 8423   3.806   4.155  11.110 -0.6713  0.8092  1.4137
   88SAPS     P 8424   3.984   4.053  10.939 -0.0403 -0.2852 -0.0691
   88SAPS   O13 8425   4.079   4.045  10.826 -0.2426 -0.0729 -0.0552
   88SAPS   O14 8426   4.026   3.993  11.069 -0.4336 -0.9759 -0.0161
   88SAPS   O12 8427   3.940   4.201  10.958 -0.2381 -0.3330  0.4872
   88SAPS   O11 8428   3.860   3.975  10.898  0.9667  0.0915 -0.3049
   88SAPS    C1 8429   3.733   4.033  10.854  0.4890 -0.5757  0.7623
   88SAPS    HA 8430   3.687   4.090  10.937  0.6374  0.9915 -0.1854
   88SAPS    HB 8431   3.755   4.098  10.766  1.9568 -1.6208  0.3122
   88SAPS    C2 8432   3.632   3.934  10.787  0.2910  0.2841 -0.6900
   88SAPS    HS 8433   3.634   3.847  10.856 -0.6357  0.6570 -0.1698
   88SAPS   O21 8434   3.654   3.911  10.648  0.1785  0.4623  0.1429
   88SAPS   C21 8435   3.760   3.837  10.619  0.7400  0.1034 -0.6050
   88SAPS   O22 8436   3.821   3.771  10.704 -0.1886 -0.6531 -0.3927
   88SAPS   C22 8437   3.807   3.850  10.479  0.0863  0.1706 -0.3511
   88SAPS   H2R 8438   3.820   3.744  10.450 -0.0163  0.0519  0.0271
   88SAPS   H2S 8439   3.731   3.910  10.427 -0.8121 -1.1648 -0.6105
   88SAPS    C3 8440   3.484   3.989  10.803 -0.5606  0.7097 -0.5863
   88SAPS    HX 8441   3.459   3.975  10.910 -1.0392  1.6609 -0.5655
   88SAPS    HY 8442   3.417   3.929  10.739 -1.9659  3.2476 -1.6432
   88SAPS   O31 8443   3.490   4.131  10.777 -0.0789 -0.3229 -0.2561
   88SAPS   C31 8444   3.447   4.182  10.662  0.1781 -0.4912 -0.0614
   88SAPS   O32 8445   3.387   4.120  10.577  0.1317 -0.0043 -0.4722
   88SAPS   C32 8446   3.469   4.326  10.659 -0.6659 -0.1519  0.3346
   88SAPS   H2X 8447   3.443   4.364  10.760 -5.0797  0.1302 -0.6912
   88SAPS   H2Y 8448   3.396   4.370  10.589  0.6889 -2.4268 -2.7487
   88SAPS   C23 8449   3.942   3.927  10.489 -0.4974 -0.5386  0.1620
   88SAPS   H3R 8450   4.011   3.850  10.531 -1.0303 -1.6282 -0.8889
   88SAPS   H3S 8451   3.933   4.017  10.553 -1.0935  1.7111 -2.8688
   88SAPS   C24 8452   3.998   3.975  10.357 -0.8206 -1.0117  0.2561
   88SAPS   H4R 8453   4.091   4.031  10.380 -0.4876 -1.4762  0.0572
   88SAPS   H4S 8454   3.931   4.043  10.300  0.0476  0.8755  1.3852
   88SAPS   C25 8455   4.025   3.863  10.266 -0.4417 -0.8352  0.0363
   88SAPS   H5R 8456   4.071   3.781  10.323  2.0226  2.5760  3.3785
   88SAPS   C26 8457   4.011   3.867  10.137  0.3104 -0.0952  0.1789
   88SAPS   H6R 8458   4.039   3.778  10.078  0.6723 -0.1462  0.4251
   88SAPS   C27 8459   3.984   3.996  10.058  0.0233  0.4375 -0.6284
   88SAPS   H7R 8460   4.009   4.087  10.115  1.9324 -1.1875  1.2855
   88SAPS   H7S 8461   3.878   4.023  10.038 -0.2189 -0.0623 -0.0502
   88SAPS   C28 8462   4.055   4.005   9.924 -0.5557 -0.0539  0.5811
   88SAPS   H8R 8463   4.148   4.063   9.934 -1.0689  1.1534 -1.2375
   88SAPS   C29 8464   4.013   3.950   9.808 -0.7340  0.2642 -0.0615
   88SAPS   H9R 8465   4.074   3.976   9.720  0.6916 -0.3011  0.7302
   88SAPS  C210 8466   3.902   3.855   9.797 -0.0715 -0.5016  0.6058
   88SAPS  H10R 8467   3.816   3.907   9.750 -0.1931  0.8585  2.2158
   88SAPS  H10S 8468   3.857   3.820   9.893  1.0570 -0.1849  1.2802
   88SAPS  C211 8469   3.943   3.730   9.718 -0.1024  0.0305 -0.4589
   88SAPS  H11R 8470   4.047   3.697   9.732 -0.2690 -0.3712 -0.1195
   88SAPS  C212 8471   3.868   3.661   9.629  0.5883 -0.3189 -0.2065
   88SAPS  H12R 8472   3.911   3.573   9.578  0.8230 -0.0782 -0.4285
   88SAPS  C213 8473   3.724   3.697   9.608  0.0465 -0.1159 -0.1693
   88SAPS  H13R 8474   3.720   3.794   9.554 -1.1581  0.1807  0.4409
   88SAPS  H13S 8475   3.666   3.714   9.701 -0.2041  1.3391 -0.5657
   88SAPS  C214 8476   3.657   3.584   9.527  0.1721 -0.6342 -0.6199
   88SAPS  H14R 8477   3.676   3.485   9.570  0.9941 -0.4642 -0.5769
   88SAPS  C215 8478   3.598   3.579   9.407 -0.8071 -0.0422  0.6032
   88SAPS  H15R 8479   3.558   3.481   9.376  2.7312 -1.1545 -1.0034
   88SAPS  C216 8480   3.579   3.692   9.312 -0.4482 -0.3287  0.6406
   88SAPS  H16R 8481   3.576   3.787   9.370  0.5302 -0.7206  1.3604
   88SAPS  H16S 8482   3.475   3.688   9.274  0.7750  0.4203 -3.2091
   88SAPS  C217 8483   3.675   3.704   9.191  0.1302  0.9851 -0.8228
   88SAPS  H17R 8484   3.633   3.775   9.117  0.1243  0.1569 -1.6302
   88SAPS  H17S 8485   3.686   3.606   9.139 -0.0602  1.7034 -2.2640
   88SAPS  C218 8486   3.819   3.747   9.219  0.0179 -0.2368 -0.0483
   88SAPS  H18R 8487   3.877   3.723   9.128 -1.6876 -2.9974 -0.5259
   88SAPS  H18S 8488   3.874   3.705   9.306  3.2897  2.0613 -0.8070
   88SAPS  C219 8489   3.834   3.902   9.244 -0.0874 -0.6106  0.1446
   88SAPS  H19R 8490   3.772   3.932   9.331 -1.2241  1.2272 -1.2267
   88SAPS  H19S 8491   3.800   3.953   9.151  3.1045  0.1925 -0.7102
   88SAPS  C220 8492   3.975   3.943   9.254 -0.3277 -0.0962 -0.2716
   88SAPS  H20R 8493   3.988   4.052   9.274 -0.4777 -0.5002  2.3560
   88SAPS  H20S 8494   4.029   3.897   9.169  0.8716  1.1925 -0.2441
   88SAPS  H20T 8495   4.021   3.878   9.331 -0.0886 -4.3213 -3.6075
   88SAPS   C33 8496   3.615   4.362  10.617  0.4314  0.6228  0.2293
   88SAPS   H3X 8497   3.685   4.301  10.677 -0.5022 -1.2117 -0.4767
   88SAPS   H3Y 8498   3.618   4.470  10.644  1.7662  1.0015 -1.2429
   88SAPS   C34 8499   3.659   4.349  10.473 -0.4079 -0.8659  0.4950
   88SAPS   H4X 8500   3.767   4.364  10.456 -1.0682  0.7641 -3.2423
   88SAPS   H4Y 8501   3.624   4.440  10.419 -1.1701 -1.2176  0.3856
   88SAPS   C35 8502   3.612   4.221  10.386 -0.0602 -0.6480 -0.0002
   88SAPS   H5X 8503   3.502   4.205  10.377 -0.9280  2.9046  2.2428
   88SAPS   H5Y 8504   3.636   4.125  10.437 -0.5428 -1.0549 -0.5359
   88SAPS   C36 8505   3.683   4.212  10.249 -0.5613  0.5763 -0.3314
   88SAPS   H6X 8506   3.686   4.105  10.219 -2.1618  1.0816 -2.5812
   88SAPS   H6Y 8507   3.786   4.252  10.259 -0.0417 -0.1468 -2.3047
   88SAPS   C37 8508   3.610   4.267  10.130  0.8990 -0.2400 -0.7803
   88SAPS   H7X 8509   3.597   4.375  10.149 -1.3938 -0.7075  0.6448
   88SAPS   H7Y 8510   3.508   4.228  10.110  1.0324 -0.2412 -1.4918
   88SAPS   C38 8511   3.684   4.244   9.998  0.4369 -0.2221 -0.0010
   88SAPS   H8X 8512   3.682   4.134   9.987 -1.0796 -0.2929  0.6081
   88SAPS   H8Y 8513   3.786   4.287  10.005 -0.5010  2.3928 -1.0715
   88SAPS   C39 8514   3.610   4.303   9.875  0.2133 -0.7098  0.7155
   88SAPS   H9X 8515   3.610   4.412   9.892 -0.7342 -0.6786  0.5465
   88SAPS   H9Y 8516   3.504   4.272   9.863 -0.3518  0.8841  1.4462
   88SAPS  C310 8517   3.686   4.258   9.745 -0.8863  0.3883  0.4278
   88SAPS  H10X 8518   3.667   4.149   9.739 -0.5649  0.3948 -1.3686
   88SAPS  H10Y 8519   3.797   4.261   9.749 -0.6458 -2.5203 -1.1006
   88SAPS  C311 8520   3.643   4.336   9.619  0.1620 -0.3190  0.5775
   88SAPS  H11X 8521   3.680   4.440   9.607 -0.4219 -0.3603 -2.2422
   88SAPS  H11Y 8522   3.533   4.351   9.627  0.3873  0.9079  1.8228
   88SAPS  C312 8523   3.680   4.257   9.493  0.2250 -0.1112  0.8812
   88SAPS  H12X 8524   3.650   4.152   9.508  1.0719  0.1132  6.0685
   88SAPS  H12Y 8525   3.790   4.267   9.476  0.1496 -1.2263 -0.4114
   88SAPS  C313 8526   3.613   4.321   9.370 -0.0412 -0.5937  0.6703
   88SAPS  H13X 8527   3.660   4.421   9.356 -3.0029  0.8659  0.5040
   88SAPS  H13Y 8528   3.510   4.349   9.400 -0.3247 -0.1666 -0.6258
   88SAPS  C314 8529   3.607   4.231   9.248  0.0984 -0.3442 -0.8146
   88SAPS  H14X 8530   3.566   4.134   9.283 -1.7274 -0.2440 -2.5067
   88SAPS  H14Y 8531   3.714   4.210   9.228  0.0621  1.5313 -3.5958
   88SAPS  C315 8532   3.518   4.278   9.135 -0.7138 -0.4589  0.0816
   88SAPS  H15X 8533   3.541   4.383   9.106  1.2672 -1.0768 -0.7470
   88SAPS  H15Y 8534   3.418   4.263   9.180 -0.2525 -3.2617  0.3153
   88SAPS  C316 8535   3.540   4.178   9.025 -0.3315  0.2886  0.1998
   88SAPS  H16X 8536   3.504   4.077   9.052  0.7314 -0.1370  0.0691
   88SAPS  H16Y 8537   3.648   4.171   9.001 -0.4922 -1.2010 -0.2008
   88SAPS  C317 8538   3.472   4.223   8.897  0.6156 -0.6836 -0.0786
   88SAPS  H17X 8539   3.481   4.333   8.887 -0.6142 -0.6230 -0.7865
   88SAPS  H17Y 8540   3.364   4.196   8.898 -0.3380  2.5890  1.9330
   88SAPS  C318 8541   3.548   4.158   8.779  0.7133 -0.7044 -0.2056
   88SAPS  H18X 8542   3.479   4.180   8.694  0.6004  2.2995  0.5310
   88SAPS  H18Y 8543   3.564   4.050   8.799  0.0209 -1.1873 -2.0539
   88SAPS  H18Z 8544   3.639   4.211   8.744  0.0420 -0.2783 -1.3723
   89SAPS     N 8545   4.905   0.185  10.605  0.0983  0.6573 -0.2306
   89SAPS   HN1 8546   4.916   0.274  10.553 -0.3466  0.4581 -0.6701
   89SAPS   HN2 8547   4.993   0.130  10.617 -0.6444 -0.3680  0.7444
   89SAPS   HN3 8548   4.839   0.136  10.542  0.2375  1.9780 -1.4516
   89SAPS   C12 8549   4.841   0.200  10.741 -0.8818  0.8201 -0.3342
   89SAPS  H12A 8550   4.803   0.105  10.774 -0.3942 -0.1759 -2.4653
   89SAPS   C13 8551   4.927   0.261  10.857 -0.0158  0.2003  0.0750
   89SAPS  O13A 8552   5.030   0.318  10.821  0.6911 -0.1342  0.4625
   89SAPS  O13B 8553   4.887   0.263  10.975 -0.7931 -0.2393  0.1673
   89SAPS   C11 8554   4.720   0.283  10.717  0.4637  0.1290  0.4664
   89SAPS  H11A 8555   4.749   0.379  10.669  0.0194 -0.2184 -0.5237
   89SAPS  H11B 8556   4.682   0.328  10.811 -1.1313  2.0018 -0.9746
   89SAPS     P 8557   4.468   0.201  10.707 -0.1171 -0.0627  0.0037
   89SAPS   O13 8558   4.466   0.069  10.772  0.1444  0.4861 -0.3668
   89SAPS   O14 8559   4.450   0.314  10.796 -0.1911 -0.3446 -0.1508
   89SAPS   O12 8560   4.614   0.224  10.643 -0.2274 -0.0042 -0.7575
   89SAPS   O11 8561   4.366   0.218  10.589  0.9096  0.4254 -0.0715
   89SAPS    C1 8562   4.314   0.344  10.550  1.0206 -0.1811 -0.0668
   89SAPS    HA 8563   4.213   0.316  10.513  1.4374 -0.3118 -1.1405
   89SAPS    HB 8564   4.303   0.420  10.630  0.7828  0.7354 -0.9570
   89SAPS    C2 8565   4.378   0.405  10.421  0.3641 -0.1518  0.1450
   89SAPS    HS 8566   4.295   0.444  10.358  0.9484  2.1881  0.7303
   89SAPS   O21 8567   4.458   0.322  10.335  0.3365  0.6406 -0.8724
   89SAPS   C21 8568   4.406   0.202  10.311 -0.4351  0.2683  0.2108
   89SAPS   O22 8569   4.295   0.157  10.336 -0.0501  0.5275  0.2295
   89SAPS   C22 8570   4.515   0.135  10.235 -0.1848 -0.1142 -0.0822
   89SAPS   H2R 8571   4.560   0.199  10.157 -1.8133  1.5619  0.2906
   89SAPS   H2S 8572   4.607   0.110  10.292  0.2060 -1.0597 -1.0806
   89SAPS    C3 8573   4.464   0.537  10.462 -0.0886  0.6852  0.7042
   89SAPS    HX 8574   4.554   0.516  10.523  0.8408  2.1134 -0.1023
   89SAPS    HY 8575   4.398   0.596  10.529 -1.2182 -1.3640  1.4988
   89SAPS   O31 8576   4.490   0.616  10.345  0.5464 -0.2629  0.0799
   89SAPS   C31 8577   4.618   0.617  10.305 -0.1901  0.5120 -0.7449
   89SAPS   O32 8578   4.709   0.549  10.358  0.3595 -0.5770  0.6956
   89SAPS   C32 8579   4.623   0.693  10.169 -0.3349 -0.1062 -0.3013
   89SAPS   H2X 8580   4.627   0.800  10.198  0.6761 -0.6339  1.6770
   89SAPS   H2Y 8581   4.525   0.688  10.116  1.0762  2.5698 -3.5703
   89SAPS   C23 8582   4.462   0.005  10.172 -0.0509  0.1218 -0.8058
   89SAPS   H3R 8583   4.388   0.028  10.092 -1.0272  0.8585  0.2947
   89SAPS   H3S 8584   4.414  -0.058  10.249  1.1617  0.2649  0.0897
   89SAPS   C24 8585   4.572  -0.085  10.104  0.2922 -0.0546 -0.2873
   89SAPS   H4R 8586   4.528  -0.185  10.080  1.4611 -0.3332 -1.3834
   89SAPS   H4S 8587   4.655  -0.100  10.176  1.5046 -0.7561 -1.7592
   89SAPS   C25 8588   4.621  -0.009   9.982  0.2240 -0.1213 -0.5079
   89SAPS   H5R 8589   4.612   0.101   9.989 -3.5670 -0.3356 -0.2597
   89SAPS   C26 8590   4.676  -0.051   9.864 -0.8002  1.0863  0.3768
   89SAPS   H6R 8591   4.698   0.037   9.802  0.3524  2.0160  2.0184
   89SAPS   C27 8592   4.724  -0.186   9.825 -0.4950  0.6396 -0.0367
   89SAPS   H7R 8593   4.678  -0.218   9.729  0.1643 -0.8149  0.1007
   89SAPS   H7S 8594   4.698  -0.255   9.908 -3.7618  3.0698  1.1559
   89SAPS   C28 8595   4.879  -0.177   9.813  0.8464 -0.2836  1.0520
   89SAPS   H8R 8596   4.930  -0.173   9.910 -0.7686  0.2143  1.9158
   89SAPS   C29 8597   4.957  -0.185   9.703  0.5286 -0.5571 -0.6332
   89SAPS   H9R 8598   5.065  -0.189   9.726  0.2472  0.0164  0.8997
   89SAPS  C210 8599   4.914  -0.213   9.557 -0.0168  0.1908  0.1935
   89SAPS  H10R 8600   4.804  -0.213   9.538  0.1862 -0.6806 -1.1656
   89SAPS  H10S 8601   4.932  -0.322   9.542 -0.6211  0.0336  0.5953
   89SAPS  C211 8602   4.985  -0.128   9.456  0.7702 -0.1553  0.0455
   89SAPS  H11R 8603   5.044  -0.042   9.490 -1.4292  1.7335 -0.6370
   89SAPS  C212 8604   4.986  -0.161   9.324 -0.3750 -0.5066  0.0482
   89SAPS  H12R 8605   5.034  -0.095   9.250 -0.2110  0.4620  0.9901
   89SAPS  C213 8606   4.916  -0.277   9.260 -0.6976  0.3375 -0.6734
   89SAPS  H13R 8607   4.865  -0.243   9.167 -0.4183  1.3965 -0.4572
   89SAPS  H13S 8608   4.824  -0.303   9.317 -0.9609 -0.0818 -1.2847
   89SAPS  C214 8609   5.009  -0.394   9.247  0.5485 -0.3560  0.4029
   89SAPS  H14R 8610   4.990  -0.469   9.324 -1.8763  1.9164  2.2199
   89SAPS  C215 8611   5.100  -0.421   9.152 -0.3091  0.0003  0.1128
   89SAPS  H15R 8612   5.167  -0.507   9.165 -1.5894 -1.3113 -1.4811
   89SAPS  C216 8613   5.133  -0.344   9.031  0.1219 -0.4898 -0.0112
   89SAPS  H16R 8614   5.236  -0.305   9.039 -0.3198  0.4815  1.3294
   89SAPS  H16S 8615   5.060  -0.260   9.023 -1.1091 -1.4635  0.5549
   89SAPS  C217 8616   5.098  -0.423   8.908  0.1479  0.1171 -0.4288
   89SAPS  H17R 8617   5.097  -0.352   8.823 -0.3090  1.2043  0.4460
   89SAPS  H17S 8618   4.998  -0.470   8.923  1.4557 -2.6023  0.4943
   89SAPS  C218 8619   5.204  -0.531   8.880  0.6816  0.3382  0.0610
   89SAPS  H18R 8620   5.221  -0.605   8.961 -0.4672  0.7088  0.6716
   89SAPS  H18S 8621   5.299  -0.473   8.883  1.6384 -1.1432 -0.1740
   89SAPS  C219 8622   5.193  -0.599   8.742  0.0624 -0.1735 -0.3058
   89SAPS  H19R 8623   5.163  -0.520   8.670 -1.2153  0.4390  0.8326
   89SAPS  H19S 8624   5.103  -0.664   8.739 -1.2838  1.6334 -1.0420
   89SAPS  C220 8625   5.321  -0.669   8.692 -0.1287 -0.8861  0.0080
   89SAPS  H20R 8626   5.407  -0.599   8.688 -0.5205 -0.2156  2.0859
   89SAPS  H20S 8627   5.298  -0.705   8.589 -2.2163  1.9913 -0.6454
   89SAPS  H20T 8628   5.351  -0.761   8.747 -1.4944 -2.2023 -1.3531
   89SAPS   C33 8629   4.739   0.647  10.078 -0.5690 -0.0265  0.0863
   89SAPS   H3X 8630   4.839   0.671  10.120 -0.1942 -1.6470  0.1752
   89SAPS   H3Y 8631   4.726   0.700   9.981 -0.5776 -0.7111 -0.2932
   89SAPS   C34 8632   4.728   0.495  10.049  0.7002  0.8988  1.2918
   89SAPS   H4X 8633   4.629   0.467  10.007  1.0129 -2.1218  2.3553
   89SAPS   H4Y 8634   4.738   0.431  10.139 -2.3649 -1.3026  0.2349
   89SAPS   C35 8635   4.834   0.442   9.952 -0.2070  0.7798 -0.0197
   89SAPS   H5X 8636   4.936   0.445   9.995 -0.0009 -1.2705 -0.2838
   89SAPS   H5Y 8637   4.842   0.490   9.852  0.2725 -0.5041 -0.6165
   89SAPS   C36 8638   4.818   0.292   9.913  0.4776 -0.2193 -0.5828
   89SAPS   H6X 8639   4.719   0.289   9.863 -0.7203  0.8175  1.5843
   89SAPS   H6Y 8640   4.798   0.236  10.006  0.5547 -2.5864 -1.9151
   89SAPS   C37 8641   4.941   0.230   9.839 -0.6268 -1.3509 -0.2403
   89SAPS   H7X 8642   4.913   0.131   9.798 -2.2038 -0.3632 -1.6642
   89SAPS   H7Y 8643   5.027   0.236   9.909 -0.3882 -0.5016 -0.5862
   89SAPS   C38 8644   4.989   0.310   9.722  0.1827  0.2459  0.1663
   89SAPS   H8X 8645   5.044   0.400   9.756 -1.0500  0.8709  0.5452
   89SAPS   H8Y 8646   4.900   0.338   9.662  0.3332 -4.2378 -2.6317
   89SAPS   C39 8647   5.098   0.244   9.628 -0.5651 -0.5734  0.5247
   89SAPS   H9X 8648   5.057   0.154   9.579  3.1858 -1.7425 -0.7819
   89SAPS   H9Y 8649   5.180   0.202   9.690  0.9395 -0.0364 -1.0312
   89SAPS  C310 8650   5.148   0.330   9.514  1.0722 -0.8203 -0.3002
   89SAPS  H10X 8651   5.205   0.412   9.563 -0.2389 -1.7035  2.9965
   89SAPS  H10Y 8652   5.068   0.385   9.460  3.2587  1.4353 -1.4588
   89SAPS  C311 8653   5.259   0.264   9.424  0.2680  0.5341 -0.0699
   89SAPS  H11X 8654   5.202   0.186   9.369  2.3909 -1.8524  0.9439
   89SAPS  H11Y 8655   5.338   0.214   9.484 -1.6376 -3.6574 -0.7031
   89SAPS  C312 8656   5.326   0.369   9.332  0.1851 -0.4024  0.1841
   89SAPS  H12X 8657   5.415   0.311   9.297 -0.8529 -0.9588 -1.6182
   89SAPS  H12Y 8658   5.358   0.456   9.394 -1.7205 -0.0463  0.7211
   89SAPS  C313 8659   5.254   0.408   9.202  0.0834  0.2480 -0.0514
   89SAPS  H13X 8660   5.166   0.467   9.234 -0.9245 -1.2176 -0.0726
   89SAPS  H13Y 8661   5.217   0.320   9.145 -0.4583  0.3000  0.2155
   89SAPS  C314 8662   5.336   0.508   9.109  0.1410  0.1191 -0.7872
   89SAPS  H14X 8663   5.425   0.450   9.077 -0.0608 -1.2182  0.9270
   89SAPS  H14Y 8664   5.361   0.590   9.179  3.1574 -2.5133  1.4666
   89SAPS  C315 8665   5.247   0.554   8.989 -0.6732 -0.6140  0.2591
   89SAPS  H15X 8666   5.259   0.664   8.978  0.1380 -0.7915 -0.7693
   89SAPS  H15Y 8667   5.141   0.525   9.005 -1.2115 -0.2969 -2.2703
   89SAPS  C316 8668   5.279   0.488   8.853  0.4096  0.3499  0.0904
   89SAPS  H16X 8669   5.193   0.505   8.784  2.1264  0.3390 -2.1792
   89SAPS  H16Y 8670   5.286   0.378   8.866 -1.2885  0.2727  0.5840
   89SAPS  C317 8671   5.411   0.540   8.774 -0.5034  0.3778 -0.3977
   89SAPS  H17X 8672   5.409   0.512   8.666 -0.1934 -0.5581 -0.1668
   89SAPS  H17Y 8673   5.497   0.478   8.809 -0.4225  0.0099 -1.2211
   89SAPS  C318 8674   5.434   0.685   8.783 -0.5236 -0.5437  0.0741
   89SAPS  H18X 8675   5.355   0.746   8.734 -0.1870 -0.2808 -0.1477
   89SAPS  H18Y 8676   5.537   0.701   8.745  0.3226 -0.6091  2.1962
   89SAPS  H18Z 8677   5.443   0.722   8.887 -0.4055  0.6359 -0.3463
   90SAPS     N 8678   5.192   6.282  10.747 -0.2395 -0.2131 -0.0508
   90SAPS   HN1 8679   5.093   6.305  10.767 -0.3977 -1.9024  1.3781
   90SAPS   HN2 8680   5.241   6.372  10.730 -2.1118  0.7574 -0.5591
   90SAPS   HN3 8681   5.212   6.231  10.658 -0.9057  0.9203 -0.8752
   90SAPS   C12 8682   5.251   6.203  10.858  0.0232  0.5352  0.0415
   90SAPS  H12A 8683   5.359   6.212  10.858  0.1479 -0.7689  0.0278
   90SAPS   C13 8684   5.206   6.258  10.990  0.0061 -0.6868 -0.1694
   90SAPS  O13A 8685   5.122   6.354  10.994  0.1409 -0.2944  0.1948
   90SAPS  O13B 8686   5.257   6.215  11.099 -0.1278 -0.6905  0.1202
   90SAPS   C11 8687   5.219   6.052  10.837  0.0948  0.7329 -0.0440
   90SAPS  H11A 8688   5.277   5.995  10.912 -1.0624  0.4875  0.7010
   90SAPS  H11B 8689   5.262   6.015  10.742 -0.2977  0.0658  0.0288
   90SAPS     P 8690   5.006   5.937  10.941  0.4271 -0.6591 -0.0509
   90SAPS   O13 8691   5.107   5.891  11.039  0.2822  0.1145  0.4467
   90SAPS   O14 8692   4.889   6.009  10.994  0.4140  0.4400  0.0801
   90SAPS   O12 8693   5.076   6.024  10.832  0.3131 -0.1521 -0.3348
   90SAPS   O11 8694   4.957   5.820  10.855 -0.4102 -0.3206 -0.1016
   90SAPS    C1 8695   5.030   5.782  10.736 -0.3685 -0.5275  0.2358
   90SAPS    HA 8696   5.136   5.815  10.736 -0.3185 -0.6508 -0.6292
   90SAPS    HB 8697   5.033   5.671  10.724  2.0109 -0.5012  0.1902
   90SAPS    C2 8698   4.969   5.841  10.606 -0.4861 -0.3851  0.6024
   90SAPS    HS 8699   4.964   5.952  10.605 -2.4499 -0.4385  0.7006
   90SAPS   O21 8700   4.843   5.775  10.584 -0.2704 -0.5769  0.0237
   90SAPS   C21 8701   4.730   5.843  10.581  0.4174  0.5016  0.0073
   90SAPS   O22 8702   4.727   5.965  10.590  0.6192  0.0751 -0.2127
   90SAPS   C22 8703   4.614   5.752  10.540  0.6830 -0.0323 -0.3130
   90SAPS   H2R 8704   4.650   5.648  10.524 -0.4208 -0.8186  1.8851
   90SAPS   H2S 8705   4.535   5.759  10.618 -0.7064  0.1874 -1.6836
   90SAPS    C3 8706   5.057   5.800  10.481  0.2432 -0.2366 -0.5222
   90SAPS    HX 8707   5.081   5.692  10.489  2.4665  0.3380  1.7690
   90SAPS    HY 8708   5.159   5.843  10.490 -0.1971  0.8742 -0.6486
   90SAPS   O31 8709   5.012   5.816  10.341 -0.4899 -0.2467  0.4267
   90SAPS   C31 8710   5.012   5.953  10.308 -0.0202 -0.2253  0.1577
   90SAPS   O32 8711   5.043   6.044  10.384 -0.3720 -0.1502  0.1286
   90SAPS   C32 8712   4.982   5.965  10.155 -0.0573 -0.6719 -0.2604
   90SAPS   H2X 8713   4.880   5.928  10.128 -0.3840 -0.3753  0.5595
   90SAPS   H2Y 8714   5.054   5.912  10.088 -1.1462 -1.0510 -1.1817
   90SAPS   C23 8715   4.544   5.809  10.419  1.2257 -0.5296 -0.1142
   90SAPS   H3R 8716   4.611   5.837  10.335  1.0162 -1.0962 -0.4798
   90SAPS   H3S 8717   4.502   5.904  10.459  2.2429 -0.6931  1.4303
   90SAPS   C24 8718   4.438   5.705  10.379 -0.2014  0.1753  0.7897
   90SAPS   H4R 8719   4.367   5.674  10.459  0.6092 -2.6164  0.5086
   90SAPS   H4S 8720   4.495   5.615  10.351 -1.4196 -0.0026 -1.3670
   90SAPS   C25 8721   4.357   5.764  10.259  0.1836 -0.5330  0.2532
   90SAPS   H5R 8722   4.273   5.829  10.288 -0.5298 -1.5493  0.5223
   90SAPS   C26 8723   4.378   5.748  10.129  0.8555 -0.2058 -0.3816
   90SAPS   H6R 8724   4.292   5.767  10.063  1.8657  0.8060 -1.4364
   90SAPS   C27 8725   4.487   5.664  10.070 -0.0760 -0.3426  0.4662
   90SAPS   H7R 8726   4.452   5.560  10.056 -0.5185  0.0945 -2.1513
   90SAPS   H7S 8727   4.569   5.676  10.144 -0.3901 -3.0531  1.3743
   90SAPS   C28 8728   4.528   5.714   9.929 -0.0858 -0.7457  0.3783
   90SAPS   H8R 8729   4.582   5.810   9.934  0.1964 -0.8451 -0.5696
   90SAPS   C29 8730   4.510   5.653   9.808  0.2279  0.0208  0.0799
   90SAPS   H9R 8731   4.559   5.702   9.722 -0.9117  1.6301  0.3154
   90SAPS  C210 8732   4.464   5.512   9.767  0.5942 -0.1738  0.4576
   90SAPS  H10R 8733   4.391   5.516   9.682 -0.7548 -1.2604  1.5110
   90SAPS  H10S 8734   4.413   5.476   9.859  1.5403 -1.6076  0.4431
   90SAPS  C211 8735   4.585   5.432   9.743 -1.3607  0.5088  0.6896
   90SAPS  H11R 8736   4.619   5.379   9.833 -2.4583 -0.4504  0.5551
   90SAPS  C212 8737   4.644   5.406   9.622 -0.8200 -0.2485  0.3117
   90SAPS  H12R 8738   4.736   5.347   9.625 -2.4984 -3.0296  1.2410
   90SAPS  C213 8739   4.586   5.450   9.489 -0.1612  0.4013 -0.0928
   90SAPS  H13R 8740   4.517   5.536   9.494 -1.9458 -1.0173  3.8909
   90SAPS  H13S 8741   4.526   5.370   9.439  1.3975 -1.2652  0.5730
   90SAPS  C214 8742   4.704   5.477   9.389  0.2454 -0.0144 -1.0183
   90SAPS  H14R 8743   4.735   5.582   9.380 -2.4561  1.0638  0.7031
   90SAPS  C215 8744   4.769   5.394   9.303 -0.9019  0.0295 -0.2108
   90SAPS  H15R 8745   4.835   5.443   9.230 -0.4817  0.5767  0.5260
   90SAPS  C216 8746   4.736   5.248   9.281 -0.0687  0.0559 -0.4176
   90SAPS  H16R 8747   4.772   5.211   9.183  4.6928  0.0025  1.0604
   90SAPS  H16S 8748   4.626   5.237   9.277  0.0313 -0.6056 -1.3331
   90SAPS  C217 8749   4.817   5.176   9.385 -0.0367  0.8301 -0.2226
   90SAPS  H17R 8750   4.839   5.232   9.478  2.6168 -1.3775  0.6213
   90SAPS  H17S 8751   4.920   5.156   9.348  0.0074  0.9941 -0.1869
   90SAPS  C218 8752   4.742   5.046   9.432 -0.6483 -0.1053 -0.5918
   90SAPS  H18R 8753   4.689   5.006   9.342 -2.7262  0.1837  0.4497
   90SAPS  H18S 8754   4.659   5.083   9.496 -0.1318  2.3490 -1.2192
   90SAPS  C219 8755   4.842   4.945   9.492 -0.9331 -0.3212  0.1209
   90SAPS  H19R 8756   4.888   4.990   9.583  0.9788 -2.3265  0.2272
   90SAPS  H19S 8757   4.930   4.935   9.424 -2.1241 -0.9917 -1.3653
   90SAPS  C220 8758   4.771   4.815   9.519 -0.0071 -0.3313 -0.3661
   90SAPS  H20R 8759   4.718   4.835   9.615  0.2399 -2.1736  0.2043
   90SAPS  H20S 8760   4.841   4.731   9.537  0.0210 -0.3726 -0.6634
   90SAPS  H20T 8761   4.697   4.790   9.440 -0.3016  0.0366 -0.2081
   90SAPS   C33 8762   4.992   6.113  10.114  0.0639  0.3990 -0.3483
   90SAPS   H3X 8763   5.085   6.163  10.149 -0.2016  1.0823 -0.6031
   90SAPS   H3Y 8764   4.917   6.161  10.180 -0.5233 -0.9922  0.0431
   90SAPS   C34 8765   4.941   6.139   9.970 -0.2615  0.2499 -0.6464
   90SAPS   H4X 8766   4.915   6.248   9.969  0.5195  0.4824  1.0666
   90SAPS   H4Y 8767   4.852   6.075   9.953  0.0636 -0.2912 -0.2929
   90SAPS   C35 8768   5.041   6.117   9.856 -0.0105 -0.1143  0.0922
   90SAPS   H5X 8769   5.077   6.012   9.868 -0.0483 -0.1762 -0.3080
   90SAPS   H5Y 8770   5.137   6.171   9.871  0.1493 -1.1770  3.7451
   90SAPS   C36 8771   4.994   6.133   9.718 -0.2855  0.6559  0.3584
   90SAPS   H6X 8772   4.902   6.193   9.729 -0.8350 -0.5434  2.9756
   90SAPS   H6Y 8773   4.960   6.038   9.671 -1.2303  0.7806  0.7670
   90SAPS   C37 8774   5.109   6.187   9.630  0.4708 -0.4306 -0.3319
   90SAPS   H7X 8775   5.135   6.290   9.662  0.3677 -0.3404 -0.5352
   90SAPS   H7Y 8776   5.059   6.219   9.536  0.8082  0.3846 -0.2383
   90SAPS   C38 8777   5.221   6.088   9.609  0.1532 -0.2350 -0.8117
   90SAPS   H8X 8778   5.178   6.006   9.547 -0.4860  0.2478 -1.0202
   90SAPS   H8Y 8779   5.237   6.039   9.707 -1.3949 -1.1609 -0.9879
   90SAPS   C39 8780   5.348   6.134   9.549  0.2319  0.1544 -0.7972
   90SAPS   H9X 8781   5.415   6.046   9.560  0.0804  0.3493  2.5708
   90SAPS   H9Y 8782   5.381   6.217   9.615  0.4996  0.6874 -1.5854
   90SAPS  C310 8783   5.334   6.181   9.405 -0.6413 -0.7460  0.3227
   90SAPS  H10X 8784   5.252   6.254   9.388  0.0181  0.1556  0.9096
   90SAPS  H10Y 8785   5.327   6.093   9.337  2.1796 -1.0095  0.2851
   90SAPS  C311 8786   5.462   6.263   9.369  0.5123  0.1829  0.1374
   90SAPS  H11X 8787   5.542   6.187   9.383  1.0178  0.9037  1.4360
   90SAPS  H11Y 8788   5.481   6.350   9.436 -0.7732  0.4867  0.1390
   90SAPS  C312 8789   5.466   6.315   9.220 -0.8140 -0.2482 -0.5834
   90SAPS  H12X 8790   5.403   6.406   9.224 -0.3979  0.0091  0.2221
   90SAPS  H12Y 8791   5.417   6.239   9.155  0.6558 -2.8872  1.2145
   90SAPS  C313 8792   5.608   6.349   9.171  0.4201  0.6727 -0.2926
   90SAPS  H13X 8793   5.685   6.281   9.215 -1.1236 -0.7261  0.3431
   90SAPS  H13Y 8794   5.639   6.447   9.213  1.2682  0.7627 -1.1021
   90SAPS  C314 8795   5.620   6.328   9.023  0.1609  0.4854  0.4185
   90SAPS  H14X 8796   5.568   6.410   8.968  0.5090 -0.7302 -1.8776
   90SAPS  H14Y 8797   5.572   6.237   8.982  2.0819 -0.6609  0.5682
   90SAPS  C315 8798   5.761   6.318   8.963 -0.1254 -0.0124  0.3160
   90SAPS  H15X 8799   5.763   6.338   8.854  1.7554  2.9430  0.7644
   90SAPS  H15Y 8800   5.791   6.211   8.971  1.2972  0.0742 -2.4762
   90SAPS  C316 8801   5.870   6.413   9.024  0.9158  0.3899 -0.1788
   90SAPS  H16X 8802   5.978   6.391   9.005  1.5596  2.7421  0.4336
   90SAPS  H16Y 8803   5.859   6.405   9.135 -1.1891  1.6881 -0.2483
   90SAPS  C317 8804   5.843   6.562   8.999 -0.5717  0.2394  0.4417
   90SAPS  H17X 8805   5.943   6.609   9.012 -0.6004 -0.0966  2.0959
   90SAPS  H17Y 8806   5.777   6.605   9.078  0.6216  1.0123  1.0429
   90SAPS  C318 8807   5.804   6.592   8.856  0.0733 -0.0071 -0.0416
   90SAPS  H18X 8808   5.816   6.701   8.840  3.1557  0.1367  2.2446
   90SAPS  H18Y 8809   5.699   6.567   8.832  0.5888 -0.1815 -2.3150
   90SAPS  H18Z 8810   5.869   6.532   8.788 -0.2437 -1.5891  0.9771
   91SAPS     N 8811   0.077   5.990   5.886 -0.2539  0.4220  0.1565
   91SAPS   HN1 8812   0.075   6.038   5.794  2.2391  1.0275  0.3273
   91SAPS   HN2 8813   0.023   5.902   5.885 -0.5384  0.5184  2.0486
   91SAPS   HN3 8814   0.029   6.052   5.954 -1.9621 -0.1009 -0.5303
   91SAPS   C12 8815   0.214   5.961   5.930  0.1934  0.1336  0.2504
   91SAPS  H12A 8816   0.242   5.892   5.851 -1.4107  2.0812 -2.1883
   91SAPS   C13 8817   0.309   6.082   5.933 -0.2615 -0.8275 -0.2772
   91SAPS  O13A 8818   0.268   6.201   5.921  0.4882  0.4141  0.1226
   91SAPS  O13B 8819   0.423   6.055   5.979 -0.2776  0.2661  0.3577
   91SAPS   C11 8820   0.214   5.901   6.080  0.4684  0.0801 -0.1525
   91SAPS  H11A 8821   0.197   5.995   6.136  0.6830  1.7434 -2.7004
   91SAPS  H11B 8822   0.318   5.863   6.086  1.4801  2.8086  1.4575
   91SAPS     P 8823   0.045   5.766   6.237 -0.2217 -0.1179 -0.0311
   91SAPS   O13 8824  -0.023   5.883   6.297  0.0304 -0.4348  0.4032
   91SAPS   O14 8825  -0.036   5.643   6.214  0.1596 -0.3291  0.0593
   91SAPS   O12 8826   0.106   5.803   6.102 -0.1561 -0.6736  0.7957
   91SAPS   O11 8827   0.164   5.733   6.326 -0.9663 -0.7577  0.0133
   91SAPS    C1 8828   0.152   5.625   6.421  0.1044  0.7565 -0.3254
   91SAPS    HA 8829   0.106   5.534   6.377  0.8298 -0.0442  0.5201
   91SAPS    HB 8830   0.252   5.583   6.446 -0.2969  0.5239  0.9737
   91SAPS    C2 8831   0.082   5.663   6.559  0.0013 -0.0851  0.5248
   91SAPS    HS 8832  -0.015   5.696   6.517  1.0658 -0.9290 -2.8668
   91SAPS   O21 8833   0.155   5.780   6.610 -0.3296 -0.1854  0.4200
   91SAPS   C21 8834   0.075   5.842   6.701 -0.2521  0.5888 -0.2584
   91SAPS   O22 8835  -0.043   5.813   6.718 -0.3042  0.6701 -1.0363
   91SAPS   C22 8836   0.141   5.970   6.760  0.7377 -0.3581 -0.9001
   91SAPS   H2R 8837   0.109   6.057   6.698 -1.3695  0.8446  1.6692
   91SAPS   H2S 8838   0.100   5.986   6.861  1.5182  2.5752 -0.9610
   91SAPS    C3 8839   0.057   5.551   6.658 -0.2304 -0.0335 -0.0528
   91SAPS    HX 8840   0.004   5.463   6.614  2.5282 -3.1238  2.2727
   91SAPS    HY 8841  -0.011   5.575   6.743 -1.2751 -0.1369 -0.8371
   91SAPS   O31 8842   0.183   5.493   6.695  0.0363 -0.1887 -0.1204
   91SAPS   C31 8843   0.175   5.403   6.794  0.5412 -0.1467 -0.2767
   91SAPS   O32 8844   0.066   5.373   6.847 -0.1414  0.4001  0.2508
   91SAPS   C32 8845   0.320   5.353   6.816  0.1490 -0.3881 -0.2962
   91SAPS   H2X 8846   0.383   5.359   6.725  0.7011  1.4531  0.1514
   91SAPS   H2Y 8847   0.305   5.246   6.841  2.9459 -0.9813 -0.8983
   91SAPS   C23 8848   0.294   5.967   6.750  0.1233  0.2938  0.2529
   91SAPS   H3R 8849   0.332   6.066   6.783 -0.7455  0.8081 -0.2461
   91SAPS   H3S 8850   0.326   5.960   6.644  0.4704  0.1313  0.3688
   91SAPS   C24 8851   0.357   5.850   6.834 -0.1363 -0.5448  0.3217
   91SAPS   H4R 8852   0.463   5.837   6.802  0.1046 -0.9464  1.2615
   91SAPS   H4S 8853   0.312   5.750   6.822 -0.3626 -0.8535  3.0764
   91SAPS   C25 8854   0.352   5.898   6.982  0.4934 -0.1367  0.0184
   91SAPS   H5R 8855   0.419   5.984   6.995 -1.3262  1.3490 -0.0574
   91SAPS   C26 8856   0.261   5.866   7.073 -0.4682  0.1251 -0.2417
   91SAPS   H6R 8857   0.278   5.912   7.172 -1.5367  0.6650 -0.2932
   91SAPS   C27 8858   0.145   5.769   7.076  0.2745  0.6908 -0.1915
   91SAPS   H7R 8859   0.167   5.686   7.147 -3.2697 -0.5823 -0.3763
   91SAPS   H7S 8860   0.128   5.724   6.976 -1.0399  0.3474  0.1587
   91SAPS   C28 8861   0.009   5.819   7.116  0.0642 -0.9850  0.8402
   91SAPS   H8R 8862  -0.059   5.844   7.033 -0.4521  1.3795  1.8979
   91SAPS   C29 8863  -0.030   5.852   7.240 -0.2887  0.2211 -0.4206
   91SAPS   H9R 8864  -0.133   5.888   7.243  0.4724  2.7346 -1.4498
   91SAPS  C210 8865   0.052   5.845   7.371  0.1343  0.0073  0.0270
   91SAPS  H10R 8866   0.151   5.796   7.362 -0.1017 -0.3634 -0.6178
   91SAPS  H10S 8867   0.000   5.782   7.446  0.2949  2.2808  2.1567
   91SAPS  C211 8868   0.058   5.980   7.439  0.4496 -0.0310 -0.5040
   91SAPS  H11R 8869   0.072   6.075   7.386 -1.3616  1.8563  2.1870
   91SAPS  C212 8870   0.052   5.997   7.571  0.0080 -0.6524 -0.1578
   91SAPS  H12R 8871   0.073   6.098   7.609  0.1527 -0.5245 -0.5720
   91SAPS  C213 8872   0.046   5.892   7.681 -1.2171  0.3771  0.3350
   91SAPS  H13R 8873  -0.007   5.802   7.644  0.3122  0.5565 -2.6704
   91SAPS  H13S 8874  -0.015   5.924   7.767 -1.1187 -0.4959  0.7386
   91SAPS  C214 8875   0.187   5.853   7.731 -0.7297 -0.7082 -0.4087
   91SAPS  H14R 8876   0.258   5.828   7.650  0.5114 -0.7191  0.6517
   91SAPS  C215 8877   0.230   5.852   7.858  0.3923 -0.5217 -0.0014
   91SAPS  H15R 8878   0.332   5.819   7.884  0.3721 -0.3823  0.2546
   91SAPS  C216 8879   0.152   5.885   7.978 -0.0696  0.7499  0.2651
   91SAPS  H16R 8880   0.166   5.813   8.061  0.4510 -0.7205 -1.0657
   91SAPS  H16S 8881   0.043   5.890   7.956  0.1784  0.1413 -1.2034
   91SAPS  C217 8882   0.178   6.023   8.042 -0.0130  0.3755  0.3636
   91SAPS  H17R 8883   0.186   6.104   7.967  1.3518  0.2260  0.3225
   91SAPS  H17S 8884   0.277   6.028   8.092  0.4073 -0.5208 -0.3491
   91SAPS  C218 8885   0.060   6.057   8.145 -0.0908 -0.0504  1.0000
   91SAPS  H18R 8886   0.052   5.977   8.221 -1.1731 -0.2056  0.7316
   91SAPS  H18S 8887  -0.030   6.063   8.081 -0.4740 -0.1333  1.5309
   91SAPS  C219 8888   0.075   6.193   8.206  0.2873 -0.7717 -0.0452
   91SAPS  H19R 8889   0.078   6.271   8.127 -1.5898 -0.0811  0.5038
   91SAPS  H19S 8890   0.172   6.200   8.260  0.3332 -3.0831  0.2889
   91SAPS  C220 8891  -0.035   6.224   8.301 -0.1500  0.2117  0.0577
   91SAPS  H20R 8892  -0.043   6.137   8.370  1.1134 -0.1434 -0.2194
   91SAPS  H20S 8893  -0.135   6.231   8.253 -1.7540 -0.5899  3.0242
   91SAPS  H20T 8894  -0.008   6.312   8.362 -1.6643  0.6968  0.0699
   91SAPS   C33 8895   0.393   5.417   6.932  0.0003  0.0417  0.6411
   91SAPS   H3X 8896   0.431   5.517   6.903  0.6649 -0.4685 -0.3052
   91SAPS   H3Y 8897   0.485   5.356   6.942 -0.3440 -0.3267  1.6492
   91SAPS   C34 8898   0.322   5.437   7.063  0.1700 -0.4255 -0.2680
   91SAPS   H4X 8899   0.237   5.503   7.034  1.5468  1.7733  0.4587
   91SAPS   H4Y 8900   0.375   5.493   7.143 -0.8135  0.0333  0.0845
   91SAPS   C35 8901   0.266   5.305   7.114  0.0226  0.0331 -0.5732
   91SAPS   H5X 8902   0.338   5.224   7.093 -0.3277  0.0010 -1.7330
   91SAPS   H5Y 8903   0.180   5.271   7.053  1.5998 -0.4817 -2.6028
   91SAPS   C36 8904   0.244   5.311   7.267  0.6224 -0.2009 -0.4905
   91SAPS   H6X 8905   0.334   5.354   7.317 -0.1544  1.9189 -0.8579
   91SAPS   H6Y 8906   0.231   5.211   7.314 -1.2910  1.1703  2.1323
   91SAPS   C37 8907   0.121   5.397   7.303  0.6133  0.4888 -0.2276
   91SAPS   H7X 8908   0.029   5.350   7.265  1.9987 -1.4732 -1.2730
   91SAPS   H7Y 8909   0.145   5.499   7.266  1.4348  0.8400  1.1863
   91SAPS   C38 8910   0.097   5.422   7.450 -0.5957 -0.4154  0.0540
   91SAPS   H8X 8911   0.069   5.328   7.502 -0.1725 -0.3030  0.4943
   91SAPS   H8Y 8912   0.004   5.481   7.462 -0.5060 -0.0852 -0.7764
   91SAPS   C39 8913   0.209   5.496   7.524 -0.3165  0.1209  0.5105
   91SAPS   H9X 8914   0.190   5.603   7.503  1.4499  0.2527 -0.6846
   91SAPS   H9Y 8915   0.311   5.474   7.485 -0.4800 -2.2100  1.1949
   91SAPS  C310 8916   0.203   5.476   7.677  0.6955  0.7346 -0.1171
   91SAPS  H10X 8917   0.097   5.489   7.708  0.3847 -0.2537 -0.7304
   91SAPS  H10Y 8918   0.263   5.558   7.722 -0.5886  1.3397  0.5705
   91SAPS  C311 8919   0.249   5.342   7.740 -0.3897 -0.4738 -0.0317
   91SAPS  H11X 8920   0.355   5.332   7.707  0.3715  1.6332  1.5959
   91SAPS  H11Y 8921   0.195   5.261   7.687 -0.6167 -2.0130  2.4018
   91SAPS  C312 8922   0.224   5.327   7.890 -0.1625  0.2839  0.4266
   91SAPS  H12X 8923   0.256   5.223   7.914 -0.0501  0.2274  0.0516
   91SAPS  H12Y 8924   0.116   5.349   7.902 -0.5646  0.2093 -2.2812
   91SAPS  C313 8925   0.307   5.429   7.962 -0.2473  0.2384 -0.3251
   91SAPS  H13X 8926   0.270   5.531   7.940 -1.4501  0.0522  0.7361
   91SAPS  H13Y 8927   0.411   5.423   7.923 -0.9344  0.1559 -2.2836
   91SAPS  C314 8928   0.301   5.418   8.119 -0.0838  0.1378  0.2875
   91SAPS  H14X 8929   0.318   5.314   8.154  1.8823 -0.5661 -2.4704
   91SAPS  H14Y 8930   0.197   5.447   8.147 -0.6665 -0.8933 -0.7524
   91SAPS  C315 8931   0.389   5.522   8.181 -0.1841  0.6424 -0.3839
   91SAPS  H15X 8932   0.360   5.620   8.138 -0.5740 -0.0045 -1.6582
   91SAPS  H15Y 8933   0.492   5.498   8.148 -0.5882  0.5933 -1.6597
   91SAPS  C316 8934   0.389   5.512   8.336 -0.9548 -0.2546 -0.0519
   91SAPS  H16X 8935   0.421   5.408   8.361 -0.7747 -0.3860 -0.8210
   91SAPS  H16Y 8936   0.283   5.515   8.369 -1.0000 -2.5295  0.1776
   91SAPS  C317 8937   0.480   5.604   8.414  0.3504 -0.5782  0.1664
   91SAPS  H17X 8938   0.460   5.708   8.379  1.1149 -0.7426 -0.8105
   91SAPS  H17Y 8939   0.587   5.588   8.389  0.1661 -1.2238 -0.2207
   91SAPS  C318 8940   0.463   5.602   8.566 -0.2270  0.1520 -0.1648
   91SAPS  H18X 8941   0.554   5.647   8.611 -0.9137 -0.5948  2.0821
   91SAPS  H18Y 8942   0.449   5.501   8.612  0.6006  0.9613  2.0033
   91SAPS  H18Z 8943   0.383   5.671   8.598  0.6991  0.5523  1.3922
   92SAPS     N 8944   1.069   4.174   6.438 -0.1811  0.0127  0.5579
   92SAPS   HN1 8945   0.976   4.145   6.475  0.5539 -2.3874  0.6294
   92SAPS   HN2 8946   1.122   4.087   6.416  1.9779  1.0724  1.2648
   92SAPS   HN3 8947   1.119   4.217   6.518 -1.2639  0.7237  0.8828
   92SAPS   C12 8948   1.054   4.269   6.318 -0.6495 -0.3401  0.0203
   92SAPS  H12A 8949   1.154   4.274   6.279  0.0744 -2.0866  1.5600
   92SAPS   C13 8950   0.951   4.222   6.213 -0.2377  0.2393  0.0148
   92SAPS  O13A 8951   0.870   4.129   6.243 -0.6354  0.1660 -0.2638
   92SAPS  O13B 8952   0.936   4.292   6.110  0.3546 -0.0178 -0.2579
   92SAPS   C11 8953   1.001   4.401   6.363  0.2830  0.1781 -0.5782
   92SAPS  H11A 8954   0.900   4.385   6.407  1.1119 -1.3476  0.8971
   92SAPS  H11B 8955   0.994   4.472   6.278 -1.2288  3.0851  1.7931
   92SAPS     P 8956   1.050   4.598   6.509  0.2120 -0.1568 -0.4410
   92SAPS   O13 8957   1.150   4.648   6.609 -0.6245 -0.1349  0.0054
   92SAPS   O14 8958   1.036   4.675   6.383  0.8010 -0.8215 -0.7036
   92SAPS   O12 8959   1.082   4.447   6.469 -0.1074  0.3250  0.6948
   92SAPS   O11 8960   0.904   4.592   6.581  1.0572  0.0485 -0.3004
   92SAPS    C1 8961   0.883   4.495   6.687 -0.0831 -0.6581 -0.0425
   92SAPS    HA 8962   0.928   4.399   6.656  3.3443  0.6271  0.5164
   92SAPS    HB 8963   0.930   4.529   6.782 -0.9064 -0.4664  0.2993
   92SAPS    C2 8964   0.728   4.473   6.715  0.5083 -0.0236  0.1171
   92SAPS    HS 8965   0.685   4.462   6.613  0.0612 -0.9228  0.3906
   92SAPS   O21 8966   0.668   4.579   6.793  0.1020 -0.6095  0.4796
   92SAPS   C21 8967   0.563   4.636   6.736  0.5177 -0.5776 -0.5636
   92SAPS   O22 8968   0.509   4.614   6.628 -0.3744 -0.3156 -0.3596
   92SAPS   C22 8969   0.515   4.739   6.839 -0.0197  0.2956 -0.6084
   92SAPS   H2R 8970   0.447   4.688   6.911 -0.4163 -1.1092 -1.9135
   92SAPS   H2S 8971   0.602   4.771   6.899 -1.5694  0.5153  1.6273
   92SAPS    C3 8972   0.702   4.342   6.798 -0.2629  0.7970 -0.9743
   92SAPS    HX 8973   0.725   4.254   6.735  0.4518  0.9870 -0.9894
   92SAPS    HY 8974   0.593   4.333   6.820 -0.0627 -0.0258 -0.2961
   92SAPS   O31 8975   0.798   4.340   6.908 -0.0803 -0.6219 -0.1243
   92SAPS   C31 8976   0.730   4.341   7.020 -0.3275  0.6849 -0.4615
   92SAPS   O32 8977   0.607   4.347   7.032 -0.2237  0.0553  0.5864
   92SAPS   C32 8978   0.834   4.345   7.127 -0.3733  0.6313 -0.2940
   92SAPS   H2X 8979   0.877   4.447   7.118  1.7800 -0.3239 -1.8132
   92SAPS   H2Y 8980   0.917   4.276   7.100 -0.2028  0.7115  0.0203
   92SAPS   C23 8981   0.440   4.860   6.772 -0.2270 -0.1031 -0.4380
   92SAPS   H3R 8982   0.350   4.828   6.716 -0.5556  0.4683 -0.2539
   92SAPS   H3S 8983   0.505   4.910   6.696  1.9927 -0.2546  1.2396
   92SAPS   C24 8984   0.400   4.963   6.882  0.3298  0.1462 -0.1103
   92SAPS   H4R 8985   0.379   5.057   6.826  1.2205  0.7328  0.5269
   92SAPS   H4S 8986   0.496   4.976   6.936 -0.5088  1.0323  1.2362
   92SAPS   C25 8987   0.271   4.937   6.969 -0.4658  1.1403  0.2644
   92SAPS   H5R 8988   0.182   4.927   6.905  0.6653  0.1690 -1.2411
   92SAPS   C26 8989   0.253   4.904   7.095 -1.0357 -0.7908 -0.6379
   92SAPS   H6R 8990   0.149   4.906   7.131 -0.4075 -0.8039  1.3017
   92SAPS   C27 8991   0.360   4.893   7.202 -0.1055 -0.2196 -0.5745
   92SAPS   H7R 8992   0.370   4.988   7.259 -1.3199  0.0843 -0.8310
   92SAPS   H7S 8993   0.460   4.887   7.155  0.0719  0.1437 -0.2478
   92SAPS   C28 8994   0.330   4.767   7.281  0.2514  0.3992 -0.0520
   92SAPS   H8R 8995   0.267   4.694   7.228  1.7544 -1.4365  0.6066
   92SAPS   C29 8996   0.386   4.746   7.405  0.2009 -0.4240 -0.0464
   92SAPS   H9R 8997   0.352   4.657   7.461 -0.4967 -0.1129  0.0249
   92SAPS  C210 8998   0.482   4.836   7.470 -0.4423 -0.3510 -0.2200
   92SAPS  H10R 8999   0.430   4.892   7.551  1.5132  1.8640 -0.3879
   92SAPS  H10S 9000   0.514   4.916   7.400  1.3406  1.8256  2.7980
   92SAPS  C211 9001   0.593   4.754   7.529  0.3847  0.5246  0.0069
   92SAPS  H11R 9002   0.642   4.682   7.461  1.0237 -0.4786  1.4712
   92SAPS  C212 9003   0.641   4.764   7.655  0.0931 -0.5225 -0.2981
   92SAPS  H12R 9004   0.727   4.700   7.678 -1.1007 -2.4426 -0.9369
   92SAPS  C213 9005   0.594   4.852   7.765 -0.1865 -0.0922 -0.1218
   92SAPS  H13R 9006   0.486   4.834   7.787 -0.6812  0.5175 -1.9335
   92SAPS  H13S 9007   0.598   4.958   7.734 -2.5130  0.1467  0.1728
   92SAPS  C214 9008   0.688   4.836   7.883  0.0080 -0.1318 -0.1267
   92SAPS  H14R 9009   0.796   4.820   7.871  0.5506  1.5970  1.7587
   92SAPS  C215 9010   0.653   4.855   8.010  0.0787 -0.1591  0.5183
   92SAPS  H15R 9011   0.727   4.838   8.090  1.7707 -0.4916 -1.0448
   92SAPS  C216 9012   0.518   4.908   8.062 -0.1462 -0.5349 -0.6077
   92SAPS  H16R 9013   0.464   4.949   7.974 -2.9980 -2.1708  0.2477
   92SAPS  H16S 9014   0.538   4.994   8.129 -1.3196  0.2365 -1.2021
   92SAPS  C217 9015   0.447   4.795   8.144  0.0681  0.0126 -0.0969
   92SAPS  H17R 9016   0.407   4.705   8.094 -2.9035  0.4701  1.2749
   92SAPS  H17S 9017   0.351   4.829   8.187 -0.4195 -1.5472  0.0790
   92SAPS  C218 9018   0.526   4.744   8.267  0.5019 -0.2331  0.4796
   92SAPS  H18R 9019   0.566   4.839   8.308 -0.0763  1.9050 -3.4127
   92SAPS  H18S 9020   0.606   4.674   8.235  0.1267 -1.2411  1.6662
   92SAPS  C219 9021   0.434   4.667   8.361 -0.1155 -0.3380  0.1132
   92SAPS  H19R 9022   0.375   4.598   8.296  0.4260  0.8222 -1.6854
   92SAPS  H19S 9023   0.373   4.735   8.424  1.1985 -1.0705  2.2723
   92SAPS  C220 9024   0.515   4.577   8.452 -0.0031 -0.5485  0.2194
   92SAPS  H20R 9025   0.592   4.534   8.384  1.3888 -0.3674  1.6118
   92SAPS  H20S 9026   0.451   4.492   8.482  1.9334 -2.2038 -0.1339
   92SAPS  H20T 9027   0.570   4.631   8.532 -0.0939 -1.6038  1.0147
   92SAPS   C33 9028   0.780   4.327   7.268  0.6760  0.1615  0.0400
   92SAPS   H3X 9029   0.729   4.228   7.272  1.8002 -0.4078  0.8600
   92SAPS   H3Y 9030   0.715   4.415   7.290  1.5823  0.4960  1.5633
   92SAPS   C34 9031   0.891   4.335   7.374  0.3358  0.5374  0.5825
   92SAPS   H4X 9032   0.950   4.427   7.354  1.6640 -0.1187  1.3003
   92SAPS   H4Y 9033   0.958   4.247   7.367 -1.0112 -0.4994  0.4273
   92SAPS   C35 9034   0.826   4.333   7.513  0.5549  0.1586 -1.1541
   92SAPS   H5X 9035   0.782   4.233   7.530  1.3653 -0.1640 -0.8888
   92SAPS   H5Y 9036   0.739   4.400   7.505 -1.1783 -1.7957  0.2786
   92SAPS   C36 9037   0.916   4.378   7.628 -0.0667 -0.1944  0.2868
   92SAPS   H6X 9038   0.981   4.459   7.589 -0.7853 -0.6410 -1.9938
   92SAPS   H6Y 9039   1.000   4.310   7.653  0.9511  1.3902  1.3125
   92SAPS   C37 9040   0.849   4.393   7.768  0.9554  0.1576 -0.6289
   92SAPS   H7X 9041   0.792   4.299   7.779 -0.4971  1.1233  0.5715
   92SAPS   H7Y 9042   0.770   4.471   7.762 -0.6336 -1.3302  0.1268
   92SAPS   C38 9043   0.937   4.404   7.896  0.5392 -0.1513  0.8305
   92SAPS   H8X 9044   1.023   4.472   7.880 -1.4221  1.6875 -3.6264
   92SAPS   H8Y 9045   0.976   4.307   7.933  0.9174  0.1602  1.2563
   92SAPS   C39 9046   0.854   4.464   8.012 -0.9233  0.0142 -0.6899
   92SAPS   H9X 9047   0.758   4.408   8.017 -1.0985  0.3672  0.0274
   92SAPS   H9Y 9048   0.841   4.573   7.998  1.9555  0.9632  2.5830
   92SAPS  C310 9049   0.918   4.432   8.145 -0.3372 -0.3513 -0.5890
   92SAPS  H10X 9050   1.018   4.480   8.142 -0.7037  0.4028 -1.7395
   92SAPS  H10Y 9051   0.944   4.324   8.151  0.6078 -0.3801 -3.5872
   92SAPS  C311 9052   0.840   4.474   8.262  0.1341  0.4607  0.9219
   92SAPS  H11X 9053   0.733   4.447   8.250  0.4519  0.0989 -1.4397
   92SAPS  H11Y 9054   0.840   4.585   8.270 -1.6482  0.7273 -1.6755
   92SAPS  C312 9055   0.877   4.411   8.399  0.2923  0.1652 -0.1676
   92SAPS  H12X 9056   0.832   4.312   8.421  0.8580 -0.0991 -0.1685
   92SAPS  H12Y 9057   0.839   4.478   8.479  0.2633  0.1759 -0.1916
   92SAPS  C313 9058   1.028   4.391   8.422  0.6409  0.0643 -0.1942
   92SAPS  H13X 9059   1.075   4.487   8.393 -0.5061 -0.4474 -4.2823
   92SAPS  H13Y 9060   1.063   4.305   8.361  0.3260 -1.3626  1.5346
   92SAPS  C314 9061   1.058   4.352   8.566  0.9832  0.2774 -0.2586
   92SAPS  H14X 9062   1.166   4.327   8.572  0.5450 -2.3449 -1.6284
   92SAPS  H14Y 9063   1.002   4.261   8.598 -2.8541  2.7139  0.6520
   92SAPS  C315 9064   1.035   4.463   8.670  0.3259  0.7686  0.3971
   92SAPS  H15X 9065   0.933   4.506   8.659  0.3739  0.2276 -3.4583
   92SAPS  H15Y 9066   1.093   4.552   8.636 -0.1860  1.2307  0.7178
   92SAPS  C316 9067   1.063   4.415   8.816  0.5253  0.7472 -0.1998
   92SAPS  H16X 9068   1.151   4.348   8.822  0.2836  0.1763 -2.3037
   92SAPS  H16Y 9069   0.974   4.368   8.864  2.7292 -1.4521  2.0273
   92SAPS  C317 9070   1.104   4.523   8.918 -0.6563 -0.3682  0.3536
   92SAPS  H17X 9071   1.037   4.611   8.913 -0.9240 -0.4609  1.9129
   92SAPS  H17Y 9072   1.208   4.547   8.886 -0.5963  0.1153  0.8996
   92SAPS  C318 9073   1.109   4.481   9.064  0.0498 -0.1702 -0.1529
   92SAPS  H18X 9074   1.022   4.512   9.125  1.1464  0.1590  1.3059
   92SAPS  H18Y 9075   1.182   4.548   9.114 -2.8631  3.2514 -0.1298
   92SAPS  H18Z 9076   1.125   4.372   9.079 -2.2933 -0.3953  1.1266
   93SAPS     N 9077   3.486   3.883   6.225 -0.1607 -0.8972 -0.2573
   93SAPS   HN1 9078   3.547   3.802   6.249  0.8095  0.4441  2.2345
   93SAPS   HN2 9079   3.482   3.877   6.122  2.4624 -0.0811 -0.4718
   93SAPS   HN3 9080   3.536   3.970   6.253 -0.5809 -0.0606 -1.9663
   93SAPS   C12 9081   3.352   3.868   6.285  0.5448 -0.5927  0.3326
   93SAPS  H12A 9082   3.294   3.956   6.260  0.3672 -0.4957  1.0604
   93SAPS   C13 9083   3.270   3.750   6.224 -0.4308  0.1623 -0.1230
   93SAPS  O13A 9084   3.317   3.675   6.134  0.5896 -0.4180  0.0418
   93SAPS  O13B 9085   3.155   3.737   6.273  0.1428 -0.0708 -0.2168
   93SAPS   C11 9086   3.357   3.846   6.440 -0.8705  0.8264 -0.1581
   93SAPS  H11A 9087   3.374   3.740   6.469  0.9462  1.0239 -0.3969
   93SAPS  H11B 9088   3.252   3.870   6.468 -0.7510  0.2290  0.8272
   93SAPS     P 9089   3.591   3.906   6.554 -0.2810  0.2859 -0.1173
   93SAPS   O13 9090   3.664   3.856   6.441 -0.2074  0.4607  0.2204
   93SAPS   O14 9091   3.652   4.027   6.621 -0.1720  0.2870 -0.1059
   93SAPS   O12 9092   3.441   3.934   6.515 -0.1424 -0.0793 -0.4608
   93SAPS   O11 9093   3.585   3.791   6.663 -0.0117  0.4572  0.0090
   93SAPS    C1 9094   3.504   3.813   6.784  0.2954  0.0971 -0.1984
   93SAPS    HA 9095   3.572   3.782   6.867  1.6956  0.7910 -1.0476
   93SAPS    HB 9096   3.477   3.918   6.804  0.4774  0.2078 -0.5312
   93SAPS    C2 9097   3.374   3.732   6.786 -0.1420  0.7991 -0.5000
   93SAPS    HS 9098   3.381   3.676   6.691  1.2565 -1.9223  1.0997
   93SAPS   O21 9099   3.268   3.830   6.787  0.4940  0.4434 -0.1597
   93SAPS   C21 9100   3.147   3.782   6.743  0.2657 -0.1725 -0.1090
   93SAPS   O22 9101   3.143   3.669   6.693  0.3466 -0.5911 -0.0502
   93SAPS   C22 9102   3.040   3.898   6.744 -0.3243 -0.1455  0.4284
   93SAPS   H2R 9103   3.065   3.959   6.655 -1.5726 -2.1342 -1.3905
   93SAPS   H2S 9104   2.938   3.861   6.717 -1.0562  0.9470  1.5697
   93SAPS    C3 9105   3.362   3.637   6.902  0.0398  0.4441  0.4588
   93SAPS    HX 9106   3.447   3.566   6.896  1.3030  1.8180  1.3820
   93SAPS    HY 9107   3.266   3.588   6.878 -0.5002  1.5374  0.3145
   93SAPS   O31 9108   3.381   3.710   7.028  0.0064  0.4959  0.2465
   93SAPS   C31 9109   3.267   3.701   7.107  0.4830 -0.1077  0.0939
   93SAPS   O32 9110   3.159   3.668   7.063 -0.0629 -0.1827 -0.0046
   93SAPS   C32 9111   3.297   3.760   7.246  0.2646 -0.5051 -0.1666
   93SAPS   H2X 9112   3.366   3.846   7.243  0.7448 -0.9120 -1.6657
   93SAPS   H2Y 9113   3.353   3.674   7.288  1.0791  0.6912  1.2673
   93SAPS   C23 9114   3.034   3.976   6.874  0.1756  0.6997 -0.0364
   93SAPS   H3R 9115   3.132   4.028   6.885  0.8155 -0.3782 -0.4815
   93SAPS   H3S 9116   3.030   3.909   6.962  1.9734  1.9543  1.0583
   93SAPS   C24 9117   2.917   4.084   6.872 -0.5044 -0.3205  1.2022
   93SAPS   H4R 9118   2.898   4.102   6.979 -2.5047 -0.3189  0.8823
   93SAPS   H4S 9119   2.819   4.044   6.839  0.1296 -1.2381  0.3397
   93SAPS   C25 9120   2.954   4.209   6.802  0.2012  0.0086  0.3939
   93SAPS   H5R 9121   3.006   4.191   6.707 -1.0828  0.8437 -0.4894
   93SAPS   C26 9122   2.946   4.335   6.853  0.7409  0.3965  1.1880
   93SAPS   H6R 9123   2.984   4.417   6.790  0.3906 -0.1066  0.2878
   93SAPS   C27 9124   2.876   4.367   6.986 -0.5632 -0.1253 -0.7243
   93SAPS   H7R 9125   2.946   4.401   7.066 -2.0740 -1.4602  1.2727
   93SAPS   H7S 9126   2.816   4.279   7.017 -0.7243  0.1881 -0.1167
   93SAPS   C28 9127   2.779   4.482   6.954  0.2290  0.3545 -0.0549
   93SAPS   H8R 9128   2.793   4.537   6.860  0.2875 -0.9633 -0.8460
   93SAPS   C29 9129   2.692   4.525   7.049  0.5557  0.1014 -0.0057
   93SAPS   H9R 9130   2.631   4.616   7.038  1.8129  0.9267 -0.4417
   93SAPS  C210 9131   2.661   4.464   7.185 -0.3191  0.1485  0.0423
   93SAPS  H10R 9132   2.652   4.354   7.172  0.2566  0.0661  0.3083
   93SAPS  H10S 9133   2.565   4.509   7.218 -0.2911  1.5443 -1.6498
   93SAPS  C211 9134   2.770   4.491   7.285  0.5306 -0.4243  0.2177
   93SAPS  H11R 9135   2.872   4.495   7.246  0.8276 -0.1208  1.0064
   93SAPS  C212 9136   2.759   4.536   7.409 -0.2858  0.3781  0.3195
   93SAPS  H12R 9137   2.847   4.537   7.475 -0.7562 -0.8003  0.9970
   93SAPS  C213 9138   2.632   4.560   7.485  0.5971 -0.2031 -0.2455
   93SAPS  H13R 9139   2.543   4.570   7.418  0.3853 -0.5916 -0.0257
   93SAPS  H13S 9140   2.637   4.662   7.527  1.6958 -0.8397  1.2616
   93SAPS  C214 9141   2.597   4.467   7.598 -0.2576  0.1863  0.1776
   93SAPS  H14R 9142   2.517   4.395   7.572  1.1167 -0.7658 -1.6881
   93SAPS  C215 9143   2.653   4.459   7.717  0.0503 -0.1956 -0.2061
   93SAPS  H15R 9144   2.621   4.378   7.785 -0.2033 -1.1981 -1.4882
   93SAPS  C216 9145   2.756   4.557   7.763 -0.0333 -0.2760  0.3273
   93SAPS  H16R 9146   2.762   4.651   7.704  0.6221 -1.0619 -0.9086
   93SAPS  H16S 9147   2.860   4.519   7.755  0.3824 -0.1542  3.5373
   93SAPS  C217 9148   2.729   4.597   7.913  0.3882  0.0786  0.0793
   93SAPS  H17R 9149   2.726   4.510   7.982  1.7916 -0.9946 -1.1534
   93SAPS  H17S 9150   2.631   4.650   7.911  0.4098  0.1324 -2.1998
   93SAPS  C218 9151   2.825   4.702   7.958 -0.0815 -0.3724  0.0817
   93SAPS  H18R 9152   2.813   4.800   7.907 -0.4507 -0.0446  0.7920
   93SAPS  H18S 9153   2.927   4.664   7.939 -0.0671  0.3489 -1.3978
   93SAPS  C219 9154   2.813   4.732   8.112 -0.5177 -0.4351  0.2580
   93SAPS  H19R 9155   2.873   4.658   8.170 -0.2646 -1.9059 -1.7672
   93SAPS  H19S 9156   2.707   4.719   8.143 -0.1268 -0.5917  1.5886
   93SAPS  C220 9157   2.854   4.874   8.155 -0.2767 -0.0797  0.1286
   93SAPS  H20R 9158   2.852   4.885   8.266 -1.1450  0.4085  0.0736
   93SAPS  H20S 9159   2.780   4.947   8.114 -0.4155 -1.0808 -1.4861
   93SAPS  H20T 9160   2.955   4.901   8.116 -0.0200 -1.1270  0.0579
   93SAPS   C33 9161   3.171   3.771   7.332 -0.1501 -0.1142  0.5449
   93SAPS   H3X 9162   3.194   3.763   7.441  0.1428  1.2954  0.6067
   93SAPS   H3Y 9163   3.111   3.681   7.308  0.2895 -1.4023  3.7617
   93SAPS   C34 9164   3.100   3.905   7.310 -0.5981  0.8753 -0.1043
   93SAPS   H4X 9165   3.042   3.893   7.215  1.1843 -1.6123 -0.9964
   93SAPS   H4Y 9166   3.182   3.980   7.312  1.1618 -0.9357  0.0173
   93SAPS   C35 9167   3.004   3.950   7.417 -0.1580 -0.3180  0.2895
   93SAPS   H5X 9168   3.059   3.921   7.509  0.4705  1.7858  0.6134
   93SAPS   H5Y 9169   2.904   3.903   7.405 -1.4739  2.5013 -0.6557
   93SAPS   C36 9170   2.983   4.105   7.428  0.1177  0.0343  0.3868
   93SAPS   H6X 9171   2.934   4.146   7.337  1.0320  2.1409  0.7804
   93SAPS   H6Y 9172   3.083   4.154   7.427  1.1689 -1.9705  1.0410
   93SAPS   C37 9173   2.904   4.140   7.549 -0.2804  0.2155 -0.0718
   93SAPS   H7X 9174   2.803   4.094   7.540 -0.8073  1.4041 -0.4753
   93SAPS   H7Y 9175   2.891   4.250   7.544 -0.5719  0.2314  0.7868
   93SAPS   C38 9176   2.960   4.091   7.684  0.4490 -0.4072  0.9037
   93SAPS   H8X 9177   3.068   4.105   7.663  0.2739 -0.5214 -0.1314
   93SAPS   H8Y 9178   2.943   3.981   7.686 -0.3480 -0.2863  1.2742
   93SAPS   C39 9179   2.907   4.171   7.805 -0.3641  0.0152  0.2335
   93SAPS   H9X 9180   2.797   4.173   7.798 -0.3327  1.7932 -0.3512
   93SAPS   H9Y 9181   2.939   4.277   7.805  1.2918 -0.4384  1.3928
   93SAPS  C310 9182   2.957   4.109   7.940 -0.1432  0.5368  0.1511
   93SAPS  H10X 9183   3.068   4.102   7.934 -0.2141 -0.2237 -0.4001
   93SAPS  H10Y 9184   2.921   4.004   7.951  1.6344 -0.0187  1.1715
   93SAPS  C311 9185   2.905   4.188   8.058 -0.3213  0.3921 -0.6299
   93SAPS  H11X 9186   2.939   4.294   8.053 -0.5814  0.4157 -2.4976
   93SAPS  H11Y 9187   2.949   4.141   8.149  0.0901  2.3184  0.2154
   93SAPS  C312 9188   2.751   4.182   8.066 -0.9861  0.8530  0.8143
   93SAPS  H12X 9189   2.730   4.074   8.049 -0.4162  0.8272  0.2356
   93SAPS  H12Y 9190   2.707   4.238   7.981  0.2157  0.3467 -0.1699
   93SAPS  C313 9191   2.694   4.215   8.205 -0.2786  0.1329  0.1770
   93SAPS  H13X 9192   2.769   4.175   8.276 -0.6547 -1.5155 -0.3163
   93SAPS  H13Y 9193   2.599   4.163   8.227  1.3208 -2.4740  1.4378
   93SAPS  C314 9194   2.690   4.371   8.216 -0.8487 -0.3475  0.5559
   93SAPS  H14X 9195   2.627   4.426   8.142 -0.1427 -2.8680 -2.0979
   93SAPS  H14Y 9196   2.795   4.406   8.208  0.1593 -2.8541  2.0028
   93SAPS  C315 9197   2.635   4.421   8.355  0.1890 -0.0917 -0.0969
   93SAPS  H15X 9198   2.666   4.527   8.362  1.5560 -0.5204  0.6087
   93SAPS  H15Y 9199   2.705   4.376   8.428  0.7616  0.3840 -0.3462
   93SAPS  C316 9200   2.492   4.391   8.390  0.4651 -0.5741 -0.1216
   93SAPS  H16X 9201   2.446   4.343   8.300  0.9453  0.2986 -0.8541
   93SAPS  H16Y 9202   2.445   4.487   8.420  0.6329 -0.9853  1.5089
   93SAPS  C317 9203   2.478   4.308   8.513 -0.8138 -0.0048 -0.0687
   93SAPS  H17X 9204   2.507   4.373   8.599  0.1897 -2.8086  1.8477
   93SAPS  H17Y 9205   2.540   4.216   8.502  0.7024  0.9693  0.0347
   93SAPS  C318 9206   2.340   4.241   8.528  0.0203  0.2986  0.4525
   93SAPS  H18X 9207   2.338   4.159   8.603  0.1215 -0.2819 -0.1612
   93SAPS  H18Y 9208   2.320   4.193   8.430  2.9428 -0.2451  0.0219
   93SAPS  H18Z 9209   2.265   4.310   8.571 -2.3395 -2.8118  1.7476
   94SAPS     N 9210   2.995   0.866   6.162  0.0507 -0.5746 -0.6730
   94SAPS   HN1 9211   3.087   0.818   6.161 -0.0671 -0.9159 -3.4732
   94SAPS   HN2 9212   3.004   0.950   6.223  0.2728 -1.8922  1.1813
   94SAPS   HN3 9213   2.938   0.806   6.225  2.0399 -1.1218  0.6680
   94SAPS   C12 9214   2.944   0.889   6.018  0.2979  0.2900 -0.5964
   94SAPS  H12A 9215   2.857   0.951   6.013  0.5433  0.6949  0.0890
   94SAPS   C13 9216   3.057   0.948   5.936  0.7094  0.4058  0.4518
   94SAPS  O13A 9217   3.176   0.906   5.954  0.8144 -0.1516  0.4772
   94SAPS  O13B 9218   3.034   1.015   5.834 -0.1170  0.1002  0.0416
   94SAPS   C11 9219   2.908   0.745   5.953 -0.2197  0.2937 -0.4644
   94SAPS  H11A 9220   3.008   0.702   5.931  2.7996  4.3566  3.6220
   94SAPS  H11B 9221   2.860   0.769   5.856 -0.4361  0.0852 -0.4125
   94SAPS     P 9222   2.744   0.540   5.959 -0.3785  0.5294  0.0142
   94SAPS   O13 9223   2.668   0.585   5.840 -0.3076 -0.0405 -0.3833
   94SAPS   O14 9224   2.846   0.440   5.918 -0.3403  0.8053  0.0550
   94SAPS   O12 9225   2.820   0.664   6.027 -0.3614 -0.3635 -0.3752
   94SAPS   O11 9226   2.648   0.491   6.074  0.9971  0.1004  0.0247
   94SAPS    C1 9227   2.539   0.585   6.106  1.1613  0.1402 -0.6321
   94SAPS    HA 9228   2.497   0.640   6.020 -0.3908  1.2662  0.7886
   94SAPS    HB 9229   2.450   0.526   6.137  0.4086 -1.1377 -4.6305
   94SAPS    C2 9230   2.573   0.678   6.229 -0.0455 -0.4535  0.1706
   94SAPS    HS 9231   2.624   0.765   6.183 -1.3598 -0.2312 -0.9230
   94SAPS   O21 9232   2.659   0.616   6.329 -0.5809  0.3576 -0.0605
   94SAPS   C21 9233   2.770   0.673   6.364  0.1027  0.1939 -0.5977
   94SAPS   O22 9234   2.798   0.789   6.344 -0.1257 -0.0204  0.0401
   94SAPS   C22 9235   2.857   0.582   6.447 -0.2293  0.2015  0.8170
   94SAPS   H2R 9236   2.788   0.501   6.480 -0.7535 -0.2314 -1.1957
   94SAPS   H2S 9237   2.921   0.519   6.381  0.4717  0.4871  1.2125
   94SAPS    C3 9238   2.445   0.733   6.297  0.2147  0.5502 -0.0672
   94SAPS    HX 9239   2.388   0.641   6.321  1.5952 -1.1393 -2.8497
   94SAPS    HY 9240   2.395   0.796   6.221 -1.8463 -1.1849 -0.2443
   94SAPS   O31 9241   2.481   0.811   6.418 -0.1349 -0.1794  0.1019
   94SAPS   C31 9242   2.372   0.860   6.479 -0.4397 -0.5667 -0.3903
   94SAPS   O32 9243   2.261   0.833   6.451 -0.3406  0.4683 -0.1211
   94SAPS   C32 9244   2.412   0.947   6.599 -0.3115 -1.0982  0.1368
   94SAPS   H2X 9245   2.424   1.052   6.566 -0.8340 -0.3408  2.1853
   94SAPS   H2Y 9246   2.501   0.903   6.649 -0.4599 -2.5656 -0.8239
   94SAPS   C23 9247   2.922   0.644   6.559  0.1423  0.0941 -0.1932
   94SAPS   H3R 9248   2.847   0.679   6.633 -1.3699  1.0628 -2.0711
   94SAPS   H3S 9249   2.969   0.741   6.531 -1.9910  1.5099  0.8867
   94SAPS   C24 9250   3.034   0.555   6.619 -0.2278 -0.9837  0.8301
   94SAPS   H4R 9251   3.072   0.607   6.709  0.0999 -0.1118  0.1965
   94SAPS   H4S 9252   3.119   0.532   6.551 -1.4790 -0.9233 -0.8086
   94SAPS   C25 9253   2.977   0.424   6.642  0.3071  0.1961 -0.5450
   94SAPS   H5R 9254   2.967   0.360   6.554  1.2964 -0.0144 -0.5248
   94SAPS   C26 9255   2.961   0.373   6.770 -0.4588  0.2574  0.0768
   94SAPS   H6R 9256   2.915   0.273   6.771 -0.4116  0.2246  1.7795
   94SAPS   C27 9257   3.000   0.441   6.902  0.6043 -0.3525 -0.3180
   94SAPS   H7R 9258   3.103   0.481   6.891  1.5947 -2.4517  0.8810
   94SAPS   H7S 9259   3.026   0.365   6.977 -1.6124 -1.4785 -0.5979
   94SAPS   C28 9260   2.916   0.544   6.950  0.2539 -0.1709  0.5513
   94SAPS   H8R 9261   2.853   0.587   6.871  2.1805  0.6854 -0.5814
   94SAPS   C29 9262   2.902   0.594   7.074 -0.4983 -0.3793  1.0650
   94SAPS   H9R 9263   2.820   0.665   7.092 -1.7785 -1.2383 -0.9535
   94SAPS  C210 9264   2.975   0.552   7.196 -0.4698  0.3537  0.3035
   94SAPS  H10R 9265   3.063   0.489   7.173 -1.1021 -1.6419  2.8407
   94SAPS  H10S 9266   2.912   0.486   7.260  2.7016  0.9813  4.5277
   94SAPS  C211 9267   3.028   0.662   7.281  1.1073 -0.5857  1.3032
   94SAPS  H11R 9268   3.057   0.751   7.222 -2.7178  0.2272  0.3516
   94SAPS  C212 9269   3.046   0.656   7.413 -0.1667 -0.7360  0.8165
   94SAPS  H12R 9270   3.089   0.749   7.454  1.9120 -1.4448  0.3958
   94SAPS  C213 9271   3.003   0.550   7.511 -0.2934 -0.6184  0.8472
   94SAPS  H13R 9272   3.028   0.451   7.467  0.0327 -0.9366  1.7319
   94SAPS  H13S 9273   2.895   0.549   7.537 -0.5127 -0.3371 -0.0042
   94SAPS  C214 9274   3.088   0.569   7.634 -0.1574 -0.0002 -0.7468
   94SAPS  H14R 9275   3.158   0.484   7.642  0.1952  0.0200 -3.1167
   94SAPS  C215 9276   3.076   0.652   7.740  0.0460 -0.4074  0.3446
   94SAPS  H15R 9277   3.154   0.648   7.817  0.8807 -2.1319 -0.5466
   94SAPS  C216 9278   2.961   0.753   7.756 -0.4468 -0.2092 -0.2578
   94SAPS  H16R 9279   2.872   0.719   7.698  0.1941 -0.4375 -1.1221
   94SAPS  H16S 9280   2.989   0.846   7.702  2.5996 -1.3393 -0.8131
   94SAPS  C217 9281   2.928   0.770   7.912  0.7523  0.4694  0.6369
   94SAPS  H17R 9282   2.925   0.670   7.960  3.5978  0.0718  0.1348
   94SAPS  H17S 9283   2.826   0.816   7.911  0.6188  0.3811  3.2872
   94SAPS  C218 9284   3.033   0.858   7.973 -0.0255  0.6880 -0.0327
   94SAPS  H18R 9285   3.059   0.952   7.920 -0.2767  0.9899  0.3700
   94SAPS  H18S 9286   3.127   0.799   7.979  0.4503  1.4683  0.2479
   94SAPS  C219 9287   3.000   0.892   8.119  0.2400  0.0146 -0.3820
   94SAPS  H19R 9288   2.961   0.800   8.168 -1.2672  0.1670 -1.2437
   94SAPS  H19S 9289   2.908   0.955   8.113 -0.9282 -1.5695  0.2819
   94SAPS  C220 9290   3.117   0.956   8.194 -0.0447  0.0211 -0.0059
   94SAPS  H20R 9291   3.194   0.883   8.225 -1.0465 -0.5422  1.2053
   94SAPS  H20S 9292   3.087   1.004   8.289  2.4035  0.1657  0.7493
   94SAPS  H20T 9293   3.165   1.033   8.130  1.5786  1.0326  2.3089
   94SAPS   C33 9294   2.299   0.941   6.710  0.1413  0.6470  0.2950
   94SAPS   H3X 9295   2.264   0.839   6.739 -1.1452  1.4853  1.7950
   94SAPS   H3Y 9296   2.210   0.979   6.655  0.7525  1.8033  0.0710
   94SAPS   C34 9297   2.327   1.039   6.826  0.5741 -0.6567  0.2955
   94SAPS   H4X 9298   2.353   1.141   6.790 -0.7040 -0.5264 -0.3069
   94SAPS   H4Y 9299   2.416   1.006   6.884 -0.1077 -1.7897  0.7379
   94SAPS   C35 9300   2.212   1.041   6.936  0.1743 -0.3670 -0.0217
   94SAPS   H5X 9301   2.116   1.028   6.880  1.0301 -1.5259 -1.2919
   94SAPS   H5Y 9302   2.210   1.139   6.987  0.0019  0.6376 -1.8527
   94SAPS   C36 9303   2.237   0.936   7.045  0.2748  0.0391 -0.0198
   94SAPS   H6X 9304   2.324   0.968   7.107  1.2426  0.6775 -1.6333
   94SAPS   H6Y 9305   2.270   0.848   6.986 -0.0482  2.1730 -3.7385
   94SAPS   C37 9306   2.106   0.910   7.116 -0.3377  0.0440 -0.4916
   94SAPS   H7X 9307   2.039   0.843   7.059 -1.7980  0.6118  0.5145
   94SAPS   H7Y 9308   2.068   1.011   7.141  0.6021 -0.3216  2.9293
   94SAPS   C38 9309   2.119   0.842   7.256 -0.5428 -0.5733  0.0582
   94SAPS   H8X 9310   2.187   0.755   7.240 -0.5528 -0.3566 -1.2929
   94SAPS   H8Y 9311   2.026   0.793   7.292 -0.5870  0.4810  1.4792
   94SAPS   C39 9312   2.180   0.933   7.372  0.0044  0.0822 -0.2935
   94SAPS   H9X 9313   2.112   1.021   7.386  0.2057  0.2710 -0.4959
   94SAPS   H9Y 9314   2.275   0.976   7.336 -0.9476 -0.0027 -3.1448
   94SAPS  C310 9315   2.195   0.868   7.505  0.0604  0.1288 -1.1213
   94SAPS  H10X 9316   2.233   0.764   7.492  0.3869  0.0526  0.2894
   94SAPS  H10Y 9317   2.093   0.853   7.547  0.1253 -2.2703 -1.6343
   94SAPS  C311 9318   2.276   0.941   7.610  0.2992  0.6950 -0.3949
   94SAPS  H11X 9319   2.253   1.049   7.610 -0.0500  0.6230  0.3913
   94SAPS  H11Y 9320   2.383   0.914   7.601  0.1355 -1.4388  2.6040
   94SAPS  C312 9321   2.248   0.887   7.755  0.2864 -0.1683  0.2229
   94SAPS  H12X 9322   2.278   0.782   7.772 -1.9533 -1.1234 -1.1924
   94SAPS  H12Y 9323   2.137   0.889   7.771 -0.1533  0.2909 -2.4923
   94SAPS  C313 9324   2.308   0.990   7.856  0.0763  0.0245 -0.4904
   94SAPS  H13X 9325   2.276   1.094   7.834 -2.0516 -0.4027  0.4035
   94SAPS  H13Y 9326   2.419   0.989   7.848  0.1133 -2.6520 -0.5803
   94SAPS  C314 9327   2.275   0.947   8.000  0.4341 -0.4719  0.4842
   94SAPS  H14X 9328   2.165   0.930   8.010  0.0979  1.2093 -0.0473
   94SAPS  H14Y 9329   2.294   1.035   8.066  0.7203 -0.6622  0.6547
   94SAPS  C315 9330   2.351   0.820   8.039 -0.6283  0.4742  0.2125
   94SAPS  H15X 9331   2.458   0.840   8.016  0.4837 -1.6555  2.9023
   94SAPS  H15Y 9332   2.329   0.732   7.974  2.9264 -0.4992  0.0829
   94SAPS  C316 9333   2.343   0.762   8.187  0.1435  0.4416  0.4482
   94SAPS  H16X 9334   2.389   0.840   8.252  0.5060  0.1061  0.5947
   94SAPS  H16Y 9335   2.399   0.667   8.198 -0.6835 -0.1845 -0.5675
   94SAPS  C317 9336   2.197   0.749   8.235  0.0351 -0.3669  0.6905
   94SAPS  H17X 9337   2.140   0.672   8.178 -0.6158 -1.0005  2.1388
   94SAPS  H17Y 9338   2.133   0.839   8.223 -1.2448 -0.6978  3.9805
   94SAPS  C318 9339   2.179   0.710   8.379  0.1308  0.6622 -0.0936
   94SAPS  H18X 9340   2.266   0.643   8.396  1.1420  1.7856 -0.6724
   94SAPS  H18Y 9341   2.086   0.652   8.397 -1.0983  1.7140 -2.5844
   94SAPS  H18Z 9342   2.194   0.804   8.435  0.8407 -0.1410  1.1189
   95SAPS     N 9343   3.815   3.641   6.386 -0.3985  0.8089 -0.0942
   95SAPS   HN1 9344   3.776   3.736   6.400 -1.0848  0.1833  2.9402
   95SAPS   HN2 9345   3.736   3.573   6.394  2.0300 -2.1633  1.0064
   95SAPS   HN3 9346   3.887   3.618   6.457 -1.4201  0.8951  1.0066
   95SAPS   C12 9347   3.851   3.645   6.239 -1.0786  0.2034 -1.0737
   95SAPS  H12A 9348   3.923   3.565   6.234 -0.8829  0.3788 -1.1061
   95SAPS   C13 9349   3.740   3.641   6.141 -0.3991 -0.1912 -0.4715
   95SAPS  O13A 9350   3.623   3.666   6.175  0.4567 -0.2749 -0.3698
   95SAPS  O13B 9351   3.769   3.614   6.018  0.0066  0.3126  0.1494
   95SAPS   C11 9352   3.937   3.774   6.215  0.5577  0.3129  0.0533
   95SAPS  H11A 9353   3.883   3.864   6.252 -2.4071 -1.6267  0.7343
   95SAPS  H11B 9354   3.961   3.800   6.109  0.5463 -0.2865 -0.0986
   95SAPS     P 9355   4.145   3.878   6.332 -0.3137  0.2328  0.1177
   95SAPS   O13 9356   4.275   3.828   6.379  0.4935  0.7538  0.2109
   95SAPS   O14 9357   4.152   3.982   6.228  0.0035  0.2548  0.1798
   95SAPS   O12 9358   4.062   3.750   6.289 -0.3130  0.6832  0.4924
   95SAPS   O11 9359   4.076   3.935   6.460 -0.5260  0.1511  0.0838
   95SAPS    C1 9360   4.143   4.005   6.563  0.0012  0.1675  0.3585
   95SAPS    HA 9361   4.250   4.024   6.542 -0.2088  0.9607 -0.0478
   95SAPS    HB 9362   4.097   4.105   6.581  0.4118  0.2681  0.8712
   95SAPS    C2 9363   4.115   3.952   6.706 -0.0166 -0.7097  0.0933
   95SAPS    HS 9364   4.138   4.032   6.779  1.1374 -2.2090  1.4382
   95SAPS   O21 9365   4.190   3.840   6.742 -0.4753  0.3777  0.4036
   95SAPS   C21 9366   4.318   3.860   6.777  0.2653 -0.3644  0.6069
   95SAPS   O22 9367   4.370   3.970   6.778 -0.1788 -0.2161 -0.2565
   95SAPS   C22 9368   4.384   3.727   6.806 -0.0588 -0.8020 -0.5819
   95SAPS   H2R 9369   4.335   3.662   6.732 -1.3553 -1.4984  0.8296
   95SAPS   H2S 9370   4.494   3.725   6.788 -0.1276 -1.4599 -0.9295
   95SAPS    C3 9371   3.971   3.910   6.719 -0.2442  0.6748 -0.3483
   95SAPS    HX 9372   3.943   3.813   6.673 -0.1995 -0.4445  1.8765
   95SAPS    HY 9373   3.914   3.983   6.657  2.3625  0.3098 -3.3956
   95SAPS   O31 9374   3.914   3.926   6.851  0.4522  0.6977 -0.7145
   95SAPS   C31 9375   3.884   3.811   6.910 -0.4688 -0.5478  0.3939
   95SAPS   O32 9376   3.920   3.700   6.874  0.3064  0.3965  0.1718
   95SAPS   C32 9377   3.795   3.850   7.036 -0.8877  0.0517  0.6169
   95SAPS   H2X 9378   3.721   3.769   7.057 -0.7514 -0.7044 -1.5389
   95SAPS   H2Y 9379   3.735   3.939   7.008 -1.7286 -0.1823  1.6069
   95SAPS   C23 9380   4.343   3.677   6.945  0.2476  0.2883  0.3809
   95SAPS   H3R 9381   4.388   3.576   6.957 -1.2477 -0.5491 -0.6622
   95SAPS   H3S 9382   4.233   3.661   6.958  0.4201 -1.9320 -0.3830
   95SAPS   C24 9383   4.379   3.772   7.062  0.1580  0.9567 -0.2478
   95SAPS   H4R 9384   4.316   3.741   7.148 -2.4602  0.7073 -2.1433
   95SAPS   H4S 9385   4.349   3.877   7.042 -0.6157  0.5970 -1.0264
   95SAPS   C25 9386   4.528   3.764   7.097 -0.0160  0.7330 -0.6411
   95SAPS   H5R 9387   4.564   3.661   7.108 -1.0183  0.4683  0.2911
   95SAPS   C26 9388   4.610   3.866   7.114  0.4053 -0.7494  0.0398
   95SAPS   H6R 9389   4.712   3.852   7.155  0.0330  0.8938  1.6585
   95SAPS   C27 9390   4.576   4.014   7.093 -0.1709 -0.1629 -0.2586
   95SAPS   H7R 9391   4.523   4.063   7.177 -0.0219 -0.7367  0.1815
   95SAPS   H7S 9392   4.522   4.036   6.998 -1.1596  1.5817  0.6646
   95SAPS   C28 9393   4.711   4.084   7.062 -0.0875  0.3475 -0.0130
   95SAPS   H8R 9394   4.762   4.061   6.967 -0.2766  0.0483 -0.0451
   95SAPS   C29 9395   4.774   4.173   7.140 -0.8699  0.0329 -0.4516
   95SAPS   H9R 9396   4.866   4.217   7.099 -0.6136  0.4729  0.5588
   95SAPS  C210 9397   4.731   4.229   7.278  0.3400 -0.1102  0.9163
   95SAPS  H10R 9398   4.814   4.285   7.325 -0.4439  1.2727  0.7122
   95SAPS  H10S 9399   4.707   4.149   7.352 -0.6375 -1.0579 -0.3683
   95SAPS  C211 9400   4.611   4.313   7.273  0.7185 -0.2361 -0.1525
   95SAPS  H11R 9401   4.540   4.275   7.199  1.7629  0.0372 -1.3236
   95SAPS  C212 9402   4.594   4.428   7.344 -0.2769 -0.0230  0.1408
   95SAPS  H12R 9403   4.513   4.501   7.328  1.6199  2.6808  1.9945
   95SAPS  C213 9404   4.688   4.489   7.444  0.0393 -0.7168  0.1021
   95SAPS  H13R 9405   4.762   4.541   7.379 -0.0535  0.8206  1.1936
   95SAPS  H13S 9406   4.733   4.399   7.492 -1.4106 -2.5362 -1.7615
   95SAPS  C214 9407   4.651   4.594   7.546 -0.1128 -0.1391 -0.3959
   95SAPS  H14R 9408   4.685   4.697   7.527  0.0160 -0.0376  0.3314
   95SAPS  C215 9409   4.580   4.567   7.659  0.2001  0.1241 -0.3387
   95SAPS  H15R 9410   4.555   4.647   7.730 -0.6803  0.8234 -1.4139
   95SAPS  C216 9411   4.517   4.430   7.696  0.9400  0.4906 -0.1457
   95SAPS  H16R 9412   4.485   4.382   7.601 -0.8348  4.3247 -1.7017
   95SAPS  H16S 9413   4.415   4.442   7.738 -0.6414  0.7981 -3.6863
   95SAPS  C217 9414   4.617   4.346   7.780  0.1986  0.1359 -0.3666
   95SAPS  H17R 9415   4.645   4.394   7.876 -0.1385 -1.3280  0.4934
   95SAPS  H17S 9416   4.705   4.333   7.714  0.5012  1.3947 -0.2371
   95SAPS  C218 9417   4.572   4.214   7.831  0.4639  0.0580  0.0452
   95SAPS  H18R 9418   4.546   4.161   7.736 -1.4844 -0.5553  0.8615
   95SAPS  H18S 9419   4.481   4.207   7.895  0.8134 -0.5867  0.4825
   95SAPS  C219 9420   4.680   4.134   7.906 -0.0768  0.4125  0.1009
   95SAPS  H19R 9421   4.711   4.180   8.002  1.0834  1.3497 -0.7099
   95SAPS  H19S 9422   4.771   4.128   7.844  0.1798 -0.2914  0.5316
   95SAPS  C220 9423   4.626   3.992   7.928  0.7069 -0.3092 -0.0316
   95SAPS  H20R 9424   4.719   3.941   7.960  1.3857 -0.9150 -2.6943
   95SAPS  H20S 9425   4.584   3.940   7.839 -2.5535  1.1488  0.5016
   95SAPS  H20T 9426   4.552   3.986   8.010  0.9912  0.9016  0.3348
   95SAPS   C33 9427   3.883   3.890   7.157 -0.5317 -0.8157 -0.5299
   95SAPS   H3X 9428   3.923   3.991   7.131 -0.4597 -1.0205 -1.2461
   95SAPS   H3Y 9429   3.975   3.829   7.159  0.8410  1.1682 -0.7199
   95SAPS   C34 9430   3.811   3.901   7.288  0.3962 -0.0468 -0.2217
   95SAPS   H4X 9431   3.889   3.921   7.365  0.4563 -0.3675 -0.1980
   95SAPS   H4Y 9432   3.760   3.809   7.323 -1.7206  1.4737  0.8826
   95SAPS   C35 9433   3.686   3.990   7.283  0.0217  0.1303  0.2987
   95SAPS   H5X 9434   3.609   3.946   7.216 -1.5232  0.1815  1.9728
   95SAPS   H5Y 9435   3.712   4.095   7.256  0.9184 -0.2133 -0.2108
   95SAPS   C36 9436   3.624   3.998   7.423 -0.5889  0.0652  0.1952
   95SAPS   H6X 9437   3.708   4.017   7.492  0.4214 -1.9943 -0.3897
   95SAPS   H6Y 9438   3.595   3.894   7.446  1.4948 -0.5723  0.1553
   95SAPS   C37 9439   3.509   4.085   7.444  1.1035  0.5988  0.1650
   95SAPS   H7X 9440   3.427   4.053   7.376  0.6532 -0.8016  1.3166
   95SAPS   H7Y 9441   3.527   4.193   7.426 -1.1448  1.3181  1.7917
   95SAPS   C38 9442   3.463   4.072   7.598 -0.3608 -0.4838 -0.0034
   95SAPS   H8X 9443   3.421   4.170   7.630  0.3278 -0.1059 -0.2374
   95SAPS   H8Y 9444   3.553   4.053   7.659 -0.2029  0.3549  0.0357
   95SAPS   C39 9445   3.358   3.962   7.626  0.6389  0.3333 -0.3187
   95SAPS   H9X 9446   3.408   3.871   7.586  1.4076  0.4327  0.3716
   95SAPS   H9Y 9447   3.279   3.976   7.549 -0.0401 -0.7490  0.1568
   95SAPS  C310 9448   3.307   3.948   7.768  0.5454 -1.0889 -0.1400
   95SAPS  H10X 9449   3.207   3.901   7.777 -0.6977  0.8047 -2.7216
   95SAPS  H10Y 9450   3.285   4.051   7.806 -0.8473 -1.2802 -0.3833
   95SAPS  C311 9451   3.415   3.879   7.863  0.5469 -0.4008 -0.5434
   95SAPS  H11X 9452   3.503   3.947   7.851  1.5283 -1.4480  0.4364
   95SAPS  H11Y 9453   3.469   3.792   7.820 -1.2158 -2.0424  0.4490
   95SAPS  C312 9454   3.379   3.856   8.003  0.7897  0.0333 -0.5100
   95SAPS  H12X 9455   3.467   3.802   8.045 -0.5169 -0.9721  1.0530
   95SAPS  H12Y 9456   3.291   3.788   8.007 -0.1988  1.2381 -1.1337
   95SAPS  C313 9457   3.338   3.977   8.089  0.8220 -0.2902  0.6936
   95SAPS  H13X 9458   3.258   4.043   8.049  2.8069  1.5214 -0.5162
   95SAPS  H13Y 9459   3.425   4.045   8.076  0.1809  0.3238 -0.6580
   95SAPS  C314 9460   3.303   3.930   8.229 -0.3947  0.4256 -1.1080
   95SAPS  H14X 9461   3.394   3.877   8.266 -0.8381  0.5831  0.2719
   95SAPS  H14Y 9462   3.219   3.858   8.221  0.5290 -1.0491  1.2690
   95SAPS  C315 9463   3.265   4.042   8.332 -0.4658 -0.1535  0.9798
   95SAPS  H15X 9464   3.183   4.090   8.275  1.7845 -0.1552 -2.5478
   95SAPS  H15Y 9465   3.336   4.128   8.339  0.5485 -0.9549  0.7090
   95SAPS  C316 9466   3.224   4.002   8.468  0.7130  0.3042 -0.6055
   95SAPS  H16X 9467   3.301   3.929   8.503  1.4709  1.6369  0.6199
   95SAPS  H16Y 9468   3.130   3.943   8.458 -0.5210  2.0053  0.4607
   95SAPS  C317 9469   3.200   4.118   8.572  0.1562  0.0133  0.3489
   95SAPS  H17X 9470   3.300   4.163   8.586  0.7024 -0.5035 -1.6030
   95SAPS  H17Y 9471   3.167   4.056   8.658 -4.5743  0.5550 -0.7673
   95SAPS  C318 9472   3.089   4.208   8.523  0.1756 -0.2988  0.5833
   95SAPS  H18X 9473   2.992   4.154   8.527  0.6198 -1.2476 -0.7933
   95SAPS  H18Y 9474   3.100   4.237   8.417  2.5119  2.0388  1.3561
   95SAPS  H18Z 9475   3.084   4.302   8.581 -0.4795  0.0099  0.0317
   96SAPS     N 9476   3.949   5.973   6.316  0.2894 -0.0132 -0.0430
   96SAPS   HN1 9477   3.963   5.928   6.409  1.1108  0.8499  0.2685
   96SAPS   HN2 9478   4.030   6.038   6.310 -1.4745  2.4534  1.3848
   96SAPS   HN3 9479   3.862   6.028   6.326 -1.2235 -2.1567 -0.5776
   96SAPS   C12 9480   3.937   5.855   6.221 -0.0230  0.1753 -0.3536
   96SAPS  H12A 9481   3.834   5.865   6.191 -0.1126  1.6201  0.3484
   96SAPS   C13 9482   4.017   5.880   6.087 -0.0137 -0.2853  0.0959
   96SAPS  O13A 9483   4.093   5.978   6.071 -0.1638  0.6719 -0.2576
   96SAPS  O13B 9484   4.008   5.791   5.999  0.0953 -0.0561  0.3040
   96SAPS   C11 9485   3.963   5.708   6.277 -0.3003 -0.1597  0.2821
   96SAPS  H11A 9486   3.939   5.640   6.193  0.2038  1.3158 -1.1066
   96SAPS  H11B 9487   3.892   5.681   6.358 -0.7976 -0.3501 -0.2126
   96SAPS     P 9488   4.189   5.581   6.311  0.5479  0.1738 -0.2707
   96SAPS   O13 9489   4.099   5.466   6.271  0.0565 -0.5185  0.0723
   96SAPS   O14 9490   4.304   5.620   6.224 -0.2490 -0.1025  0.0722
   96SAPS   O12 9491   4.101   5.703   6.322 -0.2357  0.0891 -0.5235
   96SAPS   O11 9492   4.249   5.542   6.449  0.7512 -0.1885 -0.3343
   96SAPS    C1 9493   4.176   5.590   6.563 -0.3497  0.4923 -0.3132
   96SAPS    HA 9494   4.186   5.700   6.573 -0.6943  0.5723 -0.7848
   96SAPS    HB 9495   4.065   5.583   6.550 -0.7090 -0.1089  2.4039
   96SAPS    C2 9496   4.229   5.526   6.696  0.2742 -0.1782 -0.3353
   96SAPS    HS 9497   4.160   5.568   6.772  0.9330  2.1941 -0.9499
   96SAPS   O21 9498   4.367   5.561   6.727  0.0176 -0.3564 -0.6102
   96SAPS   C21 9499   4.384   5.687   6.770 -0.7184 -0.3895 -0.0837
   96SAPS   O22 9500   4.298   5.775   6.769  0.5139 -0.3605 -0.4106
   96SAPS   C22 9501   4.529   5.694   6.830 -0.2281  0.5912  0.1512
   96SAPS   H2R 9502   4.565   5.589   6.838  1.3036  1.1422  0.6997
   96SAPS   H2S 9503   4.593   5.751   6.759 -0.2582 -1.1557 -1.3705
   96SAPS    C3 9504   4.208   5.377   6.689  0.1794 -0.2405 -0.0409
   96SAPS    HX 9505   4.287   5.344   6.619  1.0574  0.1683  0.7257
   96SAPS    HY 9506   4.104   5.367   6.653 -0.7743  3.3760  1.2481
   96SAPS   O31 9507   4.228   5.317   6.818 -0.4467 -0.2394  0.4850
   96SAPS   C31 9508   4.198   5.182   6.809 -0.6323 -0.3746  1.2777
   96SAPS   O32 9509   4.146   5.139   6.708 -0.5784  0.2354  0.5274
   96SAPS   C32 9510   4.246   5.100   6.922  0.6249  0.2036 -1.2064
   96SAPS   H2X 9511   4.191   5.138   7.011  0.4693 -1.4953 -0.5346
   96SAPS   H2Y 9512   4.354   5.119   6.945  0.5301 -0.8506  0.2973
   96SAPS   C23 9513   4.531   5.758   6.963  0.7883 -0.2985 -0.0084
   96SAPS   H3R 9514   4.450   5.832   6.977 -0.2747 -1.6366  1.2465
   96SAPS   H3S 9515   4.622   5.820   6.980 -0.0440  0.5727  1.3963
   96SAPS   C24 9516   4.528   5.656   7.084  0.5898 -0.5463  0.6313
   96SAPS   H4R 9517   4.516   5.716   7.177  0.6615  1.4891 -0.6097
   96SAPS   H4S 9518   4.624   5.601   7.092  1.5254  0.8271 -0.5364
   96SAPS   C25 9519   4.413   5.563   7.071  0.0037 -0.4196 -0.0393
   96SAPS   H5R 9520   4.339   5.598   6.997  0.8726  1.2611 -0.1584
   96SAPS   C26 9521   4.390   5.447   7.131 -0.0480 -0.2805 -0.3818
   96SAPS   H6R 9522   4.297   5.390   7.117 -0.3196  0.0361  0.0983
   96SAPS   C27 9523   4.487   5.390   7.241  0.1596  0.2633  0.2168
   96SAPS   H7R 9524   4.593   5.400   7.209 -0.2310  2.1984 -0.6147
   96SAPS   H7S 9525   4.476   5.281   7.256 -2.4327  0.4811  0.2325
   96SAPS   C28 9526   4.473   5.461   7.368  0.2811  0.8408  0.1989
   96SAPS   H8R 9527   4.377   5.448   7.420 -0.1224  2.0648 -0.2003
   96SAPS   C29 9528   4.574   5.515   7.438 -0.2621  0.2554 -0.0524
   96SAPS   H9R 9529   4.541   5.562   7.532  0.1384  0.9972 -0.2725
   96SAPS  C210 9530   4.722   5.532   7.404 -0.1694 -0.1210  0.4777
   96SAPS  H10R 9531   4.726   5.600   7.316  1.6228  0.1023  0.7079
   96SAPS  H10S 9532   4.767   5.440   7.362  1.3574  1.3487 -1.2758
   96SAPS  C211 9533   4.819   5.588   7.501  0.5913  0.1805 -0.5743
   96SAPS  H11R 9534   4.827   5.697   7.504  1.8595  0.0948  1.3177
   96SAPS  C212 9535   4.902   5.535   7.596  0.7401  0.9050  0.0124
   96SAPS  H12R 9536   4.973   5.595   7.655  1.6242 -1.0238  1.0292
   96SAPS  C213 9537   4.930   5.385   7.609 -0.6491 -0.4272  0.0890
   96SAPS  H13R 9538   4.981   5.346   7.518  0.9093 -1.4370  1.3465
   96SAPS  H13S 9539   4.831   5.335   7.608 -0.3776 -0.9669 -0.0469
   96SAPS  C214 9540   5.026   5.341   7.720  0.0783  0.6892  0.3352
   96SAPS  H14R 9541   5.127   5.311   7.687  0.3233  1.7294  0.1078
   96SAPS  C215 9542   4.999   5.342   7.854 -0.0846  0.0569 -0.2801
   96SAPS  H15R 9543   5.080   5.308   7.921  0.3387  2.4123  0.4823
   96SAPS  C216 9544   4.879   5.386   7.934  0.4710 -0.0780 -0.1069
   96SAPS  H16R 9545   4.814   5.302   7.967 -2.5398  1.9705 -0.3842
   96SAPS  H16S 9546   4.826   5.443   7.854  1.5406  0.8733 -0.1723
   96SAPS  C217 9547   4.899   5.484   8.047 -0.2371 -0.3363 -0.5320
   96SAPS  H17R 9548   4.905   5.591   8.016  0.6982  0.1425  1.1492
   96SAPS  H17S 9549   4.997   5.467   8.096 -0.7426 -0.9623  0.2824
   96SAPS  C218 9550   4.783   5.473   8.148  0.2079  0.2919  0.0818
   96SAPS  H18R 9551   4.798   5.376   8.199  0.0573  1.7760  3.1692
   96SAPS  H18S 9552   4.688   5.486   8.092  0.0918 -0.2362  0.1511
   96SAPS  C219 9553   4.787   5.580   8.250  0.5673  1.1189 -0.4537
   96SAPS  H19R 9554   4.788   5.677   8.195 -0.6322  1.2967 -0.2067
   96SAPS  H19S 9555   4.881   5.559   8.304  0.2165  1.0705  0.1419
   96SAPS  C220 9556   4.667   5.583   8.345 -0.8724  0.7233  0.5550
   96SAPS  H20R 9557   4.571   5.553   8.297  0.4048 -1.1733 -0.9593
   96SAPS  H20S 9558   4.664   5.684   8.392  0.2765 -0.0813  2.4666
   96SAPS  H20T 9559   4.700   5.521   8.430  0.1496  2.0710  1.1892
   96SAPS   C33 9560   4.234   4.942   6.914  0.1359 -0.4066 -0.0872
   96SAPS   H3X 9561   4.281   4.895   6.825 -2.4246  0.7465 -2.1688
   96SAPS   H3Y 9562   4.126   4.931   6.891  0.1183 -2.1457  0.6856
   96SAPS   C34 9563   4.267   4.875   7.048  0.6064 -0.0455  1.2707
   96SAPS   H4X 9564   4.337   4.951   7.089  1.2382 -0.0546  0.2303
   96SAPS   H4Y 9565   4.329   4.783   7.038  0.7773  0.1884 -0.0244
   96SAPS   C35 9566   4.159   4.862   7.150  0.5187  0.1780 -0.2473
   96SAPS   H5X 9567   4.084   4.786   7.117  0.8096 -0.0648 -0.3495
   96SAPS   H5Y 9568   4.106   4.958   7.168 -1.1872 -0.7064 -0.3355
   96SAPS   C36 9569   4.206   4.819   7.290 -0.6174  0.2992  0.3608
   96SAPS   H6X 9570   4.276   4.898   7.326  1.3352 -0.1485 -2.2268
   96SAPS   H6Y 9571   4.265   4.726   7.287 -2.6971 -1.1096  1.0302
   96SAPS   C37 9572   4.093   4.789   7.393  0.1300  0.2742  0.1059
   96SAPS   H7X 9573   4.038   4.703   7.349  0.2214  0.6534 -0.7745
   96SAPS   H7Y 9574   4.027   4.878   7.405  0.3581  0.2414  1.8982
   96SAPS   C38 9575   4.163   4.775   7.530  0.1429  0.1863 -0.1819
   96SAPS   H8X 9576   4.208   4.873   7.555 -0.2473 -0.1151  1.8529
   96SAPS   H8Y 9577   4.239   4.695   7.520  0.1917 -0.0871  1.9543
   96SAPS   C39 9578   4.081   4.736   7.656 -0.4047  0.2056 -0.1935
   96SAPS   H9X 9579   4.040   4.633   7.651 -2.0846  0.8605 -0.6065
   96SAPS   H9Y 9580   3.991   4.802   7.652  0.7076  1.9114  1.1044
   96SAPS  C310 9581   4.140   4.769   7.791 -0.8563  0.2965  0.2354
   96SAPS  H10X 9582   4.051   4.780   7.856 -0.5085  1.2532  0.5663
   96SAPS  H10Y 9583   4.189   4.868   7.778 -1.2034  0.6695  1.6482
   96SAPS  C311 9584   4.237   4.663   7.851 -0.1241 -0.4343  0.3245
   96SAPS  H11X 9585   4.298   4.631   7.764  0.3379  1.8180 -0.2295
   96SAPS  H11Y 9586   4.172   4.576   7.876  0.3076 -2.1529 -3.7597
   96SAPS  C312 9587   4.316   4.706   7.970  0.4221 -0.5071 -0.1487
   96SAPS  H12X 9588   4.238   4.748   8.037 -1.8869 -1.9152 -1.7598
   96SAPS  H12Y 9589   4.393   4.779   7.940 -0.7263  0.4767 -0.7922
   96SAPS  C313 9590   4.386   4.592   8.046 -0.1819  0.4305  0.5471
   96SAPS  H13X 9591   4.432   4.524   7.971 -1.4084  0.6118 -0.4169
   96SAPS  H13Y 9592   4.314   4.534   8.107 -1.1239  1.5152  0.5012
   96SAPS  C314 9593   4.489   4.651   8.135  0.0269  0.5412 -0.1678
   96SAPS  H14X 9594   4.443   4.699   8.224  0.0037 -1.3241  0.8940
   96SAPS  H14Y 9595   4.554   4.716   8.073  2.7888 -1.4785  0.3950
   96SAPS  C315 9596   4.582   4.555   8.204  1.1444 -0.5193  0.4300
   96SAPS  H15X 9597   4.646   4.621   8.265  1.4647 -0.6059  0.1904
   96SAPS  H15Y 9598   4.649   4.501   8.134 -0.3081 -0.1170 -1.3727
   96SAPS  C316 9599   4.512   4.457   8.305 -0.2242 -1.1222  0.3779
   96SAPS  H16X 9600   4.442   4.394   8.247  0.3913  1.0438 -3.0405
   96SAPS  H16Y 9601   4.444   4.522   8.365 -1.6703 -1.1720 -1.1356
   96SAPS  C317 9602   4.612   4.381   8.401  0.0112 -0.0736 -0.4594
   96SAPS  H17X 9603   4.561   4.351   8.495  0.0152  0.0716 -0.4107
   96SAPS  H17Y 9604   4.685   4.456   8.439  1.7630 -2.5140  1.3161
   96SAPS  C318 9605   4.686   4.266   8.345  0.0807 -0.2231  0.3267
   96SAPS  H18X 9606   4.623   4.200   8.281  0.2077 -4.1995  3.8372
   96SAPS  H18Y 9607   4.734   4.199   8.420  1.1868  0.9595  0.7076
   96SAPS  H18Z 9608   4.762   4.305   8.274  2.1646 -2.9908  0.8447
   97SAPS     N 9609   5.965   3.324   6.201 -0.3942 -0.0331  0.9210
   97SAPS   HN1 9610   6.021   3.381   6.268 -1.5379  2.4278 -0.0756
   97SAPS   HN2 9611   5.944   3.400   6.133 -1.4276 -0.7111  0.4724
   97SAPS   HN3 9612   5.871   3.295   6.233 -1.0704  1.5288  0.4333
   97SAPS   C12 9613   6.050   3.229   6.128 -0.0852 -0.0535  0.0960
   97SAPS  H12A 9614   5.998   3.135   6.141  1.7499 -1.2134 -0.5823
   97SAPS   C13 9615   6.068   3.269   5.986 -0.0715  0.1214 -0.1697
   97SAPS  O13A 9616   6.045   3.386   5.944  0.4478 -0.2766 -0.1333
   97SAPS  O13B 9617   6.128   3.184   5.912  0.6163  0.8825 -0.0544
   97SAPS   C11 9618   6.188   3.228   6.198  0.2328  0.7815  0.4553
   97SAPS  H11A 9619   6.237   3.323   6.167  2.0016  0.2193  1.3619
   97SAPS  H11B 9620   6.244   3.146   6.147 -2.8519 -0.4882 -1.1289
   97SAPS     P 9621   6.273   3.101   6.415  0.2005 -0.0940  0.4383
   97SAPS   O13 9622   6.229   2.965   6.386 -0.4600 -0.2002 -0.0165
   97SAPS   O14 9623   6.408   3.135   6.364  0.0177  0.2109  0.2611
   97SAPS   O12 9624   6.179   3.210   6.341 -0.1414 -0.5992 -0.4031
   97SAPS   O11 9625   6.261   3.136   6.567  0.5247  0.0463 -0.3938
   97SAPS    C1 9626   6.148   3.085   6.637 -1.0920 -0.4502 -0.5322
   97SAPS    HA 9627   6.052   3.116   6.591 -0.2239 -0.2290 -2.3066
   97SAPS    HB 9628   6.163   2.975   6.628  2.6557 -0.0554 -0.6480
   97SAPS    C2 9629   6.156   3.121   6.794 -0.7957 -0.5696  0.2137
   97SAPS    HS 9630   6.193   3.223   6.818  1.5473 -1.4020  0.3752
   97SAPS   O21 9631   6.249   3.025   6.851  0.0170 -0.0790 -0.3268
   97SAPS   C21 9632   6.365   3.051   6.863 -0.1062  0.5511  0.2472
   97SAPS   O22 9633   6.426   3.152   6.836  0.1051 -0.1823 -0.4228
   97SAPS   C22 9634   6.430   2.930   6.938 -0.2104  0.4022  0.2358
   97SAPS   H2R 9635   6.380   2.908   7.035 -1.5341  0.9976 -0.2899
   97SAPS   H2S 9636   6.425   2.843   6.870  1.5277 -0.8543  1.6170
   97SAPS    C3 9637   6.012   3.096   6.849  0.4202  0.0409  0.4188
   97SAPS    HX 9638   6.008   2.987   6.824 -1.8517  0.2713 -0.5187
   97SAPS    HY 9639   5.929   3.152   6.801 -0.8022 -1.2595  0.9070
   97SAPS   O31 9640   5.998   3.121   6.991 -0.5996  0.0061  0.2300
   97SAPS   C31 9641   6.014   3.247   7.030 -0.8937 -0.7548 -0.1141
   97SAPS   O32 9642   6.022   3.344   6.959 -0.4104 -0.1198  0.1411
   97SAPS   C32 9643   6.009   3.255   7.187 -0.2541  0.1227 -0.0225
   97SAPS   H2X 9644   6.016   3.361   7.219 -2.0486 -0.0666  1.1752
   97SAPS   H2Y 9645   6.097   3.197   7.222 -1.2922 -0.6612  1.4164
   97SAPS   C23 9646   6.582   2.944   6.967  0.1573 -0.4769 -0.0176
   97SAPS   H3R 9647   6.611   3.021   7.042  0.1865 -0.4012 -0.1063
   97SAPS   H3S 9648   6.627   2.981   6.873  0.0686 -0.9288 -0.2380
   97SAPS   C24 9649   6.657   2.813   7.012  0.9356  0.4355 -0.1728
   97SAPS   H4R 9650   6.766   2.834   7.003  0.6647  2.2699  0.4980
   97SAPS   H4S 9651   6.628   2.734   6.939 -0.1362  1.2853 -0.6950
   97SAPS   C25 9652   6.628   2.749   7.147 -0.3857 -0.4538  0.3456
   97SAPS   H5R 9653   6.570   2.658   7.127  1.0106 -1.3320  0.1962
   97SAPS   C26 9654   6.661   2.784   7.271  0.7821  0.3572  0.0606
   97SAPS   H6R 9655   6.609   2.731   7.353  0.2660 -0.3558 -0.7171
   97SAPS   C27 9656   6.752   2.898   7.316  0.2360  0.0906  0.1189
   97SAPS   H7R 9657   6.779   2.951   7.222 -1.1530 -0.0939 -0.4260
   97SAPS   H7S 9658   6.848   2.860   7.355 -0.1744 -1.1660 -0.0524
   97SAPS   C28 9659   6.681   2.998   7.411 -0.2275  0.2635  0.1301
   97SAPS   H8R 9660   6.638   3.090   7.369  0.1833 -0.4549 -2.0094
   97SAPS   C29 9661   6.683   2.991   7.543 -1.0330 -0.4395 -0.1826
   97SAPS   H9R 9662   6.634   3.064   7.608 -0.2310 -0.2698  0.2404
   97SAPS  C210 9663   6.755   2.877   7.609 -0.2688  0.2926 -0.0870
   97SAPS  H10R 9664   6.841   2.840   7.548 -0.9151  1.2402 -1.6458
   97SAPS  H10S 9665   6.688   2.791   7.628 -0.0402  0.3801  1.1685
   97SAPS  C211 9666   6.805   2.933   7.736  0.6697  0.8712 -0.0824
   97SAPS  H11R 9667   6.838   3.038   7.728  1.3614  0.7958  1.3870
   97SAPS  C212 9668   6.794   2.877   7.859  0.1599  0.5608 -0.3638
   97SAPS  H12R 9669   6.842   2.932   7.941 -0.6109  1.4882 -0.5200
   97SAPS  C213 9670   6.734   2.743   7.894  0.0249  0.5647  0.5805
   97SAPS  H13R 9671   6.812   2.672   7.929 -0.5774 -0.0062  0.7777
   97SAPS  H13S 9672   6.692   2.692   7.805 -1.2849  2.9944 -0.2810
   97SAPS  C214 9673   6.629   2.750   8.000 -0.4068  0.2675  0.2948
   97SAPS  H14R 9674   6.666   2.725   8.100  0.8289  0.6075 -0.0593
   97SAPS  C215 9675   6.502   2.765   7.980 -0.9526 -1.0231 -0.3881
   97SAPS  H15R 9676   6.440   2.769   8.071 -0.7536 -1.2672 -0.2410
   97SAPS  C216 9677   6.429   2.788   7.846 -0.2426 -0.3145 -0.0977
   97SAPS  H16R 9678   6.483   2.856   7.777 -0.3560  0.0490  0.1697
   97SAPS  H16S 9679   6.343   2.854   7.869  0.9339  1.2393  0.0014
   97SAPS  C217 9680   6.373   2.663   7.778 -0.1175 -0.2204  0.2504
   97SAPS  H17R 9681   6.456   2.596   7.748 -0.8522 -0.0094 -2.5111
   97SAPS  H17S 9682   6.316   2.693   7.687  1.9867  0.5907 -0.8498
   97SAPS  C218 9683   6.283   2.585   7.867 -0.0790 -0.8037  0.0533
   97SAPS  H18R 9684   6.198   2.649   7.899 -1.0729 -1.8600 -0.4009
   97SAPS  H18S 9685   6.327   2.551   7.963 -1.3878  0.0083  0.9755
   97SAPS  C219 9686   6.206   2.473   7.792  0.2956 -0.6359 -0.7980
   97SAPS  H19R 9687   6.145   2.421   7.868 -0.6167  1.1169 -0.2920
   97SAPS  H19S 9688   6.276   2.409   7.733 -0.9696 -1.4821 -1.4273
   97SAPS  C220 9689   6.099   2.530   7.691 -0.2429 -0.2016  0.1703
   97SAPS  H20R 9690   6.043   2.446   7.645  2.1856 -0.6076 -2.3061
   97SAPS  H20S 9691   6.134   2.580   7.599  0.2059  0.8769  0.9013
   97SAPS  H20T 9692   6.027   2.594   7.746 -0.2480 -2.0263  2.4615
   97SAPS   C33 9693   5.876   3.191   7.240 -0.7940  0.2696  0.1840
   97SAPS   H3X 9694   5.883   3.191   7.351 -0.6653  0.6662  0.1764
   97SAPS   H3Y 9695   5.862   3.086   7.207  0.4214  0.6814 -1.8037
   97SAPS   C34 9696   5.742   3.263   7.215  0.4481 -0.4752  0.3843
   97SAPS   H4X 9697   5.665   3.210   7.274 -1.0871 -1.2007 -2.1373
   97SAPS   H4Y 9698   5.714   3.264   7.107 -0.8107 -1.0411  0.6928
   97SAPS   C35 9699   5.739   3.409   7.262  0.0437  0.4597  0.2384
   97SAPS   H5X 9700   5.635   3.444   7.248  0.5641  1.9025 -0.1524
   97SAPS   H5Y 9701   5.795   3.479   7.197  0.5188 -0.4208 -0.3125
   97SAPS   C36 9702   5.781   3.425   7.416 -0.0148 -0.7907 -0.8109
   97SAPS   H6X 9703   5.802   3.532   7.435 -1.7028 -0.4965 -0.4619
   97SAPS   H6Y 9704   5.876   3.370   7.436 -1.6079 -2.6242  2.5040
   97SAPS   C37 9705   5.672   3.398   7.516  0.6194 -0.0869 -0.9024
   97SAPS   H7X 9706   5.647   3.292   7.498  0.5847 -0.2844  0.2417
   97SAPS   H7Y 9707   5.584   3.458   7.483 -0.1911 -1.8188 -2.0205
   97SAPS   C38 9708   5.718   3.431   7.662  0.5673 -0.0582  0.2581
   97SAPS   H8X 9709   5.719   3.542   7.670 -1.1593 -0.1081  2.1351
   97SAPS   H8Y 9710   5.821   3.393   7.674  1.8312  3.5259  2.4438
   97SAPS   C39 9711   5.627   3.387   7.772  0.4241  0.4722  0.3016
   97SAPS   H9X 9712   5.575   3.290   7.758 -0.5002  0.4416  3.1579
   97SAPS   H9Y 9713   5.548   3.464   7.785 -0.0742  0.3948 -1.8973
   97SAPS  C310 9714   5.698   3.367   7.910 -0.0581 -0.1423  0.0261
   97SAPS  H10X 9715   5.769   3.283   7.899  0.6862  0.2543  1.5947
   97SAPS  H10Y 9716   5.618   3.339   7.982  0.0687  2.3789  1.2785
   97SAPS  C311 9717   5.760   3.500   7.952  1.0245 -0.0443 -0.5821
   97SAPS  H11X 9718   5.698   3.585   7.917 -1.2418 -0.8631  1.1720
   97SAPS  H11Y 9719   5.861   3.506   7.906 -0.7187  3.5480 -4.6585
   97SAPS  C312 9720   5.767   3.512   8.109  0.3313  0.3870  0.0831
   97SAPS  H12X 9721   5.662   3.524   8.142  0.2943 -0.1072  0.1585
   97SAPS  H12Y 9722   5.819   3.608   8.126 -0.5973  1.0810 -0.8788
   97SAPS  C313 9723   5.842   3.397   8.172  0.5703  0.1483  0.4451
   97SAPS  H13X 9724   5.948   3.383   8.144  0.6076 -1.1779  1.1617
   97SAPS  H13Y 9725   5.791   3.302   8.144  2.2738 -0.1083 -2.0930
   97SAPS  C314 9726   5.837   3.413   8.329 -0.0674 -0.6499 -0.0695
   97SAPS  H14X 9727   5.862   3.310   8.362  1.6146 -0.9429 -2.0590
   97SAPS  H14Y 9728   5.735   3.453   8.349 -0.5205 -0.3530 -2.6833
   97SAPS  C315 9729   5.944   3.512   8.379  0.1772 -0.0262 -0.2018
   97SAPS  H15X 9730   5.934   3.608   8.323  2.6018  0.9897  0.9472
   97SAPS  H15Y 9731   6.042   3.465   8.356  0.2823 -0.0331  0.2575
   97SAPS  C316 9732   5.919   3.542   8.531 -0.7819  0.3867  0.0697
   97SAPS  H16X 9733   5.902   3.441   8.573  1.4036 -0.3756 -0.7473
   97SAPS  H16Y 9734   5.825   3.597   8.551 -0.7532  0.9780 -1.2883
   97SAPS  C317 9735   6.042   3.615   8.592  0.1155 -0.1462 -0.1077
   97SAPS  H17X 9736   6.059   3.696   8.518  1.1870  0.1429  0.4309
   97SAPS  H17Y 9737   6.129   3.546   8.588 -1.3634 -2.0959 -0.2859
   97SAPS  C318 9738   6.016   3.676   8.730  0.7383  0.5705 -0.6450
   97SAPS  H18X 9739   6.104   3.738   8.756  0.9695  0.4335 -1.0792
   97SAPS  H18Y 9740   6.001   3.596   8.806 -1.2221  0.6134 -0.9371
   97SAPS  H18Z 9741   5.928   3.743   8.732 -1.6690 -2.2905  3.0524
   98SAPS     N 9742   3.773   4.187   6.438  0.0784  0.2167 -0.3103
   98SAPS   HN1 9743   3.826   4.266   6.480  0.5832  0.9935 -2.3174
   98SAPS   HN2 9744   3.683   4.226   6.405 -2.0966 -3.7922  0.1548
   98SAPS   HN3 9745   3.746   4.112   6.505  0.7259  0.1064 -0.1565
   98SAPS   C12 9746   3.846   4.139   6.314 -0.0980 -0.5869 -0.8066
   98SAPS  H12A 9747   3.896   4.050   6.349 -0.2697 -0.9980 -1.5997
   98SAPS   C13 9748   3.750   4.117   6.186  0.3633 -0.0938 -1.0396
   98SAPS  O13A 9749   3.626   4.122   6.203 -0.1024  0.3174 -0.5004
   98SAPS  O13B 9750   3.806   4.093   6.077 -0.2163  0.5999  0.4055
   98SAPS   C11 9751   3.956   4.252   6.280  0.1026 -0.1994  0.4908
   98SAPS  H11A 9752   4.013   4.218   6.191 -0.6252  0.9452 -0.4374
   98SAPS  H11B 9753   4.036   4.258   6.358  2.3762  0.8209 -1.7637
   98SAPS     P 9754   3.909   4.515   6.330  0.4737  0.2036  0.3993
   98SAPS   O13 9755   4.053   4.551   6.340  0.0165  0.1107 -0.5188
   98SAPS   O14 9756   3.818   4.623   6.276  0.4935  0.4673 -0.2113
   98SAPS   O12 9757   3.900   4.383   6.243 -0.2080 -0.6163 -0.3459
   98SAPS   O11 9758   3.865   4.458   6.466  0.4045 -0.5692  0.2160
   98SAPS    C1 9759   3.811   4.551   6.570 -0.4707  0.0597 -0.1082
   98SAPS    HA 9760   3.738   4.625   6.530 -0.2673 -1.2161 -3.1477
   98SAPS    HB 9761   3.751   4.494   6.644 -0.3807  1.9440  1.5010
   98SAPS    C2 9762   3.918   4.629   6.648  0.1025  0.7976  0.0391
   98SAPS    HS 9763   3.962   4.707   6.582  0.5404  1.1054  0.6762
   98SAPS   O21 9764   4.014   4.528   6.686 -0.6120  0.1263 -0.6096
   98SAPS   C21 9765   4.130   4.577   6.718  0.2052  0.6751 -0.0313
   98SAPS   O22 9766   4.166   4.692   6.702  0.1896  0.2241  0.2583
   98SAPS   C22 9767   4.198   4.461   6.790  0.2478  0.3447  0.6474
   98SAPS   H2R 9768   4.140   4.367   6.777 -0.3778  0.7696  0.3221
   98SAPS   H2S 9769   4.299   4.442   6.748  0.3472  0.5644  0.7861
   98SAPS    C3 9770   3.857   4.703   6.773  0.1510  0.1569  0.4291
   98SAPS    HX 9771   3.770   4.759   6.732 -2.5396 -3.7609  0.2453
   98SAPS    HY 9772   3.944   4.763   6.806  0.0756  2.5824 -3.2068
   98SAPS   O31 9773   3.814   4.609   6.873  0.4903  0.5601 -0.0350
   98SAPS   C31 9774   3.809   4.647   6.992  0.4615 -0.8414 -0.1337
   98SAPS   O32 9775   3.834   4.760   7.038  0.2280 -0.2515 -0.6739
   98SAPS   C32 9776   3.748   4.539   7.082 -0.6272 -0.4568 -0.1423
   98SAPS   H2X 9777   3.783   4.442   7.041  0.0357  0.4877 -1.9415
   98SAPS   H2Y 9778   3.639   4.555   7.076 -1.3204 -3.9874  1.0230
   98SAPS   C23 9779   4.228   4.494   6.941 -0.0649  0.3753 -0.0031
   98SAPS   H3R 9780   4.131   4.498   6.994  1.0471 -1.6389  2.4005
   98SAPS   H3S 9781   4.294   4.583   6.944  3.7797 -2.1740 -0.7279
   98SAPS   C24 9782   4.316   4.375   7.000  0.1680 -0.0393 -0.5302
   98SAPS   H4R 9783   4.329   4.403   7.107 -0.1437 -0.1729 -0.4553
   98SAPS   H4S 9784   4.421   4.389   6.966  0.2920  0.8373  0.1751
   98SAPS   C25 9785   4.253   4.239   6.982 -0.3751 -0.3590 -1.0353
   98SAPS   H5R 9786   4.283   4.195   6.885  1.2877  0.7897 -1.0882
   98SAPS   C26 9787   4.185   4.163   7.072  0.1195  0.3069 -0.3007
   98SAPS   H6R 9788   4.157   4.063   7.035  0.3109  0.4834 -0.9293
   98SAPS   C27 9789   4.160   4.195   7.210  0.5218 -0.9522 -0.3176
   98SAPS   H7R 9790   4.059   4.183   7.254  0.5021  1.8762  0.6135
   98SAPS   H7S 9791   4.178   4.304   7.213  1.8767 -1.1685  1.7459
   98SAPS   C28 9792   4.255   4.121   7.303 -1.2765  0.1930  0.3561
   98SAPS   H8R 9793   4.331   4.058   7.255 -1.6865 -1.0979  1.3275
   98SAPS   C29 9794   4.255   4.132   7.433 -0.6265  0.4319 -0.9306
   98SAPS   H9R 9795   4.313   4.062   7.495  0.6209  1.7357 -0.5508
   98SAPS  C210 9796   4.161   4.229   7.510  0.6646  0.1823 -0.5356
   98SAPS  H10R 9797   4.138   4.310   7.438  1.2991  2.3747  1.5733
   98SAPS  H10S 9798   4.220   4.267   7.596  1.4501 -1.4442 -0.3303
   98SAPS  C211 9799   4.039   4.149   7.544 -0.3510 -0.0236  0.4776
   98SAPS  H11R 9800   3.973   4.117   7.462 -0.9004  1.9255  0.1015
   98SAPS  C212 9801   3.992   4.129   7.666  0.5877  0.3497  0.3570
   98SAPS  H12R 9802   3.897   4.076   7.678  0.6495  0.3035  0.6585
   98SAPS  C213 9803   4.057   4.174   7.792  0.2180  0.3965  0.3239
   98SAPS  H13R 9804   4.059   4.285   7.799  1.3768  0.5067 -1.3051
   98SAPS  H13S 9805   4.166   4.152   7.793  0.5532  1.9556  0.2479
   98SAPS  C214 9806   3.984   4.122   7.916  0.0906 -0.1307 -0.3981
   98SAPS  H14R 9807   3.887   4.072   7.903 -1.0518  2.2739 -2.0172
   98SAPS  C215 9808   4.037   4.137   8.040 -0.4394  0.0852 -0.0577
   98SAPS  H15R 9809   3.993   4.098   8.133 -0.0779 -0.9264 -0.3050
   98SAPS  C216 9810   4.170   4.206   8.079 -0.6757 -0.5299  0.9746
   98SAPS  H16R 9811   4.166   4.275   8.166  2.0134  0.5192  0.3385
   98SAPS  H16S 9812   4.202   4.268   7.992 -0.4039 -2.3541 -0.2794
   98SAPS  C217 9813   4.283   4.109   8.124  0.2511 -0.2644  0.4501
   98SAPS  H17R 9814   4.374   4.171   8.131 -0.1932  0.5830 -0.9391
   98SAPS  H17S 9815   4.298   4.021   8.057 -0.1607 -2.3803  2.9676
   98SAPS  C218 9816   4.252   4.046   8.258  0.3541  0.7399 -0.1812
   98SAPS  H18R 9817   4.184   3.960   8.238  0.9352  0.4241 -0.8543
   98SAPS  H18S 9818   4.202   4.124   8.319 -5.3625 -1.6248 -1.1907
   98SAPS  C219 9819   4.378   3.986   8.338  0.5376 -0.1411  0.2967
   98SAPS  H19R 9820   4.347   3.957   8.441  0.3774  0.7048  0.4975
   98SAPS  H19S 9821   4.462   4.058   8.347  0.0038  0.3380  1.9228
   98SAPS  C220 9822   4.440   3.855   8.283 -1.0057 -0.0528 -0.5938
   98SAPS  H20R 9823   4.394   3.774   8.343 -0.8191  1.4129  1.6515
   98SAPS  H20S 9824   4.548   3.870   8.305 -1.6269  3.6909  0.5991
   98SAPS  H20T 9825   4.439   3.835   8.174  0.5413 -2.5562 -0.2126
   98SAPS   C33 9826   3.797   4.562   7.226 -0.2271 -0.3896  0.0494
   98SAPS   H3X 9827   3.783   4.670   7.250 -0.9920 -0.6836  0.9861
   98SAPS   H3Y 9828   3.908   4.560   7.236  0.0039  2.4524 -1.0480
   98SAPS   C34 9829   3.726   4.469   7.328  0.9183  0.5487 -0.1165
   98SAPS   H4X 9830   3.745   4.361   7.309  0.7870  0.2844  1.1283
   98SAPS   H4Y 9831   3.616   4.486   7.323  1.2436  2.5589 -1.1907
   98SAPS   C35 9832   3.768   4.497   7.474 -0.1930  0.2658 -0.8712
   98SAPS   H5X 9833   3.732   4.601   7.484 -2.9999 -0.6858 -0.2478
   98SAPS   H5Y 9834   3.879   4.485   7.481 -0.4430 -1.4095  1.4360
   98SAPS   C36 9835   3.693   4.398   7.572  0.2686 -0.4533  0.2340
   98SAPS   H6X 9836   3.723   4.292   7.554  0.6199 -0.0031 -2.1794
   98SAPS   H6Y 9837   3.585   4.415   7.553  0.4353  0.4620  0.0596
   98SAPS   C37 9838   3.725   4.445   7.718  0.2406 -0.1866  0.1008
   98SAPS   H7X 9839   3.695   4.552   7.727  2.3010  0.6110 -1.6498
   98SAPS   H7Y 9840   3.834   4.454   7.733  0.7287  1.2938 -3.3711
   98SAPS   C38 9841   3.663   4.355   7.824  0.2935 -0.0387  0.1025
   98SAPS   H8X 9842   3.682   4.249   7.798  2.6590 -0.9013  4.4473
   98SAPS   H8Y 9843   3.554   4.375   7.837  0.8806  2.4458  1.8952
   98SAPS   C39 9844   3.725   4.378   7.958  0.0848 -0.0268  0.0911
   98SAPS   H9X 9845   3.698   4.484   7.981 -1.4631 -0.4845  0.4311
   98SAPS   H9Y 9846   3.836   4.378   7.947  0.2657  6.1031 -1.9200
   98SAPS  C310 9847   3.667   4.295   8.071  0.2638 -0.0298 -0.2350
   98SAPS  H10X 9848   3.685   4.193   8.031 -2.2517 -1.2410  1.4593
   98SAPS  H10Y 9849   3.558   4.317   8.077  0.1264 -1.0045  1.8043
   98SAPS  C311 9850   3.728   4.318   8.208  0.2406 -0.0627  0.0119
   98SAPS  H11X 9851   3.685   4.415   8.243  0.3225  0.0636 -0.2379
   98SAPS  H11Y 9852   3.837   4.339   8.199 -0.0102  1.3760  0.0870
   98SAPS  C312 9853   3.696   4.195   8.298  0.2088  0.4614 -0.2509
   98SAPS  H12X 9854   3.731   4.095   8.262 -0.4185 -0.7644  2.3095
   98SAPS  H12Y 9855   3.585   4.196   8.298  0.1018 -1.0523  2.4203
   98SAPS  C313 9856   3.755   4.218   8.432  0.3268  0.3203 -0.3797
   98SAPS  H13X 9857   3.709   4.156   8.512  0.3206  1.3406  0.4172
   98SAPS  H13Y 9858   3.730   4.320   8.466  1.4533  0.5348 -0.1695
   98SAPS  C314 9859   3.903   4.186   8.430 -0.0841  0.3305 -0.6321
   98SAPS  H14X 9860   3.954   4.266   8.373  0.0221  1.3549  0.8457
   98SAPS  H14Y 9861   3.920   4.086   8.386  1.3691 -0.2537  1.1205
   98SAPS  C315 9862   3.962   4.190   8.574 -0.0062  0.0100 -0.3927
   98SAPS  H15X 9863   3.926   4.273   8.637 -1.4970 -1.9070  1.3914
   98SAPS  H15Y 9864   4.070   4.180   8.549  0.3514 -2.1870  1.6043
   98SAPS  C316 9865   3.935   4.064   8.665  0.4251  0.5603  0.7986
   98SAPS  H16X 9866   3.955   3.968   8.612  0.8549  0.8997  0.3377
   98SAPS  H16Y 9867   3.828   4.079   8.691  0.6212  1.3175  1.1965
   98SAPS  C317 9868   4.024   4.065   8.791 -0.2587  0.1796 -0.0245
   98SAPS  H17X 9869   4.001   4.156   8.849 -1.6014 -0.1294 -0.0347
   98SAPS  H17Y 9870   4.131   4.076   8.763 -1.0027  1.8718 -2.5100
   98SAPS  C318 9871   4.004   3.940   8.876 -0.3231 -0.4759 -0.3113
   98SAPS  H18X 9872   4.085   3.924   8.951 -1.4544  1.6074  1.4637
   98SAPS  H18Y 9873   3.993   3.855   8.805 -2.2253 -0.9809  0.5104
   98SAPS  H18Z 9874   3.914   3.951   8.941  0.0494 -2.1685  0.5646
   99SAPS     N 9875   1.181   2.983   6.258 -0.2813 -0.0534  0.0252
   99SAPS   HN1 9876   1.125   2.910   6.210 -0.2268  0.6909 -1.2054
   99SAPS   HN2 9877   1.138   2.998   6.352 -0.3868 -0.5920  0.0659
   99SAPS   HN3 9878   1.169   3.077   6.215 -1.3121 -0.8749 -1.5631
   99SAPS   C12 9879   1.328   2.952   6.264 -0.2454  0.1276  0.6101
   99SAPS  H12A 9880   1.341   2.856   6.312 -0.8750  0.0476  0.6364
   99SAPS   C13 9881   1.390   2.942   6.124 -0.4248  0.3034  0.4020
   99SAPS  O13A 9882   1.324   2.948   6.020 -0.7351  0.2475  0.5651
   99SAPS  O13B 9883   1.515   2.915   6.119  0.8428 -0.3198  0.3875
   99SAPS   C11 9884   1.402   3.058   6.352  0.3633 -0.2084 -0.8091
   99SAPS  H11A 9885   1.504   3.015   6.363  0.3877  0.0143 -0.1507
   99SAPS  H11B 9886   1.350   3.059   6.450 -1.6043 -3.0226 -1.7030
   99SAPS     P 9887   1.326   3.301   6.326 -0.0655 -0.1074  0.1321
   99SAPS   O13 9888   1.366   3.424   6.254  0.2565 -0.6019 -0.0041
   99SAPS   O14 9889   1.191   3.249   6.304 -0.2011 -0.2972  0.0009
   99SAPS   O12 9890   1.423   3.186   6.289  0.5459 -0.5178  0.9082
   99SAPS   O11 9891   1.339   3.325   6.482 -0.0503  1.1753  0.2187
   99SAPS    C1 9892   1.471   3.347   6.542  0.2716 -0.0716  0.0919
   99SAPS    HA 9893   1.551   3.323   6.469 -0.3273 -1.1050 -0.2478
   99SAPS    HB 9894   1.478   3.454   6.571  3.6147 -0.4456  1.0779
   99SAPS    C2 9895   1.491   3.252   6.669 -0.0453 -0.0123  0.0307
   99SAPS    HS 9896   1.463   3.148   6.641  2.7087 -1.1516  1.1734
   99SAPS   O21 9897   1.421   3.296   6.784  0.0558  0.0122  0.1374
   99SAPS   C21 9898   1.293   3.257   6.784  0.6675 -0.2172 -0.9620
   99SAPS   O22 9899   1.245   3.195   6.696  0.7323  0.4392  0.8451
   99SAPS   C22 9900   1.222   3.295   6.922 -0.2382 -0.4188 -0.0308
   99SAPS   H2R 9901   1.284   3.371   6.974 -1.4680  0.1080  0.7181
   99SAPS   H2S 9902   1.126   3.346   6.897 -1.3125 -2.1344  0.4699
   99SAPS    C3 9903   1.638   3.228   6.693  0.4514  0.0947 -0.2347
   99SAPS    HX 9904   1.688   3.323   6.720  0.4787  0.4308 -1.4223
   99SAPS    HY 9905   1.696   3.196   6.605  1.2951  1.2355 -0.1100
   99SAPS   O31 9906   1.652   3.139   6.806  0.2676  0.6976  0.0437
   99SAPS   C31 9907   1.632   3.020   6.779 -0.9243 -0.5514 -0.1455
   99SAPS   O32 9908   1.616   2.969   6.669  0.3877 -0.4642  0.5300
   99SAPS   C32 9909   1.631   2.938   6.905 -0.1570 -0.0618  0.5093
   99SAPS   H2X 9910   1.528   2.938   6.948  0.3404 -2.6622  1.9368
   99SAPS   H2Y 9911   1.695   2.986   6.982  2.8292 -0.6616 -1.4375
   99SAPS   C23 9912   1.182   3.179   7.015 -0.1417  0.1961  0.3180
   99SAPS   H3R 9913   1.119   3.099   6.972  0.1598  0.3346 -0.3927
   99SAPS   H3S 9914   1.119   3.226   7.093 -1.5746 -2.2419  0.7311
   99SAPS   C24 9915   1.293   3.120   7.099 -0.3584 -0.4450 -0.5581
   99SAPS   H4R 9916   1.345   3.213   7.132  0.5579 -1.2151  0.2479
   99SAPS   H4S 9917   1.375   3.069   7.044  0.3208 -1.0620  0.9490
   99SAPS   C25 9918   1.239   3.036   7.220  0.0935  0.2378  1.8478
   99SAPS   H5R 9919   1.193   2.940   7.190 -1.1891  0.9628  1.4233
   99SAPS   C26 9920   1.236   3.069   7.351  0.4875 -0.2996  0.5418
   99SAPS   H6R 9921   1.205   2.991   7.422  1.7668 -2.1467 -0.8265
   99SAPS   C27 9922   1.296   3.197   7.411 -0.6163  0.0257  0.6523
   99SAPS   H7R 9923   1.334   3.265   7.332 -0.1809 -0.6480  0.2806
   99SAPS   H7S 9924   1.387   3.175   7.471 -1.0051  1.7427  1.9506
   99SAPS   C28 9925   1.192   3.260   7.498  1.0524 -0.3820  0.1087
   99SAPS   H8R 9926   1.130   3.337   7.450  0.3003  0.4121  2.2479
   99SAPS   C29 9927   1.180   3.244   7.633 -0.1948 -0.7826 -0.0550
   99SAPS   H9R 9928   1.100   3.291   7.691  1.9504  1.6456  1.1479
   99SAPS  C210 9929   1.262   3.161   7.723 -0.1229 -0.0182  0.4412
   99SAPS  H10R 9930   1.276   3.219   7.817 -0.0458  1.9449 -0.7145
   99SAPS  H10S 9931   1.361   3.141   7.677  0.5224  0.6462  1.5073
   99SAPS  C211 9932   1.199   3.026   7.741  0.3622 -0.0033 -0.1488
   99SAPS  H11R 9933   1.177   2.974   7.646 -0.4030  1.2220 -0.6647
   99SAPS  C212 9934   1.156   2.970   7.862  0.4255 -0.9749  0.1582
   99SAPS  H12R 9935   1.113   2.869   7.855 -1.2145 -0.1656 -3.7092
   99SAPS  C213 9936   1.171   3.034   8.003 -0.6864 -0.0385 -0.2990
   99SAPS  H13R 9937   1.124   3.132   8.022  0.7247  0.4471  0.9067
   99SAPS  H13S 9938   1.279   3.050   8.022 -1.2487  3.0627  0.7422
   99SAPS  C214 9939   1.104   2.942   8.097  0.8205  0.0871 -0.0925
   99SAPS  H14R 9940   0.998   2.937   8.069  0.1388  2.0267  1.8080
   99SAPS  C215 9941   1.145   2.881   8.207  0.2263  0.4219 -0.2900
   99SAPS  H15R 9942   1.072   2.837   8.277  0.8763  1.2361  0.9315
   99SAPS  C216 9943   1.288   2.891   8.269  0.4587  0.1153  0.1437
   99SAPS  H16R 9944   1.333   2.992   8.252  1.9724 -0.6745 -0.7076
   99SAPS  H16S 9945   1.356   2.817   8.222  0.5096 -1.0897  2.0161
   99SAPS  C217 9946   1.291   2.862   8.422  0.2720 -0.2170 -0.0047
   99SAPS  H17R 9947   1.246   2.761   8.432 -0.4100  0.1630  0.9509
   99SAPS  H17S 9948   1.229   2.939   8.472  1.4336  0.1570  0.9092
   99SAPS  C218 9949   1.433   2.864   8.481  0.8701  0.3510 -0.2996
   99SAPS  H18R 9950   1.480   2.964   8.468 -0.0147  0.5462 -2.2854
   99SAPS  H18S 9951   1.479   2.785   8.418  0.4593 -0.3017  0.2064
   99SAPS  C219 9952   1.432   2.823   8.628  0.1432 -0.1317  0.1180
   99SAPS  H19R 9953   1.538   2.830   8.660  1.0336  0.1305 -2.6408
   99SAPS  H19S 9954   1.395   2.718   8.624 -1.9862  0.5477  0.5418
   99SAPS  C220 9955   1.337   2.904   8.708 -0.0756  0.2027  0.1109
   99SAPS  H20R 9956   1.351   2.882   8.816  0.0638 -1.0450 -0.1488
   99SAPS  H20S 9957   1.232   2.868   8.697  0.3723 -1.4107  0.8172
   99SAPS  H20T 9958   1.356   3.014   8.702  1.4002 -0.0151  0.3886
   99SAPS   C33 9959   1.689   2.799   6.888 -0.4323 -0.2134 -0.8463
   99SAPS   H3X 9960   1.789   2.808   6.841 -0.4725  1.9116 -0.6189
   99SAPS   H3Y 9961   1.635   2.734   6.816 -1.7159 -0.1762  0.0422
   99SAPS   C34 9962   1.711   2.719   7.024  0.1946  0.3832 -0.0486
   99SAPS   H4X 9963   1.719   2.611   6.999  1.5271  1.0447 -2.9463
   99SAPS   H4Y 9964   1.623   2.728   7.091  1.6096 -2.5782  2.4362
   99SAPS   C35 9965   1.837   2.759   7.103 -0.5847  0.9325 -0.7067
   99SAPS   H5X 9966   1.807   2.861   7.137  2.2491  0.7667  2.7760
   99SAPS   H5Y 9967   1.927   2.757   7.038 -1.9230  1.0458 -2.6672
   99SAPS   C36 9968   1.856   2.679   7.234 -0.1927  0.1656 -0.7960
   99SAPS   H6X 9969   1.878   2.572   7.214 -1.3560  0.0207 -1.3779
   99SAPS   H6Y 9970   1.770   2.694   7.303  1.2579  2.7666  0.6075
   99SAPS   C37 9971   1.971   2.741   7.315  0.6544  0.5581 -1.0328
   99SAPS   H7X 9972   1.980   2.851   7.323  1.5715  0.3438  2.9381
   99SAPS   H7Y 9973   2.064   2.697   7.273  0.5254 -0.6762 -0.0642
   99SAPS   C38 9974   1.969   2.693   7.457  0.5421  0.4889 -0.6664
   99SAPS   H8X 9975   1.976   2.582   7.463  0.5207  0.3940 -2.1453
   99SAPS   H8Y 9976   1.871   2.725   7.498  0.3874 -1.4125  0.5928
   99SAPS   C39 9977   2.072   2.757   7.559 -0.4855  0.1946  1.0317
   99SAPS   H9X 9978   2.019   2.741   7.655 -0.1666 -0.2721  1.1339
   99SAPS   H9Y 9979   2.086   2.864   7.533 -1.4097  0.1413  0.2368
   99SAPS  C310 9980   2.204   2.681   7.564 -0.2653 -0.3392  0.3416
   99SAPS  H10X 9981   2.260   2.698   7.469 -1.2326  0.9070 -0.0343
   99SAPS  H10Y 9982   2.176   2.574   7.565  0.2917 -0.5091  2.4707
   99SAPS  C311 9983   2.289   2.721   7.683  0.3900 -0.4847 -1.2996
   99SAPS  H11X 9984   2.341   2.815   7.652  1.6565 -0.7460 -0.0538
   99SAPS  H11Y 9985   2.375   2.651   7.682  0.1324 -0.8007 -1.2775
   99SAPS  C312 9986   2.224   2.726   7.817  0.4023  0.0600 -0.1294
   99SAPS  H12X 9987   2.190   2.624   7.845 -0.6668  0.4601  0.0697
   99SAPS  H12Y 9988   2.128   2.782   7.813 -0.8159 -1.9616 -1.1515
   99SAPS  C313 9989   2.315   2.787   7.924  0.0160 -0.7506 -0.4501
   99SAPS  H13X 9990   2.339   2.890   7.892 -2.8942  0.3682  0.5587
   99SAPS  H13Y 9991   2.404   2.721   7.925  1.0362  0.5950  0.3582
   99SAPS  C314 9992   2.240   2.797   8.055  0.5808  0.3367 -0.3134
   99SAPS  H14X 9993   2.199   2.702   8.096 -1.0696  1.7335  1.4972
   99SAPS  H14Y 9994   2.145   2.854   8.042  0.8472  0.4316 -2.0417
   99SAPS  C315 9995   2.305   2.867   8.177 -0.5591 -0.4688  0.0483
   99SAPS  H15X 9996   2.340   2.967   8.142 -0.7471 -0.5609 -0.3940
   99SAPS  H15Y 9997   2.391   2.809   8.219 -0.9714  0.0156  1.6326
   99SAPS  C316 9998   2.210   2.896   8.300  0.7789 -0.6090 -0.5590
   99SAPS  H16X 9999   2.157   2.802   8.324  1.5553 -0.6525  1.1066
   99SAPS  H16Y10000   2.123   2.963   8.281  1.3323  0.2972 -0.0032
   99SAPS  C31710001   2.280   2.939   8.423 -0.5986 -0.5071 -0.0533
   99SAPS  H17X10002   2.367   2.873   8.443  0.6727  0.9893 -0.4393
   99SAPS  H17Y10003   2.216   2.922   8.512  0.8551 -0.0371  1.1227
   99SAPS  C31810004   2.317   3.088   8.419 -0.1538 -0.0978 -0.1236
   99SAPS  H18X10005   2.398   3.112   8.347  0.6355  1.4010  1.1862
   99SAPS  H18Y10006   2.333   3.121   8.524 -0.9244  2.1480 -0.6642
   99SAPS  H18Z10007   2.227   3.151   8.400 -0.4292 -0.9419 -1.7994
  100SAPS     N10008   5.774   1.763   6.328 -0.5181 -0.6257 -0.1744
  100SAPS   HN110009   5.717   1.837   6.374 -1.1609 -0.7322 -0.7892
  100SAPS   HN210010   5.719   1.679   6.302 -1.1777 -0.5671  0.9356
  100SAPS   HN310011   5.838   1.735   6.405 -2.2158  0.7947  1.8720
  100SAPS   C1210012   5.859   1.814   6.213  1.1528 -0.3090  0.2079
  100SAPS  H12A10013   5.926   1.732   6.191  2.0729 -0.0445  1.7799
  100SAPS   C1310014   5.777   1.863   6.094 -0.2213  0.6207  0.7762
  100SAPS  O13A10015   5.646   1.871   6.097 -0.3477  0.0751  0.4953
  100SAPS  O13B10016   5.841   1.888   5.989 -0.3242 -0.3392  0.6609
  100SAPS   C1110017   5.937   1.931   6.262 -0.4558 -0.2593 -0.8743
  100SAPS  H11A10018   5.891   2.031   6.281 -0.7720 -0.9241  2.4634
  100SAPS  H11B10019   6.008   1.945   6.177  0.4432  0.2535 -0.0565
  100SAPS     P10020   6.121   1.982   6.434  0.0407  0.4096 -0.1414
  100SAPS   O1310021   6.161   1.928   6.566  0.2449 -0.4003  0.4190
  100SAPS   O1410022   6.231   1.999   6.329 -0.1135 -0.0005  0.0121
  100SAPS   O1210023   6.011   1.882   6.381  0.6303 -0.8834  0.4696
  100SAPS   O1110024   6.041   2.118   6.456  0.4331 -0.2210 -0.1181
  100SAPS    C110025   5.927   2.131   6.539  0.5427  0.0022 -0.0379
  100SAPS    HA10026   5.846   2.176   6.478  0.4498 -1.4934 -1.0986
  100SAPS    HB10027   5.898   2.032   6.583  2.0939 -0.0131  1.0034
  100SAPS    C210028   5.953   2.228   6.660 -0.6960 -0.5557 -0.0591
  100SAPS    HS10029   5.859   2.248   6.715  0.5624  1.7995  1.4640
  100SAPS   O2110030   6.002   2.352   6.600 -0.0766 -0.1083 -0.4956
  100SAPS   C2110031   5.908   2.422   6.542 -0.5558 -0.2313 -0.3636
  100SAPS   O2210032   5.788   2.411   6.549 -0.0159  0.2771  0.0806
  100SAPS   C2210033   5.982   2.529   6.464 -1.1245  0.1846  0.2856
  100SAPS   H2R10034   6.088   2.505   6.443 -1.2213 -0.3966  0.4516
  100SAPS   H2S10035   5.926   2.539   6.369  0.2653 -1.2297 -0.7247
  100SAPS    C310036   6.062   2.172   6.759 -0.4493  0.3522 -0.1502
  100SAPS    HX10037   6.164   2.177   6.714 -0.9241 -1.0116 -1.4460
  100SAPS    HY10038   6.048   2.062   6.769  0.8724  0.3147  2.2669
  100SAPS   O3110039   6.057   2.225   6.888  0.1392 -0.3203 -0.1910
  100SAPS   C3110040   6.143   2.324   6.927 -0.3049 -0.4850 -0.5476
  100SAPS   O3210041   6.227   2.368   6.848  0.1104  0.2736 -0.0142
  100SAPS   C3210042   6.130   2.351   7.080 -0.4937 -0.1786 -1.0619
  100SAPS   H2X10043   6.061   2.273   7.117 -1.9410  0.9381 -1.3313
  100SAPS   H2Y10044   6.077   2.447   7.098 -3.6926 -1.8789 -0.6527
  100SAPS   C2310045   5.978   2.657   6.551 -0.2240 -0.0481  0.3426
  100SAPS   H3R10046   6.055   2.714   6.495 -1.1702  1.4052  0.4545
  100SAPS   H3S10047   6.014   2.640   6.654 -0.5687  0.2975  0.5227
  100SAPS   C2410048   5.851   2.746   6.525 -0.7016 -0.0621  0.1100
  100SAPS   H4R10049   5.763   2.679   6.539 -1.1350 -0.6701 -4.1000
  100SAPS   H4S10050   5.844   2.766   6.416 -0.6373 -1.3689 -0.1568
  100SAPS   C2510051   5.846   2.875   6.600 -0.4367 -0.9758 -0.5858
  100SAPS   H5R10052   5.915   2.954   6.568 -1.2150  0.8267  1.8273
  100SAPS   C2610053   5.770   2.899   6.711 -0.4907  0.1237 -0.1464
  100SAPS   H6R10054   5.795   2.990   6.767  0.1469  0.7089 -1.3438
  100SAPS   C2710055   5.668   2.806   6.779  0.2570  0.5637  0.2605
  100SAPS   H7R10056   5.572   2.817   6.725 -0.2936 -3.2760  0.1205
  100SAPS   H7S10057   5.643   2.846   6.880  0.0288  0.6195  0.1823
  100SAPS   C2810058   5.708   2.662   6.805 -0.5267  0.1540 -0.4202
  100SAPS   H8R10059   5.682   2.595   6.722  0.2530 -0.0989 -0.4666
  100SAPS   C2910060   5.769   2.618   6.915 -0.6318  0.6610 -0.9850
  100SAPS   H9R10061   5.807   2.514   6.913  1.8122  1.4815 -0.8666
  100SAPS  C21010062   5.823   2.696   7.032  0.1707  0.1231 -0.5264
  100SAPS  H10R10063   5.807   2.634   7.123 -4.0719 -1.6535 -2.2210
  100SAPS  H10S10064   5.764   2.790   7.043  1.0009  0.4967  1.0456
  100SAPS  C21110065   5.964   2.750   6.998  0.2916 -0.1532  0.6643
  100SAPS  H11R10066   5.979   2.773   6.892  2.2809  0.3684  1.0114
  100SAPS  C21210067   6.066   2.777   7.085  0.5858 -0.2017  0.1070
  100SAPS  H12R10068   6.154   2.834   7.052  2.8507 -3.1255  0.6822
  100SAPS  C21310069   6.068   2.760   7.235 -0.6330  0.2703  0.2752
  100SAPS  H13R10070   5.991   2.691   7.275  1.9280 -1.7755  2.0661
  100SAPS  H13S10071   6.044   2.848   7.298  1.9947  0.6481  0.8854
  100SAPS  C21410072   6.198   2.711   7.292  0.3645  0.0474  0.1703
  100SAPS  H14R10073   6.219   2.604   7.278  0.8143  0.1131  0.3155
  100SAPS  C21510074   6.297   2.781   7.348  0.1760  0.3337  0.2167
  100SAPS  H15R10075   6.396   2.734   7.362  0.1019  0.4542  1.2560
  100SAPS  C21610076   6.294   2.933   7.377  0.4661  0.3729 -0.5961
  100SAPS  H16R10077   6.201   2.987   7.350  0.7742  1.4396  0.3891
  100SAPS  H16S10078   6.378   2.989   7.331  0.6109 -1.2488 -2.4330
  100SAPS  C21710079   6.308   2.939   7.533  0.8188 -0.2228 -0.5286
  100SAPS  H17R10080   6.407   2.897   7.561  1.5001  2.1013  0.8786
  100SAPS  H17S10081   6.223   2.879   7.570 -0.3287  1.8448  0.3367
  100SAPS  C21810082   6.300   3.085   7.599  0.1083 -0.5451 -0.2059
  100SAPS  H18R10083   6.391   3.143   7.570  2.0903 -1.8969  2.7424
  100SAPS  H18S10084   6.311   3.058   7.706 -1.2270  0.1426  0.1206
  100SAPS  C21910085   6.166   3.150   7.568 -0.1125  0.0095  0.6269
  100SAPS  H19R10086   6.085   3.084   7.602 -1.9726  2.2469  0.7814
  100SAPS  H19S10087   6.166   3.161   7.457  0.9602  0.5056  0.6610
  100SAPS  C22010088   6.144   3.287   7.625 -0.8852 -0.4745 -0.2401
  100SAPS  H20R10089   6.056   3.332   7.574 -2.6115 -1.9872  1.2353
  100SAPS  H20S10090   6.235   3.349   7.616 -1.4336  0.6987  1.6997
  100SAPS  H20T10091   6.104   3.280   7.728 -3.8856  1.5171 -1.1199
  100SAPS   C3310092   6.272   2.354   7.147 -0.2552  0.4782 -0.4516
  100SAPS   H3X10093   6.325   2.444   7.111 -1.9530  2.0148  0.7462
  100SAPS   H3Y10094   6.317   2.258   7.112  1.5485  0.7221  1.1009
  100SAPS   C3410095   6.284   2.349   7.297  0.0363  0.0447 -0.2634
  100SAPS   H4X10096   6.246   2.250   7.328 -0.0588  0.1213 -0.1336
  100SAPS   H4Y10097   6.213   2.424   7.339 -2.7823 -1.7872 -1.5062
  100SAPS   C3510098   6.432   2.359   7.336  0.3338 -0.0995 -0.4072
  100SAPS   H5X10099   6.469   2.454   7.292 -3.0958  0.5027 -2.3484
  100SAPS   H5Y10100   6.487   2.275   7.287 -1.2400 -2.5716  1.7920
  100SAPS   C3610101   6.450   2.364   7.493 -0.3660  0.3767  0.2698
  100SAPS   H6X10102   6.405   2.272   7.537  0.8604 -1.3067 -1.7925
  100SAPS   H6Y10103   6.393   2.455   7.522 -2.1115 -0.8927  1.0190
  100SAPS   C3710104   6.595   2.369   7.539 -0.2178 -0.9818 -0.0910
  100SAPS   H7X10105   6.643   2.462   7.501 -1.5111 -0.8665 -1.5571
  100SAPS   H7Y10106   6.639   2.274   7.501  0.7437 -0.9019  0.7826
  100SAPS   C3810107   6.617   2.363   7.693  0.5309 -1.0476 -0.1130
  100SAPS   H8X10108   6.538   2.420   7.747  0.1436 -2.0521  0.3983
  100SAPS   H8Y10109   6.715   2.405   7.725 -0.7434  1.3906  0.8987
  100SAPS   C3910110   6.607   2.223   7.746 -0.1551 -0.1739  0.0868
  100SAPS   H9X10111   6.687   2.166   7.695 -1.7233 -0.8152 -1.7532
  100SAPS   H9Y10112   6.513   2.184   7.703 -0.1360  0.9118 -0.9946
  100SAPS  C31010113   6.615   2.202   7.898 -0.3155  0.0293 -0.0797
  100SAPS  H10X10114   6.716   2.231   7.933 -0.4040  0.4985 -0.2042
  100SAPS  H10Y10115   6.606   2.098   7.934  2.1391  0.5346  2.2616
  100SAPS  C31110116   6.501   2.278   7.961 -0.5459 -0.5233 -0.6594
  100SAPS  H11X10117   6.412   2.239   7.906 -0.7572 -1.2855  0.2060
  100SAPS  H11Y10118   6.515   2.386   7.939  1.9695  0.0634  3.0424
  100SAPS  C31210119   6.482   2.276   8.112 -0.1811  0.0154  0.1925
  100SAPS  H12X10120   6.496   2.171   8.145  0.6014  0.1939  0.4527
  100SAPS  H12Y10121   6.378   2.308   8.137 -0.1352  0.3089  0.0214
  100SAPS  C31310122   6.589   2.367   8.182  0.1208 -0.2078  0.1994
  100SAPS  H13X10123   6.613   2.464   8.134  1.5705 -2.0492 -3.1260
  100SAPS  H13Y10124   6.687   2.316   8.177  0.8771  1.1512  0.7391
  100SAPS  C31410125   6.556   2.383   8.330 -0.0129  0.6522 -0.9616
  100SAPS  H14X10126   6.540   2.278   8.360 -1.3947  0.8535 -0.9144
  100SAPS  H14Y10127   6.463   2.444   8.333  0.8342  1.9578 -0.1028
  100SAPS  C31510128   6.678   2.425   8.419  0.4051  0.0359  0.2207
  100SAPS  H15X10129   6.758   2.348   8.412  1.1130  0.7994 -0.1974
  100SAPS  H15Y10130   6.647   2.427   8.525  2.3371  0.0206  0.8230
  100SAPS  C31610131   6.733   2.559   8.380 -0.4952  0.2293 -0.1931
  100SAPS  H16X10132   6.648   2.615   8.337 -0.1005 -0.3150 -1.7496
  100SAPS  H16Y10133   6.798   2.547   8.290 -0.8450  2.3527 -0.7899
  100SAPS  C31710134   6.809   2.636   8.487  0.1460 -0.2243  0.1916
  100SAPS  H17X10135   6.880   2.559   8.526 -0.7056 -1.5285 -0.7381
  100SAPS  H17Y10136   6.748   2.663   8.575 -0.2992  2.7799 -0.9420
  100SAPS  C31810137   6.882   2.765   8.434 -0.0571 -0.4593 -0.4752
  100SAPS  H18X10138   6.808   2.825   8.375  0.6422  2.8642  1.7599
  100SAPS  H18Y10139   6.967   2.742   8.366  1.1215 -0.0699  0.8167
  100SAPS  H18Z10140   6.917   2.819   8.524 -0.3784  2.0606 -1.7616
  101OSM      N10141   2.352   1.906  10.850  0.5513 -0.0053  0.1558
  101OSM    C1510142   2.377   1.758  10.862  0.5506  0.4811  0.1878
  101OSM   H15A10143   2.289   1.698  10.881 -0.9981  1.5358 -2.8962
  101OSM   H15B10144   2.430   1.755  10.956  0.0937  0.8633  0.4658
  101OSM   H15C10145   2.439   1.728  10.779 -0.6684  1.8929 -1.3211
  101OSM    C1410146   2.274   1.936  10.974 -0.6675 -0.0737 -0.4765
  101OSM   H14A10147   2.202   1.856  10.984  1.6078 -2.3132 -1.1037
  101OSM   H14B10148   2.213   2.026  10.971 -0.5991  0.1094  1.7484
  101OSM   H14C10149   2.339   1.943  11.060  0.3319  0.2168 -1.2397
  101OSM    C1310150   2.485   1.982  10.854 -0.1208  0.2895 -0.0886
  101OSM   H13A10151   2.467   2.087  10.870  1.0419  0.9415 -2.5262
  101OSM   H13B10152   2.546   1.975  10.765  0.8121 -0.2423  0.5677
  101OSM   H13C10153   2.553   1.951  10.932  1.7597 -0.8432 -2.0458
  101OSM    C1210154   2.264   1.916  10.725 -0.2079 -0.4231 -0.4793
  101OSM   H12A10155   2.323   1.889  10.639  3.2683  2.9846  0.5247
  101OSM   H12B10156   2.238   2.021  10.723 -0.9046 -0.5811  0.0738
  101OSM    C1110157   2.133   1.831  10.725 -0.1989 -0.8992  0.4538
  101OSM   H11A10158   2.167   1.731  10.693 -1.9837 -0.9446 -1.5957
  101OSM   H11B10159   2.060   1.880  10.656  0.4574  1.5041  1.3407
  101OSM      P10160   1.965   1.696  10.858  0.3683  0.7068  0.0058
  101OSM    O1310161   2.029   1.573  10.918  0.2374  0.1386  0.0497
  101OSM    O1410162   1.853   1.750  10.939  0.5022  0.0711 -0.1596
  101OSM    O1110163   1.910   1.676  10.712  0.5733 -0.0890  0.3847
  101OSM    O1210164   2.068   1.815  10.848 -0.2442  0.0092 -0.0700
  101OSM    C1S10165   1.861   1.545  10.669 -0.1509 -0.4393 -0.2414
  101OSM    H1S10166   1.781   1.509  10.737 -0.7622 -0.3536 -0.9069
  101OSM    H1T10167   1.933   1.461  10.678  0.0807 -0.4505 -1.8651
  101OSM     NF10168   1.717   1.444  10.517  0.2095  0.0802  0.1071
  101OSM    HNF10169   1.755   1.358  10.484 -1.1610 -1.4357  2.2356
  101OSM    C2S10170   1.810   1.550  10.526  0.0891 -0.0460 -0.4530
  101OSM    H2S10171   1.750   1.644  10.520 -2.1148 -1.3406  0.3198
  101OSM    C3S10172   1.921   1.550  10.413 -0.3648  0.0050  0.1014
  101OSM    H3S10173   1.989   1.463  10.421  2.3782  2.1552  2.4625
  101OSM     O310174   2.001   1.668  10.447 -0.3785  0.3452 -0.1735
  101OSM    HO310175   1.977   1.694  10.536 -0.4036  0.7813 -0.3094
  101OSM    C4S10176   1.862   1.572  10.282 -0.6341  0.0250 -0.7875
  101OSM    H4S10177   1.818   1.673  10.272  3.3379  2.0811  0.1717
  101OSM    C5S10178   1.848   1.478  10.185  0.1115 -0.0952 -0.0439
  101OSM    H5S10179   1.879   1.374  10.205  0.5861  0.4645  2.5101
  101OSM    C6S10180   1.780   1.512  10.058  0.8418  0.4286  0.5526
  101OSM    H6S10181   1.749   1.619  10.054  0.2342  0.3152  1.8077
  101OSM    H6T10182   1.692   1.445  10.050 -0.2940  1.8173  0.9304
  101OSM    C7S10183   1.867   1.484   9.933 -0.6843 -0.5373  0.7195
  101OSM    H7S10184   1.933   1.397   9.952 -1.9715 -1.3339  1.7280
  101OSM    H7T10185   1.931   1.573   9.916 -3.3210  1.6075  1.2723
  101OSM    C8S10186   1.783   1.459   9.808 -0.2371 -0.1210 -0.4436
  101OSM    H8S10187   1.709   1.535   9.774 -1.0864 -1.3408 -1.4516
  101OSM    H8T10188   1.719   1.370   9.827 -1.5371  0.7286 -0.6781
  101OSM    C9S10189   1.869   1.436   9.689  0.0508  0.1750  0.0873
  101OSM    H9S10190   1.936   1.347   9.696 -0.2827 -0.0970 -0.1891
  101OSM    H9T10191   1.929   1.530   9.680  1.2284  0.0211  4.1425
  101OSM   C10S10192   1.783   1.404   9.567 -0.0042 -0.2618  0.7100
  101OSM   H10S10193   1.704   1.479   9.547  0.5196 -0.4818 -2.9185
  101OSM   H10T10194   1.736   1.304   9.577  1.9364 -1.2467  0.4762
  101OSM   C11S10195   1.867   1.424   9.439  0.0965  0.1030  0.1337
  101OSM   H11S10196   1.941   1.341   9.436 -0.0168  0.0118 -0.3069
  101OSM   H11T10197   1.932   1.513   9.450  0.4955  0.6064 -4.3014
  101OSM   C12S10198   1.782   1.429   9.317 -0.3664 -0.3457 -0.3386
  101OSM   H12S10199   1.682   1.479   9.322 -0.1148  0.0359  1.2188
  101OSM   H12T10200   1.742   1.328   9.295  0.5440 -0.8977  0.5030
  101OSM   C13S10201   1.847   1.490   9.196  0.7478 -0.0985  0.2834
  101OSM   H13S10202   1.957   1.476   9.184  0.7406  0.9865 -1.5233
  101OSM   H13T10203   1.832   1.598   9.219 -2.7194 -0.3237 -0.3941
  101OSM   C14S10204   1.785   1.457   9.057 -0.3022 -0.0827  0.0259
  101OSM   H14S10205   1.805   1.351   9.031 -0.4212  0.0987 -0.8211
  101OSM   H14T10206   1.841   1.522   8.986  0.6168  0.6355  1.3593
  101OSM   C15S10207   1.638   1.484   9.043  0.3948  1.1690  0.6206
  101OSM   H15S10208   1.625   1.593   9.064  0.4577  1.2291  0.3619
  101OSM   H15T10209   1.581   1.415   9.109  2.1682  0.4289  1.4243
  101OSM   C16S10210   1.565   1.473   8.902  0.0452  0.2175  0.3460
  101OSM   H16S10211   1.467   1.524   8.908 -1.3717 -2.1927 -0.7447
  101OSM   H16T10212   1.560   1.367   8.867  0.9233  0.5601 -0.8827
  101OSM   C17S10213   1.647   1.537   8.783  0.2124 -0.1503  0.0936
  101OSM   H17S10214   1.739   1.476   8.769  0.2062 -0.7426  2.2919
  101OSM   H17T10215   1.671   1.639   8.817 -0.1097  0.3880 -1.2233
  101OSM   C18S10216   1.570   1.532   8.655 -0.4034 -0.0216  0.4963
  101OSM   H18S10217   1.547   1.429   8.622 -2.4645 -0.3078  2.5375
  101OSM   H18T10218   1.625   1.584   8.573 -1.4585 -0.4657 -0.5165
  101OSM   H18U10219   1.466   1.570   8.657 -1.4474 -2.5978 -0.7926
  101OSM    C1F10220   1.593   1.451  10.561  0.1774  1.0251  0.2906
  101OSM     OF10221   1.559   1.550  10.628 -0.0677 -0.2922 -0.3646
  101OSM    C2F10222   1.493   1.338  10.525 -0.0835 -0.0082  0.0692
  101OSM    H2F10223   1.432   1.308  10.613  0.7398 -2.3304 -0.0732
  101OSM    H2G10224   1.549   1.251  10.485  1.2577  0.8517 -0.0009
  101OSM    C3F10225   1.388   1.394  10.433 -0.0060 -0.2113 -0.1485
  101OSM    H3F10226   1.333   1.479  10.478  1.1194 -0.0914  1.0584
  101OSM    H3G10227   1.324   1.305  10.414  4.2894 -3.8998  1.1117
  101OSM    C4F10228   1.433   1.440  10.292 -0.0738  0.0199 -0.7014
  101OSM    H4F10229   1.517   1.378  10.254  2.0817  1.0194  2.0811
  101OSM    H4G10230   1.474   1.541  10.316 -2.2749  0.9279 -0.5962
  101OSM    C5F10231   1.309   1.439  10.195 -0.8415 -0.3433  0.2606
  101OSM    H5F10232   1.245   1.524  10.224 -0.0896  0.2053  0.3387
  101OSM    H5G10233   1.254   1.343  10.205  1.1645 -1.7872 -1.4061
  101OSM    C6F10234   1.368   1.458  10.052 -0.0595  0.0341  0.0510
  101OSM    H6F10235   1.443   1.377  10.037 -0.1517 -0.0120 -0.1734
  101OSM    H6G10236   1.416   1.557  10.037  1.6868 -0.7208  0.3973
  101OSM    C7F10237   1.254   1.448   9.945 -0.4850 -0.2426 -0.1385
  101OSM    H7F10238   1.219   1.554   9.940 -2.2487 -0.8331 -0.9102
  101OSM    H7G10239   1.178   1.379   9.988 -0.8323  0.3872  0.2857
  101OSM    C8F10240   1.298   1.422   9.804  0.4213  0.1444 -0.3314
  101OSM    H8F10241   1.203   1.422   9.747 -0.2299 -2.0541  0.6596
  101OSM    H8G10242   1.339   1.319   9.807  0.1334  0.0349 -0.1379
  101OSM    C9F10243   1.412   1.507   9.747  0.2622  0.7531  0.8261
  101OSM    H9F10244   1.495   1.518   9.819  2.5022 -1.7766 -1.1414
  101OSM   C10F10245   1.413   1.566   9.625 -0.3174 -0.1412 -0.2743
  101OSM   H10F10246   1.494   1.639   9.606 -0.5406  0.7887  1.9762
  101OSM   C11F10247   1.303   1.555   9.522  0.5790 -0.0829 -0.4529
  101OSM   H11F10248   1.262   1.657   9.506 -2.2524 -1.0567  0.1662
  101OSM   H11G10249   1.224   1.481   9.542  1.2882 -0.6018  0.5156
  101OSM   C12F10250   1.370   1.503   9.393 -0.0209 -0.0937 -0.1997
  101OSM   H12F10251   1.386   1.393   9.400 -0.5403 -0.1891 -0.4309
  101OSM   H12G10252   1.471   1.549   9.387  0.6685 -1.3614  1.0977
  101OSM   C13F10253   1.286   1.533   9.265  0.3697  0.8182  0.3445
  101OSM   H13F10254   1.355   1.600   9.209 -0.3738  1.2476 -0.0662
  101OSM   H13G10255   1.191   1.581   9.296 -0.2731 -1.3658  2.0176
  101OSM   C14F10256   1.245   1.403   9.188  0.0524  0.7837 -0.4462
  101OSM   H14F10257   1.188   1.327   9.246  3.3327 -2.9554 -1.6619
  101OSM   H14G10258   1.345   1.362   9.160  0.1855 -1.8315  3.1374
  101OSM   C15F10259   1.179   1.436   9.049 -0.2246 -0.0854  0.1024
  101OSM   H15F10260   1.227   1.531   9.017  0.8895 -0.5009  0.4689
  101OSM   H15G10261   1.069   1.448   9.051 -0.0500  1.8335  0.8029
  101OSM   C16F10262   1.179   1.326   8.938 -0.1265  0.3581 -0.2314
  101OSM   H16F10263   1.157   1.226   8.982 -0.0776 -0.8718 -2.8035
  101OSM   H16G10264   1.284   1.322   8.903 -0.4109  0.5466 -1.1331
  101OSM   C17F10265   1.086   1.359   8.813 -0.2071  0.5619 -0.0266
  101OSM   H17F10266   1.131   1.458   8.791 -0.5093  1.1935  2.0292
  101OSM   H17G10267   0.982   1.369   8.851  0.5250  0.2223  2.1680
  101OSM   C18F10268   1.106   1.246   8.707  0.7057 -0.4292 -0.5862
  101OSM   H18F10269   1.211   1.225   8.677  0.7760 -0.1389 -0.5393
  101OSM   H18G10270   1.045   1.268   8.617  1.8056  1.3790 -0.9322
  101OSM   H18H10271   1.070   1.151   8.753  0.9156 -0.2763 -0.1008
  102OSM      N10272   6.618   1.918  11.399  0.1899 -0.4268 -0.1320
  102OSM    C1510273   6.741   1.826  11.386 -0.6824  0.4812 -0.6247
  102OSM   H15A10274   6.721   1.721  11.368  1.5577 -0.0987  0.0058
  102OSM   H15B10275   6.789   1.843  11.481 -0.2094  2.3558 -1.1545
  102OSM   H15C10276   6.804   1.862  11.306  3.7449  1.6519  2.9687
  102OSM    C1410277   6.531   1.893  11.277 -0.5566  0.2907 -0.1436
  102OSM   H14A10278   6.475   1.801  11.284  0.1332 -0.1729 -0.5014
  102OSM   H14B10279   6.600   1.885  11.194  1.9877  0.1795  1.8600
  102OSM   H14C10280   6.458   1.971  11.269  0.3062  1.3569  1.6432
  102OSM    C1310281   6.547   1.855  11.524  0.1337 -0.0254 -0.1804
  102OSM   H13A10282   6.446   1.892  11.533  0.9852  2.1135  1.6610
  102OSM   H13B10283   6.594   1.891  11.615 -1.2570  0.5746  0.3195
  102OSM   H13C10284   6.562   1.748  11.532  0.4697  0.1191  1.7895
  102OSM    C1210285   6.663   2.065  11.409  0.3136  0.0684 -0.5404
  102OSM   H12A10286   6.734   2.073  11.489  0.6102  1.9609 -0.9593
  102OSM   H12B10287   6.587   2.128  11.452 -0.0297 -1.1378  0.7032
  102OSM    C1110288   6.706   2.140  11.285 -0.7524  0.1460  0.4552
  102OSM   H11A10289   6.742   2.237  11.325 -0.3792 -0.2665  1.1384
  102OSM   H11B10290   6.617   2.150  11.219 -0.6043 -1.5140 -0.0260
  102OSM      P10291   6.813   2.073  11.064 -0.0088  0.0157  0.4228
  102OSM    O1310292   6.927   1.994  11.015  0.5677 -0.2354  0.2533
  102OSM    O1410293   6.678   2.033  11.017  0.1328  0.2012  0.3312
  102OSM    O1110294   6.828   2.221  11.029 -0.6602 -0.0682 -0.3512
  102OSM    O1210295   6.814   2.068  11.223  0.5874  0.2473  0.2747
  102OSM    C1S10296   6.963   2.278  11.018 -0.1970 -0.0284  0.1389
  102OSM    H1S10297   7.029   2.239  11.098  0.4004  1.2228  0.2738
  102OSM    H1T10298   6.959   2.387  11.037 -0.1944 -0.0051  0.0063
  102OSM     NF10299   7.147   2.371  10.875 -0.1386  0.3615 -0.3711
  102OSM    HNF10300   7.146   2.459  10.828  0.4685 -0.0184 -1.0902
  102OSM    C2S10301   7.024   2.292  10.870  0.7531 -0.1907 -0.2651
  102OSM    H2S10302   7.046   2.191  10.829 -1.8762 -0.7177 -0.5808
  102OSM    C3S10303   6.922   2.348  10.767 -0.0305 -0.3757  0.3207
  102OSM    H3S10304   6.921   2.456  10.792 -0.1003 -0.6607  1.6095
  102OSM     O310305   6.795   2.286  10.766  0.1944  0.2231  0.0261
  102OSM    HO310306   6.781   2.256  10.856 -0.5309 -0.3961 -0.2759
  102OSM    C4S10307   6.984   2.339  10.624  0.1182  0.1256 -0.2313
  102OSM    H4S10308   7.044   2.427  10.596 -1.1757  2.2231  3.0004
  102OSM    C5S10309   6.966   2.244  10.531 -1.0371  0.5132 -0.1140
  102OSM    H5S10310   6.903   2.160  10.564  1.5830 -0.8947  1.6659
  102OSM    C6S10311   7.038   2.242  10.392 -0.1899  0.1920 -0.4697
  102OSM    H6S10312   7.113   2.160  10.382 -0.2062  0.2590 -1.1529
  102OSM    H6T10313   7.101   2.334  10.389 -0.6595  0.5990  1.2176
  102OSM    C7S10314   6.960   2.237  10.260 -0.3167 -0.3644  0.2100
  102OSM    H7S10315   6.878   2.309  10.238 -0.3594 -0.0768  1.2588
  102OSM    H7T10316   6.904   2.141  10.265  1.1551 -1.2010  1.3596
  102OSM    C8S10317   7.049   2.257  10.135 -0.3507 -0.1791 -0.2057
  102OSM    H8S10318   7.131   2.185  10.153  1.5737  2.3339  2.0440
  102OSM    H8T10319   7.109   2.350  10.145  2.7433 -2.1430  0.9551
  102OSM    C9S10320   6.974   2.253  10.012 -0.0296 -0.1544 -0.2987
  102OSM    H9S10321   6.904   2.339  10.009 -0.4672 -0.5100 -0.4394
  102OSM    H9T10322   6.916   2.158  10.007  1.3879 -1.0496 -0.1495
  102OSM   C10S10323   7.067   2.268   9.894  0.7536 -0.1563 -0.3501
  102OSM   H10S10324   7.142   2.187   9.910  0.9496  0.2174  0.7011
  102OSM   H10T10325   7.122   2.362   9.917  0.2631 -0.2914  1.5860
  102OSM   C11S10326   7.004   2.283   9.755 -0.2689 -0.4315  0.0486
  102OSM   H11S10327   6.908   2.338   9.772  0.6467  0.7528  1.6163
  102OSM   H11T10328   6.959   2.193   9.709  0.0014 -0.2980 -0.4822
  102OSM   C12S10329   7.100   2.332   9.642  0.6075  0.5042 -0.0191
  102OSM   H12S10330   7.186   2.262   9.638 -0.5707 -0.9716 -0.3098
  102OSM   H12T10331   7.133   2.435   9.670 -0.3893  0.3645  1.8471
  102OSM   C13S10332   7.027   2.323   9.508  0.3807 -0.2071  0.3662
  102OSM   H13S10333   6.927   2.372   9.510  1.1531  1.5928 -1.6859
  102OSM   H13T10334   7.022   2.212   9.501 -1.8593 -0.0946 -0.5668
  102OSM   C14S10335   7.121   2.387   9.404  0.2842  0.2811 -0.8458
  102OSM   H14S10336   7.225   2.348   9.395  0.8557  1.5999 -0.2840
  102OSM   H14T10337   7.126   2.496   9.427  1.5578  0.2797 -0.9960
  102OSM   C15S10338   7.056   2.387   9.262  0.1629 -0.7617  0.4366
  102OSM   H15S10339   6.970   2.457   9.269  0.3209 -0.6967  2.0049
  102OSM   H15T10340   7.017   2.288   9.231 -0.8294 -0.3277  0.2615
  102OSM   C16S10341   7.146   2.455   9.149  0.2458 -0.3342  0.1875
  102OSM   H16S10342   7.242   2.400   9.142  0.0648 -0.4758 -1.5258
  102OSM   H16T10343   7.165   2.558   9.187 -0.4709 -0.4485  0.8868
  102OSM   C17S10344   7.085   2.446   9.011  0.0604 -0.3732  0.6384
  102OSM   H17S10345   7.076   2.339   8.982 -0.5159 -0.3323  0.6631
  102OSM   H17T10346   7.150   2.492   8.934  1.2330  0.3935  2.0330
  102OSM   C18S10347   6.944   2.509   8.995 -0.5521 -0.4678 -0.2108
  102OSM   H18S10348   6.906   2.518   8.891  0.4774  0.1141 -0.5509
  102OSM   H18T10349   6.943   2.611   9.040 -1.1648  0.2778 -1.8429
  102OSM   H18U10350   6.875   2.449   9.057 -1.1580 -0.3802 -0.7953
  102OSM    C1F10351   7.267   2.340  10.935 -0.1383  0.4736  0.1078
  102OSM     OF10352   7.284   2.226  10.970  0.3667  0.8749  0.0960
  102OSM    C2F10353   7.380   2.438  10.952 -0.0246 -0.0726 -0.1549
  102OSM    H2F10354   7.405   2.443  11.061 -0.1346  0.8785 -0.1636
  102OSM    H2G10355   7.356   2.542  10.924  1.8745  0.9312  1.6429
  102OSM    C3F10356   7.511   2.404  10.883 -0.5223 -0.6796  0.4609
  102OSM    H3F10357   7.555   2.310  10.924  0.3178  0.2474  1.7900
  102OSM    H3G10358   7.575   2.486  10.922 -2.6217  2.2734 -1.8415
  102OSM    C4F10359   7.516   2.402  10.731 -0.4215  0.1888  0.5333
  102OSM    H4F10360   7.485   2.505  10.701 -0.0861  0.6026  1.5771
  102OSM    H4G10361   7.455   2.324  10.680  1.5614  0.1680 -2.0114
  102OSM    C5F10362   7.661   2.382  10.675 -0.4182  0.0972 -0.3997
  102OSM    H5F10363   7.693   2.275  10.682  1.8426  0.5765 -2.0758
  102OSM    H5G10364   7.730   2.445  10.734 -2.9805  1.1334  1.6586
  102OSM    C6F10365   7.676   2.425  10.526  0.0537  0.7171 -0.1750
  102OSM    H6F10366   7.637   2.528  10.510  1.1794  1.4230  1.3912
  102OSM    H6G10367   7.612   2.360  10.462  0.8736  1.4350 -1.7845
  102OSM    C7F10368   7.813   2.397  10.455 -0.4681  0.3516 -0.2730
  102OSM    H7F10369   7.846   2.295  10.484 -0.4781  1.0072  2.2898
  102OSM    H7G10370   7.889   2.474  10.480  0.6304 -0.5524 -0.7020
  102OSM    C8F10371   7.793   2.387  10.307 -0.0565 -0.4532  0.0828
  102OSM    H8F10372   7.750   2.484  10.274  1.5254  0.6719  1.1518
  102OSM    H8G10373   7.715   2.312  10.281 -0.1209 -0.0313 -0.9933
  102OSM    C9F10374   7.913   2.356  10.229  0.5362 -0.0663  1.0213
  102OSM    H9F10375   7.974   2.275  10.271  0.3143  0.8473  3.2312
  102OSM   C10F10376   7.969   2.435  10.131 -0.5651 -0.4601  0.1638
  102OSM   H10F10377   8.073   2.415  10.101 -0.0892  0.4728  1.1194
  102OSM   C11F10378   7.916   2.564  10.081 -0.1061 -0.5879  0.7820
  102OSM   H11F10379   7.996   2.639  10.099  1.3754 -2.0888  0.7098
  102OSM   H11G10380   7.826   2.602  10.134 -0.9450 -0.4996 -0.6455
  102OSM   C12F10381   7.875   2.556   9.931  0.5397 -0.7375 -0.8359
  102OSM   H12F10382   7.850   2.658   9.896  2.0863 -0.9538 -2.8093
  102OSM   H12G10383   7.778   2.502   9.933 -0.5140  1.1054  0.6409
  102OSM   C13F10384   7.983   2.502   9.837  0.1297  0.1830 -0.5114
  102OSM   H13F10385   8.027   2.412   9.886 -1.0456 -0.1797 -0.0702
  102OSM   H13G10386   8.064   2.571   9.807  2.0728 -0.3109  3.0519
  102OSM   C14F10387   7.906   2.457   9.709 -0.1044 -0.4471 -0.2668
  102OSM   H14F10388   7.875   2.545   9.648  0.5572 -1.1172 -1.6212
  102OSM   H14G10389   7.805   2.418   9.735 -0.2041 -1.7441 -2.3281
  102OSM   C15F10390   7.996   2.364   9.623 -0.2326 -0.0395 -0.9412
  102OSM   H15F10391   8.038   2.292   9.697  2.3550  3.3787  1.2240
  102OSM   H15G10392   8.084   2.419   9.584  0.3005 -1.4392 -1.7711
  102OSM   C16F10393   7.920   2.303   9.498 -0.0403  0.0828 -0.1770
  102OSM   H16F10394   7.843   2.372   9.458  0.7655  1.3123  0.3302
  102OSM   H16G10395   7.857   2.221   9.539 -1.2439  0.6787 -0.7870
  102OSM   C17F10396   8.006   2.254   9.382  0.2284 -0.5009 -0.4312
  102OSM   H17F10397   7.946   2.198   9.307  0.8266 -1.0257 -0.5327
  102OSM   H17G10398   8.071   2.171   9.419  0.4213  0.4678  1.5259
  102OSM   C18F10399   8.097   2.365   9.319 -0.0224 -0.2572  0.2057
  102OSM   H18F10400   8.174   2.395   9.393 -1.8857 -1.2648  2.6879
  102OSM   H18G10401   8.034   2.450   9.286 -0.1468  0.3814  2.0148
  102OSM   H18H10402   8.140   2.325   9.225 -2.2872 -2.2715 -0.0835
  103OSM      N10403   2.359   4.898  11.280 -0.2320  0.6656 -0.3396
  103OSM    C1510404   2.433   5.031  11.243 -1.1301 -0.3393  0.5937
  103OSM   H15A10405   2.360   5.089  11.189  0.6094  1.1076 -0.3039
  103OSM   H15B10406   2.520   5.001  11.186 -3.2240 -1.2103 -2.4172
  103OSM   H15C10407   2.463   5.091  11.327  2.2292  0.2059 -0.8083
  103OSM    C1410408   2.444   4.813  11.374  0.1900  0.2745  0.3259
  103OSM   H14A10409   2.499   4.869  11.448  2.3640 -2.1612  0.6914
  103OSM   H14B10410   2.533   4.778  11.323 -0.1521  0.7078 -0.5993
  103OSM   H14C10411   2.384   4.733  11.415  1.5822 -1.5813 -1.0835
  103OSM    C1310412   2.243   4.949  11.356  0.8378  0.7108 -0.3649
  103OSM   H13A10413   2.189   4.860  11.384  1.6276 -0.5761 -2.6350
  103OSM   H13B10414   2.196   5.024  11.293  1.2523  0.2246 -1.2672
  103OSM   H13C10415   2.274   4.999  11.447 -0.0398 -0.6389  0.7068
  103OSM    C1210416   2.323   4.823  11.152 -0.3816  0.7664 -0.1269
  103OSM   H12A10417   2.411   4.795  11.096 -0.3270 -2.3797  1.3205
  103OSM   H12B10418   2.272   4.886  11.081  1.9219 -0.4302 -3.0554
  103OSM    C1110419   2.243   4.697  11.165  0.2558  0.2278  0.2848
  103OSM   H11A10420   2.153   4.702  11.229  1.1382  0.2585  1.5650
  103OSM   H11B10421   2.305   4.620  11.215 -1.0089  0.5710  2.4751
  103OSM      P10422   2.083   4.573  11.001  0.3463 -0.5299  0.1018
  103OSM    O1310423   2.112   4.488  10.880  0.1500  0.6210 -0.1986
  103OSM    O1410424   2.036   4.504  11.128 -0.1713  0.1125  0.3129
  103OSM    O1110425   1.988   4.686  10.953  0.1672 -0.0402  0.3048
  103OSM    O1210426   2.214   4.650  11.031 -0.2787 -0.3379  0.1331
  103OSM    C1S10427   2.012   4.765  10.837  0.0416  0.6651  0.2602
  103OSM    H1S10428   2.121   4.787  10.824  0.2533  0.5521  1.7012
  103OSM    H1T10429   1.964   4.865  10.848 -1.5423  0.0761 -0.9248
  103OSM     NF10430   2.000   4.796  10.600 -0.1721 -0.3370 -0.8804
  103OSM    HNF10431   1.930   4.863  10.574 -2.1736 -2.1808 -0.5121
  103OSM    C2S10432   1.957   4.713  10.703  0.0177  0.2577  0.3785
  103OSM    H2S10433   2.010   4.619  10.680  0.1232  0.2187  0.7683
  103OSM    C3S10434   1.806   4.686  10.701 -0.0214  0.7016 -0.1086
  103OSM    H3S10435   1.760   4.783  10.729  1.8367  1.3316  0.9591
  103OSM     O310436   1.760   4.588  10.795  0.3676 -0.1612  0.3254
  103OSM    HO310437   1.839   4.544  10.827  0.0913  1.0551  2.9302
  103OSM    C4S10438   1.763   4.646  10.562 -0.8316  0.2017  0.0986
  103OSM    H4S10439   1.726   4.739  10.517  0.7724  0.0205 -1.7303
  103OSM    C5S10440   1.754   4.527  10.494  0.1134 -0.2369 -0.0808
  103OSM    H5S10441   1.765   4.432  10.548 -1.7355 -0.7249 -0.4719
  103OSM    C6S10442   1.710   4.514  10.351  0.4618 -0.5567 -0.1292
  103OSM    H6S10443   1.602   4.486  10.350  0.2376  0.2764 -0.2136
  103OSM    H6T10444   1.756   4.421  10.312 -1.3406 -2.6184  2.3063
  103OSM    C7S10445   1.739   4.634  10.252 -0.1249 -0.5950  0.1809
  103OSM    H7S10446   1.844   4.665  10.271 -0.5639  2.3121 -1.3868
  103OSM    H7T10447   1.679   4.723  10.282  0.3549  0.2456 -1.2492
  103OSM    C8S10448   1.718   4.595  10.104  0.6864  0.1363  0.1362
  103OSM    H8S10449   1.614   4.558  10.101  0.5213  0.5684  0.4035
  103OSM    H8T10450   1.793   4.516  10.081  1.4438  0.7958  0.2874
  103OSM    C9S10451   1.751   4.709  10.007 -0.0737 -0.7922  0.2911
  103OSM    H9S10452   1.845   4.762  10.029 -1.1029  1.2861 -0.0915
  103OSM    H9T10453   1.665   4.778  10.021 -1.3570 -1.9110 -1.5416
  103OSM   C10S10454   1.747   4.672   9.860 -0.4019  0.0476 -0.0556
  103OSM   H10S10455   1.641   4.640   9.851 -0.4574  0.4551 -0.8427
  103OSM   H10T10456   1.819   4.588   9.848 -0.0537  0.4572 -0.8841
  103OSM   C11S10457   1.775   4.778   9.751 -0.3406  0.2500  0.1929
  103OSM   H11S10458   1.881   4.813   9.751 -0.7553  1.5580 -0.3659
  103OSM   H11T10459   1.715   4.871   9.761  0.9335  1.1392 -0.1533
  103OSM   C12S10460   1.742   4.715   9.619 -0.1993  0.0622  1.1001
  103OSM   H12S10461   1.649   4.655   9.617 -0.2356  0.1379 -0.4862
  103OSM   H12T10462   1.824   4.648   9.585 -0.6970  0.7788 -1.8042
  103OSM   C13S10463   1.725   4.821   9.507 -0.5401 -0.1309  0.2680
  103OSM   H13S10464   1.797   4.904   9.525  0.9422 -1.3578  0.2163
  103OSM   H13T10465   1.620   4.851   9.525 -0.5703  0.1227 -0.3054
  103OSM   C14S10466   1.723   4.765   9.366 -0.4029  0.8431  0.1172
  103OSM   H14S10467   1.632   4.702   9.359 -1.9697  3.0327 -0.5659
  103OSM   H14T10468   1.813   4.702   9.352 -0.8497  0.0464  0.7740
  103OSM   C15S10469   1.725   4.875   9.263 -0.1753  0.1330 -0.6050
  103OSM   H15S10470   1.815   4.938   9.285  1.7316 -2.7743  0.4772
  103OSM   H15T10471   1.635   4.939   9.273  0.8628  1.3516  2.1461
  103OSM   C16S10472   1.731   4.823   9.118  0.2944  0.4169 -0.0305
  103OSM   H16S10473   1.675   4.727   9.118  1.7214 -0.4899  1.9662
  103OSM   H16T10474   1.834   4.804   9.083 -0.1644 -2.4963 -0.0800
  103OSM   C17S10475   1.656   4.919   9.019 -0.2984  0.5759  0.8286
  103OSM   H17S10476   1.690   5.025   9.024  0.7456  0.3609 -0.7518
  103OSM   H17T10477   1.552   4.914   9.057 -0.3538 -1.7462  0.5444
  103OSM   C18S10478   1.661   4.866   8.871  0.8564 -0.7926 -0.5292
  103OSM   H18S10479   1.772   4.858   8.866  0.9468 -0.4716  0.5046
  103OSM   H18T10480   1.617   4.940   8.800 -0.5817 -1.1907 -0.0780
  103OSM   H18U10481   1.613   4.767   8.860  0.9788 -0.7185 -1.7986
  103OSM    C1F10482   2.124   4.807  10.555 -0.4156  0.0651  0.0513
  103OSM     OF10483   2.202   4.719  10.576 -0.4424 -0.0462 -0.0348
  103OSM    C2F10484   2.151   4.937  10.486 -0.1432  0.1207 -0.0211
  103OSM    H2F10485   2.128   5.017  10.559  2.2329 -0.4007  1.4072
  103OSM    H2G10486   2.079   4.933  10.401 -0.9549 -1.5842  0.7036
  103OSM    C3F10487   2.290   4.948  10.428  0.8316  0.0985  0.3532
  103OSM    H3F10488   2.309   4.855  10.371  0.2734 -0.9915  1.8881
  103OSM    H3G10489   2.354   4.936  10.518 -0.3117  0.2246  1.2079
  103OSM    C4F10490   2.316   5.072  10.347 -0.0898  0.0930  0.1654
  103OSM    H4F10491   2.368   5.145  10.413  1.7879 -0.1789 -0.9111
  103OSM    H4G10492   2.222   5.105  10.298  0.2239  0.0068 -0.5173
  103OSM    C5F10493   2.421   5.046  10.238  0.2422  0.4480 -0.3754
  103OSM    H5F10494   2.398   4.957  10.176 -1.3719  1.9121 -2.0497
  103OSM    H5G10495   2.516   5.026  10.291 -0.9102  0.5424  1.8085
  103OSM    C6F10496   2.449   5.169  10.151 -0.8191 -0.5952  0.0268
  103OSM    H6F10497   2.475   5.259  10.210 -0.8378  0.1294 -1.0337
  103OSM    H6G10498   2.368   5.208  10.085 -1.2737  0.8182  1.3728
  103OSM    C7F10499   2.565   5.146  10.055  0.0995  0.1966 -0.6643
  103OSM    H7F10500   2.537   5.057   9.994  0.1097 -0.4878  0.3109
  103OSM    H7G10501   2.657   5.112  10.108  1.3124 -1.5503 -3.6228
  103OSM    C8F10502   2.598   5.255   9.953 -0.1758  0.1368  0.3518
  103OSM    H8F10503   2.635   5.345  10.007  2.2650 -0.2922 -0.5087
  103OSM    H8G10504   2.504   5.279   9.899  1.0770 -0.0768 -2.0169
  103OSM    C9F10505   2.696   5.211   9.852 -0.1010 -0.0601  0.0281
  103OSM    H9F10506   2.784   5.155   9.890 -0.4989 -0.2524  0.6729
  103OSM   C10F10507   2.674   5.216   9.720  0.3351  0.1016  0.6158
  103OSM   H10F10508   2.765   5.201   9.661  0.5849  1.1178  0.7288
  103OSM   C11F10509   2.550   5.276   9.639 -0.1688  0.1846 -0.0948
  103OSM   H11F10510   2.478   5.330   9.705 -0.4538  0.0390 -0.2868
  103OSM   H11G10511   2.483   5.193   9.609 -1.4469  0.6724  1.2906
  103OSM   C12F10512   2.606   5.382   9.539  0.1582 -0.1522 -0.0269
  103OSM   H12F10513   2.679   5.444   9.596 -0.2333  0.0577  0.2490
  103OSM   H12G10514   2.519   5.435   9.495  0.5033  0.9627  0.5919
  103OSM   C13F10515   2.682   5.312   9.420  0.5620 -0.4791  0.2000
  103OSM   H13F10516   2.771   5.262   9.464 -0.0561  0.4719  2.7114
  103OSM   H13G10517   2.615   5.243   9.363  2.5924 -0.7120 -2.0478
  103OSM   C14F10518   2.739   5.409   9.317 -0.6896  0.0893  0.8225
  103OSM   H14F10519   2.812   5.484   9.355 -1.1560  1.0577 -0.1352
  103OSM   H14G10520   2.652   5.471   9.285  0.3227  1.9639  1.5383
  103OSM   C15F10521   2.791   5.334   9.189 -1.3259 -0.0255 -0.0959
  103OSM   H15F10522   2.710   5.283   9.133 -1.2465 -0.6850  0.3730
  103OSM   H15G10523   2.873   5.272   9.233 -0.5552  1.0049 -0.0484
  103OSM   C16F10524   2.873   5.422   9.097 -0.2693 -0.6982  0.4490
  103OSM   H16F10525   2.932   5.487   9.165  0.5399 -0.6339 -0.3031
  103OSM   H16G10526   2.807   5.483   9.032  1.3966 -1.3598 -1.9993
  103OSM   C17F10527   2.954   5.354   8.992  0.2595  0.0365 -0.1703
  103OSM   H17F10528   2.892   5.302   8.916  1.2880 -0.2947 -0.8011
  103OSM   H17G10529   3.019   5.276   9.036 -0.2996 -0.4943 -0.2788
  103OSM   C18F10530   3.056   5.451   8.929 -0.1662  0.1722 -0.3107
  103OSM   H18F10531   2.999   5.541   8.897  0.6630  0.8708  0.1527
  103OSM   H18G10532   3.100   5.405   8.838  0.0872  1.0414 -0.6301
  103OSM   H18H10533   3.136   5.477   9.002 -0.5502 -0.2973  0.2969
  104OSM      N10534   0.629   4.679  11.245  0.1170  0.6506  0.5252
  104OSM    C1510535   0.663   4.788  11.154  0.1121 -0.0519  0.2037
  104OSM   H15A10536   0.574   4.826  11.105  0.4454 -0.2388 -0.5681
  104OSM   H15B10537   0.731   4.749  11.080 -0.1094 -4.0837  1.8889
  104OSM   H15C10538   0.701   4.877  11.202  0.0069 -0.8973  1.9129
  104OSM    C1410539   0.759   4.631  11.307  0.1914  0.2044  0.1683
  104OSM   H14A10540   0.821   4.606  11.223 -0.6819  1.3299 -0.8512
  104OSM   H14B10541   0.743   4.552  11.379  0.2070  0.0512  0.0030
  104OSM   H14C10542   0.806   4.715  11.356 -0.9469  1.0635 -0.1646
  104OSM    C1310543   0.542   4.745  11.340  0.6520  0.8577 -0.2654
  104OSM   H13A10544   0.450   4.778  11.293 -0.9234  0.6670  2.4478
  104OSM   H13B10545   0.569   4.835  11.394 -0.0352  0.9590 -0.0762
  104OSM   H13C10546   0.510   4.669  11.410  2.6624 -0.0211 -0.2569
  104OSM    C1210547   0.546   4.566  11.176  0.3165  0.3395  0.1659
  104OSM   H12A10548   0.447   4.605  11.154 -1.1639 -0.0867  4.9200
  104OSM   H12B10549   0.538   4.489  11.251 -3.2234  0.7090  0.3311
  104OSM    C1110550   0.598   4.510  11.042 -0.5839  0.7236  0.2347
  104OSM   H11A10551   0.710   4.510  11.046 -0.5135 -0.8591 -0.7204
  104OSM   H11B10552   0.568   4.587  10.968 -0.9983 -0.4062 -0.8050
  104OSM      P10553   0.396   4.350  10.997  0.3785 -0.3157  0.2276
  104OSM    O1310554   0.375   4.208  10.964 -0.0365  0.4285  0.5182
  104OSM    O1410555   0.325   4.407  11.109 -0.4020  0.8734  0.3697
  104OSM    O1110556   0.346   4.442  10.871  0.2059  0.2227  0.1992
  104OSM    O1210557   0.545   4.381  11.016  0.3313  0.1727 -0.2398
  104OSM    C1S10558   0.407   4.392  10.739 -0.2292  0.4655  0.3399
  104OSM    H1S10559   0.354   4.299  10.712 -0.1165  1.0588 -2.1476
  104OSM    H1T10560   0.510   4.351  10.745 -0.3818 -0.0963 -0.6391
  104OSM     NF10561   0.400   4.439  10.494 -0.3510 -0.0658  0.7306
  104OSM    HNF10562   0.483   4.467  10.446  0.0405 -0.3703  1.2189
  104OSM    C2S10563   0.381   4.500  10.621  0.1792  0.1544 -0.3911
  104OSM    H2S10564   0.273   4.520  10.604 -0.1303  0.9303  2.0615
  104OSM    C3S10565   0.460   4.632  10.645  0.0547 -0.3333  0.0150
  104OSM    H3S10566   0.568   4.606  10.641  0.3392  0.5087  1.4938
  104OSM     O310567   0.441   4.687  10.780 -0.1408  0.2163  0.6471
  104OSM    HO310568   0.399   4.614  10.825 -0.1486  0.1116  0.4696
  104OSM    C4S10569   0.439   4.737  10.542 -0.2144 -0.0574 -0.2857
  104OSM    H4S10570   0.348   4.796  10.558 -0.3299  0.5449 -2.7184
  104OSM    C5S10571   0.510   4.767  10.431 -0.5505 -0.7210 -0.0871
  104OSM    H5S10572   0.613   4.732  10.413  0.0033  0.9270 -0.2462
  104OSM    C6S10573   0.461   4.866  10.324  0.2391  0.2511 -0.3511
  104OSM    H6S10574   0.512   4.965  10.329 -0.0216  0.3725 -0.0242
  104OSM    H6T10575   0.354   4.884  10.345 -0.5233 -4.0256  0.1898
  104OSM    C7S10576   0.467   4.809  10.184  0.2558 -0.0488 -0.3685
  104OSM    H7S10577   0.569   4.795  10.143  0.1037 -0.1466 -0.7175
  104OSM    H7T10578   0.442   4.894  10.118 -0.5254 -1.4964 -2.0048
  104OSM    C8S10579   0.363   4.695  10.149  0.2615 -0.4378 -0.9647
  104OSM    H8S10580   0.274   4.709  10.214  2.4453  2.1917  1.8169
  104OSM    H8T10581   0.393   4.595  10.186 -2.2426 -0.9578 -0.1690
  104OSM    C9S10582   0.326   4.690  10.004  0.3804 -0.7855  0.4262
  104OSM    H9S10583   0.289   4.789   9.970 -0.1308 -0.7252  1.1420
  104OSM    H9T10584   0.239   4.623   9.993 -1.1922  1.1177  0.7523
  104OSM   C10S10585   0.438   4.656   9.908 -0.1474 -0.2078  0.5083
  104OSM   H10S10586   0.442   4.547   9.927 -1.5385 -0.0739  1.7887
  104OSM   H10T10587   0.533   4.710   9.928 -0.3050  0.6886 -0.9555
  104OSM   C11S10588   0.414   4.691   9.757 -0.3268 -0.1866 -0.5489
  104OSM   H11S10589   0.433   4.797   9.733  0.9173 -0.5545 -1.2494
  104OSM   H11T10590   0.306   4.674   9.733 -0.7448  0.7912  0.5306
  104OSM   C12S10591   0.506   4.611   9.667  1.2323 -0.3091  0.9929
  104OSM   H12S10592   0.486   4.505   9.691 -1.4644 -0.2520 -0.5959
  104OSM   H12T10593   0.610   4.640   9.695  0.7050  1.4545  1.2182
  104OSM   C13S10594   0.467   4.631   9.515  0.0367 -0.0956 -0.0271
  104OSM   H13S10595   0.506   4.725   9.470 -0.7818  1.0256  1.4878
  104OSM   H13T10596   0.356   4.627   9.526  0.1130 -0.8681  0.4753
  104OSM   C14S10597   0.522   4.512   9.433  0.0541 -0.6055 -0.2424
  104OSM   H14S10598   0.514   4.419   9.493 -0.4654 -0.2914  0.1847
  104OSM   H14T10599   0.630   4.526   9.410 -0.4487  0.8075 -1.9086
  104OSM   C15S10600   0.443   4.497   9.309 -0.7392  0.3352 -0.0444
  104OSM   H15S10601   0.425   4.597   9.264  1.1373  1.6139  1.8311
  104OSM   H15T10602   0.351   4.437   9.325  0.0668 -0.5969  1.2924
  104OSM   C16S10603   0.527   4.437   9.192  0.4275 -0.3828  0.4591
  104OSM   H16S10604   0.455   4.405   9.114  0.8211 -1.2143  0.4217
  104OSM   H16T10605   0.575   4.338   9.208 -1.6065 -1.6839 -1.1071
  104OSM   C17S10606   0.624   4.542   9.129 -0.3374 -0.0105 -0.0628
  104OSM   H17S10607   0.693   4.573   9.210  0.1774  0.0038 -0.5041
  104OSM   H17T10608   0.564   4.622   9.081 -0.3047  0.3722  0.5249
  104OSM   C18S10609   0.722   4.486   9.019  0.8633 -0.1057 -0.0985
  104OSM   H18S10610   0.656   4.423   8.955  0.5723 -1.2013  1.2280
  104OSM   H18T10611   0.805   4.420   9.051  0.7233  0.6938  2.1198
  104OSM   H18U10612   0.754   4.569   8.953 -1.2328  0.8823  0.0191
  104OSM    C1F10613   0.334   4.337  10.442  0.2411  0.0381  0.4117
  104OSM     OF10614   0.244   4.277  10.506 -0.0348 -1.2824 -0.5716
  104OSM    C2F10615   0.367   4.293  10.300 -0.3805  0.0850  0.5214
  104OSM    H2F10616   0.394   4.186  10.313 -0.1264  0.1838  0.8054
  104OSM    H2G10617   0.442   4.348  10.239  0.4676 -2.1680 -0.5863
  104OSM    C3F10618   0.247   4.318  10.203 -0.2924  0.3084 -0.6070
  104OSM    H3F10619   0.219   4.425  10.212 -3.7036 -0.5557  0.4917
  104OSM    H3G10620   0.164   4.259  10.247  1.7581  0.0328  3.3809
  104OSM    C4F10621   0.289   4.295  10.058 -0.0241 -0.5200 -0.1988
  104OSM    H4F10622   0.339   4.196  10.049  2.2604  0.5952 -0.3802
  104OSM    H4G10623   0.372   4.360  10.026 -0.9884  0.5828 -0.5372
  104OSM    C5F10624   0.174   4.307   9.967  0.8195 -0.0457  1.1119
  104OSM    H5F10625   0.117   4.396   9.999 -0.9203 -0.4048 -0.8267
  104OSM    H5G10626   0.094   4.231   9.983  0.8257 -0.7093 -1.5783
  104OSM    C6F10627   0.214   4.312   9.819 -0.3903  0.5344  0.1674
  104OSM    H6F10628   0.277   4.402   9.804 -0.0428  0.7079  2.3636
  104OSM    H6G10629   0.123   4.332   9.760  0.4462  0.4529 -1.1829
  104OSM    C7F10630   0.289   4.183   9.773  0.6504  0.1202  0.2646
  104OSM    H7F10631   0.222   4.095   9.761 -2.4094  2.2762  0.4196
  104OSM    H7G10632   0.365   4.162   9.851  1.2694  0.3394 -0.2753
  104OSM    C8F10633   0.355   4.205   9.630  1.2919  0.2664 -0.0176
  104OSM    H8F10634   0.413   4.113   9.610  1.4746  0.1431  1.0193
  104OSM    H8G10635   0.419   4.296   9.636  0.7855  0.5734  0.7661
  104OSM    C9F10636   0.253   4.231   9.527 -0.0597 -0.3797  1.3784
  104OSM    H9F10637   0.198   4.323   9.551  0.8815  0.0712  1.8739
  104OSM   C10F10638   0.224   4.147   9.420  0.1333 -0.2979  0.3286
  104OSM   H10F10639   0.126   4.166   9.373 -0.5076  3.4005  2.6897
  104OSM   C11F10640   0.292   4.015   9.378  0.4597 -0.3487 -0.1335
  104OSM   H11F10641   0.231   3.938   9.431 -0.9636  0.0428 -1.1446
  104OSM   H11G10642   0.398   4.009   9.409  0.3908 -2.9831 -0.2034
  104OSM   C12F10643   0.287   3.993   9.224  0.0558 -0.3540 -0.0983
  104OSM   H12F10644   0.187   4.031   9.195 -0.0417 -0.0061  0.6686
  104OSM   H12G10645   0.275   3.883   9.213  1.0744 -0.6348  1.2454
  104OSM   C13F10646   0.399   4.046   9.135 -0.6555  0.4214 -0.4147
  104OSM   H13F10647   0.415   4.154   9.152  0.3599 -0.1256  2.7496
  104OSM   H13G10648   0.362   4.046   9.030 -1.3975 -1.3302 -0.1861
  104OSM   C14F10649   0.529   3.959   9.129 -0.0683  0.8689 -0.2767
  104OSM   H14F10650   0.502   3.853   9.106  1.5134  0.6492 -1.2520
  104OSM   H14G10651   0.578   3.938   9.227  0.1935 -1.8049 -0.8878
  104OSM   C15F10652   0.638   4.012   9.034 -0.0085  0.4886 -0.8045
  104OSM   H15F10653   0.704   3.923   9.030 -1.2380 -0.5550  0.8243
  104OSM   H15G10654   0.690   4.099   9.079 -0.8030 -0.1557  1.5244
  104OSM   C16F10655   0.593   4.047   8.895 -0.3989  0.0790  0.1305
  104OSM   H16F10656   0.554   4.151   8.903  1.4926  0.8552 -0.2281
  104OSM   H16G10657   0.514   3.973   8.872  0.3991 -0.9135  0.5116
  104OSM   C17F10658   0.703   4.046   8.785 -0.8248  0.4064 -0.9096
  104OSM   H17F10659   0.714   3.941   8.751 -0.6450  0.3295 -0.6089
  104OSM   H17G10660   0.798   4.065   8.838 -0.7323 -1.8071 -0.1839
  104OSM   C18F10661   0.677   4.140   8.668 -0.4794 -0.1974 -0.5044
  104OSM   H18F10662   0.585   4.126   8.608  0.4201 -1.0440 -1.7289
  104OSM   H18G10663   0.759   4.129   8.594  0.3344  0.8625  0.2044
  104OSM   H18H10664   0.689   4.248   8.692  1.5318  0.1565 -2.7373
  105OSM      N10665   6.691   4.129  10.908  0.0051  0.0996 -0.6820
  105OSM    C1510666   6.602   4.064  11.017  0.4382  0.8994 -0.3069
  105OSM   H15A10667   6.502   4.103  11.016 -0.0285 -0.2645 -0.8559
  105OSM   H15B10668   6.643   4.078  11.116 -1.8227 -0.7964  0.9547
  105OSM   H15C10669   6.610   3.957  11.003 -0.3279  0.7794  0.1354
  105OSM    C1410670   6.633   4.264  10.873  0.0992  0.0053  0.1118
  105OSM   H14A10671   6.603   4.321  10.959 -1.3020 -2.6981  1.5145
  105OSM   H14B10672   6.542   4.256  10.815  0.5784 -2.4028 -0.4325
  105OSM   H14C10673   6.715   4.307  10.816 -1.8407 -0.7587 -3.5683
  105OSM    C1310674   6.833   4.146  10.964  0.2119 -0.0482  0.3910
  105OSM   H13A10675   6.840   4.226  11.037  2.3155  1.5195 -1.4047
  105OSM   H13B10676   6.901   4.185  10.890 -0.2708  0.8015  0.3804
  105OSM   H13C10677   6.879   4.061  11.012 -0.4368 -0.0228  1.0834
  105OSM    C1210678   6.705   4.043  10.781 -0.1595 -0.2802  0.1728
  105OSM   H12A10679   6.737   4.104  10.698 -1.7064  0.4162  0.0356
  105OSM   H12B10680   6.602   4.023  10.754 -0.1562 -1.5705  0.9936
  105OSM    C1110681   6.779   3.907  10.774  0.4490  0.1712  0.0989
  105OSM   H11A10682   6.880   3.940  10.809 -0.8373  3.9034  0.7460
  105OSM   H11B10683   6.789   3.868  10.670  2.0385  2.4533 -0.6938
  105OSM      P10684   6.601   3.733  10.838 -0.2352 -0.3320  0.0142
  105OSM    O1310685   6.607   3.607  10.920  0.3920  0.1754 -0.6267
  105OSM    O1410686   6.477   3.815  10.856 -0.2850 -0.2810 -0.0779
  105OSM    O1110687   6.610   3.687  10.690  0.1523  0.0556  0.4388
  105OSM    O1210688   6.726   3.814  10.871  0.0599 -0.4627 -0.4528
  105OSM    C1S10689   6.483   3.687  10.616 -0.1497 -0.3874 -0.3794
  105OSM    H1S10690   6.435   3.787  10.623  3.1099  1.2228  0.6896
  105OSM    H1T10691   6.414   3.608  10.653  0.3914 -1.3138 -1.2973
  105OSM     NF10692   6.383   3.685  10.392  0.5979 -0.3601 -0.0020
  105OSM    HNF10693   6.342   3.601  10.355 -1.1066  0.0334  0.8734
  105OSM    C2S10694   6.503   3.666  10.466 -0.5233 -1.0882  0.2655
  105OSM    H2S10695   6.582   3.736  10.430 -1.1153 -0.9418 -0.7974
  105OSM    C3S10696   6.573   3.524  10.442  0.0718 -0.0706  0.0919
  105OSM    H3S10697   6.488   3.453  10.437 -0.6024  0.7391 -0.2954
  105OSM     O310698   6.663   3.470  10.542 -0.4931  0.5752  0.5628
  105OSM    HO310699   6.654   3.528  10.618 -1.1935 -0.3151  1.1882
  105OSM    C4S10700   6.643   3.526  10.308  0.0186 -0.3514 -0.4207
  105OSM    H4S10701   6.728   3.595  10.299 -0.1292 -0.3102 -1.6782
  105OSM    C5S10702   6.606   3.455  10.201 -0.0014  0.2272 -0.8741
  105OSM    H5S10703   6.528   3.383  10.229 -0.1785  1.2917  1.6504
  105OSM    C6S10704   6.673   3.438  10.069 -0.0587  0.2341  0.2315
  105OSM    H6S10705   6.618   3.500   9.996 -1.2576 -0.9478  0.1014
  105OSM    H6T10706   6.669   3.336  10.026  1.2398  0.4625 -0.4810
  105OSM    C7S10707   6.818   3.497  10.058 -0.5952 -0.3879 -0.4797
  105OSM    H7S10708   6.873   3.439  10.135 -2.5484 -2.4459 -0.5136
  105OSM    H7T10709   6.816   3.604  10.088 -0.6940 -0.6958  0.6598
  105OSM    C8S10710   6.891   3.485   9.918  0.3549  0.7597 -0.9485
  105OSM    H8S10711   6.903   3.378   9.893 -0.8235  0.0769  1.2171
  105OSM    H8T10712   6.998   3.517   9.920  1.7600 -3.3393 -1.6615
  105OSM    C9S10713   6.814   3.556   9.811  0.3854  0.1450 -0.2240
  105OSM    H9S10714   6.812   3.666   9.827 -1.0176 -0.0658  1.2898
  105OSM    H9T10715   6.713   3.511   9.819  1.3752 -2.0844  0.2512
  105OSM   C10S10716   6.860   3.530   9.668  0.0427  0.1609 -0.1886
  105OSM   H10S10717   6.833   3.426   9.641 -0.0123  0.2693 -0.5535
  105OSM   H10T10718   6.971   3.533   9.661 -0.0556  0.5111 -1.7813
  105OSM   C11S10719   6.806   3.614   9.552 -0.0834 -0.3067 -0.1848
  105OSM   H11S10720   6.852   3.714   9.572 -0.6740 -0.2328  0.8957
  105OSM   H11T10721   6.696   3.631   9.549 -0.0606 -0.2231 -0.6299
  105OSM   C12S10722   6.866   3.571   9.407  0.1547 -1.1273 -0.3943
  105OSM   H12S10723   6.835   3.466   9.388 -2.3593 -0.7473  1.1215
  105OSM   H12T10724   6.977   3.574   9.416  0.1704 -3.6714  0.9838
  105OSM   C13S10725   6.820   3.664   9.293 -1.0346  0.0552 -0.8645
  105OSM   H13S10726   6.855   3.767   9.316  3.7092 -1.2707 -1.1140
  105OSM   H13T10727   6.711   3.644   9.288 -1.1906  1.1133 -2.2706
  105OSM   C14S10728   6.879   3.620   9.159  0.1951 -0.1907 -0.3151
  105OSM   H14S10729   6.864   3.511   9.147 -1.7078 -0.3162  2.4088
  105OSM   H14T10730   6.990   3.618   9.166  0.3552 -1.2491 -2.4923
  105OSM   C15S10731   6.842   3.705   9.036  0.4174 -0.8916  0.6890
  105OSM   H15S10732   6.837   3.813   9.062  1.9013 -0.6126 -0.0534
  105OSM   H15T10733   6.744   3.672   8.996  0.9689 -2.0294  0.2201
  105OSM   C16S10734   6.941   3.683   8.917  0.3479  0.0850 -0.2435
  105OSM   H16S10735   6.921   3.579   8.886 -2.0230 -0.2885  2.1372
  105OSM   H16T10736   7.049   3.688   8.944  1.1531 -2.3683 -2.6344
  105OSM   C17S10737   6.907   3.782   8.800 -0.6846  0.5061  0.0904
  105OSM   H17S10738   6.856   3.872   8.841  0.6791  0.5704  1.7444
  105OSM   H17T10739   6.836   3.731   8.731  0.0256  0.2670 -0.4823
  105OSM   C18S10740   7.035   3.824   8.733 -1.1890  0.4529  0.1341
  105OSM   H18S10741   7.093   3.737   8.697 -1.7913 -0.6112  1.6252
  105OSM   H18T10742   7.112   3.878   8.793 -0.6454  0.0302 -0.1754
  105OSM   H18U10743   7.012   3.878   8.639  1.0126  0.7029 -0.3053
  105OSM    C1F10744   6.305   3.791  10.379 -0.4036 -0.2929 -0.3366
  105OSM     OF10745   6.328   3.887  10.449 -0.2478  0.1948 -0.6458
  105OSM    C2F10746   6.187   3.794  10.287 -0.5976 -0.3569  0.0591
  105OSM    H2F10747   6.103   3.854  10.328 -0.9777 -1.6632  1.2678
  105OSM    H2G10748   6.154   3.688  10.278  0.7955 -0.9755  1.7336
  105OSM    C3F10749   6.225   3.853  10.150  0.1081 -0.4059  1.1246
  105OSM    H3F10750   6.280   3.783  10.084 -0.3494 -0.9778  1.3520
  105OSM    H3G10751   6.277   3.951  10.157 -0.2533 -0.2289  1.3929
  105OSM    C4F10752   6.105   3.884  10.064  0.3694  0.1074  0.0564
  105OSM    H4F10753   6.053   3.975  10.100  1.2123  0.9419 -0.7858
  105OSM    H4G10754   6.045   3.791  10.069  1.5131 -0.9365 -3.2401
  105OSM    C5F10755   6.141   3.896   9.916  0.4118 -0.4747 -0.2918
  105OSM    H5F10756   6.177   3.799   9.878  0.2816 -0.4333 -0.5264
  105OSM    H5G10757   6.221   3.970   9.896  0.9648 -0.0576  2.9245
  105OSM    C6F10758   6.022   3.906   9.816 -0.4612 -0.0815  0.0473
  105OSM    H6F10759   5.961   3.997   9.838  1.9523  0.9854  3.0207
  105OSM    H6G10760   5.957   3.816   9.820 -0.0648 -0.5985 -2.8698
  105OSM    C7F10761   6.092   3.919   9.678 -0.8272  0.1127 -0.0505
  105OSM    H7F10762   6.187   3.860   9.674  0.1352  1.4703  1.5847
  105OSM    H7G10763   6.129   4.024   9.676 -0.5328 -0.0017 -1.4505
  105OSM    C8F10764   5.996   3.905   9.553  0.2369 -0.0322 -0.1730
  105OSM    H8F10765   5.923   3.823   9.558 -0.1951  0.3651  0.1069
  105OSM    H8G10766   6.064   3.875   9.470 -1.1728  0.5997 -1.6021
  105OSM    C9F10767   5.923   4.032   9.523 -0.3744 -0.9132  0.2416
  105OSM    H9F10768   5.979   4.110   9.469 -1.2536 -0.2935  0.2065
  105OSM   C10F10769   5.799   4.057   9.566 -0.9696  0.1548 -0.2569
  105OSM   H10F10770   5.749   4.153   9.543 -0.6668  0.1059 -1.1468
  105OSM   C11F10771   5.711   3.977   9.652 -0.2166 -0.2691 -0.5496
  105OSM   H11F10772   5.693   4.014   9.755 -1.0953  0.0835 -0.8214
  105OSM   H11G10773   5.743   3.871   9.662  0.6451  0.0205 -0.1449
  105OSM   C12F10774   5.565   3.972   9.591 -0.2418  0.5401 -0.6019
  105OSM   H12F10775   5.509   3.887   9.637  2.1313 -0.0363  1.4822
  105OSM   H12G10776   5.576   3.945   9.484  2.2536  0.6623 -0.4385
  105OSM   C13F10777   5.495   4.104   9.603 -0.4967  0.5589  0.6531
  105OSM   H13F10778   5.558   4.185   9.560  0.0695  0.8766  2.0286
  105OSM   H13G10779   5.468   4.120   9.710 -1.1664  0.7022  0.4679
  105OSM   C14F10780   5.368   4.105   9.519  0.3338  0.3285  0.0158
  105OSM   H14F10781   5.319   4.202   9.543  1.4186  0.4840  1.8075
  105OSM   H14G10782   5.302   4.022   9.551  0.1152  0.1793 -0.8108
  105OSM   C15F10783   5.395   4.094   9.365 -0.5839  0.2236  0.3085
  105OSM   H15F10784   5.434   3.995   9.334  0.9129  0.9606 -0.2474
  105OSM   H15G10785   5.469   4.174   9.343 -1.8408  1.5276  0.6111
  105OSM   C16F10786   5.272   4.130   9.276 -0.0351 -0.9260 -0.5841
  105OSM   H16F10787   5.305   4.134   9.170 -0.1254  2.1896 -0.5861
  105OSM   H16G10788   5.235   4.229   9.312 -1.3089 -1.3700 -0.6421
  105OSM   C17F10789   5.163   4.019   9.288  0.2024  0.1577 -0.0803
  105OSM   H17F10790   5.127   4.016   9.394 -0.0534 -1.6704 -0.1887
  105OSM   H17G10791   5.214   3.921   9.277 -0.3114 -0.3809  1.9506
  105OSM   C18F10792   5.047   4.019   9.194 -0.9131 -0.5167 -0.1149
  105OSM   H18F10793   4.996   3.921   9.186 -2.9280  0.4801 -0.1662
  105OSM   H18G10794   5.085   4.069   9.102 -0.3997 -1.5806 -0.4960
  105OSM   H18H10795   4.977   4.099   9.227  1.9422  1.4981  1.5329
  106OSM      N10796   6.383   2.194  10.893  0.1054 -0.1931 -0.5888
  106OSM    C1510797   6.371   2.339  10.903  0.2167  0.7522 -0.2724
  106OSM   H15A10798   6.275   2.357  10.949  0.8276  0.7378  1.0553
  106OSM   H15B10799   6.382   2.384  10.806 -0.8844 -1.0923 -1.3086
  106OSM   H15C10800   6.451   2.376  10.965 -0.5627  0.6562  0.8321
  106OSM    C1410801   6.501   2.161  10.801 -0.1618 -0.6534 -0.0759
  106OSM   H14A10802   6.585   2.229  10.803  0.3514 -1.2764  2.0837
  106OSM   H14B10803   6.468   2.131  10.703  0.5015  0.3031 -0.6070
  106OSM   H14C10804   6.551   2.070  10.830  0.9013 -1.6177 -4.3360
  106OSM    C1310805   6.409   2.139  11.025  0.4183 -0.0681 -0.3610
  106OSM   H13A10806   6.327   2.158  11.092  0.7307 -1.9863  0.6350
  106OSM   H13B10807   6.504   2.172  11.064 -0.0164  0.1546  0.5389
  106OSM   H13C10808   6.437   2.035  11.019  1.5263  0.1261  0.9406
  106OSM    C1210809   6.263   2.133  10.832  0.1754  0.0025 -0.3503
  106OSM   H12A10810   6.287   2.029  10.815  1.5910  0.2268  0.1554
  106OSM   H12B10811   6.251   2.185  10.738 -1.6210 -0.5101 -0.4490
  106OSM    C1110812   6.120   2.143  10.899  0.0115  0.4779  0.3141
  106OSM   H11A10813   6.116   2.090  10.997  2.5774 -1.0662 -0.3080
  106OSM   H11B10814   6.058   2.089  10.825  1.6986 -2.8739  1.1154
  106OSM      P10815   5.948   2.339  10.863  0.4366 -0.0905 -0.1673
  106OSM    O1310816   5.852   2.226  10.889  0.4428 -0.4217 -0.2102
  106OSM    O1410817   5.925   2.466  10.929 -0.7460 -0.3050 -0.5853
  106OSM    O1110818   5.967   2.368  10.711 -0.4503 -1.1059  0.1025
  106OSM    O1210819   6.084   2.281  10.920  0.0306  0.3555 -0.0470
  106OSM    C1S10820   6.092   2.417  10.656  0.5399 -0.0928  0.5879
  106OSM    H1S10821   6.173   2.353  10.697  1.9799  1.8809  0.9730
  106OSM    H1T10822   6.112   2.521  10.690  0.0045 -0.4579  2.0994
  106OSM     NF10823   6.233   2.435  10.463  0.6416 -0.2864 -0.7457
  106OSM    HNF10824   6.241   2.521  10.413 -4.2427  1.9295  1.6792
  106OSM    C2S10825   6.099   2.395  10.504  1.0928  0.5374  0.0161
  106OSM    H2S10826   6.078   2.287  10.487  0.1722  0.4330  1.5748
  106OSM    C3S10827   5.981   2.475  10.439  0.1497  0.8304 -0.3271
  106OSM    H3S10828   5.993   2.583  10.464  0.2627  0.7731 -0.1383
  106OSM     O310829   5.848   2.445  10.489 -0.1203 -0.1864  0.1006
  106OSM    HO310830   5.860   2.386  10.564 -1.4993  0.6761  1.0489
  106OSM    C4S10831   5.986   2.467  10.288  0.0652  0.4103  0.0454
  106OSM    H4S10832   6.067   2.528  10.246  0.0772 -0.0761 -0.6492
  106OSM    C5S10833   5.907   2.398  10.208 -0.2663  0.4081  0.3549
  106OSM    H5S10834   5.823   2.343  10.254  0.7009 -1.9625 -0.5495
  106OSM    C6S10835   5.921   2.390  10.054  0.0077  0.4188  0.1877
  106OSM    H6S10836   5.839   2.438   9.996 -0.9036 -0.5579  0.6309
  106OSM    H6T10837   5.906   2.283  10.028  1.1503  0.1751  0.4397
  106OSM    C7S10838   6.050   2.454   9.993 -1.0221 -0.0884  0.5659
  106OSM    H7S10839   6.143   2.424  10.046 -0.0665  3.8000  1.3656
  106OSM    H7T10840   6.038   2.563  10.009  1.3524  0.2215  0.5947
  106OSM    C8S10841   6.078   2.438   9.840 -0.0609 -0.2808  0.0330
  106OSM    H8S10842   6.124   2.338   9.824 -0.9694 -0.6536 -0.3283
  106OSM    H8T10843   6.152   2.517   9.817  0.0046 -0.4912 -0.5052
  106OSM    C9S10844   5.956   2.462   9.754  0.6940  0.4264 -0.2811
  106OSM    H9S10845   5.901   2.551   9.792 -0.0951 -0.0366 -0.3155
  106OSM    H9T10846   5.881   2.381   9.765 -0.2503  1.2293 -0.6606
  106OSM   C10S10847   5.979   2.469   9.604  0.1053  0.2852 -0.1421
  106OSM   H10S10848   6.037   2.563   9.595 -0.8270  0.8846 -0.0205
  106OSM   H10T10849   5.886   2.494   9.549 -1.4145 -0.2098  2.0734
  106OSM   C11S10850   6.037   2.337   9.548  0.8042 -0.2414 -0.4777
  106OSM   H11S10851   5.984   2.256   9.604 -0.9605 -0.8878 -2.8621
  106OSM   H11T10852   6.146   2.332   9.567  0.6928 -2.4293 -0.1623
  106OSM   C12S10853   5.997   2.321   9.403 -0.8658 -0.0455 -0.8569
  106OSM   H12S10854   5.896   2.364   9.385 -0.9885 -0.5980 -1.5619
  106OSM   H12T10855   5.980   2.213   9.380 -1.6996 -0.1998  0.3584
  106OSM   C13S10856   6.096   2.384   9.304  0.0560  0.1196 -0.2651
  106OSM   H13S10857   6.199   2.351   9.327  1.1811  0.7522 -3.8098
  106OSM   H13T10858   6.097   2.495   9.312  2.3308  0.2758 -1.9292
  106OSM   C14S10859   6.060   2.361   9.157 -0.5930  0.1767  0.3189
  106OSM   H14S10860   5.959   2.406   9.145 -0.0843  1.0457 -0.9297
  106OSM   H14T10861   6.037   2.254   9.142  0.6572  0.0743 -1.1222
  106OSM   C15S10862   6.151   2.448   9.056 -0.1480  0.2358 -0.5437
  106OSM   H15S10863   6.250   2.470   9.101  0.0571  2.3842 -1.8739
  106OSM   H15T10864   6.097   2.544   9.040 -2.4656 -0.5961  1.6648
  106OSM   C16S10865   6.170   2.372   8.922  0.2591  0.0489  0.4389
  106OSM   H16S10866   6.217   2.274   8.947  0.9467  0.5062  0.9753
  106OSM   H16T10867   6.238   2.439   8.866 -0.5058  0.8109  0.4162
  106OSM   C17S10868   6.042   2.352   8.839  0.7120 -0.1572 -0.4259
  106OSM   H17S10869   6.014   2.455   8.806  0.0134  0.4448  1.8721
  106OSM   H17T10870   5.976   2.314   8.920  2.4901  0.7219  1.5395
  106OSM   C18S10871   6.081   2.252   8.721 -0.1499 -0.4064  0.0551
  106OSM   H18S10872   5.989   2.212   8.673  1.4313 -0.6495 -2.9792
  106OSM   H18T10873   6.135   2.169   8.770  0.4566  1.4335  2.7623
  106OSM   H18U10874   6.137   2.312   8.646  0.8622 -0.6442  0.6102
  106OSM    C1F10875   6.331   2.359  10.503 -0.9383  0.2844 -0.1818
  106OSM     OF10876   6.316   2.241  10.538  0.2120 -0.1860 -0.4882
  106OSM    C2F10877   6.468   2.414  10.493 -0.5384 -0.4197  0.7286
  106OSM    H2F10878   6.482   2.482  10.580  0.9259  0.6442 -0.2949
  106OSM    H2G10879   6.481   2.485  10.408  3.5954 -1.0429  0.6049
  106OSM    C3F10880   6.583   2.308  10.473  0.8599  0.4631  0.1568
  106OSM    H3F10881   6.557   2.208  10.515  1.1204  0.6800  0.8525
  106OSM    H3G10882   6.672   2.347  10.527  2.3026  3.2450 -3.7155
  106OSM    C4F10883   6.618   2.302  10.318  0.0946 -0.0096 -0.8861
  106OSM    H4F10884   6.706   2.234  10.311  0.0543 -0.0483 -1.0158
  106OSM    H4G10885   6.639   2.406  10.287 -1.7295  1.8740  3.3696
  106OSM    C5F10886   6.505   2.246  10.223 -0.1925 -0.2306 -0.2175
  106OSM    H5F10887   6.406   2.291  10.246 -0.2292 -0.5552  0.2749
  106OSM    H5G10888   6.479   2.140  10.239 -3.4548  0.5807  0.5519
  106OSM    C6F10889   6.524   2.262  10.070  0.9229 -0.5514 -0.6246
  106OSM    H6F10890   6.435   2.211  10.028 -0.3150  2.6305 -2.1419
  106OSM    H6G10891   6.618   2.224  10.026  1.1644  0.5298 -1.0681
  106OSM    C7F10892   6.491   2.405  10.015  0.1355 -0.0081  0.1037
  106OSM    H7F10893   6.556   2.472  10.075  1.0249 -2.3494  1.9063
  106OSM    H7G10894   6.389   2.441  10.041 -0.0279  0.7850 -1.4895
  106OSM    C8F10895   6.512   2.410   9.860 -0.0863 -0.2832  0.0523
  106OSM    H8F10896   6.455   2.329   9.811  1.7789 -1.8819  0.3979
  106OSM    H8G10897   6.618   2.382   9.842  0.4666  0.8335  1.4061
  106OSM    C9F10898   6.473   2.543   9.798 -0.2295 -0.1437  1.2391
  106OSM    H9F10899   6.388   2.602   9.837 -1.1674 -1.3833  1.1226
  106OSM   C10F10900   6.544   2.603   9.699 -0.4773  0.3779  0.0023
  106OSM   H10F10901   6.512   2.704   9.668 -1.2163  0.7050  1.7194
  106OSM   C11F10902   6.666   2.553   9.619  0.4500  0.0320  0.2506
  106OSM   H11F10903   6.728   2.472   9.664  2.3389  1.4617  0.3174
  106OSM   H11G10904   6.730   2.640   9.594  3.2603 -1.7819  0.6240
  106OSM   C12F10905   6.609   2.488   9.490 -0.4989  0.4543 -0.4790
  106OSM   H12F10906   6.510   2.440   9.506 -0.0090 -0.7380 -0.8457
  106OSM   H12G10907   6.673   2.401   9.460  1.4304 -0.2798  4.7926
  106OSM   C13F10908   6.592   2.587   9.368  0.0520  0.6585  0.1999
  106OSM   H13F10909   6.690   2.627   9.335  0.4499 -0.6761 -0.2852
  106OSM   H13G10910   6.539   2.681   9.397 -0.7919 -0.9668  4.6657
  106OSM   C14F10911   6.514   2.524   9.249 -0.1465 -0.6919 -0.0810
  106OSM   H14F10912   6.504   2.586   9.158  1.3970 -0.8291 -0.3726
  106OSM   H14G10913   6.415   2.480   9.273 -0.7748  0.2240 -0.9160
  106OSM   C15F10914   6.597   2.410   9.184 -0.1434  0.7569 -0.1767
  106OSM   H15F10915   6.626   2.326   9.249  1.0948  0.0082 -1.6255
  106OSM   H15G10916   6.692   2.451   9.144  0.6051 -0.9997 -0.2584
  106OSM   C16F10917   6.518   2.363   9.058  0.1050 -0.0132  0.0702
  106OSM   H16F10918   6.470   2.445   8.999 -0.0809 -0.0902  0.1140
  106OSM   H16G10919   6.438   2.294   9.092  0.2023  0.0562  0.4421
  106OSM   C17F10920   6.598   2.287   8.956 -0.7041  0.6791  0.0344
  106OSM   H17F10921   6.638   2.200   9.012 -0.6662 -0.1775 -1.2720
  106OSM   H17G10922   6.685   2.352   8.935 -1.5111  1.9692  0.5981
  106OSM   C18F10923   6.515   2.226   8.839  0.2449 -0.0507 -0.1624
  106OSM   H18F10924   6.559   2.128   8.812  3.2200  1.1306  0.0721
  106OSM   H18G10925   6.523   2.295   8.752 -0.5541  0.5670  0.2406
  106OSM   H18H10926   6.408   2.200   8.859 -0.0745  1.0881 -0.3151
  107OSM      N10927   0.386   6.125  11.181 -0.1811  0.2444 -0.7552
  107OSM    C1510928   0.236   6.163  11.189  0.0688  0.0171  0.2237
  107OSM   H15A10929   0.188   6.083  11.243 -1.5614  0.4775 -0.4819
  107OSM   H15B10930   0.201   6.155  11.087  0.5578 -0.2208  0.0718
  107OSM   H15C10931   0.223   6.258  11.239  3.6408 -0.2691  1.9824
  107OSM    C1410932   0.450   6.166  11.308 -0.1971  0.3281 -0.2115
  107OSM   H14A10933   0.439   6.270  11.335 -1.3105 -0.0920  1.0852
  107OSM   H14B10934   0.553   6.133  11.305 -0.5039 -0.6554 -0.1864
  107OSM   H14C10935   0.410   6.107  11.389  0.7802  1.6352  1.2945
  107OSM    C1310936   0.396   5.979  11.166 -0.5911 -0.7418 -0.2378
  107OSM   H13A10937   0.334   5.932  11.240  0.3584 -0.9730  0.4189
  107OSM   H13B10938   0.499   5.945  11.166  0.0258  0.8912 -1.9499
  107OSM   H13C10939   0.346   5.953  11.074 -0.2182  2.3016 -1.4263
  107OSM    C1210940   0.447   6.205  11.066  0.1220  0.2055  0.2943
  107OSM   H12A10941   0.447   6.311  11.090 -0.4361  0.4522 -0.7309
  107OSM   H12B10942   0.389   6.202  10.975 -0.7392  1.7350  0.7595
  107OSM    C1110943   0.597   6.167  11.036 -0.1541  0.0961  1.0224
  107OSM   H11A10944   0.607   6.200  10.930 -0.6026 -0.4321  0.8104
  107OSM   H11B10945   0.611   6.057  11.028  2.3385  0.3538  1.1181
  107OSM      P10946   0.701   6.379  11.119  0.1190 -0.3630  0.0396
  107OSM    O1310947   0.571   6.444  11.143  0.2155  0.3030 -0.4376
  107OSM    O1410948   0.820   6.416  11.198 -0.6709  0.1149  0.3973
  107OSM    O1110949   0.747   6.410  10.968  0.3522  0.0913 -0.0613
  107OSM    O1210950   0.680   6.225  11.130  0.0204  0.1513 -0.3938
  107OSM    C1S10951   0.863   6.355  10.900  0.7003 -0.5209  0.5973
  107OSM    H1S10952   0.881   6.251  10.933 -0.7784 -1.7808 -2.2013
  107OSM    H1T10953   0.952   6.418  10.919  1.2514 -0.6741 -1.3697
  107OSM     NF10954   0.944   6.291  10.693  0.2153  0.4972  0.0735
  107OSM    HNF10955   1.026   6.342  10.671  0.2084 -0.8285 -3.8063
  107OSM    C2S10956   0.837   6.369  10.745  0.8978  0.3260 -0.2898
  107OSM    H2S10957   0.737   6.324  10.729  1.2813 -1.0375  0.9349
  107OSM    C3S10958   0.821   6.518  10.693  0.0495  0.3459 -0.2206
  107OSM    H3S10959   0.917   6.566  10.722 -0.1529  0.8589 -0.4037
  107OSM     O310960   0.727   6.605  10.760 -0.4133 -0.4552  0.2214
  107OSM    HO310961   0.693   6.551  10.831 -0.6925 -0.6208 -0.0361
  107OSM    C4S10962   0.803   6.528  10.547 -0.2746  0.7280 -0.3580
  107OSM    H4S10963   0.891   6.564  10.493 -0.0869  0.3492 -0.3078
  107OSM    C5S10964   0.683   6.508  10.484  0.3327  0.6122  0.3573
  107OSM    H5S10965   0.594   6.484  10.543  0.6428 -0.3064  0.4588
  107OSM    C6S10966   0.652   6.515  10.342 -0.3205  0.3570  0.0613
  107OSM    H6S10967   0.746   6.523  10.283 -0.4180  0.1635 -0.1214
  107OSM    H6T10968   0.596   6.607  10.313 -1.7579  0.3354  2.5486
  107OSM    C7S10969   0.569   6.395  10.297 -0.0315  0.2550  0.0665
  107OSM    H7S10970   0.488   6.364  10.367 -1.3422  0.7333 -1.1898
  107OSM    H7T10971   0.629   6.302  10.294  0.4541  0.3313  3.5476
  107OSM    C8S10972   0.501   6.403  10.159  0.3066  0.3068 -0.0867
  107OSM    H8S10973   0.437   6.493  10.160 -2.2889 -1.4380 -0.0562
  107OSM    H8T10974   0.438   6.311  10.158  1.5572 -0.7312  3.2328
  107OSM    C9S10975   0.607   6.390  10.045  0.1931 -0.0452 -0.1583
  107OSM    H9S10976   0.681   6.312  10.075  0.3527  0.3442  0.4755
  107OSM    H9T10977   0.655   6.490  10.043 -0.2881  0.1853 -0.2105
  107OSM   C10S10978   0.544   6.367   9.906  0.0734  0.4162  0.3451
  107OSM   H10S10979   0.479   6.455   9.888  0.6194  0.7721  0.0540
  107OSM   H10T10980   0.488   6.273   9.887  1.0694  0.0018 -0.7107
  107OSM   C11S10981   0.648   6.373   9.792 -0.7652  1.0226  0.1339
  107OSM   H11S10982   0.724   6.301   9.830 -0.1475  0.8292 -1.3813
  107OSM   H11T10983   0.711   6.464   9.800  5.5803 -2.8880  1.4043
  107OSM   C12S10984   0.614   6.342   9.647 -0.0551  0.4191 -0.2031
  107OSM   H12S10985   0.537   6.414   9.613 -2.2135 -0.6809  2.0259
  107OSM   H12T10986   0.552   6.250   9.645 -1.2799  1.2186  0.2577
  107OSM   C13S10987   0.726   6.332   9.545  0.7627  0.1232 -0.2715
  107OSM   H13S10988   0.788   6.241   9.563 -0.5382 -0.6709  0.3206
  107OSM   H13T10989   0.798   6.417   9.536 -0.2933  1.2068  1.1308
  107OSM   C14S10990   0.677   6.308   9.400 -0.8199 -0.2748  1.6072
  107OSM   H14S10991   0.601   6.386   9.381 -0.6085 -0.6596 -1.4890
  107OSM   H14T10992   0.623   6.211   9.397  1.1726 -1.4240  0.3174
  107OSM   C15S10993   0.795   6.288   9.294 -0.5163 -0.3771  0.1090
  107OSM   H15S10994   0.834   6.184   9.307 -0.1095 -0.4136 -1.2882
  107OSM   H15T10995   0.878   6.359   9.317  0.4902 -1.3396 -0.4657
  107OSM   C16S10996   0.763   6.331   9.156 -0.3547  0.0823 -0.1529
  107OSM   H16S10997   0.854   6.325   9.093 -1.1072  2.3209 -1.5707
  107OSM   H16T10998   0.732   6.438   9.155  2.7337  1.0624 -0.9415
  107OSM   C17S10999   0.649   6.246   9.094  0.1803 -0.0288  0.1330
  107OSM   H17S11000   0.551   6.246   9.146 -0.1766  1.2220 -0.4928
  107OSM   H17T11001   0.694   6.144   9.097  1.9136  0.7022  0.1263
  107OSM   C18S11002   0.625   6.297   8.956 -0.0134  0.2448 -0.3031
  107OSM   H18S11003   0.592   6.403   8.959  1.9802  0.8857  0.9908
  107OSM   H18T11004   0.536   6.251   8.908 -1.0755  0.6404  1.2286
  107OSM   H18U11005   0.720   6.286   8.898  1.5300  2.3788  1.6410
  107OSM    C1F11006   0.954   6.158  10.702  0.3529 -1.0023  0.2053
  107OSM     OF11007   0.857   6.096  10.751  0.0121  0.9957 -0.3146
  107OSM    C2F11008   1.075   6.090  10.639  0.1079  0.1860  0.4495
  107OSM    H2F11009   1.133   6.044  10.722 -1.0311  0.6714  1.5522
  107OSM    H2G11010   1.138   6.166  10.589 -0.4187  0.0539 -0.4370
  107OSM    C3F11011   1.043   5.994  10.525 -0.4095  0.1610  0.6007
  107OSM    H3F11012   0.947   5.946  10.550 -0.3239 -0.1278  0.3775
  107OSM    H3G11013   1.113   5.907  10.520  1.0961  1.3769 -0.8834
  107OSM    C4F11014   1.033   6.054  10.391  0.1706 -0.3936  0.0600
  107OSM    H4F11015   1.132   6.092  10.357 -0.8880  1.1787 -1.4651
  107OSM    H4G11016   0.972   6.146  10.393  1.5075  0.4973  1.0080
  107OSM    C5F11017   0.988   5.958  10.285 -0.1988 -0.1033 -0.2123
  107OSM    H5F11018   0.905   5.902  10.332  0.4327 -0.7855  0.1127
  107OSM    H5G11019   1.067   5.884  10.258  0.5301  0.3123  0.6914
  107OSM    C6F11020   0.931   6.025  10.161  0.2301  0.1375 -0.2877
  107OSM    H6F11021   0.875   6.117  10.187  1.4657  1.1347 -1.0529
  107OSM    H6G11022   0.852   5.966  10.110  1.7608 -0.4656 -2.0755
  107OSM    C7F11023   1.042   6.060  10.065  0.2005  0.5685  0.0386
  107OSM    H7F11024   1.107   5.971  10.060 -0.6889 -0.2542  1.8496
  107OSM    H7G11025   1.100   6.144  10.109  0.8437  0.8376 -1.2947
  107OSM    C8F11026   0.988   6.108   9.923 -0.5405  0.1637 -0.0966
  107OSM    H8F11027   0.903   6.180   9.926 -1.3993 -0.7329 -1.7908
  107OSM    H8G11028   0.942   6.013   9.891 -1.3648 -0.1963  1.9908
  107OSM    C9F11029   1.112   6.141   9.843 -0.3597  0.5258  1.1515
  107OSM    H9F11030   1.195   6.191   9.894 -0.0389  0.6323  0.5303
  107OSM   C10F11031   1.133   6.122   9.710 -0.0268 -0.2212 -0.3810
  107OSM   H10F11032   1.226   6.159   9.663 -1.1881  0.8907 -1.8822
  107OSM   C11F11033   1.032   6.052   9.621  0.2175 -0.3336 -0.5878
  107OSM   H11F11034   0.932   6.076   9.662  1.4154  1.6874  1.3655
  107OSM   H11G11035   1.054   5.943   9.618  0.5037 -0.5005  2.9292
  107OSM   C12F11036   1.040   6.108   9.476 -0.4560  0.1333 -0.6227
  107OSM   H12F11037   1.045   6.219   9.485 -2.2000  0.1996 -0.1602
  107OSM   H12G11038   0.945   6.082   9.425  0.4481 -2.7036 -1.0263
  107OSM   C13F11039   1.142   6.039   9.384  0.5163  0.1736 -0.2995
  107OSM   H13F11040   1.089   5.946   9.355 -0.6685  0.0566  2.0599
  107OSM   H13G11041   1.228   6.013   9.449  1.5658 -0.0293 -1.7148
  107OSM   C14F11042   1.188   6.112   9.247  0.1944  0.0998  0.5028
  107OSM   H14F11043   1.294   6.090   9.221 -0.0064  0.2901 -0.5171
  107OSM   H14G11044   1.189   6.222   9.256 -2.1198  0.3337 -1.3360
  107OSM   C15F11045   1.095   6.084   9.131  0.2482 -0.0673 -0.2454
  107OSM   H15F11046   1.000   6.141   9.137  0.9919  1.2224 -0.5095
  107OSM   H15G11047   1.077   5.974   9.129 -2.9563  0.3017  1.9144
  107OSM   C16F11048   1.165   6.125   9.002 -0.0082  0.4820  0.3848
  107OSM   H16F11049   1.262   6.077   8.977  1.0113  3.1647 -1.1877
  107OSM   H16G11050   1.183   6.235   9.005 -0.8058  0.5904  1.5770
  107OSM   C17F11051   1.078   6.105   8.877  0.3044 -0.4670 -0.4927
  107OSM   H17F11052   0.983   6.156   8.902  1.5121  1.9570 -0.5567
  107OSM   H17G11053   1.061   5.995   8.878 -4.3182  0.0475 -1.3970
  107OSM   C18F11054   1.145   6.141   8.745  0.0152 -0.0014  0.3663
  107OSM   H18F11055   1.078   6.121   8.659  0.6475  2.4616 -0.7953
  107OSM   H18G11056   1.240   6.087   8.727  0.2376  0.4743  0.0956
  107OSM   H18H11057   1.175   6.248   8.747 -0.1169  0.0243  1.3595
  108OSM      N11058   2.848   3.039  11.150  0.3894  0.0528 -0.4246
  108OSM    C1511059   2.928   3.113  11.246  0.4521  0.7960  0.0038
  108OSM   H15A11060   3.025   3.140  11.207  0.5891  1.1357  0.5649
  108OSM   H15B11061   2.928   3.071  11.345 -1.1112  0.6969 -0.0166
  108OSM   H15C11062   2.881   3.207  11.272  0.4370  0.6458  0.5269
  108OSM    C1411063   2.913   2.913  11.134 -0.0853  0.2009 -0.0414
  108OSM   H14A11064   3.012   2.931  11.094  0.6043  0.4273  1.6728
  108OSM   H14B11065   2.861   2.856  11.059 -1.2188  0.2935  0.6546
  108OSM   H14C11066   2.922   2.855  11.225 -0.8903  0.7578  0.4002
  108OSM    C1311067   2.709   3.022  11.198 -0.4160 -0.2908  0.8887
  108OSM   H13A11068   2.718   3.007  11.304 -2.8839  1.2762  1.3906
  108OSM   H13B11069   2.652   2.946  11.147 -1.7780  1.8554 -1.0299
  108OSM   H13C11070   2.653   3.114  11.187 -0.2234 -0.3411 -0.9429
  108OSM    C1211071   2.838   3.113  11.016 -0.2270  0.3329  0.0510
  108OSM   H12A11072   2.802   3.213  11.037  1.2704  0.9343 -0.1291
  108OSM   H12B11073   2.759   3.069  10.957 -1.0183 -1.2089  2.1091
  108OSM    C1111074   2.961   3.121  10.922 -0.9228 -0.0767 -0.5696
  108OSM   H11A11075   2.930   3.180  10.833  0.4967  2.2737  0.4069
  108OSM   H11B11076   2.985   3.016  10.894 -2.2225 -0.1010 -1.7281
  108OSM      P11077   3.216   3.112  10.985 -0.3966 -0.0311 -0.2022
  108OSM    O1311078   3.304   3.205  11.057  0.2944  1.4042 -0.0506
  108OSM    O1411079   3.195   2.978  11.049 -0.1343  0.3150  0.3740
  108OSM    O1111080   3.256   3.105  10.843 -0.5059  0.4960 -0.5225
  108OSM    O1211081   3.073   3.188  10.986  0.1765  0.0071 -0.0611
  108OSM    C1S11082   3.265   3.220  10.753  0.3838 -0.0458 -0.0105
  108OSM    H1S11083   3.321   3.304  10.800 -0.0581 -0.2592  0.9261
  108OSM    H1T11084   3.165   3.259  10.724  0.0825 -1.6642 -1.2807
  108OSM     NF11085   3.354   3.311  10.544  0.3985 -0.0078  0.2476
  108OSM    HNF11086   3.310   3.342  10.461  0.6732  2.6756  1.0002
  108OSM    C2S11087   3.319   3.187  10.613  0.9967  0.6949  0.1970
  108OSM    H2S11088   3.412   3.129  10.629  0.7813  0.2913  0.0093
  108OSM    C3S11089   3.218   3.100  10.537  0.2698  0.2056 -0.0281
  108OSM    H3S11090   3.127   3.157  10.509  0.3545  1.0303  1.2696
  108OSM     O311091   3.165   2.992  10.612  0.0082 -0.1578 -0.0524
  108OSM    HO311092   3.203   3.007  10.700 -1.0633 -1.6874  0.7058
  108OSM    C4S11093   3.266   3.049  10.398 -0.5626  1.1077  0.0677
  108OSM    H4S11094   3.249   3.116  10.312  1.3905 -0.9893 -2.1233
  108OSM    C5S11095   3.311   2.925  10.356 -0.3073  0.3940 -0.0635
  108OSM    H5S11096   3.311   2.853  10.440 -0.5575  0.1949 -0.2298
  108OSM    C6S11097   3.340   2.877  10.219  0.0015  0.0965  0.1625
  108OSM    H6S11098   3.277   2.792  10.184  1.7001 -0.3001 -2.2145
  108OSM    H6T11099   3.442   2.832  10.230 -0.0383  0.1968  1.0014
  108OSM    C7S11100   3.363   2.962  10.096 -0.3387 -0.3025 -0.4191
  108OSM    H7S11101   3.453   3.021  10.125 -1.1349  0.2085  1.1199
  108OSM    H7T11102   3.280   3.033  10.076  0.9385  1.3508 -0.0604
  108OSM    C8S11103   3.406   2.886   9.973  0.0966  0.2969 -0.8073
  108OSM    H8S11104   3.335   2.808   9.940  0.9931 -0.2415 -1.4980
  108OSM    H8T11105   3.497   2.826   9.995 -0.1618  0.1087 -0.2397
  108OSM    C9S11106   3.424   2.976   9.850  0.6921  0.2055 -0.6351
  108OSM    H9S11107   3.473   2.921   9.766  0.9424  1.1696 -1.1344
  108OSM    H9T11108   3.480   3.066   9.882 -2.1086  1.7184  0.3730
  108OSM   C10S11109   3.292   3.026   9.787 -0.4903 -0.2539 -0.4903
  108OSM   H10S11110   3.233   3.091   9.855 -0.5948 -0.9030  0.0379
  108OSM   H10T11111   3.224   2.942   9.763 -1.6315  0.8757 -1.4045
  108OSM   C11S11112   3.312   3.109   9.656  0.0519 -0.0346  0.8095
  108OSM   H11S11113   3.387   3.187   9.681 -2.6553  2.6070  1.2529
  108OSM   H11T11114   3.218   3.162   9.630  0.0890 -0.9252 -1.4191
  108OSM   C12S11115   3.355   3.043   9.529  0.4471 -0.1603  0.0684
  108OSM   H12S11116   3.276   2.969   9.503  0.3778  0.1711 -0.6845
  108OSM   H12T11117   3.448   2.984   9.544  0.3240 -0.2306  0.5754
  108OSM   C13S11118   3.382   3.142   9.415 -0.2886  0.3783  0.4441
  108OSM   H13S11119   3.489   3.171   9.417  0.3940 -1.9145  0.3453
  108OSM   H13T11120   3.307   3.224   9.422 -1.7073 -0.8600  0.2675
  108OSM   C14S11121   3.374   3.074   9.279  0.1832 -0.1462  0.6468
  108OSM   H14S11122   3.285   3.007   9.274  0.6172 -0.6583 -0.8718
  108OSM   H14T11123   3.459   3.003   9.274 -1.8797 -2.7916  0.5977
  108OSM   C15S11124   3.385   3.181   9.172 -0.0719  0.1940 -0.3911
  108OSM   H15S11125   3.447   3.267   9.206 -0.3022  0.5511 -0.8644
  108OSM   H15T11126   3.286   3.225   9.148  0.2819  0.4082 -1.5264
  108OSM   C16S11127   3.460   3.138   9.050 -0.1401 -0.8689 -0.1339
  108OSM   H16S11128   3.395   3.055   9.014 -2.5922  0.9722 -0.2495
  108OSM   H16T11129   3.556   3.089   9.076  0.1520  0.6532  1.9034
  108OSM   C17S11130   3.471   3.244   8.945 -0.2392 -0.0715  0.6698
  108OSM   H17S11131   3.538   3.322   8.987  0.4360  0.1898 -0.8202
  108OSM   H17T11132   3.378   3.291   8.908 -0.0264 -1.0599 -1.2652
  108OSM   C18S11133   3.540   3.180   8.823 -0.2312  0.0692  0.3966
  108OSM   H18S11134   3.486   3.089   8.788  1.0190 -0.8768  0.8618
  108OSM   H18T11135   3.639   3.149   8.861  1.3563  3.5166 -0.5744
  108OSM   H18U11136   3.561   3.250   8.739  0.8083 -1.7342 -0.9307
  108OSM    C1F11137   3.454   3.390  10.580 -0.3555  0.3745  0.1378
  108OSM     OF11138   3.515   3.377  10.682  0.1435  0.0237 -0.8785
  108OSM    C2F11139   3.483   3.509  10.489  0.0319 -0.0759 -0.5760
  108OSM    H2F11140   3.524   3.597  10.544  0.7007 -0.5012 -0.3851
  108OSM    H2G11141   3.389   3.541  10.439  0.3555  0.4234 -0.8802
  108OSM    C3F11142   3.578   3.472  10.372 -0.0115 -0.0287  0.1407
  108OSM    H3F11143   3.528   3.403  10.301  0.2408 -0.0314 -0.0376
  108OSM    H3G11144   3.666   3.420  10.416  0.3294 -0.9158 -1.5066
  108OSM    C4F11145   3.615   3.605  10.299  0.1185  0.5659  0.3400
  108OSM    H4F11146   3.628   3.674  10.385 -0.5516  1.4011 -0.2125
  108OSM    H4G11147   3.543   3.668  10.243  1.2854  0.0770 -1.8266
  108OSM    C5F11148   3.738   3.593  10.211  0.5769  0.3745 -0.4740
  108OSM    H5F11149   3.821   3.549  10.271 -1.2774 -0.7339  1.4284
  108OSM    H5G11150   3.775   3.695  10.188  0.2828  0.9869  1.4958
  108OSM    C6F11151   3.708   3.521  10.086 -0.2007  0.5308  0.6014
  108OSM    H6F11152   3.636   3.588  10.035 -0.3891 -0.1360 -0.0373
  108OSM    H6G11153   3.648   3.428  10.097 -1.9854  0.9829 -3.4381
  108OSM    C7F11154   3.839   3.497  10.007  0.5673  0.3849 -0.6591
  108OSM    H7F11155   3.926   3.474  10.072  1.9342  3.6190 -1.1492
  108OSM    H7G11156   3.868   3.596   9.966  2.5864  1.3160  2.5750
  108OSM    C8F11157   3.824   3.405   9.883  0.2796  0.8503  0.6477
  108OSM    H8F11158   3.899   3.441   9.808  0.7886 -1.5982 -0.0915
  108OSM    H8G11159   3.721   3.413   9.843 -0.2659 -1.6201  1.4285
  108OSM    C9F11160   3.852   3.258   9.911 -0.7838  0.1980  0.4157
  108OSM    H9F11161   3.909   3.238  10.003  0.0548  0.3307 -0.0635
  108OSM   C10F11162   3.807   3.148   9.843  0.3205 -0.4801 -0.3056
  108OSM   H10F11163   3.830   3.044   9.871 -0.0231 -1.8466 -4.3701
  108OSM   C11F11164   3.726   3.156   9.720 -0.3594 -0.0372  0.4196
  108OSM   H11F11165   3.646   3.233   9.723 -0.6743 -0.1474 -2.6225
  108OSM   H11G11166   3.669   3.064   9.696 -1.2362  0.9663 -1.6051
  108OSM   C12F11167   3.815   3.194   9.594  0.1947  0.6088  0.0208
  108OSM   H12F11168   3.885   3.108   9.591 -0.8663 -0.3058  0.7714
  108OSM   H12G11169   3.865   3.292   9.611 -0.1206  0.7164  0.3440
  108OSM   C13F11170   3.741   3.213   9.462 -0.1440  0.2653  0.2382
  108OSM   H13F11171   3.659   3.287   9.464  0.9452  1.9093 -3.9209
  108OSM   H13G11172   3.697   3.113   9.438  1.6620 -0.4395 -0.3012
  108OSM   C14F11173   3.835   3.251   9.344 -0.9264  0.1035 -0.1640
  108OSM   H14F11174   3.926   3.188   9.347 -0.1369  1.2315  0.3185
  108OSM   H14G11175   3.875   3.355   9.351  1.4254 -0.7929  0.3420
  108OSM   C15F11176   3.762   3.239   9.210 -0.1464  0.6643 -0.5679
  108OSM   H15F11177   3.676   3.309   9.200 -0.1319  0.8603  0.5816
  108OSM   H15G11178   3.714   3.139   9.205  0.6837  0.2562 -0.5352
  108OSM   C16F11179   3.853   3.251   9.090  0.0087 -0.7441  0.0992
  108OSM   H16F11180   3.807   3.207   8.999  0.6968  1.5915 -1.4883
  108OSM   H16G11181   3.947   3.198   9.115 -0.4156 -1.0263  1.1637
  108OSM   C17F11182   3.889   3.404   9.062  0.6052  0.3257 -0.4136
  108OSM   H17F11183   3.936   3.435   9.158  1.3785 -1.5296 -0.1565
  108OSM   H17G11184   3.786   3.443   9.048 -0.3100 -2.1052 -0.9116
  108OSM   C18F11185   3.985   3.428   8.946  0.4809  0.7493 -0.4168
  108OSM   H18F11186   4.020   3.534   8.949 -2.0928  1.6606  0.1901
  108OSM   H18G11187   3.934   3.413   8.849 -1.7513 -0.9398  0.9213
  108OSM   H18H11188   4.052   3.340   8.958 -1.6146 -1.0191 -0.9835
  109OSM      N11189   5.725   3.760  11.109 -0.2085 -0.1255  0.1874
  109OSM    C1511190   5.709   3.613  11.101 -0.4409  0.3218 -0.5346
  109OSM   H15A11191   5.637   3.572  11.170  0.1658 -2.1795 -1.2660
  109OSM   H15B11192   5.810   3.578  11.116 -0.1251  1.5189  0.2455
  109OSM   H15C11193   5.667   3.587  11.004 -0.0210 -0.9227 -0.4068
  109OSM    C1411194   5.776   3.802  11.240 -0.0438  0.0076  0.0975
  109OSM   H14A11195   5.693   3.785  11.308 -0.6516  1.1627 -0.3438
  109OSM   H14B11196   5.797   3.907  11.249 -2.8359  0.6076  0.6195
  109OSM   H14C11197   5.859   3.745  11.280 -0.1658 -0.4336 -0.2631
  109OSM    C1311198   5.831   3.799  11.012  0.5039  0.2621 -0.4956
  109OSM   H13A11199   5.855   3.904  11.020  1.8873 -0.1642  1.7619
  109OSM   H13B11200   5.794   3.790  10.911  1.5126  2.3396 -1.1150
  109OSM   H13C11201   5.917   3.737  11.031 -0.4421 -0.2444  2.7014
  109OSM    C1211202   5.590   3.825  11.084  0.0740 -0.4556  0.5683
  109OSM   H12A11203   5.601   3.930  11.106  1.4737 -0.0706 -1.6640
  109OSM   H12B11204   5.518   3.793  11.158 -0.1065  0.9198  1.0258
  109OSM    C1111205   5.529   3.822  10.939  0.1738 -0.0214 -0.9108
  109OSM   H11A11206   5.426   3.864  10.927  0.6872  1.8232  0.6036
  109OSM   H11B11207   5.528   3.713  10.916 -1.0104  0.4231 -3.2799
  109OSM      P11208   5.623   4.043  10.826 -0.1320 -0.3333  0.0868
  109OSM    O1311209   5.503   4.092  10.752  0.3962  0.0148 -0.1959
  109OSM    O1411210   5.647   4.103  10.957 -0.4127 -0.1091  0.7453
  109OSM    O1111211   5.744   4.065  10.737 -0.2993 -0.3360 -0.2095
  109OSM    O1211212   5.613   3.883  10.845 -0.1422 -0.2501  0.1110
  109OSM    C1S11213   5.763   3.992  10.611 -0.3905  0.9437  0.1679
  109OSM    H1S11214   5.670   3.950  10.568  0.6735 -1.8934  0.3896
  109OSM    H1T11215   5.831   3.906  10.630 -1.3569 -1.1911 -4.5960
  109OSM     NF11216   5.821   3.999  10.379  0.3295 -0.1162  0.3783
  109OSM    HNF11217   5.898   3.937  10.367 -0.1423 -0.2847 -2.5961
  109OSM    C2S11218   5.825   4.074  10.501  0.1761  0.3995  0.5946
  109OSM    H2S11219   5.766   4.168  10.502 -0.6294 -0.0852 -0.0874
  109OSM    C3S11220   5.973   4.115  10.535  0.1490 -0.0548  0.5014
  109OSM    H3S11221   6.028   4.018  10.534 -1.0291 -0.7427 -1.0009
  109OSM     O311222   5.987   4.180  10.655 -0.5071  0.1027 -0.1440
  109OSM    HO311223   5.894   4.180  10.678 -0.0184  0.2817  2.0386
  109OSM    C4S11224   6.029   4.206  10.426 -0.1329  0.2563  0.3229
  109OSM    H4S11225   5.967   4.294  10.404 -0.6074 -0.1118  0.1723
  109OSM    C5S11226   6.117   4.166  10.330 -0.5144 -0.5976 -0.5001
  109OSM    H5S11227   6.162   4.066  10.328  0.4088 -0.2260  0.5936
  109OSM    C6S11228   6.170   4.253  10.218  0.4214  0.3359 -0.3344
  109OSM    H6S11229   6.254   4.205  10.164  1.7620  2.6605 -0.4642
  109OSM    H6T11230   6.219   4.344  10.258 -0.0719  0.6334 -0.3949
  109OSM    C7S11231   6.065   4.279  10.105 -0.4204  0.3798  0.5786
  109OSM    H7S11232   5.986   4.354  10.126 -0.5668  0.2531  0.4882
  109OSM    H7T11233   6.015   4.181  10.088  0.9228 -0.1347 -0.5421
  109OSM    C8S11234   6.130   4.329   9.977  0.1054 -0.0381 -1.0984
  109OSM    H8S11235   6.202   4.247   9.956  0.6327  0.4586 -1.2369
  109OSM    H8T11236   6.186   4.422   9.999 -0.9394  0.9298 -2.3234
  109OSM    C9S11237   6.028   4.363   9.871  0.2839  0.3077 -0.3674
  109OSM    H9S11238   5.991   4.468   9.875  2.8862  1.2558  2.5522
  109OSM    H9T11239   5.944   4.291   9.881  0.2452  0.2557 -1.0310
  109OSM   C10S11240   6.087   4.338   9.734  0.1005  0.1850  0.1258
  109OSM   H10S11241   6.108   4.230   9.723 -0.1554  0.0109  1.2020
  109OSM   H10T11242   6.185   4.390   9.728  0.6515 -0.9730 -1.6585
  109OSM   C11S11243   5.997   4.395   9.624  0.7884 -0.0655 -0.0711
  109OSM   H11S11244   5.981   4.504   9.640  0.8245 -0.1448  0.5332
  109OSM   H11T11245   5.899   4.344   9.637  0.0310  1.4092  0.2761
  109OSM   C12S11246   6.077   4.386   9.497 -0.3928 -0.2898  0.2700
  109OSM   H12S11247   6.130   4.288   9.492 -0.1267 -0.1447  0.2544
  109OSM   H12T11248   6.145   4.472   9.514 -0.4453 -0.2551  0.3029
  109OSM   C13S11249   6.006   4.413   9.374 -0.3206 -0.6422 -0.6013
  109OSM   H13S11250   5.923   4.487   9.377 -1.0038 -1.4253  0.9631
  109OSM   H13T11251   5.962   4.316   9.345 -0.3670 -0.2222 -2.0081
  109OSM   C14S11252   6.107   4.464   9.265 -0.1732  0.2451  0.1260
  109OSM   H14S11253   6.180   4.385   9.237  0.0396  0.6464 -0.4627
  109OSM   H14T11254   6.168   4.551   9.298  0.9813  0.1268 -1.5599
  109OSM   C15S11255   6.035   4.510   9.132  0.4593  0.2803  0.4994
  109OSM   H15S11256   5.962   4.593   9.146 -0.2812 -0.1698 -0.5480
  109OSM   H15T11257   5.969   4.425   9.101  0.3384 -0.0171  1.5277
  109OSM   C16S11258   6.132   4.542   9.022  0.0413 -0.5555 -0.4157
  109OSM   H16S11259   6.185   4.456   8.974 -0.7541 -0.3438 -1.7301
  109OSM   H16T11260   6.206   4.603   9.078  0.2915 -2.8720  1.9755
  109OSM   C17S11261   6.068   4.630   8.914 -0.6331 -0.1702  0.3551
  109OSM   H17S11262   6.125   4.614   8.820  2.0695 -1.8528  2.1195
  109OSM   H17T11263   6.081   4.738   8.936  1.1395 -0.3548  0.3394
  109OSM   C18S11264   5.919   4.597   8.884  0.0339  0.3481  0.3088
  109OSM   H18S11265   5.855   4.611   8.973 -2.6689 -1.6355 -1.1602
  109OSM   H18T11266   5.914   4.492   8.848  0.7481  0.6272 -0.6491
  109OSM   H18U11267   5.897   4.668   8.801  2.0295 -0.5459 -1.0652
  109OSM    C1F11268   5.709   3.981  10.312 -0.3906 -0.2171 -0.0956
  109OSM     OF11269   5.606   4.040  10.347 -0.3194 -0.2406 -0.1632
  109OSM    C2F11270   5.712   3.885  10.198 -0.0968 -0.8757 -0.1542
  109OSM    H2F11271   5.713   3.778  10.226  1.7363 -0.9927 -0.5293
  109OSM    H2G11272   5.807   3.910  10.145  1.0479  1.2448  2.6056
  109OSM    C3F11273   5.582   3.888  10.108 -0.6103 -0.0157  0.4757
  109OSM    H3F11274   5.566   3.994  10.082  3.2531  0.8315  1.0174
  109OSM    H3G11275   5.494   3.866  10.173 -1.2338  0.4079 -0.2095
  109OSM    C4F11276   5.604   3.809   9.977  0.6691  0.1644 -0.6179
  109OSM    H4F11277   5.697   3.844   9.927  0.3094  3.5042  0.7621
  109OSM    H4G11278   5.522   3.824   9.904 -1.5628  0.6934  1.8569
  109OSM    C5F11279   5.602   3.656  10.002 -0.3348 -0.1897 -0.8232
  109OSM    H5F11280   5.499   3.624  10.030 -0.1206 -2.4297 -2.3859
  109OSM    H5G11281   5.673   3.631  10.084  0.1731  2.1579 -0.4961
  109OSM    C6F11282   5.631   3.580   9.872 -0.0057  0.2223 -0.4831
  109OSM    H6F11283   5.561   3.619   9.795 -1.2421 -2.1447 -0.6364
  109OSM    H6G11284   5.602   3.474   9.890 -1.5394  0.8782  1.2552
  109OSM    C7F11285   5.776   3.592   9.825  0.2444  0.5167 -0.7708
  109OSM    H7F11286   5.838   3.599   9.917 -2.8009 -0.8489  1.5570
  109OSM    H7G11287   5.793   3.683   9.763  0.7677  1.9131  1.3280
  109OSM    C8F11288   5.833   3.460   9.770 -0.5420  1.1526  0.2240
  109OSM    H8F11289   5.822   3.377   9.843 -0.2259 -0.2002 -1.2165
  109OSM    H8G11290   5.941   3.472   9.748 -0.6242  0.0706 -0.8668
  109OSM    C9F11291   5.764   3.421   9.643  0.3729  0.2552  0.8098
  109OSM    H9F11292   5.659   3.453   9.649 -0.2437 -1.8494  2.8665
  109OSM   C10F11293   5.822   3.349   9.545 -0.1855  0.3164  0.5190
  109OSM   H10F11294   5.771   3.335   9.449  2.0353 -2.6941 -0.3782
  109OSM   C11F11295   5.957   3.288   9.536  0.2318  0.2779  0.3318
  109OSM   H11F11296   5.953   3.177   9.545 -0.7586  0.2420 -0.4268
  109OSM   H11G11297   6.019   3.324   9.621  0.0868  1.4943 -0.0712
  109OSM   C12F11298   6.042   3.308   9.407  0.0197 -0.3727  1.0672
  109OSM   H12F11299   6.134   3.247   9.419 -0.3857 -0.8327  1.9085
  109OSM   H12G11300   6.076   3.413   9.397 -0.4319 -0.3189 -0.0886
  109OSM   C13F11301   5.980   3.271   9.273 -0.3593 -0.4457 -0.7267
  109OSM   H13F11302   5.876   3.310   9.272  0.3587  1.5784 -0.7335
  109OSM   H13G11303   5.975   3.160   9.274 -0.7459 -0.4362 -1.1742
  109OSM   C14F11304   6.072   3.306   9.152  0.0810 -0.0539 -0.5812
  109OSM   H14F11305   6.174   3.274   9.181 -0.3772  0.8246  2.3121
  109OSM   H14G11306   6.063   3.416   9.135 -0.9962 -0.2004 -0.9721
  109OSM   C15F11307   6.033   3.241   9.019  0.2372  0.1176  0.3422
  109OSM   H15F11308   5.943   3.296   8.985  1.4107  1.1955 -1.1893
  109OSM   H15G11309   6.005   3.135   9.035  2.1291 -0.4738  0.0254
  109OSM   C16F11310   6.131   3.250   8.906  0.0158  0.1878  0.0314
  109OSM   H16F11311   6.230   3.206   8.928  2.2177  3.4968 -2.2366
  109OSM   H16G11312   6.149   3.359   8.891  0.3746 -0.2533 -3.8041
  109OSM   C17F11313   6.074   3.197   8.771 -0.0381 -0.3675 -0.1073
  109OSM   H17F11314   5.971   3.238   8.763 -0.2737 -0.7477  0.8010
  109OSM   H17G11315   6.065   3.088   8.793  1.7272 -0.6126 -0.4467
  109OSM   C18F11316   6.164   3.217   8.649  0.0100 -0.1331  1.0810
  109OSM   H18F11317   6.107   3.201   8.555  0.5059  0.1472  0.7261
  109OSM   H18G11318   6.248   3.145   8.642 -0.6374 -0.7678 -0.7746
  109OSM   H18H11319   6.207   3.318   8.635  2.1961 -1.3228 -1.6246
  110OSM      N11320   0.202   3.550  10.873 -0.1374  0.4461  0.5614
  110OSM    C1511321   0.195   3.597  10.721  0.1875 -0.2555 -0.3876
  110OSM   H15A11322   0.278   3.662  10.697 -0.3763  0.6084 -0.0736
  110OSM   H15B11323   0.115   3.669  10.707  1.1060  1.4349  2.1454
  110OSM   H15C11324   0.192   3.510  10.658 -0.2582 -0.3825 -0.1959
  110OSM    C1411325   0.173   3.665  10.960 -0.4876 -0.1062 -0.2629
  110OSM   H14A11326   0.229   3.753  10.930  0.2707 -0.2296  0.7280
  110OSM   H14B11327   0.217   3.646  11.057  0.7941 -1.1762 -1.0189
  110OSM   H14C11328   0.067   3.683  10.973 -0.3962 -0.7095  1.6175
  110OSM    C1311329   0.094   3.446  10.894 -0.0087  0.6020 -0.2496
  110OSM   H13A11330  -0.004   3.491  10.892 -1.2297 -1.7812  1.2718
  110OSM   H13B11331   0.100   3.403  10.992 -0.5444  2.1834  0.5054
  110OSM   H13C11332   0.087   3.370  10.817 -1.5745  0.0617  0.3769
  110OSM    C1211333   0.349   3.498  10.884 -0.1048 -0.8914  0.6977
  110OSM   H12A11334   0.358   3.427  10.803 -0.5062  0.8660 -0.9486
  110OSM   H12B11335   0.364   3.446  10.978  0.1999 -0.1737  1.0527
  110OSM    C1111336   0.460   3.601  10.874  0.0651 -0.9856  0.7240
  110OSM   H11A11337   0.538   3.536  10.920 -0.1079 -0.9451  1.0748
  110OSM   H11B11338   0.436   3.689  10.938  2.7826  0.2516  0.1789
  110OSM      P11339   0.570   3.761  10.708 -0.1479 -0.1171  0.0368
  110OSM    O1311340   0.569   3.785  10.559  0.1632 -0.2026 -0.2827
  110OSM    O1411341   0.541   3.879  10.791 -0.0107  0.0355 -0.0250
  110OSM    O1111342   0.716   3.714  10.748  0.2619 -0.0022  0.4684
  110OSM    O1211343   0.479   3.635  10.736  0.6895  0.2142 -0.9947
  110OSM    C1S11344   0.800   3.629  10.667  0.7213 -1.3907  0.8179
  110OSM    H1S11345   0.728   3.562  10.617 -1.0057 -0.2075  1.6089
  110OSM    H1T11346   0.866   3.573  10.736  2.6415 -0.5565 -0.2606
  110OSM     NF11347   0.967   3.615  10.472 -0.1455 -0.1225 -0.0506
  110OSM    HNF11348   1.065   3.612  10.486  0.2320 -0.5699 -2.3718
  110OSM    C2S11349   0.889   3.705  10.562  0.7922  0.5425  1.1236
  110OSM    H2S11350   0.819   3.760  10.497 -0.4038 -1.1224  0.9430
  110OSM    C3S11351   0.977   3.806  10.630  0.2966  0.0561 -0.3381
  110OSM    H3S11352   1.060   3.761  10.688  1.3456  0.2213 -1.6610
  110OSM     O311353   0.906   3.892  10.720  0.6193 -0.1319 -0.8354
  110OSM    HO311354   0.818   3.852  10.724 -0.2839  1.7186 -1.1730
  110OSM    C4S11355   1.049   3.885  10.522  0.7133  0.6773  0.1412
  110OSM    H4S11356   1.124   3.823  10.472  0.5978  1.1515 -0.6335
  110OSM    C5S11357   1.015   3.997  10.466  0.1690 -0.5518  0.2810
  110OSM    H5S11358   0.932   4.058  10.504 -0.0916 -0.6856 -0.0699
  110OSM    C6S11359   1.092   4.056  10.345 -0.5612  0.2275 -0.4396
  110OSM    H6S11360   1.180   4.118  10.373 -0.7387 -0.7488  2.6448
  110OSM    H6T11361   1.027   4.125  10.288  0.1420 -0.4988 -2.1977
  110OSM    C7S11362   1.127   3.950  10.233 -0.2803 -0.1266  0.0437
  110OSM    H7S11363   1.044   3.880  10.210  0.5291 -0.9498 -0.4341
  110OSM    H7T11364   1.210   3.887  10.272 -0.1137  0.4929  0.7040
  110OSM    C8S11365   1.193   4.008  10.107  0.3210  0.4832 -0.0373
  110OSM    H8S11366   1.291   4.057  10.126 -0.5051  2.5285 -0.8084
  110OSM    H8T11367   1.120   4.083  10.070  0.2953 -0.1864 -1.4221
  110OSM    C9S11368   1.203   3.895  10.006 -0.1220  0.4882 -0.0901
  110OSM    H9S11369   1.103   3.858   9.977 -0.2107  0.8825 -0.2942
  110OSM    H9T11370   1.252   3.800  10.035 -0.3958  0.0965 -0.8947
  110OSM   C10S11371   1.278   3.938   9.883  0.1103  0.3299  0.3839
  110OSM   H10S11372   1.380   3.967   9.914 -1.0819  2.7800  2.3613
  110OSM   H10T11373   1.222   4.027   9.847  1.0699  0.6917 -0.2427
  110OSM   C11S11374   1.268   3.840   9.763 -0.5232  0.4166 -0.9631
  110OSM   H11S11375   1.161   3.843   9.735 -0.9947  0.8400  0.7502
  110OSM   H11T11376   1.307   3.747   9.811  2.0011  1.4895 -0.7485
  110OSM   C12S11377   1.365   3.881   9.658  0.2855  0.4608 -0.0162
  110OSM   H12S11378   1.463   3.895   9.709  0.8083 -0.0230 -0.8547
  110OSM   H12T11379   1.348   3.983   9.617 -0.7145  0.0286 -0.7357
  110OSM   C13S11380   1.364   3.789   9.533 -0.0027 -0.6668  0.0352
  110OSM   H13S11381   1.260   3.770   9.500 -0.4270  2.7498 -1.0162
  110OSM   H13T11382   1.414   3.696   9.567  1.4317 -0.2909 -0.9630
  110OSM   C14S11383   1.452   3.844   9.424  0.3515  0.3310 -0.2153
  110OSM   H14S11384   1.559   3.846   9.452 -0.0086 -0.4843  1.3524
  110OSM   H14T11385   1.408   3.944   9.404  1.8143  1.3498  1.4253
  110OSM   C15S11386   1.457   3.757   9.294  0.8759 -0.0797  0.5556
  110OSM   H15S11387   1.355   3.741   9.252  1.4656  0.2523 -1.0437
  110OSM   H15T11388   1.489   3.656   9.326 -0.8275 -0.6970  0.4331
  110OSM   C16S11389   1.539   3.805   9.185  0.0309 -0.3019 -0.4668
  110OSM   H16S11390   1.514   3.750   9.092 -3.4026  0.2660 -0.0174
  110OSM   H16T11391   1.645   3.796   9.217  0.4173  2.9112 -0.4632
  110OSM   C17S11392   1.520   3.951   9.145  0.9010  1.0724 -0.2321
  110OSM   H17S11393   1.544   4.009   9.237 -0.8505 -0.8114  1.4907
  110OSM   H17T11394   1.410   3.956   9.134  0.5521  0.9982  2.5001
  110OSM   C18S11395   1.592   3.992   9.018  0.5108 -0.4698 -0.2366
  110OSM   H18S11396   1.702   4.001   9.032  0.5597 -3.0367  1.8953
  110OSM   H18T11397   1.552   4.087   8.977  0.7413 -0.0830  0.4308
  110OSM   H18U11398   1.580   3.910   8.944  1.9611  0.3769 -1.4608
  110OSM    C1F11399   0.919   3.541  10.375  0.5619  0.5118  0.0012
  110OSM     OF11400   0.797   3.533  10.354  0.6336  0.5605  0.4078
  110OSM    C2F11401   1.024   3.460  10.297 -0.6010  0.4020  0.6025
  110OSM    H2F11402   0.990   3.355  10.283 -2.8668  1.2981 -1.4356
  110OSM    H2G11403   1.120   3.479  10.349  0.7425  0.5184 -1.7902
  110OSM    C3F11404   1.045   3.516  10.148 -0.3713  0.4315 -0.1260
  110OSM    H3F11405   1.108   3.607  10.152 -0.4023  0.5054 -1.1075
  110OSM    H3G11406   0.942   3.531  10.110 -0.0148 -0.3940 -1.4664
  110OSM    C4F11407   1.121   3.435  10.046 -0.2148  0.1685 -0.2607
  110OSM    H4F11408   1.078   3.333  10.037  1.6795 -0.7283  0.3870
  110OSM    H4G11409   1.223   3.422  10.088  0.3941  1.6920 -1.1978
  110OSM    C5F11410   1.128   3.509   9.910 -0.6331 -0.2550  0.2806
  110OSM    H5F11411   1.186   3.602   9.930 -0.3370 -0.3107 -0.3128
  110OSM    H5G11412   1.022   3.535   9.887 -0.0372  1.7111 -0.3888
  110OSM    C6F11413   1.197   3.430   9.807 -0.5659  0.0568  0.0418
  110OSM    H6F11414   1.158   3.326   9.804  1.3612 -0.6908 -0.8023
  110OSM    H6G11415   1.302   3.414   9.841 -1.0692 -1.2358  1.0949
  110OSM    C7F11416   1.199   3.492   9.666 -0.5580 -0.0435 -0.2796
  110OSM    H7F11417   1.296   3.534   9.632  0.0917  0.3296  1.8971
  110OSM    H7G11418   1.125   3.574   9.655  0.5287  1.6947  3.5331
  110OSM    C8F11419   1.167   3.381   9.560  0.4182  0.0248 -0.0062
  110OSM    H8F11420   1.141   3.430   9.463  0.3038 -2.7979 -1.5246
  110OSM    H8G11421   1.065   3.348   9.588  0.1818 -0.3972 -1.2761
  110OSM    C9F11422   1.264   3.266   9.541  0.8079  0.9141  0.6317
  110OSM    H9F11423   1.265   3.201   9.629  1.2700  1.0462  0.7283
  110OSM   C10F11424   1.337   3.250   9.429  0.2436  0.1181 -0.3231
  110OSM   H10F11425   1.418   3.176   9.427  0.0521 -0.1086  0.1425
  110OSM   C11F11426   1.345   3.349   9.322  0.6281 -0.1837  0.4089
  110OSM   H11F11427   1.446   3.344   9.276 -0.3054 -0.2411 -1.8114
  110OSM   H11G11428   1.342   3.453   9.359 -0.3230 -0.1131  0.1721
  110OSM   C12F11429   1.242   3.313   9.209  0.0741 -1.4072  0.4317
  110OSM   H12F11430   1.140   3.331   9.248  0.0021 -0.1844 -0.2480
  110OSM   H12G11431   1.231   3.208   9.174 -0.2988 -1.4109  0.5524
  110OSM   C13F11432   1.269   3.399   9.076 -0.7784 -0.1178 -0.5500
  110OSM   H13F11433   1.380   3.406   9.078 -0.7045 -1.2557 -0.0791
  110OSM   H13G11434   1.219   3.496   9.098  1.0223  0.2165  2.7475
  110OSM   C14F11435   1.225   3.331   8.947  0.6113  0.2889  1.5447
  110OSM   H14F11436   1.122   3.292   8.960  0.2157  1.2278  1.3137
  110OSM   H14G11437   1.284   3.238   8.933 -0.6486 -0.0884 -2.3592
  110OSM   C15F11438   1.229   3.418   8.816 -0.4161 -0.2673 -0.5970
  110OSM   H15F11439   1.297   3.501   8.844 -1.6058 -0.3925  3.1513
  110OSM   H15G11440   1.129   3.459   8.787 -0.0552  0.2757 -1.1044
  110OSM   C16F11441   1.284   3.350   8.684  0.3554 -0.8048 -0.4525
  110OSM   H16F11442   1.207   3.278   8.649 -2.7342  2.8898 -2.0459
  110OSM   H16G11443   1.386   3.311   8.706  1.0369 -0.7808 -3.2261
  110OSM   C17F11444   1.310   3.452   8.577 -0.0637 -0.0906  0.1446
  110OSM   H17F11445   1.385   3.402   8.513  0.0941 -1.1241  1.0997
  110OSM   H17G11446   1.361   3.545   8.610 -0.5832  0.5113 -0.7226
  110OSM   C18F11447   1.191   3.502   8.492  0.0497 -0.4748  0.3148
  110OSM   H18F11448   1.116   3.539   8.565  1.1379  3.0552 -0.1561
  110OSM   H18G11449   1.145   3.425   8.426  1.5646 -0.9838 -0.1873
  110OSM   H18H11450   1.215   3.596   8.437  3.6126 -1.1095  0.5909
  111OSM      N11451   5.784   0.184  11.178 -0.7882 -0.9691  0.1809
  111OSM    C1511452   5.746   0.121  11.310 -0.1723  0.5493 -0.3362
  111OSM   H15A11453   5.754   0.013  11.308  0.9435  0.5577  1.4095
  111OSM   H15B11454   5.646   0.147  11.342 -0.6987 -2.3888  0.8246
  111OSM   H15C11455   5.805   0.158  11.393 -2.4705  0.8411  1.2683
  111OSM    C1411456   5.799   0.328  11.208  0.9103  0.4290 -0.1707
  111OSM   H14A11457   5.823   0.388  11.121  3.3180 -1.8513 -1.2261
  111OSM   H14B11458   5.877   0.358  11.277 -0.8479  1.2511  1.5644
  111OSM   H14C11459   5.710   0.369  11.254 -0.5357  0.2730 -2.6415
  111OSM    C1311460   5.927   0.136  11.134  0.1529  0.4061 -0.6338
  111OSM   H13A11461   5.926   0.031  11.112 -2.2468  0.8164 -2.9700
  111OSM   H13B11462   5.997   0.156  11.214 -0.2265  1.4243 -0.5301
  111OSM   H13C11463   5.971   0.175  11.043  0.4973 -0.1355 -0.6987
  111OSM    C1211464   5.671   0.160  11.082  0.1116  0.0797  0.5560
  111OSM   H12A11465   5.590   0.227  11.105 -0.8601 -0.0456 -2.0833
  111OSM   H12B11466   5.617   0.066  11.091 -1.1692  0.6597 -0.6101
  111OSM    C1111467   5.688   0.188  10.927 -0.5514  0.2482 -0.4339
  111OSM   H11A11468   5.730   0.286  10.897 -0.4107  0.1147 -0.6798
  111OSM   H11B11469   5.584   0.183  10.888  0.2515 -1.0204 -2.6136
  111OSM      P11470   5.693  -0.058  10.851  0.0223 -0.0139 -0.1766
  111OSM    O1311471   5.761  -0.154  10.948  0.6284  0.2011  0.5456
  111OSM    O1411472   5.543  -0.045  10.858 -0.4637 -0.0173  0.0467
  111OSM    O1111473   5.719  -0.099  10.702 -0.0583  0.4498  0.7695
  111OSM    O1211474   5.761   0.084  10.860 -0.1084  0.2164 -0.2243
  111OSM    C1S11475   5.789  -0.019  10.611  0.3268 -0.0680  0.6837
  111OSM    H1S11476   5.895  -0.051  10.618  0.3768  0.2455  1.4729
  111OSM    H1T11477   5.776   0.090  10.629  0.3805 -0.1071  0.9656
  111OSM     NF11478   5.822   0.036  10.377  0.6188 -0.6761  0.3460
  111OSM    HNF11479   5.787   0.128  10.363 -0.8424 -1.5910 -2.8002
  111OSM    C2S11480   5.747  -0.049  10.465  0.1450 -0.0655  0.2579
  111OSM    H2S11481   5.776  -0.153  10.437  2.4500  0.1977  1.4539
  111OSM    C3S11482   5.595  -0.027  10.454  0.0050  0.2893  0.0126
  111OSM    H3S11483   5.565   0.075  10.485 -2.8985 -0.3851 -0.2705
  111OSM     O311484   5.518  -0.121  10.528 -0.2512  0.6910  0.8243
  111OSM    HO311485   5.573  -0.146  10.603 -2.2438 -1.6282  1.6672
  111OSM    C4S11486   5.557  -0.034  10.306 -0.7404  0.4119  0.1794
  111OSM    H4S11487   5.565   0.059  10.248  0.9219  0.1761 -0.0104
  111OSM    C5S11488   5.525  -0.148  10.240  0.0177  0.0123  0.5123
  111OSM    H5S11489   5.528  -0.243  10.295 -1.0893 -1.5258 -1.9155
  111OSM    C6S11490   5.482  -0.169  10.091  0.3573  0.4750 -0.3686
  111OSM    H6S11491   5.385  -0.223  10.086  1.0706 -1.0115  0.7688
  111OSM    H6T11492   5.561  -0.231  10.043  0.9519  1.1483 -0.2663
  111OSM    C7S11493   5.461  -0.039  10.016  0.5135  0.3398  0.7776
  111OSM    H7S11494   5.547   0.024  10.048  0.8000  1.4783 -1.9534
  111OSM    H7T11495   5.364  -0.001  10.054 -0.7468 -0.8208 -1.1285
  111OSM    C8S11496   5.485  -0.054   9.862 -0.0045  0.2525  0.6410
  111OSM    H8S11497   5.591  -0.085   9.847 -0.6929 -1.3904 -1.3101
  111OSM    H8T11498   5.471   0.038   9.801 -0.2981  0.0375  0.3804
  111OSM    C9S11499   5.391  -0.157   9.794  0.0749 -0.2592  0.5819
  111OSM    H9S11500   5.287  -0.121   9.807  0.8032  1.9789  0.6093
  111OSM    H9T11501   5.405  -0.251   9.852  0.5617 -1.1048 -0.8466
  111OSM   C10S11502   5.438  -0.190   9.650  0.3871  0.0307 -1.1912
  111OSM   H10S11503   5.375  -0.277   9.620 -2.0610  0.9415  0.9300
  111OSM   H10T11504   5.545  -0.216   9.639  0.1037 -2.9285  1.4465
  111OSM   C11S11505   5.391  -0.085   9.550  0.0909  0.8833  0.5804
  111OSM   H11S11506   5.452   0.007   9.567  2.0092 -0.0819 -0.6912
  111OSM   H11T11507   5.283  -0.060   9.554  0.0768  0.7867  0.8404
  111OSM   C12S11508   5.427  -0.137   9.410  0.2675 -0.0255  0.0770
  111OSM   H12S11509   5.388  -0.240   9.402 -2.5814  0.5860  3.8248
  111OSM   H12T11510   5.537  -0.154   9.408  0.1247 -1.2171  1.1983
  111OSM   C13S11511   5.368  -0.049   9.296  0.2885 -0.0215 -0.1435
  111OSM   H13S11512   5.362   0.058   9.327  2.0822  0.2344 -0.5719
  111OSM   H13T11513   5.263  -0.079   9.276  0.1264  0.5735 -0.2057
  111OSM   C14S11514   5.443  -0.072   9.163  0.0933  0.2776  0.4535
  111OSM   H14S11515   5.465  -0.180   9.157 -0.0461  0.2892 -0.4106
  111OSM   H14T11516   5.541  -0.021   9.177 -0.2026  1.5619 -1.7698
  111OSM   C15S11517   5.368  -0.020   9.041 -0.0079 -0.4626  0.6517
  111OSM   H15S11518   5.332   0.084   9.061  0.2992 -0.4003  0.8847
  111OSM   H15T11519   5.276  -0.083   9.033 -0.0063 -0.4633  0.6396
  111OSM   C16S11520   5.443  -0.026   8.903 -0.1483  0.4935  0.0410
  111OSM   H16S11521   5.455  -0.133   8.877  0.5023  0.1711  1.5292
  111OSM   H16T11522   5.543   0.019   8.922  0.2133 -0.1839 -0.2289
  111OSM   C17S11523   5.377   0.065   8.795 -0.4441 -0.3570 -0.6251
  111OSM   H17S11524   5.350   0.163   8.840  2.4353  0.9575 -1.5530
  111OSM   H17T11525   5.280   0.016   8.770 -2.3137  1.6917  1.9869
  111OSM   C18S11526   5.457   0.082   8.667 -0.3946  0.2467  0.4709
  111OSM   H18S11527   5.416   0.155   8.594  1.3002  1.0565  0.2794
  111OSM   H18T11528   5.458  -0.017   8.616 -1.3946  1.1305 -1.3574
  111OSM   H18U11529   5.563   0.105   8.691 -0.9928  4.1746 -0.0407
  111OSM    C1F11530   5.954   0.004  10.362  0.3923 -0.3623  0.7005
  111OSM     OF11531   5.990  -0.107  10.397 -0.2482  0.2826 -0.6267
  111OSM    C2F11532   6.053   0.103  10.312  0.6789 -0.2793 -0.8207
  111OSM    H2F11533   6.087   0.144  10.409 -1.1859  0.7069 -0.5363
  111OSM    H2G11534   6.002   0.184  10.255  1.0077  0.3554 -0.2310
  111OSM    C3F11535   6.164   0.035  10.234 -0.5762  0.2853  0.4124
  111OSM    H3F11536   6.124  -0.012  10.142  1.1022  0.2010 -0.3050
  111OSM    H3G11537   6.208  -0.044  10.298  0.0901  0.5144  0.2495
  111OSM    C4F11538   6.270   0.136  10.192  0.3855  0.0554 -0.4101
  111OSM    H4F11539   6.294   0.192  10.285  2.0551 -0.9353 -0.2065
  111OSM    H4G11540   6.225   0.217  10.130 -0.2522  1.7456  2.0869
  111OSM    C5F11541   6.394   0.079  10.121 -0.6266 -0.4218  0.2373
  111OSM    H5F11542   6.368   0.018  10.031 -1.2365 -0.0232  0.1338
  111OSM    H5G11543   6.457   0.011  10.182  0.1096  0.2986  0.2891
  111OSM    C6F11544   6.486   0.199  10.064  0.0043 -0.0173  0.6439
  111OSM    H6F11545   6.530   0.243  10.156 -2.8774  1.7325  1.3021
  111OSM    H6G11546   6.427   0.263   9.995 -1.6992 -1.1995  0.9381
  111OSM    C7F11547   6.600   0.140   9.981 -0.1551 -1.0707  0.4598
  111OSM    H7F11548   6.564   0.064   9.908  0.9208 -0.8449 -0.3360
  111OSM    H7G11549   6.688   0.093  10.030  2.2992  1.5084 -1.1528
  111OSM    C8F11550   6.663   0.240   9.884  0.6399  0.2572  0.5616
  111OSM    H8F11551   6.688   0.328   9.947 -2.8562  0.2897  2.1447
  111OSM    H8G11552   6.577   0.269   9.819  2.1179  1.0055 -1.1547
  111OSM    C9F11553   6.777   0.184   9.807 -0.3328  0.1250 -0.7986
  111OSM    H9F11554   6.874   0.225   9.840 -1.1359  1.2407  0.2549
  111OSM   C10F11555   6.768   0.094   9.706  0.6626  0.3336  0.3601
  111OSM   H10F11556   6.865   0.070   9.660  0.2725 -0.4065 -0.1155
  111OSM   C11F11557   6.646   0.030   9.642  0.6917  0.7890  0.1842
  111OSM   H11F11558   6.553   0.057   9.697  0.5432  0.9694 -0.1559
  111OSM   H11G11559   6.653  -0.081   9.646 -0.6334  0.6538 -0.5895
  111OSM   C12F11560   6.627   0.079   9.498  0.5199 -1.0589  0.2900
  111OSM   H12F11561   6.621   0.189   9.489 -0.0134 -1.1923 -1.2523
  111OSM   H12G11562   6.533   0.044   9.450  0.3310 -1.2183  0.7681
  111OSM   C13F11563   6.745   0.030   9.404  0.0105  0.5213 -0.4188
  111OSM   H13F11564   6.763  -0.076   9.431  0.4957  1.4906  3.7619
  111OSM   H13G11565   6.840   0.075   9.439 -0.0890  0.4800 -0.0863
  111OSM   C14F11566   6.729   0.054   9.255 -0.0862  0.2660 -0.1182
  111OSM   H14F11567   6.708   0.161   9.234  1.3791  1.0844  2.2718
  111OSM   H14G11568   6.628   0.011   9.236 -0.2658 -0.1075  1.5339
  111OSM   C15F11569   6.837   0.004   9.169  0.0315 -0.1334  0.7364
  111OSM   H15F11570   6.854  -0.098   9.210 -0.3440  0.3583  2.1733
  111OSM   H15G11571   6.931   0.061   9.185 -0.6053  2.3823 -3.1188
  111OSM   C16F11572   6.795  -0.001   9.020 -0.1438 -0.2912 -0.0820
  111OSM   H16F11573   6.886  -0.009   8.956 -0.7082 -0.3622 -0.9039
  111OSM   H16G11574   6.747   0.096   8.994 -1.2279 -0.2751  1.8616
  111OSM   C17F11575   6.691  -0.117   8.992  0.4362 -0.8481  0.3711
  111OSM   H17F11576   6.588  -0.083   9.015 -1.1436 -3.0056 -2.7186
  111OSM   H17G11577   6.714  -0.194   9.069 -0.9355 -0.0870  1.5901
  111OSM   C18F11578   6.683  -0.167   8.847 -0.0520  0.1679 -0.3216
  111OSM   H18F11579   6.604  -0.244   8.833  1.5635 -1.4013 -1.2441
  111OSM   H18G11580   6.777  -0.220   8.819  0.0022 -0.9952  1.8686
  111OSM   H18H11581   6.659  -0.087   8.774 -1.2103  0.2936  0.1783
  112OSM      N11582   1.678   4.816  11.141 -0.1472 -0.4824 -0.3608
  112OSM    C1511583   1.702   4.734  11.261 -0.1337  0.2239  0.0249
  112OSM   H15A11584   1.769   4.651  11.242 -0.0930  0.2121  0.2232
  112OSM   H15B11585   1.609   4.696  11.299 -0.1954  0.4980  0.1537
  112OSM   H15C11586   1.738   4.793  11.344 -1.3567  0.3403  0.4886
  112OSM    C1411587   1.612   4.726  11.042 -0.2783  0.1292  0.5341
  112OSM   H14A11588   1.673   4.648  10.999  0.2803  1.4270 -1.0924
  112OSM   H14B11589   1.577   4.783  10.958  3.0234  0.6288 -0.6175
  112OSM   H14C11590   1.530   4.675  11.091 -1.5509  0.3723 -1.2500
  112OSM    C1311591   1.599   4.937  11.179  0.3751  0.0676 -0.3818
  112OSM   H13A11592   1.499   4.911  11.208  1.2679 -2.7880  0.4362
  112OSM   H13B11593   1.589   5.008  11.098  0.4622  0.1691 -0.3054
  112OSM   H13C11594   1.639   4.991  11.263  0.7580  0.8913 -1.0738
  112OSM    C1211595   1.800   4.859  11.082  0.6829  0.4753 -0.6921
  112OSM   H12A11596   1.786   4.905  10.985 -4.2932 -0.7371 -0.7863
  112OSM   H12B11597   1.856   4.768  11.065 -2.0735 -1.2665 -1.0249
  112OSM    C1111598   1.896   4.956  11.161  0.1526 -0.6224 -0.4397
  112OSM   H11A11599   1.992   4.956  11.107  1.0042 -0.2873  1.0236
  112OSM   H11B11600   1.917   4.918  11.263  1.7806  1.4302  0.0482
  112OSM      P11601   1.863   5.194  11.052 -0.3462 -0.4038 -0.0499
  112OSM    O1311602   1.774   5.308  11.074  0.4010 -0.5928 -0.5749
  112OSM    O1411603   2.007   5.218  11.039  0.5350  0.0366  0.0619
  112OSM    O1111604   1.812   5.110  10.926 -0.3007 -0.2590 -0.0496
  112OSM    O1211605   1.839   5.088  11.167  0.4002 -0.6540  0.0202
  112OSM    C1S11606   1.807   5.166  10.796  1.2163  0.0672  0.1475
  112OSM    H1S11607   1.911   5.162  10.758  1.3485  0.4014  0.4690
  112OSM    H1T11608   1.779   5.274  10.798  1.2016  0.0940  3.0265
  112OSM     NF11609   1.726   5.162  10.558  0.0815  0.5538  0.2866
  112OSM    HNF11610   1.666   5.239  10.539 -1.7372 -0.9249 -0.3369
  112OSM    C2S11611   1.712   5.092  10.691  0.2793 -0.2259  0.1575
  112OSM    H2S11612   1.723   4.982  10.685 -1.7993 -0.4578  0.1784
  112OSM    C3S11613   1.568   5.106  10.751  0.0173  0.0958 -0.1250
  112OSM    H3S11614   1.537   5.213  10.752 -1.5563 -0.2245  3.8159
  112OSM     O311615   1.558   5.066  10.888 -0.0542 -0.0721 -0.3326
  112OSM    HO311616   1.647   5.094  10.912  0.0094  1.9572 -2.4969
  112OSM    C4S11617   1.465   5.028  10.671 -0.7884 -0.2943  0.3564
  112OSM    H4S11618   1.389   5.089  10.621  1.0056 -0.1329 -2.3529
  112OSM    C5S11619   1.438   4.899  10.673  0.1672 -0.0321 -0.5348
  112OSM    H5S11620   1.499   4.831  10.735  1.7861  2.5917  0.9654
  112OSM    C6S11621   1.327   4.833  10.594  0.0812 -0.3052 -0.5436
  112OSM    H6S11622   1.240   4.903  10.592 -0.2870 -0.7387  0.0902
  112OSM    H6T11623   1.290   4.743  10.647  0.1429 -0.0535 -0.0678
  112OSM    C7S11624   1.370   4.790  10.461 -0.5117  0.0789  0.2130
  112OSM    H7S11625   1.291   4.717  10.433  0.4154 -0.6436 -0.5895
  112OSM    H7T11626   1.467   4.736  10.463  0.6622  2.1402  1.5713
  112OSM    C8S11627   1.364   4.894  10.344  0.0024  0.0892 -0.3625
  112OSM    H8S11628   1.458   4.951  10.337 -0.2114  0.6293  0.8635
  112OSM    H8T11629   1.285   4.971  10.353  0.5681  0.5969  0.3966
  112OSM    C9S11630   1.346   4.811  10.216 -0.0858 -0.4414  0.4134
  112OSM    H9S11631   1.253   4.751  10.226 -0.9892  0.6233 -1.0590
  112OSM    H9T11632   1.442   4.755  10.220  0.9679  1.3669  2.2447
  112OSM   C10S11633   1.331   4.899  10.097 -0.1575 -0.2750 -0.0126
  112OSM   H10S11634   1.411   4.976  10.104 -1.3143  0.8321  1.9462
  112OSM   H10T11635   1.234   4.951  10.108 -1.5403 -2.7998  0.3858
  112OSM   C11S11636   1.338   4.818   9.962  0.6441 -0.1112  0.0057
  112OSM   H11S11637   1.283   4.723   9.980  0.6633 -0.1586 -0.1766
  112OSM   H11T11638   1.443   4.783   9.952 -0.0416 -2.1118 -0.8518
  112OSM   C12S11639   1.291   4.906   9.840  0.6883 -0.8795 -0.1362
  112OSM   H12S11640   1.345   5.003   9.849  1.1504 -1.2574  1.4022
  112OSM   H12T11641   1.185   4.935   9.851  1.8202  4.2491 -0.4552
  112OSM   C13S11642   1.314   4.829   9.714  0.6719  0.2042 -0.9755
  112OSM   H13S11643   1.253   4.736   9.710  3.3231 -1.7602  0.6554
  112OSM   H13T11644   1.418   4.791   9.712  0.5272 -0.3559  0.6170
  112OSM   C14S11645   1.301   4.906   9.585 -0.3310  0.0868  0.0059
  112OSM   H14S11646   1.403   4.939   9.557 -1.0722  0.8782 -1.9589
  112OSM   H14T11647   1.239   4.995   9.611  0.2795  0.5274 -0.0150
  112OSM   C15S11648   1.246   4.825   9.463  0.3245 -0.4204 -0.1619
  112OSM   H15S11649   1.154   4.766   9.483 -0.7395  1.7187  1.4819
  112OSM   H15T11650   1.329   4.756   9.434  1.0656  0.0803  0.7276
  112OSM   C16S11651   1.215   4.927   9.351 -0.0822 -0.5364  0.1051
  112OSM   H16S11652   1.148   5.004   9.394 -2.1063 -2.4123  0.5319
  112OSM   H16T11653   1.150   4.893   9.268  1.9768  0.3335 -1.9787
  112OSM   C17S11654   1.345   4.973   9.287  0.5939 -0.2967  0.2568
  112OSM   H17S11655   1.411   4.903   9.233  0.5546  1.5371 -2.3489
  112OSM   H17T11656   1.399   5.030   9.366  1.3909  1.4117 -1.4404
  112OSM   C18S11657   1.315   5.073   9.172  0.3652 -0.0458 -0.1675
  112OSM   H18S11658   1.406   5.100   9.113  1.5018 -2.9212  0.0729
  112OSM   H18T11659   1.272   5.168   9.208  1.2246 -0.1107  1.0939
  112OSM   H18U11660   1.243   5.026   9.102 -1.0409  0.7486  0.7223
  112OSM    C1F11661   1.805   5.109  10.465 -0.6313 -0.3216  0.0229
  112OSM     OF11662   1.888   5.023  10.494  0.0485  0.0565  0.2492
  112OSM    C2F11663   1.787   5.161  10.321 -0.2367  0.1795 -0.0167
  112OSM    H2F11664   1.829   5.264  10.320  1.3427 -0.4252 -1.6973
  112OSM    H2G11665   1.680   5.158  10.291  0.1491  1.7374 -1.7038
  112OSM    C3F11666   1.856   5.069  10.218 -1.0473 -0.0603 -0.4438
  112OSM    H3F11667   1.784   4.990  10.186 -0.6435 -0.8027  0.4189
  112OSM    H3G11668   1.946   5.019  10.259 -1.9489 -0.6591  0.8844
  112OSM    C4F11669   1.904   5.138  10.083 -0.2119  0.1618  0.0962
  112OSM    H4F11670   1.961   5.226  10.119 -0.0613  0.1605 -0.1338
  112OSM    H4G11671   1.827   5.183  10.018 -2.4148  0.8449  3.0122
  112OSM    C5F11672   1.985   5.032  10.000  0.5777 -0.1562 -0.1899
  112OSM    H5F11673   1.915   4.980   9.932 -0.6588  1.8128 -0.5168
  112OSM    H5G11674   2.022   4.956  10.072  0.4458  0.4196  0.5088
  112OSM    C6F11675   2.099   5.084   9.912  0.4486  0.0376 -0.4805
  112OSM    H6F11676   2.149   4.996   9.867  0.7710 -1.2219  2.1527
  112OSM    H6G11677   2.180   5.139   9.963 -0.1233 -0.6412  1.2440
  112OSM    C7F11678   2.051   5.168   9.793  0.1197  0.4289  0.0961
  112OSM    H7F11679   2.022   5.271   9.821 -1.2688  0.3981 -1.1505
  112OSM    H7G11680   1.955   5.121   9.764 -0.2684  0.7340  0.8680
  112OSM    C8F11681   2.149   5.177   9.673 -0.3859  0.0061  0.9217
  112OSM    H8F11682   2.185   5.077   9.639  1.0126  0.5080  0.8519
  112OSM    H8G11683   2.243   5.229   9.700 -0.7942  1.2874 -0.0362
  112OSM    C9F11684   2.095   5.251   9.557  0.3206 -0.1420  0.1514
  112OSM    H9F11685   2.063   5.351   9.590 -0.6658 -0.9714  1.8589
  112OSM   C10F11686   2.062   5.209   9.431 -0.1375  0.8421 -0.0937
  112OSM   H10F11687   2.021   5.289   9.367  0.7306  0.9999 -0.4775
  112OSM   C11F11688   2.076   5.062   9.389  0.3703  0.8601 -0.8776
  112OSM   H11F11689   1.980   5.043   9.338  1.0309  0.1421 -1.8862
  112OSM   H11G11690   2.075   4.998   9.480  0.1274  0.6261 -1.0448
  112OSM   C12F11691   2.188   4.999   9.309 -0.4528  0.4243  0.0270
  112OSM   H12F11692   2.182   4.888   9.300 -0.6992  0.3255  1.2341
  112OSM   H12G11693   2.288   4.998   9.357 -0.4173  1.1836 -0.0239
  112OSM   C13F11694   2.198   5.069   9.171  0.1164 -0.2956  0.2442
  112OSM   H13F11695   2.304   5.060   9.141 -0.2488  0.8880 -1.5717
  112OSM   H13G11696   2.175   5.177   9.187 -1.2752 -0.6993  1.1133
  112OSM   C14F11697   2.108   5.009   9.070  0.4105 -0.0507 -0.2447
  112OSM   H14F11698   2.005   5.019   9.110 -0.2229  1.9423 -2.1813
  112OSM   H14G11699   2.130   4.901   9.057  1.5818 -0.0688  1.4639
  112OSM   C15F11700   2.108   5.080   8.931  0.0555 -0.1321 -0.2251
  112OSM   H15F11701   2.208   5.060   8.888  0.4460  0.0740  0.5667
  112OSM   H15G11702   2.104   5.188   8.956 -1.7436 -0.0784 -0.6185
  112OSM   C16F11703   1.999   5.033   8.833 -0.2200  0.3376  0.8151
  112OSM   H16F11704   1.900   5.083   8.833  0.8786  2.6423 -0.0708
  112OSM   H16G11705   1.985   4.922   8.834  2.0503 -0.0180 -0.0591
  112OSM   C17F11706   2.058   5.075   8.695 -0.6204 -0.1763 -0.6382
  112OSM   H17F11707   2.163   5.041   8.681 -0.8100 -0.9701 -0.1755
  112OSM   H17G11708   2.063   5.186   8.691  1.6923 -0.2064  0.1610
  112OSM   C18F11709   1.979   5.010   8.575  0.9164 -0.4117 -0.1753
  112OSM   H18F11710   1.987   4.900   8.580  1.7956 -0.3149  1.1811
  112OSM   H18G11711   2.007   5.049   8.475 -0.4924  0.6613 -0.1882
  112OSM   H18H11712   1.872   5.034   8.593  0.4719 -2.7810  0.7110
  113OSM      N11713   5.178   2.592  11.176  0.1381 -0.4227 -0.6811
  113OSM    C1511714   5.034   2.614  11.204 -0.2310  0.2598  0.4838
  113OSM   H15A11715   5.007   2.544  11.281  2.3264 -1.1518  0.2218
  113OSM   H15B11716   4.976   2.588  11.117 -1.0211 -0.8917  1.3219
  113OSM   H15C11717   5.011   2.715  11.236  0.7225  0.3022  1.0828
  113OSM    C1411718   5.265   2.635  11.292  0.1015  0.0437 -0.3537
  113OSM   H14A11719   5.235   2.575  11.377 -4.4865  2.0694 -0.2841
  113OSM   H14B11720   5.251   2.739  11.316  0.5372 -0.0257  0.2250
  113OSM   H14C11721   5.370   2.620  11.271  0.5428 -0.1909  1.7574
  113OSM    C1311722   5.203   2.446  11.172 -0.4789 -0.5438 -0.3944
  113OSM   H13A11723   5.303   2.417  11.144 -0.3625 -0.0630 -0.4737
  113OSM   H13B11724   5.139   2.392  11.103 -1.0219 -0.2202 -0.1523
  113OSM   H13C11725   5.198   2.403  11.271  2.8517  1.1891  0.6715
  113OSM    C1211726   5.221   2.671  11.053  0.0841 -0.3490  0.0841
  113OSM   H12A11727   5.177   2.770  11.057 -0.9066 -0.6227 -2.2872
  113OSM   H12B11728   5.170   2.615  10.976 -2.9125 -0.0663  1.6992
  113OSM    C1111729   5.369   2.674  11.010 -0.0286  0.5922 -0.7715
  113OSM   H11A11730   5.377   2.675  10.899 -1.7001  1.5356 -0.9043
  113OSM   H11B11731   5.406   2.575  11.044 -1.3560  0.1948 -0.4494
  113OSM      P11732   5.591   2.812  11.071 -0.0936  0.4104 -0.4931
  113OSM    O1311733   5.607   2.959  11.113  0.1991  0.9897  0.6742
  113OSM    O1411734   5.664   2.703  11.145  0.1430 -0.0235  0.3260
  113OSM    O1111735   5.632   2.804  10.921 -0.3443  0.0661  0.0522
  113OSM    O1211736   5.435   2.794  11.063  0.3708  0.0045 -0.6925
  113OSM    C1S11737   5.692   2.683  10.868  0.1228  0.5300 -0.2032
  113OSM    H1S11738   5.654   2.591  10.917  0.2809 -0.5699 -2.0682
  113OSM    H1T11739   5.802   2.686  10.858  0.1183 -0.9929 -0.8396
  113OSM     NF11740   5.638   2.514  10.681 -0.5758 -0.3892 -0.3033
  113OSM    HNF11741   5.714   2.486  10.623  0.1744 -0.5825  0.7460
  113OSM    C2S11742   5.638   2.653  10.722  0.5785  0.0916  0.2113
  113OSM    H2S11743   5.532   2.684  10.727  1.4330  3.4080  0.1119
  113OSM    C3S11744   5.715   2.744  10.618  0.0506  0.4403 -0.2579
  113OSM    H3S11745   5.818   2.703  10.623 -1.8076 -4.8178  2.6332
  113OSM     O311746   5.702   2.876  10.669  0.4928 -0.4765 -0.2614
  113OSM    HO311747   5.691   2.868  10.764 -2.1382  2.9985 -0.1058
  113OSM    C4S11748   5.663   2.737  10.475  0.0617  0.7326 -0.7498
  113OSM    H4S11749   5.687   2.639  10.429  0.3523 -0.5726  1.9824
  113OSM    C5S11750   5.615   2.837  10.398  0.0582  0.7585 -0.0606
  113OSM    H5S11751   5.602   2.939  10.438 -0.4034  0.1861  1.3178
  113OSM    C6S11752   5.583   2.808  10.252  0.0001 -0.1768 -0.4658
  113OSM    H6S11753   5.496   2.872  10.226 -0.1401  0.3796  1.2658
  113OSM    H6T11754   5.562   2.700  10.239  0.5584 -0.3327 -0.0860
  113OSM    C7S11755   5.694   2.839  10.159 -0.4768  0.6848 -0.6613
  113OSM    H7S11756   5.790   2.805  10.204 -0.9690 -1.4367 -1.0886
  113OSM    H7T11757   5.701   2.950  10.164  1.7960  0.5335  1.2790
  113OSM    C8S11758   5.673   2.782  10.020 -0.2759 -0.2180 -0.7548
  113OSM    H8S11759   5.567   2.806   9.997 -0.0641  0.4329 -1.0679
  113OSM    H8T11760   5.677   2.671  10.020  0.8168 -0.1942 -0.2270
  113OSM    C9S11761   5.761   2.837   9.912  0.2327 -0.6574 -0.1843
  113OSM    H9S11762   5.866   2.805   9.926  0.2416 -0.5281  0.0512
  113OSM    H9T11763   5.760   2.947   9.923 -0.1283 -0.6322 -0.4539
  113OSM   C10S11764   5.714   2.800   9.773  0.1963 -0.3653  0.1308
  113OSM   H10S11765   5.619   2.852   9.749 -0.4455 -2.3474 -1.9208
  113OSM   H10T11766   5.691   2.691   9.767 -1.8213  0.0117  0.4309
  113OSM   C11S11767   5.813   2.827   9.662 -0.5463 -0.0442 -0.0469
  113OSM   H11S11768   5.911   2.779   9.681  0.2554  1.0794 -1.1686
  113OSM   H11T11769   5.836   2.936   9.665  0.8352 -0.3383  1.5046
  113OSM   C12S11770   5.767   2.785   9.518 -0.4279 -0.7505  0.5445
  113OSM   H12S11771   5.667   2.833   9.511 -1.3739 -2.6160  0.7054
  113OSM   H12T11772   5.745   2.676   9.523  1.2236 -1.0551  2.2529
  113OSM   C13S11773   5.855   2.830   9.407  0.7198 -0.3623 -0.0086
  113OSM   H13S11774   5.957   2.798   9.435  0.5620  0.0928  1.1366
  113OSM   H13T11775   5.859   2.941   9.397  2.5864 -0.1272  2.5903
  113OSM   C14S11776   5.826   2.757   9.280  0.2022 -0.1810 -0.2073
  113OSM   H14S11777   5.726   2.790   9.243 -0.5073 -2.3689 -0.3552
  113OSM   H14T11778   5.810   2.648   9.297 -0.3378 -0.2603 -1.1453
  113OSM   C15S11779   5.925   2.792   9.165 -0.5762 -0.0929  0.5028
  113OSM   H15S11780   6.025   2.745   9.178 -0.1366  0.7776  0.3257
  113OSM   H15T11781   5.944   2.901   9.166  0.0769  0.0246 -4.0315
  113OSM   C16S11782   5.880   2.763   9.020  0.1090  0.5871  0.1093
  113OSM   H16S11783   5.785   2.820   9.010  0.3765  0.9344 -0.4809
  113OSM   H16T11784   5.864   2.655   9.001  2.7710  0.1300  0.0789
  113OSM   C17S11785   5.976   2.810   8.912  0.0824  0.1701  0.2981
  113OSM   H17S11786   6.074   2.757   8.913 -0.0038 -0.2596 -2.9457
  113OSM   H17T11787   6.023   2.909   8.931  2.6152  0.2368 -4.6356
  113OSM   C18S11788   5.915   2.817   8.768 -0.3616 -0.0301  0.2551
  113OSM   H18S11789   5.913   2.709   8.741 -0.7347 -0.1794  0.8627
  113OSM   H18T11790   5.978   2.876   8.698 -0.9038 -0.0308 -0.2426
  113OSM   H18U11791   5.816   2.867   8.771 -0.0179  0.6691  0.1391
  113OSM    C1F11792   5.561   2.413  10.734 -0.0345 -0.8029 -0.8037
  113OSM     OF11793   5.464   2.444  10.798  0.1415  0.2685 -0.8127
  113OSM    C2F11794   5.586   2.283  10.701 -0.3382  0.3676  0.4398
  113OSM    H2F11795   5.564   2.208  10.781  0.2287 -1.1906 -0.8067
  113OSM    H2G11796   5.695   2.272  10.683  0.1003  2.3345  1.6398
  113OSM    C3F11797   5.506   2.236  10.580 -0.1589  0.2897 -0.0027
  113OSM    H3F11798   5.402   2.257  10.614  0.3479  2.8987  0.1099
  113OSM    H3G11799   5.531   2.129  10.562 -1.0459 -0.1982  1.4854
  113OSM    C4F11800   5.523   2.313  10.452  0.5003 -0.5317  0.7257
  113OSM    H4F11801   5.627   2.288  10.420 -0.4704 -1.9089 -1.6661
  113OSM    H4G11802   5.502   2.421  10.459  1.7709 -0.2855  1.0477
  113OSM    C5F11803   5.441   2.259  10.333 -0.3308 -0.0677 -0.5182
  113OSM    H5F11804   5.334   2.287  10.344  0.3736  2.4436  0.6696
  113OSM    H5G11805   5.440   2.148  10.323 -1.6061 -0.0513 -0.7436
  113OSM    C6F11806   5.517   2.306  10.207 -0.6596 -0.6034 -0.0222
  113OSM    H6F11807   5.621   2.268  10.204 -0.7972 -0.9131 -1.2760
  113OSM    H6G11808   5.518   2.417  10.213 -0.2953 -0.5564 -0.8434
  113OSM    C7F11809   5.442   2.280  10.071 -0.2372 -0.2457  0.0000
  113OSM    H7F11810   5.335   2.306  10.084  0.3950  1.7277  1.9067
  113OSM    H7G11811   5.456   2.170  10.064  0.4822 -0.3335  2.1064
  113OSM    C8F11812   5.491   2.355   9.944  0.6618 -0.4749  0.2065
  113OSM    H8F11813   5.543   2.446   9.981  0.2942  0.3914 -1.3128
  113OSM    H8G11814   5.401   2.389   9.889  1.2508  0.1249 -0.3951
  113OSM    C9F11815   5.596   2.298   9.857 -0.3081  0.6809 -0.4510
  113OSM    H9F11816   5.694   2.275   9.901 -0.7852  0.2910  0.4169
  113OSM   C10F11817   5.592   2.281   9.722  0.0496  0.6019 -0.4152
  113OSM   H10F11818   5.677   2.242   9.664 -0.3314  0.8367 -1.1428
  113OSM   C11F11819   5.481   2.322   9.628  0.8229  0.0420  0.3090
  113OSM   H11F11820   5.403   2.383   9.679  0.5519  1.3534 -1.5298
  113OSM   H11G11821   5.427   2.228   9.604 -0.4946  0.3638  1.8834
  113OSM   C12F11822   5.514   2.399   9.498  0.5400 -0.3718  0.0514
  113OSM   H12F11823   5.599   2.468   9.516 -0.8540  0.8021  2.8051
  113OSM   H12G11824   5.430   2.465   9.468  0.1839 -0.2063  1.3490
  113OSM   C13F11825   5.531   2.296   9.383  0.4893  0.5222  0.2852
  113OSM   H13F11826   5.434   2.251   9.355  0.3874  0.8056  0.1701
  113OSM   H13G11827   5.602   2.212   9.401 -0.2777 -0.1405  0.2296
  113OSM   C14F11828   5.581   2.364   9.257 -0.2219  0.0183 -0.0882
  113OSM   H14F11829   5.687   2.396   9.267  0.9401 -2.6504 -2.4872
  113OSM   H14G11830   5.531   2.462   9.240 -0.1767  0.3318  1.4174
  113OSM   C15F11831   5.575   2.275   9.129  0.1370 -0.4057  0.6583
  113OSM   H15F11832   5.473   2.234   9.117  0.8533 -2.1429  0.2357
  113OSM   H15G11833   5.628   2.178   9.129 -1.8872 -1.6565 -1.9267
  113OSM   C16F11834   5.608   2.359   8.997 -0.1427 -0.2752 -0.3076
  113OSM   H16F11835   5.718   2.369   8.986  0.0405 -1.7327 -0.0317
  113OSM   H16G11836   5.564   2.461   9.011  0.4032 -0.1756  0.7879
  113OSM   C17F11837   5.525   2.300   8.881 -0.3541 -0.3104  0.1103
  113OSM   H17F11838   5.418   2.311   8.911 -0.6663  1.1542 -1.3643
  113OSM   H17G11839   5.556   2.194   8.887  1.3165  0.1090 -0.6675
  113OSM   C18F11840   5.558   2.360   8.749 -0.1462 -0.1395  0.0816
  113OSM   H18F11841   5.668   2.355   8.733 -0.1346 -0.2011  0.1867
  113OSM   H18G11842   5.526   2.467   8.748  2.8407  0.8972  1.7210
  113OSM   H18H11843   5.517   2.308   8.660  1.6015  1.8985 -2.0510
  114OSM      N11844   1.218   5.182  10.987  0.7693 -0.3846 -0.1059
  114OSM    C1511845   1.321   5.260  11.062 -0.2630  0.2344 -0.3074
  114OSM   H15A11846   1.420   5.247  11.022  0.2292 -1.4054  1.3457
  114OSM   H15B11847   1.326   5.237  11.168  2.8389 -1.6644 -0.7457
  114OSM   H15C11848   1.294   5.365  11.054 -2.3578 -0.2877 -0.6875
  114OSM    C1411849   1.081   5.185  11.048  0.1274  0.4545 -0.8319
  114OSM   H14A11850   1.071   5.129  11.139 -2.1382  0.4491 -1.0368
  114OSM   H14B11851   1.002   5.139  10.990 -1.2274  0.8333  0.6512
  114OSM   H14C11852   1.049   5.284  11.076 -1.4853 -0.5593  1.1368
  114OSM    C1311853   1.217   5.254  10.854  0.0361  0.0700  0.2157
  114OSM   H13A11854   1.313   5.253  10.805 -0.2108  1.5483 -0.3717
  114OSM   H13B11855   1.198   5.359  10.873 -0.6387  0.4107 -2.0854
  114OSM   H13C11856   1.136   5.232  10.787 -0.2481 -1.0330  0.8874
  114OSM    C1211857   1.261   5.043  10.975 -0.5972 -0.2830 -0.1941
  114OSM   H12A11858   1.256   4.990  11.070 -0.8232 -1.0763 -0.6392
  114OSM   H12B11859   1.361   5.054  10.938 -1.2409  3.0192 -1.2927
  114OSM    C1111860   1.169   4.962  10.873 -0.1872 -0.4405 -0.5757
  114OSM   H11A11861   1.217   4.865  10.849 -0.3043 -0.3477 -1.2058
  114OSM   H11B11862   1.168   5.010  10.773  2.9950 -3.7930 -2.5110
  114OSM      P11863   0.991   4.840  11.023  0.1970  0.1497 -0.0239
  114OSM    O1311864   1.100   4.758  11.065 -0.2016 -1.0288 -0.2823
  114OSM    O1411865   0.919   4.920  11.127 -0.0457  0.1831 -0.3576
  114OSM    O1111866   0.880   4.752  10.957 -0.6117  0.2280  0.2584
  114OSM    O1211867   1.035   4.939  10.916  0.6233 -0.4922 -0.0869
  114OSM    C1S11868   0.835   4.768  10.821  0.1553 -0.5652  0.7348
  114OSM    H1S11869   0.810   4.874  10.803 -0.2296 -0.8743 -0.6869
  114OSM    H1T11870   0.735   4.722  10.805 -0.1638  0.9981 -2.7242
  114OSM     NF11871   0.892   4.745  10.574 -0.0895 -0.1040 -0.3690
  114OSM    HNF11872   0.839   4.681  10.519 -1.2619  1.2864 -0.9264
  114OSM    C2S11873   0.931   4.706  10.706  0.0677  0.7482 -0.3300
  114OSM    H2S11874   1.020   4.770  10.724 -1.4974  2.5591  1.3840
  114OSM    C3S11875   0.960   4.556  10.717  0.1310 -0.1607 -0.0000
  114OSM    H3S11876   0.871   4.504  10.674 -0.8476  1.0104  0.5673
  114OSM     O311877   0.968   4.508  10.852  0.0455  0.3550  0.8600
  114OSM    HO311878   0.923   4.579  10.898  2.2715  2.0525  0.5985
  114OSM    C4S11879   1.080   4.524  10.640 -0.5292 -0.6224  0.0990
  114OSM    H4S11880   1.164   4.584  10.679 -1.2464 -0.1436  0.9537
  114OSM    C5S11881   1.095   4.432  10.542 -0.9666  0.1800 -0.2249
  114OSM    H5S11882   1.018   4.356  10.524  0.3170 -1.2360  0.0288
  114OSM    C6S11883   1.223   4.403  10.469 -0.1587 -0.8408 -0.9482
  114OSM    H6S11884   1.243   4.293  10.468 -1.0056 -1.1711  2.9512
  114OSM    H6T11885   1.307   4.468  10.502  0.6752 -1.8721 -0.9843
  114OSM    C7S11886   1.194   4.439  10.317  0.1826  1.0763 -0.3653
  114OSM    H7S11887   1.162   4.543  10.298 -2.3714  0.5397  0.6232
  114OSM    H7T11888   1.109   4.375  10.287  0.9722 -0.2611  0.1562
  114OSM    C8S11889   1.308   4.411  10.211 -0.2771 -0.3584 -0.2473
  114OSM    H8S11890   1.331   4.303  10.226  2.5127  0.1469 -0.4682
  114OSM    H8T11891   1.388   4.485  10.229 -1.5860  1.1764 -0.5233
  114OSM    C9S11892   1.258   4.419  10.062 -0.4019  0.5725 -0.1418
  114OSM    H9S11893   1.215   4.521  10.053  1.0090  1.0340 -2.6818
  114OSM    H9T11894   1.180   4.342  10.045  0.3921 -0.4314  0.6369
  114OSM   C10S11895   1.363   4.412   9.958 -0.0658 -0.1100  0.7078
  114OSM   H10S11896   1.423   4.320   9.977  0.7008  0.4775  1.2216
  114OSM   H10T11897   1.429   4.501   9.966  1.4348 -1.2076  1.0055
  114OSM   C11S11898   1.310   4.403   9.810 -0.0457 -0.3661 -0.0497
  114OSM   H11S11899   1.247   4.494   9.798  0.3767 -0.1557 -0.7142
  114OSM   H11T11900   1.239   4.317   9.810 -2.1334  1.2547  0.2384
  114OSM   C12S11901   1.418   4.400   9.707  0.0118 -0.0886 -0.3166
  114OSM   H12S11902   1.491   4.318   9.724  0.4492 -0.0884 -2.0046
  114OSM   H12T11903   1.466   4.501   9.704  3.4536 -1.5899 -0.2959
  114OSM   C13S11904   1.357   4.386   9.569 -0.1401  0.4092 -0.3680
  114OSM   H13S11905   1.278   4.463   9.559 -0.8579 -0.4239 -1.2671
  114OSM   H13T11906   1.313   4.287   9.546 -1.0177  0.8274 -0.5264
  114OSM   C14S11907   1.458   4.420   9.454  0.2498  0.1560 -0.2959
  114OSM   H14S11908   1.535   4.340   9.459  0.8480  0.7500  0.1877
  114OSM   H14T11909   1.510   4.515   9.479 -0.9318  0.6400  0.4250
  114OSM   C15S11910   1.395   4.421   9.318 -0.0070  0.6121  0.4337
  114OSM   H15S11911   1.332   4.512   9.308 -2.1545 -1.0276 -2.0310
  114OSM   H15T11912   1.330   4.334   9.300  0.0377  1.1582 -2.8654
  114OSM   C16S11913   1.513   4.432   9.212  0.0016  0.9600  0.2216
  114OSM   H16S11914   1.543   4.327   9.190 -2.5805 -0.0057  0.9098
  114OSM   H16T11915   1.603   4.488   9.245  0.3076 -0.3456  1.6818
  114OSM   C17S11916   1.475   4.487   9.072 -0.6187  0.1541  0.5489
  114OSM   H17S11917   1.433   4.589   9.078 -1.0495  0.0695 -0.7190
  114OSM   H17T11918   1.392   4.426   9.030  0.0486 -0.8067  0.5722
  114OSM   C18S11919   1.588   4.479   8.970 -0.1869 -0.4588 -0.9269
  114OSM   H18S11920   1.616   4.373   8.953 -0.9084 -1.0008  0.9806
  114OSM   H18T11921   1.683   4.525   9.003  1.3558 -2.1066 -2.8396
  114OSM   H18U11922   1.568   4.530   8.873  0.6659  2.0498  0.1532
  114OSM    C1F11923   0.901   4.871  10.524  0.2919 -0.3769  0.0660
  114OSM     OF11924   0.969   4.957  10.578  0.2880 -0.5089 -0.7253
  114OSM    C2F11925   0.841   4.893  10.390 -0.4694 -0.2759 -0.2558
  114OSM    H2F11926   0.769   4.976  10.407 -0.4632 -0.1869 -0.6500
  114OSM    H2G11927   0.795   4.806  10.339 -0.0000  0.3693 -1.8602
  114OSM    C3F11928   0.955   4.951  10.298 -0.1276 -0.0355 -0.3725
  114OSM    H3F11929   1.054   4.902  10.307  0.6164  1.5205  0.2934
  114OSM    H3G11930   0.958   5.061  10.311 -1.4940  0.0567 -0.6776
  114OSM    C4F11931   0.920   4.931  10.152 -0.2055  0.5534  0.5645
  114OSM    H4F11932   0.914   4.821  10.135 -0.8327  0.7598 -0.6289
  114OSM    H4G11933   1.004   4.967  10.089  0.5448 -0.8476  0.7318
  114OSM    C5F11934   0.792   4.994  10.114 -0.3468  1.2201  0.1119
  114OSM    H5F11935   0.794   5.105  10.123 -2.1584  1.1956  1.2946
  114OSM    H5G11936   0.717   4.950  10.184 -1.4637  0.1088 -1.7049
  114OSM    C6F11937   0.743   4.959   9.971  1.1173  0.4591 -0.3915
  114OSM    H6F11938   0.635   4.981   9.956  0.6634 -1.3848 -0.1553
  114OSM    H6G11939   0.741   4.848   9.962 -1.3784  0.4529 -0.3677
  114OSM    C7F11940   0.830   5.023   9.864  0.0172 -0.7558  1.1307
  114OSM    H7F11941   0.932   4.980   9.872 -0.0597 -0.8728  1.5396
  114OSM    H7G11942   0.844   5.130   9.891 -1.0426 -0.5784  1.0215
  114OSM    C8F11943   0.780   5.031   9.720  0.8549  0.2991 -0.4628
  114OSM    H8F11944   0.844   5.087   9.648 -0.7989  0.6006 -1.7520
  114OSM    H8G11945   0.680   5.079   9.726  1.3744  1.2025  3.7348
  114OSM    C9F11946   0.764   4.890   9.674 -0.1173 -0.0795  0.5217
  114OSM    H9F11947   0.747   4.818   9.755  0.5779  0.3505  1.0610
  114OSM   C10F11948   0.761   4.847   9.543 -0.4140  0.2531 -0.0918
  114OSM   H10F11949   0.733   4.741   9.535  0.5706  0.0208 -0.6731
  114OSM   C11F11950   0.767   4.929   9.416  0.5302 -0.2323 -1.3645
  114OSM   H11F11951   0.838   5.012   9.433  0.5394 -0.5786  0.5684
  114OSM   H11G11952   0.663   4.956   9.390  0.0597 -1.0838 -0.4490
  114OSM   C12F11953   0.820   4.849   9.302 -0.4004  0.5162  0.2818
  114OSM   H12F11954   0.779   4.746   9.302  0.4970  0.0925 -2.5440
  114OSM   H12G11955   0.929   4.835   9.313 -0.3776  0.2180 -0.3010
  114OSM   C13F11956   0.768   4.911   9.169 -1.1038  0.0879  0.5345
  114OSM   H13F11957   0.773   5.019   9.197 -0.4023  0.1044  0.3558
  114OSM   H13G11958   0.663   4.881   9.146 -1.2950  1.0225  0.1447
  114OSM   C14F11959   0.869   4.880   9.059 -0.1558  0.9644  0.6272
  114OSM   H14F11960   0.876   4.770   9.044  2.9635  1.3899 -2.3771
  114OSM   H14G11961   0.967   4.924   9.089  1.3411 -1.4709 -0.3909
  114OSM   C15F11962   0.822   4.933   8.928 -0.3907  0.5985  0.3132
  114OSM   H15F11963   0.831   5.044   8.928 -0.7982  0.6393  1.1080
  114OSM   H15G11964   0.713   4.911   8.928 -0.5425  1.2919  0.9379
  114OSM   C16F11965   0.898   4.870   8.810 -0.1370 -0.1042 -0.0296
  114OSM   H16F11966   0.892   4.762   8.835 -1.9319 -0.5089 -1.9226
  114OSM   H16G11967   0.999   4.915   8.817 -0.4198  0.6231 -0.4802
  114OSM   C17F11968   0.825   4.883   8.670  0.3213 -0.1594 -0.3124
  114OSM   H17F11969   0.814   4.989   8.638  0.2243 -0.9272 -3.0827
  114OSM   H17G11970   0.726   4.834   8.679 -1.5609  3.2409 -0.7599
  114OSM   C18F11971   0.893   4.790   8.562 -0.3354 -0.0272 -0.5034
  114OSM   H18F11972   0.850   4.687   8.566 -2.4032  0.7884 -0.2489
  114OSM   H18G11973   1.003   4.794   8.576 -0.2764 -0.2520 -0.8930
  114OSM   H18H11974   0.864   4.830   8.463  0.5908 -0.7535 -1.0783
  115OSM      N11975   4.401   5.143  11.314  0.1704 -0.3674  0.2995
  115OSM    C1511976   4.282   5.050  11.295 -0.4900 -0.0363 -0.2097
  115OSM   H15A11977   4.197   5.108  11.326 -0.5073 -0.5102  0.6522
  115OSM   H15B11978   4.295   4.966  11.363  1.0103  0.7153  0.4713
  115OSM   H15C11979   4.261   5.007  11.198 -0.9490  1.0541 -0.6050
  115OSM    C1411980   4.396   5.229  11.432  0.2217  0.5056  0.1788
  115OSM   H14A11981   4.304   5.285  11.436 -1.0287 -1.5241  1.6320
  115OSM   H14B11982   4.481   5.293  11.415  1.1954 -1.0805 -1.3286
  115OSM   H14C11983   4.392   5.171  11.523  2.0894  0.2110  0.1092
  115OSM    C1311984   4.523   5.052  11.316  0.2713 -0.4584  0.3511
  115OSM   H13A11985   4.523   4.982  11.233 -0.7363 -1.3169  1.0457
  115OSM   H13B11986   4.518   4.986  11.401  2.0534  0.3289  1.1240
  115OSM   H13C11987   4.615   5.107  11.323  0.2168 -0.5633  2.5754
  115OSM    C1211988   4.403   5.237  11.196 -0.4032 -0.2452 -0.7539
  115OSM   H12A11989   4.491   5.298  11.208 -0.3978 -0.5048  0.6541
  115OSM   H12B11990   4.326   5.312  11.207  0.0515  0.4064 -1.7968
  115OSM    C1111991   4.439   5.180  11.051 -0.1550 -0.3392  0.0626
  115OSM   H11A11992   4.419   5.251  10.969 -0.4440 -1.5557 -0.9616
  115OSM   H11B11993   4.368   5.095  11.039 -1.3666  0.4726  1.2664
  115OSM      P11994   4.686   5.240  11.032 -0.6098  0.2509 -0.2172
  115OSM    O1311995   4.651   5.364  11.106  0.3725  0.2960 -0.2207
  115OSM    O1411996   4.819   5.182  11.051 -0.4852 -0.0098 -0.4522
  115OSM    O1111997   4.683   5.259  10.875  0.1647 -0.3172  0.1389
  115OSM    O1211998   4.574   5.127  11.047  0.0811  0.4649 -0.0252
  115OSM    C1S11999   4.726   5.163  10.782  0.2506  0.1400 -0.4127
  115OSM    H1S12000   4.644   5.089  10.769 -1.7606  2.2806 -0.5590
  115OSM    H1T12001   4.821   5.114  10.814  1.9498  2.9992 -0.6833
  115OSM     NF12002   4.819   5.118  10.560 -0.3069 -0.1476 -0.1847
  115OSM    HNF12003   4.915   5.099  10.543 -0.6385 -1.1553 -1.0973
  115OSM    C2S12004   4.772   5.222  10.643  0.3123 -0.3644  0.7888
  115OSM    H2S12005   4.677   5.265  10.606  0.2345 -0.5374  0.7876
  115OSM    C3S12006   4.872   5.331  10.655 -0.3799 -1.5036 -0.1493
  115OSM    H3S12007   4.973   5.293  10.680  1.0642  1.0917 -1.5718
  115OSM     O312008   4.844   5.439  10.746 -0.2647  0.2835  0.1040
  115OSM    HO312009   4.793   5.390  10.810  1.3807 -0.4367  0.9355
  115OSM    C4S12010   4.883   5.392  10.522  0.4599 -0.1530 -0.2673
  115OSM    H4S12011   4.795   5.452  10.495 -0.3163 -1.0325  0.2612
  115OSM    C5S12012   4.986   5.382  10.436  0.0086 -0.8848 -0.0567
  115OSM    H5S12013   5.062   5.309  10.468 -0.5837 -0.7158  1.8378
  115OSM    C6S12014   4.989   5.444  10.296  0.0326  0.1529  0.1784
  115OSM    H6S12015   5.032   5.365  10.232 -0.6285  0.3295 -0.5043
  115OSM    H6T12016   5.050   5.534  10.274 -2.4277  1.6982 -0.7619
  115OSM    C7S12017   4.848   5.460  10.227 -0.2045  0.5263 -0.3461
  115OSM    H7S12018   4.778   5.530  10.278 -1.3696 -1.2271  0.5384
  115OSM    H7T12019   4.804   5.359  10.242  0.0353  0.5970  0.9406
  115OSM    C8S12020   4.863   5.481  10.075  0.0383 -0.1936 -0.4696
  115OSM    H8S12021   4.760   5.465  10.035 -0.2939  0.8024 -0.0425
  115OSM    H8T12022   4.931   5.406  10.029  1.6336  0.5104  0.6666
  115OSM    C9S12023   4.905   5.624  10.028  0.6118 -0.2838 -0.2900
  115OSM    H9S12024   5.004   5.649  10.071 -0.1389  2.0106  0.2653
  115OSM    H9T12025   4.835   5.706  10.058  0.3294 -0.5477 -0.2216
  115OSM   C10S12026   4.900   5.616   9.872 -0.8238 -0.9190  0.0359
  115OSM   H10S12027   4.797   5.605   9.832 -0.9294  0.0568  0.0039
  115OSM   H10T12028   4.968   5.538   9.832 -0.6084 -0.4499 -0.5420
  115OSM   C11S12029   4.953   5.751   9.816  0.7637 -0.2748 -0.2567
  115OSM   H11S12030   5.057   5.765   9.850 -0.5959 -0.1038  4.4939
  115OSM   H11T12031   4.895   5.834   9.860  1.7014  0.4190 -0.3087
  115OSM   C12S12032   4.943   5.762   9.667 -0.3642 -0.0977  0.3182
  115OSM   H12S12033   4.997   5.856   9.643  1.2439 -1.2403 -0.8055
  115OSM   H12T12034   4.838   5.775   9.634  0.1455 -1.2902 -1.9493
  115OSM   C13S12035   5.007   5.654   9.580  0.5383  0.9732 -0.0706
  115OSM   H13S12036   4.942   5.564   9.585  1.2185  0.2748 -2.4461
  115OSM   H13T12037   5.112   5.632   9.611  0.3447 -1.3762 -0.8580
  115OSM   C14S12038   5.035   5.687   9.433  0.5628  0.3540 -0.0801
  115OSM   H14S12039   5.111   5.766   9.419  0.2878  0.5405 -0.5428
  115OSM   H14T12040   4.944   5.722   9.380  0.2543 -0.1079  0.1311
  115OSM   C15S12041   5.104   5.576   9.353  0.0052 -0.0039 -0.0787
  115OSM   H15S12042   5.025   5.497   9.350  1.2790 -1.3981  1.1819
  115OSM   H15T12043   5.196   5.534   9.398  0.5353 -0.5228 -1.5724
  115OSM   C16S12044   5.130   5.619   9.212 -0.1403 -0.1690  0.3139
  115OSM   H16S12045   5.199   5.706   9.221 -0.9386  0.5098  0.0309
  115OSM   H16T12046   5.031   5.656   9.178 -0.8678 -2.4887 -0.2472
  115OSM   C17S12047   5.194   5.510   9.122  0.3959 -0.1200 -0.6838
  115OSM   H17S12048   5.141   5.414   9.143  0.5144 -0.1977 -0.7411
  115OSM   H17T12049   5.304   5.502   9.134  0.7079  0.5495 -2.6826
  115OSM   C18S12050   5.176   5.528   8.973 -0.3773  0.3197  0.1840
  115OSM   H18S12051   5.072   5.557   8.950 -0.2241  0.7261 -0.0198
  115OSM   H18T12052   5.207   5.439   8.914 -0.7488 -0.8419  1.6717
  115OSM   H18U12053   5.245   5.603   8.930 -0.2013 -0.4531 -0.9178
  115OSM    C1F12054   4.735   5.038  10.496 -0.1326  0.9873  0.0717
  115OSM     OF12055   4.610   5.035  10.512 -0.1417 -0.0511 -0.2059
  115OSM    C2F12056   4.790   4.937  10.405  0.4380 -0.0377  0.1171
  115OSM    H2F12057   4.718   4.852  10.406 -1.4153  1.4787 -0.3614
  115OSM    H2G12058   4.889   4.900  10.441 -0.6458 -2.9420  0.3894
  115OSM    C3F12059   4.805   4.993  10.264  0.3838  0.4982  0.0726
  115OSM    H3F12060   4.909   5.027  10.244 -0.0284  0.9903 -1.3609
  115OSM    H3G12061   4.747   5.085  10.239  1.5154  0.9844 -0.8584
  115OSM    C4F12062   4.764   4.899  10.155  0.6373  0.5466 -0.3977
  115OSM    H4F12063   4.653   4.898  10.159  0.5969  0.8845 -1.2784
  115OSM    H4G12064   4.794   4.798  10.193  2.2790  1.2550  0.2769
  115OSM    C5F12065   4.821   4.934  10.021 -0.0892  0.1056  0.1937
  115OSM    H5F12066   4.804   4.847   9.955 -1.5332 -1.0097  1.9428
  115OSM    H5G12067   4.931   4.938  10.036  0.1916 -0.7326 -1.3913
  115OSM    C6F12068   4.761   5.067   9.966  0.5306  0.3198  0.0469
  115OSM    H6F12069   4.782   5.152  10.033 -2.2844  1.1243  0.0455
  115OSM    H6G12070   4.650   5.059   9.968  0.5094  0.1564 -1.1713
  115OSM    C7F12071   4.796   5.086   9.819 -0.3785  0.3611  0.0180
  115OSM    H7F12072   4.707   5.120   9.761 -1.0089  1.1197  1.3823
  115OSM    H7G12073   4.831   4.991   9.774  0.8690  1.2334 -0.9325
  115OSM    C8F12074   4.905   5.191   9.803 -0.2960  0.5981  0.1411
  115OSM    H8F12075   4.866   5.286   9.846  1.8035 -0.0298  3.7972
  115OSM    H8G12076   4.920   5.210   9.694 -0.2949  0.4575  0.1175
  115OSM    C9F12077   5.037   5.143   9.859 -0.2299 -1.3891 -0.4666
  115OSM    H9F12078   5.034   5.053   9.921 -0.6267  0.1178  1.8237
  115OSM   C10F12079   5.164   5.180   9.821 -0.4915 -0.0273  0.1982
  115OSM   H10F12080   5.250   5.136   9.873  1.1148  2.7917  0.0994
  115OSM   C11F12081   5.203   5.275   9.715 -0.5490  0.6733 -0.2309
  115OSM   H11F12082   5.291   5.334   9.747  0.3412 -1.3731  1.2984
  115OSM   H11G12083   5.129   5.354   9.688 -0.8301  0.5958  0.2993
  115OSM   C12F12084   5.257   5.201   9.591  0.2063 -0.4885 -0.0074
  115OSM   H12F12085   5.183   5.120   9.575 -2.4552  1.4044  1.7954
  115OSM   H12G12086   5.350   5.147   9.618 -0.1489 -1.0336  0.1366
  115OSM   C13F12087   5.257   5.279   9.456 -0.1198  0.7933 -0.3234
  115OSM   H13F12088   5.305   5.377   9.476 -0.5049  1.0946 -0.8767
  115OSM   H13G12089   5.153   5.288   9.419 -1.3977 -0.0660  2.7245
  115OSM   C14F12090   5.348   5.203   9.364 -0.6090  0.6079  0.3174
  115OSM   H14F12091   5.445   5.181   9.414 -0.1674  3.4442  0.8741
  115OSM   H14G12092   5.368   5.281   9.287  0.5080  0.8462  0.8233
  115OSM   C15F12093   5.274   5.080   9.297 -0.2843  0.0045  0.1836
  115OSM   H15F12094   5.181   5.063   9.354 -1.4488 -3.1846 -2.3416
  115OSM   H15G12095   5.339   4.990   9.298  1.3321  1.1024 -0.4282
  115OSM   C16F12096   5.226   5.121   9.156  0.1388 -0.5136 -0.1641
  115OSM   H16F12097   5.295   5.103   9.071 -1.4880 -0.0644 -1.6320
  115OSM   H16G12098   5.199   5.228   9.162 -1.1751 -0.8200 -0.3526
  115OSM   C17F12099   5.104   5.049   9.102  0.3658  0.1337 -0.3692
  115OSM   H17F12100   5.072   5.114   9.018 -0.4785  0.1757 -0.0212
  115OSM   H17G12101   5.031   5.038   9.185  0.3263  1.3764 -0.2225
  115OSM   C18F12102   5.133   4.904   9.049  0.9372  0.0462  0.1469
  115OSM   H18F12103   5.036   4.853   9.029  1.2083 -1.1167  1.6467
  115OSM   H18G12104   5.196   4.841   9.115  1.3590 -1.0222 -1.2213
  115OSM   H18H12105   5.181   4.921   8.950  0.8041 -1.5814 -0.2423
  116OSM      N12106   5.765   6.256  10.957  0.6283 -0.1316  0.0933
  116OSM    C1512107   5.738   6.124  10.908 -0.1556 -0.0734  0.3234
  116OSM   H15A12108   5.665   6.071  10.968  0.2454 -2.1635 -0.9513
  116OSM   H15B12109   5.834   6.078  10.894 -1.1536 -2.2939  0.4645
  116OSM   H15C12110   5.688   6.132  10.813  0.9559 -2.7472 -0.5742
  116OSM    C1412111   5.634   6.325  10.957  0.2395 -0.2445 -0.3257
  116OSM   H14A12112   5.572   6.296  11.041  1.8646 -0.7264  0.7581
  116OSM   H14B12113   5.576   6.308  10.868  0.2229 -2.0408  0.0011
  116OSM   H14C12114   5.639   6.429  10.985 -0.0962 -0.7239  1.7219
  116OSM    C1312115   5.823   6.250  11.096  0.7919 -0.2204 -0.8777
  116OSM   H13A12116   5.921   6.206  11.087  0.5584 -1.9006  2.9995
  116OSM   H13B12117   5.760   6.184  11.154 -0.6122 -0.7762 -2.9118
  116OSM   H13C12118   5.827   6.349  11.138 -0.1479 -0.2975 -0.5791
  116OSM    C1212119   5.860   6.333  10.872 -0.3122 -0.0842  0.1763
  116OSM   H12A12120   5.859   6.437  10.898 -1.1156 -0.3416  1.2562
  116OSM   H12B12121   5.810   6.338  10.776  0.9983  1.2263 -0.4696
  116OSM    C1112122   6.010   6.290  10.852 -0.4612  0.6388 -0.4309
  116OSM   H11A12123   6.051   6.358  10.774  0.5150  0.9118  0.2972
  116OSM   H11B12124   6.022   6.188  10.811 -0.9383  0.5839 -0.4367
  116OSM      P12125   6.182   6.219  11.037  0.3294  0.0743 -0.2253
  116OSM    O1312126   6.187   6.244  11.183  0.1450  0.4271  0.8322
  116OSM    O1412127   6.146   6.081  10.995  0.2803 -0.3983  0.0636
  116OSM    O1112128   6.319   6.269  10.963  1.1774 -0.3595 -0.6334
  116OSM    O1212129   6.077   6.310  10.976 -0.1177  0.2943  0.9039
  116OSM    C1S12130   6.383   6.191  10.868 -0.4485  0.0054  0.2346
  116OSM    H1S12131   6.361   6.082  10.874  0.6618 -0.1891  1.4039
  116OSM    H1T12132   6.492   6.196  10.892 -0.3532  1.1012 -0.3965
  116OSM     NF12133   6.444   6.149  10.637 -0.8199 -0.4172  0.2254
  116OSM    HNF12134   6.533   6.185  10.609 -0.9564  0.0410  0.3800
  116OSM    C2S12135   6.367   6.240  10.722  0.4033  0.1364 -0.8074
  116OSM    H2S12136   6.257   6.226  10.710  0.2119 -1.0983  1.5521
  116OSM    C3S12137   6.390   6.389  10.704  0.5336  0.0889  1.3818
  116OSM    H3S12138   6.494   6.405  10.742  0.1418 -1.1588  3.1097
  116OSM     O312139   6.304   6.469  10.772 -0.2258 -0.4630  0.0885
  116OSM    HO312140   6.257   6.419  10.839 -0.5260 -0.9240 -0.4569
  116OSM    C4S12141   6.386   6.440  10.559 -0.2326  0.3263 -0.0561
  116OSM    H4S12142   6.285   6.452  10.517 -0.7845  0.9776  1.3721
  116OSM    C5S12143   6.489   6.488  10.485 -0.5370 -0.5407  0.0905
  116OSM    H5S12144   6.588   6.480  10.534 -0.3427  0.9554 -0.0138
  116OSM    C6S12145   6.475   6.536  10.350 -0.2635 -0.4844  1.1020
  116OSM    H6S12146   6.537   6.627  10.336 -0.5899  0.0304  2.8613
  116OSM    H6T12147   6.370   6.564  10.326  0.5747  1.3093 -0.7797
  116OSM    C7S12148   6.529   6.434  10.241 -0.5597  0.0293 -0.5939
  116OSM    H7S12149   6.523   6.484  10.142 -2.3398 -0.4214 -0.7536
  116OSM    H7T12150   6.460   6.348  10.231  0.0876 -0.8934  2.1038
  116OSM    C8S12151   6.680   6.396  10.246  0.7564  0.2968 -0.0144
  116OSM    H8S12152   6.693   6.340  10.151  2.2353 -1.5964  1.2135
  116OSM    H8T12153   6.706   6.315  10.318  0.5292 -0.5391 -0.8410
  116OSM    C9S12154   6.787   6.512  10.240  0.5158 -0.3481  0.1870
  116OSM    H9S12155   6.880   6.465  10.277 -0.7178 -2.2430  1.0377
  116OSM    H9T12156   6.762   6.594  10.310  0.4747  1.3209 -1.6741
  116OSM   C10S12157   6.806   6.583  10.109 -0.5042  0.1691 -0.0860
  116OSM   H10S12158   6.872   6.672  10.123  0.1157 -0.2102 -0.5370
  116OSM   H10T12159   6.708   6.621  10.072 -0.0695  0.5743 -0.8375
  116OSM   C11S12160   6.861   6.489   9.997 -0.0117  0.1037  0.1234
  116OSM   H11S12161   6.783   6.412   9.979  0.9944 -1.2141  1.2355
  116OSM   H11T12162   6.953   6.449  10.043 -0.6682  2.4385  3.9220
  116OSM   C12S12163   6.904   6.564   9.867 -0.3157  0.0932 -1.0184
  116OSM   H12S12164   6.997   6.622   9.883 -0.0260 -0.6805  0.2429
  116OSM   H12T12165   6.839   6.654   9.856  1.2856  1.2602 -1.3096
  116OSM   C13S12166   6.907   6.481   9.747  0.6318 -0.0259  1.2430
  116OSM   H13S12167   6.803   6.453   9.721  0.5021 -1.0035  2.7108
  116OSM   H13T12168   6.958   6.388   9.780 -0.2510 -0.1219  2.3994
  116OSM   C14S12169   6.992   6.548   9.630  0.7434 -0.5643 -0.2357
  116OSM   H14S12170   7.099   6.557   9.660  1.2954  0.2975 -2.2717
  116OSM   H14T12171   6.946   6.649   9.625 -1.6352 -1.6468 -3.7357
  116OSM   C15S12172   6.974   6.477   9.498  0.0630 -0.5809  0.5898
  116OSM   H15S12173   6.872   6.470   9.456  1.0366  4.9127 -4.0128
  116OSM   H15T12174   7.010   6.373   9.508  0.2440 -0.6373 -0.4528
  116OSM   C16S12175   7.064   6.548   9.392  0.0758  0.0027 -0.2509
  116OSM   H16S12176   7.172   6.538   9.415 -0.2675 -1.5851  0.8724
  116OSM   H16T12177   7.016   6.648   9.385 -0.0528  0.0379  0.9291
  116OSM   C17S12178   7.041   6.479   9.254 -0.2500  0.0960 -0.1525
  116OSM   H17S12179   6.934   6.472   9.225 -0.5208  2.7277 -0.0520
  116OSM   H17T12180   7.076   6.373   9.250  1.2423  0.5640  0.0832
  116OSM   C18S12181   7.111   6.562   9.144 -0.4203 -0.0335  0.9552
  116OSM   H18S12182   7.083   6.670   9.142 -0.2418  0.0105  0.7769
  116OSM   H18T12183   7.069   6.524   9.049  0.8155  1.5835 -0.3006
  116OSM   H18U12184   7.221   6.548   9.143 -0.5952 -1.9971 -2.0137
  116OSM    C1F12185   6.418   6.024  10.605  0.5221 -0.0347  0.8860
  116OSM     OF12186   6.315   5.974  10.646  0.8611  0.6326 -0.9125
  116OSM    C2F12187   6.511   5.959  10.510  0.5920 -0.0646 -0.3815
  116OSM    H2F12188   6.599   5.909  10.555  1.0714  1.5315  0.5324
  116OSM    H2G12189   6.534   6.046  10.445 -2.0830  0.0408 -1.3016
  116OSM    C3F12190   6.441   5.852  10.421 -1.0786  0.1433  0.4944
  116OSM    H3F12191   6.349   5.901  10.382 -0.0924  1.9056  0.2903
  116OSM    H3G12192   6.411   5.756  10.469 -2.6679 -1.3138 -3.0553
  116OSM    C4F12193   6.536   5.816  10.304 -0.3106 -0.3210  0.4696
  116OSM    H4F12194   6.630   5.768  10.339  0.2104 -0.3883 -0.9659
  116OSM    H4G12195   6.564   5.910  10.254  1.4943 -1.0688  0.0130
  116OSM    C5F12196   6.472   5.727  10.198 -0.0068 -0.1973  0.0206
  116OSM    H5F12197   6.363   5.741  10.182 -0.2701 -0.3864  1.5316
  116OSM    H5G12198   6.476   5.621  10.230 -0.3252  0.0228  0.8240
  116OSM    C6F12199   6.553   5.745  10.073 -0.2958  0.2760  0.1249
  116OSM    H6F12200   6.657   5.712  10.089 -0.6796 -0.6727  0.7539
  116OSM    H6G12201   6.548   5.854  10.048  2.7360 -0.0145 -2.3106
  116OSM    C7F12202   6.486   5.675   9.950  0.9449  0.5124  0.9480
  116OSM    H7F12203   6.383   5.708   9.924  0.5134 -1.1734  0.4283
  116OSM    H7G12204   6.482   5.566   9.971 -2.3860  0.3874  0.2122
  116OSM    C8F12205   6.580   5.699   9.834  0.0956  0.6694 -0.0219
  116OSM    H8F12206   6.680   5.663   9.867  0.2948  0.1835 -1.1085
  116OSM    H8G12207   6.581   5.810   9.824 -0.0208  0.9257  2.2828
  116OSM    C9F12208   6.527   5.641   9.706  0.5196  0.0092  0.5805
  116OSM    H9F12209   6.577   5.548   9.675 -1.9375 -1.4106  0.5610
  116OSM   C10F12210   6.431   5.690   9.626  0.4929 -0.2673 -0.1916
  116OSM   H10F12211   6.402   5.636   9.535 -0.0724  1.8995 -1.3763
  116OSM   C11F12212   6.357   5.818   9.635 -0.2826 -0.7073 -0.0073
  116OSM   H11F12213   6.392   5.874   9.724 -1.8760 -0.9924  0.8423
  116OSM   H11G12214   6.250   5.798   9.656 -0.1446 -0.1556  1.2968
  116OSM   C12F12215   6.389   5.914   9.510  0.1427 -0.1426  0.6182
  116OSM   H12F12216   6.327   6.006   9.521 -2.2855 -1.4036 -1.4962
  116OSM   H12G12217   6.355   5.857   9.421 -0.4782  0.0518  0.7310
  116OSM   C13F12218   6.542   5.945   9.493 -0.4270 -0.2003  0.1992
  116OSM   H13F12219   6.597   5.855   9.459 -1.1826 -0.6035  0.0122
  116OSM   H13G12220   6.584   5.967   9.594  2.4621  0.7329 -1.1007
  116OSM   C14F12221   6.569   6.068   9.409  0.1479 -0.5508 -0.7515
  116OSM   H14F12222   6.675   6.095   9.423  0.4448 -2.2117  0.5982
  116OSM   H14G12223   6.518   6.155   9.454  0.2495 -0.8315 -0.0830
  116OSM   C15F12224   6.537   6.064   9.261  0.8187  0.6127  0.3603
  116OSM   H15F12225   6.426   6.071   9.258  0.7992  0.1910 -2.1892
  116OSM   H15G12226   6.574   5.963   9.233 -2.2519 -0.4060 -0.4520
  116OSM   C16F12227   6.608   6.167   9.179  0.8223  0.1362  0.8490
  116OSM   H16F12228   6.706   6.197   9.220 -0.3464  1.7624  2.6541
  116OSM   H16G12229   6.537   6.251   9.191  0.0010 -0.6420  1.6327
  116OSM   C17F12230   6.610   6.129   9.030  0.9130 -0.7106  0.0855
  116OSM   H17F12231   6.669   6.038   9.003  0.0699 -1.2874  0.1294
  116OSM   H17G12232   6.661   6.219   8.992  0.2242  0.9475  2.8159
  116OSM   C18F12233   6.462   6.118   8.976 -0.2655  0.1136 -0.2344
  116OSM   H18F12234   6.461   6.108   8.865 -0.8794  0.8414 -0.3059
  116OSM   H18G12235   6.405   6.208   9.009 -0.9800 -0.6863  0.7907
  116OSM   H18H12236   6.409   6.031   9.019  0.8207 -0.9618 -1.0130
  117OSM      N12237   5.580   1.576  11.205  0.1923  0.0943 -0.0020
  117OSM    C1512238   5.536   1.565  11.347  0.6049  0.1545 -0.0136
  117OSM   H15A12239   5.571   1.653  11.398 -0.7031  0.3525  0.5924
  117OSM   H15B12240   5.574   1.471  11.382  0.7579  0.0291 -0.5004
  117OSM   H15C12241   5.428   1.567  11.355  0.5617  1.6123 -0.4779
  117OSM    C1412242   5.541   1.440  11.147  0.7636  0.1561  0.4001
  117OSM   H14A12243   5.591   1.359  11.197  3.4758  0.7227 -1.1475
  117OSM   H14B12244   5.563   1.441  11.041 -0.5776  1.0757  0.1016
  117OSM   H14C12245   5.435   1.422  11.153  0.8758 -0.1475  1.8724
  117OSM    C1312246   5.502   1.686  11.136 -0.3005 -0.0026 -0.7910
  117OSM   H13A12247   5.396   1.673  11.152 -0.3452 -0.0481 -1.1157
  117OSM   H13B12248   5.521   1.668  11.031 -1.7761  0.0015 -1.0759
  117OSM   H13C12249   5.526   1.787  11.166 -0.4238  0.0809 -0.9787
  117OSM    C1212250   5.728   1.603  11.200 -0.3478 -1.4222 -0.3409
  117OSM   H12A12251   5.747   1.708  11.216  0.2914 -1.3680 -1.3395
  117OSM   H12B12252   5.751   1.583  11.096  2.1470  0.8988 -0.3224
  117OSM    C1112253   5.820   1.518  11.289 -0.1057  0.7297 -0.3329
  117OSM   H11A12254   5.794   1.517  11.397 -3.1289 -0.3495 -0.9682
  117OSM   H11B12255   5.919   1.568  11.279 -0.3441  1.5843  1.2278
  117OSM      P12256   5.903   1.335  11.117 -0.0641  0.1140 -0.0129
  117OSM    O1312257   6.044   1.369  11.129  0.0926  0.1314 -0.7013
  117OSM    O1412258   5.858   1.196  11.089  0.2414  0.1507  0.2038
  117OSM    O1112259   5.849   1.436  11.010 -0.0279  0.8380  0.1514
  117OSM    O1212260   5.827   1.379  11.245  0.0041 -0.3409 -0.0816
  117OSM    C1S12261   5.805   1.401  10.880 -0.1957  0.1466  0.1553
  117OSM    H1S12262   5.702   1.361  10.885 -0.8718  1.8873  1.1497
  117OSM    H1T12263   5.873   1.327  10.832 -1.7482 -1.8274  0.8863
  117OSM     NF12264   5.750   1.501  10.664  0.6066 -0.2487 -0.4673
  117OSM    HNF12265   5.815   1.482  10.592  0.6619 -0.1692 -0.4386
  117OSM    C2S12266   5.806   1.530  10.798  0.1504  0.1484  0.3244
  117OSM    H2S12267   5.750   1.606  10.855  2.2162  0.1533  2.4825
  117OSM    C3S12268   5.951   1.581  10.783  0.1423 -0.2268  0.3421
  117OSM    H3S12269   6.015   1.510  10.727  1.0661 -0.9990  2.2988
  117OSM     O312270   6.013   1.598  10.906 -0.2883  0.2126 -1.0466
  117OSM    HO312271   5.969   1.535  10.963 -1.8728  1.6698 -0.5769
  117OSM    C4S12272   5.939   1.716  10.716 -0.1117  0.0312 -1.0035
  117OSM    H4S12273   5.861   1.778  10.764  1.2801 -0.8520  2.7861
  117OSM    C5S12274   6.015   1.758  10.610 -0.0152 -0.2825 -0.1377
  117OSM    H5S12275   6.092   1.686  10.578  0.8540  0.4882  0.1828
  117OSM    C6S12276   6.016   1.878  10.528  0.3783  0.4914  1.1124
  117OSM    H6S12277   6.011   1.968  10.593  0.5490  0.9796  0.4596
  117OSM    H6T12278   5.921   1.877  10.471  2.7208 -2.8170 -3.3475
  117OSM    C7S12279   6.124   1.873  10.414  0.5202  0.8711 -0.7325
  117OSM    H7S12280   6.097   1.783  10.355 -2.4301  0.5685  0.8556
  117OSM    H7T12281   6.229   1.870  10.452 -0.2169  1.8262  1.6171
  117OSM    C8S12282   6.133   2.000  10.328  0.3641 -0.3479  0.1526
  117OSM    H8S12283   6.158   2.083  10.397  2.2475 -0.5907 -0.1677
  117OSM    H8T12284   6.041   2.023  10.270  1.1842  0.3861 -0.8961
  117OSM    C9S12285   6.235   1.984  10.212 -0.4971  0.6274 -0.8426
  117OSM    H9S12286   6.342   1.976  10.240 -0.3636 -0.0089 -1.4907
  117OSM    H9T12287   6.232   2.077  10.151  3.8788  1.2135 -0.4898
  117OSM   C10S12288   6.203   1.870  10.125 -0.1616 -0.3687 -0.4472
  117OSM   H10S12289   6.092   1.865  10.120 -0.2550 -0.7614  1.4183
  117OSM   H10T12290   6.226   1.775  10.177 -1.0183 -0.2018  0.2532
  117OSM   C11S12291   6.288   1.874   9.989  0.4192 -0.1382 -0.4984
  117OSM   H11S12292   6.262   1.780   9.935  0.6430 -0.8842  0.6653
  117OSM   H11T12293   6.396   1.859  10.012  0.5177 -0.4903 -1.1422
  117OSM   C12S12294   6.266   1.999   9.899  0.9002  0.0074 -0.5764
  117OSM   H12S12295   6.324   2.066   9.966  1.5658 -0.1764 -0.9642
  117OSM   H12T12296   6.161   2.030   9.882  0.8367 -0.1807 -0.5341
  117OSM   C13S12297   6.339   1.975   9.761 -0.9213  0.2475 -0.3658
  117OSM   H13S12298   6.299   1.886   9.709  0.7006 -0.5656 -0.2790
  117OSM   H13T12299   6.445   1.959   9.791 -1.3057  1.1050  1.6235
  117OSM   C14S12300   6.327   2.089   9.658 -0.3596 -0.2611  0.7086
  117OSM   H14S12301   6.325   2.180   9.723  1.0789 -0.9086  1.7042
  117OSM   H14T12302   6.229   2.070   9.608 -0.3072 -0.1560  0.5631
  117OSM   C15S12303   6.443   2.107   9.556  0.3652  0.1601 -0.5113
  117OSM   H15S12304   6.539   2.099   9.610  0.0237  0.0658  0.0858
  117OSM   H15T12305   6.443   2.212   9.520 -0.5571  1.1284  2.0982
  117OSM   C16S12306   6.456   2.001   9.445 -0.3218  0.2813 -0.1994
  117OSM   H16S12307   6.445   1.898   9.483  1.3079 -1.1039 -3.1264
  117OSM   H16T12308   6.557   2.015   9.399 -1.1785  1.2578 -1.8950
  117OSM   C17S12309   6.345   2.013   9.335 -0.4752 -0.4818  0.5021
  117OSM   H17S12310   6.295   2.112   9.331  0.5131  0.0282  0.3783
  117OSM   H17T12311   6.260   1.950   9.370 -2.4917  2.7744  1.9340
  117OSM   C18S12312   6.400   1.968   9.198 -0.2672 -0.1807 -0.1122
  117OSM   H18S12313   6.313   1.971   9.130 -1.4954  1.4208  1.4537
  117OSM   H18T12314   6.444   1.866   9.208 -1.6745 -0.7357  0.7308
  117OSM   H18U12315   6.479   2.042   9.173  1.1075 -1.5685 -0.1030
  117OSM    C1F12316   5.616   1.479  10.652 -0.3570  0.1605  0.3084
  117OSM     OF12317   5.545   1.488  10.749  0.5013  0.5256 -0.2845
  117OSM    C2F12318   5.566   1.448  10.519  0.2280 -0.6463  0.0473
  117OSM    H2F12319   5.630   1.377  10.463  0.5312  0.1071 -0.5809
  117OSM    H2G12320   5.575   1.537  10.454 -0.5402 -0.0153  0.7800
  117OSM    C3F12321   5.426   1.406  10.516  0.0323 -0.0817  0.5693
  117OSM    H3F12322   5.368   1.486  10.567  0.4122 -0.2713  1.3076
  117OSM    H3G12323   5.411   1.308  10.567 -0.8666 -1.9094 -2.8905
  117OSM    C4F12324   5.363   1.402  10.380 -0.0191 -0.3010 -0.6044
  117OSM    H4F12325   5.364   1.500  10.328  0.6343  0.3917  0.6612
  117OSM    H4G12326   5.257   1.375  10.397  0.4044 -1.0881  1.0043
  117OSM    C5F12327   5.441   1.291  10.303 -0.1542 -0.0592 -0.0618
  117OSM    H5F12328   5.473   1.216  10.380  0.4963 -1.7824 -1.9150
  117OSM    H5G12329   5.539   1.323  10.262 -1.5303  0.4769 -3.2084
  117OSM    C6F12330   5.365   1.226  10.189 -0.3444  0.5406  0.2168
  117OSM    H6F12331   5.264   1.199  10.227 -0.3985  1.6213  0.8896
  117OSM    H6G12332   5.428   1.146  10.145  0.4516  1.9843 -1.4260
  117OSM    C7F12333   5.340   1.328  10.074  0.1020 -0.3252  0.0175
  117OSM    H7F12334   5.441   1.356  10.040  0.5728 -0.1462  1.4811
  117OSM    H7G12335   5.289   1.413  10.124 -1.9346 -0.7482 -1.2253
  117OSM    C8F12336   5.257   1.266   9.959 -0.0630 -0.0203  0.3851
  117OSM    H8F12337   5.217   1.350   9.898 -0.0417 -0.6749 -0.5426
  117OSM    H8G12338   5.163   1.221   9.998  1.0937 -0.7047  2.5456
  117OSM    C9F12339   5.319   1.158   9.876  0.3239 -0.4641 -0.0783
  117OSM    H9F12340   5.336   1.056   9.914 -1.5084  0.1937  2.8351
  117OSM   C10F12341   5.352   1.177   9.745 -0.0636 -0.3005 -0.7713
  117OSM   H10F12342   5.386   1.086   9.694 -1.2090 -1.3740  0.3060
  117OSM   C11F12343   5.343   1.297   9.653 -0.2239 -0.1578  0.1561
  117OSM   H11F12344   5.335   1.392   9.709 -0.5514  0.1902 -0.4765
  117OSM   H11G12345   5.252   1.292   9.589 -0.0562 -1.3354 -0.0171
  117OSM   C12F12346   5.465   1.296   9.555 -0.5761  0.0498 -0.8435
  117OSM   H12F12347   5.482   1.204   9.496  1.6622  0.0929 -0.3429
  117OSM   H12G12348   5.558   1.300   9.616 -1.5359  1.1973  0.6064
  117OSM   C13F12349   5.477   1.413   9.454  0.3995  0.3687 -0.1253
  117OSM   H13F12350   5.492   1.513   9.500 -1.6490  0.2710  0.8675
  117OSM   H13G12351   5.376   1.419   9.408  0.2441 -1.6462 -0.1461
  117OSM   C14F12352   5.570   1.365   9.343  0.3149  0.3653 -1.0276
  117OSM   H14F12353   5.521   1.273   9.304  0.5190 -1.0668  1.7864
  117OSM   H14G12354   5.665   1.339   9.393 -0.2879 -0.1624 -0.1224
  117OSM   C15F12355   5.598   1.477   9.240  0.5495  0.6654 -0.5134
  117OSM   H15F12356   5.621   1.569   9.298 -1.0920 -0.3266  1.8504
  117OSM   H15G12357   5.504   1.490   9.182  0.9662  0.9293 -1.1390
  117OSM   C16F12358   5.704   1.435   9.139  0.3664  0.5647 -0.8649
  117OSM   H16F12359   5.652   1.363   9.073  0.8203 -2.2908  1.6895
  117OSM   H16G12360   5.782   1.371   9.184  0.9721  1.1355 -1.0772
  117OSM   C17F12361   5.762   1.556   9.065  0.3521 -0.3837  0.2201
  117OSM   H17F12362   5.794   1.633   9.138 -1.6620 -0.3963  1.1763
  117OSM   H17G12363   5.673   1.595   9.011  1.5496  2.2550  0.0140
  117OSM   C18F12364   5.871   1.537   8.964 -1.1113  0.3094  0.6056
  117OSM   H18F12365   5.949   1.472   9.010  0.2451  0.9392 -0.7246
  117OSM   H18G12366   5.911   1.629   8.917 -0.8344  0.0103  0.2529
  117OSM   H18H12367   5.839   1.475   8.878  1.7905 -0.1388 -0.2418
  118OSM      N12368   3.191   1.821  11.246  0.3809 -0.4027 -0.4525
  118OSM    C1512369   3.214   1.696  11.331 -0.1880  0.0651  0.0012
  118OSM   H15A12370   3.253   1.723  11.428  0.9946  3.0387 -1.1728
  118OSM   H15B12371   3.299   1.643  11.290  1.8050  3.0498 -0.0704
  118OSM   H15C12372   3.125   1.639  11.352 -0.3628 -0.0072 -0.8830
  118OSM    C1412373   3.102   1.916  11.319  0.1265  0.2468  0.6619
  118OSM   H14A12374   3.059   1.990  11.252 -1.2007 -0.6464  0.4809
  118OSM   H14B12375   3.161   1.970  11.392  1.5804  0.5121 -0.6705
  118OSM   H14C12376   3.020   1.856  11.356 -0.1707 -2.0384 -3.1280
  118OSM    C1312377   3.316   1.895  11.211  0.3174  0.1050 -0.7994
  118OSM   H13A12378   3.374   1.829  11.148  2.1965  0.8060  0.1284
  118OSM   H13B12379   3.368   1.918  11.303 -1.1262 -1.5778  0.5267
  118OSM   H13C12380   3.305   1.990  11.162  1.9632  1.4413  1.2773
  118OSM    C1212381   3.117   1.782  11.118  0.0751 -0.3545  0.0660
  118OSM   H12A12382   3.025   1.732  11.145  1.2435 -1.8867  1.4455
  118OSM   H12B12383   3.180   1.703  11.080 -0.4042 -1.8989  2.2782
  118OSM    C1112384   3.092   1.884  11.006  0.1285 -0.5167  0.9440
  118OSM   H11A12385   3.058   1.824  10.919  1.3058 -3.6540  2.4680
  118OSM   H11B12386   3.189   1.930  10.980  1.4107 -2.4485  2.0663
  118OSM      P12387   2.838   1.956  11.019  0.2033  0.0015  0.2730
  118OSM    O1312388   2.777   1.850  11.100  0.1656 -0.9163 -0.0976
  118OSM    O1412389   2.770   2.086  11.028  0.2610  0.1512 -0.2465
  118OSM    O1112390   2.844   1.918  10.868 -0.1521  0.0436  0.2995
  118OSM    O1212391   2.994   1.979  11.047  0.1013  0.5598 -0.3697
  118OSM    C1S12392   2.869   1.985  10.744  0.1611 -0.3033  0.2998
  118OSM    H1S12393   2.904   2.090  10.755  2.0094 -0.6298 -1.7798
  118OSM    H1T12394   2.774   2.001  10.688  0.3083 -1.5924 -0.3638
  118OSM     NF12395   2.967   1.998  10.517  0.0456  0.2603 -0.3072
  118OSM    HNF12396   2.933   1.964  10.430 -2.3744  2.4012 -0.3181
  118OSM    C2S12397   2.952   1.907  10.637  0.0240  0.4933  0.9517
  118OSM    H2S12398   3.057   1.899  10.673  1.5603  2.7040 -2.4358
  118OSM    C3S12399   2.896   1.768  10.600  1.0943 -0.1275  0.0340
  118OSM    H3S12400   2.788   1.786  10.583  1.0189 -0.6170 -0.0081
  118OSM     O312401   2.893   1.686  10.710  0.0446  0.3306 -0.4213
  118OSM    HO312402   2.891   1.747  10.784  0.0461 -1.4770  1.1445
  118OSM    C4S12403   2.967   1.707  10.485 -0.8096 -0.7733 -0.5480
  118OSM    H4S12404   3.076   1.722  10.483 -1.1202  2.2860  0.7407
  118OSM    C5S12405   2.904   1.659  10.379 -0.1421  1.2639 -0.3005
  118OSM    H5S12406   2.794   1.646  10.379  0.0416 -0.5683 -0.4167
  118OSM    C6S12407   2.965   1.597  10.257  0.0814 -0.0345 -0.3669
  118OSM    H6S12408   2.886   1.582  10.181 -0.7370 -0.9158  0.6330
  118OSM    H6T12409   3.002   1.499  10.294  0.7414  1.6485  3.9979
  118OSM    C7S12410   3.090   1.666  10.196 -0.5931 -0.2692  0.0205
  118OSM    H7S12411   3.173   1.670  10.269  1.0577 -2.5539 -1.5704
  118OSM    H7T12412   3.055   1.767  10.167  0.9501  0.2263 -0.1917
  118OSM    C8S12413   3.137   1.582  10.075  0.0505  0.5716  0.0354
  118OSM    H8S12414   3.054   1.573  10.002 -0.8655  2.1110  0.8375
  118OSM    H8T12415   3.189   1.491  10.111  0.2915  1.1903  1.2934
  118OSM    C9S12416   3.260   1.653  10.004 -0.2973  0.1222  0.1756
  118OSM    H9S12417   3.336   1.678  10.081 -1.7752  0.3602  1.6373
  118OSM    H9T12418   3.212   1.752   9.987  1.7335  1.2837  0.8496
  118OSM   C10S12419   3.308   1.598   9.871 -0.2728 -0.2585  0.4475
  118OSM   H10S12420   3.219   1.596   9.804 -0.5116 -2.3478  0.7633
  118OSM   H10T12421   3.322   1.488   9.875 -0.2651 -0.4770 -2.8764
  118OSM   C11S12422   3.428   1.665   9.813 -0.1101  0.1668  0.5364
  118OSM   H11S12423   3.518   1.645   9.874  1.3367  0.1512 -1.4989
  118OSM   H11T12424   3.430   1.776   9.827 -0.8110  0.2440  0.0944
  118OSM   C12S12425   3.466   1.602   9.677  0.7325 -0.1839  0.4475
  118OSM   H12S12426   3.471   1.491   9.685  0.1056 -0.3429 -1.1772
  118OSM   H12T12427   3.570   1.633   9.656  1.1906 -0.6485  1.8570
  118OSM   C13S12428   3.378   1.641   9.560 -0.1109  0.4415 -0.3038
  118OSM   H13S12429   3.383   1.751   9.548 -1.2060  0.3220 -2.1589
  118OSM   H13T12430   3.273   1.612   9.581 -0.2748  0.9230 -0.4455
  118OSM   C14S12431   3.414   1.574   9.425 -0.8722  0.5254  0.3622
  118OSM   H14S12432   3.329   1.614   9.365 -0.6692  1.5506  0.7386
  118OSM   H14T12433   3.412   1.463   9.424  0.6222  0.4795  0.3111
  118OSM   C15S12434   3.544   1.631   9.363  0.4935 -0.3670 -0.0482
  118OSM   H15S12435   3.636   1.569   9.374  3.2496  3.2234 -0.8838
  118OSM   H15T12436   3.580   1.719   9.421 -0.0122 -0.8452  1.0163
  118OSM   C16S12437   3.547   1.674   9.217  0.0451  0.5016 -0.4657
  118OSM   H16S12438   3.521   1.585   9.156  2.1934 -1.2570  1.0248
  118OSM   H16T12439   3.654   1.690   9.190 -0.0451  2.0200 -0.0010
  118OSM   C17S12440   3.463   1.793   9.178 -0.0706  0.4005  0.2070
  118OSM   H17S12441   3.481   1.873   9.253 -1.0636  0.2586  0.6005
  118OSM   H17T12442   3.356   1.766   9.172  0.1249 -0.4265  0.3060
  118OSM   C18S12443   3.504   1.869   9.046 -0.1702  0.2150  0.1899
  118OSM   H18S12444   3.515   1.801   8.959 -2.7011  1.4178 -1.1689
  118OSM   H18T12445   3.586   1.944   9.051 -1.5100  1.7421  0.2643
  118OSM   H18U12446   3.421   1.935   9.012  1.0916  1.0173 -1.4703
  118OSM    C1F12447   3.027   2.113  10.526 -0.6277 -0.4304  0.2709
  118OSM     OF12448   3.093   2.145  10.628  0.3582 -0.3940  0.1744
  118OSM    C2F12449   3.036   2.199  10.403  0.3506  0.1163  0.1250
  118OSM    H2F12450   2.930   2.228  10.383  1.3904  2.7678 -2.2726
  118OSM    H2G12451   3.068   2.147  10.310 -0.8190  1.6745 -1.2225
  118OSM    C3F12452   3.119   2.320  10.425 -0.0584 -0.1298 -0.0070
  118OSM    H3F12453   3.221   2.305  10.466 -1.0663 -1.4591  2.1986
  118OSM    H3G12454   3.070   2.382  10.503  1.1282  1.6363 -0.6056
  118OSM    C4F12455   3.120   2.416  10.307 -0.3200  1.0655  0.2182
  118OSM    H4F12456   3.154   2.514  10.346 -1.3488  2.9953 -3.2595
  118OSM    H4G12457   3.017   2.432  10.269  0.6550  0.6478 -2.8844
  118OSM    C5F12458   3.216   2.376  10.190  1.1219  0.1188 -0.4399
  118OSM    H5F12459   3.188   2.270  10.173  2.1810 -0.6877  2.3062
  118OSM    H5G12460   3.318   2.368  10.232  1.0889  1.1983 -0.1322
  118OSM    C6F12461   3.207   2.456  10.054 -1.0007  0.7723 -0.1835
  118OSM    H6F12462   3.274   2.404   9.982 -2.0824  0.7643 -1.2048
  118OSM    H6G12463   3.242   2.561  10.069  1.3147  0.0550 -0.1011
  118OSM    C7F12464   3.063   2.453   9.995 -0.0395 -0.0147 -0.2188
  118OSM    H7F12465   2.986   2.513  10.048 -0.2263 -0.6119  0.1938
  118OSM    H7G12466   3.027   2.348  10.002 -0.2719  0.0093 -1.0282
  118OSM    C8F12467   3.046   2.507   9.844 -0.8499  0.4893  0.1998
  118OSM    H8F12468   3.062   2.617   9.846 -0.9736  0.5649 -1.4794
  118OSM    H8G12469   2.939   2.505   9.813 -1.1531 -2.7983  1.1288
  118OSM    C9F12470   3.137   2.433   9.748  0.7061 -0.4753 -0.0520
  118OSM    H9F12471   3.113   2.328   9.725 -1.9931  0.3019 -1.1286
  118OSM   C10F12472   3.241   2.474   9.680  0.5987  0.4463 -0.2202
  118OSM   H10F12473   3.291   2.402   9.613  1.2767 -1.1647  1.9130
  118OSM   C11F12474   3.308   2.610   9.683  0.2007 -0.1860 -0.3131
  118OSM   H11F12475   3.381   2.589   9.764 -0.1099 -0.1745 -0.0244
  118OSM   H11G12476   3.234   2.686   9.717  0.7374  1.0593 -1.8446
  118OSM   C12F12477   3.386   2.656   9.554 -0.0610  0.3811 -0.1836
  118OSM   H12F12478   3.482   2.602   9.550 -1.2373 -1.7978 -0.7033
  118OSM   H12G12479   3.412   2.763   9.569 -0.7841  0.2572  2.4173
  118OSM   C13F12480   3.317   2.619   9.421 -0.3702  0.8401 -1.1401
  118OSM   H13F12481   3.223   2.674   9.399 -0.7741  0.8850  0.5191
  118OSM   H13G12482   3.290   2.511   9.418 -1.2375  1.0555 -1.4302
  118OSM   C14F12483   3.420   2.646   9.314 -0.9188 -0.6465 -0.4012
  118OSM   H14F12484   3.517   2.599   9.343  0.4283  1.5231 -1.1396
  118OSM   H14G12485   3.441   2.755   9.316  0.7533 -0.9356 -0.4949
  118OSM   C15F12486   3.360   2.605   9.183  0.2467 -0.0453  0.2703
  118OSM   H15F12487   3.294   2.517   9.193 -2.5182  2.0120  1.3351
  118OSM   H15G12488   3.438   2.564   9.116 -1.4243  0.9194 -2.4084
  118OSM   C16F12489   3.289   2.716   9.097 -0.6992  0.2469  0.0167
  118OSM   H16F12490   3.366   2.795   9.088  0.2864 -0.8763 -2.1437
  118OSM   H16G12491   3.211   2.758   9.164 -0.7495  0.0875  0.0591
  118OSM   C17F12492   3.225   2.662   8.964  0.4796 -0.3004 -0.8351
  118OSM   H17F12493   3.161   2.746   8.931  0.7771 -0.1950 -1.1464
  118OSM   H17G12494   3.164   2.569   8.972  2.6544 -1.6507  2.2662
  118OSM   C18F12495   3.315   2.648   8.846 -0.3118  0.6691  0.3004
  118OSM   H18F12496   3.380   2.558   8.852  0.8396  1.4653  0.1520
  118OSM   H18G12497   3.393   2.727   8.846  2.1001 -1.5283  1.4219
  118OSM   H18H12498   3.280   2.647   8.741 -2.6240  0.0973  1.0328
  119OSM      N12499   4.287   2.659  11.227  0.4638  0.1586 -0.5296
  119OSM    C1512500   4.225   2.762  11.322  0.3757  0.4246 -0.2191
  119OSM   H15A12501   4.230   2.863  11.284  0.5954  0.5134  0.0451
  119OSM   H15B12502   4.277   2.775  11.416  1.4832  1.9631 -0.9821
  119OSM   H15C12503   4.121   2.734  11.318  0.6259 -0.8303  1.3388
  119OSM    C1412504   4.210   2.651  11.102  0.4805 -0.4356 -0.0712
  119OSM   H14A12505   4.102   2.647  11.115  0.2062 -1.0503 -2.1641
  119OSM   H14B12506   4.242   2.559  11.056 -0.5761 -1.1894  0.6482
  119OSM   H14C12507   4.221   2.734  11.033 -1.0201  0.3032  0.5185
  119OSM    C1312508   4.414   2.707  11.189 -0.0680 -0.1409  0.1819
  119OSM   H13A12509   4.475   2.733  11.274 -2.5364  0.0034  2.0168
  119OSM   H13B12510   4.399   2.797  11.130 -2.7700 -1.4515 -1.3160
  119OSM   H13C12511   4.463   2.634  11.126  1.8280 -0.1095  1.5514
  119OSM    C1212512   4.290   2.522  11.294  0.0129 -0.2017 -0.2015
  119OSM   H12A12513   4.191   2.503  11.332 -0.2013 -0.9930 -1.1186
  119OSM   H12B12514   4.359   2.527  11.377  1.2041  2.9578 -1.2209
  119OSM    C1112515   4.345   2.399  11.221 -0.1768  0.3175 -0.8015
  119OSM   H11A12516   4.264   2.369  11.152 -0.9982  0.6917 -0.0180
  119OSM   H11B12517   4.351   2.314  11.291 -0.1955  0.7849 -0.2224
  119OSM      P12518   4.490   2.378  11.006  0.1909  0.3841 -0.5980
  119OSM    O1312519   4.624   2.396  10.949 -0.2445 -0.0385  0.6251
  119OSM    O1412520   4.446   2.235  10.989 -0.3397 -0.2035 -0.5151
  119OSM    O1112521   4.395   2.479  10.931 -0.0069  0.6103  0.2762
  119OSM    O1212522   4.476   2.428  11.159 -0.1439  0.6929 -1.1211
  119OSM    C1S12523   4.419   2.542  10.800  0.0798 -0.5331 -0.7723
  119OSM    H1S12524   4.528   2.547  10.781  0.4670 -2.5895  0.4860
  119OSM    H1T12525   4.390   2.648  10.812 -1.3686 -1.0623  1.0899
  119OSM     NF12526   4.383   2.535  10.555 -0.8905 -0.6932 -0.6848
  119OSM    HNF12527   4.326   2.594  10.499 -0.9426 -0.8329 -0.7789
  119OSM    C2S12528   4.336   2.478  10.686 -0.1445 -0.3818  0.5875
  119OSM    H2S12529   4.354   2.368  10.676  2.0148  0.0353 -0.8846
  119OSM    C3S12530   4.182   2.496  10.700  0.2470 -0.9121 -0.5182
  119OSM    H3S12531   4.153   2.603  10.704 -0.7371 -1.1754 -0.3595
  119OSM     O312532   4.135   2.443  10.826 -0.1090 -0.4912  0.0579
  119OSM    HO312533   4.216   2.412  10.865 -0.8688 -1.9446  0.5268
  119OSM    C4S12534   4.111   2.429  10.587  0.2139  0.2333 -0.1942
  119OSM    H4S12535   4.104   2.319  10.596 -0.9779  0.2205 -1.1542
  119OSM    C5S12536   4.066   2.497  10.482  0.0196 -0.1991  0.0089
  119OSM    H5S12537   4.061   2.605  10.502  2.8792 -0.1733  0.9770
  119OSM    C6S12538   3.999   2.417  10.366  1.0962 -0.0683 -0.0347
  119OSM    H6S12539   3.979   2.480  10.277 -0.3371 -1.4858 -0.7697
  119OSM    H6T12540   3.902   2.370  10.393  1.1136  0.2411  0.6058
  119OSM    C7S12541   4.093   2.300  10.324 -0.8216  0.4808  0.0559
  119OSM    H7S12542   4.104   2.226  10.406  1.6140  2.4532  1.6492
  119OSM    H7T12543   4.193   2.346  10.307 -1.3958  2.7778  2.3754
  119OSM    C8S12544   4.050   2.233  10.192  0.1965 -0.0517  0.1702
  119OSM    H8S12545   3.940   2.220  10.185  0.1723 -0.1451  0.6501
  119OSM    H8T12546   4.087   2.130  10.173 -0.0284  0.3587 -2.9392
  119OSM    C9S12547   4.089   2.321  10.070  0.3635 -0.1502  0.0580
  119OSM    H9S12548   4.199   2.330  10.074  0.6695  1.2109 -4.7817
  119OSM    H9T12549   4.040   2.422  10.069  1.2066  0.2947 -2.1877
  119OSM   C10S12550   4.062   2.263   9.934  0.4562 -0.1998  0.9807
  119OSM   H10S12551   3.953   2.247   9.924  0.3982  0.4363  0.5424
  119OSM   H10T12552   4.113   2.165   9.924 -2.2963 -1.5123 -1.5073
  119OSM   C11S12553   4.112   2.359   9.819  0.3465 -0.5727  0.0943
  119OSM   H11S12554   4.221   2.371   9.837  0.5432 -3.4997  1.4239
  119OSM   H11T12555   4.063   2.458   9.824 -2.4863 -1.8174 -0.6898
  119OSM   C12S12556   4.099   2.306   9.678 -0.5338 -0.0009 -0.2770
  119OSM   H12S12557   3.993   2.296   9.645 -2.0037  2.5850  3.0877
  119OSM   H12T12558   4.149   2.209   9.656  0.3195  0.5496 -0.8014
  119OSM   C13S12559   4.161   2.409   9.590  0.6815 -0.4009  0.1049
  119OSM   H13S12560   4.261   2.428   9.635  0.5586  0.2832  0.0926
  119OSM   H13T12561   4.107   2.502   9.616  2.1169  0.9441 -1.5021
  119OSM   C14S12562   4.158   2.375   9.442  0.1674  0.3819  0.8781
  119OSM   H14S12563   4.062   2.324   9.419  0.2598  0.9062 -0.8321
  119OSM   H14T12564   4.226   2.288   9.426 -0.4375  0.2978 -1.7076
  119OSM   C15S12565   4.190   2.483   9.337 -0.0488  0.0937 -0.4435
  119OSM   H15S12566   4.296   2.515   9.340  0.8450 -2.5449 -0.6971
  119OSM   H15T12567   4.128   2.572   9.361  0.9538  1.2816 -2.0637
  119OSM   C16S12568   4.153   2.443   9.194 -0.7132 -0.3496 -0.3522
  119OSM   H16S12569   4.046   2.412   9.187 -0.6328 -1.5080  2.3971
  119OSM   H16T12570   4.226   2.370   9.154 -1.1659  0.2177 -2.3177
  119OSM   C17S12571   4.151   2.575   9.106  0.5226 -0.2650  0.1441
  119OSM   H17S12572   4.254   2.616   9.116  1.2744 -2.0175  0.0034
  119OSM   H17T12573   4.095   2.655   9.159 -0.8534  0.4753 -2.2950
  119OSM   C18S12574   4.124   2.561   8.959  0.2553 -0.2589  0.0169
  119OSM   H18S12575   4.142   2.654   8.901  1.4831 -0.2849  0.3401
  119OSM   H18T12576   4.023   2.516   8.944  0.2656  0.0275 -0.9621
  119OSM   H18U12577   4.195   2.482   8.928  1.3075  0.8306 -0.4299
  119OSM    C1F12578   4.507   2.500  10.514  0.0447 -0.5662 -0.6509
  119OSM     OF12579   4.570   2.403  10.566 -0.3093  0.0952  0.6397
  119OSM    C2F12580   4.581   2.578  10.410 -0.2390 -0.4009  0.3628
  119OSM    H2F12581   4.679   2.607  10.454 -0.0321 -1.7516  0.8131
  119OSM    H2G12582   4.524   2.672  10.395 -4.1231 -2.4580  0.9916
  119OSM    C3F12583   4.601   2.491  10.284  0.0916 -0.5298  0.6029
  119OSM    H3F12584   4.636   2.388  10.305  0.3420 -0.7138 -0.6346
  119OSM    H3G12585   4.684   2.534  10.224  1.7566 -0.1155  3.0738
  119OSM    C4F12586   4.469   2.483  10.198 -0.1577 -0.8919 -0.2897
  119OSM    H4F12587   4.414   2.579  10.191 -1.4400 -1.6030 -0.2631
  119OSM    H4G12588   4.395   2.419  10.250 -1.9246  1.2249 -0.0193
  119OSM    C5F12589   4.486   2.414  10.068  0.6276 -0.4213 -0.0543
  119OSM    H5F12590   4.404   2.360  10.016  1.7995 -1.4866 -0.8741
  119OSM    H5G12591   4.556   2.327  10.076 -2.1284 -2.9098 -1.0632
  119OSM    C6F12592   4.546   2.515   9.968 -0.0611 -0.4993  0.0167
  119OSM    H6F12593   4.641   2.554  10.011 -0.4657  1.5298 -0.8476
  119OSM    H6G12594   4.477   2.597   9.939 -0.9246 -1.7743 -1.6942
  119OSM    C7F12595   4.574   2.443   9.830  0.1144 -0.0060 -0.2289
  119OSM    H7F12596   4.482   2.391   9.794  0.0155 -1.1428  1.5504
  119OSM    H7G12597   4.652   2.368   9.854  0.4244 -0.0488 -1.3129
  119OSM    C8F12598   4.631   2.540   9.720  0.4914 -1.2469 -0.2483
  119OSM    H8F12599   4.714   2.605   9.753 -0.1011 -0.9547  0.7153
  119OSM    H8G12600   4.542   2.601   9.694  0.6314 -1.2965 -0.8515
  119OSM    C9F12601   4.683   2.454   9.605  0.3340 -0.5049 -1.0922
  119OSM    H9F12602   4.709   2.350   9.627  0.6771  0.1736  2.2320
  119OSM   C10F12603   4.669   2.495   9.478  0.3435  0.2616  0.2286
  119OSM   H10F12604   4.715   2.433   9.399  0.1255  0.0945  0.2338
  119OSM   C11F12605   4.610   2.618   9.420 -0.2639  1.0814  0.0411
  119OSM   H11F12606   4.640   2.707   9.480  1.2851  1.1284 -0.7639
  119OSM   H11G12607   4.500   2.605   9.429 -0.0109 -0.3362  1.9115
  119OSM   C12F12608   4.655   2.637   9.267  0.1253 -0.3380  0.2404
  119OSM   H12F12609   4.638   2.539   9.218 -1.9650 -0.0570  0.2793
  119OSM   H12G12610   4.764   2.658   9.270  0.6210 -2.5259 -0.4047
  119OSM   C13F12611   4.583   2.751   9.197  0.0508 -0.1759  0.8191
  119OSM   H13F12612   4.597   2.854   9.236 -1.1362  0.0224  0.7619
  119OSM   H13G12613   4.474   2.726   9.202 -0.5295  1.5791 -1.2126
  119OSM   C14F12614   4.628   2.762   9.051 -0.9178  0.3072  0.1251
  119OSM   H14F12615   4.615   2.663   9.003 -1.3731  0.3368  0.1888
  119OSM   H14G12616   4.739   2.766   9.044 -0.7043 -3.9372 -2.4812
  119OSM   C15F12617   4.565   2.856   8.950 -0.1453 -0.5950  0.5508
  119OSM   H15F12618   4.578   2.956   8.997 -1.2657  0.4264 -1.2179
  119OSM   H15G12619   4.458   2.829   8.938 -0.0853 -0.4514 -0.4054
  119OSM   C16F12620   4.622   2.843   8.806  0.0928 -0.0019 -0.4501
  119OSM   H16F12621   4.581   2.918   8.735  1.1475  0.6112 -0.4344
  119OSM   H16G12622   4.599   2.741   8.770  0.6707 -0.4471  0.3935
  119OSM   C17F12623   4.777   2.854   8.789 -0.2466 -1.0451 -0.2215
  119OSM   H17F12624   4.829   2.769   8.836  0.0610  0.3676  2.1206
  119OSM   H17G12625   4.804   2.935   8.859 -2.0304  0.6543 -1.3747
  119OSM   C18F12626   4.821   2.896   8.645 -1.0234 -0.5964  0.5215
  119OSM   H18F12627   4.793   2.813   8.577 -1.5017 -0.9917  1.1837
  119OSM   H18G12628   4.931   2.910   8.640 -1.0150 -0.8744 -0.0255
  119OSM   H18H12629   4.768   2.988   8.612 -2.3543 -1.3310  0.5280
  120OSM      N12630   5.067   5.534  11.151  0.4565  0.5933 -0.1282
  120OSM    C1512631   5.038   5.615  11.270  0.0154  0.2849 -0.7361
  120OSM   H15A12632   5.123   5.625  11.336 -0.8214  2.1816  0.1273
  120OSM   H15B12633   4.953   5.575  11.322  1.9252 -3.1973 -0.0069
  120OSM   H15C12634   5.022   5.720  11.251 -1.8135 -0.1632 -1.8887
  120OSM    C1412635   5.113   5.407  11.213  0.0198  0.5286  0.0902
  120OSM   H14A12636   5.130   5.325  11.144  0.6388 -0.5785  1.5127
  120OSM   H14B12637   5.045   5.367  11.286  0.8813 -1.9550 -0.3660
  120OSM   H14C12638   5.206   5.415  11.267  0.2527 -0.1123 -0.2014
  120OSM    C1312639   4.951   5.508  11.068  0.0521 -0.2878  0.2261
  120OSM   H13A12640   4.872   5.455  11.119 -1.4266  1.2144 -0.3771
  120OSM   H13B12641   4.982   5.471  10.971 -0.3043  1.4142 -0.5964
  120OSM   H13C12642   4.900   5.601  11.046 -1.7754 -1.0382  1.0490
  120OSM    C1212643   5.173   5.605  11.067 -0.1725 -0.1356  0.5217
  120OSM   H12A12644   5.261   5.630  11.125 -0.0138  1.5741 -0.3905
  120OSM   H12B12645   5.133   5.697  11.027  0.2836  1.0119  2.5438
  120OSM    C1112646   5.222   5.533  10.932 -0.1842 -0.3244 -0.0314
  120OSM   H11A12647   5.300   5.600  10.888 -0.9453  0.7119  0.1579
  120OSM   H11B12648   5.143   5.514  10.857  0.0066 -1.0004 -0.0624
  120OSM      P12649   5.320   5.310  10.840 -0.3191  0.2317 -0.1738
  120OSM    O1312650   5.406   5.204  10.899  0.8175  0.0053  0.0952
  120OSM    O1412651   5.194   5.271  10.771 -0.2937  0.2925 -0.0765
  120OSM    O1112652   5.408   5.405  10.742 -0.2418  0.0832  0.1488
  120OSM    O1212653   5.287   5.405  10.964  0.2591 -0.4274  0.2008
  120OSM    C1S12654   5.478   5.338  10.630  0.1491  0.4822 -0.7753
  120OSM    H1S12655   5.468   5.228  10.636 -2.8294  0.7393  1.2653
  120OSM    H1T12656   5.586   5.365  10.639  0.2562 -0.5222  1.6207
  120OSM     NF12657   5.511   5.328  10.394  0.7345 -0.6474  0.3803
  120OSM    HNF12658   5.601   5.365  10.369  0.5291 -2.2045 -3.3229
  120OSM    C2S12659   5.430   5.392  10.497 -0.3123 -0.7697  0.4428
  120OSM    H2S12660   5.323   5.361  10.492  0.0034 -1.7575 -0.4511
  120OSM    C3S12661   5.442   5.547  10.496 -0.1603 -0.6281  0.1061
  120OSM    H3S12662   5.549   5.573  10.483  0.0265 -0.7333  1.3255
  120OSM     O312663   5.382   5.621  10.599 -0.1637  0.2459 -0.1347
  120OSM    HO312664   5.343   5.554  10.655  0.8403  0.1796  0.5064
  120OSM    C4S12665   5.375   5.592  10.367 -0.0026 -0.3883 -0.6228
  120OSM    H4S12666   5.281   5.536  10.359  0.0363 -0.8068  1.4058
  120OSM    C5S12667   5.419   5.682  10.275  0.2083  0.1641  0.6770
  120OSM    H5S12668   5.513   5.738  10.291  0.9609 -1.1147  0.9037
  120OSM    C6S12669   5.339   5.715  10.154 -0.9674 -0.8315 -0.0782
  120OSM    H6S12670   5.395   5.793  10.098 -1.9278 -0.6418 -0.7991
  120OSM    H6T12671   5.248   5.769  10.189  0.2520  0.7408  0.8459
  120OSM    C7S12672   5.295   5.603  10.062 -0.0575 -0.0164 -0.7323
  120OSM    H7S12673   5.277   5.642   9.960  1.7585 -0.0304 -1.0928
  120OSM    H7T12674   5.198   5.577  10.111  0.2892  0.3360  0.1602
  120OSM    C8S12675   5.377   5.465  10.054 -0.0554  0.2173  0.6630
  120OSM    H8S12676   5.321   5.397   9.986  0.3759 -0.7917  1.2858
  120OSM    H8T12677   5.365   5.420  10.154 -0.7279  0.8015  0.8507
  120OSM    C9S12678   5.524   5.474  10.014  0.6813 -0.8177 -0.5164
  120OSM    H9S12679   5.567   5.378   9.979  0.2420 -0.6618 -1.5169
  120OSM    H9T12680   5.588   5.506  10.100 -1.0429  0.4768  0.3603
  120OSM   C10S12681   5.568   5.564   9.890 -0.5837 -1.0400 -0.3217
  120OSM   H10S12682   5.672   5.544   9.854 -0.0843 -0.5253  0.7748
  120OSM   H10T12683   5.564   5.668   9.927  0.2834 -1.7174  1.8276
  120OSM   C11S12684   5.477   5.559   9.763  0.3305 -0.5506 -0.4364
  120OSM   H11S12685   5.368   5.575   9.780  0.2605 -2.1904  0.9377
  120OSM   H11T12686   5.485   5.458   9.718  0.2514 -0.3547 -0.8982
  120OSM   C12S12687   5.532   5.668   9.662  0.0581  0.0138 -0.1874
  120OSM   H12S12688   5.633   5.634   9.628  0.7351  0.5906  1.1843
  120OSM   H12T12689   5.547   5.760   9.723 -0.1473  0.9982 -1.5899
  120OSM   C13S12690   5.445   5.697   9.543 -0.3964 -0.1870  0.3319
  120OSM   H13S12691   5.361   5.765   9.567  0.4999  1.0455  0.0518
  120OSM   H13T12692   5.401   5.608   9.494  0.7205 -0.4089 -0.3125
  120OSM   C14S12693   5.541   5.766   9.440 -0.9364  0.0367  0.0750
  120OSM   H14S12694   5.620   5.691   9.417 -0.1128  0.5956  0.9542
  120OSM   H14T12695   5.596   5.843   9.498 -1.4462 -0.4068  1.1931
  120OSM   C15S12696   5.473   5.835   9.327  0.2314 -0.1715 -0.2343
  120OSM   H15S12697   5.430   5.930   9.365 -1.6982 -1.5728  1.2982
  120OSM   H15T12698   5.380   5.783   9.296 -0.9128  1.6306  0.0364
  120OSM   C16S12699   5.557   5.877   9.203 -0.1423  0.0689 -0.3849
  120OSM   H16S12700   5.598   5.783   9.160  0.2714 -0.1842  0.5232
  120OSM   H16T12701   5.644   5.938   9.235 -0.4868 -0.0830  0.9101
  120OSM   C17S12702   5.478   5.952   9.090 -0.0511 -0.1986 -0.5883
  120OSM   H17S12703   5.557   5.990   9.022  0.5988  0.6816  0.6143
  120OSM   H17T12704   5.421   6.040   9.129 -0.6411 -0.3755 -1.0442
  120OSM   C18S12705   5.368   5.871   9.021 -0.2115 -0.3693  0.4879
  120OSM   H18S12706   5.328   5.953   8.958  1.6972 -0.0031 -0.3151
  120OSM   H18T12707   5.289   5.828   9.086 -2.3104  1.3782 -0.7801
  120OSM   H18U12708   5.400   5.784   8.960 -1.4604  0.5117 -1.5124
  120OSM    C1F12709   5.481   5.202  10.357  0.1685  0.1603  0.0561
  120OSM     OF12710   5.389   5.139  10.405 -0.1574  0.0346 -0.4346
  120OSM    C2F12711   5.566   5.146  10.249 -0.0989 -0.0137  0.4378
  120OSM    H2F12712   5.647   5.084  10.293 -1.9261 -1.5081  1.9359
  120OSM    H2G12713   5.613   5.229  10.192 -0.7515  1.3252  1.7855
  120OSM    C3F12714   5.482   5.058  10.145  0.2763 -0.1460 -0.7789
  120OSM    H3F12715   5.398   5.126  10.121 -1.4141 -1.3646  1.3142
  120OSM    H3G12716   5.438   4.980  10.210 -0.6278  0.5650 -0.5237
  120OSM    C4F12717   5.555   5.001  10.017  0.5779  0.2160 -0.7972
  120OSM    H4F12718   5.492   4.914   9.986 -0.2907 -0.0164  1.4347
  120OSM    H4G12719   5.651   4.959  10.052  0.2094 -1.7924 -2.0142
  120OSM    C5F12720   5.598   5.101   9.912 -0.6715 -0.6467  0.0944
  120OSM    H5F12721   5.685   5.164   9.939 -1.7569  1.5062 -1.1155
  120OSM    H5G12722   5.517   5.173   9.887  0.7335  0.4745 -1.3862
  120OSM    C6F12723   5.631   5.033   9.775  0.3748  0.1570  0.2951
  120OSM    H6F12724   5.666   5.111   9.705  0.8887 -0.0302  0.3454
  120OSM    H6G12725   5.531   4.995   9.745  0.4888  0.8478 -1.0008
  120OSM    C7F12726   5.745   4.933   9.786  0.5448 -0.0659  0.2914
  120OSM    H7F12727   5.712   4.849   9.853  0.5757  0.0538  0.4572
  120OSM    H7G12728   5.837   4.973   9.833 -0.3847  3.5527 -0.7099
  120OSM    C8F12729   5.783   4.893   9.646 -0.3108 -0.3329 -0.1839
  120OSM    H8F12730   5.697   4.843   9.596 -0.8342  1.6470 -1.3407
  120OSM    H8G12731   5.870   4.825   9.657  1.1100  1.4880  0.1260
  120OSM    C9F12732   5.835   5.003   9.556  0.0137 -0.0654 -0.4074
  120OSM    H9F12733   5.875   5.093   9.605  1.7833 -0.9243 -0.2286
  120OSM   C10F12734   5.831   4.994   9.424  0.0166 -0.4733 -0.1728
  120OSM   H10F12735   5.871   5.082   9.371  1.0895  0.3209  1.8296
  120OSM   C11F12736   5.786   4.886   9.332 -0.3323  0.1431  0.2605
  120OSM   H11F12737   5.779   4.795   9.395 -1.3108 -0.1876 -0.2983
  120OSM   H11G12738   5.870   4.864   9.263 -2.9130 -4.4023 -1.9024
  120OSM   C12F12739   5.661   4.916   9.250 -0.1570  0.2631 -0.3858
  120OSM   H12F12740   5.678   5.008   9.191  0.3668  0.2029 -0.3334
  120OSM   H12G12741   5.575   4.933   9.319 -1.4681 -0.2227 -1.8526
  120OSM   C13F12742   5.623   4.810   9.147  0.1026 -0.2421 -0.2926
  120OSM   H13F12743   5.613   4.718   9.208 -2.3669 -0.7773 -1.3895
  120OSM   H13G12744   5.713   4.790   9.085  0.5379 -2.5707  0.9794
  120OSM   C14F12745   5.490   4.830   9.064 -0.4666 -0.6530  0.1149
  120OSM   H14F12746   5.495   4.934   9.025  2.7363 -0.3053  1.1317
  120OSM   H14G12747   5.404   4.816   9.133 -0.5441  0.8884  0.3682
  120OSM   C15F12748   5.475   4.739   8.944  0.0594 -0.1024 -0.6179
  120OSM   H15F12749   5.380   4.758   8.889 -0.9017  0.7917  1.2773
  120OSM   H15G12750   5.490   4.631   8.959  1.5799 -0.0644 -1.6020
  120OSM   C16F12751   5.583   4.776   8.841 -0.3646  0.2335 -0.0694
  120OSM   H16F12752   5.582   4.695   8.765 -0.5773  0.5994 -0.4621
  120OSM   H16G12753   5.681   4.790   8.892 -0.0136 -0.1621 -0.6208
  120OSM   C17F12754   5.558   4.908   8.759 -0.5846 -0.1025 -0.5238
  120OSM   H17F12755   5.642   4.912   8.687  0.1766  0.5863  0.3742
  120OSM   H17G12756   5.561   4.989   8.835 -0.6489 -1.9792  1.5658
  120OSM   C18F12757   5.424   4.919   8.682  0.9871  0.3978 -0.6416
  120OSM   H18F12758   5.430   5.013   8.624  2.8840 -0.2117 -1.5161
  120OSM   H18G12759   5.341   4.928   8.755  2.9238 -1.1917  1.9169
  120OSM   H18H12760   5.400   4.826   8.625  1.9727  0.0550 -0.5252
  121OSM      N12761   4.911   0.796  10.981 -0.4689 -0.1442 -0.9794
  121OSM    C1512762   4.937   0.906  11.075 -0.5700  0.3225  0.0405
  121OSM   H15A12763   4.900   1.001  11.040 -2.0509 -0.7849 -1.6408
  121OSM   H15B12764   5.043   0.912  11.094 -0.4702  0.6731 -0.6282
  121OSM   H15C12765   4.886   0.904  11.171  1.5118  2.9907  1.3341
  121OSM    C1412766   4.956   0.668  11.043 -0.2548  0.0368 -1.0730
  121OSM   H14A12767   4.915   0.588  10.983  1.4073 -1.4575 -0.2870
  121OSM   H14B12768   4.920   0.654  11.144  1.2551  1.9927 -0.2007
  121OSM   H14C12769   5.063   0.664  11.053 -0.4778 -0.3551  2.4709
  121OSM    C1312770   4.765   0.789  10.955  0.2082  0.6426  0.3000
  121OSM   H13A12771   4.708   0.773  11.045 -0.4533 -1.6217 -0.4498
  121OSM   H13B12772   4.738   0.716  10.880 -0.2163  2.1744 -1.0856
  121OSM   H13C12773   4.738   0.883  10.911  2.5348  1.2555  0.0394
  121OSM    C1212774   4.985   0.820  10.853 -0.8511 -0.2192 -0.1742
  121OSM   H12A12775   4.976   0.730  10.795 -1.9544  0.3836 -1.0013
  121OSM   H12B12776   5.090   0.837  10.871 -0.3316 -1.2959 -1.9461
  121OSM    C1112777   4.947   0.933  10.754  0.2464  0.5874  0.2571
  121OSM   H11A12778   4.843   0.905  10.725 -0.0073  0.5091  1.2084
  121OSM   H11B12779   5.008   0.935  10.662 -0.6594  0.7111 -0.3598
  121OSM      P12780   4.838   1.169  10.840 -0.3051  0.1764  0.1115
  121OSM    O1312781   4.795   1.166  10.976  0.4859 -0.1009  0.1299
  121OSM    O1412782   4.880   1.293  10.783 -0.5614  0.4018 -0.0089
  121OSM    O1112783   4.716   1.109  10.757 -0.3446  0.1397 -0.2124
  121OSM    O1212784   4.954   1.061  10.823  0.2029 -0.2049  0.1237
  121OSM    C1S12785   4.713   1.145  10.619  0.6140 -0.4943 -0.2880
  121OSM    H1S12786   4.812   1.136  10.571  1.7183  1.8705  1.3382
  121OSM    H1T12787   4.670   1.247  10.605  1.8765  0.4508  2.0754
  121OSM     NF12788   4.611   1.100  10.388  0.1889 -0.1736 -0.0807
  121OSM    HNF12789   4.544   1.172  10.374 -0.0052 -0.4014 -0.3321
  121OSM    C2S12790   4.612   1.058  10.533 -0.1132 -0.1535  0.6938
  121OSM    H2S12791   4.649   0.953  10.532 -3.7900 -1.5963  1.0677
  121OSM    C3S12792   4.468   1.053  10.588  0.0422  0.2072  0.6470
  121OSM    H3S12793   4.429   1.157  10.581  1.7451  0.9599  1.6120
  121OSM     O312794   4.466   1.026  10.727 -0.0483 -0.0455 -0.0670
  121OSM    HO312795   4.550   1.062  10.756  1.1597 -1.3389 -1.7354
  121OSM    C4S12796   4.373   0.947  10.529 -0.3138  0.3280 -0.3233
  121OSM    H4S12797   4.419   0.847  10.536  0.2259  0.6457  1.0898
  121OSM    C5S12798   4.259   0.970  10.474 -0.1118  0.8587 -0.1197
  121OSM    H5S12799   4.232   1.075  10.455  0.1129  0.7043 -1.3770
  121OSM    C6S12800   4.161   0.867  10.411 -0.1792 -0.4243  0.8185
  121OSM    H6S12801   4.061   0.872  10.458 -0.0645 -3.2172  1.5330
  121OSM    H6T12802   4.182   0.758  10.425  1.3196 -0.1842  0.5788
  121OSM    C7S12803   4.165   0.910  10.262  0.1080  0.5256  0.2246
  121OSM    H7S12804   4.131   1.014  10.249  1.0276  0.8053 -0.0142
  121OSM    H7T12805   4.101   0.841  10.204  2.0213  0.1171 -1.5062
  121OSM    C8S12806   4.302   0.885  10.193 -0.2592 -0.0177  0.0398
  121OSM    H8S12807   4.333   0.779  10.187  1.2378  0.4437 -1.1026
  121OSM    H8T12808   4.383   0.941  10.244  0.1164 -1.7254  1.3663
  121OSM    C9S12809   4.284   0.931  10.050 -0.2097  0.6788 -0.2992
  121OSM    H9S12810   4.255   1.038  10.045  0.2824  0.7914 -0.9695
  121OSM    H9T12811   4.206   0.864  10.007  0.3258  0.3999 -0.8627
  121OSM   C10S12812   4.406   0.910   9.961  0.5841  0.0970  0.1562
  121OSM   H10S12813   4.436   0.803   9.965 -0.8216 -0.3137  0.3891
  121OSM   H10T12814   4.488   0.974   9.998 -0.2815  0.7881  0.9095
  121OSM   C11S12815   4.376   0.933   9.811  0.2080 -0.3250 -0.5576
  121OSM   H11S12816   4.339   1.037   9.798  1.3663  0.3360  1.1714
  121OSM   H11T12817   4.285   0.873   9.790 -0.3623 -0.7797  2.6596
  121OSM   C12S12818   4.484   0.888   9.712 -0.1814  0.1266  0.2307
  121OSM   H12S12819   4.502   0.782   9.740 -0.8318  0.3449  1.5112
  121OSM   H12T12820   4.578   0.941   9.737 -0.8303  0.3038  2.4113
  121OSM   C13S12821   4.441   0.895   9.565  0.6240 -0.0618 -0.0552
  121OSM   H13S12822   4.428   1.004   9.549  1.2853  0.1606  0.8645
  121OSM   H13T12823   4.346   0.839   9.551  0.9109 -0.7155  0.5151
  121OSM   C14S12824   4.552   0.854   9.471 -0.4669 -0.8157 -0.0550
  121OSM   H14S12825   4.594   0.755   9.498  2.4833  0.0639 -0.9802
  121OSM   H14T12826   4.629   0.935   9.473 -2.6730  1.4609 -1.3530
  121OSM   C15S12827   4.502   0.832   9.330 -0.1491  0.3478 -0.3835
  121OSM   H15S12828   4.594   0.822   9.270 -0.4049  1.5822 -1.0230
  121OSM   H15T12829   4.459   0.919   9.275  0.8699  1.0888 -0.0337
  121OSM   C16S12830   4.416   0.715   9.309  0.6002 -0.0381 -0.4494
  121OSM   H16S12831   4.308   0.740   9.309  0.1392 -1.6751  1.8968
  121OSM   H16T12832   4.430   0.650   9.398  1.3064  2.6220  1.4836
  121OSM   C17S12833   4.447   0.623   9.196 -0.1424  0.1949 -0.2985
  121OSM   H17S12834   4.555   0.597   9.191 -0.1891 -0.3538  1.0182
  121OSM   H17T12835   4.428   0.669   9.097 -0.3573  2.0921  0.5862
  121OSM   C18S12836   4.373   0.486   9.209  0.4542  0.4374  0.3876
  121OSM   H18S12837   4.417   0.418   9.133 -0.0982  0.9134 -0.3770
  121OSM   H18T12838   4.262   0.491   9.198  0.2837 -2.0652  0.2953
  121OSM   H18U12839   4.409   0.440   9.304  4.2426 -0.1588 -1.1750
  121OSM    C1F12840   4.710   1.073  10.304 -0.0695  0.3534 -0.8737
  121OSM     OF12841   4.800   0.988  10.341 -0.0114 -0.3850 -0.8619
  121OSM    C2F12842   4.722   1.160  10.179  0.6392  0.0705 -0.3179
  121OSM    H2F12843   4.727   1.265  10.212 -0.7595  0.4969 -1.3819
  121OSM    H2G12844   4.627   1.140  10.125  0.5211  1.0102 -0.4739
  121OSM    C3F12845   4.845   1.128  10.091  0.0395 -0.8739  0.3116
  121OSM    H3F12846   4.942   1.136  10.144  0.2205 -3.2461  0.4168
  121OSM    H3G12847   4.837   1.206  10.012 -1.2072 -2.3466 -1.0602
  121OSM    C4F12848   4.838   0.999  10.010  0.0163 -0.2299  0.9735
  121OSM    H4F12849   4.736   0.991   9.966 -0.4120 -1.4650  2.1114
  121OSM    H4G12850   4.845   0.920  10.088  0.0519  0.6353  1.8642
  121OSM    C5F12851   4.945   0.997   9.905  0.0332 -0.4018  0.9948
  121OSM    H5F12852   5.046   1.019   9.946  0.9007 -1.1003 -0.6845
  121OSM    H5G12853   4.917   1.075   9.831 -0.0750 -1.7006 -0.3742
  121OSM    C6F12854   4.947   0.862   9.832  0.1408 -0.1365 -0.5842
  121OSM    H6F12855   4.849   0.839   9.786  0.4925 -0.2090 -1.3167
  121OSM    H6G12856   4.971   0.773   9.894 -0.6645  0.2075  0.2442
  121OSM    C7F12857   5.047   0.853   9.715 -0.6726  0.0209  0.3574
  121OSM    H7F12858   5.145   0.887   9.755 -0.9645 -0.0959  1.1902
  121OSM    H7G12859   5.035   0.919   9.627  0.8689 -2.1943 -1.6086
  121OSM    C8F12860   5.065   0.704   9.665  0.5064 -0.0977 -0.1302
  121OSM    H8F12861   5.085   0.643   9.756  3.1429 -0.6425 -0.9930
  121OSM    H8G12862   5.157   0.697   9.604  0.8305 -2.6502  0.5247
  121OSM    C9F12863   4.941   0.651   9.601  0.5206  0.1798  0.0485
  121OSM    H9F12864   4.857   0.638   9.670  1.3359 -0.0546  1.0344
  121OSM   C10F12865   4.908   0.653   9.471 -0.6406  0.6726 -1.0353
  121OSM   H10F12866   4.810   0.618   9.434 -0.3280 -1.5715  0.0564
  121OSM   C11F12867   5.001   0.695   9.363  0.7977  0.2858  0.1252
  121OSM   H11F12868   5.041   0.599   9.322 -1.7011 -0.4177 -0.8289
  121OSM   H11G12869   5.076   0.769   9.400  0.4694  0.2921  0.7983
  121OSM   C12F12870   4.933   0.762   9.238 -0.2649  0.2259  1.0060
  121OSM   H12F12871   5.014   0.816   9.184  0.9532 -1.9467  0.5374
  121OSM   H12G12872   4.855   0.835   9.268 -0.3539  1.6900 -2.3537
  121OSM   C13F12873   4.872   0.645   9.151  0.0210 -0.5796 -0.0957
  121OSM   H13F12874   4.787   0.599   9.205  0.7693 -2.3299 -0.3497
  121OSM   H13G12875   4.959   0.576   9.144  1.0672  0.6565  0.2117
  121OSM   C14F12876   4.837   0.683   9.007 -0.8504  0.2013 -0.3886
  121OSM   H14F12877   4.844   0.592   8.943 -3.1429  0.5137 -1.1937
  121OSM   H14G12878   4.917   0.747   8.966 -0.6610 -0.0184 -0.3640
  121OSM   C15F12879   4.706   0.745   8.999 -0.6519 -0.2870  0.3888
  121OSM   H15F12880   4.684   0.809   9.087  0.3442  1.2904 -0.4728
  121OSM   H15G12881   4.620   0.673   9.001 -1.5038  0.7094  0.6355
  121OSM   C16F12882   4.686   0.841   8.882 -0.5052 -0.4150 -0.0676
  121OSM   H16F12883   4.754   0.815   8.797 -2.0772 -0.6831 -1.2821
  121OSM   H16G12884   4.701   0.942   8.925 -2.3426  0.0608 -0.4947
  121OSM   C17F12885   4.540   0.845   8.828 -0.4503 -0.3771 -0.4141
  121OSM   H17F12886   4.473   0.877   8.912  0.5331 -0.6781  0.5061
  121OSM   H17G12887   4.504   0.748   8.788 -2.9764 -0.2581  1.2772
  121OSM   C18F12888   4.519   0.945   8.713 -0.2164  0.2068  0.1756
  121OSM   H18F12889   4.579   0.920   8.623 -0.0673  1.3434 -0.0617
  121OSM   H18G12890   4.546   1.048   8.746  0.2405 -0.2308  1.2361
  121OSM   H18H12891   4.412   0.938   8.685  0.0214 -0.5124 -0.5700
  122OSM      N12892   5.761   4.450  11.128 -0.4060 -0.2946 -0.0213
  122OSM    C1512893   5.682   4.414  11.249  0.8554 -0.4009 -0.3701
  122OSM   H15A12894   5.725   4.447  11.343 -1.1599  0.0563  0.4508
  122OSM   H15B12895   5.661   4.308  11.246  1.3595 -0.4792 -2.1215
  122OSM   H15C12896   5.586   4.463  11.245  1.6352  1.2978  0.3958
  122OSM    C1412897   5.740   4.606  11.105 -0.3245  0.1099 -0.0587
  122OSM   H14A12898   5.790   4.664  11.181 -1.3894  3.8615 -1.9644
  122OSM   H14B12899   5.634   4.629  11.108  0.0655  2.1896  3.3196
  122OSM   H14C12900   5.783   4.643  11.013  2.1760 -1.8818  0.2072
  122OSM    C1312901   5.910   4.423  11.163 -0.0727  0.2292  0.1964
  122OSM   H13A12902   5.933   4.328  11.209  0.1923  0.0039 -0.3878
  122OSM   H13B12903   5.968   4.493  11.220  2.4566 -2.6392  1.4221
  122OSM   H13C12904   5.962   4.426  11.068  2.2871  0.4336  1.4396
  122OSM    C1212905   5.716   4.367  11.012 -0.4660 -0.0399 -0.5290
  122OSM   H12A12906   5.608   4.376  11.017 -0.8329 -3.5780  0.5486
  122OSM   H12B12907   5.747   4.264  11.028  1.7787  0.5507 -0.7011
  122OSM    C1112908   5.778   4.413  10.877 -0.4288  0.5587  0.9229
  122OSM   H11A12909   5.748   4.515  10.845  1.3841  0.7856 -0.1964
  122OSM   H11B12910   5.736   4.340  10.805 -0.1598  1.2132  0.0956
  122OSM      P12911   6.003   4.494  10.793  0.2410 -0.0012 -0.4041
  122OSM    O1312912   5.990   4.625  10.859  0.1017 -0.3393 -0.4637
  122OSM    O1412913   6.137   4.434  10.777  0.6063 -0.6522 -0.1781
  122OSM    O1112914   5.938   4.499  10.650 -0.3453 -0.2381  0.4100
  122OSM    O1212915   5.917   4.384  10.877 -0.4915  0.2675  0.5275
  122OSM    C1S12916   5.920   4.627  10.577  0.1410 -0.5140  0.9720
  122OSM    H1S12917   6.013   4.688  10.569 -0.0627 -0.3731 -0.6267
  122OSM    H1T12918   5.833   4.683  10.617 -0.7355 -1.4282  0.3669
  122OSM     NF12919   5.879   4.687  10.346  0.0313  0.3107 -0.1434
  122OSM    HNF12920   5.790   4.720  10.316  0.1055 -0.2718 -1.0360
  122OSM    C2S12921   5.878   4.577  10.436  0.4128  1.0079  0.1265
  122OSM    H2S12922   5.959   4.504  10.413 -1.4004 -0.7738 -0.9476
  122OSM    C3S12923   5.739   4.505  10.431  0.3305 -0.7681  0.4536
  122OSM    H3S12924   5.662   4.583  10.448  0.1991 -0.3596 -1.6977
  122OSM     O312925   5.732   4.411  10.529 -0.3787  0.4627 -0.3344
  122OSM    HO312926   5.819   4.415  10.569  0.3786 -2.2517 -1.5003
  122OSM    C4S12927   5.711   4.446  10.296 -1.0935 -0.3450 -0.7673
  122OSM    H4S12928   5.780   4.371  10.255 -1.6763 -1.5631  0.4066
  122OSM    C5S12929   5.601   4.457  10.226 -0.2642  0.5780  0.2530
  122OSM    H5S12930   5.513   4.496  10.280 -0.3381 -1.7775  1.9721
  122OSM    C6S12931   5.579   4.401  10.091 -0.0332  0.5448  0.6984
  122OSM    H6S12932   5.474   4.364  10.084 -0.0979  0.9151 -0.7264
  122OSM    H6T12933   5.646   4.315  10.069  0.2967  1.5215 -2.6111
  122OSM    C7S12934   5.587   4.504   9.976 -0.5246  0.3733 -0.2470
  122OSM    H7S12935   5.687   4.553   9.976 -0.7402  0.8641 -1.7050
  122OSM    H7T12936   5.509   4.580  10.000  0.3334  1.7103 -1.5553
  122OSM    C8S12937   5.576   4.441   9.840  0.4006 -0.0268  0.2687
  122OSM    H8S12938   5.480   4.385   9.832  0.8001 -0.8204  0.8436
  122OSM    H8T12939   5.661   4.374   9.815 -1.2740 -1.9106 -0.6667
  122OSM    C9S12940   5.571   4.540   9.720  0.5325  0.1323  0.1342
  122OSM    H9S12941   5.663   4.602   9.718  0.6988 -0.1239 -0.3751
  122OSM    H9T12942   5.494   4.619   9.733 -2.2669 -2.1808 -1.2283
  122OSM   C10S12943   5.539   4.476   9.585 -0.0923  0.5039  0.1491
  122OSM   H10S12944   5.458   4.401   9.596  0.1483 -0.0760 -1.6431
  122OSM   H10T12945   5.629   4.416   9.558  0.4694  0.5044  1.9136
  122OSM   C11S12946   5.508   4.574   9.468 -0.6050 -0.1227 -0.5528
  122OSM   H11S12947   5.592   4.645   9.456  0.0526 -0.6839  0.5587
  122OSM   H11T12948   5.425   4.637   9.506 -1.9865 -0.8987 -2.1556
  122OSM   C12S12949   5.479   4.519   9.331 -0.6283  0.6289  0.4811
  122OSM   H12S12950   5.456   4.600   9.259  0.0726  2.0951  1.8502
  122OSM   H12T12951   5.396   4.448   9.349  1.6286 -1.8502  1.7980
  122OSM   C13S12952   5.597   4.435   9.271 -0.2849  0.1685  1.0538
  122OSM   H13S12953   5.616   4.354   9.345 -2.4595  0.4544  1.9868
  122OSM   H13T12954   5.695   4.486   9.257 -0.0760 -0.0414  1.7130
  122OSM   C14S12955   5.567   4.371   9.131 -0.1280 -0.3846  1.0546
  122OSM   H14S12956   5.523   4.447   9.063 -0.4316 -0.7787  0.8132
  122OSM   H14T12957   5.480   4.308   9.157 -0.9411  1.1053  2.0926
  122OSM   C15S12958   5.673   4.277   9.069 -0.0613  0.3703 -1.0170
  122OSM   H15S12959   5.709   4.209   9.149  1.8669  1.0960 -1.2079
  122OSM   H15T12960   5.771   4.326   9.051  1.0266 -1.0764  0.6115
  122OSM   C16S12961   5.615   4.197   8.957  0.0804  0.7736 -0.3663
  122OSM   H16S12962   5.576   4.268   8.880 -0.9739  0.3600 -0.2344
  122OSM   H16T12963   5.543   4.121   8.995  0.3139  1.5296  1.7272
  122OSM   C17S12964   5.718   4.109   8.883  0.3744 -0.2775  0.3890
  122OSM   H17S12965   5.780   4.053   8.957  0.3729 -0.3684  0.3220
  122OSM   H17T12966   5.786   4.179   8.832  0.0939 -0.5228 -0.3273
  122OSM   C18S12967   5.658   4.013   8.784  0.2515 -0.1471  1.0061
  122OSM   H18S12968   5.750   3.961   8.750  1.3809  3.1232 -1.3706
  122OSM   H18T12969   5.602   4.058   8.700  0.5136  2.8326  2.2924
  122OSM   H18U12970   5.589   3.937   8.827 -2.8080  1.2671 -1.0137
  122OSM    C1F12971   5.986   4.759  10.314  0.2658 -0.5778 -1.0499
  122OSM     OF12972   6.096   4.716  10.352 -0.4274  0.6076  0.0607
  122OSM    C2F12973   5.963   4.892  10.247 -0.2272 -0.5465 -0.1264
  122OSM    H2F12974   6.036   4.968  10.284  1.7502 -2.2711 -0.2664
  122OSM    H2G12975   5.867   4.936  10.281  1.2948  2.4884  0.5395
  122OSM    C3F12976   5.959   4.869  10.090  0.1574 -0.5117  0.3266
  122OSM    H3F12977   5.931   4.964  10.040 -0.8884 -0.0405  1.7477
  122OSM    H3G12978   5.895   4.784  10.056  1.7600 -1.1960 -1.1801
  122OSM    C4F12979   6.096   4.817  10.034  0.0659 -0.3257  0.5481
  122OSM    H4F12980   6.126   4.717  10.073  1.3504  0.4557  1.6590
  122OSM    H4G12981   6.180   4.883  10.065  0.3242 -0.4142  0.0533
  122OSM    C5F12982   6.085   4.827   9.879  0.0961  0.3398  0.4052
  122OSM    H5F12983   6.036   4.924   9.856 -1.1949 -0.2808  0.4680
  122OSM    H5G12984   6.009   4.750   9.852  0.6225 -0.3302  0.8177
  122OSM    C6F12985   6.218   4.801   9.809  0.6488  0.2442 -0.1133
  122OSM    H6F12986   6.268   4.718   9.863  1.0779  0.7679  0.3039
  122OSM    H6G12987   6.288   4.888   9.810  2.3394 -1.0574 -0.1832
  122OSM    C7F12988   6.205   4.760   9.660  0.3257  0.3774  0.1189
  122OSM    H7F12989   6.145   4.668   9.648  3.3219 -1.8038  0.6529
  122OSM    H7G12990   6.308   4.729   9.630  0.8011  1.0513  0.9942
  122OSM    C8F12991   6.158   4.877   9.578  0.5326 -0.0750  0.2617
  122OSM    H8F12992   6.235   4.954   9.600  0.4687  0.5412 -1.4975
  122OSM    H8G12993   6.061   4.911   9.619  1.2279  0.2056  1.7261
  122OSM    C9F12994   6.135   4.843   9.436  0.0500 -0.3527 -0.1807
  122OSM    H9F12995   6.040   4.799   9.403 -0.7188  3.5551 -4.0494
  122OSM   C10F12996   6.214   4.885   9.338  0.4562  0.1313 -0.3182
  122OSM   H10F12997   6.201   4.833   9.242 -0.9748  0.6558 -0.4357
  122OSM   C11F12998   6.329   4.989   9.352  0.4565  0.8483  0.6202
  122OSM   H11F12999   6.427   4.939   9.340 -1.4439 -3.2558  0.2877
  122OSM   H11G13000   6.322   5.041   9.450 -0.2217 -0.6150  1.3813
  122OSM   C12F13001   6.319   5.091   9.237  0.4777 -0.1005 -0.2681
  122OSM   H12F13002   6.226   5.152   9.235  0.6884  0.2121 -1.4575
  122OSM   H12G13003   6.330   5.035   9.141 -1.9816  2.4264 -2.1949
  122OSM   C13F13004   6.437   5.195   9.245 -0.1523  0.3118 -0.4353
  122OSM   H13F13005   6.523   5.126   9.258 -2.3127 -2.6015 -0.6133
  122OSM   H13G13006   6.426   5.248   9.342  1.4256  1.3613 -0.8020
  122OSM   C14F13007   6.451   5.294   9.128  0.6499  0.4158 -0.0588
  122OSM   H14F13008   6.509   5.375   9.178  1.9710 -0.9398  0.6889
  122OSM   H14G13009   6.352   5.325   9.090  0.4718 -0.2866 -0.1773
  122OSM   C15F13010   6.546   5.244   9.024 -1.0142 -0.8467  0.2250
  122OSM   H15F13011   6.624   5.180   9.071 -0.1565  0.2177  0.2991
  122OSM   H15G13012   6.591   5.340   8.992 -1.4048 -0.5909  0.4344
  122OSM   C16F13013   6.492   5.185   8.899  0.7475  0.4519  0.2183
  122OSM   H16F13014   6.424   5.103   8.926  0.7459 -0.5458 -2.4860
  122OSM   H16G13015   6.574   5.142   8.838 -0.1965 -0.4478 -0.4381
  122OSM   C17F13016   6.408   5.287   8.824  0.0575 -0.4884 -0.4042
  122OSM   H17F13017   6.465   5.380   8.802  0.1106  0.0214  1.6705
  122OSM   H17G13018   6.327   5.331   8.885  1.7648 -0.4508  1.9733
  122OSM   C18F13019   6.354   5.225   8.691 -0.2972  0.3281 -0.0630
  122OSM   H18F13020   6.268   5.159   8.715  0.4030 -1.0126 -1.1086
  122OSM   H18G13021   6.416   5.161   8.625  0.4591 -0.8028  1.6615
  122OSM   H18H13022   6.313   5.317   8.644 -0.7406  2.0010  3.3122
  123OSM      N13023   0.459   0.534   6.229  0.3908  0.2264 -0.1153
  123OSM    C1513024   0.561   0.468   6.134  0.3397 -0.0318 -0.0953
  123OSM   H15A13025   0.516   0.477   6.037 -2.2834 -2.9455  0.6906
  123OSM   H15B13026   0.594   0.370   6.164  0.2145  0.2380  1.0067
  123OSM   H15C13027   0.653   0.523   6.124  0.9613 -0.7828  1.2381
  123OSM    C1413028   0.336   0.449   6.207 -0.2328 -0.5882  0.1873
  123OSM   H14A13029   0.359   0.347   6.233 -0.0839 -0.6662 -0.2390
  123OSM   H14B13030   0.291   0.464   6.110  0.7870 -2.5861 -0.6391
  123OSM   H14C13031   0.255   0.476   6.273 -1.0833 -1.7371 -0.3494
  123OSM    C1313032   0.513   0.522   6.365  0.6665  0.3789  0.1602
  123OSM   H13A13033   0.437   0.563   6.430  0.0283  2.3190 -1.6964
  123OSM   H13B13034   0.594   0.593   6.373  1.3247 -0.0270 -2.1424
  123OSM   H13C13035   0.547   0.423   6.392 -0.4315  0.5609  2.4081
  123OSM    C1213036   0.444   0.684   6.193 -0.0318  0.5287 -0.0437
  123OSM   H12A13037   0.541   0.728   6.206  0.9593 -1.9637  1.8502
  123OSM   H12B13038   0.372   0.717   6.267 -0.7473 -2.1373  0.5713
  123OSM    C1113039   0.389   0.725   6.056  0.2588 -0.6156  0.3843
  123OSM   H11A13040   0.300   0.662   6.034 -0.6916 -0.3100  2.9352
  123OSM   H11B13041   0.465   0.700   5.980  0.9273 -1.7019  1.3718
  123OSM      P13042   0.455   0.978   6.067 -0.4423 -0.0561  0.3464
  123OSM    O1313043   0.577   0.919   6.120 -0.0658  0.3296 -0.7299
  123OSM    O1413044   0.467   1.043   5.932  0.4609 -0.0416  0.4044
  123OSM    O1113045   0.388   1.077   6.170 -0.8889 -0.2955 -0.0691
  123OSM    O1213046   0.340   0.864   6.056 -0.9187 -0.4925  0.3126
  123OSM    C1S13047   0.330   1.029   6.290  0.3967  0.0257 -0.0518
  123OSM    H1S13048   0.310   0.920   6.284  0.1605  0.1316 -1.4371
  123OSM    H1T13049   0.232   1.077   6.309  0.4236  0.2408 -0.4552
  123OSM     NF13050   0.351   1.001   6.537  0.0870 -0.1393  0.3573
  123OSM    HNF13051   0.309   1.065   6.601 -0.5987 -0.4940  0.2674
  123OSM    C2S13052   0.414   1.062   6.419 -0.3672 -0.2291 -0.8267
  123OSM    H2S13053   0.518   1.022   6.414  0.4375  1.5755  0.5311
  123OSM    C3S13054   0.432   1.214   6.443  0.8385  0.0585 -0.6068
  123OSM    H3S13055   0.342   1.258   6.492  1.8241 -0.1954  1.5275
  123OSM     O313056   0.448   1.280   6.320  0.0470  0.8794 -0.3127
  123OSM    HO313057   0.418   1.218   6.254  2.0694 -0.0345 -0.4528
  123OSM    C4S13058   0.542   1.245   6.551  0.9645  0.2372 -0.0705
  123OSM    H4S13059   0.498   1.248   6.652 -0.0855  0.9081 -0.5224
  123OSM    C5S13060   0.674   1.274   6.533  0.3917  0.0242 -0.7172
  123OSM    H5S13061   0.704   1.292   6.429 -1.0248 -0.3273 -1.2099
  123OSM    C6S13062   0.781   1.295   6.643  0.9792 -0.2240  0.2742
  123OSM    H6S13063   0.820   1.399   6.643 -0.8436  0.4990  0.0615
  123OSM    H6T13064   0.855   1.214   6.628  0.8002 -0.5030  0.8617
  123OSM    C7S13065   0.723   1.277   6.785  0.0360  0.2955 -0.0142
  123OSM    H7S13066   0.663   1.184   6.794  0.2873  0.1806  0.5504
  123OSM    H7T13067   0.650   1.357   6.808 -2.1136 -2.0542  1.9156
  123OSM    C8S13068   0.846   1.245   6.879 -0.1419  0.5558  0.1900
  123OSM    H8S13069   0.924   1.324   6.870  1.7573 -0.9448  2.2692
  123OSM    H8T13070   0.887   1.149   6.840 -2.9597 -0.7815  0.2839
  123OSM    C9S13071   0.812   1.203   7.020  0.4946  0.5519 -0.6482
  123OSM    H9S13072   0.882   1.136   7.074 -0.4507  1.5188  1.9724
  123OSM    H9T13073   0.720   1.140   7.019  0.4889  0.4302  1.8021
  123OSM   C10S13074   0.786   1.325   7.112 -0.1075  0.3220  0.1256
  123OSM   H10S13075   0.686   1.367   7.086  0.3833  1.2314 -0.3223
  123OSM   H10T13076   0.871   1.396   7.098  0.4499 -0.5146 -0.7968
  123OSM   C11S13077   0.787   1.292   7.262  0.2709 -0.5360 -0.4898
  123OSM   H11S13078   0.767   1.385   7.319 -0.9804 -1.6266  0.9422
  123OSM   H11T13079   0.891   1.271   7.295 -0.1079  0.4860  1.4972
  123OSM   C12S13080   0.693   1.172   7.306 -0.4590 -0.2738  0.8207
  123OSM   H12S13081   0.707   1.086   7.237 -0.2212  0.7274 -0.4159
  123OSM   H12T13082   0.594   1.221   7.299 -0.7069 -0.7393  1.1314
  123OSM   C13S13083   0.726   1.112   7.447  0.1577  0.0499  0.4260
  123OSM   H13S13084   0.749   1.199   7.511 -0.7523  0.7747 -0.2089
  123OSM   H13T13085   0.811   1.041   7.435 -0.2358 -0.2202 -1.0853
  123OSM   C14S13086   0.605   1.049   7.503  0.5219  0.0992  0.6845
  123OSM   H14S13087   0.593   0.955   7.445  1.1327  1.1956 -1.2970
  123OSM   H14T13088   0.519   1.120   7.500  1.2404  0.9570 -0.3490
  123OSM   C15S13089   0.636   1.015   7.652  0.5351  0.5444  0.0764
  123OSM   H15S13090   0.538   0.981   7.691  0.9765 -1.8295 -0.7361
  123OSM   H15T13091   0.658   1.109   7.708  2.5430  0.2638 -0.1662
  123OSM   C16S13092   0.741   0.909   7.679 -0.0401 -0.7078  0.7783
  123OSM   H16S13093   0.829   0.957   7.728  0.9734 -2.8506  1.1915
  123OSM   H16T13094   0.778   0.889   7.577  0.7166  1.9338  0.4534
  123OSM   C17S13095   0.700   0.786   7.760  0.4054 -0.0376  0.2126
  123OSM   H17S13096   0.595   0.764   7.733  0.3711  0.9153 -0.5180
  123OSM   H17T13097   0.687   0.821   7.865 -2.4608 -0.3387  0.0368
  123OSM   C18S13098   0.796   0.666   7.757 -0.2865  0.2454 -0.5077
  123OSM   H18S13099   0.782   0.590   7.837 -0.3909 -0.7991 -1.4876
  123OSM   H18T13100   0.896   0.714   7.758 -0.6500  1.2397  3.4250
  123OSM   H18U13101   0.795   0.614   7.658 -0.3304 -0.5518 -0.1014
  123OSM    C1F13102   0.324   0.873   6.545  0.5820 -0.2818 -0.7199
  123OSM     OF13103   0.400   0.792   6.508  0.0835  0.3284 -0.1297
  123OSM    C2F13104   0.196   0.831   6.611  0.0254 -0.5398 -0.1766
  123OSM    H2F13105   0.115   0.814   6.537  1.1281 -1.9909 -1.1185
  123OSM    H2G13106   0.179   0.915   6.682  1.0690 -2.0392  1.9689
  123OSM    C3F13107   0.213   0.697   6.693  0.4916 -0.2249 -0.2138
  123OSM    H3F13108   0.269   0.628   6.627  1.9796  1.1394 -0.4077
  123OSM    H3G13109   0.113   0.658   6.725  0.0432  1.2891  0.3010
  123OSM    C4F13110   0.294   0.708   6.818  0.5675 -0.2118 -0.7012
  123OSM    H4F13111   0.369   0.787   6.795 -0.7323  0.4403 -3.1258
  123OSM    H4G13112   0.361   0.624   6.843  1.0091 -0.0688 -1.3652
  123OSM    C5F13113   0.202   0.734   6.943 -0.4696  0.2674  0.2229
  123OSM    H5F13114   0.125   0.655   6.951  0.0075 -0.3129 -0.7414
  123OSM    H5G13115   0.159   0.835   6.926  0.0073  0.2177 -1.4242
  123OSM    C6F13116   0.284   0.748   7.071 -0.0526 -0.0378 -0.0740
  123OSM    H6F13117   0.341   0.843   7.060  2.1090 -1.4191 -1.7389
  123OSM    H6G13118   0.335   0.652   7.096 -0.7261 -0.6460 -0.9743
  123OSM    C7F13119   0.179   0.772   7.186 -0.1992 -0.3812  0.3271
  123OSM    H7F13120   0.099   0.694   7.183 -1.6972  0.9511 -4.9355
  123OSM    H7G13121   0.131   0.869   7.161 -0.6072 -0.9441 -1.2219
  123OSM    C8F13122   0.252   0.793   7.324 -0.1666  0.4963  0.7432
  123OSM    H8F13123   0.178   0.833   7.396 -0.6333  1.2514 -0.1266
  123OSM    H8G13124   0.334   0.866   7.306  0.3113 -0.1732  0.1632
  123OSM    C9F13125   0.322   0.669   7.374 -0.1790 -0.3985  0.3230
  123OSM    H9F13126   0.397   0.629   7.304 -0.6209  2.0306 -1.6842
  123OSM   C10F13127   0.295   0.605   7.489 -0.1456  0.0945 -0.7143
  123OSM   H10F13128   0.360   0.519   7.508  0.9369  0.9327 -0.5439
  123OSM   C11F13129   0.200   0.643   7.598  0.6458 -0.1355  0.9812
  123OSM   H11F13130   0.101   0.606   7.565  1.0917  1.2608 -2.3693
  123OSM   H11G13131   0.191   0.752   7.615 -0.8674  0.0736 -0.8614
  123OSM   C12F13132   0.224   0.569   7.732 -0.6438 -0.3552 -0.0986
  123OSM   H12F13133   0.237   0.459   7.731  1.2374 -0.1676 -0.3441
  123OSM   H12G13134   0.146   0.589   7.808  0.7507  3.9436  0.4807
  123OSM   C13F13135   0.333   0.632   7.823  0.2905  0.0508  0.3138
  123OSM   H13F13136   0.400   0.680   7.749 -3.3260  0.3054 -3.0917
  123OSM   H13G13137   0.400   0.561   7.877  0.7038  1.6239  2.0090
  123OSM   C14F13138   0.278   0.729   7.925  0.1198  0.4947 -0.2874
  123OSM   H14F13139   0.220   0.662   7.992  0.8527 -0.2386 -0.3695
  123OSM   H14G13140   0.214   0.805   7.876 -0.4712  0.5255  0.5299
  123OSM   C15F13141   0.381   0.821   7.996  0.4063 -0.2201 -0.6708
  123OSM   H15F13142   0.399   0.910   7.931 -1.1884 -0.1793 -1.0905
  123OSM   H15G13143   0.478   0.771   8.018 -0.2050  0.2552  4.1809
  123OSM   C16F13144   0.322   0.876   8.126  0.7132 -0.8502  0.0747
  123OSM   H16F13145   0.299   0.788   8.190 -3.9351 -0.6868 -0.9886
  123OSM   H16G13146   0.225   0.925   8.103  0.7522 -0.4121  0.8424
  123OSM   C17F13147   0.410   0.970   8.200 -0.4554 -0.2740  0.0165
  123OSM   H17F13148   0.416   1.065   8.143 -0.7505  0.2098  0.7763
  123OSM   H17G13149   0.513   0.930   8.215  0.0074  1.2503  1.1626
  123OSM   C18F13150   0.352   1.002   8.341  0.2357  0.0888 -0.2485
  123OSM   H18F13151   0.415   1.074   8.399  0.6723  0.9423 -1.7125
  123OSM   H18G13152   0.351   0.909   8.402 -2.3800  0.8138  0.9650
  123OSM   H18H13153   0.248   1.041   8.341  0.8998  1.9652 -1.1486
  124OSM      N13154   2.714   3.547   6.069  0.3354 -0.6487 -0.3795
  124OSM    C1513155   2.579   3.524   6.119 -0.2581  0.3064  0.0424
  124OSM   H15A13156   2.526   3.609   6.078  1.3986  0.2796 -2.3989
  124OSM   H15B13157   2.569   3.526   6.226  0.8914 -1.6089  0.2338
  124OSM   H15C13158   2.540   3.430   6.082 -0.4026  0.4602 -0.1990
  124OSM    C1413159   2.704   3.513   5.917 -0.0465 -0.7016  0.4063
  124OSM   H14A13160   2.672   3.604   5.867 -2.3834 -1.4905  0.3571
  124OSM   H14B13161   2.637   3.432   5.896 -0.3909 -0.3737  0.2169
  124OSM   H14C13162   2.808   3.501   5.889 -0.5059 -1.7864 -0.9132
  124OSM    C1313163   2.752   3.683   6.097 -0.2245 -0.5331  0.6611
  124OSM   H13A13164   2.690   3.752   6.042 -0.9018 -2.4857 -1.1655
  124OSM   H13B13165   2.855   3.709   6.079 -0.4186 -0.1143  0.1475
  124OSM   H13C13166   2.741   3.708   6.202  0.0365 -1.2695  0.8680
  124OSM    C1213167   2.819   3.448   6.123 -0.3106 -0.2171 -0.2211
  124OSM   H12A13168   2.899   3.444   6.052 -0.2991  0.8124 -0.2806
  124OSM   H12B13169   2.777   3.349   6.117 -0.1450 -0.3018 -0.0192
  124OSM    C1113170   2.873   3.459   6.269 -0.7213 -0.4013  0.0151
  124OSM   H11A13171   2.925   3.556   6.274  0.2479 -0.8058 -1.4176
  124OSM   H11B13172   2.941   3.373   6.287  1.5073  1.1164 -0.7208
  124OSM      P13173   2.684   3.330   6.390  0.0255  0.0409  0.3675
  124OSM    O1313174   2.554   3.353   6.459 -0.2050 -0.1465 -0.1743
  124OSM    O1413175   2.680   3.252   6.267  0.1724 -0.6204  0.5239
  124OSM    O1113176   2.780   3.257   6.492 -0.2796  0.7405  0.2180
  124OSM    O1213177   2.761   3.463   6.357  0.2141 -0.3111 -0.2020
  124OSM    C1S13178   2.838   3.331   6.594  0.1848  0.4473 -0.5512
  124OSM    H1S13179   2.838   3.439   6.571  0.6878  0.3381 -1.0838
  124OSM    H1T13180   2.945   3.302   6.596  0.6957  2.2553 -0.4800
  124OSM     NF13181   2.827   3.398   6.827 -0.3052  0.7703  0.1160
  124OSM    HNF13182   2.891   3.361   6.894 -0.6084 -2.7506 -1.3223
  124OSM    C2S13183   2.781   3.298   6.734 -0.1836  0.4269 -0.2198
  124OSM    H2S13184   2.671   3.299   6.717 -0.1117 -1.0526 -0.9960
  124OSM    C3S13185   2.822   3.152   6.782  0.0898  0.0559  0.1785
  124OSM    H3S13186   2.932   3.143   6.795  0.3102 -0.0055 -1.4955
  124OSM     O313187   2.798   3.053   6.680 -0.4078 -0.3330  0.1797
  124OSM    HO313188   2.787   3.107   6.601  0.2079 -1.0549 -0.4148
  124OSM    C4S13189   2.768   3.122   6.922  0.7260 -0.3220  0.5824
  124OSM    H4S13190   2.846   3.111   7.000 -1.3091 -1.0317  2.6542
  124OSM    C5S13191   2.641   3.085   6.946 -0.8320 -0.4962  0.2809
  124OSM    H5S13192   2.571   3.075   6.862  0.8007  1.4359 -1.4219
  124OSM    C6S13193   2.591   3.042   7.077  0.6668  0.2640  1.0968
  124OSM    H6S13194   2.522   2.958   7.050 -1.0075  2.2326 -1.2311
  124OSM    H6T13195   2.521   3.118   7.117  0.5411  0.0603  1.2711
  124OSM    C7S13196   2.690   3.009   7.188  0.6577  0.2164  0.0810
  124OSM    H7S13197   2.768   3.088   7.196  1.1814 -0.3493  0.6656
  124OSM    H7T13198   2.742   2.911   7.174 -1.1457 -0.5294 -2.0635
  124OSM    C8S13199   2.609   3.002   7.318 -0.3762  0.6841 -0.4400
  124OSM    H8S13200   2.519   2.938   7.322  0.2024 -0.0888  1.4928
  124OSM    H8T13201   2.576   3.107   7.333  0.3712  0.8204  0.3564
  124OSM    C9S13202   2.691   2.972   7.445 -0.3132  0.5524  0.0264
  124OSM    H9S13203   2.788   3.026   7.447 -0.3566  0.6116  1.3316
  124OSM    H9T13204   2.720   2.864   7.444 -3.3415 -0.3990  1.9659
  124OSM   C10S13205   2.622   2.994   7.580  0.7962 -0.1382 -0.5478
  124OSM   H10S13206   2.526   2.940   7.573  1.1337 -0.8517  0.1338
  124OSM   H10T13207   2.604   3.103   7.592  2.5893  0.1329  0.0631
  124OSM   C11S13208   2.701   2.952   7.699 -0.4160 -0.3283  0.1042
  124OSM   H11S13209   2.792   3.014   7.707 -0.3136 -0.5807  0.9805
  124OSM   H11T13210   2.736   2.848   7.678  0.1648 -0.6178  2.2853
  124OSM   C12S13211   2.619   2.949   7.829 -0.0841 -0.1238 -0.1142
  124OSM   H12S13212   2.534   2.878   7.823 -0.6389  0.4763  0.5907
  124OSM   H12T13213   2.586   3.053   7.848  1.0194  0.3184 -0.5220
  124OSM   C13S13214   2.704   2.898   7.946 -0.2694 -0.7127 -0.2354
  124OSM   H13S13215   2.805   2.941   7.935 -0.3355  0.0442  1.8336
  124OSM   H13T13216   2.717   2.787   7.953 -0.3350 -0.7660 -0.8907
  124OSM   C14S13217   2.646   2.936   8.083  0.3438  0.1177 -0.1630
  124OSM   H14S13218   2.697   2.878   8.163 -0.7131  1.3241  1.4569
  124OSM   H14T13219   2.544   2.892   8.083  1.4251 -2.9976  3.4118
  124OSM   C15S13220   2.640   3.078   8.113  0.7506  0.1927 -0.2490
  124OSM   H15S13221   2.573   3.090   8.201  1.6769  3.0538  0.1689
  124OSM   H15T13222   2.582   3.132   8.036  1.1874 -2.3789 -2.5521
  124OSM   C16S13223   2.764   3.145   8.151 -0.9004 -0.2982 -0.1146
  124OSM   H16S13224   2.836   3.154   8.066 -0.6154 -1.8430 -0.0648
  124OSM   H16T13225   2.819   3.103   8.238  0.6858  2.5460  0.3801
  124OSM   C17S13226   2.737   3.287   8.191 -0.1701  0.0656  0.4900
  124OSM   H17S13227   2.677   3.288   8.285  1.3728  1.9551  1.5271
  124OSM   H17T13228   2.676   3.334   8.111  2.0416  0.5288 -1.0157
  124OSM   C18S13229   2.867   3.361   8.217  0.2781  0.0628  0.5666
  124OSM   H18S13230   2.947   3.354   8.140  0.4570 -1.0997  0.8449
  124OSM   H18T13231   2.904   3.338   8.319 -0.0107  0.4574  0.7617
  124OSM   H18U13232   2.833   3.467   8.220  0.4149  0.1306 -0.1554
  124OSM    C1F13233   2.799   3.532   6.829  0.2457 -0.4881  0.3610
  124OSM     OF13234   2.730   3.577   6.743 -0.5431 -0.5344  0.8779
  124OSM    C2F13235   2.850   3.621   6.935 -0.9718 -0.0470 -0.2564
  124OSM    H2F13236   2.921   3.696   6.894  0.6012 -1.1594  0.3535
  124OSM    H2G13237   2.902   3.555   7.007 -0.5278 -0.4811 -0.9650
  124OSM    C3F13238   2.740   3.700   7.000 -0.6073 -0.2637  0.0441
  124OSM    H3F13239   2.687   3.771   6.932 -2.5171  0.3491  2.0572
  124OSM    H3G13240   2.779   3.753   7.089 -2.0854 -0.2473  0.7204
  124OSM    C4F13241   2.630   3.602   7.055 -0.0795 -0.2740 -0.0012
  124OSM    H4F13242   2.574   3.537   6.984 -3.3778 -0.2473  2.3191
  124OSM    H4G13243   2.555   3.679   7.083  1.6188  0.6045  2.4555
  124OSM    C5F13244   2.666   3.491   7.160  0.7007 -1.0152 -0.5136
  124OSM    H5F13245   2.738   3.416   7.120 -0.2166 -2.1507 -0.0883
  124OSM    H5G13246   2.572   3.433   7.175 -0.4147  0.8650  0.1338
  124OSM    C6F13247   2.731   3.539   7.291  0.2655  0.2087 -0.1212
  124OSM    H6F13248   2.661   3.597   7.355  2.3432  4.6192 -1.5007
  124OSM    H6G13249   2.818   3.602   7.264 -0.5448  0.6987 -1.6458
  124OSM    C7F13250   2.783   3.416   7.369  0.6891 -0.3099 -1.2357
  124OSM    H7F13251   2.876   3.388   7.316  1.7755  1.4697 -0.3567
  124OSM    H7G13252   2.710   3.332   7.373  0.8950 -0.4554 -0.0774
  124OSM    C8F13253   2.817   3.437   7.522 -0.2683  1.0774  0.1120
  124OSM    H8F13254   2.854   3.338   7.553 -0.9500  0.5529 -0.7113
  124OSM    H8G13255   2.725   3.462   7.580 -1.4381  0.3794 -1.3831
  124OSM    C9F13256   2.923   3.539   7.538  0.2863  0.4785  0.0042
  124OSM    H9F13257   2.948   3.600   7.450 -0.4922  0.2628 -0.3718
  124OSM   C10F13258   2.986   3.556   7.654 -0.0102 -0.1244  0.2948
  124OSM   H10F13259   3.054   3.642   7.663  2.0285 -1.8511  2.9441
  124OSM   C11F13260   2.955   3.488   7.781 -0.0230  0.0810 -1.0350
  124OSM   H11F13261   3.049   3.469   7.838  0.0431 -0.9045 -1.4636
  124OSM   H11G13262   2.910   3.391   7.751 -1.3533  0.0285  0.9569
  124OSM   C12F13263   2.853   3.554   7.876 -0.1403  0.8712  0.8791
  124OSM   H12F13264   2.822   3.469   7.940 -1.4867 -0.9531 -1.9824
  124OSM   H12G13265   2.761   3.583   7.821 -0.4682  0.5999  1.2763
  124OSM   C13F13266   2.924   3.650   7.968  1.0804  0.3882  0.1894
  124OSM   H13F13267   2.960   3.737   7.910 -0.7655  0.7206 -0.5084
  124OSM   H13G13268   3.006   3.597   8.022  0.6873 -0.9558 -0.4706
  124OSM   C14F13269   2.822   3.699   8.072 -0.2248  0.3397 -0.8479
  124OSM   H14F13270   2.761   3.618   8.118  1.5875 -1.1778 -1.0174
  124OSM   H14G13271   2.735   3.757   8.033 -3.0615 -2.5227  0.7598
  124OSM   C15F13272   2.888   3.779   8.179  0.3913  0.0636  0.9825
  124OSM   H15F13273   2.949   3.858   8.129 -1.0014  1.1679  0.9837
  124OSM   H15G13274   2.956   3.711   8.234  0.3254 -1.6219 -0.9108
  124OSM   C16F13275   2.788   3.831   8.280 -0.0248  0.5426  0.4964
  124OSM   H16F13276   2.746   3.743   8.333  1.8621 -0.4947  0.3644
  124OSM   H16G13277   2.718   3.896   8.223 -1.1808  0.8011  2.1456
  124OSM   C17F13278   2.862   3.903   8.392 -0.3000 -0.5171  0.2370
  124OSM   H17F13279   2.921   3.980   8.339  1.7393 -0.6875  2.1217
  124OSM   H17G13280   2.933   3.834   8.443 -0.0882 -0.2913  0.2467
  124OSM   C18F13281   2.771   3.947   8.505  0.1818  0.1925 -0.2879
  124OSM   H18F13282   2.701   4.022   8.463 -0.3016  0.1905  0.4835
  124OSM   H18G13283   2.826   3.980   8.596 -1.5885  0.4544  0.7261
  124OSM   H18H13284   2.707   3.863   8.539 -1.0631  1.0204 -0.5004
  125OSM      N13285   2.683   4.518   6.461  0.0032  0.2390 -1.1296
  125OSM    C1513286   2.834   4.483   6.468  0.1254  0.0423  0.3946
  125OSM   H15A13287   2.866   4.400   6.407 -0.2015  1.0478 -1.2209
  125OSM   H15B13288   2.876   4.482   6.568  0.0342  1.3957  0.4732
  125OSM   H15C13289   2.892   4.555   6.412  0.0619 -0.7220 -0.6830
  125OSM    C1413290   2.608   4.419   6.538 -0.1727  0.6865  0.1759
  125OSM   H14A13291   2.656   4.394   6.632 -2.1042  0.9361  1.2847
  125OSM   H14B13292   2.594   4.332   6.476  1.3249 -0.3528  1.2156
  125OSM   H14C13293   2.505   4.445   6.558 -0.9559 -1.5351 -0.6023
  125OSM    C1313294   2.661   4.660   6.517 -0.2206  0.7811  0.0735
  125OSM   H13A13295   2.649   4.727   6.434 -1.3046 -0.7837 -1.0958
  125OSM   H13B13296   2.751   4.679   6.573  0.2994  0.9390 -0.7990
  125OSM   H13C13297   2.586   4.667   6.594  0.2881 -0.9672  0.7946
  125OSM    C1213298   2.637   4.523   6.315  0.2278 -0.0679  0.0863
  125OSM   H12A13299   2.679   4.434   6.270  1.2214 -0.1111  1.0699
  125OSM   H12B13300   2.684   4.608   6.268 -0.3965  0.6952  0.8123
  125OSM    C1113301   2.488   4.522   6.276 -0.5699  0.4044  0.0046
  125OSM   H11A13302   2.438   4.433   6.320  2.2821 -1.4496 -0.3190
  125OSM   H11B13303   2.492   4.506   6.166  0.0762 -3.0055  0.4183
  125OSM      P13304   2.427   4.764   6.241  0.3464  0.3514 -0.1756
  125OSM    O1313305   2.554   4.773   6.158 -0.7214 -0.7686 -0.6365
  125OSM    O1413306   2.297   4.765   6.174  0.1620 -0.1689  0.2370
  125OSM    O1113307   2.444   4.873   6.355 -0.4898 -0.0053 -0.2985
  125OSM    O1213308   2.416   4.635   6.326  0.0715 -0.1443  0.8488
  125OSM    C1S13309   2.387   4.851   6.487  0.2479 -0.0598 -0.2016
  125OSM    H1S13310   2.419   4.753   6.530 -0.4057  0.4030  1.4438
  125OSM    H1T13311   2.276   4.841   6.487  0.3396 -1.2668 -0.1496
  125OSM     NF13312   2.350   4.946   6.714  0.7498 -0.2823  0.1681
  125OSM    HNF13313   2.282   5.010   6.749  0.3986 -0.6418  0.1445
  125OSM    C2S13314   2.408   4.975   6.586  0.1704  0.2620 -0.0774
  125OSM    H2S13315   2.519   4.983   6.599  0.1850  1.4010 -0.7430
  125OSM    C3S13316   2.359   5.107   6.521  0.3369  0.5508 -0.4150
  125OSM    H3S13317   2.250   5.092   6.513  0.6319 -0.9152 -2.4321
  125OSM     O313318   2.407   5.148   6.399 -0.1525  0.5591  0.4299
  125OSM    HO313319   2.433   5.070   6.350 -1.2826  0.3010  0.2059
  125OSM    C4S13320   2.386   5.203   6.629  0.1138 -0.7762  0.4230
  125OSM    H4S13321   2.481   5.198   6.684  1.2987  3.4365 -0.8682
  125OSM    C5S13322   2.297   5.293   6.666  0.0565  0.1619 -0.4266
  125OSM    H5S13323   2.203   5.284   6.609 -1.6331 -1.0511  2.3255
  125OSM    C6S13324   2.335   5.393   6.772  1.2244 -0.0646 -0.3302
  125OSM    H6S13325   2.302   5.496   6.745 -0.0702 -0.5951 -0.8673
  125OSM    H6T13326   2.443   5.410   6.789  0.5732  0.8506  4.3772
  125OSM    C7S13327   2.282   5.367   6.916  0.0359  0.5583 -0.6007
  125OSM    H7S13328   2.319   5.267   6.947  1.2219  1.1414 -0.0718
  125OSM    H7T13329   2.171   5.362   6.926  0.2095 -1.9259  0.9632
  125OSM    C8S13330   2.326   5.474   7.019  0.2996  0.4941 -0.0697
  125OSM    H8S13331   2.296   5.576   6.990 -1.7542  0.4578  1.6648
  125OSM    H8T13332   2.434   5.461   7.039  0.6318  1.2745 -1.3090
  125OSM    C9S13333   2.257   5.448   7.155 -0.3305 -0.2333 -0.6963
  125OSM    H9S13334   2.252   5.339   7.175 -0.7470 -0.0281  0.3623
  125OSM    H9T13335   2.152   5.483   7.144 -0.0594  1.1290  0.7200
  125OSM   C10S13336   2.327   5.529   7.262  0.1902 -0.3047 -0.2979
  125OSM   H10S13337   2.328   5.637   7.236  0.9649 -0.2599 -0.0951
  125OSM   H10T13338   2.433   5.501   7.279  1.3954  2.4020 -2.5171
  125OSM   C11S13339   2.244   5.535   7.394  0.8119  0.4026  0.9416
  125OSM   H11S13340   2.248   5.437   7.447 -0.2158  0.5581  1.3300
  125OSM   H11T13341   2.140   5.558   7.363  1.2085  0.7165 -0.1861
  125OSM   C12S13342   2.292   5.647   7.481  0.6688  0.1772 -0.2237
  125OSM   H12S13343   2.298   5.745   7.430  1.0801 -0.2510 -1.0270
  125OSM   H12T13344   2.401   5.633   7.498  0.5970  1.3811  1.5559
  125OSM   C13S13345   2.213   5.662   7.611  0.0356 -0.1674 -0.2202
  125OSM   H13S13346   2.104   5.679   7.598  0.1509  1.6380  0.8373
  125OSM   H13T13347   2.246   5.758   7.657 -0.0297 -0.1215 -0.2678
  125OSM   C14S13348   2.230   5.540   7.702 -0.2689  0.1987 -0.6868
  125OSM   H14S13349   2.340   5.545   7.722 -0.7031  0.1728  2.1737
  125OSM   H14T13350   2.208   5.440   7.659  1.0022 -1.6474  2.6111
  125OSM   C15S13351   2.145   5.560   7.832 -0.3366 -0.0720 -0.1410
  125OSM   H15S13352   2.040   5.535   7.804 -0.6664 -0.1167  1.0527
  125OSM   H15T13353   2.154   5.669   7.854  2.0775  0.1152 -1.7232
  125OSM   C16S13354   2.186   5.472   7.943  0.2401  0.3129  0.3196
  125OSM   H16S13355   2.283   5.521   7.969  0.9523 -1.0738  0.3705
  125OSM   H16T13356   2.220   5.371   7.911 -0.2188  0.3951 -0.4450
  125OSM   C17S13357   2.089   5.461   8.061 -0.2899  0.0131 -0.0899
  125OSM   H17S13358   2.062   5.565   8.090 -2.0044  0.0682 -1.7442
  125OSM   H17T13359   2.127   5.404   8.149 -0.9290  1.5442  1.2252
  125OSM   C18S13360   1.966   5.385   8.018 -0.3029 -0.3281 -0.1512
  125OSM   H18S13361   1.934   5.400   7.912  1.2843 -1.1988 -0.7839
  125OSM   H18T13362   1.876   5.393   8.082 -1.8849 -1.0680 -2.1867
  125OSM   H18U13363   1.986   5.276   8.012 -2.8105 -0.8209 -0.6493
  125OSM    C1F13364   2.393   4.852   6.791 -0.5695 -0.0849 -0.6282
  125OSM     OF13365   2.488   4.781   6.756 -0.4871 -0.5103 -0.5080
  125OSM    C2F13366   2.325   4.848   6.926  0.0431  0.7286  0.3809
  125OSM    H2F13367   2.217   4.823   6.919  0.4850 -1.6249  0.9636
  125OSM    H2G13368   2.336   4.951   6.965  0.3211 -0.4072  3.6771
  125OSM    C3F13369   2.396   4.745   7.024  0.3453 -0.4010  0.1142
  125OSM    H3F13370   2.506   4.754   7.013  0.0909  0.5883 -2.0411
  125OSM    H3G13371   2.364   4.643   6.994 -1.6787  0.6277 -1.4691
  125OSM    C4F13372   2.360   4.765   7.172  0.4308  0.0893 -0.4431
  125OSM    H4F13373   2.371   4.873   7.195 -3.0528  0.4357  0.1619
  125OSM    H4G13374   2.438   4.713   7.233  0.2625 -0.1075 -0.3947
  125OSM    C5F13375   2.224   4.703   7.203 -0.3277  0.5122 -0.0197
  125OSM    H5F13376   2.197   4.625   7.129 -2.3943  0.4191  0.7658
  125OSM    H5G13377   2.144   4.781   7.197  0.5131  1.5405  1.3658
  125OSM    C6F13378   2.218   4.654   7.349 -0.3755 -0.5192  0.2408
  125OSM    H6F13379   2.315   4.606   7.375 -1.1252 -1.9784  0.4589
  125OSM    H6G13380   2.139   4.577   7.367  1.8173 -3.1320 -0.5523
  125OSM    C7F13381   2.190   4.758   7.457  0.3933 -0.5021 -0.5960
  125OSM    H7F13382   2.093   4.803   7.426  0.8395 -0.1455 -1.5024
  125OSM    H7G13383   2.272   4.832   7.448  0.3777 -0.5937 -1.5432
  125OSM    C8F13384   2.166   4.689   7.589  0.0166  0.9709 -0.1308
  125OSM    H8F13385   2.223   4.741   7.670 -0.0832 -0.8028  1.1362
  125OSM    H8G13386   2.220   4.593   7.578  0.5128  1.0668  1.2340
  125OSM    C9F13387   2.031   4.667   7.659 -0.6836 -0.4249  0.8288
  125OSM    H9F13388   1.956   4.741   7.628 -2.0835 -1.8832  0.6253
  125OSM   C10F13389   2.009   4.578   7.755 -0.5594  0.7249 -0.3824
  125OSM   H10F13390   1.908   4.567   7.797 -0.4030 -0.7267 -0.3122
  125OSM   C11F13391   2.106   4.472   7.804  0.1209  0.0431 -0.0507
  125OSM   H11F13392   2.188   4.449   7.732  0.1262 -1.6825  0.4574
  125OSM   H11G13393   2.052   4.375   7.814  0.1620  0.1528  1.4462
  125OSM   C12F13394   2.173   4.501   7.934  0.5259  0.2054 -0.4593
  125OSM   H12F13395   2.250   4.579   7.912 -0.3049  0.9408 -0.8124
  125OSM   H12G13396   2.232   4.411   7.961  1.1438  1.0402  1.1438
  125OSM   C13F13397   2.085   4.536   8.055  0.4189 -0.5069 -0.4623
  125OSM   H13F13398   2.013   4.455   8.079  0.3145 -0.9234 -2.0321
  125OSM   H13G13399   2.028   4.625   8.022 -0.6577 -0.5793  1.1134
  125OSM   C14F13400   2.163   4.578   8.182 -0.2105 -0.2210  0.6192
  125OSM   H14F13401   2.253   4.638   8.157 -1.3339  1.4445  0.3852
  125OSM   H14G13402   2.197   4.481   8.223  1.5120  0.7015  1.4923
  125OSM   C15F13403   2.066   4.642   8.281 -0.7440 -0.1208 -0.0445
  125OSM   H15F13404   1.993   4.564   8.310 -0.5904  0.2790  1.5080
  125OSM   H15G13405   2.004   4.711   8.220 -0.7478  0.8452  1.0086
  125OSM   C16F13406   2.146   4.705   8.401 -0.8307 -0.7366 -0.2372
  125OSM   H16F13407   2.227   4.641   8.443 -1.1115  0.5406  2.4274
  125OSM   H16G13408   2.082   4.722   8.490 -0.4532 -0.2102 -0.0638
  125OSM   C17F13409   2.233   4.819   8.381 -0.0239  0.3407 -0.6370
  125OSM   H17F13410   2.186   4.914   8.348  0.8028  0.0838 -2.7349
  125OSM   H17G13411   2.292   4.805   8.288  1.3571  1.4323  0.0275
  125OSM   C18F13412   2.335   4.853   8.493  0.3075 -0.2550 -0.2696
  125OSM   H18F13413   2.340   4.962   8.511  1.3033 -0.2982 -0.2214
  125OSM   H18G13414   2.434   4.802   8.485 -0.5974 -2.0009 -0.7689
  125OSM   H18H13415   2.299   4.807   8.587  0.5565 -2.3738 -1.1586
  126OSM      N13416   6.193   5.161   6.614  0.3135  0.3188  0.3121
  126OSM    C1513417   6.280   5.232   6.521  0.0794  0.2455  0.1656
  126OSM   H15A13418   6.332   5.311   6.574 -1.8940  1.5282  0.2661
  126OSM   H15B13419   6.222   5.274   6.440  1.2881  0.0762 -0.8133
  126OSM   H15C13420   6.345   5.158   6.477  0.2634  0.6413 -0.2427
  126OSM    C1413421   6.152   5.025   6.564  0.0904 -0.4289  0.3841
  126OSM   H14A13422   6.234   4.956   6.554  0.6597  0.1254  1.1278
  126OSM   H14B13423   6.107   5.033   6.466  1.9750  2.4383 -0.3780
  126OSM   H14C13424   6.074   4.984   6.627 -0.8012  1.6923  0.7511
  126OSM    C1313425   6.275   5.122   6.731  0.6745 -0.2185 -0.0634
  126OSM   H13A13426   6.284   5.188   6.815 -0.5395 -1.1148  0.7998
  126OSM   H13B13427   6.373   5.089   6.697  1.4425  1.2743  0.6203
  126OSM   H13C13428   6.239   5.032   6.778  3.7573 -0.4314  2.1833
  126OSM    C1213429   6.084   5.247   6.665 -0.6374  0.3135 -1.1796
  126OSM   H12A13430   6.134   5.326   6.719 -0.3564  0.5602 -1.7894
  126OSM   H12B13431   6.027   5.197   6.742 -0.1729  1.5921  0.0329
  126OSM    C1113432   5.992   5.321   6.566  0.0568  0.0776  0.3299
  126OSM   H11A13433   5.910   5.370   6.623 -0.5872 -1.2662  0.5840
  126OSM   H11B13434   5.946   5.243   6.502 -0.8848  1.4043 -0.6790
  126OSM      P13435   6.121   5.553   6.542 -0.1218  0.2252 -0.4624
  126OSM    O1313436   6.259   5.562   6.490 -0.2077  0.4713  0.3825
  126OSM    O1413437   6.029   5.663   6.504 -0.1768 -0.2131 -0.1320
  126OSM    O1113438   6.115   5.524   6.697 -0.2896 -0.3685 -0.1739
  126OSM    O1213439   6.059   5.420   6.482  0.2881  0.9828  0.3607
  126OSM    C1S13440   6.033   5.600   6.788  0.4033  0.0216  0.4720
  126OSM    H1S13441   5.935   5.550   6.799 -0.1939  0.6538 -1.5865
  126OSM    H1T13442   6.011   5.703   6.751 -1.4690 -1.4796 -3.0259
  126OSM     NF13443   6.010   5.671   7.027 -0.0637 -0.4430 -0.1698
  126OSM    HNF13444   6.031   5.758   7.071  0.6183 -1.6549  2.0386
  126OSM    C2S13445   6.092   5.614   6.931  0.1868  0.0313 -0.4393
  126OSM    H2S13446   6.120   5.509   6.958 -0.2407 -0.1756 -0.7829
  126OSM    C3S13447   6.231   5.682   6.913  0.0085  0.0183  0.3268
  126OSM    H3S13448   6.220   5.765   6.841 -0.7773 -1.6747 -1.5897
  126OSM     O313449   6.327   5.605   6.843 -0.3312  0.4238  0.5802
  126OSM    HO313450   6.278   5.549   6.783 -0.3636 -0.0418  1.0389
  126OSM    C4S13451   6.298   5.727   7.045  0.2892  0.6491  0.2508
  126OSM    H4S13452   6.291   5.834   7.067  1.4329  0.9904 -0.9292
  126OSM    C5S13453   6.346   5.644   7.141 -0.7238 -0.0347  0.0146
  126OSM    H5S13454   6.349   5.535   7.128 -1.2431  0.2159 -3.2121
  126OSM    C6S13455   6.406   5.689   7.272 -0.2902  0.0586 -0.1262
  126OSM    H6S13456   6.410   5.797   7.297  1.5735 -0.4825  2.3281
  126OSM    H6T13457   6.512   5.663   7.292  0.4648  2.5558 -0.5038
  126OSM    C7S13458   6.332   5.612   7.374  0.4495 -0.7506  0.1097
  126OSM    H7S13459   6.331   5.504   7.348 -0.6113 -0.3481 -1.6828
  126OSM    H7T13460   6.231   5.653   7.391  0.9853  0.6925 -0.0312
  126OSM    C8S13461   6.383   5.627   7.519 -1.4965  0.3379 -0.2860
  126OSM    H8S13462   6.428   5.725   7.544  1.1291 -0.2416 -2.2495
  126OSM    H8T13463   6.471   5.560   7.519  0.2376  2.5062  0.8597
  126OSM    C9S13464   6.292   5.573   7.625  0.9192 -0.2514 -0.2196
  126OSM    H9S13465   6.244   5.487   7.573  0.5829 -0.0091 -0.3147
  126OSM    H9T13466   6.214   5.652   7.639 -1.4855 -1.8953 -3.1611
  126OSM   C10S13467   6.361   5.523   7.753  0.5029 -0.0994 -0.0516
  126OSM   H10S13468   6.426   5.433   7.744  0.1962 -0.2809 -0.5287
  126OSM   H10T13469   6.287   5.504   7.833  0.4906  0.8181  0.1581
  126OSM   C11S13470   6.459   5.633   7.808  0.4331  0.2130 -0.3852
  126OSM   H11S13471   6.417   5.736   7.802 -0.8155 -0.2478 -0.0549
  126OSM   H11T13472   6.555   5.629   7.752  0.1833  0.3768 -0.8300
  126OSM   C12S13473   6.490   5.627   7.960 -0.6294  0.7384 -1.0318
  126OSM   H12S13474   6.499   5.517   7.977 -4.3393  0.6345  1.3571
  126OSM   H12T13475   6.397   5.649   8.017 -0.1825 -0.8486  0.4150
  126OSM   C13S13476   6.599   5.710   8.021 -0.2175  1.1236  0.9055
  126OSM   H13S13477   6.599   5.815   7.986  1.4844  1.1460  0.8946
  126OSM   H13T13478   6.698   5.673   7.989 -0.6766  0.0442  0.6982
  126OSM   C14S13479   6.590   5.707   8.174  0.3745  0.6223  0.4827
  126OSM   H14S13480   6.500   5.761   8.211  0.4138 -1.4643  4.1346
  126OSM   H14T13481   6.673   5.771   8.210  3.9381 -2.4203 -1.6664
  126OSM   C15S13482   6.590   5.570   8.247  0.4349  0.8123 -0.8283
  126OSM   H15S13483   6.672   5.510   8.203  0.3438  0.3075 -0.3110
  126OSM   H15T13484   6.497   5.515   8.223  0.8630 -0.5108  0.3952
  126OSM   C16S13485   6.610   5.576   8.397  0.1762  0.4297 -0.3636
  126OSM   H16S13486   6.706   5.627   8.421  0.0259  0.0829  1.0838
  126OSM   H16T13487   6.614   5.475   8.444  0.7048 -0.7252 -2.7408
  126OSM   C17S13488   6.498   5.649   8.473 -0.3645 -0.9697  0.1683
  126OSM   H17S13489   6.482   5.748   8.424 -0.1050 -0.5345  0.9530
  126OSM   H17T13490   6.535   5.673   8.575  1.1882 -0.0742 -0.5678
  126OSM   C18S13491   6.366   5.576   8.477  0.4443  0.6806  0.0116
  126OSM   H18S13492   6.286   5.641   8.519 -0.0172  1.3365 -1.7747
  126OSM   H18T13493   6.377   5.478   8.527  0.2432  2.2677  3.5016
  126OSM   H18U13494   6.349   5.571   8.367  0.3458 -0.8113  0.0817
  126OSM    C1F13495   5.895   5.616   7.076  0.5646  0.2140  0.1659
  126OSM     OF13496   5.869   5.502   7.029  0.5806  0.2727 -0.5556
  126OSM    C2F13497   5.808   5.687   7.172 -0.5111  0.1356 -0.2421
  126OSM    H2F13498   5.792   5.794   7.146  2.8770  0.1636 -2.8335
  126OSM    H2G13499   5.875   5.693   7.260  0.1490  0.0077 -0.7321
  126OSM    C3F13500   5.682   5.602   7.187 -0.1358  0.5820  0.0597
  126OSM    H3F13501   5.708   5.499   7.218 -3.1563 -0.5070 -0.6522
  126OSM    H3G13502   5.621   5.604   7.093 -1.1872 -1.5928  0.6354
  126OSM    C4F13503   5.599   5.660   7.302 -0.7146 -0.3183 -0.1289
  126OSM    H4F13504   5.509   5.598   7.322 -0.4833 -0.4103  0.6345
  126OSM    H4G13505   5.558   5.759   7.273 -0.3616 -0.6422 -1.8356
  126OSM    C5F13506   5.679   5.661   7.441  0.9642 -0.4111  1.0227
  126OSM    H5F13507   5.759   5.738   7.437  1.6943 -1.1803  0.8218
  126OSM    H5G13508   5.735   5.566   7.441  2.2573  0.3222  0.1128
  126OSM    C6F13509   5.577   5.663   7.553 -0.5789  0.3958 -0.4331
  126OSM    H6F13510   5.493   5.594   7.528  0.5358 -1.7616  1.3309
  126OSM    H6G13511   5.540   5.767   7.564  1.3412  1.3055 -2.0368
  126OSM    C7F13512   5.627   5.619   7.695 -0.7211 -0.0392  0.1537
  126OSM    H7F13513   5.735   5.645   7.699  0.0699 -2.2557 -2.9187
  126OSM    H7G13514   5.620   5.508   7.699  0.0572 -0.0825  0.5551
  126OSM    C8F13515   5.539   5.688   7.800  0.3733 -0.6781  0.3067
  126OSM    H8F13516   5.438   5.648   7.778  1.3180 -0.5774 -6.4874
  126OSM    H8G13517   5.542   5.799   7.785  1.8626 -0.5966  1.0232
  126OSM    C9F13518   5.602   5.654   7.932  0.2667  0.6508 -0.5422
  126OSM    H9F13519   5.698   5.601   7.932  1.0480  1.9701 -2.2316
  126OSM   C10F13520   5.571   5.694   8.060 -0.2680  0.6360  0.1406
  126OSM   H10F13521   5.631   5.647   8.139  0.3671  2.8988  1.0639
  126OSM   C11F13522   5.469   5.791   8.111 -0.0359  0.0990 -0.4608
  126OSM   H11F13523   5.394   5.740   8.175 -0.4136  1.7455  0.4625
  126OSM   H11G13524   5.406   5.832   8.029 -0.0492 -0.5786 -0.8001
  126OSM   C12F13525   5.536   5.902   8.201  0.8066 -0.0529 -0.4728
  126OSM   H12F13526   5.456   5.975   8.223 -0.4558 -1.4712 -0.2064
  126OSM   H12G13527   5.607   5.964   8.142 -1.7039  2.2251 -1.2618
  126OSM   C13F13528   5.586   5.863   8.342  0.0559 -0.1728  0.3680
  126OSM   H13F13529   5.655   5.779   8.323  1.5265  1.0831 -0.0578
  126OSM   H13G13530   5.502   5.831   8.407  1.0154  1.8538  2.8067
  126OSM   C14F13531   5.660   5.974   8.411  0.1755  0.2664 -0.3929
  126OSM   H14F13532   5.617   6.075   8.390 -2.3488 -0.6216  0.1939
  126OSM   H14G13533   5.756   5.988   8.356 -0.6071  2.4522 -1.3416
  126OSM   C15F13534   5.675   5.958   8.569  0.3478 -0.7387  0.4247
  126OSM   H15F13535   5.572   5.969   8.611 -0.6169  0.5165 -2.0673
  126OSM   H15G13536   5.739   6.045   8.592  0.4903 -0.4945 -0.8185
  126OSM   C16F13537   5.731   5.821   8.615 -0.4347  0.0585 -0.1514
  126OSM   H16F13538   5.835   5.821   8.577 -0.4844 -0.1308 -0.2850
  126OSM   H16G13539   5.677   5.741   8.561  0.1025 -0.8966  0.6799
  126OSM   C17F13540   5.731   5.813   8.770  0.2558 -0.1503  0.0695
  126OSM   H17F13541   5.781   5.717   8.797 -1.1439 -1.6142 -2.2478
  126OSM   H17G13542   5.631   5.805   8.817 -0.0026 -0.1548 -0.4786
  126OSM   C18F13543   5.808   5.930   8.837  0.3887  0.1197  0.1522
  126OSM   H18F13544   5.898   5.958   8.778  2.1479  1.5640  3.2630
  126OSM   H18G13545   5.844   5.910   8.940  0.3733 -1.6653 -0.1610
  126OSM   H18H13546   5.738   6.017   8.841  0.3859  0.0948  0.6813
  127OSM      N13547   1.199   2.383   5.954 -0.1781  0.4496  0.1468
  127OSM    C1513548   1.307   2.287   6.004 -0.6151  0.1058 -0.2160
  127OSM   H15A13549   1.287   2.181   5.991  2.9187 -1.0489  2.3247
  127OSM   H15B13550   1.325   2.302   6.109 -2.0141  1.7387 -0.1647
  127OSM   H15C13551   1.402   2.312   5.960 -1.4084  1.0173 -1.5019
  127OSM    C1413552   1.257   2.516   5.957  0.7874  0.1349 -0.1055
  127OSM   H14A13553   1.233   2.564   6.051 -1.2838  0.3528 -0.6958
  127OSM   H14B13554   1.218   2.589   5.887  1.3265  1.6080  1.0851
  127OSM   H14C13555   1.365   2.512   5.956  0.7676 -3.0997 -1.4152
  127OSM    C1313556   1.173   2.346   5.812 -0.1278 -0.0789 -0.3107
  127OSM   H13A13557   1.145   2.243   5.796  1.1545 -0.5866  0.5931
  127OSM   H13B13558   1.255   2.364   5.744 -0.9547  1.4732 -0.9578
  127OSM   H13C13559   1.087   2.400   5.775  1.7912  1.5979 -2.6778
  127OSM    C1213560   1.072   2.364   6.037 -1.0136 -0.3340 -0.6185
  127OSM   H12A13561   1.048   2.259   6.046  0.2773 -0.6629 -0.7767
  127OSM   H12B13562   1.000   2.429   5.989  0.3862  0.5602 -1.5670
  127OSM    C1113563   1.086   2.412   6.185 -0.2155 -0.1487  0.2215
  127OSM   H11A13564   1.164   2.351   6.235  0.0119 -1.0873 -1.2228
  127OSM   H11B13565   0.994   2.375   6.234  0.3146 -0.1590  1.2473
  127OSM      P13566   0.971   2.645   6.206 -0.2654 -0.1261  0.1015
  127OSM    O1313567   1.009   2.790   6.196 -0.1258 -0.3374 -0.2728
  127OSM    O1413568   0.873   2.583   6.115 -0.0126  0.0228 -0.3029
  127OSM    O1113569   0.912   2.625   6.356 -0.2508  0.2032 -0.2762
  127OSM    O1213570   1.098   2.555   6.201 -0.0953  0.7936 -0.4030
  127OSM    C1S13571   1.010   2.609   6.462 -0.2572  0.6410 -0.9724
  127OSM    H1S13572   1.074   2.698   6.479  0.0466  0.0512  1.2413
  127OSM    H1T13573   1.084   2.530   6.436 -0.4291  0.0428  0.2857
  127OSM     NF13574   1.049   2.584   6.706  0.5877  0.0503 -0.3628
  127OSM    HNF13575   1.066   2.493   6.743 -0.9131  0.7661  2.4126
  127OSM    C2S13576   0.943   2.597   6.604  0.7320  0.2200 -0.3262
  127OSM    H2S13577   0.881   2.689   6.610  0.0417  0.0082 -2.8117
  127OSM    C3S13578   0.854   2.469   6.612 -0.3984  0.6862  1.1664
  127OSM    H3S13579   0.913   2.376   6.597  2.1400  1.9067  3.0599
  127OSM     O313580   0.760   2.457   6.507  0.3179 -0.1942 -0.3329
  127OSM    HO313581   0.790   2.517   6.438  0.0215  0.6672  0.2662
  127OSM    C4S13582   0.791   2.454   6.750 -0.0547  1.1925  0.2735
  127OSM    H4S13583   0.852   2.402   6.826 -2.8117 -1.2202  0.9807
  127OSM    C5S13584   0.671   2.508   6.788  0.3077  0.1574 -1.1267
  127OSM    H5S13585   0.616   2.568   6.713  0.5706 -0.6751 -2.0094
  127OSM    C6S13586   0.610   2.522   6.929 -0.2151  0.7497  0.3782
  127OSM    H6S13587   0.528   2.449   6.945  0.7291 -0.2037  1.0075
  127OSM    H6T13588   0.568   2.624   6.940 -0.2230  0.7662  0.2008
  127OSM    C7S13589   0.704   2.487   7.041 -0.8914  0.2202  0.2785
  127OSM    H7S13590   0.799   2.545   7.038  0.1539 -1.3276  1.8147
  127OSM    H7T13591   0.750   2.387   7.027  0.7450  0.8330  0.9928
  127OSM    C8S13592   0.637   2.495   7.180  0.1288 -0.0625  0.4281
  127OSM    H8S13593   0.571   2.407   7.189 -0.2419  0.1749  0.0497
  127OSM    H8T13594   0.582   2.592   7.182  2.0378  1.0902  2.0996
  127OSM    C9S13595   0.748   2.481   7.290  1.2691  0.9200 -0.4733
  127OSM    H9S13596   0.828   2.556   7.271  1.7196  0.7161  0.5081
  127OSM    H9T13597   0.794   2.380   7.282 -1.5117 -0.4557 -0.2885
  127OSM   C10S13598   0.684   2.484   7.432  0.0159 -0.2194  0.5874
  127OSM   H10S13599   0.589   2.425   7.429 -0.5802  0.6565  1.7459
  127OSM   H10T13600   0.663   2.589   7.462  2.9526  0.5729  0.1107
  127OSM   C11S13601   0.776   2.419   7.531 -0.4477  0.3325  0.8833
  127OSM   H11S13602   0.867   2.482   7.524  0.7675 -1.5766 -2.8293
  127OSM   H11T13603   0.806   2.317   7.499 -2.2247  0.7526 -2.6322
  127OSM   C12S13604   0.698   2.409   7.662  0.6623 -0.1982 -0.6083
  127OSM   H12S13605   0.611   2.342   7.649 -0.5459  1.1258  0.3921
  127OSM   H12T13606   0.668   2.511   7.692  0.9124 -0.4682  0.6337
  127OSM   C13S13607   0.779   2.352   7.788  0.7747 -0.2821  0.2151
  127OSM   H13S13608   0.875   2.407   7.802 -0.4125  1.9966 -0.0752
  127OSM   H13T13609   0.817   2.253   7.756  1.8919 -0.4009  1.8326
  127OSM   C14S13610   0.696   2.339   7.920 -0.4009  0.3007 -0.8005
  127OSM   H14S13611   0.609   2.271   7.909  0.2020 -0.4494 -1.0565
  127OSM   H14T13612   0.658   2.437   7.955 -2.7445 -1.2682  1.4581
  127OSM   C15S13613   0.775   2.287   8.040  0.1566  0.5596 -0.8164
  127OSM   H15S13614   0.859   2.348   8.079  1.9554 -3.2505  1.9875
  127OSM   H15T13615   0.816   2.190   8.005  0.3418  0.7778 -1.2085
  127OSM   C16S13616   0.680   2.278   8.164 -0.0547  0.0046  0.3988
  127OSM   H16S13617   0.595   2.213   8.136  0.5254 -1.7762  2.4843
  127OSM   H16T13618   0.642   2.377   8.197 -0.6796  0.2600 -1.0402
  127OSM   C17S13619   0.746   2.218   8.291  0.4352 -0.7889  0.4019
  127OSM   H17S13620   0.773   2.113   8.267  1.0040 -0.6387  0.3758
  127OSM   H17T13621   0.669   2.202   8.370  1.7317  0.1881  1.9116
  127OSM   C18S13622   0.873   2.291   8.347 -0.0545  0.3528 -0.0080
  127OSM   H18S13623   0.900   2.238   8.441  0.0822  2.0794  0.9733
  127OSM   H18T13624   0.854   2.399   8.365 -1.1545 -0.0943  1.7177
  127OSM   H18U13625   0.961   2.277   8.280 -1.8899  0.8958 -2.6795
  127OSM    C1F13626   1.124   2.685   6.743  0.8366 -0.0039 -0.5093
  127OSM     OF13627   1.082   2.800   6.715 -0.1718 -0.5495  0.0485
  127OSM    C2F13628   1.263   2.666   6.796  0.0718  0.1017  0.1265
  127OSM    H2F13629   1.327   2.726   6.728 -2.0180  1.7437 -0.4965
  127OSM    H2G13630   1.295   2.560   6.788  0.4095  0.2794 -1.1027
  127OSM    C3F13631   1.277   2.727   6.933  1.0174 -0.3579 -0.3039
  127OSM    H3F13632   1.253   2.835   6.930  0.4350 -0.4812 -0.2033
  127OSM    H3G13633   1.384   2.716   6.962  0.4219  0.1570  2.3744
  127OSM    C4F13634   1.196   2.665   7.045 -0.4030 -0.0286 -0.3005
  127OSM    H4F13635   1.091   2.688   7.020 -0.2678  0.8313 -0.1079
  127OSM    H4G13636   1.221   2.715   7.141 -0.2732 -1.9002  0.6974
  127OSM    C5F13637   1.217   2.521   7.083 -0.4769  0.6485  0.1608
  127OSM    H5F13638   1.316   2.495   7.129 -1.7371 -0.5419  2.3818
  127OSM    H5G13639   1.217   2.457   6.992  2.4671  0.3986  0.2087
  127OSM    C6F13640   1.108   2.465   7.177  0.0255  1.2129 -0.3011
  127OSM    H6F13641   1.145   2.362   7.197  1.2165  1.6006 -0.3711
  127OSM    H6G13642   1.004   2.453   7.141  0.2914 -0.8724 -0.5320
  127OSM    C7F13643   1.109   2.535   7.318 -0.1805 -0.2715  0.3542
  127OSM    H7F13644   1.039   2.478   7.383  0.0112 -0.8052  0.1022
  127OSM    H7G13645   1.060   2.630   7.290 -1.7174 -1.5337 -1.5442
  127OSM    C8F13646   1.245   2.550   7.378 -0.3379 -0.5842  0.1043
  127OSM    H8F13647   1.320   2.598   7.312  1.0158  1.4110  2.8831
  127OSM    H8G13648   1.281   2.448   7.405 -0.6549 -0.2443  1.9522
  127OSM    C9F13649   1.231   2.642   7.494  1.0888 -0.3111 -0.2139
  127OSM    H9F13650   1.221   2.749   7.470 -2.6682 -0.5635 -0.3816
  127OSM   C10F13651   1.214   2.593   7.620 -0.8774 -1.1846 -0.1389
  127OSM   H10F13652   1.193   2.668   7.698 -0.3418  0.5701 -1.6266
  127OSM   C11F13653   1.214   2.450   7.671 -0.5531  0.3494  0.0728
  127OSM   H11F13654   1.267   2.385   7.598 -0.9298  1.7978 -1.5448
  127OSM   H11G13655   1.113   2.405   7.676 -0.9031  0.9119 -1.5533
  127OSM   C12F13656   1.288   2.422   7.798 -0.0151  0.0028  0.3920
  127OSM   H12F13657   1.398   2.436   7.790  0.7359 -4.9866 -1.3425
  127OSM   H12G13658   1.268   2.316   7.822  3.5672 -0.6221  1.1988
  127OSM   C13F13659   1.237   2.506   7.922  0.2359  0.5198 -0.0631
  127OSM   H13F13660   1.126   2.514   7.920  0.2093  0.2762  0.2374
  127OSM   H13G13661   1.270   2.610   7.903 -1.2950  0.8739 -0.9600
  127OSM   C14F13662   1.274   2.444   8.055 -0.7169  0.4180 -0.0889
  127OSM   H14F13663   1.385   2.450   8.065 -0.7080 -1.6150  1.7583
  127OSM   H14G13664   1.275   2.334   8.068  2.7466  0.4745  1.2491
  127OSM   C15F13665   1.209   2.506   8.175  0.1366  0.2486  0.2045
  127OSM   H15F13666   1.102   2.480   8.161  0.0839  0.4967  0.1342
  127OSM   H15G13667   1.211   2.616   8.159 -0.0141  0.6262  2.4923
  127OSM   C16F13668   1.261   2.465   8.310 -0.3701 -0.3015 -0.6325
  127OSM   H16F13669   1.244   2.358   8.334  1.7170 -0.6895 -0.7129
  127OSM   H16G13670   1.208   2.518   8.391 -0.3832  0.5534 -1.1853
  127OSM   C17F13671   1.416   2.489   8.336  0.2486  0.2293  0.3072
  127OSM   H17F13672   1.440   2.593   8.305 -0.7529  0.0654 -1.1301
  127OSM   H17G13673   1.483   2.438   8.263 -0.3369  0.1007 -0.1592
  127OSM   C18F13674   1.453   2.459   8.486 -0.1605  0.2657  0.4443
  127OSM   H18F13675   1.561   2.479   8.496  0.2364 -1.3496 -0.2615
  127OSM   H18G13676   1.431   2.351   8.502  1.6373 -0.0290  1.1431
  127OSM   H18H13677   1.393   2.521   8.556 -4.2162 -1.9518 -0.7175
  128OSM      N13678   2.116   6.738   5.939 -0.6843 -0.0730  0.0253
  128OSM    C1513679   2.156   6.873   5.884  0.2810  0.0203 -0.0243
  128OSM   H15A13680   2.244   6.868   5.821 -1.9967  0.9254 -3.5630
  128OSM   H15B13681   2.173   6.942   5.965  1.0177 -0.5526  0.3152
  128OSM   H15C13682   2.079   6.921   5.826 -0.2476  1.1287  1.5232
  128OSM    C1413683   2.002   6.761   6.033  0.0354  0.0654  0.6867
  128OSM   H14A13684   1.908   6.775   5.982  0.8957  2.9949 -0.2765
  128OSM   H14B13685   2.028   6.844   6.098 -0.6504  2.4358 -1.8879
  128OSM   H14C13686   1.999   6.673   6.095  3.1213 -0.5517  0.1492
  128OSM    C1313687   2.083   6.656   5.818 -0.1094 -0.3595 -0.2780
  128OSM   H13A13688   2.168   6.657   5.752  0.0603 -0.5356 -0.0652
  128OSM   H13B13689   1.995   6.695   5.770  0.9248  0.9554 -1.2019
  128OSM   H13C13690   2.058   6.553   5.841 -3.8688  0.4709 -0.0540
  128OSM    C1213691   2.239   6.680   6.007  0.7407 -0.2413 -0.2755
  128OSM   H12A13692   2.243   6.729   6.103 -0.9775 -1.5786  0.5406
  128OSM   H12B13693   2.329   6.704   5.951  0.0341  0.5076 -1.1145
  128OSM    C1113694   2.253   6.529   6.039 -0.0543  1.0602 -0.6916
  128OSM   H11A13695   2.354   6.516   6.083  0.5296  1.0780 -1.9989
  128OSM   H11B13696   2.249   6.477   5.941 -0.1154  2.9725 -1.7546
  128OSM      P13697   2.136   6.512   6.281  0.2775  0.0638  0.0289
  128OSM    O1313698   2.009   6.463   6.326  0.3166  0.2889 -0.1445
  128OSM    O1413699   2.265   6.472   6.345  0.3756 -0.0238 -0.4436
  128OSM    O1113700   2.121   6.676   6.292  0.0224  0.4407 -0.0491
  128OSM    O1213701   2.146   6.480   6.127 -0.0754 -0.2663  0.7162
  128OSM    C1S13702   2.102   6.731   6.419  1.2476 -0.1498  0.3188
  128OSM    H1S13703   2.060   6.653   6.486  1.4917 -1.0671 -0.5621
  128OSM    H1T13704   2.020   6.806   6.411  0.5929 -0.7187  1.4090
  128OSM     NF13705   2.179   6.841   6.616 -0.0050 -0.4977 -0.0553
  128OSM    HNF13706   2.157   6.938   6.623 -0.7860 -0.6042 -0.8322
  128OSM    C2S13707   2.222   6.797   6.491  0.1841  0.0654 -0.8221
  128OSM    H2S13708   2.290   6.713   6.515  3.5100  2.0291 -2.5902
  128OSM    C3S13709   2.293   6.894   6.393 -0.7013  0.3538  0.4775
  128OSM    H3S13710   2.217   6.953   6.337 -0.1218  1.0751  0.4487
  128OSM     O313711   2.361   6.822   6.295 -0.5557  0.4355 -0.3558
  128OSM    HO313712   2.333   6.732   6.315 -1.3991  0.6091 -0.6995
  128OSM    C4S13713   2.392   6.978   6.459  0.0841 -0.0365 -0.3121
  128OSM    H4S13714   2.484   6.927   6.489  0.4922  1.0883  0.4334
  128OSM    C5S13715   2.373   7.110   6.484  0.8871  0.1469 -0.0250
  128OSM    H5S13716   2.282   7.168   6.461  0.0201 -1.6055 -1.1919
  128OSM    C6S13717   2.481   7.195   6.541  0.4157 -0.1700 -0.3159
  128OSM    H6S13718   2.492   7.280   6.470  1.5449  0.2684  0.3503
  128OSM    H6T13719   2.578   7.144   6.560  0.5690  0.4816  0.7605
  128OSM    C7S13720   2.438   7.256   6.676 -0.3315  0.1790  1.0156
  128OSM    H7S13721   2.399   7.177   6.744  0.9603 -1.5137 -0.1120
  128OSM    H7T13722   2.343   7.312   6.666 -2.2405 -2.4666  2.8676
  128OSM    C8S13723   2.549   7.341   6.722  0.0207 -0.3067  1.1522
  128OSM    H8S13724   2.584   7.405   6.639  1.5927 -2.6799 -0.1562
  128OSM    H8T13725   2.637   7.282   6.757 -0.3218 -1.5424  0.0009
  128OSM    C9S13726   2.513   7.416   6.849  0.1414  0.0075 -0.5377
  128OSM    H9S13727   2.403   7.433   6.845  0.3207  1.1067 -2.7711
  128OSM    H9T13728   2.552   7.519   6.861 -1.0461  0.1427  3.7168
  128OSM   C10S13729   2.544   7.338   6.972  0.8110 -0.8477  0.0854
  128OSM   H10S13730   2.651   7.313   6.984  0.8807 -1.4294 -1.4912
  128OSM   H10T13731   2.478   7.248   6.970 -1.8579  0.9011  2.2124
  128OSM   C11S13732   2.511   7.419   7.105  0.4903 -0.0408  0.7225
  128OSM   H11S13733   2.404   7.444   7.087  0.5446 -2.0352 -4.0427
  128OSM   H11T13734   2.564   7.515   7.122 -0.3345  0.2379  1.7854
  128OSM   C12S13735   2.519   7.331   7.224 -0.2627  0.5959  0.5364
  128OSM   H12S13736   2.621   7.288   7.228  0.6207  2.6298  1.3513
  128OSM   H12T13737   2.454   7.241   7.227 -0.3677  0.6530 -0.0456
  128OSM   C13S13738   2.526   7.407   7.357 -0.2508  0.4661 -0.2501
  128OSM   H13S13739   2.436   7.472   7.371  0.2025  1.2220 -0.7562
  128OSM   H13T13740   2.612   7.477   7.351  0.3732 -0.3846 -1.7854
  128OSM   C14S13741   2.543   7.306   7.471  1.6728 -0.1908  0.7527
  128OSM   H14S13742   2.622   7.234   7.439  0.7390 -1.3709  1.0190
  128OSM   H14T13743   2.451   7.243   7.472  1.0430  0.5504 -1.9118
  128OSM   C15S13744   2.591   7.354   7.610 -0.7537  0.1387  0.6167
  128OSM   H15S13745   2.515   7.425   7.650 -0.7380  2.1458 -2.5825
  128OSM   H15T13746   2.683   7.413   7.591 -1.1731  0.0403 -2.1475
  128OSM   C16S13747   2.624   7.239   7.711  0.2594  0.6594 -0.3898
  128OSM   H16S13748   2.694   7.173   7.655 -1.4063 -0.1577 -1.6196
  128OSM   H16T13749   2.523   7.193   7.709 -1.8668  4.8145  0.3693
  128OSM   C17S13750   2.681   7.275   7.850 -0.7974  0.3596 -0.7136
  128OSM   H17S13751   2.781   7.317   7.830 -1.1155  0.8412 -1.3290
  128OSM   H17T13752   2.685   7.182   7.912 -0.7362 -0.4983 -1.9597
  128OSM   C18S13753   2.589   7.376   7.924  0.1303 -0.2598  0.3866
  128OSM   H18S13754   2.485   7.338   7.937 -0.6522  1.7545  0.3294
  128OSM   H18T13755   2.585   7.471   7.868 -0.8158  0.5861  1.8334
  128OSM   H18U13756   2.639   7.397   8.021  0.8587  0.2894 -0.0938
  128OSM    C1F13757   2.139   6.771   6.720 -0.7513 -0.9314 -0.0492
  128OSM     OF13758   2.146   6.653   6.719 -0.1701  0.3428  0.2658
  128OSM    C2F13759   2.081   6.837   6.841 -1.0293 -0.3107  0.2450
  128OSM    H2F13760   2.007   6.915   6.813  0.3107  0.5263 -1.1100
  128OSM    H2G13761   2.171   6.887   6.884  0.2506 -1.7490 -0.6237
  128OSM    C3F13762   2.047   6.735   6.957 -0.0881 -0.6511 -0.5551
  128OSM    H3F13763   2.128   6.664   6.987 -0.5060 -0.3510  1.4249
  128OSM    H3G13764   1.952   6.680   6.942 -2.2479  1.2247  4.3473
  128OSM    C4F13765   2.026   6.803   7.091 -0.8658 -0.6682 -0.7449
  128OSM    H4F13766   1.941   6.873   7.085  0.4998  1.4214  2.0066
  128OSM    H4G13767   2.120   6.856   7.117 -1.0386  1.5136 -4.1122
  128OSM    C5F13768   1.995   6.705   7.203 -0.1696 -0.1761 -0.5713
  128OSM    H5F13769   2.069   6.623   7.210 -0.5246 -0.4095  0.5893
  128OSM    H5G13770   1.902   6.647   7.185  0.5052 -2.3995  2.4392
  128OSM    C6F13771   1.979   6.775   7.348  0.0446 -0.2488 -0.0611
  128OSM    H6F13772   1.891   6.842   7.357  1.1832  1.2442  0.4471
  128OSM    H6G13773   2.063   6.848   7.351 -2.1170  2.6652 -3.2461
  128OSM    C7F13774   2.008   6.687   7.470  0.4303  0.3645 -0.4799
  128OSM    H7F13775   2.106   6.633   7.467 -0.9778 -2.3208 -0.8497
  128OSM    H7G13776   1.931   6.607   7.467  0.3098  0.5052 -1.1833
  128OSM    C8F13777   2.008   6.756   7.613  0.1817  0.5925 -0.3797
  128OSM    H8F13778   1.913   6.812   7.629  0.4221  1.3835 -1.5280
  128OSM    H8G13779   2.095   6.826   7.617  1.5129 -0.8038 -2.6928
  128OSM    C9F13780   2.026   6.661   7.730  0.0447 -1.1058 -0.5187
  128OSM    H9F13781   2.118   6.602   7.733  0.1383 -0.9673 -0.6467
  128OSM   C10F13782   1.948   6.651   7.840  0.2040 -0.5042 -0.3856
  128OSM   H10F13783   1.979   6.579   7.917 -0.8583 -1.2053 -0.5855
  128OSM   C11F13784   1.827   6.724   7.879 -0.0049  0.1952  0.2483
  128OSM   H11F13785   1.746   6.650   7.860  1.9350 -1.6787 -1.1399
  128OSM   H11G13786   1.795   6.807   7.812 -2.8798 -1.4766 -0.6464
  128OSM   C12F13787   1.831   6.763   8.026  0.5212  0.4678 -0.2971
  128OSM   H12F13788   1.919   6.831   8.038  1.1484 -0.2264 -0.8548
  128OSM   H12G13789   1.846   6.668   8.082 -0.4836  0.4169 -0.1104
  128OSM   C13F13790   1.705   6.825   8.083 -0.1701 -0.0925 -0.4032
  128OSM   H13F13791   1.613   6.773   8.049  0.9657 -0.8832 -2.4339
  128OSM   H13G13792   1.693   6.934   8.061  0.1194  0.3956  1.6284
  128OSM   C14F13793   1.704   6.827   8.237 -0.7941  0.5643 -0.8246
  128OSM   H14F13794   1.806   6.847   8.276 -0.6349  1.4866 -1.6826
  128OSM   H14G13795   1.682   6.723   8.270 -0.0607  1.3045  2.2587
  128OSM   C15F13796   1.596   6.913   8.306  0.2053 -1.0208 -0.4485
  128OSM   H15F13797   1.628   7.019   8.298  0.9360 -1.0868  1.1442
  128OSM   H15G13798   1.607   6.888   8.414  1.5741 -0.0033 -0.3230
  128OSM   C16F13799   1.456   6.894   8.264  0.5473 -0.7559  0.1751
  128OSM   H16F13800   1.423   6.788   8.272 -0.8575 -0.5456 -1.8515
  128OSM   H16G13801   1.451   6.927   8.157  3.0461 -1.6979 -0.2883
  128OSM   C17F13802   1.348   6.985   8.336 -1.2330  0.9918 -0.3942
  128OSM   H17F13803   1.386   7.089   8.321  1.3550  0.2022  0.0415
  128OSM   H17G13804   1.350   6.963   8.445 -2.7451  4.4934  0.5104
  128OSM   C18F13805   1.208   6.971   8.282 -0.2634 -0.1577  0.2328
  128OSM   H18F13806   1.145   7.054   8.321  1.1441 -0.1081  2.6301
  128OSM   H18G13807   1.170   6.873   8.318  0.7534 -0.2771  1.0170
  128OSM   H18H13808   1.215   6.965   8.171 -0.8639  1.5917  0.0631
  129OSM      N13809   6.671   2.879   6.195 -0.2442  0.1089 -0.4352
  129OSM    C1513810   6.523   2.859   6.210 -0.6306 -0.8406  0.3627
  129OSM   H15A13811   6.471   2.859   6.115  0.0386 -1.3324 -0.0082
  129OSM   H15B13812   6.479   2.939   6.268 -0.6976 -0.5536 -0.0796
  129OSM   H15C13813   6.503   2.765   6.259 -2.2782 -0.6503  0.1256
  129OSM    C1413814   6.733   2.759   6.123 -0.5183  0.5276  0.6346
  129OSM   H14A13815   6.692   2.668   6.163  0.3949 -0.5195 -0.7157
  129OSM   H14B13816   6.840   2.759   6.133 -0.5699  0.5377  1.2037
  129OSM   H14C13817   6.714   2.763   6.017  2.2758 -0.3711  0.0168
  129OSM    C1313818   6.689   3.005   6.113 -0.7434 -0.2223  0.3252
  129OSM   H13A13819   6.795   3.024   6.100 -0.7536 -1.1924 -1.6359
  129OSM   H13B13820   6.651   3.095   6.159  0.2557  0.3639  0.0333
  129OSM   H13C13821   6.646   3.003   6.014  0.6396  1.4355 -0.3588
  129OSM    C1213822   6.721   2.888   6.341 -0.2028 -0.3211 -0.0453
  129OSM   H12A13823   6.690   2.800   6.396 -2.0415  0.4301  0.1896
  129OSM   H12B13824   6.672   2.974   6.384  0.1111  1.0932 -2.3593
  129OSM    C1113825   6.869   2.917   6.370  0.0933  0.8082 -0.7803
  129OSM   H11A13826   6.928   2.834   6.325  0.1565 -0.1021  0.8902
  129OSM   H11B13827   6.887   2.918   6.479 -0.3687  0.9488 -0.7041
  129OSM      P13828   6.896   3.175   6.410 -0.1311 -0.1097  0.3256
  129OSM    O1313829   6.932   3.288   6.321 -0.1398 -0.0268 -0.1012
  129OSM    O1413830   6.762   3.181   6.474 -0.8418  0.2787  0.1527
  129OSM    O1113831   7.010   3.140   6.515  0.5195 -0.7518  0.1902
  129OSM    O1213832   6.909   3.046   6.317 -0.4149 -0.3165 -0.1239
  129OSM    C1S13833   7.061   3.253   6.593  1.1905 -0.3874  0.3524
  129OSM    H1S13834   7.013   3.352   6.573 -0.5605 -0.9625  1.4567
  129OSM    H1T13835   7.168   3.266   6.567  0.5346  1.0833 -1.9710
  129OSM     NF13836   7.135   3.339   6.826 -0.5097 -0.0350  0.7372
  129OSM    HNF13837   7.231   3.332   6.853  0.6344  1.1981 -2.5285
  129OSM    C2S13838   7.072   3.230   6.752  0.0575  0.6482 -0.0136
  129OSM    H2S13839   6.970   3.216   6.793  0.4275  0.5945  0.9084
  129OSM    C3S13840   7.149   3.099   6.769  0.4704  0.1785  0.1688
  129OSM    H3S13841   7.254   3.113   6.736  0.5414  0.6979  0.6125
  129OSM     O313842   7.102   2.995   6.693 -0.0862 -0.1568  0.1230
  129OSM    HO313843   7.043   3.045   6.636  2.6286  2.7746 -0.3403
  129OSM    C4S13844   7.150   3.059   6.916  0.8128 -0.0136 -0.3308
  129OSM    H4S13845   7.241   3.104   6.959 -0.1094  2.6481 -0.9418
  129OSM    C5S13846   7.068   2.981   6.988  0.2022 -0.1707 -0.0605
  129OSM    H5S13847   6.973   2.950   6.942  0.7636 -0.3531 -1.1233
  129OSM    C6S13848   7.089   2.954   7.140  0.3134 -0.1069  0.1771
  129OSM    H6S13849   7.085   2.844   7.154 -2.3895 -0.1031 -0.0638
  129OSM    H6T13850   7.004   3.002   7.193  1.3757  0.7267  1.1970
  129OSM    C7S13851   7.222   3.000   7.209  0.1758 -0.3175 -0.3472
  129OSM    H7S13852   7.223   3.110   7.195 -2.1574 -0.3349 -1.1761
  129OSM    H7T13853   7.303   2.956   7.147 -0.9242  1.2578 -3.0918
  129OSM    C8S13854   7.228   2.978   7.361 -0.0915  0.4126 -0.1549
  129OSM    H8S13855   7.161   3.052   7.410 -1.3409 -0.5475 -0.3455
  129OSM    H8T13856   7.333   2.998   7.391  0.4657 -1.2461 -0.8797
  129OSM    C9S13857   7.177   2.850   7.413  0.6117 -0.1083  0.3584
  129OSM    H9S13858   7.242   2.771   7.371  0.6418  0.1190 -0.0310
  129OSM    H9T13859   7.071   2.831   7.382  0.7816 -1.1710  0.3763
  129OSM   C10S13860   7.176   2.829   7.565  0.4274 -0.3594  0.0506
  129OSM   H10S13861   7.279   2.793   7.589  1.4092  1.7321 -0.7785
  129OSM   H10T13862   7.104   2.751   7.596 -2.7187  2.3201  0.0175
  129OSM   C11S13863   7.150   2.947   7.656 -0.4599 -0.3557  0.4483
  129OSM   H11S13864   7.049   2.989   7.637  0.4778  2.4276  1.2425
  129OSM   H11T13865   7.218   3.034   7.648 -0.8061 -0.1647 -0.6421
  129OSM   C12S13866   7.146   2.911   7.805 -0.1014  0.2776 -0.2698
  129OSM   H12S13867   7.230   2.842   7.830  0.0208  0.3230 -0.5608
  129OSM   H12T13868   7.054   2.856   7.834 -0.9746  0.4964 -2.4201
  129OSM   C13S13869   7.174   3.035   7.897 -0.3141  0.3441  0.2612
  129OSM   H13S13870   7.107   3.118   7.868 -1.9888 -1.4615 -1.3215
  129OSM   H13T13871   7.277   3.068   7.870 -0.0660 -0.3913  0.2767
  129OSM   C14S13872   7.172   2.986   8.050  0.5992 -1.0196  0.5304
  129OSM   H14S13873   7.278   2.954   8.061  1.5151  0.5473 -2.6154
  129OSM   H14T13874   7.104   2.899   8.060  0.4528 -0.9030  0.5466
  129OSM   C15S13875   7.131   3.094   8.151 -0.1406 -0.0781  0.0459
  129OSM   H15S13876   7.027   3.125   8.127 -0.3972 -0.8455  0.1429
  129OSM   H15T13877   7.210   3.172   8.143  1.4221 -1.3581  1.9886
  129OSM   C16S13878   7.119   3.051   8.297  0.1581 -0.8721 -0.0916
  129OSM   H16S13879   7.224   3.043   8.334  0.4113 -1.9392 -0.9992
  129OSM   H16T13880   7.062   2.957   8.317  1.2242 -1.1664  1.8666
  129OSM   C17S13881   7.042   3.163   8.373 -0.3288 -0.0888  0.6883
  129OSM   H17S13882   6.935   3.162   8.343 -0.2258  0.3726  0.3035
  129OSM   H17T13883   7.086   3.262   8.350  3.3963 -1.8615 -0.7719
  129OSM   C18S13884   7.037   3.140   8.526  0.1221 -0.2514 -0.3098
  129OSM   H18S13885   6.963   3.198   8.586 -0.9375 -2.2270  0.4134
  129OSM   H18T13886   7.138   3.172   8.558 -0.0663  0.6219 -0.5570
  129OSM   H18U13887   7.024   3.033   8.554 -2.3863 -0.4430 -1.8293
  129OSM    C1F13888   7.061   3.447   6.825  0.4683 -0.3487 -0.6558
  129OSM     OF13889   6.945   3.443   6.785  0.6927 -0.4624 -0.5224
  129OSM    C2F13890   7.126   3.562   6.888 -0.0217  0.0261 -1.0203
  129OSM    H2F13891   7.167   3.618   6.801  1.5991 -1.1957 -1.0901
  129OSM    H2G13892   7.214   3.532   6.950  0.3419  2.2135 -0.3957
  129OSM    C3F13893   7.034   3.647   6.974  0.0561  0.1154 -0.1487
  129OSM    H3F13894   6.938   3.667   6.921 -1.7965 -0.1297  2.8647
  129OSM    H3G13895   7.075   3.740   7.018  1.1616 -0.2336 -0.4125
  129OSM    C4F13896   6.968   3.566   7.090 -0.5686  0.3992 -0.1435
  129OSM    H4F13897   6.903   3.488   7.044  0.1079 -0.9301  1.0807
  129OSM    H4G13898   6.903   3.629   7.155 -2.3679 -2.3176  0.8735
  129OSM    C5F13899   7.064   3.504   7.187 -0.7174  0.2183 -0.1819
  129OSM    H5F13900   7.141   3.580   7.214  0.2048 -0.7232 -0.0689
  129OSM    H5G13901   7.138   3.436   7.141 -0.0818  0.3278  0.6484
  129OSM    C6F13902   7.004   3.445   7.309 -0.0582  0.2697 -0.5542
  129OSM    H6F13903   6.925   3.369   7.287 -0.4625  0.4053  0.3632
  129OSM    H6G13904   6.962   3.528   7.370  0.7012 -0.1914  0.6263
  129OSM    C7F13905   7.104   3.359   7.388  0.3926 -0.6816  0.3512
  129OSM    H7F13906   7.195   3.423   7.397  0.8800 -1.3234  0.1587
  129OSM    H7G13907   7.138   3.266   7.336 -1.9128 -1.8352  0.8121
  129OSM    C8F13908   7.057   3.302   7.523 -0.2251 -0.1553  0.1921
  129OSM    H8F13909   7.136   3.230   7.554  0.2128 -0.3579 -1.2956
  129OSM    H8G13910   6.966   3.240   7.504 -0.5359  0.3826 -0.0856
  129OSM    C9F13911   7.031   3.410   7.624 -0.1766  0.4427 -0.0842
  129OSM    H9F13912   7.116   3.477   7.641  0.3504 -0.4977  1.1301
  129OSM   C10F13913   6.919   3.425   7.709 -0.9133  0.3046  0.6035
  129OSM   H10F13914   6.929   3.506   7.783 -2.0252  0.2446  0.8277
  129OSM   C11F13915   6.798   3.338   7.723 -0.3358  0.8560 -0.0978
  129OSM   H11F13916   6.801   3.250   7.654 -3.3687 -0.3054  1.0526
  129OSM   H11G13917   6.702   3.388   7.699 -1.5844 -1.6935 -0.8268
  129OSM   C12F13918   6.774   3.276   7.861 -0.5486 -0.1343  0.1990
  129OSM   H12F13919   6.788   3.362   7.929  1.1014 -1.4229  1.5838
  129OSM   H12G13920   6.854   3.202   7.882  2.2775  2.7176  0.2141
  129OSM   C13F13921   6.631   3.223   7.885  0.2045  0.4022 -0.4300
  129OSM   H13F13922   6.629   3.172   7.984  0.2012  0.5382 -0.3604
  129OSM   H13G13923   6.602   3.145   7.811 -2.0150 -0.1589  0.9238
  129OSM   C14F13924   6.527   3.329   7.876  0.8971 -0.0369 -0.9216
  129OSM   H14F13925   6.520   3.396   7.787 -0.4120  0.9980 -0.0764
  129OSM   H14G13926   6.553   3.400   7.957 -1.9010  0.6205 -0.5045
  129OSM   C15F13927   6.389   3.265   7.894 -0.5883 -0.4068  0.3249
  129OSM   H15F13928   6.388   3.168   7.838  1.1758  0.0422 -0.5523
  129OSM   H15G13929   6.314   3.332   7.846  0.9185  0.7773 -0.4226
  129OSM   C16F13930   6.350   3.243   8.045 -0.2460 -0.2971 -0.5763
  129OSM   H16F13931   6.382   3.332   8.103 -0.5772 -0.6075  0.0851
  129OSM   H16G13932   6.406   3.154   8.081  0.1307 -0.0158 -0.4559
  129OSM   C17F13933   6.202   3.214   8.052  0.2030 -0.9018 -1.2508
  129OSM   H17F13934   6.164   3.171   7.957 -0.3000  1.3479 -2.1431
  129OSM   H17G13935   6.146   3.309   8.065 -0.7703 -1.5873 -0.2196
  129OSM   C18F13936   6.165   3.106   8.157  0.1133 -0.6428 -0.4323
  129OSM   H18F13937   6.226   3.016   8.137  0.0923 -0.5311 -1.0283
  129OSM   H18G13938   6.057   3.081   8.150 -0.3310  0.7814  0.7679
  129OSM   H18H13939   6.195   3.137   8.259 -0.6458 -1.1180 -0.0551
  130OSM      N13940   2.777   5.279   5.804  0.8799  0.4747 -0.4582
  130OSM    C1513941   2.705   5.272   5.675 -0.0868  0.4199 -0.7373
  130OSM   H15A13942   2.597   5.277   5.684 -0.0024  0.1186  0.7186
  130OSM   H15B13943   2.733   5.183   5.621 -2.6265 -2.4903  2.2660
  130OSM   H15C13944   2.725   5.362   5.619 -1.9532  1.7124  0.5394
  130OSM    C1413945   2.783   5.148   5.880 -0.0433 -0.0780 -0.1765
  130OSM   H14A13946   2.841   5.164   5.969 -1.3202 -2.8421  1.2944
  130OSM   H14B13947   2.817   5.067   5.816  2.5203  0.7399  0.0720
  130OSM   H14C13948   2.684   5.118   5.909 -0.5987  0.1420 -1.7194
  130OSM    C1313949   2.920   5.312   5.764 -0.3159  0.5343  0.0824
  130OSM   H13A13950   2.983   5.310   5.851 -1.2719 -0.0371  0.7752
  130OSM   H13B13951   2.916   5.407   5.711 -0.4757 -0.1298 -1.1334
  130OSM   H13C13952   2.950   5.237   5.692 -1.4169  0.1801 -0.0284
  130OSM    C1213953   2.720   5.394   5.884  0.2981 -0.3023 -0.5775
  130OSM   H12A13954   2.626   5.359   5.925  0.4182  2.1289  2.0873
  130OSM   H12B13955   2.697   5.481   5.824  1.7302 -0.7288 -1.7939
  130OSM    C1113956   2.807   5.444   6.001  0.1979  0.3945  0.3303
  130OSM   H11A13957   2.756   5.532   6.045  0.5905 -0.0260  1.6702
  130OSM   H11B13958   2.912   5.470   5.977 -0.2223  0.7236 -1.2603
  130OSM      P13959   2.701   5.337   6.213 -0.0722 -0.0580 -0.0168
  130OSM    O1313960   2.576   5.308   6.144 -0.0769  0.1003  0.2083
  130OSM    O1413961   2.742   5.241   6.319  0.0496 -0.3286  0.4616
  130OSM    O1113962   2.718   5.486   6.272  0.1428  0.1581  0.0187
  130OSM    O1213963   2.819   5.340   6.104 -0.4612 -0.1873  0.6854
  130OSM    C1S13964   2.653   5.523   6.395  0.0614 -0.4246 -0.2330
  130OSM    H1S13965   2.652   5.434   6.461  1.2969 -0.2699  0.0170
  130OSM    H1T13966   2.545   5.551   6.390 -0.3769 -1.4483  2.1763
  130OSM     NF13967   2.696   5.617   6.619 -0.1907 -0.2860  0.3731
  130OSM    HNF13968   2.630   5.685   6.649 -0.6173 -0.3661 -0.3563
  130OSM    C2S13969   2.741   5.616   6.474 -0.6123 -0.1924 -0.4836
  130OSM    H2S13970   2.843   5.571   6.475 -1.4102 -2.1136  0.2191
  130OSM    C3S13971   2.752   5.757   6.409 -0.2610 -0.0490  0.1383
  130OSM    H3S13972   2.650   5.800   6.417  0.2117  0.8493  2.0406
  130OSM     O313973   2.801   5.761   6.276 -0.0626 -0.0675  0.3842
  130OSM    HO313974   2.830   5.670   6.265 -0.0242 -0.2372  1.6906
  130OSM    C4S13975   2.841   5.836   6.500 -0.3248 -0.5882 -0.1223
  130OSM    H4S13976   2.786   5.905   6.566  2.2020  0.4368  1.0666
  130OSM    C5S13977   2.980   5.832   6.512  0.0273 -0.2712 -0.2689
  130OSM    H5S13978   3.039   5.759   6.454  0.4110 -1.4419  1.5252
  130OSM    C6S13979   3.070   5.907   6.613 -0.4032 -0.5664 -0.1140
  130OSM    H6S13980   3.074   6.015   6.587 -4.0009 -0.8084 -2.3877
  130OSM    H6T13981   3.170   5.863   6.594  0.0498  1.4990 -3.3662
  130OSM    C7S13982   3.029   5.893   6.764 -0.2260  0.2267  0.3642
  130OSM    H7S13983   3.028   5.787   6.800  1.8709  0.2274  0.5324
  130OSM    H7T13984   2.922   5.924   6.756 -0.1656 -0.0271 -3.6950
  130OSM    C8S13985   3.119   5.962   6.865  0.2825 -0.1817  0.2842
  130OSM    H8S13986   3.134   6.069   6.838  2.3906 -0.8245 -1.3945
  130OSM    H8T13987   3.219   5.914   6.861 -0.8111 -2.5845  0.1096
  130OSM    C9S13988   3.058   5.950   7.005 -0.5191  0.3160 -0.2496
  130OSM    H9S13989   3.029   5.844   7.014 -0.6114  0.2749 -1.0242
  130OSM    H9T13990   2.965   6.011   7.012 -0.2281  0.6311  1.3474
  130OSM   C10S13991   3.150   6.006   7.113  0.9577 -0.1092 -0.3035
  130OSM   H10S13992   3.172   6.114   7.097  2.4340 -0.1223  1.3776
  130OSM   H10T13993   3.239   5.944   7.092 -0.2422 -2.3667  0.9177
  130OSM   C11S13994   3.079   5.969   7.246 -0.1311 -0.6368 -0.5647
  130OSM   H11S13995   3.044   5.864   7.238 -0.8351 -0.3116 -2.0770
  130OSM   H11T13996   2.989   6.032   7.260  1.0612  0.9052  0.5562
  130OSM   C12S13997   3.174   5.991   7.371  0.2096 -0.3398  0.8208
  130OSM   H12S13998   3.227   6.089   7.374  1.6399 -0.9873 -0.9960
  130OSM   H12T13999   3.247   5.908   7.362  1.9073  1.1575  0.0300
  130OSM   C13S14000   3.105   5.979   7.503 -0.8621  0.4558 -0.1861
  130OSM   H13S14001   3.076   5.872   7.514  2.6875 -0.8250 -1.6151
  130OSM   H13T14002   3.017   6.046   7.502 -1.3995 -0.2380 -0.6669
  130OSM   C14S14003   3.205   5.999   7.618  0.2102 -0.3052  0.1148
  130OSM   H14S14004   3.234   6.106   7.622 -2.0658  0.3805 -0.5728
  130OSM   H14T14005   3.290   5.933   7.591 -0.0013 -1.3439  1.8445
  130OSM   C15S14006   3.152   5.957   7.759  0.3033  0.2349 -0.3506
  130OSM   H15S14007   3.223   5.981   7.841 -2.8538  2.1724  2.0458
  130OSM   H15T14008   3.150   5.846   7.754 -1.6690  0.1513  1.0336
  130OSM   C16S14009   3.016   6.001   7.805  0.5066 -0.1417 -0.3097
  130OSM   H16S14010   2.942   5.918   7.807 -0.3784  0.6544  0.2339
  130OSM   H16T14011   2.984   6.067   7.722  0.2964  2.5007  1.7520
  130OSM   C17S14012   3.009   6.085   7.937  0.0178 -0.6883  0.5186
  130OSM   H17S14013   2.913   6.140   7.930  0.2324 -0.5117 -3.1829
  130OSM   H17T14014   3.093   6.158   7.941 -0.0211 -0.4624 -1.5855
  130OSM   C18S14015   3.013   5.998   8.059 -0.0135 -0.4229  0.0140
  130OSM   H18S14016   2.951   5.906   8.053  1.2797 -1.4513  1.5117
  130OSM   H18T14017   2.992   6.052   8.154  2.4759  1.2926 -0.3064
  130OSM   H18U14018   3.120   5.968   8.065  0.4644  1.4027  2.2443
  130OSM    C1F14019   2.734   5.518   6.705  0.8098  1.0158  0.0250
  130OSM     OF14020   2.804   5.422   6.666 -0.3995  0.3680 -0.0089
  130OSM    C2F14021   2.677   5.516   6.845 -0.3072  0.6157  0.0466
  130OSM    H2F14022   2.680   5.414   6.888  0.0115  0.8500  0.5914
  130OSM    H2G14023   2.573   5.556   6.841 -0.7025 -0.2115  1.4578
  130OSM    C3F14024   2.762   5.612   6.928  0.1048  0.1694 -0.7892
  130OSM    H3F14025   2.749   5.718   6.900 -0.1554  0.1978 -0.5655
  130OSM    H3G14026   2.871   5.604   6.909  0.3958  3.2895 -0.9156
  130OSM    C4F14027   2.728   5.599   7.082  0.3718 -0.6169  0.0062
  130OSM    H4F14028   2.720   5.492   7.111  1.5290 -0.0590  2.7669
  130OSM    H4G14029   2.628   5.645   7.102  1.1470  0.9661  0.3745
  130OSM    C5F14030   2.819   5.673   7.182 -0.1851  0.3035 -0.4234
  130OSM    H5F14031   2.830   5.778   7.147 -0.8228  1.1268  1.6980
  130OSM    H5G14032   2.924   5.636   7.181  0.3061  1.6613 -2.2409
  130OSM    C6F14033   2.761   5.671   7.329 -0.2633 -0.6808 -0.7332
  130OSM    H6F14034   2.848   5.675   7.398 -1.0157 -1.3713  0.2841
  130OSM    H6G14035   2.715   5.575   7.361  0.5440 -1.1795 -1.0181
  130OSM    C7F14036   2.679   5.792   7.367  0.7281  0.1949 -0.1880
  130OSM    H7F14037   2.592   5.803   7.298  0.7877  0.4008 -0.2315
  130OSM    H7G14038   2.732   5.889   7.353  0.4602  0.2319 -1.0096
  130OSM    C8F14039   2.636   5.788   7.515 -0.9925 -0.0972  0.0432
  130OSM    H8F14040   2.738   5.800   7.558 -0.2866  0.0666 -1.5814
  130OSM    H8G14041   2.599   5.690   7.551  0.7959 -0.6737  0.4115
  130OSM    C9F14042   2.542   5.891   7.571 -0.0448 -0.7079  1.2902
  130OSM    H9F14043   2.465   5.918   7.497  0.2396 -0.7008  0.9922
  130OSM   C10F14044   2.544   5.946   7.693  0.1612 -0.2284 -0.4768
  130OSM   H10F14045   2.474   6.026   7.722 -0.5015 -0.1059 -2.3200
  130OSM   C11F14046   2.633   5.903   7.802 -0.5938  0.6351 -0.1309
  130OSM   H11F14047   2.670   5.992   7.858  0.8618 -1.6727  2.8352
  130OSM   H11G14048   2.725   5.848   7.772 -1.8040 -0.7992 -1.3469
  130OSM   C12F14049   2.566   5.812   7.904  0.2083  0.0532 -0.4919
  130OSM   H12F14050   2.639   5.795   7.987 -0.7104  0.1251  0.3392
  130OSM   H12G14051   2.534   5.716   7.858 -1.7898 -0.3551  1.5909
  130OSM   C13F14052   2.444   5.875   7.967 -0.5659 -0.5497 -0.2231
  130OSM   H13F14053   2.366   5.886   7.888  0.9057 -2.9184 -2.1524
  130OSM   H13G14054   2.466   5.980   7.998  0.4948 -0.3911 -1.3871
  130OSM   C14F14055   2.413   5.789   8.088  0.2714  0.3482 -0.6100
  130OSM   H14F14056   2.486   5.818   8.166 -0.9921  2.5105 -0.1618
  130OSM   H14G14057   2.426   5.680   8.066  0.2664  0.0528  0.7733
  130OSM   C15F14058   2.270   5.801   8.146  0.3296 -0.0768 -0.1568
  130OSM   H15F14059   2.248   5.704   8.195 -0.7558 -1.1411 -2.6123
  130OSM   H15G14060   2.183   5.807   8.078 -0.2401 -0.2169  0.5427
  130OSM   C16F14061   2.256   5.908   8.250  0.5596  0.8745 -0.2207
  130OSM   H16F14062   2.253   6.007   8.200 -0.7236  1.5059  1.0213
  130OSM   H16G14063   2.337   5.924   8.325 -0.2800  2.0205  0.4833
  130OSM   C17F14064   2.117   5.897   8.319  0.1975 -0.3303  0.0662
  130OSM   H17F14065   2.036   5.907   8.244  0.4192  1.4323  0.0192
  130OSM   H17G14066   2.119   5.984   8.388 -0.5771 -2.9843  3.7322
  130OSM   C18F14067   2.101   5.766   8.392  0.2569  0.0655 -0.2349
  130OSM   H18F14068   2.199   5.751   8.442  1.4175  0.9051 -2.1246
  130OSM   H18G14069   2.087   5.684   8.318 -1.2389 -1.4774  1.6685
  130OSM   H18H14070   2.009   5.759   8.453 -0.2524  0.9128 -0.8817
  131OSM      N14071   1.479   4.067   5.866  0.3217  0.6901 -0.0119
  131OSM    C1514072   1.452   4.190   5.784  0.1121  0.3890  0.1281
  131OSM   H15A14073   1.364   4.245   5.814 -1.5515 -1.1674 -1.5997
  131OSM   H15B14074   1.446   4.162   5.679  2.1683  1.3745 -0.3039
  131OSM   H15C14075   1.534   4.259   5.775 -0.2029  0.8186  0.5175
  131OSM    C1414076   1.356   3.982   5.858 -0.6676  0.3652 -0.0671
  131OSM   H14A14077   1.268   4.035   5.892 -2.1252  1.0767 -4.3420
  131OSM   H14B14078   1.382   3.889   5.906 -0.0471  1.5904  2.0974
  131OSM   H14C14079   1.325   3.959   5.757 -1.1478 -1.4120  0.4522
  131OSM    C1314080   1.576   3.984   5.795  0.3688  0.1045  0.2169
  131OSM   H13A14081   1.577   3.881   5.829  0.3053 -0.2814 -0.8815
  131OSM   H13B14082   1.678   4.021   5.795  0.2418  0.4845 -0.5592
  131OSM   H13C14083   1.542   3.971   5.693 -3.1964 -0.2402  1.3128
  131OSM    C1214084   1.510   4.099   6.012 -0.0600  0.3992  0.2806
  131OSM   H12A14085   1.597   4.162   6.002  0.5482 -0.6421 -1.5054
  131OSM   H12B14086   1.541   4.004   6.053  0.4786  1.0745  1.4717
  131OSM    C1114087   1.397   4.166   6.092  0.5568  0.0640  0.2792
  131OSM   H11A14088   1.366   4.250   6.025  2.6681  1.4142  0.8727
  131OSM   H11B14089   1.431   4.217   6.185 -0.1433  3.6739 -1.2524
  131OSM      P14090   1.318   3.969   6.245  0.1486 -0.3565 -0.2135
  131OSM    O1314091   1.215   3.977   6.351  0.1168 -0.2483 -0.8291
  131OSM    O1414092   1.341   3.837   6.184 -0.0216 -0.0956 -0.5736
  131OSM    O1114093   1.454   4.024   6.304 -0.2631  0.2856  0.1076
  131OSM    O1214094   1.287   4.079   6.128 -0.8015  0.1561 -0.0880
  131OSM    C1S14095   1.458   4.115   6.416  0.0496  0.7027  0.6647
  131OSM    H1S14096   1.392   4.203   6.403  0.6675  0.9628 -0.9247
  131OSM    H1T14097   1.557   4.164   6.411  0.3737 -0.0502 -0.9355
  131OSM     NF14098   1.448   4.159   6.663 -0.7275 -0.4266 -0.2905
  131OSM    HNF14099   1.536   4.165   6.709  0.1071 -2.6023 -1.4809
  131OSM    C2S14100   1.440   4.055   6.561  0.9924  0.6930 -0.0416
  131OSM    H2S14101   1.339   4.012   6.570  1.7878 -0.9483  1.6104
  131OSM    C3S14102   1.542   3.936   6.577 -0.3844 -0.4780 -0.1931
  131OSM    H3S14103   1.639   3.990   6.590  0.9648 -2.9457  0.5948
  131OSM     O314104   1.550   3.850   6.469  0.5644 -0.0084  0.1485
  131OSM    HO314105   1.522   3.902   6.393  0.3340 -0.3675 -0.0131
  131OSM    C4S14106   1.515   3.850   6.697  0.6643  0.5995 -0.2037
  131OSM    H4S14107   1.592   3.855   6.775  0.5293 -0.1411 -0.0177
  131OSM    C5S14108   1.418   3.755   6.707 -0.1614  0.0110  0.2666
  131OSM    H5S14109   1.357   3.742   6.616  0.2315  0.8366 -0.1290
  131OSM    C6S14110   1.402   3.667   6.827  0.1072  0.1920  0.0511
  131OSM    H6S14111   1.470   3.579   6.820  1.0871  0.9439 -0.1562
  131OSM    H6T14112   1.302   3.622   6.809  0.3195 -0.2864  0.0460
  131OSM    C7S14113   1.412   3.739   6.958  0.5220 -0.1212  0.4631
  131OSM    H7S14114   1.332   3.815   6.964 -0.0973 -0.3759 -2.7913
  131OSM    H7T14115   1.512   3.785   6.975  0.4360  0.1643  0.1902
  131OSM    C8S14116   1.391   3.631   7.070 -0.6788 -0.6580 -0.0093
  131OSM    H8S14117   1.440   3.538   7.035 -1.4937 -0.7577 -0.9251
  131OSM    H8T14118   1.284   3.601   7.065 -0.7865 -0.1026 -1.5322
  131OSM    C9S14119   1.428   3.674   7.213  0.2576  0.0614  0.3515
  131OSM    H9S14120   1.412   3.783   7.225 -0.1693  0.1672 -1.0195
  131OSM    H9T14121   1.537   3.656   7.223  0.3107 -0.7366 -1.3438
  131OSM   C10S14122   1.355   3.599   7.317 -0.1042  0.2327 -0.1017
  131OSM   H10S14123   1.355   3.488   7.320 -0.0719  0.2297 -0.1962
  131OSM   H10T14124   1.248   3.618   7.292 -0.2492 -1.9665 -1.4344
  131OSM   C11S14125   1.386   3.663   7.458 -0.7288 -0.1170 -0.6201
  131OSM   H11S14126   1.343   3.765   7.448 -2.2513 -0.9113 -2.9731
  131OSM   H11T14127   1.496   3.669   7.474 -1.1536  1.5522  2.4564
  131OSM   C12S14128   1.323   3.576   7.575  0.7606  0.3069  0.1631
  131OSM   H12S14129   1.385   3.484   7.574  0.0730 -0.1761  0.8846
  131OSM   H12T14130   1.216   3.548   7.562 -0.4318  2.5804  3.5696
  131OSM   C13S14131   1.328   3.630   7.720 -0.9924  0.1148  0.2268
  131OSM   H13S14132   1.280   3.726   7.747  1.3429  0.6360  3.0467
  131OSM   H13T14133   1.436   3.641   7.746 -1.0435  0.1280  0.4350
  131OSM   C14S14134   1.272   3.526   7.822  0.8394 -0.0218  0.8106
  131OSM   H14S14135   1.324   3.430   7.803  0.3795 -0.2574  0.7165
  131OSM   H14T14136   1.163   3.508   7.811  1.1257 -0.9765 -0.7808
  131OSM   C15S14137   1.296   3.565   7.971  0.0887  0.5740 -0.1916
  131OSM   H15S14138   1.219   3.642   7.993  0.3206  0.7957 -0.1662
  131OSM   H15T14139   1.402   3.594   7.984  0.5059 -1.2533  0.9840
  131OSM   C16S14140   1.270   3.456   8.079 -0.3012  0.1398  0.0550
  131OSM   H16S14141   1.174   3.409   8.051  0.0013 -2.2861  2.6103
  131OSM   H16T14142   1.262   3.499   8.181  0.3342 -1.4793  0.8289
  131OSM   C17S14143   1.391   3.355   8.094  0.3497 -0.4557  0.1591
  131OSM   H17S14144   1.493   3.398   8.093  0.6671 -1.0850 -2.3654
  131OSM   H17T14145   1.386   3.286   8.007 -3.4658  2.7435 -2.5159
  131OSM   C18S14146   1.375   3.266   8.219  0.1269 -0.2861  0.6040
  131OSM   H18S14147   1.274   3.221   8.229  0.2927 -0.9068 -0.3573
  131OSM   H18T14148   1.409   3.320   8.309  1.5039  0.1424 -0.1492
  131OSM   H18U14149   1.443   3.178   8.215  2.5480  1.4936  0.6178
  131OSM    C1F14150   1.351   4.241   6.690 -0.1383 -0.3016  0.3667
  131OSM     OF14151   1.247   4.235   6.623  0.1998  0.8748  0.0029
  131OSM    C2F14152   1.369   4.337   6.803  0.6316 -1.0226  0.3037
  131OSM    H2F14153   1.405   4.439   6.777  1.7153 -1.1371  1.2525
  131OSM    H2G14154   1.446   4.303   6.876  0.6370 -1.5842  0.0405
  131OSM    C3F14155   1.231   4.356   6.868  1.1041 -0.2711 -0.3406
  131OSM    H3F14156   1.177   4.412   6.789  2.0903  2.1242  0.5911
  131OSM    H3G14157   1.237   4.429   6.952 -0.6959 -0.2435 -0.1904
  131OSM    C4F14158   1.156   4.231   6.903  0.7246  0.2352 -0.2752
  131OSM    H4F14159   1.164   4.150   6.827 -0.7463  0.8599 -1.1296
  131OSM    H4G14160   1.051   4.267   6.908  0.2782 -1.0086 -0.1819
  131OSM    C5F14161   1.211   4.188   7.038  0.4815  0.4274 -0.2564
  131OSM    H5F14162   1.192   4.266   7.116  2.4168  1.3931 -0.6914
  131OSM    H5G14163   1.319   4.164   7.028  0.6565  0.9080  0.3459
  131OSM    C6F14164   1.141   4.057   7.083 -0.2069 -0.5310 -0.0976
  131OSM    H6F14165   1.143   3.982   7.002 -1.1675 -0.0562 -0.5771
  131OSM    H6G14166   1.035   4.067   7.117 -0.1699  0.2174 -0.1909
  131OSM    C7F14167   1.201   3.983   7.208 -1.0040 -0.4180 -0.8228
  131OSM    H7F14168   1.311   3.985   7.195 -0.4386  0.8383  2.7959
  131OSM    H7G14169   1.166   3.878   7.218  0.5378 -0.9939 -1.1458
  131OSM    C8F14170   1.184   4.058   7.340 -0.6322 -0.1107 -0.8280
  131OSM    H8F14171   1.079   4.059   7.378  0.3543 -0.6388  2.1182
  131OSM    H8G14172   1.200   4.166   7.321 -1.7269  0.0079 -1.1734
  131OSM    C9F14173   1.272   4.026   7.449  0.5334  0.9106 -0.2024
  131OSM    H9F14174   1.379   4.037   7.427  0.6474 -0.1736 -0.2459
  131OSM   C10F14175   1.237   3.996   7.583 -0.2888  0.6420  0.4622
  131OSM   H10F14176   1.313   3.960   7.653 -1.7256  1.5413  2.6216
  131OSM   C11F14177   1.094   3.984   7.639 -0.0039  0.6132 -1.4498
  131OSM   H11F14178   1.070   3.876   7.641  0.3971  0.5273  0.5964
  131OSM   H11G14179   1.017   4.029   7.572 -0.7192  1.5334 -0.0643
  131OSM   C12F14180   1.077   4.049   7.776  0.6498  0.0900  0.2454
  131OSM   H12F14181   0.968   4.065   7.783  0.5966 -0.4593  0.7930
  131OSM   H12G14182   1.130   4.146   7.773 -1.4919  1.4134  2.0221
  131OSM   C13F14183   1.125   3.964   7.902 -0.7898  0.2289  0.0189
  131OSM   H13F14184   1.224   3.921   7.874  0.2090  2.5243 -0.2679
  131OSM   H13G14185   1.051   3.885   7.922 -1.5498  1.2487  1.4242
  131OSM   C14F14186   1.158   4.053   8.024 -0.4870  0.0205 -0.3318
  131OSM   H14F14187   1.056   4.082   8.058 -2.0030 -1.6178 -3.1642
  131OSM   H14G14188   1.211   4.144   7.989  0.3271 -0.8826 -1.5350
  131OSM   C15F14189   1.241   3.987   8.138  0.5626 -0.3304  0.0724
  131OSM   H15F14190   1.336   3.948   8.097 -0.2099 -0.8383 -1.3129
  131OSM   H15G14191   1.174   3.899   8.153  0.3188 -0.4316 -1.4713
  131OSM   C16F14192   1.262   4.069   8.263 -0.3132  0.0848  0.3223
  131OSM   H16F14193   1.167   4.125   8.277 -0.4231 -0.3920  1.6206
  131OSM   H16G14194   1.346   4.142   8.262 -0.5645  0.3762  0.3750
  131OSM   C17F14195   1.274   3.982   8.395  0.0430 -0.4506 -0.0063
  131OSM   H17F14196   1.184   3.921   8.416 -1.2553  1.9285  1.9416
  131OSM   H17G14197   1.276   4.059   8.475 -0.1289  1.5765 -1.8654
  131OSM   C18F14198   1.407   3.898   8.403 -0.2377 -0.0175 -0.3827
  131OSM   H18F14199   1.492   3.955   8.359 -1.6117  2.7703  0.3052
  131OSM   H18G14200   1.393   3.802   8.349 -2.0647 -1.1685  1.9696
  131OSM   H18H14201   1.425   3.873   8.509  0.0312  2.1352  0.1262
  132OSM      N14202   3.015   1.556   6.122 -0.1158  0.8653 -0.4032
  132OSM    C1514203   2.975   1.423   6.063  0.4768 -0.2028  0.1677
  132OSM   H15A14204   2.967   1.436   5.956  1.7310  1.1343  0.2001
  132OSM   H15B14205   2.886   1.381   6.107  0.9370 -1.4650 -0.0549
  132OSM   H15C14206   3.051   1.356   6.101 -0.8648 -1.1360  1.2915
  132OSM    C1414207   3.131   1.610   6.051 -0.6248  0.6035  0.0188
  132OSM   H14A14208   3.166   1.707   6.082  1.2552 -0.2959  0.8950
  132OSM   H14B14209   3.106   1.624   5.947  0.8556 -0.2108 -0.4749
  132OSM   H14C14210   3.216   1.545   6.063 -0.8285  0.1786 -0.7376
  132OSM    C1314211   2.907   1.658   6.105 -0.7960  0.6382 -0.4336
  132OSM   H13A14212   2.817   1.622   6.152 -0.2735  0.6858  0.6272
  132OSM   H13B14213   2.887   1.661   5.998 -0.8966  0.2374 -0.4258
  132OSM   H13C14214   2.933   1.757   6.140 -1.3206  0.1325  1.4471
  132OSM    C1214215   3.061   1.535   6.266  0.4382  0.0477  0.0337
  132OSM   H12A14216   2.986   1.479   6.319  2.5248 -3.0864 -0.0305
  132OSM   H12B14217   3.066   1.632   6.313 -1.8010 -0.2974  1.0986
  132OSM    C1114218   3.193   1.451   6.288  0.1602 -0.5575 -0.0102
  132OSM   H11A14219   3.204   1.446   6.398  0.7425  0.6528 -0.0085
  132OSM   H11B14220   3.285   1.503   6.255 -0.1357  0.2286  0.3846
  132OSM      P14221   3.143   1.198   6.338 -0.0707  0.0194  0.0122
  132OSM    O1314222   3.040   1.114   6.267  0.5916 -0.7129  0.2708
  132OSM    O1414223   3.265   1.123   6.378 -0.0023 -0.6171 -0.0089
  132OSM    O1114224   3.073   1.279   6.457 -0.4333  0.2332  0.0005
  132OSM    O1214225   3.187   1.319   6.236 -0.0380  0.1387 -0.4747
  132OSM    C1S14226   2.951   1.226   6.510  0.0116 -0.2421 -0.1568
  132OSM    H1S14227   2.961   1.117   6.529  3.5682 -0.1862 -0.8749
  132OSM    H1T14228   2.861   1.244   6.447 -1.1293  0.0667  1.5095
  132OSM     NF14229   2.821   1.187   6.715  0.3782 -0.2793 -0.1805
  132OSM    HNF14230   2.729   1.224   6.723  0.7407  0.8218 -0.8802
  132OSM    C2S14231   2.918   1.280   6.650  0.0226 -0.4902 -0.3901
  132OSM    H2S14232   3.013   1.285   6.707  0.3301  2.3580 -0.9918
  132OSM    C3S14233   2.872   1.430   6.634 -0.2793 -0.0149 -1.0744
  132OSM    H3S14234   2.782   1.424   6.570 -0.6010  1.5506 -0.7896
  132OSM     O314235   2.974   1.505   6.567  0.6298 -0.1831  0.1811
  132OSM    HO314236   3.028   1.432   6.536  0.2147 -0.8172  0.9038
  132OSM    C4S14237   2.839   1.501   6.759 -0.2861  0.2737  0.0934
  132OSM    H4S14238   2.737   1.541   6.756 -0.0966  1.0143  1.8598
  132OSM    C5S14239   2.922   1.519   6.865 -0.3266  0.4461 -0.2163
  132OSM    H5S14240   3.021   1.470   6.866 -1.2514 -1.5423 -0.6706
  132OSM    C6S14241   2.879   1.584   6.991  0.0912 -0.8700  0.0369
  132OSM    H6S14242   2.769   1.596   6.985 -0.2324 -3.0705  0.8107
  132OSM    H6T14243   2.913   1.690   6.991 -1.0131 -0.4719 -1.6960
  132OSM    C7S14244   2.921   1.508   7.122  0.0044  0.5436  0.2566
  132OSM    H7S14245   3.032   1.516   7.121  0.1495 -0.9181 -1.8788
  132OSM    H7T14246   2.900   1.399   7.125 -1.2313  0.7570  0.0339
  132OSM    C8S14247   2.855   1.581   7.247 -0.2650  0.0993 -0.0874
  132OSM    H8S14248   2.749   1.548   7.241  0.1354 -1.2837  0.0315
  132OSM    H8T14249   2.864   1.689   7.222 -3.1549  1.2991  3.1918
  132OSM    C9S14250   2.910   1.551   7.386  0.2447  0.0749 -0.3611
  132OSM    H9S14251   3.017   1.581   7.386  0.6378 -1.2589 -0.8332
  132OSM    H9T14252   2.911   1.440   7.393  1.1584  0.1329  0.7444
  132OSM   C10S14253   2.829   1.623   7.497  0.7393 -0.1507 -0.5495
  132OSM   H10S14254   2.722   1.591   7.499  0.4239  0.7576 -1.7139
  132OSM   H10T14255   2.842   1.733   7.495 -1.6096  0.2549  1.4323
  132OSM   C11S14256   2.871   1.591   7.644 -0.5503  0.0544 -0.2326
  132OSM   H11S14257   2.978   1.617   7.659 -1.1380  1.6149  1.7477
  132OSM   H11T14258   2.871   1.482   7.660 -3.0717  0.3993  3.3663
  132OSM   C12S14259   2.788   1.658   7.742 -0.2869  0.3464 -0.8555
  132OSM   H12S14260   2.681   1.643   7.717 -0.8883  1.9650  0.5006
  132OSM   H12T14261   2.802   1.768   7.739  0.2244  0.2784 -1.0403
  132OSM   C13S14262   2.814   1.614   7.886  0.7501  0.1774  0.4620
  132OSM   H13S14263   2.920   1.639   7.906  0.1775  1.7656  1.7773
  132OSM   H13T14264   2.789   1.506   7.899  1.3218 -0.0287 -0.1228
  132OSM   C14S14265   2.727   1.688   7.987 -1.0759 -0.0453  0.4554
  132OSM   H14S14266   2.618   1.676   7.975 -1.2677  0.9621  1.0724
  132OSM   H14T14267   2.755   1.795   7.994 -1.0647 -0.1175  1.8909
  132OSM   C15S14268   2.739   1.645   8.136  0.2560  0.3320 -0.4967
  132OSM   H15S14269   2.845   1.624   8.161 -0.3635 -1.7906  0.6266
  132OSM   H15T14270   2.683   1.552   8.161  1.5812 -0.4738 -0.3952
  132OSM   C16S14271   2.673   1.741   8.240  0.5333  0.2520 -0.5331
  132OSM   H16S14272   2.569   1.756   8.203 -0.2021 -4.7969 -1.1864
  132OSM   H16T14273   2.734   1.834   8.246  1.2430 -0.2346 -0.0777
  132OSM   C17S14274   2.649   1.683   8.379 -1.2525  0.6509 -0.1557
  132OSM   H17S14275   2.594   1.588   8.365  0.6410 -0.7472  1.2808
  132OSM   H17T14276   2.591   1.764   8.428 -0.2098  1.4034 -0.1240
  132OSM   C18S14277   2.768   1.659   8.464  0.0970  0.1379  0.1958
  132OSM   H18S14278   2.814   1.754   8.500 -0.3340  0.1569  0.7069
  132OSM   H18T14279   2.852   1.608   8.412  0.6383  0.3287  0.8588
  132OSM   H18U14280   2.747   1.592   8.550  0.6147  0.1642  0.3453
  132OSM    C1F14281   2.851   1.069   6.766 -0.3642  0.0492  0.5198
  132OSM     OF14282   2.967   1.029   6.763 -0.2470 -0.4149  0.2679
  132OSM    C2F14283   2.734   0.977   6.808  0.3459  0.0902 -0.6594
  132OSM    H2F14284   2.752   0.869   6.791  2.0841  0.2865 -0.2185
  132OSM    H2G14285   2.640   1.012   6.759  0.6597 -0.6660 -1.8368
  132OSM    C3F14286   2.703   0.978   6.966  0.0012 -0.7249  0.8996
  132OSM    H3F14287   2.783   0.923   7.020  0.2176 -0.2506  1.0644
  132OSM    H3G14288   2.609   0.921   6.980 -0.5614  0.1626  0.7675
  132OSM    C4F14289   2.691   1.115   7.033 -0.5724 -0.1012  0.4115
  132OSM    H4F14290   2.620   1.178   6.974  1.3196 -0.3140 -2.2675
  132OSM    H4G14291   2.792   1.161   7.037  0.2389 -1.7520 -0.2310
  132OSM    C5F14292   2.629   1.096   7.168 -0.0405  0.3846 -0.0053
  132OSM    H5F14293   2.533   1.039   7.168 -0.1919  0.6373 -0.2174
  132OSM    H5G14294   2.602   1.194   7.212  2.5560  0.6258  1.2046
  132OSM    C6F14295   2.726   1.029   7.261 -1.0014 -0.0212  0.4078
  132OSM    H6F14296   2.832   1.057   7.247 -0.8560  0.1605  1.7336
  132OSM    H6G14297   2.731   0.919   7.251  1.3634  0.0153  0.5764
  132OSM    C7F14298   2.693   1.060   7.408  0.1219 -0.2316 -0.3450
  132OSM    H7F14299   2.587   1.028   7.417  0.5245 -1.2659  1.1640
  132OSM    H7G14300   2.703   1.168   7.431  1.3710 -0.4839  0.3906
  132OSM    C8F14301   2.787   0.982   7.499  0.6562  0.1953  0.0839
  132OSM    H8F14302   2.888   1.027   7.507  1.0286 -0.5383 -0.3777
  132OSM    H8G14303   2.796   0.876   7.467  0.6572  0.6061 -1.3154
  132OSM    C9F14304   2.711   0.980   7.636  0.1214  0.0867 -0.6891
  132OSM    H9F14305   2.652   0.889   7.653  0.1655 -0.2668 -2.2803
  132OSM   C10F14306   2.701   1.073   7.727  0.0131 -0.3782  0.5709
  132OSM   H10F14307   2.657   1.039   7.822 -0.4566 -0.9356  0.1579
  132OSM   C11F14308   2.774   1.202   7.732 -0.4484 -0.6399 -0.3866
  132OSM   H11F14309   2.709   1.291   7.741 -0.5643 -0.7293 -0.3333
  132OSM   H11G14310   2.820   1.208   7.631 -0.8114 -2.8279 -0.7419
  132OSM   C12F14311   2.886   1.207   7.839 -0.1504  0.6390  0.9208
  132OSM   H12F14312   2.956   1.290   7.816  0.1753  1.4429  4.2920
  132OSM   H12G14313   2.937   1.110   7.824 -0.8051  0.5137 -0.8475
  132OSM   C13F14314   2.827   1.225   7.979 -0.5648 -0.1189  0.2400
  132OSM   H13F14315   2.785   1.130   8.019  1.9199 -1.2446  0.3495
  132OSM   H13G14316   2.735   1.286   7.983  0.1120  0.8564  1.8921
  132OSM   C14F14317   2.927   1.275   8.083 -0.1985  0.0578  0.2966
  132OSM   H14F14318   2.957   1.378   8.056  0.1630  0.2698  1.4252
  132OSM   H14G14319   3.021   1.215   8.074 -0.3645 -0.1001 -0.4124
  132OSM   C15F14320   2.874   1.268   8.227 -0.2397 -0.4848  0.3420
  132OSM   H15F14321   2.863   1.161   8.257 -0.0996 -0.3497  0.8826
  132OSM   H15G14322   2.775   1.315   8.242  1.2688  3.1689 -0.1709
  132OSM   C16F14323   2.968   1.320   8.337 -0.3436 -0.5160  0.1136
  132OSM   H16F14324   2.954   1.430   8.329 -0.8866 -0.5327  0.7745
  132OSM   H16G14325   3.074   1.291   8.322 -0.2930  0.5977 -2.1550
  132OSM   C17F14326   2.929   1.280   8.482 -0.0026  0.3773 -0.2221
  132OSM   H17F14327   2.897   1.174   8.485  0.9386  0.0373 -1.3894
  132OSM   H17G14328   2.845   1.344   8.517  1.7801  2.5716  0.3007
  132OSM   C18F14329   3.047   1.287   8.584  0.2201  0.2644  1.1987
  132OSM   H18F14330   3.012   1.274   8.688 -1.9433 -0.2582  0.4542
  132OSM   H18G14331   3.099   1.385   8.588 -0.0292  0.4794 -0.2105
  132OSM   H18H14332   3.124   1.208   8.567  0.4745  0.5132  1.1978
  133OSM      N14333   3.988   1.453   6.389  0.3262 -0.4961 -0.2775
  133OSM    C1514334   4.056   1.401   6.511  0.1128 -0.5211 -0.4938
  133OSM   H15A14335   4.114   1.314   6.485 -1.6146 -0.9240 -3.2970
  133OSM   H15B14336   3.982   1.361   6.578  0.2506 -2.4245 -1.4335
  133OSM   H15C14337   4.099   1.481   6.571 -2.5290  1.6149 -1.2216
  133OSM    C1414338   4.090   1.528   6.308 -0.5697  0.6580 -0.3054
  133OSM   H14A14339   4.039   1.579   6.228 -0.8264 -1.0345 -1.2867
  133OSM   H14B14340   4.172   1.463   6.281  1.8654  3.0508  0.9286
  133OSM   H14C14341   4.127   1.604   6.375 -3.8022  2.5930 -0.5181
  133OSM    C1314342   3.923   1.344   6.314 -0.1251  0.5251  0.3877
  133OSM   H13A14343   3.849   1.383   6.247 -2.0859  0.2562  2.2955
  133OSM   H13B14344   3.870   1.274   6.377 -1.4774 -0.1666 -1.4353
  133OSM   H13C14345   3.994   1.282   6.261 -0.5835  1.0029 -0.8161
  133OSM    C1214346   3.876   1.555   6.419 -0.2884  0.1079 -0.5222
  133OSM   H12A14347   3.923   1.625   6.486  1.7948 -0.5397 -1.2474
  133OSM   H12B14348   3.802   1.504   6.479 -1.2268 -1.0000 -2.4976
  133OSM    C1114349   3.796   1.628   6.305  0.1343  0.3953  0.4222
  133OSM   H11A14350   3.871   1.697   6.260  0.4827  0.3834  0.9629
  133OSM   H11B14351   3.731   1.699   6.360  1.9437  0.2597  2.9596
  133OSM      P14352   3.585   1.516   6.214 -0.3061 -0.3156 -0.2266
  133OSM    O1314353   3.515   1.609   6.129  0.0713 -0.3938 -0.0052
  133OSM    O1414354   3.563   1.373   6.188 -0.0157  0.1208  0.1750
  133OSM    O1114355   3.542   1.549   6.363 -0.2493 -0.0081  0.0962
  133OSM    O1214356   3.736   1.546   6.208 -0.4057  0.0433  0.2907
  133OSM    C1S14357   3.551   1.451   6.475  0.4470 -0.1464  0.5384
  133OSM    H1S14358   3.655   1.413   6.481  0.1525 -0.7962  1.8582
  133OSM    H1T14359   3.478   1.368   6.462 -0.9827  0.9441  1.3387
  133OSM     NF14360   3.579   1.423   6.715 -0.4909  0.4594 -0.3215
  133OSM    HNF14361   3.511   1.364   6.759 -0.4943  0.2766 -0.5704
  133OSM    C2S14362   3.543   1.516   6.613  1.4252 -0.5065 -0.0223
  133OSM    H2S14363   3.604   1.608   6.604 -2.2224  2.1525 -0.0236
  133OSM    C3S14364   3.396   1.560   6.631  0.2204 -0.1114  0.1864
  133OSM    H3S14365   3.338   1.466   6.619  1.7862 -1.5121  2.6478
  133OSM     O314366   3.347   1.651   6.528 -0.4175 -1.0701 -0.3095
  133OSM    HO314367   3.428   1.655   6.476  0.4756  0.7587  1.1083
  133OSM    C4S14368   3.371   1.602   6.770  0.0892 -0.7440  0.4259
  133OSM    H4S14369   3.422   1.694   6.804 -5.5513  1.8911  3.2047
  133OSM    C5S14370   3.291   1.543   6.861 -0.0899 -0.0454  0.0573
  133OSM    H5S14371   3.229   1.456   6.834 -0.4125 -0.8328  2.9825
  133OSM    C6S14372   3.267   1.580   7.002  0.4053  0.3401 -0.3884
  133OSM    H6S14373   3.242   1.488   7.059 -1.5006  0.9166 -0.2126
  133OSM    H6T14374   3.175   1.642   7.001 -2.4527 -3.3361 -4.2577
  133OSM    C7S14375   3.374   1.650   7.089  0.4361 -0.1628  0.4803
  133OSM    H7S14376   3.376   1.758   7.063  2.6212 -0.1565  0.5341
  133OSM    H7T14377   3.466   1.603   7.049 -0.9979 -0.6153 -2.5401
  133OSM    C8S14378   3.349   1.634   7.240 -0.1848  0.1326 -0.3956
  133OSM    H8S14379   3.363   1.528   7.268 -0.4057  0.9282  3.3617
  133OSM    H8T14380   3.245   1.666   7.265 -0.6106 -0.4490 -1.3828
  133OSM    C9S14381   3.446   1.714   7.329  0.5704 -0.9754 -0.1794
  133OSM    H9S14382   3.423   1.814   7.287  2.3051 -0.6681 -0.4939
  133OSM    H9T14383   3.551   1.691   7.302  0.3847  0.1525 -2.0390
  133OSM   C10S14384   3.432   1.699   7.477  0.0871 -0.5079 -0.2208
  133OSM   H10S14385   3.467   1.599   7.511 -0.6937 -0.0232  2.1855
  133OSM   H10T14386   3.325   1.703   7.507  0.0418  1.0082 -0.4939
  133OSM   C11S14387   3.517   1.792   7.557 -0.3039 -0.4923  0.1548
  133OSM   H11S14388   3.492   1.896   7.524  1.3307 -0.3396 -0.7523
  133OSM   H11T14389   3.616   1.765   7.514  0.4257 -0.1299  1.5555
  133OSM   C12S14390   3.510   1.761   7.704 -0.2635  0.1314  0.5290
  133OSM   H12S14391   3.556   1.662   7.725 -0.4957 -0.2424 -0.6185
  133OSM   H12T14392   3.406   1.757   7.741 -0.7198 -1.8569 -0.7531
  133OSM   C13S14393   3.593   1.858   7.782  0.8284 -0.2194 -1.1190
  133OSM   H13S14394   3.548   1.958   7.764  0.5961  0.1147  0.9748
  133OSM   H13T14395   3.699   1.842   7.756  0.4203 -3.7441 -1.0242
  133OSM   C14S14396   3.564   1.837   7.929 -0.0766  0.3703  0.0047
  133OSM   H14S14397   3.613   1.744   7.963 -2.4593 -0.7413  0.6072
  133OSM   H14T14398   3.459   1.815   7.958 -0.0039  1.0601  0.8281
  133OSM   C15S14399   3.616   1.944   8.031  0.4117  0.3347  0.2782
  133OSM   H15S14400   3.560   2.036   8.004 -0.3003 -0.4765 -1.1145
  133OSM   H15T14401   3.726   1.950   8.013  1.0667 -2.5323  2.4860
  133OSM   C16S14402   3.579   1.911   8.177  0.5358  0.3604 -0.1996
  133OSM   H16S14403   3.626   1.817   8.213  1.3101  1.0594  0.6543
  133OSM   H16T14404   3.468   1.899   8.178  0.6805 -1.6671 -2.0361
  133OSM   C17S14405   3.610   2.009   8.290  0.2095 -0.7390  0.4537
  133OSM   H17S14406   3.577   2.110   8.255 -2.3933 -1.5026  0.5151
  133OSM   H17T14407   3.721   2.005   8.294  0.1831 -2.6155  0.0752
  133OSM   C18S14408   3.537   1.974   8.422  0.2890 -0.2520  0.7424
  133OSM   H18S14409   3.555   2.047   8.503  1.2446  0.1184  0.2049
  133OSM   H18T14410   3.575   1.876   8.458  2.3873 -0.1214 -0.8907
  133OSM   H18U14411   3.429   1.966   8.398  0.4070 -1.3366  0.5064
  133OSM    C1F14412   3.707   1.382   6.731 -0.4948 -0.0140 -0.2362
  133OSM     OF14413   3.807   1.437   6.677  0.4367 -0.3686 -0.4762
  133OSM    C2F14414   3.729   1.253   6.810 -0.0878 -0.0509 -0.0184
  133OSM    H2F14415   3.765   1.177   6.738  1.1166  1.4668 -1.0938
  133OSM    H2G14416   3.625   1.225   6.838  0.5440 -1.4515  1.0605
  133OSM    C3F14417   3.828   1.261   6.933 -0.6058 -0.9492  0.5150
  133OSM    H3F14418   3.932   1.279   6.898 -1.3726 -0.3006 -1.6533
  133OSM    H3G14419   3.818   1.167   6.991 -0.5163  0.1572  2.3828
  133OSM    C4F14420   3.785   1.373   7.026 -0.2297 -0.8839 -0.1095
  133OSM    H4F14421   3.675   1.374   7.037 -0.2271  0.1465 -0.1043
  133OSM    H4G14422   3.823   1.467   6.980  0.6487 -1.5105 -0.7065
  133OSM    C5F14423   3.850   1.367   7.169 -0.2285 -0.1165  0.2049
  133OSM    H5F14424   3.960   1.382   7.161 -0.2809 -0.3644 -1.4010
  133OSM    H5G14425   3.832   1.264   7.205 -1.6048 -0.8066 -2.2444
  133OSM    C6F14426   3.801   1.474   7.269  1.0266  0.3148  0.4237
  133OSM    H6F14427   3.692   1.491   7.258  0.8819 -0.7078  0.1418
  133OSM    H6G14428   3.846   1.575   7.257  2.0028 -0.3718 -2.5403
  133OSM    C7F14429   3.840   1.423   7.411 -0.3601 -0.2311 -0.1765
  133OSM    H7F14430   3.950   1.434   7.426 -0.3907  1.0535 -0.7444
  133OSM    H7G14431   3.809   1.317   7.414  0.1195 -0.3867 -0.5056
  133OSM    C8F14432   3.784   1.515   7.523  0.4511 -0.3414  0.1456
  133OSM    H8F14433   3.784   1.459   7.619  1.4551 -0.0657  0.3168
  133OSM    H8G14434   3.678   1.529   7.492  0.4698 -0.5342 -0.0087
  133OSM    C9F14435   3.864   1.640   7.535  0.3065 -0.3484  0.3019
  133OSM    H9F14436   3.863   1.704   7.445 -0.8094 -1.7842 -0.7610
  133OSM   C10F14437   3.934   1.683   7.643  0.3341  0.4204  0.1946
  133OSM   H10F14438   3.991   1.776   7.632 -1.6983  1.9170  1.5511
  133OSM   C11F14439   3.941   1.609   7.781 -0.7241 -0.5425  0.1278
  133OSM   H11F14440   4.039   1.558   7.789  1.0510  2.5323 -0.4874
  133OSM   H11G14441   3.870   1.526   7.801 -0.4780 -0.2598  2.4727
  133OSM   C12F14442   3.939   1.702   7.896 -0.1908  0.6126  0.4761
  133OSM   H12F14443   3.854   1.772   7.891 -0.0637  0.6914 -1.9121
  133OSM   H12G14444   4.028   1.768   7.895  1.5434 -1.5963  0.6940
  133OSM   C13F14445   3.949   1.634   8.034  0.8442 -0.3050 -0.0023
  133OSM   H13F14446   4.046   1.581   8.050  0.5725 -0.4151  1.4358
  133OSM   H13G14447   3.873   1.554   8.047 -0.8329  1.4790  1.8705
  133OSM   C14F14448   3.934   1.738   8.147  0.1893 -0.3126  0.0392
  133OSM   H14F14449   3.835   1.785   8.128  0.3458 -0.7735 -2.0746
  133OSM   H14G14450   4.001   1.826   8.135 -0.7902  0.2820 -1.4167
  133OSM   C15F14451   3.930   1.686   8.284 -0.2785  0.2110  0.3817
  133OSM   H15F14452   4.010   1.610   8.295 -0.9334 -0.3248  1.6486
  133OSM   H15G14453   3.837   1.626   8.294 -0.7923  1.0320  0.6437
  133OSM   C16F14454   3.960   1.788   8.401 -0.4217  0.2330 -0.4292
  133OSM   H16F14455   3.875   1.860   8.397 -0.9655 -0.4158 -0.8353
  133OSM   H16G14456   4.049   1.844   8.364 -1.3362  2.2375  0.2475
  133OSM   C17F14457   3.986   1.727   8.533  0.2923  0.1152  0.6191
  133OSM   H17F14458   3.894   1.672   8.562 -0.3982 -0.8343 -2.9080
  133OSM   H17G14459   3.992   1.806   8.611 -1.7586  1.3570 -0.4050
  133OSM   C18F14460   4.120   1.648   8.545 -0.9933  0.0816  0.6475
  133OSM   H18F14461   4.140   1.600   8.643  2.2911 -2.7280 -1.1684
  133OSM   H18G14462   4.207   1.714   8.524  0.2090 -1.1324  1.5494
  133OSM   H18H14463   4.103   1.560   8.478 -2.2268 -0.1456  1.2325
  134OSM      N14464   3.335   6.754   6.124 -0.2329 -0.3726 -0.2896
  134OSM    C1514465   3.248   6.850   6.199  0.1189  0.7602  0.2567
  134OSM   H15A14466   3.179   6.907   6.139 -0.0285  2.0225  1.5737
  134OSM   H15B14467   3.318   6.921   6.241  0.9807 -0.7598  1.5112
  134OSM   H15C14468   3.185   6.805   6.275 -1.6123 -2.1046 -2.6183
  134OSM    C1414469   3.244   6.649   6.064  0.2997  0.7745  0.5229
  134OSM   H14A14470   3.168   6.691   5.999 -1.2204 -0.1470  1.6553
  134OSM   H14B14471   3.199   6.588   6.140  1.2908 -3.0690 -1.7254
  134OSM   H14C14472   3.305   6.576   6.014  1.5820  1.0901  1.5590
  134OSM    C1314473   3.407   6.824   6.021  0.4940 -0.1515 -0.1279
  134OSM   H13A14474   3.466   6.751   5.968  1.4821  0.8597 -0.4632
  134OSM   H13B14475   3.474   6.902   6.056 -0.6278  0.6508  0.2888
  134OSM   H13C14476   3.335   6.861   5.950 -2.7325 -2.2172  1.7816
  134OSM    C1214477   3.429   6.686   6.218  0.8574 -0.5970 -0.2436
  134OSM   H12A14478   3.502   6.760   6.247 -1.4103 -0.1033  5.5443
  134OSM   H12B14479   3.477   6.604   6.165 -1.2610 -1.0250 -1.6060
  134OSM    C1114480   3.378   6.619   6.351  0.1099  0.0475 -0.3872
  134OSM   H11A14481   3.291   6.553   6.331 -0.6995 -0.4738  3.9226
  134OSM   H11B14482   3.340   6.702   6.414  1.0179  1.2181 -1.3296
  134OSM      P14483   3.517   6.406   6.392 -0.2332  0.0490  0.0047
  134OSM    O1314484   3.457   6.356   6.265  0.2047 -0.4879  0.4014
  134OSM    O1414485   3.671   6.401   6.418  0.0927  0.7137 -0.3425
  134OSM    O1114486   3.438   6.339   6.507  0.2801 -0.1350 -0.5435
  134OSM    O1214487   3.483   6.554   6.416  0.4316 -0.2379  0.0566
  134OSM    C1S14488   3.461   6.370   6.652  0.0979  0.1520 -0.2498
  134OSM    H1S14489   3.382   6.435   6.696  0.9666  0.0204  1.5925
  134OSM    H1T14490   3.565   6.403   6.669 -0.2867  0.0976  2.8573
  134OSM     NF14491   3.450   6.275   6.880 -0.4019 -0.0675  0.0968
  134OSM    HNF14492   3.547   6.272   6.906 -0.0799  0.9095 -0.8985
  134OSM    C2S14493   3.445   6.241   6.744 -0.2124 -0.0457  0.4281
  134OSM    H2S14494   3.342   6.210   6.719 -0.6247  2.4351 -1.3677
  134OSM    C3S14495   3.543   6.127   6.690 -0.6598  0.1386  0.3494
  134OSM    H3S14496   3.647   6.163   6.700 -0.3528  0.0841 -2.1125
  134OSM     O314497   3.525   6.102   6.556 -0.4748 -0.2785 -0.1096
  134OSM    HO314498   3.462   6.168   6.528 -2.0866 -1.1204  1.3935
  134OSM    C4S14499   3.520   6.000   6.765 -0.8925 -1.4555  0.4467
  134OSM    H4S14500   3.418   5.961   6.752 -1.0851 -0.6488 -0.6233
  134OSM    C5S14501   3.612   5.934   6.833  0.2728  0.6349  0.0719
  134OSM    H5S14502   3.715   5.973   6.833  0.9931 -1.1787 -0.1183
  134OSM    C6S14503   3.587   5.814   6.921  0.4688 -0.1182  0.7072
  134OSM    H6S14504   3.618   5.834   7.026 -0.0473  1.8350  0.5106
  134OSM    H6T14505   3.653   5.728   6.895 -1.3007 -1.1815 -0.4928
  134OSM    C7S14506   3.448   5.770   6.929 -0.0582 -0.0731  0.3087
  134OSM    H7S14507   3.410   5.730   6.832  2.6924 -0.5936 -0.6568
  134OSM    H7T14508   3.381   5.851   6.964  1.1143 -0.2060  3.0867
  134OSM    C8S14509   3.418   5.659   7.035 -0.6493 -0.0048  0.2711
  134OSM    H8S14510   3.459   5.564   6.996 -0.7904  0.8935 -2.2061
  134OSM    H8T14511   3.308   5.645   7.036 -0.9398  1.8684  2.2238
  134OSM    C9S14512   3.473   5.693   7.188  0.2363 -0.4247  0.5930
  134OSM    H9S14513   3.429   5.794   7.207  0.3966  1.0149 -4.9837
  134OSM    H9T14514   3.584   5.691   7.186  0.2231 -1.5295  0.3519
  134OSM   C10S14515   3.456   5.594   7.305 -0.0099 -0.3033  0.3628
  134OSM   H10S14516   3.509   5.497   7.290  3.1200  1.1079  1.2464
  134OSM   H10T14517   3.346   5.588   7.317 -0.6526  0.3408 -3.7235
  134OSM   C11S14518   3.519   5.645   7.436  0.4526 -0.6236  0.6193
  134OSM   H11S14519   3.538   5.753   7.421 -1.5246 -0.4442 -1.0338
  134OSM   H11T14520   3.622   5.608   7.458 -0.0005 -0.6880  2.8332
  134OSM   C12S14521   3.432   5.618   7.560  0.5199  0.1157 -0.0268
  134OSM   H12S14522   3.391   5.515   7.550 -2.2071  1.0883  0.3067
  134OSM   H12T14523   3.344   5.686   7.563 -0.5881 -1.2688  1.3484
  134OSM   C13S14524   3.510   5.631   7.693 -0.6085  0.9227 -0.1897
  134OSM   H13S14525   3.515   5.740   7.715 -0.2654  0.8916 -0.1063
  134OSM   H13T14526   3.613   5.593   7.676 -1.5352 -2.9751  1.7939
  134OSM   C14S14527   3.455   5.543   7.806 -0.8936 -0.7819 -0.4841
  134OSM   H14S14528   3.463   5.437   7.771 -2.0163 -0.2584 -2.4998
  134OSM   H14T14529   3.346   5.560   7.817 -0.7524  0.9938 -1.5021
  134OSM   C15S14530   3.531   5.578   7.935 -0.0272  0.9446  0.6314
  134OSM   H15S14531   3.558   5.686   7.939  1.0075  0.7782 -0.9714
  134OSM   H15T14532   3.623   5.517   7.928  0.0404  1.1692 -0.7712
  134OSM   C16S14533   3.450   5.537   8.058 -0.0345  0.0515  0.0573
  134OSM   H16S14534   3.417   5.434   8.035  1.8182  0.1109 -3.8285
  134OSM   H16T14535   3.362   5.604   8.065  0.7357  1.2355 -0.9695
  134OSM   C17S14536   3.524   5.542   8.193  0.1195 -1.1528  0.0572
  134OSM   H17S14537   3.549   5.644   8.230 -0.7225 -0.5272 -1.0208
  134OSM   H17T14538   3.621   5.496   8.164  0.2588 -0.2495 -0.9837
  134OSM   C18S14539   3.465   5.455   8.305 -0.1858  0.3361 -0.3137
  134OSM   H18S14540   3.474   5.346   8.286 -0.3291 -0.0448  1.5511
  134OSM   H18T14541   3.362   5.492   8.322  0.1608  1.0966  0.2451
  134OSM   H18U14542   3.507   5.474   8.407 -0.4174  0.4891 -0.2455
  134OSM    C1F14543   3.353   6.344   6.949  0.0298  0.7058 -0.3614
  134OSM     OF14544   3.241   6.362   6.901 -0.6319 -0.0641 -0.4298
  134OSM    C2F14545   3.385   6.384   7.089  0.2224 -0.5260 -0.0941
  134OSM    H2F14546   3.495   6.395   7.102  0.0332 -0.4616  1.5851
  134OSM    H2G14547   3.343   6.317   7.167 -0.6025 -1.0510 -0.9639
  134OSM    C3F14548   3.333   6.529   7.116  0.0565  0.1710  0.2839
  134OSM    H3F14549   3.222   6.527   7.124 -0.1042  2.1965 -0.8145
  134OSM    H3G14550   3.377   6.591   7.035 -0.0730 -0.8742 -0.6172
  134OSM    C4F14551   3.378   6.569   7.254  0.2664  0.4686  0.4075
  134OSM    H4F14552   3.350   6.677   7.260  0.6898  0.6370 -0.4292
  134OSM    H4G14553   3.489   6.575   7.257  0.3701 -1.3895  1.3950
  134OSM    C5F14554   3.322   6.486   7.368  0.3363 -0.2279 -0.1124
  134OSM    H5F14555   3.368   6.386   7.382  2.3646  0.7679  0.7838
  134OSM    H5G14556   3.213   6.473   7.347 -0.5570  2.6540  2.0438
  134OSM    C6F14557   3.323   6.570   7.497 -0.3759 -0.5524  0.1251
  134OSM    H6F14558   3.269   6.667   7.485  1.8087  0.8084  0.6727
  134OSM    H6G14559   3.428   6.593   7.526  0.2579 -2.9073 -0.0963
  134OSM    C7F14560   3.269   6.491   7.616  0.0099  0.1729 -0.0571
  134OSM    H7F14561   3.319   6.395   7.639 -0.4773  0.3525  1.9676
  134OSM    H7G14562   3.163   6.461   7.603 -0.1284 -0.0702  1.4482
  134OSM    C8F14563   3.271   6.569   7.751  0.7339 -0.0513  0.2560
  134OSM    H8F14564   3.233   6.671   7.727  2.2376  0.3488 -0.5754
  134OSM    H8G14565   3.376   6.587   7.782  0.2962  1.4404  0.9824
  134OSM    C9F14566   3.191   6.497   7.857  0.2968 -0.3224 -0.0860
  134OSM    H9F14567   3.244   6.414   7.906  1.2657  1.4857  2.1271
  134OSM   C10F14568   3.071   6.536   7.902 -0.0214  0.0809  0.4206
  134OSM   H10F14569   3.011   6.467   7.963 -1.2549 -1.1685 -2.0375
  134OSM   C11F14570   2.993   6.660   7.862  0.2000  0.5994  0.2621
  134OSM   H11F14571   2.882   6.650   7.862  0.2651 -0.1561 -0.0405
  134OSM   H11G14572   3.020   6.689   7.758  1.2323  0.7891  0.5687
  134OSM   C12F14573   3.020   6.785   7.958  0.5578  0.5661 -0.7754
  134OSM   H12F14574   3.129   6.790   7.978  0.2332  0.8623  1.1880
  134OSM   H12G14575   2.979   6.748   8.055  0.2007  1.7338 -0.4581
  134OSM   C13F14576   2.964   6.914   7.910 -0.1682  0.3560  0.1830
  134OSM   H13F14577   2.860   6.901   7.872  0.1835  0.3932 -0.8279
  134OSM   H13G14578   3.034   6.942   7.828  1.1054  0.3554  1.2473
  134OSM   C14F14579   2.968   7.034   8.000 -0.2495 -0.8492 -0.2211
  134OSM   H14F14580   2.975   7.120   7.930  0.4152 -0.8806 -0.2019
  134OSM   H14G14581   3.060   7.028   8.062  0.7935 -0.5141 -1.6631
  134OSM   C15F14582   2.849   7.044   8.094  0.3499  0.1705 -0.0541
  134OSM   H15F14583   2.865   6.958   8.163 -0.0067 -0.5722 -0.8871
  134OSM   H15G14584   2.761   7.023   8.030  0.1754 -0.5641  0.4170
  134OSM   C16F14585   2.834   7.185   8.173 -0.0004  0.3234  0.0172
  134OSM   H16F14586   2.756   7.238   8.114  0.5411  0.1582 -0.8730
  134OSM   H16G14587   2.925   7.248   8.173 -0.3175  0.7999  0.7456
  134OSM   C17F14588   2.786   7.166   8.315  0.5929 -0.3215 -0.2819
  134OSM   H17F14589   2.862   7.115   8.378  0.7603  0.1971 -0.0587
  134OSM   H17G14590   2.701   7.096   8.301 -1.1611  1.4231  1.1229
  134OSM   C18F14591   2.744   7.298   8.390  0.6709  0.5213 -0.9804
  134OSM   H18F14592   2.694   7.261   8.482  2.0737  0.5255 -0.2008
  134OSM   H18G14593   2.666   7.359   8.339 -2.3896 -0.3011  2.3028
  134OSM   H18H14594   2.829   7.361   8.423  1.2553 -1.0792  0.7145
  135OSM      N14595   3.079   5.896   6.101 -0.1799  0.1924  0.2087
  135OSM    C1514596   3.154   5.993   6.017  0.0341 -0.1324 -0.1727
  135OSM   H15A14597   3.208   6.057   6.085  0.5119 -1.4496  0.7355
  135OSM   H15B14598   3.094   6.062   5.959 -1.7547 -2.1846 -0.8911
  135OSM   H15C14599   3.225   5.944   5.953  1.0639  2.2341 -0.9662
  135OSM    C1414600   2.993   5.812   6.012  0.5600 -0.4719 -0.2057
  135OSM   H14A14601   2.917   5.869   5.961  0.0942 -0.8882  0.0066
  135OSM   H14B14602   2.936   5.745   6.076  1.0014 -1.5569 -0.9311
  135OSM   H14C14603   3.044   5.745   5.946  2.2036  0.1899  0.3526
  135OSM    C1314604   3.189   5.808   6.164 -0.7126  0.4834 -0.4973
  135OSM   H13A14605   3.245   5.749   6.092  1.0069  0.0278  1.1528
  135OSM   H13B14606   3.144   5.732   6.225  1.9327 -0.5956  0.2439
  135OSM   H13C14607   3.251   5.869   6.227 -0.4735  0.9730 -1.1861
  135OSM    C1214608   2.989   5.968   6.205 -0.2111  0.0772  0.2342
  135OSM   H12A14609   2.940   5.891   6.262 -1.5489  2.4028  2.4783
  135OSM   H12B14610   2.912   6.025   6.156  0.5803  1.1227  0.1594
  135OSM    C1114611   3.050   6.066   6.305  0.0468  0.1159 -0.1208
  135OSM   H11A14612   3.126   6.007   6.361 -0.7883 -0.4752  0.4173
  135OSM   H11B14613   2.981   6.092   6.388  0.5272  0.1944  0.2573
  135OSM      P14614   2.997   6.292   6.214  0.1052 -0.2806 -0.3476
  135OSM    O1314615   3.075   6.399   6.145  0.0870 -0.6360 -0.2126
  135OSM    O1414616   2.882   6.239   6.139  0.7745  0.8361 -0.5623
  135OSM    O1114617   2.949   6.340   6.353 -0.4220  0.6226 -0.4926
  135OSM    O1214618   3.101   6.184   6.250 -0.2085 -0.7026  0.4832
  135OSM    C1S14619   3.052   6.372   6.451 -0.4989 -0.7430 -1.2033
  135OSM    H1S14620   3.104   6.459   6.405 -0.9581 -0.1082 -0.5495
  135OSM    H1T14621   3.126   6.291   6.460  2.2794  1.4584 -2.5771
  135OSM     NF14622   3.095   6.495   6.676  0.1810  0.1900  0.3694
  135OSM    HNF14623   3.127   6.459   6.764  1.3525  0.2409 -0.0218
  135OSM    C2S14624   2.999   6.416   6.595  0.6125  0.5074  0.7282
  135OSM    H2S14625   2.906   6.476   6.587 -0.3465 -0.8675  1.1092
  135OSM    C3S14626   2.947   6.291   6.665  0.2110  0.8642 -0.6679
  135OSM    H3S14627   3.025   6.212   6.675 -0.6035  0.3494  2.7023
  135OSM     O314628   2.832   6.231   6.599  0.4906  0.2382  0.6427
  135OSM    HO314629   2.821   6.260   6.508  2.7766  1.7218  0.7568
  135OSM    C4S14630   2.906   6.313   6.810 -0.1310 -0.8284 -0.4600
  135OSM    H4S14631   2.991   6.288   6.875  0.4311  1.7648 -0.1044
  135OSM    C5S14632   2.794   6.375   6.859 -0.6487 -0.1238 -0.3183
  135OSM    H5S14633   2.707   6.399   6.796 -1.0177 -0.9474 -0.1454
  135OSM    C6S14634   2.780   6.406   7.006  0.6940  0.0958 -0.6788
  135OSM    H6S14635   2.704   6.346   7.061 -1.2303  3.6764  0.8905
  135OSM    H6T14636   2.746   6.511   7.011  0.5529  0.0437 -0.5451
  135OSM    C7S14637   2.901   6.380   7.097  0.0314  0.1031 -0.4832
  135OSM    H7S14638   2.990   6.438   7.063 -0.8890  1.5000 -0.6090
  135OSM    H7T14639   2.941   6.277   7.101  2.7750  1.0814 -0.8261
  135OSM    C8S14640   2.873   6.431   7.241 -0.7682 -0.1610 -0.5517
  135OSM    H8S14641   2.812   6.524   7.239 -0.0952  0.3016  0.0227
  135OSM    H8T14642   2.970   6.470   7.279  0.3897  1.0156 -4.2005
  135OSM    C9S14643   2.819   6.320   7.336  0.3290  0.5883  0.1287
  135OSM    H9S14644   2.894   6.239   7.328  0.9349  1.1810 -0.3176
  135OSM    H9T14645   2.715   6.288   7.312  0.5324 -0.1190  0.1880
  135OSM   C10S14646   2.817   6.361   7.477 -0.6833 -0.3377 -1.0606
  135OSM   H10S14647   2.741   6.439   7.501  1.2883  0.9324  1.4847
  135OSM   H10T14648   2.913   6.404   7.513  0.3757 -1.5784 -2.3096
  135OSM   C11S14649   2.765   6.249   7.565  0.2570  0.1228 -0.0799
  135OSM   H11S14650   2.828   6.160   7.542  0.8455  0.6689 -0.5940
  135OSM   H11T14651   2.658   6.230   7.539  0.3448 -0.2895 -0.1449
  135OSM   C12S14652   2.768   6.281   7.718 -0.2731  0.1598 -0.0201
  135OSM   H12S14653   2.875   6.290   7.743 -0.3635  0.0680  0.4154
  135OSM   H12T14654   2.727   6.190   7.768  1.3428 -1.4070 -1.4105
  135OSM   C13S14655   2.689   6.406   7.774  0.5788  0.1031 -0.6221
  135OSM   H13S14656   2.596   6.412   7.714 -0.2769 -0.6207  0.5957
  135OSM   H13T14657   2.743   6.493   7.730  1.9981 -1.2711 -1.6751
  135OSM   C14S14658   2.654   6.419   7.921  0.0641 -0.4559 -0.3684
  135OSM   H14S14659   2.615   6.523   7.924  1.0790 -0.0868  1.1977
  135OSM   H14T14660   2.751   6.418   7.976 -0.6733  1.2472  1.0841
  135OSM   C15S14661   2.547   6.320   7.964  0.5552  0.4946 -0.4811
  135OSM   H15S14662   2.565   6.215   7.932 -1.0547  0.6137 -1.9506
  135OSM   H15T14663   2.454   6.359   7.916  0.0008 -0.6104 -0.3428
  135OSM   C16S14664   2.507   6.327   8.109 -0.1299 -0.0800 -1.0507
  135OSM   H16S14665   2.416   6.269   8.138  0.1991  0.7282  1.8883
  135OSM   H16T14666   2.482   6.435   8.119 -1.3859 -0.4278 -0.1056
  135OSM   C17S14667   2.626   6.283   8.202  0.0607  0.1246 -0.0037
  135OSM   H17S14668   2.607   6.328   8.301 -4.3055  1.3841 -1.1978
  135OSM   H17T14669   2.719   6.332   8.169  0.5897 -0.5105  0.5047
  135OSM   C18S14670   2.636   6.131   8.195  0.0246  0.0372  0.3148
  135OSM   H18S14671   2.658   6.103   8.090  0.9643  0.9517  0.2528
  135OSM   H18T14672   2.541   6.079   8.221 -1.8152  2.3705 -1.3222
  135OSM   H18U14673   2.720   6.094   8.258 -0.1377  2.1986  1.9086
  135OSM    C1F14674   3.129   6.613   6.644  0.1480  0.0744  0.9874
  135OSM     OF14675   3.083   6.666   6.541 -0.7591 -0.1340 -0.4460
  135OSM    C2F14676   3.214   6.694   6.737 -0.7821 -0.2220 -1.0316
  135OSM    H2F14677   3.270   6.763   6.671 -0.1979  0.5823  0.2833
  135OSM    H2G14678   3.286   6.623   6.783 -0.5624 -0.1303 -1.2304
  135OSM    C3F14679   3.132   6.769   6.846 -0.4193 -0.3428  0.3472
  135OSM    H3F14680   3.089   6.684   6.902  0.0171 -1.0650 -0.3795
  135OSM    H3G14681   3.043   6.815   6.799 -1.1919 -2.3081 -0.2131
  135OSM    C4F14682   3.210   6.872   6.936 -0.3929  0.1548  0.6148
  135OSM    H4F14683   3.226   6.965   6.877  0.8844 -0.8799 -0.7300
  135OSM    H4G14684   3.310   6.829   6.958 -0.2067  0.3000  0.0697
  135OSM    C5F14685   3.158   6.893   7.081 -0.7835 -0.6969 -0.1207
  135OSM    H5F14686   3.142   6.787   7.110 -1.5893 -1.4620 -3.1003
  135OSM    H5G14687   3.057   6.936   7.096  0.1011  2.1330 -1.5335
  135OSM    C6F14688   3.252   6.971   7.180  0.1790 -0.0325 -0.2452
  135OSM    H6F14689   3.245   7.075   7.143 -1.3084  0.4000  1.1256
  135OSM    H6G14690   3.356   6.932   7.183  0.0643 -0.4257 -1.0656
  135OSM    C7F14691   3.195   6.968   7.323  0.6492  0.4583  0.0487
  135OSM    H7F14692   3.180   6.863   7.358  1.0771  0.4895  0.3374
  135OSM    H7G14693   3.095   7.016   7.328  0.3331  0.3416 -3.0214
  135OSM    C8F14694   3.296   7.034   7.424 -0.1402  1.1990 -0.0898
  135OSM    H8F14695   3.242   7.067   7.516 -0.0180 -0.6433  0.6775
  135OSM    H8G14696   3.329   7.130   7.378 -1.0489  0.7509 -1.7249
  135OSM    C9F14697   3.413   6.946   7.459  0.1768 -0.4079  0.5375
  135OSM    H9F14698   3.406   6.846   7.414 -2.1157 -1.4600  2.9680
  135OSM   C10F14699   3.524   6.974   7.528 -0.1768 -0.2011 -0.3719
  135OSM   H10F14700   3.605   6.900   7.541  1.7124  1.7126 -0.8442
  135OSM   C11F14701   3.532   7.112   7.584 -0.1545  0.0523  0.4338
  135OSM   H11F14702   3.449   7.178   7.551  0.1353  1.0982  1.6849
  135OSM   H11G14703   3.632   7.146   7.548 -0.0834 -0.7883 -0.1926
  135OSM   C12F14704   3.531   7.093   7.743  0.1299 -0.3410  0.7370
  135OSM   H12F14705   3.558   7.194   7.781  0.3349  1.1341 -2.8702
  135OSM   H12G14706   3.601   7.013   7.772  0.2274  0.4114  2.6957
  135OSM   C13F14707   3.399   7.040   7.802 -0.0776 -0.4771 -0.1356
  135OSM   H13F14708   3.348   6.977   7.726 -0.5051 -0.7706  0.3865
  135OSM   H13G14709   3.326   7.119   7.830  0.4973 -0.2279  0.6966
  135OSM   C14F14710   3.423   6.959   7.930 -0.6770  1.1294  0.1243
  135OSM   H14F14711   3.511   6.890   7.920 -2.7211 -1.6436  0.0431
  135OSM   H14G14712   3.334   6.894   7.943  1.4568 -3.1759 -3.7803
  135OSM   C15F14713   3.441   7.051   8.055 -0.8525  0.1952  0.0628
  135OSM   H15F14714   3.354   7.119   8.070 -0.6995  0.5440 -0.5717
  135OSM   H15G14715   3.539   7.102   8.044 -0.4372 -0.7924 -1.2094
  135OSM   C16F14716   3.434   6.973   8.184  0.1865 -0.1876 -0.1165
  135OSM   H16F14717   3.465   6.867   8.169 -1.9027 -0.7751 -0.6382
  135OSM   H16G14718   3.328   6.962   8.217  0.5694 -0.1640  1.1771
  135OSM   C17F14719   3.525   7.025   8.298  0.0742  0.5822 -0.0989
  135OSM   H17F14720   3.484   7.121   8.336  0.8677  1.2178 -0.8043
  135OSM   H17G14721   3.624   7.051   8.254  2.0963 -4.5026  0.8582
  135OSM   C18F14722   3.545   6.924   8.417  0.3824 -0.5267  0.2679
  135OSM   H18F14723   3.577   6.825   8.378  0.3590  0.2748 -1.9038
  135OSM   H18G14724   3.445   6.893   8.455  0.3480 -1.2305 -0.3736
  135OSM   H18H14725   3.615   6.956   8.497  0.0995 -0.4111  0.4703
  136OSM      N14726   0.653   5.722   5.979 -0.2741  0.2631 -0.2216
  136OSM    C1514727   0.764   5.805   5.926 -0.3287  0.8647  0.5515
  136OSM   H15A14728   0.769   5.801   5.819 -1.5044 -1.9694  0.5067
  136OSM   H15B14729   0.858   5.773   5.967 -1.2826 -1.3495  1.1551
  136OSM   H15C14730   0.752   5.910   5.948  3.4053  1.8950 -1.4753
  136OSM    C1414731   0.518   5.762   5.917  0.7566 -0.5417 -0.4995
  136OSM   H14A14732   0.520   5.784   5.811 -0.4661  1.1489 -0.2178
  136OSM   H14B14733   0.473   5.850   5.960 -1.2452 -2.3245  1.2268
  136OSM   H14C14734   0.439   5.690   5.929 -1.2287  0.9689 -3.2507
  136OSM    C1314735   0.679   5.574   5.938 -0.6566 -0.0928 -0.8021
  136OSM   H13A14736   0.713   5.583   5.835  0.8552 -0.5006 -0.3681
  136OSM   H13B14737   0.592   5.511   5.944 -0.1260 -0.6861  1.2517
  136OSM   H13C14738   0.752   5.532   6.006  0.2805 -1.6025 -2.6422
  136OSM    C1214739   0.658   5.732   6.129  0.0153 -0.9168  0.4587
  136OSM   H12A14740   0.561   5.701   6.166 -0.1797 -0.1228  0.6309
  136OSM   H12B14741   0.656   5.839   6.144  1.6591 -0.5969 -1.2489
  136OSM    C1114742   0.765   5.665   6.211  0.2675  0.0232  0.0044
  136OSM   H11A14743   0.755   5.557   6.189 -1.9898  0.1272  0.2842
  136OSM   H11B14744   0.747   5.684   6.319  0.4246  0.6207 -0.0703
  136OSM      P14745   1.010   5.612   6.128  0.3112  0.0957 -0.1186
  136OSM    O1314746   0.944   5.510   6.046 -0.2043 -0.3225  0.4702
  136OSM    O1414747   1.128   5.691   6.079  0.4574 -0.2194 -0.4418
  136OSM    O1114748   1.054   5.535   6.261 -0.7800 -0.6606  0.0124
  136OSM    O1214749   0.895   5.714   6.174  0.0081 -1.0340 -0.8216
  136OSM    C1S14750   1.141   5.589   6.360  0.8609 -0.1821  0.2495
  136OSM    H1S14751   1.199   5.675   6.320 -1.5900  1.9560  1.0035
  136OSM    H1T14752   1.208   5.505   6.387  2.8945  2.0056  2.4586
  136OSM     NF14753   1.161   5.699   6.586 -0.0118  0.0832 -0.2951
  136OSM    HNF14754   1.181   5.648   6.669  1.3846  2.8028  1.1715
  136OSM    C2S14755   1.067   5.635   6.489  0.2225  0.0697 -0.5542
  136OSM    H2S14756   0.994   5.714   6.462 -0.2775  0.2569  1.2161
  136OSM    C3S14757   0.986   5.515   6.544 -0.1390  0.1245  0.0249
  136OSM    H3S14758   1.055   5.431   6.568  2.3919  2.1883  0.3882
  136OSM     O314759   0.889   5.449   6.457 -0.0467  0.1069  0.3215
  136OSM    HO314760   0.922   5.495   6.380 -1.0930  2.2986  1.0904
  136OSM    C4S14761   0.916   5.548   6.677 -0.1525 -0.3586  0.5042
  136OSM    H4S14762   0.969   5.518   6.768  0.5726  0.9805  0.5489
  136OSM    C5S14763   0.807   5.622   6.681  0.0248  0.3992  0.2089
  136OSM    H5S14764   0.755   5.662   6.593  1.0775  1.3724  0.0010
  136OSM    C6S14765   0.735   5.652   6.805 -0.1154 -0.5398  0.1378
  136OSM    H6S14766   0.630   5.649   6.771  0.8583 -2.2434 -3.2128
  136OSM    H6T14767   0.752   5.756   6.840 -1.6629 -0.1354 -0.2442
  136OSM    C7S14768   0.760   5.570   6.933 -0.1500 -0.0063 -0.1626
  136OSM    H7S14769   0.865   5.575   6.969 -0.0364 -2.6786  0.1227
  136OSM    H7T14770   0.747   5.460   6.921  0.3352  0.0227 -1.0496
  136OSM    C8S14771   0.665   5.614   7.045  0.2407 -0.2434  0.1983
  136OSM    H8S14772   0.641   5.519   7.097  1.5064 -1.2304 -0.9237
  136OSM    H8T14773   0.574   5.663   7.004  0.0832 -0.6525  0.0557
  136OSM    C9S14774   0.735   5.713   7.140 -0.2803 -0.0626 -0.4168
  136OSM    H9S14775   0.781   5.796   7.082  1.1013 -0.7390 -0.3367
  136OSM    H9T14776   0.821   5.653   7.179 -1.7067 -2.6698 -1.0872
  136OSM   C10S14777   0.655   5.773   7.254 -0.1255 -0.0287 -0.5967
  136OSM   H10S14778   0.603   5.861   7.210 -1.1758  0.8766  2.2390
  136OSM   H10T14779   0.732   5.820   7.318 -1.2257  1.2043 -0.1366
  136OSM   C11S14780   0.566   5.684   7.331  0.3581 -0.1365 -0.5491
  136OSM   H11S14781   0.499   5.629   7.261  1.0678 -5.0350  2.2162
  136OSM   H11T14782   0.497   5.749   7.389  0.8867  0.9981 -1.1485
  136OSM   C12S14783   0.633   5.577   7.418  0.3531 -0.6981 -0.4322
  136OSM   H12S14784   0.711   5.524   7.359  1.7996 -0.0854  0.8583
  136OSM   H12T14785   0.551   5.504   7.431 -0.2904  0.1393  0.3405
  136OSM   C13S14786   0.678   5.615   7.557 -0.4195 -1.1087 -0.1973
  136OSM   H13S14787   0.768   5.679   7.567 -1.6392  0.4284  1.9293
  136OSM   H13T14788   0.723   5.526   7.606  2.7240  0.2597 -0.3734
  136OSM   C14S14789   0.564   5.685   7.635 -0.8200  0.3358 -0.4709
  136OSM   H14S14790   0.465   5.652   7.597 -0.7851 -0.3828  0.0410
  136OSM   H14T14791   0.570   5.796   7.629  1.5930  0.3219  0.7249
  136OSM   C15S14792   0.567   5.657   7.783  0.0522  0.3074 -0.6441
  136OSM   H15S14793   0.553   5.549   7.807 -2.0526  0.2895 -1.7264
  136OSM   H15T14794   0.480   5.703   7.835  0.3896  0.2374 -0.0017
  136OSM   C16S14795   0.697   5.686   7.847 -0.8159 -0.0898  0.5177
  136OSM   H16S14796   0.735   5.787   7.820  0.9584 -1.0668 -0.8933
  136OSM   H16T14797   0.768   5.610   7.807  0.3452  1.0773  0.3052
  136OSM   C17S14798   0.699   5.681   8.004 -0.3826  0.2861  0.1673
  136OSM   H17S14799   0.641   5.592   8.036  0.4323 -0.5220 -0.5446
  136OSM   H17T14800   0.646   5.772   8.041  0.7192  1.3623 -0.8156
  136OSM   C18S14801   0.834   5.672   8.077 -0.5407  0.6151 -0.1576
  136OSM   H18S14802   0.891   5.768   8.072  2.1460 -0.8227  0.7712
  136OSM   H18T14803   0.891   5.601   8.015  1.7572  0.6943  1.6996
  136OSM   H18U14804   0.827   5.628   8.179  0.7445  1.8447  0.5056
  136OSM    C1F14805   1.214   5.814   6.561  0.2182  0.7312  0.1528
  136OSM     OF14806   1.192   5.868   6.451 -0.3857  0.7325 -0.2724
  136OSM    C2F14807   1.294   5.878   6.670 -0.3061  0.4281  0.1927
  136OSM    H2F14808   1.381   5.811   6.690 -0.3093 -0.7626 -3.0863
  136OSM    H2G14809   1.240   5.863   6.766 -0.4522 -2.4231 -0.2359
  136OSM    C3F14810   1.331   6.021   6.633 -0.8649  0.3624  0.0481
  136OSM    H3F14811   1.234   6.069   6.606 -1.7529 -1.3715 -0.0255
  136OSM    H3G14812   1.417   6.033   6.565  0.1609 -0.6037  1.1222
  136OSM    C4F14813   1.379   6.101   6.757  0.5169 -0.3990 -0.2822
  136OSM    H4F14814   1.408   6.197   6.711 -0.5376 -0.1959 -0.5651
  136OSM    H4G14815   1.469   6.056   6.805  2.2368  1.5819 -1.5180
  136OSM    C5F14816   1.266   6.127   6.861  0.8652  0.0918  0.0451
  136OSM    H5F14817   1.244   6.026   6.902 -1.3940  0.7930  0.6998
  136OSM    H5G14818   1.171   6.161   6.814 -1.1363 -1.1945  2.8402
  136OSM    C6F14819   1.313   6.223   6.974 -0.0321 -0.1391  0.2705
  136OSM    H6F14820   1.367   6.310   6.930  0.9449 -1.1055 -0.4759
  136OSM    H6G14821   1.393   6.172   7.032 -0.0934 -0.9680 -0.3593
  136OSM    C7F14822   1.188   6.246   7.070  0.1627 -0.0679  0.1732
  136OSM    H7F14823   1.117   6.160   7.074 -0.2735  0.2011 -1.2445
  136OSM    H7G14824   1.144   6.332   7.017  0.2325  0.6591  1.2598
  136OSM    C8F14825   1.231   6.292   7.209  0.2091  0.4075  0.9371
  136OSM    H8F14826   1.285   6.387   7.185  0.0656  0.1173 -0.6488
  136OSM    H8G14827   1.297   6.213   7.249 -1.2112 -0.5673  1.4304
  136OSM    C9F14828   1.100   6.325   7.279  0.3727 -0.4628  0.4285
  136OSM    H9F14829   1.040   6.405   7.235  0.7445  0.2925  1.2697
  136OSM   C10F14830   1.048   6.267   7.386 -0.1459 -0.1314  0.1640
  136OSM   H10F14831   0.958   6.308   7.435 -0.8483  1.4448 -2.2610
  136OSM   C11F14832   1.095   6.150   7.470  1.0522  0.0117 -0.4903
  136OSM   H11F14833   1.182   6.097   7.424  2.2738  0.7455  0.8906
  136OSM   H11G14834   1.009   6.081   7.480 -0.5896  2.0411  0.1459
  136OSM   C12F14835   1.143   6.187   7.614  0.2299  0.3159  0.3230
  136OSM   H12F14836   1.210   6.275   7.610 -1.1540  1.3449 -0.9607
  136OSM   H12G14837   1.194   6.093   7.647 -0.9490 -0.2478  0.6040
  136OSM   C13F14838   1.021   6.204   7.707 -0.2081 -0.3748  0.4899
  136OSM   H13F14839   0.932   6.138   7.709 -2.0152  1.9110  1.3488
  136OSM   H13G14840   0.980   6.306   7.689  1.5020  0.4484  1.0450
  136OSM   C14F14841   1.084   6.212   7.848  0.0260  0.4055  0.5424
  136OSM   H14F14842   1.166   6.287   7.863  0.7163  0.5167 -2.9146
  136OSM   H14G14843   1.138   6.117   7.865 -1.4647 -0.3686  1.1229
  136OSM   C15F14844   0.976   6.225   7.959 -0.7146 -0.1031 -0.4658
  136OSM   H15F14845   0.893   6.289   7.924 -0.6601  1.1634  1.5912
  136OSM   H15G14846   1.028   6.267   8.048  0.1335  0.0137 -1.0001
  136OSM   C16F14847   0.932   6.085   7.997 -0.9774  0.3817  0.1303
  136OSM   H16F14848   1.019   6.033   8.042 -0.2784  1.3906 -0.0109
  136OSM   H16G14849   0.901   6.033   7.904  1.9301 -1.6901  0.1744
  136OSM   C17F14850   0.825   6.082   8.103 -0.0425  0.1817 -0.5771
  136OSM   H17F14851   0.815   5.979   8.142 -3.0520  0.4116 -0.5504
  136OSM   H17G14852   0.731   6.109   8.052  0.8931  3.2284 -0.8951
  136OSM   C18F14853   0.862   6.181   8.219  0.5081 -0.0028 -0.0887
  136OSM   H18F14854   0.846   6.287   8.191 -1.3312 -0.2607 -0.1988
  136OSM   H18G14855   0.967   6.166   8.251  0.4476  0.4594  0.3291
  136OSM   H18H14856   0.798   6.175   8.310  1.6544  0.9609  0.7947
  137OSM      N14857   4.517   5.115   5.995  0.3740 -0.2008 -0.2177
  137OSM    C1514858   4.445   5.104   5.866 -0.2657  0.1558  0.3523
  137OSM   H15A14859   4.359   5.040   5.877  0.3798 -0.7701  0.1454
  137OSM   H15B14860   4.512   5.054   5.798 -0.0761  1.7556 -0.6748
  137OSM   H15C14861   4.420   5.199   5.822  3.1158  1.5528  1.1208
  137OSM    C1414862   4.643   5.193   5.991 -0.1983 -0.2653  0.4662
  137OSM   H14A14863   4.630   5.293   5.952 -2.9429 -1.2646 -1.4996
  137OSM   H14B14864   4.714   5.143   5.926 -1.0705 -1.7599  0.6270
  137OSM   H14C14865   4.695   5.196   6.085  1.5598  0.9080 -0.4784
  137OSM    C1314866   4.432   5.192   6.087  0.7367  0.9112  0.2514
  137OSM   H13A14867   4.498   5.215   6.170  0.2873 -0.7892  1.1327
  137OSM   H13B14868   4.344   5.133   6.107 -0.4446  1.1318 -3.4690
  137OSM   H13C14869   4.389   5.285   6.052 -3.1961  0.1659  2.5426
  137OSM    C1214870   4.545   4.972   6.045  0.2704 -0.3645  0.6290
  137OSM   H12A14871   4.610   4.921   5.976  1.5724  2.7087 -0.6270
  137OSM   H12B14872   4.450   4.921   6.055  0.0294 -0.0795 -0.1481
  137OSM    C1114873   4.615   4.968   6.182  0.5097 -0.1244 -0.0796
  137OSM   H11A14874   4.605   4.862   6.213 -0.0049 -0.4946 -1.4393
  137OSM   H11B14875   4.560   5.033   6.253  1.4565 -0.0152  0.5809
  137OSM      P14876   4.839   5.066   6.291 -0.4134 -0.0052  0.0480
  137OSM    O1314877   4.981   5.026   6.269  0.8112  0.1023 -0.4120
  137OSM    O1414878   4.802   5.209   6.299  0.4891 -0.4872  0.1350
  137OSM    O1114879   4.777   4.991   6.414  0.2644  0.2656 -0.0485
  137OSM    O1214880   4.753   4.999   6.183  0.3050 -0.4426 -0.2467
  137OSM    C1S14881   4.793   5.044   6.544  0.1736  0.7011 -0.7119
  137OSM    H1S14882   4.725   5.131   6.557  0.4549  1.0613 -1.5905
  137OSM    H1T14883   4.900   5.071   6.559  0.6165 -1.4532  0.4014
  137OSM     NF14884   4.810   5.000   6.789 -0.3395  0.3603  0.6169
  137OSM    HNF14885   4.892   4.958   6.828 -0.7529 -1.2802 -0.1561
  137OSM    C2S14886   4.769   4.940   6.663 -0.2343 -0.1510 -0.8600
  137OSM    H2S14887   4.658   4.935   6.660 -0.3033  0.5380  0.0817
  137OSM    C3S14888   4.849   4.809   6.627  0.4078  0.2478 -0.5078
  137OSM    H3S14889   4.957   4.837   6.626  0.7381 -0.3722  3.0339
  137OSM     O314890   4.823   4.752   6.498  0.3109  0.7007 -0.3843
  137OSM    HO314891   4.787   4.821   6.442 -1.9110 -1.0782 -1.3051
  137OSM    C4S14892   4.824   4.711   6.740 -0.0088  0.0553 -0.5925
  137OSM    H4S14893   4.887   4.734   6.827 -1.8172  2.1386  0.2774
  137OSM    C5S14894   4.733   4.613   6.754  0.4027 -0.0578 -0.0581
  137OSM    H5S14895   4.663   4.590   6.672  0.5448  0.2729 -0.2721
  137OSM    C6S14896   4.715   4.527   6.882  0.2517 -0.2907 -0.1297
  137OSM    H6S14897   4.792   4.448   6.877 -0.6066 -1.2200  0.8587
  137OSM    H6T14898   4.609   4.495   6.889 -1.3623  4.3926  0.5956
  137OSM    C7S14899   4.746   4.607   7.013  0.4084 -0.9110  0.1085
  137OSM    H7S14900   4.847   4.654   7.020  0.3380 -0.3644 -1.8347
  137OSM    H7T14901   4.751   4.527   7.090  0.3270  0.4754  1.5968
  137OSM    C8S14902   4.641   4.711   7.047 -0.1415 -0.2240 -0.1600
  137OSM    H8S14903   4.538   4.669   7.053 -0.0432 -0.6397 -1.2619
  137OSM    H8T14904   4.640   4.788   6.968 -1.4784  1.1921  1.1620
  137OSM    C9S14905   4.653   4.774   7.190 -0.4262 -0.0451 -0.1282
  137OSM    H9S14906   4.755   4.814   7.206 -0.8039  1.2305 -0.7486
  137OSM    H9T14907   4.644   4.693   7.265  0.2982  1.0689  1.2047
  137OSM   C10S14908   4.556   4.884   7.212 -0.3990  0.1745 -0.3745
  137OSM   H10S14909   4.456   4.850   7.248 -0.3763  0.9977  0.5413
  137OSM   H10T14910   4.554   4.932   7.112 -1.3832  0.3147 -0.3064
  137OSM   C11S14911   4.592   4.999   7.311 -0.0018  0.0041 -0.3562
  137OSM   H11S14912   4.566   5.095   7.263  0.8578  0.4072 -0.0237
  137OSM   H11T14913   4.702   5.010   7.320  0.0603  0.1350 -1.2131
  137OSM   C12S14914   4.540   4.965   7.452  0.5225  0.1687  0.1683
  137OSM   H12S14915   4.595   4.870   7.466 -1.7726 -1.0197  1.7451
  137OSM   H12T14916   4.430   4.954   7.460  0.7178 -1.6411  0.7764
  137OSM   C13S14917   4.584   5.052   7.573  0.4077  0.2208 -0.1178
  137OSM   H13S14918   4.685   5.093   7.550  0.9118 -1.2743 -0.6810
  137OSM   H13T14919   4.594   4.988   7.663  1.4492  1.1121  0.4180
  137OSM   C14S14920   4.489   5.169   7.606  0.8627  0.6134  0.8225
  137OSM   H14S14921   4.393   5.116   7.623  1.3702 -1.0193 -0.9907
  137OSM   H14T14922   4.480   5.226   7.511 -1.2506  0.0822  0.6605
  137OSM   C15S14923   4.523   5.262   7.715 -0.2908 -0.7363 -0.2617
  137OSM   H15S14924   4.611   5.323   7.684  0.0821  0.1984  2.3806
  137OSM   H15T14925   4.555   5.199   7.801 -0.0914  2.0123  1.8095
  137OSM   C16S14926   4.407   5.341   7.777 -0.2573 -0.8883 -0.4731
  137OSM   H16S14927   4.324   5.271   7.804 -2.1293  0.6563 -1.9526
  137OSM   H16T14928   4.361   5.409   7.702  0.8253  0.7562  0.3148
  137OSM   C17S14929   4.444   5.422   7.896 -0.8101 -0.0423  0.3214
  137OSM   H17S14930   4.508   5.353   7.954  0.3911  1.6345  1.0631
  137OSM   H17T14931   4.355   5.445   7.959 -1.0397 -2.6583  1.0476
  137OSM   C18S14932   4.523   5.548   7.866  0.2928  0.1339  0.0248
  137OSM   H18S14933   4.612   5.534   7.801 -0.4324 -1.7229 -0.6103
  137OSM   H18T14934   4.550   5.595   7.964  0.5143  2.3094 -1.0136
  137OSM   H18U14935   4.463   5.619   7.806  0.4225 -0.1212 -0.4103
  137OSM    C1F14936   4.761   5.101   6.851  0.0336 -0.7014 -0.3521
  137OSM     OF14937   4.680   5.176   6.801 -0.1042 -0.5104 -0.2199
  137OSM    C2F14938   4.799   5.120   6.993  0.4469  0.1370 -0.1149
  137OSM    H2F14939   4.880   5.046   7.010 -0.6612 -0.6448  2.1630
  137OSM    H2G14940   4.715   5.074   7.049 -0.1919 -0.1775 -1.2940
  137OSM    C3F14941   4.832   5.261   7.036 -0.0440 -0.0950 -0.0552
  137OSM    H3F14942   4.846   5.269   7.146  1.1395 -0.1075 -0.1944
  137OSM    H3G14943   4.746   5.330   7.021 -0.5818 -1.0884 -1.9303
  137OSM    C4F14944   4.953   5.325   6.967 -0.3471  0.3160 -0.2629
  137OSM    H4F14945   4.931   5.319   6.858 -2.3093  1.0196  0.0645
  137OSM    H4G14946   5.049   5.270   6.983  0.6133  1.5473 -1.5493
  137OSM    C5F14947   4.962   5.476   7.003 -0.1948  0.5105  0.5290
  137OSM    H5F14948   4.858   5.515   7.004 -1.2658 -2.0601 -0.7727
  137OSM    H5G14949   5.012   5.529   6.919 -2.7816  0.7049 -0.9974
  137OSM    C6F14950   5.034   5.505   7.134  0.7058 -0.5812 -0.0999
  137OSM    H6F14951   5.127   5.450   7.157  0.4696 -0.6558  0.7327
  137OSM    H6G14952   4.971   5.477   7.221 -1.0947  0.6616 -0.9191
  137OSM    C7F14953   5.065   5.659   7.150  0.2607 -0.0362  0.2428
  137OSM    H7F14954   4.968   5.703   7.179  0.2849  0.3492 -0.2548
  137OSM    H7G14955   5.116   5.696   7.059 -0.6104  0.1170 -0.1931
  137OSM    C8F14956   5.139   5.668   7.281  0.0001 -1.0758 -0.2634
  137OSM    H8F14957   5.239   5.621   7.270 -0.4207 -1.8446 -0.9509
  137OSM    H8G14958   5.075   5.625   7.361  0.0616  0.7820  0.8519
  137OSM    C9F14959   5.179   5.805   7.319  0.6830 -0.2154 -0.1047
  137OSM    H9F14960   5.188   5.876   7.235  1.4194  1.2272  1.1504
  137OSM   C10F14961   5.204   5.853   7.442 -0.5896 -0.0053  0.5430
  137OSM   H10F14962   5.229   5.960   7.443  0.4523 -0.1483 -2.1759
  137OSM   C11F14963   5.211   5.768   7.570  0.1310  0.4057 -0.5320
  137OSM   H11F14964   5.311   5.777   7.617 -0.2061  0.2761  0.2126
  137OSM   H11G14965   5.185   5.662   7.552 -2.4478  1.1340 -1.5540
  137OSM   C12F14966   5.106   5.835   7.659  0.3603 -0.3121 -0.0227
  137OSM   H12F14967   5.072   5.768   7.740 -0.2585 -0.1000 -0.1048
  137OSM   H12G14968   5.014   5.873   7.609 -0.3852  1.5639  2.5554
  137OSM   C13F14969   5.151   5.957   7.728  0.7700 -0.7663 -0.2217
  137OSM   H13F14970   5.182   6.031   7.650  0.4114 -1.7835 -1.3578
  137OSM   H13G14971   5.234   5.919   7.791  0.8070 -1.7729 -0.8493
  137OSM   C14F14972   5.032   6.011   7.811  0.0002 -0.7716  0.9371
  137OSM   H14F14973   4.985   5.924   7.861  1.4845 -2.4715 -0.4880
  137OSM   H14G14974   4.956   6.043   7.737  0.9541  1.2817  0.7540
  137OSM   C15F14975   5.077   6.114   7.917 -0.6681 -0.4969 -0.2961
  137OSM   H15F14976   4.992   6.174   7.954  1.8240  1.7566  2.2284
  137OSM   H15G14977   5.146   6.184   7.865  0.5149 -0.1941  1.5769
  137OSM   C16F14978   5.133   6.050   8.044  0.3483 -0.4538  0.2809
  137OSM   H16F14979   5.171   6.127   8.115 -2.0175  2.3841 -1.3525
  137OSM   H16G14980   5.214   5.984   8.006 -1.1472 -1.1839 -1.7555
  137OSM   C17F14981   5.037   5.968   8.130  0.1780 -0.0930  0.6582
  137OSM   H17F14982   4.967   5.928   8.054  2.0310  1.5101 -2.0573
  137OSM   H17G14983   4.974   6.030   8.199  0.9701  1.4966 -0.0109
  137OSM   C18F14984   5.106   5.861   8.212 -0.1155 -0.3845 -1.3718
  137OSM   H18F14985   5.141   5.773   8.153  0.8314 -1.1037  0.2030
  137OSM   H18G14986   5.032   5.818   8.284  0.4355  0.6485 -0.1619
  137OSM   H18H14987   5.194   5.903   8.265  0.8281 -0.5896 -2.7264
  138OSM      N14988   5.291   0.260   6.137  0.2431  0.4489  0.9135
  138OSM    C1514989   5.315   0.282   5.988 -0.0083  0.2038  0.2719
  138OSM   H15A14990   5.235   0.342   5.947 -0.3588 -1.3754 -1.5357
  138OSM   H15B14991   5.302   0.184   5.944  1.5071  0.0653  0.0607
  138OSM   H15C14992   5.414   0.323   5.970 -0.7342  1.4690 -1.0666
  138OSM    C1414993   5.347   0.372   6.215  0.0718 -0.6328  0.0086
  138OSM   H14A14994   5.455   0.379   6.225 -0.0379  3.5724 -0.1439
  138OSM   H14B14995   5.316   0.357   6.318 -0.1456 -0.0844  0.0245
  138OSM   H14C14996   5.319   0.464   6.168 -1.0712 -2.0909 -2.3420
  138OSM    C1314997   5.146   0.225   6.164  0.3026 -0.4646  1.1338
  138OSM   H13A14998   5.128   0.127   6.120  0.3579  0.2729 -0.6366
  138OSM   H13B14999   5.068   0.291   6.129 -1.3030 -1.7407  2.1147
  138OSM   H13C15000   5.135   0.221   6.271  1.3055 -0.2961  1.2465
  138OSM    C1215001   5.370   0.135   6.175 -0.0939  0.1992 -1.0671
  138OSM   H12A15002   5.475   0.159   6.179  0.4786 -2.1065 -0.9680
  138OSM   H12B15003   5.368   0.056   6.102 -0.7407 -1.3848  0.5933
  138OSM    C1115004   5.339   0.082   6.317 -0.3177 -0.4134 -0.1655
  138OSM   H11A15005   5.391  -0.016   6.324  1.6283  0.6305  0.5813
  138OSM   H11B15006   5.231   0.059   6.332 -0.5493  1.6563  1.8971
  138OSM      P15007   5.530   0.166   6.475 -0.0667 -0.1038  0.0109
  138OSM    O1315008   5.584   0.029   6.450 -0.6266 -0.6174 -0.1436
  138OSM    O1415009   5.599   0.286   6.417  0.1587 -0.6228  0.1239
  138OSM    O1115010   5.506   0.198   6.628 -0.0086  0.4528  0.0972
  138OSM    O1215011   5.382   0.165   6.425 -0.3424  0.2733  0.0521
  138OSM    C1S15012   5.423   0.313   6.668 -0.4607 -0.4593  0.4165
  138OSM    H1S15013   5.316   0.297   6.643 -0.9449  2.0004  0.7056
  138OSM    H1T15014   5.460   0.397   6.605  2.0231 -1.4092  0.4745
  138OSM     NF15015   5.372   0.479   6.844 -0.9027 -0.0202  0.1792
  138OSM    HNF15016   5.423   0.563   6.826 -0.1173 -0.2997  1.0152
  138OSM    C2S15017   5.444   0.353   6.819 -0.0753  0.3890  0.4699
  138OSM    H2S15018   5.398   0.273   6.881 -3.0902  0.4221 -1.5063
  138OSM    C3S15019   5.601   0.360   6.864  0.5477 -0.0595  0.4712
  138OSM    H3S15020   5.647   0.428   6.790 -2.5683  0.6212 -1.0032
  138OSM     O315021   5.664   0.235   6.863  0.0144  0.4184 -0.2663
  138OSM    HO315022   5.618   0.178   6.802  3.0765 -1.1314 -1.3487
  138OSM    C4S15023   5.630   0.412   7.001 -0.3914  0.2713 -0.5241
  138OSM    H4S15024   5.644   0.333   7.076 -1.3377  0.7248  0.1535
  138OSM    C5S15025   5.640   0.540   7.045  0.3591 -0.1619  0.2427
  138OSM    H5S15026   5.649   0.631   6.983  1.0416  0.0420  0.6286
  138OSM    C6S15027   5.659   0.564   7.195  0.6110  0.2201  0.1300
  138OSM    H6S15028   5.708   0.662   7.211 -0.1635  0.4667  1.0496
  138OSM    H6T15029   5.721   0.482   7.236 -1.8480 -2.6516 -1.4231
  138OSM    C7S15030   5.521   0.550   7.274  0.2671  0.3742 -0.3877
  138OSM    H7S15031   5.476   0.450   7.258  2.1825 -0.9137  1.6488
  138OSM    H7T15032   5.452   0.628   7.236 -1.5500 -1.4951 -1.0866
  138OSM    C8S15033   5.530   0.582   7.427  0.5632 -0.1295  0.6184
  138OSM    H8S15034   5.431   0.577   7.476 -0.7654  1.0324 -1.7623
  138OSM    H8T15035   5.560   0.684   7.457 -0.1355  0.2956 -0.0922
  138OSM    C9S15036   5.611   0.467   7.499 -0.0458 -0.7402 -0.2297
  138OSM    H9S15037   5.721   0.480   7.487 -0.0913  0.0637  0.1228
  138OSM    H9T15038   5.569   0.379   7.446  1.9944 -2.0932  0.2592
  138OSM   C10S15039   5.581   0.458   7.645  0.1583  0.9773 -0.2526
  138OSM   H10S15040   5.622   0.367   7.694 -3.2659 -1.0628 -0.8744
  138OSM   H10T15041   5.476   0.472   7.677 -0.1929  1.4382 -1.5223
  138OSM   C11S15042   5.649   0.576   7.722  0.2292 -0.6717 -0.3202
  138OSM   H11S15043   5.622   0.675   7.680  1.1341 -0.6619 -0.9113
  138OSM   H11T15044   5.758   0.561   7.706  0.3555 -0.2439  0.1160
  138OSM   C12S15045   5.629   0.557   7.875  0.1363 -0.1830  0.4460
  138OSM   H12S15046   5.653   0.450   7.891  3.9288  0.1300 -1.8924
  138OSM   H12T15047   5.526   0.589   7.901  0.2204 -1.2661  2.2940
  138OSM   C13S15048   5.715   0.632   7.980 -0.0201  0.1927 -0.4395
  138OSM   H13S15049   5.686   0.736   7.957  0.5023  0.2564 -0.8111
  138OSM   H13T15050   5.824   0.623   7.963  0.1065  0.6261  0.1144
  138OSM   C14S15051   5.673   0.606   8.134  0.0240 -0.1042 -0.0057
  138OSM   H14S15052   5.739   0.668   8.199  0.1764  0.4141 -0.6413
  138OSM   H14T15053   5.689   0.497   8.151  0.5347 -0.1040 -0.4246
  138OSM   C15S15054   5.526   0.658   8.166 -0.3894  0.0730  0.3046
  138OSM   H15S15055   5.465   0.673   8.075  0.1298 -1.2793 -0.2962
  138OSM   H15T15056   5.530   0.757   8.216  1.4669  0.7164 -1.0022
  138OSM   C16S15057   5.439   0.549   8.235 -0.3061 -0.3389 -0.8409
  138OSM   H16S15058   5.445   0.446   8.194  1.3716 -0.5176 -0.2374
  138OSM   H16T15059   5.333   0.575   8.218  0.2705  1.6473 -1.7534
  138OSM   C17S15060   5.483   0.520   8.384  0.9214  0.0360 -0.1355
  138OSM   H17S15061   5.388   0.524   8.442 -0.5429 -1.7856 -2.2577
  138OSM   H17T15062   5.550   0.600   8.424  0.5780  0.7768 -1.0185
  138OSM   C18S15063   5.535   0.374   8.405  0.0451 -0.7723 -0.0055
  138OSM   H18S15064   5.463   0.297   8.370  0.2063 -0.5526 -0.8556
  138OSM   H18T15065   5.561   0.350   8.510  1.1405  2.9151  0.7225
  138OSM   H18U15066   5.635   0.372   8.357 -0.1801 -0.3614 -0.4967
  138OSM    C1F15067   5.241   0.492   6.858 -0.8826 -0.4112 -0.0361
  138OSM     OF15068   5.179   0.389   6.868  0.3461  0.1809  0.3202
  138OSM    C2F15069   5.179   0.625   6.863 -0.2759  0.7319 -0.5161
  138OSM    H2F15070   5.108   0.627   6.777  0.0459 -0.8768 -0.8513
  138OSM    H2G15071   5.259   0.701   6.849  1.4072 -1.0914 -1.2173
  138OSM    C3F15072   5.096   0.641   6.991  0.0973  0.5827  0.9016
  138OSM    H3F15073   5.027   0.556   7.008  0.2746 -0.0230 -1.1449
  138OSM    H3G15074   5.039   0.737   6.991  0.4310  0.7817  1.1166
  138OSM    C4F15075   5.185   0.648   7.118  0.0572 -0.6660  0.8988
  138OSM    H4F15076   5.260   0.724   7.088  0.2347 -1.2067 -0.0702
  138OSM    H4G15077   5.228   0.548   7.142 -0.3241 -0.3561  3.1805
  138OSM    C5F15078   5.101   0.699   7.240 -0.4598 -0.3835  0.2296
  138OSM    H5F15079   4.998   0.659   7.252 -0.6684  0.7172  2.5436
  138OSM    H5G15080   5.085   0.806   7.216  0.2768 -0.2334  0.3690
  138OSM    C6F15081   5.177   0.704   7.369 -0.1642 -0.5932 -0.2248
  138OSM    H6F15082   5.279   0.746   7.354 -0.2523 -0.4778 -0.5028
  138OSM    H6G15083   5.185   0.597   7.399 -2.1721 -0.3172  1.5789
  138OSM    C7F15084   5.105   0.781   7.480 -0.0296 -0.3805  0.0375
  138OSM    H7F15085   5.007   0.734   7.498 -0.0113  0.0192  1.2745
  138OSM    H7G15086   5.097   0.888   7.452 -3.2691 -0.6369 -0.3430
  138OSM    C8F15087   5.166   0.767   7.622 -0.5053 -0.2351  1.1712
  138OSM    H8F15088   5.200   0.663   7.639 -0.9350 -0.4412  0.8042
  138OSM    H8G15089   5.086   0.791   7.696 -1.4603  1.0806 -0.2163
  138OSM    C9F15090   5.282   0.852   7.652  0.4450 -0.4577  0.8200
  138OSM    H9F15091   5.342   0.864   7.561 -2.1502 -0.3540 -0.9775
  138OSM   C10F15092   5.327   0.900   7.772 -0.8699  0.9132  0.0457
  138OSM   H10F15093   5.419   0.959   7.779  0.5547 -1.2150  0.2029
  138OSM   C11F15094   5.266   0.877   7.909  0.3137  1.0868  0.5638
  138OSM   H11F15095   5.335   0.821   7.975 -0.4698 -3.2938 -1.9285
  138OSM   H11G15096   5.181   0.806   7.904  0.3842  1.0740 -0.9232
  138OSM   C12F15097   5.242   1.010   7.975  0.1960  0.2665 -0.0039
  138OSM   H12F15098   5.162   1.048   7.908  0.7039 -1.8299 -1.8880
  138OSM   H12G15099   5.332   1.073   7.964  0.8232 -0.6388 -0.1666
  138OSM   C13F15100   5.203   1.010   8.124  0.0162 -0.2218  0.4392
  138OSM   H13F15101   5.284   0.975   8.191 -0.9947  0.2281  1.9427
  138OSM   H13G15102   5.117   0.940   8.130 -0.3944  0.1670 -0.6139
  138OSM   C14F15103   5.169   1.144   8.177 -0.2846 -0.2725  0.2150
  138OSM   H14F15104   5.076   1.187   8.133  1.2467  2.3528 -0.6808
  138OSM   H14G15105   5.256   1.207   8.148 -0.5023 -0.0015  0.1409
  138OSM   C15F15106   5.138   1.145   8.328  0.5683 -1.0075  0.3667
  138OSM   H15F15107   5.221   1.120   8.397  0.4527  0.2124  0.9722
  138OSM   H15G15108   5.055   1.073   8.345  0.3946 -0.7860  0.4585
  138OSM   C16F15109   5.084   1.287   8.377  0.3271 -0.5707 -0.0963
  138OSM   H16F15110   5.036   1.265   8.475  0.1173  1.1320  0.2229
  138OSM   H16G15111   5.015   1.335   8.303  1.6927 -0.4549 -1.3301
  138OSM   C17F15112   5.196   1.388   8.406 -0.8055 -0.0276  0.3701
  138OSM   H17F15113   5.250   1.393   8.309  1.0831 -0.7379  1.3347
  138OSM   H17G15114   5.263   1.351   8.487 -0.4833  0.4043  0.3070
  138OSM   C18F15115   5.147   1.526   8.445  0.2419 -0.2090  0.1373
  138OSM   H18F15116   5.227   1.602   8.449 -0.9919  1.0838  1.2460
  138OSM   H18G15117   5.097   1.523   8.544 -1.1644 -0.7856 -0.5508
  138OSM   H18H15118   5.079   1.548   8.360  2.0298 -0.6363 -1.4793
  139OSM      N15119   4.786   0.875   6.190 -0.0300  0.3626  0.1224
  139OSM    C1515120   4.739   0.804   6.311 -0.1628  0.3485 -0.2848
  139OSM   H15A15121   4.820   0.798   6.383  1.3913 -0.5288 -2.0034
  139OSM   H15B15122   4.726   0.700   6.284  0.9704 -0.1171  0.8672
  139OSM   H15C15123   4.645   0.845   6.342 -0.0274  1.0897 -0.8220
  139OSM    C1415124   4.676   0.868   6.090 -0.3991  0.8754 -0.2332
  139OSM   H14A15125   4.723   0.892   5.996  2.4007  0.0671  0.8518
  139OSM   H14B15126   4.602   0.944   6.111 -1.3322 -0.2571  0.8002
  139OSM   H14C15127   4.647   0.764   6.086  0.3868  0.5392  1.6533
  139OSM    C1315128   4.808   1.019   6.226 -0.2726  0.5006  0.3033
  139OSM   H13A15129   4.842   1.076   6.141  0.6076 -1.3642 -0.6637
  139OSM   H13B15130   4.896   1.025   6.288  1.2266  2.5099 -1.8479
  139OSM   H13C15131   4.724   1.067   6.276 -0.2803  0.8032  0.0029
  139OSM    C1215132   4.916   0.818   6.134 -0.2910 -0.4326 -0.1024
  139OSM   H12A15133   4.927   0.847   6.031 -1.1104 -0.3858 -0.1884
  139OSM   H12B15134   4.898   0.712   6.137  0.2447 -0.5238  0.0099
  139OSM    C1115135   5.052   0.849   6.212 -0.6133  0.0763  0.7143
  139OSM   H11A15136   5.135   0.790   6.168  1.9560  4.2540 -0.5242
  139OSM   H11B15137   5.035   0.817   6.317 -0.9948 -1.8900  0.0949
  139OSM      P15138   5.228   1.035   6.269 -0.0432 -0.0023  0.0708
  139OSM    O1315139   5.341   0.949   6.223  0.4856 -0.2432  0.5486
  139OSM    O1415140   5.246   1.179   6.243 -0.2455  0.2808 -0.4114
  139OSM    O1115141   5.208   0.999   6.419 -0.5354  0.0823 -0.2290
  139OSM    O1215142   5.090   0.983   6.203  0.0767  0.0531 -0.1357
  139OSM    C1S15143   5.118   1.085   6.485  0.7513  0.2044 -0.6239
  139OSM    H1S15144   5.017   1.049   6.455  1.0041 -2.2557  1.1606
  139OSM    H1T15145   5.128   1.194   6.466 -0.1268  0.1955 -1.2015
  139OSM     NF15146   5.004   1.098   6.708  0.2219  0.1965  0.7737
  139OSM    HNF15147   4.988   1.174   6.770 -2.6370  1.2500 -1.0830
  139OSM    C2S15148   5.131   1.070   6.641  0.1608  0.0001  0.3348
  139OSM    H2S15149   5.145   0.962   6.663  2.6265  0.4397  1.2158
  139OSM    C3S15150   5.261   1.143   6.680  0.6268 -1.2569 -0.0454
  139OSM    H3S15151   5.236   1.250   6.670 -1.9125 -1.7486  0.4369
  139OSM     O315152   5.366   1.131   6.583  0.4782 -0.1322 -0.0009
  139OSM    HO315153   5.318   1.087   6.512 -1.9069  1.9367  0.2102
  139OSM    C4S15154   5.303   1.114   6.823 -0.2690 -0.3614  0.3133
  139OSM    H4S15155   5.270   1.185   6.900 -1.4114  0.8703 -1.2423
  139OSM    C5S15156   5.369   1.004   6.863 -0.2808 -0.1395 -0.0065
  139OSM    H5S15157   5.407   0.932   6.790  2.4442  1.2437 -0.0951
  139OSM    C6S15158   5.403   0.981   7.003 -0.2646  0.2443 -0.2868
  139OSM    H6S15159   5.510   1.006   7.018 -0.3875  1.2948 -1.0885
  139OSM    H6T15160   5.384   0.874   7.024  1.8322 -0.1408 -0.1988
  139OSM    C7S15161   5.328   1.066   7.107  0.0175  0.4467 -0.2024
  139OSM    H7S15162   5.218   1.054   7.098 -0.0048  1.7972 -2.4233
  139OSM    H7T15163   5.343   1.173   7.080 -0.3071  1.6432  3.6794
  139OSM    C8S15164   5.367   1.046   7.251 -0.7381  0.0380 -0.2535
  139OSM    H8S15165   5.375   0.939   7.279  1.6982  0.3836  0.5899
  139OSM    H8T15166   5.295   1.097   7.318 -0.9868  3.3800 -2.7887
  139OSM    C9S15167   5.512   1.087   7.278 -0.9581 -0.2364  0.2983
  139OSM    H9S15168   5.537   1.189   7.242 -2.1938 -0.4324 -1.1987
  139OSM    H9T15169   5.589   1.024   7.230  0.6438  0.8805  1.2854
  139OSM   C10S15170   5.542   1.083   7.430  0.2953 -0.0646 -0.0222
  139OSM   H10S15171   5.508   0.984   7.469  0.6876 -0.7104 -1.2439
  139OSM   H10T15172   5.486   1.150   7.498  1.8368  0.8473  0.4176
  139OSM   C11S15173   5.697   1.092   7.460  0.3267  0.0757  0.1139
  139OSM   H11S15174   5.731   1.195   7.483  3.1048 -0.6074 -0.4950
  139OSM   H11T15175   5.757   1.053   7.374  0.3791 -1.5525  0.8470
  139OSM   C12S15176   5.726   1.009   7.584 -0.0854  0.2310  0.5068
  139OSM   H12S15177   5.833   0.978   7.585  0.0836  0.7448 -0.4346
  139OSM   H12T15178   5.667   0.915   7.588  1.8948 -1.0383  1.9566
  139OSM   C13S15179   5.698   1.082   7.715 -0.3877 -0.9374  0.5945
  139OSM   H13S15180   5.592   1.111   7.701 -0.7076 -3.1040 -2.3393
  139OSM   H13T15181   5.762   1.171   7.732 -1.6576  0.1489 -0.0849
  139OSM   C14S15182   5.739   0.989   7.827  0.0433 -0.2588 -0.3715
  139OSM   H14S15183   5.834   0.939   7.801  0.9165  0.1000  1.8825
  139OSM   H14T15184   5.663   0.910   7.848 -2.2100  1.7491 -0.4697
  139OSM   C15S15185   5.776   1.066   7.957 -0.2778 -0.4044 -0.2524
  139OSM   H15S15186   5.832   1.157   7.926  0.0933 -0.4403  0.3038
  139OSM   H15T15187   5.838   1.007   8.027  0.1822  1.7670  1.2961
  139OSM   C16S15188   5.651   1.101   8.042 -0.2290 -0.0221 -0.3179
  139OSM   H16S15189   5.622   1.005   8.090  3.0583  0.1802  2.4311
  139OSM   H16T15190   5.557   1.132   7.990  1.0676  0.4018 -2.5140
  139OSM   C17S15191   5.679   1.201   8.154  0.0204  0.5169  0.2036
  139OSM   H17S15192   5.712   1.297   8.109  1.8323 -0.7398 -1.3176
  139OSM   H17T15193   5.762   1.168   8.220  0.5386  0.6171 -0.3878
  139OSM   C18S15194   5.548   1.208   8.244 -0.7576 -0.7390  0.4115
  139OSM   H18S15195   5.530   1.101   8.268  0.9435 -0.8589  1.3330
  139OSM   H18T15196   5.460   1.245   8.187 -1.1062 -3.7497 -1.2197
  139OSM   H18U15197   5.583   1.264   8.333  0.6883  0.8771 -1.0784
  139OSM    C1F15198   4.897   1.017   6.687 -0.8613  0.2602  0.1774
  139OSM     OF15199   4.923   0.910   6.632 -0.4717  0.1855  0.2262
  139OSM    C2F15200   4.764   1.055   6.728  0.1268 -0.1792 -0.8752
  139OSM    H2F15201   4.706   1.085   6.638 -0.8005  0.5910 -0.0367
  139OSM    H2G15202   4.766   1.144   6.795 -0.0662 -0.0895 -0.9872
  139OSM    C3F15203   4.684   0.942   6.800 -0.9297 -0.2058 -0.2049
  139OSM    H3F15204   4.653   0.866   6.726 -2.8550  0.2306  0.0913
  139OSM    H3G15205   4.590   0.986   6.840 -1.1496 -0.7090 -0.1661
  139OSM    C4F15206   4.746   0.880   6.925 -0.5651 -0.1199 -0.4379
  139OSM    H4F15207   4.824   0.810   6.888 -0.8951  0.2501 -1.9357
  139OSM    H4G15208   4.669   0.825   6.983  0.3382 -1.8797 -0.8500
  139OSM    C5F15209   4.810   0.981   7.021 -0.3072 -0.3725  0.0458
  139OSM    H5F15210   4.757   1.079   7.020 -1.7723 -1.1093  0.8073
  139OSM    H5G15211   4.916   0.979   6.987 -0.3457 -1.6018 -0.0591
  139OSM    C6F15212   4.829   0.929   7.166 -0.1473 -0.3100  0.5565
  139OSM    H6F15213   4.927   0.949   7.216 -0.7316  0.1130  1.5589
  139OSM    H6G15214   4.820   0.818   7.173  1.3886 -0.5359 -0.5574
  139OSM    C7F15215   4.724   0.990   7.265 -0.3051  0.6160  0.2110
  139OSM    H7F15216   4.623   0.975   7.221 -0.0825  1.2401 -0.5285
  139OSM    H7G15217   4.744   1.099   7.274 -1.8981  1.1099 -1.5828
  139OSM    C8F15218   4.726   0.920   7.411  0.0581 -0.0075 -1.1962
  139OSM    H8F15219   4.832   0.911   7.443 -0.0392  3.1542  0.3016
  139OSM    H8G15220   4.681   0.820   7.392  1.8223 -0.7536 -1.7082
  139OSM    C9F15221   4.646   1.023   7.506 -0.4898 -0.0764 -0.2896
  139OSM    H9F15222   4.540   1.036   7.478 -0.3359 -0.0125 -0.8681
  139OSM   C10F15223   4.712   1.102   7.594  0.2697  0.8846 -0.0441
  139OSM   H10F15224   4.656   1.168   7.662 -1.0334 -2.0102  1.9308
  139OSM   C11F15225   4.862   1.100   7.621  0.1368 -0.5360 -0.1253
  139OSM   H11F15226   4.901   1.202   7.642  1.0796 -1.0324  0.6694
  139OSM   H11G15227   4.914   1.054   7.534  0.1183 -0.8348  0.0216
  139OSM   C12F15228   4.876   1.010   7.747  0.4095 -0.4631 -0.7662
  139OSM   H12F15229   4.983   0.993   7.772  0.1956  2.2200  2.6666
  139OSM   H12G15230   4.828   0.911   7.727  1.2553 -1.2493  0.8473
  139OSM   C13F15231   4.820   1.075   7.875 -1.1603 -1.0405 -0.4099
  139OSM   H13F15232   4.712   1.101   7.869 -1.1404  0.1345  2.5701
  139OSM   H13G15233   4.880   1.164   7.903  0.4724 -2.2873  0.1811
  139OSM   C14F15234   4.832   0.990   8.002  0.5140 -0.1055  0.2130
  139OSM   H14F15235   4.939   0.966   8.020  0.1348 -1.9473  0.2384
  139OSM   H14G15236   4.791   0.889   7.978  1.7905 -0.5056 -0.4131
  139OSM   C15F15237   4.776   1.057   8.118 -0.5593  0.0890  0.0245
  139OSM   H15F15238   4.672   1.089   8.100 -1.0901  1.5833  4.5473
  139OSM   H15G15239   4.840   1.146   8.135  0.4418 -0.8833  1.7841
  139OSM   C16F15240   4.779   0.977   8.250 -0.3771  0.0831  0.7741
  139OSM   H16F15241   4.884   0.960   8.285 -0.4679  1.3360  1.7069
  139OSM   H16G15242   4.728   0.879   8.235 -1.2630  0.4572  1.2932
  139OSM   C17F15243   4.683   1.051   8.338 -0.3914  0.2813  0.5866
  139OSM   H17F15244   4.676   0.977   8.421  0.6921 -0.8911 -0.3319
  139OSM   H17G15245   4.579   1.070   8.306 -0.6702 -1.8761  0.1019
  139OSM   C18F15246   4.743   1.171   8.404 -0.5428 -0.1743  0.3535
  139OSM   H18F15247   4.835   1.146   8.460 -0.7720 -0.5073  0.5923
  139OSM   H18G15248   4.677   1.223   8.477 -1.1835  0.3648 -0.5945
  139OSM   H18H15249   4.766   1.256   8.337 -1.0066 -1.2775 -1.2615
  140OSM      N15250   5.654   4.341   6.218  0.3777 -0.4010 -0.2447
  140OSM    C1515251   5.670   4.481   6.170 -0.5850  0.2996  0.3598
  140OSM   H15A15252   5.599   4.540   6.225  0.5728  1.1553  0.9938
  140OSM   H15B15253   5.656   4.493   6.063 -1.4490 -2.7011  0.0388
  140OSM   H15C15254   5.768   4.524   6.185 -1.0735  1.8467 -0.6046
  140OSM    C1415255   5.679   4.316   6.359  0.4843  0.9340  0.5209
  140OSM   H14A15256   5.602   4.365   6.417  0.3941  2.9725 -1.1790
  140OSM   H14B15257   5.770   4.359   6.397 -0.1824  2.5379  0.3917
  140OSM   H14C15258   5.677   4.210   6.380  0.1522  0.7884 -0.1984
  140OSM    C1315259   5.516   4.293   6.199  0.7313  0.1417  0.3196
  140OSM   H13A15260   5.486   4.209   6.259 -2.0195 -0.4696 -1.7016
  140OSM   H13B15261   5.509   4.247   6.101  0.1093  2.7306 -0.9500
  140OSM   H13C15262   5.443   4.372   6.209 -1.0254 -1.4917  0.9068
  140OSM    C1215263   5.754   4.259   6.135  0.6412 -1.1051  0.4457
  140OSM   H12A15264   5.849   4.310   6.141  0.3103 -0.3002 -0.7965
  140OSM   H12B15265   5.727   4.270   6.031  1.2712  2.7705  0.5312
  140OSM    C1115266   5.779   4.106   6.160 -0.6904 -0.3086 -0.2572
  140OSM   H11A15267   5.831   4.063   6.071  0.7778  0.0690  0.3956
  140OSM   H11B15268   5.681   4.056   6.174 -0.1484 -1.5279 -0.6935
  140OSM      P15269   5.891   3.942   6.318 -0.1384  0.2157 -0.5926
  140OSM    O1315270   5.824   3.849   6.226 -0.4035  0.0289 -0.3273
  140OSM    O1415271   6.037   3.921   6.338  0.2583 -0.2244  0.3200
  140OSM    O1115272   5.818   3.937   6.461 -0.2008 -0.0633 -0.1618
  140OSM    O1215273   5.864   4.092   6.280  0.7314 -0.0728  0.1055
  140OSM    C1S15274   5.867   4.010   6.571 -0.0483 -0.3644 -0.0871
  140OSM    H1S15275   5.863   4.118   6.547 -1.0461  0.3130  2.7145
  140OSM    H1T15276   5.973   3.993   6.599 -0.1479  0.7814  1.0540
  140OSM     NF15277   5.843   4.080   6.804  0.0910 -0.3491 -0.3582
  140OSM    HNF15278   5.899   4.049   6.880 -1.2733  0.6657  1.1160
  140OSM    C2S15279   5.796   3.987   6.704  0.4615 -0.2351  1.1499
  140OSM    H2S15280   5.689   4.015   6.690  0.8338  0.3352 -0.7155
  140OSM    C3S15281   5.812   3.840   6.746 -0.4278 -0.0869  0.0077
  140OSM    H3S15282   5.920   3.818   6.757 -0.0615  1.8282  0.6127
  140OSM     O315283   5.763   3.755   6.642  0.4044 -0.4921 -0.0072
  140OSM    HO315284   5.794   3.804   6.566  0.3995 -0.0412  0.2823
  140OSM    C4S15285   5.755   3.818   6.880 -0.1834  0.2424  0.4452
  140OSM    H4S15286   5.822   3.817   6.968  1.1774 -1.7865 -0.5531
  140OSM    C5S15287   5.626   3.766   6.910 -0.9151  0.0807 -0.5260
  140OSM    H5S15288   5.562   3.753   6.822  0.4499  2.7494 -2.0348
  140OSM    C6S15289   5.568   3.720   7.038  0.6946  0.2349 -0.0359
  140OSM    H6S15290   5.588   3.611   7.040  1.2661  0.1348 -3.5879
  140OSM    H6T15291   5.459   3.745   7.036  0.9262  1.2685 -1.6761
  140OSM    C7S15292   5.626   3.784   7.160 -0.2270 -1.0581  0.1044
  140OSM    H7S15293   5.653   3.892   7.151  2.3375 -1.7883 -1.9489
  140OSM    H7T15294   5.730   3.749   7.176  0.6175  2.0772  2.6242
  140OSM    C8S15295   5.569   3.747   7.294  0.0310  0.0073 -0.1400
  140OSM    H8S15296   5.561   3.637   7.311 -2.1757  0.3351  1.4056
  140OSM    H8T15297   5.464   3.784   7.292  0.3182  1.2101  2.9604
  140OSM    C9S15298   5.640   3.802   7.423 -0.1882  0.7012  0.5983
  140OSM    H9S15299   5.671   3.907   7.403 -2.1507  1.8060  2.9352
  140OSM    H9T15300   5.737   3.748   7.434  0.4431  1.4745 -0.8103
  140OSM   C10S15301   5.563   3.788   7.546  0.2456  0.5856 -0.5001
  140OSM   H10S15302   5.541   3.680   7.562  2.6278  0.2394  0.9452
  140OSM   H10T15303   5.462   3.834   7.547 -0.3130 -0.5995 -0.7223
  140OSM   C11S15304   5.641   3.838   7.665 -0.0824 -0.0842  0.1112
  140OSM   H11S15305   5.690   3.931   7.629  0.1342 -0.5073 -0.7070
  140OSM   H11T15306   5.722   3.764   7.682  1.2090  0.7485 -2.0458
  140OSM   C12S15307   5.552   3.851   7.784 -0.3298  0.2576  0.0159
  140OSM   H12S15308   5.510   3.754   7.819  0.8412  0.6994  2.9272
  140OSM   H12T15309   5.467   3.918   7.756 -1.1984 -0.4788  0.8147
  140OSM   C13S15310   5.618   3.920   7.905  0.5045 -0.7553 -0.0075
  140OSM   H13S15311   5.667   4.015   7.877 -0.0891 -1.0752 -2.3786
  140OSM   H13T15312   5.695   3.851   7.944 -1.4716 -3.1656 -0.0772
  140OSM   C14S15313   5.521   3.937   8.023  0.2490 -0.2525  0.1809
  140OSM   H14S15314   5.448   3.853   8.024  0.8725 -0.8105 -0.4242
  140OSM   H14T15315   5.460   4.029   8.012  1.3267  0.4962  0.2881
  140OSM   C15S15316   5.592   3.932   8.157 -0.3341  0.0827 -0.6703
  140OSM   H15S15317   5.662   4.018   8.165 -0.4487  0.0822  0.4675
  140OSM   H15T15318   5.653   3.840   8.168 -0.3474  0.0539 -0.8294
  140OSM   C16S15319   5.498   3.955   8.274 -0.2551  0.1974  0.1028
  140OSM   H16S15320   5.406   3.893   8.273 -1.4271  1.8015  1.3923
  140OSM   H16T15321   5.463   4.061   8.278 -0.4702  0.1004  1.7513
  140OSM   C17S15322   5.573   3.934   8.411 -0.4592  0.1710  0.4984
  140OSM   H17S15323   5.510   3.979   8.490 -3.0702  3.0560 -2.8778
  140OSM   H17T15324   5.667   3.992   8.406  0.8044 -1.8330 -3.1286
  140OSM   C18S15325   5.621   3.793   8.446 -0.3734 -0.2494 -0.4871
  140OSM   H18S15326   5.539   3.720   8.430  0.0717 -0.6366 -1.0789
  140OSM   H18T15327   5.629   3.782   8.556 -1.7341  2.2967 -0.0783
  140OSM   H18U15328   5.718   3.759   8.404 -0.9444 -2.1464 -0.3702
  140OSM    C1F15329   5.814   4.211   6.801  0.3549 -0.5443 -0.4949
  140OSM     OF15330   5.729   4.256   6.726 -0.1148 -0.1118  0.0434
  140OSM    C2F15331   5.887   4.304   6.898  0.5140 -0.6676 -0.1841
  140OSM    H2F15332   5.920   4.392   6.839  1.9033 -0.8336  0.3119
  140OSM    H2G15333   5.968   4.242   6.941  0.7728  0.4975  1.0794
  140OSM    C3F15334   5.793   4.361   7.009  0.4745 -0.3051  0.0780
  140OSM    H3F15335   5.710   4.413   6.956  1.9548  2.9716  0.7595
  140OSM    H3G15336   5.844   4.434   7.075  0.4063  0.2757 -0.5051
  140OSM    C4F15337   5.742   4.262   7.106  0.2568  0.2555  0.3036
  140OSM    H4F15338   5.831   4.208   7.146 -0.8592 -0.9293  1.2978
  140OSM    H4G15339   5.675   4.188   7.057 -0.3549  0.3196  1.0233
  140OSM    C5F15340   5.661   4.327   7.221 -0.1312 -0.3041 -1.2256
  140OSM    H5F15341   5.562   4.359   7.184 -0.1203  2.8088  0.9982
  140OSM    H5G15342   5.719   4.413   7.261 -1.9037 -0.5973  2.4051
  140OSM    C6F15343   5.644   4.242   7.350  0.6359 -0.6087  0.2599
  140OSM    H6F15344   5.740   4.207   7.394  0.9025 -1.2005 -0.7687
  140OSM    H6G15345   5.602   4.151   7.303  0.6867  0.5510 -2.2050
  140OSM    C7F15346   5.553   4.299   7.457  0.9430 -0.1365  0.3412
  140OSM    H7F15347   5.447   4.288   7.425  0.3991  1.7658  1.3519
  140OSM    H7G15348   5.583   4.403   7.481  4.1571 -1.1618  1.2853
  140OSM    C8F15349   5.550   4.211   7.591  0.6054 -0.4967 -0.4363
  140OSM    H8F15350   5.539   4.102   7.571 -2.8914 -0.4417  0.5083
  140OSM    H8G15351   5.464   4.239   7.657 -0.0188 -0.9785 -1.0315
  140OSM    C9F15352   5.673   4.228   7.686  0.4974  0.7149  0.3202
  140OSM    H9F15353   5.759   4.167   7.654 -0.2350 -1.2434  1.8401
  140OSM   C10F15354   5.698   4.311   7.787  0.2074  0.3377  0.3471
  140OSM   H10F15355   5.786   4.301   7.852 -1.6127 -0.8492  2.7718
  140OSM   C11F15356   5.612   4.430   7.832 -0.3110  1.5461  0.0081
  140OSM   H11F15357   5.540   4.448   7.749 -0.4927  1.7500  0.2085
  140OSM   H11G15358   5.670   4.524   7.845  1.0147  0.7536  0.0536
  140OSM   C12F15359   5.519   4.394   7.947 -0.0225  0.3367 -0.3660
  140OSM   H12F15360   5.453   4.306   7.926 -0.4895  0.4569  0.5672
  140OSM   H12G15361   5.446   4.475   7.968 -0.9565 -0.3746 -0.7925
  140OSM   C13F15362   5.601   4.361   8.077 -0.5110  0.2242  0.2581
  140OSM   H13F15363   5.689   4.428   8.075 -0.5076  0.3205 -3.0738
  140OSM   H13G15364   5.639   4.257   8.064  0.0811  0.4937 -0.2343
  140OSM   C14F15365   5.510   4.369   8.200 -0.3034 -0.6044  0.4440
  140OSM   H14F15366   5.441   4.282   8.194  0.6379 -1.2869 -1.7055
  140OSM   H14G15367   5.447   4.460   8.202 -1.3755 -1.2928  3.4260
  140OSM   C15F15368   5.587   4.363   8.328 -0.1212 -0.0913 -0.4022
  140OSM   H15F15369   5.667   4.435   8.355 -1.9861  2.1009 -0.3939
  140OSM   H15G15370   5.636   4.264   8.331 -2.1130 -1.1128  0.5875
  140OSM   C16F15371   5.491   4.373   8.448  0.0171 -0.6104 -0.0854
  140OSM   H16F15372   5.411   4.296   8.440  0.8455 -1.4646 -0.3967
  140OSM   H16G15373   5.445   4.472   8.467  0.0554 -0.5378 -0.3607
  140OSM   C17F15374   5.560   4.343   8.587  0.2147  0.2089 -0.5453
  140OSM   H17F15375   5.578   4.234   8.572 -1.6463 -0.4023  1.1657
  140OSM   H17G15376   5.481   4.368   8.662 -0.6237 -3.9439  0.2489
  140OSM   C18F15377   5.690   4.426   8.619 -0.7313 -0.2564 -1.0501
  140OSM   H18F15378   5.681   4.464   8.724  1.7342 -2.8648  0.2292
  140OSM   H18G15379   5.692   4.518   8.557  0.4152 -0.6207 -1.5795
  140OSM   H18H15380   5.785   4.371   8.608  0.8449  1.7071  1.4083
  141OSM      N15381   3.627   5.197   6.062 -0.5372  0.1601 -0.5850
  141OSM    C1515382   3.493   5.145   6.029  0.0914 -1.0527 -0.1584
  141OSM   H15A15383   3.453   5.194   5.942 -1.7367 -1.0036  0.6703
  141OSM   H15B15384   3.420   5.174   6.102 -1.8953  0.3336 -2.5430
  141OSM   H15C15385   3.508   5.039   6.009 -0.8523 -1.1044 -0.6165
  141OSM    C1415386   3.722   5.168   5.949 -0.1870  0.2513 -0.7043
  141OSM   H14A15387   3.679   5.202   5.856 -0.6843  1.1102 -0.1740
  141OSM   H14B15388   3.749   5.064   5.945 -0.8042  0.0739 -0.4647
  141OSM   H14C15389   3.815   5.220   5.965 -0.5235  1.4381 -2.3767
  141OSM    C1315390   3.626   5.348   6.073  0.6769  0.1882  0.3964
  141OSM   H13A15391   3.603   5.400   5.981 -0.4911 -0.3846  0.3430
  141OSM   H13B15392   3.725   5.372   6.107  1.1521  1.0920 -1.4701
  141OSM   H13C15393   3.554   5.384   6.144 -2.5733 -2.5298 -1.1954
  141OSM    C1215394   3.680   5.141   6.196  0.3408 -0.4843 -0.3933
  141OSM   H12A15395   3.783   5.172   6.204  0.0593  0.8103 -1.3255
  141OSM   H12B15396   3.680   5.034   6.185  0.6993 -0.5948  0.6052
  141OSM    C1115397   3.594   5.172   6.323 -0.2579 -0.5150  0.4404
  141OSM   H11A15398   3.623   5.105   6.406 -2.8999 -1.1797  0.8937
  141OSM   H11B15399   3.492   5.142   6.291  0.0854  1.6012 -3.2339
  141OSM      P15400   3.474   5.382   6.414  0.1723  0.2242 -0.0556
  141OSM    O1315401   3.517   5.512   6.467 -0.7876 -0.4577 -0.0695
  141OSM    O1415402   3.363   5.390   6.316  0.4319 -0.1539  0.1471
  141OSM    O1115403   3.419   5.291   6.539 -0.4442 -0.0870  0.3535
  141OSM    O1215404   3.605   5.310   6.354 -0.2443 -0.7952  0.3569
  141OSM    C1S15405   3.515   5.275   6.647 -0.2801  0.8597  0.0483
  141OSM    H1S15406   3.617   5.308   6.619 -0.5015  0.7288 -0.9474
  141OSM    H1T15407   3.524   5.166   6.670  0.8808  0.7595 -0.8226
  141OSM     NF15408   3.564   5.316   6.887 -0.2883  0.6480 -0.0557
  141OSM    HNF15409   3.557   5.249   6.960 -0.3817 -0.0091 -0.6609
  141OSM    C2S15410   3.462   5.336   6.785  0.3087  0.0966 -0.0515
  141OSM    H2S15411   3.446   5.445   6.771 -2.1033  0.0875  1.8891
  141OSM    C3S15412   3.324   5.274   6.824  0.1328  0.6476  0.1480
  141OSM    H3S15413   3.326   5.163   6.837 -3.8937  0.0688 -2.4874
  141OSM     O315414   3.229   5.280   6.719 -0.1259 -0.2579  0.0417
  141OSM    HO315415   3.286   5.317   6.651 -0.0063 -0.4130  0.0580
  141OSM    C4S15416   3.264   5.321   6.954  0.1083  0.1016 -0.6605
  141OSM    H4S15417   3.312   5.267   7.037 -0.9812 -1.0860 -0.7695
  141OSM    C5S15418   3.160   5.399   6.984  0.0571 -0.3840  0.8502
  141OSM    H5S15419   3.095   5.426   6.900  3.3964 -0.2850 -1.9365
  141OSM    C6S15420   3.102   5.447   7.116  0.3326 -0.1147  0.0477
  141OSM    H6S15421   2.991   5.444   7.115  0.2416 -1.6398  3.4681
  141OSM    H6T15422   3.142   5.547   7.144  3.8005 -1.2422 -0.4343
  141OSM    C7S15423   3.114   5.355   7.237 -0.0332  0.4823 -0.0871
  141OSM    H7S15424   3.220   5.362   7.269  0.7654 -0.3170 -2.3956
  141OSM    H7T15425   3.086   5.257   7.194  0.0497  0.2247  0.4431
  141OSM    C8S15426   3.019   5.371   7.354 -0.7069 -0.1074 -0.2465
  141OSM    H8S15427   3.008   5.275   7.408  2.3518 -0.3404  0.1124
  141OSM    H8T15428   2.919   5.400   7.313 -1.4366  0.4750  1.8346
  141OSM    C9S15429   3.061   5.474   7.456 -0.2319  0.0029 -0.2165
  141OSM    H9S15430   3.088   5.576   7.420  0.4772  1.0684  2.9545
  141OSM    H9T15431   3.152   5.428   7.500 -1.1623 -1.8335 -0.1374
  141OSM   C10S15432   2.975   5.475   7.595 -0.4387  0.8906  0.6763
  141OSM   H10S15433   2.967   5.367   7.618  0.2696  0.9281  1.1019
  141OSM   H10T15434   2.876   5.518   7.569 -0.8145 -0.5524 -0.4050
  141OSM   C11S15435   3.053   5.542   7.707 -0.0565 -0.3309  0.0787
  141OSM   H11S15436   3.086   5.636   7.659 -0.6185 -1.1527 -2.0160
  141OSM   H11T15437   3.141   5.480   7.732  0.3139 -0.5385 -1.6877
  141OSM   C12S15438   2.963   5.582   7.832 -0.4698  0.9515  0.6944
  141OSM   H12S15439   2.911   5.485   7.849  0.1511  0.4493 -0.1711
  141OSM   H12T15440   2.895   5.665   7.802 -0.4313  0.3016 -1.3726
  141OSM   C13S15441   3.029   5.628   7.960  0.0860 -0.4187 -0.6420
  141OSM   H13S15442   3.071   5.731   7.959 -2.4624  0.6945 -0.6276
  141OSM   H13T15443   3.098   5.548   7.995 -1.8095 -1.9880 -0.3285
  141OSM   C14S15444   2.924   5.638   8.075  0.1141 -0.5130  0.0528
  141OSM   H14S15445   2.861   5.547   8.082 -0.6735  0.1631  5.2210
  141OSM   H14T15446   2.849   5.712   8.040 -0.8658  0.2986  3.5349
  141OSM   C15S15447   2.984   5.660   8.210  0.0731  0.0842 -0.5997
  141OSM   H15S15448   3.038   5.756   8.207  3.5997 -1.6994  0.3578
  141OSM   H15T15449   3.066   5.586   8.226  1.4991  1.5467 -0.9360
  141OSM   C16S15450   2.872   5.654   8.316 -0.2838  0.1410 -0.2464
  141OSM   H16S15451   2.914   5.621   8.414  0.2946  0.0391 -0.5275
  141OSM   H16T15452   2.798   5.587   8.268  1.6113  0.1216 -3.4017
  141OSM   C17S15453   2.797   5.785   8.333 -0.9447 -0.5431  0.3979
  141OSM   H17S15454   2.753   5.821   8.238 -0.5319  1.6005  0.9856
  141OSM   H17T15455   2.875   5.861   8.352  0.5193 -1.4835 -1.4783
  141OSM   C18S15456   2.684   5.780   8.438  0.0325 -0.0788 -0.1840
  141OSM   H18S15457   2.731   5.741   8.531 -0.1782 -1.7228 -0.7286
  141OSM   H18T15458   2.589   5.724   8.421 -1.3216  1.3802  1.9765
  141OSM   H18U15459   2.649   5.883   8.461 -0.4681 -0.4759  0.9159
  141OSM    C1F15460   3.683   5.381   6.872 -0.8163 -0.2972 -0.1394
  141OSM     OF15461   3.714   5.446   6.773  0.3530  0.0064  0.4491
  141OSM    C2F15462   3.767   5.381   6.992  0.1837 -0.4909  0.6615
  141OSM    H2F15463   3.732   5.289   7.043 -0.2609 -1.0130 -0.5544
  141OSM    H2G15464   3.737   5.473   7.048  0.6088 -0.6096  1.0986
  141OSM    C3F15465   3.915   5.393   6.954 -0.9433  0.1961  0.1663
  141OSM    H3F15466   3.946   5.486   6.903  0.1454 -1.0018 -1.4735
  141OSM    H3G15467   3.927   5.304   6.888 -1.5720  0.5549 -0.4412
  141OSM    C4F15468   4.012   5.374   7.076  0.2360 -0.0132 -0.8341
  141OSM    H4F15469   4.031   5.475   7.119 -1.0999 -0.0431 -0.0904
  141OSM    H4G15470   4.111   5.331   7.051  0.3750  0.3361 -0.8956
  141OSM    C5F15471   3.959   5.289   7.194 -0.2187  0.4227 -0.6146
  141OSM    H5F15472   3.941   5.193   7.141  2.2463 -1.1275  1.1744
  141OSM    H5G15473   3.861   5.330   7.228 -0.3862  1.4611 -2.2089
  141OSM    C6F15474   4.043   5.253   7.312  0.2331 -0.0021 -0.0237
  141OSM    H6F15475   4.147   5.240   7.275  0.8444  0.0277  1.6180
  141OSM    H6G15476   4.023   5.151   7.351 -4.6380  0.9328  0.5126
  141OSM    C7F15477   4.040   5.359   7.422  0.4073 -0.1236 -0.0074
  141OSM    H7F15478   3.937   5.400   7.429  1.0603  1.9878 -1.7420
  141OSM    H7G15479   4.107   5.439   7.383 -0.5909  0.3677 -0.7575
  141OSM    C8F15480   4.106   5.320   7.555 -0.0873 -0.0127  0.1723
  141OSM    H8F15481   4.102   5.417   7.610 -1.8829 -1.0597  2.0128
  141OSM    H8G15482   4.213   5.300   7.534 -0.3557 -1.8461  0.4358
  141OSM    C9F15483   4.040   5.207   7.620 -0.2670  0.8248 -0.5366
  141OSM    H9F15484   4.016   5.121   7.556 -0.0529  2.0730 -2.4020
  141OSM   C10F15485   3.991   5.210   7.750  0.0116 -0.1572  1.2294
  141OSM   H10F15486   3.937   5.118   7.777 -0.2789  0.1046  1.5437
  141OSM   C11F15487   3.995   5.317   7.849 -0.4260 -0.4633 -0.4406
  141OSM   H11F15488   3.895   5.367   7.842  0.4671  1.4343 -0.2767
  141OSM   H11G15489   4.073   5.395   7.838 -0.3918 -0.5466 -0.8108
  141OSM   C12F15490   4.011   5.263   7.984 -0.0868 -0.0328 -0.0315
  141OSM   H12F15491   4.097   5.193   7.993 -0.4116 -0.5578 -0.9586
  141OSM   H12G15492   3.921   5.203   8.011 -1.1391  2.3155  2.1569
  141OSM   C13F15493   4.022   5.381   8.087  0.3670 -0.3182  0.4299
  141OSM   H13F15494   4.096   5.456   8.051 -0.2121  0.5262  0.9376
  141OSM   H13G15495   4.048   5.334   8.184 -0.6511 -0.8898  0.4363
  141OSM   C14F15496   3.891   5.452   8.117 -0.0353  0.3366 -0.1490
  141OSM   H14F15497   3.808   5.380   8.133  0.0472  0.0772 -0.8601
  141OSM   H14G15498   3.863   5.499   8.021 -0.2844 -1.9575 -1.2572
  141OSM   C15F15499   3.902   5.556   8.232  0.2395  0.4617 -0.0289
  141OSM   H15F15500   3.812   5.619   8.218  1.9659  3.0808  0.1127
  141OSM   H15G15501   3.988   5.625   8.224  1.7374 -1.0486  2.0137
  141OSM   C16F15502   3.899   5.503   8.380  0.0451  0.2293  0.3710
  141OSM   H16F15503   4.003   5.480   8.411 -0.2897 -1.0514  0.5969
  141OSM   H16G15504   3.842   5.407   8.377  1.3708 -0.5694 -0.4016
  141OSM   C17F15505   3.834   5.600   8.482  0.4028 -0.5696  0.1114
  141OSM   H17F15506   3.839   5.548   8.580 -0.5027 -2.0842 -0.6081
  141OSM   H17G15507   3.727   5.605   8.454  0.2429 -1.7776  0.4219
  141OSM   C18F15508   3.887   5.738   8.475 -0.8231  0.4257  0.3378
  141OSM   H18F15509   3.934   5.764   8.378 -2.3829 -1.3062 -0.9537
  141OSM   H18G15510   3.958   5.761   8.557 -0.0052  0.2668 -0.3087
  141OSM   H18H15511   3.799   5.806   8.479 -3.0422 -2.1380 -1.0919
  142OSM      N15512   5.241   5.330   6.181 -0.6654  0.6496  0.2513
  142OSM    C1515513   5.302   5.446   6.107 -0.4808 -0.0517  0.0605
  142OSM   H15A15514   5.309   5.426   6.001 -0.4393 -0.6650  0.1785
  142OSM   H15B15515   5.399   5.474   6.145 -1.6330  1.2236  2.3618
  142OSM   H15C15516   5.233   5.528   6.126 -0.1249  0.1024  0.7166
  142OSM    C1415517   5.105   5.304   6.136  0.0474  0.1418  0.0422
  142OSM   H14A15518   5.027   5.374   6.163 -0.2227  0.8589 -2.4301
  142OSM   H14B15519   5.079   5.200   6.154  2.7233 -0.7856 -1.0457
  142OSM   H14C15520   5.113   5.307   6.029 -0.7756 -1.2702 -0.0802
  142OSM    C1315521   5.331   5.207   6.154 -0.0986  0.1725 -0.3247
  142OSM   H13A15522   5.306   5.176   6.054  2.3958 -0.0089 -0.9622
  142OSM   H13B15523   5.294   5.137   6.227 -0.0700 -1.0102 -1.4276
  142OSM   H13C15524   5.437   5.230   6.162 -0.9200  4.2651  1.7258
  142OSM    C1215525   5.238   5.342   6.332  0.2247 -0.5151 -0.1975
  142OSM   H12A15526   5.178   5.261   6.372  0.6848 -1.1368 -0.7537
  142OSM   H12B15527   5.187   5.435   6.356 -0.5374 -0.7108 -0.9893
  142OSM    C1115528   5.374   5.335   6.412  0.1554 -0.2722 -0.0067
  142OSM   H11A15529   5.413   5.232   6.397 -2.6210 -1.1821 -1.7835
  142OSM   H11B15530   5.355   5.344   6.521  1.5205  0.0363  0.2234
  142OSM      P15531   5.612   5.426   6.389  0.0960  0.0557 -0.1274
  142OSM    O1315532   5.686   5.382   6.267  0.1309  0.1873  0.1203
  142OSM    O1415533   5.652   5.562   6.440  0.4926 -0.0962 -0.0110
  142OSM    O1115534   5.625   5.315   6.491  0.9910 -0.2735  0.2564
  142OSM    O1215535   5.458   5.432   6.356  0.1363  0.0088  0.1659
  142OSM    C1S15536   5.597   5.352   6.630 -0.3039 -0.4862  0.2855
  142OSM    H1S15537   5.507   5.417   6.631  0.9350  1.2939  0.6481
  142OSM    H1T15538   5.674   5.411   6.683 -1.0166 -0.6403  1.5359
  142OSM     NF15539   5.518   5.276   6.848  0.2278 -0.0793 -0.2049
  142OSM    HNF15540   5.575   5.243   6.923 -1.8150  0.1991  1.5726
  142OSM    C2S15541   5.554   5.232   6.717 -0.2225 -0.2471  0.3309
  142OSM    H2S15542   5.472   5.183   6.660  0.0111  0.9669 -1.0990
  142OSM    C3S15543   5.671   5.126   6.725 -0.0022 -1.0493 -0.4914
  142OSM    H3S15544   5.756   5.180   6.773 -0.9925  1.0420 -0.9747
  142OSM     O315545   5.733   5.081   6.605  0.7993 -0.9086 -0.2752
  142OSM    HO315546   5.713   5.137   6.530 -0.0671 -0.9023 -0.0431
  142OSM    C4S15547   5.629   5.006   6.791 -0.2639  0.3702 -0.7390
  142OSM    H4S15548   5.541   4.949   6.759 -0.0711 -1.5293  1.7870
  142OSM    C5S15549   5.687   4.951   6.901 -0.7579  0.3465  0.6098
  142OSM    H5S15550   5.776   4.994   6.950  0.2455 -1.3910  0.4258
  142OSM    C6S15551   5.621   4.830   6.960  0.7463 -0.4046 -0.2967
  142OSM    H6S15552   5.675   4.742   6.919  2.4773 -0.3842  1.8008
  142OSM    H6T15553   5.522   4.807   6.915  0.9563 -1.2408 -0.3437
  142OSM    C7S15554   5.608   4.830   7.108 -0.4097  0.1960 -0.2467
  142OSM    H7S15555   5.535   4.905   7.146 -3.4621 -1.9015 -1.5860
  142OSM    H7T15556   5.705   4.861   7.153 -2.1559  2.1617  2.4683
  142OSM    C8S15557   5.558   4.694   7.160  0.1544  0.1818  0.4318
  142OSM    H8S15558   5.610   4.607   7.114 -0.5937  1.3876 -3.0066
  142OSM    H8T15559   5.456   4.678   7.118  1.1598 -2.4778 -1.2647
  142OSM    C9S15560   5.563   4.664   7.310 -0.1954  0.3425  0.3677
  142OSM    H9S15561   5.668   4.664   7.345  0.4125 -1.1992 -1.3272
  142OSM    H9T15562   5.522   4.561   7.317  1.0454 -0.1522  0.5582
  142OSM   C10S15563   5.475   4.761   7.396 -0.4992  0.1929 -0.0799
  142OSM   H10S15564   5.380   4.758   7.339 -0.0359  0.3995 -0.8909
  142OSM   H10T15565   5.515   4.864   7.394  2.0922 -0.7186  0.3810
  142OSM   C11S15566   5.478   4.715   7.543 -0.3580 -0.4937  0.2192
  142OSM   H11S15567   5.580   4.696   7.582 -0.3769 -2.1298 -0.4686
  142OSM   H11T15568   5.444   4.610   7.539  0.0886 -0.6161 -0.5342
  142OSM   C12S15569   5.380   4.804   7.622  0.3462  0.4305 -0.1413
  142OSM   H12S15570   5.279   4.804   7.576 -0.0846 -0.9487  0.7479
  142OSM   H12T15571   5.424   4.906   7.618  0.5568  0.4241  1.3159
  142OSM   C13S15572   5.342   4.765   7.760  0.6879  0.2800 -0.2943
  142OSM   H13S15573   5.297   4.664   7.772 -0.9836  0.9876 -0.3323
  142OSM   H13T15574   5.257   4.828   7.791  1.7401  1.6755 -0.1339
  142OSM   C14S15575   5.454   4.787   7.863  0.4735 -0.1297 -0.1282
  142OSM   H14S15576   5.487   4.892   7.851 -2.3477  0.7397 -0.9525
  142OSM   H14T15577   5.539   4.718   7.840 -0.5815 -1.6872  0.4416
  142OSM   C15S15578   5.412   4.763   8.007  0.1047 -0.1802  0.4919
  142OSM   H15S15579   5.372   4.662   8.031  0.7026 -0.2665  1.1404
  142OSM   H15T15580   5.341   4.845   8.032 -1.1697 -1.2553  0.4944
  142OSM   C16S15581   5.537   4.792   8.100  0.6454 -0.0673 -0.3644
  142OSM   H16S15582   5.573   4.896   8.080 -0.3724  0.2833 -0.4409
  142OSM   H16T15583   5.604   4.710   8.068  0.2738  0.0228 -1.4002
  142OSM   C17S15584   5.518   4.794   8.254  0.8592  0.0577  0.0248
  142OSM   H17S15585   5.472   4.695   8.276  0.9540  0.1195  0.5195
  142OSM   H17T15586   5.440   4.866   8.287  0.2720  0.2293 -1.6388
  142OSM   C18S15587   5.646   4.793   8.333  0.3686 -0.1059 -0.0081
  142OSM   H18S15588   5.708   4.879   8.301 -1.7104  1.0207 -1.2628
  142OSM   H18T15589   5.689   4.691   8.334 -1.3537 -0.9330  3.4153
  142OSM   H18U15590   5.620   4.801   8.441  3.0424 -0.4072  0.7133
  142OSM    C1F15591   5.409   5.350   6.866  0.4329  0.8203  0.3339
  142OSM     OF15592   5.326   5.364   6.774 -0.5218 -0.0641  0.1467
  142OSM    C2F15593   5.378   5.402   7.001 -0.1435  0.5165 -0.5181
  142OSM    H2F15594   5.268   5.392   7.015 -0.1165  1.2461  0.2789
  142OSM    H2G15595   5.394   5.512   6.996  1.8623  0.2368 -1.5914
  142OSM    C3F15596   5.450   5.331   7.114  0.9172 -0.3032  0.6396
  142OSM    H3F15597   5.555   5.366   7.109  0.8615 -0.1330  0.6998
  142OSM    H3G15598   5.460   5.223   7.088  0.7902 -0.1970  0.1406
  142OSM    C4F15599   5.387   5.338   7.249  0.0192  0.2538 -0.4395
  142OSM    H4F15600   5.292   5.280   7.252 -2.1149  3.4755 -0.8708
  142OSM    H4G15601   5.355   5.444   7.261  0.6983  0.3509  0.5661
  142OSM    C5F15602   5.480   5.293   7.364  0.2072  0.3914  0.2484
  142OSM    H5F15603   5.565   5.363   7.378 -0.2385  1.0372 -0.2162
  142OSM    H5G15604   5.508   5.191   7.330 -2.2926 -0.0033 -0.8126
  142OSM    C6F15605   5.396   5.286   7.493  0.2954 -0.9133  0.1375
  142OSM    H6F15606   5.298   5.241   7.463 -0.1296  0.2137 -0.2241
  142OSM    H6G15607   5.377   5.393   7.514 -0.5432 -1.2621  1.2548
  142OSM    C7F15608   5.474   5.221   7.607  0.0720 -0.0502  0.0030
  142OSM    H7F15609   5.569   5.276   7.618  1.1237 -1.8294  0.1682
  142OSM    H7G15610   5.489   5.123   7.558 -2.5198 -1.3878  1.6251
  142OSM    C8F15611   5.395   5.197   7.739 -0.7593  0.2345 -0.7491
  142OSM    H8F15612   5.419   5.096   7.781  0.2340  0.7224 -0.1174
  142OSM    H8G15613   5.287   5.199   7.712 -1.0854 -1.7521  0.1682
  142OSM    C9F15614   5.422   5.323   7.820  0.0729 -0.8921 -0.4299
  142OSM    H9F15615   5.419   5.415   7.759  3.4408  1.0071  1.9782
  142OSM   C10F15616   5.458   5.343   7.947  0.3014  0.0624 -0.3424
  142OSM   H10F15617   5.467   5.443   7.990 -2.2011  0.1172  0.2140
  142OSM   C11F15618   5.486   5.234   8.053 -0.2503 -0.1180 -0.1090
  142OSM   H11F15619   5.595   5.221   8.067 -0.5321 -3.1980  0.0233
  142OSM   H11G15620   5.454   5.133   8.018  0.6408 -0.9657  1.4207
  142OSM   C12F15621   5.436   5.271   8.190  0.1132 -0.1897  0.3998
  142OSM   H12F15622   5.489   5.358   8.233 -1.0722  0.5684  0.3841
  142OSM   H12G15623   5.452   5.185   8.258  0.1282 -0.1120  0.4954
  142OSM   C13F15624   5.286   5.301   8.206 -0.4926 -0.2733 -0.6287
  142OSM   H13F15625   5.231   5.205   8.189  1.5342 -1.1369 -2.8600
  142OSM   H13G15626   5.251   5.375   8.131  1.2436  0.0560 -1.1596
  142OSM   C14F15627   5.245   5.348   8.352 -0.2463 -0.3070 -0.2575
  142OSM   H14F15628   5.315   5.288   8.414  1.1877  0.5542 -0.9668
  142OSM   H14G15629   5.141   5.320   8.379 -0.0844 -0.5339  0.1378
  142OSM   C15F15630   5.263   5.502   8.369  0.4260  0.9802 -0.0485
  142OSM   H15F15631   5.208   5.543   8.282 -2.2281 -2.1453 -0.0494
  142OSM   H15G15632   5.364   5.548   8.366  0.7328  0.2858 -2.0516
  142OSM   C16F15633   5.191   5.555   8.495  0.1761  0.5125 -0.5209
  142OSM   H16F15634   5.220   5.495   8.584  2.1788  0.8706 -0.8733
  142OSM   H16G15635   5.083   5.536   8.477  0.3223 -0.1679 -0.7400
  142OSM   C17F15636   5.225   5.696   8.531  0.0569  0.3014 -0.0601
  142OSM   H17F15637   5.191   5.754   8.442 -0.2069 -1.9925 -1.5231
  142OSM   H17G15638   5.335   5.707   8.532  0.0910  0.0517  1.3054
  142OSM   C18F15639   5.165   5.752   8.662 -0.9302  1.1002  0.7738
  142OSM   H18F15640   5.180   5.862   8.666 -0.3248  1.0279  0.6073
  142OSM   H18G15641   5.206   5.696   8.749 -0.5300 -1.0664 -0.7185
  142OSM   H18H15642   5.058   5.723   8.669 -0.5733 -0.8195 -0.9485
  143OSM      N15643   0.379   2.262   5.869  0.5075  0.3251  0.6616
  143OSM    C1515644   0.429   2.394   5.813 -0.2532  0.0924 -0.0421
  143OSM   H15A15645   0.458   2.382   5.710  0.0452  1.6718 -0.1795
  143OSM   H15B15646   0.524   2.419   5.860 -1.3345 -1.3957  3.2537
  143OSM   H15C15647   0.345   2.462   5.815 -1.8902 -1.8244  2.1896
  143OSM    C1415648   0.251   2.234   5.801  0.5960 -0.3903 -0.3715
  143OSM   H14A15649   0.204   2.144   5.836 -1.7116  0.8663 -0.0305
  143OSM   H14B15650   0.262   2.211   5.696  2.8570 -1.1818 -0.0321
  143OSM   H14C15651   0.180   2.313   5.819 -0.2561 -1.4105  0.9371
  143OSM    C1315652   0.475   2.154   5.843  0.1279 -0.4827 -0.0066
  143OSM   H13A15653   0.443   2.113   5.748  1.5250  3.4446 -2.4359
  143OSM   H13B15654   0.479   2.071   5.912  0.2085 -2.1786 -1.9388
  143OSM   H13C15655   0.576   2.189   5.827 -0.2896  0.4688 -0.6700
  143OSM    C1215656   0.350   2.276   6.014 -0.2356  0.5215 -0.1876
  143OSM   H12A15657   0.296   2.365   6.041  3.1353  2.1925  1.5824
  143OSM   H12B15658   0.449   2.283   6.056 -0.0278 -1.7400 -0.1499
  143OSM    C1115659   0.285   2.159   6.102 -0.2412 -0.2971  0.2392
  143OSM   H11A15660   0.271   2.188   6.208 -2.2753 -0.9894  0.2003
  143OSM   H11B15661   0.357   2.075   6.103 -0.6587 -0.6537  0.4078
  143OSM      P15662   0.026   2.188   6.088  0.2127  0.3463 -0.0038
  143OSM    O1315663   0.036   2.331   6.062  0.3146 -0.7547 -0.3072
  143OSM    O1415664  -0.086   2.119   6.021  0.2554  0.1367  0.5518
  143OSM    O1115665   0.018   2.175   6.243 -0.4850 -0.6198 -0.7332
  143OSM    O1215666   0.156   2.106   6.055  0.7750 -0.3352 -0.5404
  143OSM    C1S15667   0.012   2.047   6.304  0.1170  0.4508 -0.0579
  143OSM    H1S15668   0.116   2.008   6.299 -0.9291 -2.3977 -2.4301
  143OSM    H1T15669  -0.046   1.970   6.250 -0.2667  0.1107  0.8301
  143OSM     NF15670  -0.065   1.917   6.499  0.1308 -0.6393  0.5435
  143OSM    HNF15671  -0.150   1.892   6.543  0.5979  0.3324  2.0800
  143OSM    C2S15672  -0.042   2.056   6.447 -0.3376 -0.0402 -0.0021
  143OSM    H2S15673   0.047   2.103   6.495 -0.4871 -0.1568  0.3937
  143OSM    C3S15674  -0.164   2.149   6.471  0.5690 -0.0949 -0.4496
  143OSM    H3S15675  -0.250   2.105   6.418  1.2730 -1.3461 -0.6015
  143OSM     O315676  -0.154   2.291   6.428 -0.1532  0.7492  0.0017
  143OSM    HO315677  -0.075   2.297   6.373  0.8085  1.2105  1.3683
  143OSM    C4S15678  -0.210   2.140   6.620 -0.1224 -0.8798 -0.1500
  143OSM    H4S15679  -0.271   2.049   6.631 -1.7020 -0.3287 -3.2146
  143OSM    C5S15680  -0.183   2.222   6.724  0.0997  0.9680  0.2445
  143OSM    H5S15681  -0.130   2.316   6.702  1.9858 -0.4944 -1.9906
  143OSM    C6S15682  -0.232   2.187   6.859  0.1522 -0.0300 -0.3924
  143OSM    H6S15683  -0.343   2.191   6.861  0.1898  0.9590  0.1658
  143OSM    H6T15684  -0.201   2.267   6.929 -0.8900 -0.3562  0.4707
  143OSM    C7S15685  -0.185   2.051   6.914  0.1015 -0.0446  0.0330
  143OSM    H7S15686  -0.084   2.024   6.875 -1.1134 -2.2874 -1.8943
  143OSM    H7T15687  -0.260   1.976   6.882  1.0734 -1.0890  0.1236
  143OSM    C8S15688  -0.169   2.049   7.069 -0.2917  0.2278 -0.2423
  143OSM    H8S15689  -0.134   1.953   7.114  0.0879 -0.4760 -1.9753
  143OSM    H8T15690  -0.267   2.074   7.116 -0.0439  1.7940 -0.5157
  143OSM    C9S15691  -0.061   2.147   7.120 -0.3266 -0.1627  0.2066
  143OSM    H9S15692  -0.077   2.254   7.096 -1.3063 -0.0491  1.2870
  143OSM    H9T15693   0.036   2.116   7.074 -0.5686  0.7060 -0.9322
  143OSM   C10S15694  -0.046   2.142   7.267 -0.5072 -0.3386 -0.0158
  143OSM   H10S15695  -0.140   2.143   7.326  0.0151 -0.3510  0.8452
  143OSM   H10T15696  -0.004   2.244   7.281 -1.8171  0.1917  0.1580
  143OSM   C11S15697   0.048   2.039   7.314 -0.1507  0.1444 -0.3132
  143OSM   H11S15698   0.145   2.072   7.271 -2.0859  3.0430 -2.8653
  143OSM   H11T15699   0.033   1.943   7.262 -2.2892 -0.1106  0.6661
  143OSM   C12S15700   0.031   2.015   7.466  0.5681 -0.3883  0.2138
  143OSM   H12S15701  -0.076   1.994   7.484  0.5377 -1.2193 -0.8771
  143OSM   H12T15702   0.051   2.109   7.521 -2.4265  0.6519 -0.3081
  143OSM   C13S15703   0.116   1.906   7.521 -1.0134  0.2829  0.5170
  143OSM   H13S15704   0.221   1.914   7.484 -0.5448  0.6993  1.8658
  143OSM   H13T15705   0.073   1.816   7.472  2.4248  0.0751 -2.5712
  143OSM   C14S15706   0.115   1.914   7.681  0.1369 -0.1683  0.2298
  143OSM   H14S15707   0.009   1.931   7.709 -0.1553  2.3455 -1.9451
  143OSM   H14T15708   0.172   2.008   7.693  0.0066  0.0692 -0.8515
  143OSM   C15S15709   0.180   1.783   7.736 -0.3441  0.3374 -0.2052
  143OSM   H15S15710   0.279   1.758   7.692 -0.4886  0.5910 -0.6763
  143OSM   H15T15711   0.128   1.692   7.699  2.5644 -0.9881 -1.3054
  143OSM   C16S15712   0.200   1.799   7.888 -0.0446 -0.1168 -0.5354
  143OSM   H16S15713   0.268   1.886   7.903 -1.7040  1.0526  0.6052
  143OSM   H16T15714   0.249   1.705   7.922  1.3635  0.9535  0.5647
  143OSM   C17S15715   0.066   1.827   7.969  0.3792  0.1493 -0.4476
  143OSM   H17S15716  -0.006   1.751   7.933 -1.7018  2.0097 -0.4776
  143OSM   H17T15717   0.020   1.924   7.939 -1.4492 -0.5699 -0.0590
  143OSM   C18S15718   0.067   1.820   8.121  0.1848 -0.1596 -0.0924
  143OSM   H18S15719   0.152   1.876   8.166  0.5254 -1.9081  1.5828
  143OSM   H18T15720   0.076   1.717   8.162 -1.0573  0.1772  1.1064
  143OSM   H18U15721  -0.018   1.869   8.171  1.0390 -0.8270  2.1379
  143OSM    C1F15722   0.028   1.824   6.494 -1.0494  0.2153 -0.0365
  143OSM     OF15723   0.147   1.850   6.490  0.1606  0.6556 -0.1375
  143OSM    C2F15724  -0.025   1.688   6.499 -0.0587  0.2037  0.2286
  143OSM    H2F15725   0.032   1.628   6.425 -0.0834 -3.6850  3.0339
  143OSM    H2G15726  -0.125   1.683   6.451  0.8663  0.4186 -1.8230
  143OSM    C3F15727  -0.018   1.626   6.639 -0.5086 -0.2051  0.0791
  143OSM    H3F15728   0.089   1.601   6.658 -0.2439 -1.4984 -2.6597
  143OSM    H3G15729  -0.063   1.525   6.641 -1.0256 -0.0084 -0.8757
  143OSM    C4F15730  -0.070   1.697   6.760 -0.2604  0.0449  0.2331
  143OSM    H4F15731  -0.180   1.707   6.760 -0.2697  0.0882 -0.6914
  143OSM    H4G15732  -0.017   1.794   6.768 -1.6062  0.7459  0.9807
  143OSM    C5F15733  -0.045   1.606   6.886 -0.0311  0.3777  0.3943
  143OSM    H5F15734   0.063   1.614   6.914  0.5325 -0.3281 -1.4606
  143OSM    H5G15735  -0.061   1.499   6.862  2.5312  0.0072  0.0472
  143OSM    C6F15736  -0.108   1.653   7.014  0.3595  0.0781 -0.3099
  143OSM    H6F15737  -0.216   1.627   7.011  0.8073 -1.8931 -0.7276
  143OSM    H6G15738  -0.101   1.764   7.016  0.2069  0.0861  0.9060
  143OSM    C7F15739  -0.041   1.592   7.139  0.1898  0.1858  0.1108
  143OSM    H7F15740   0.057   1.641   7.154 -1.2653  2.7087  2.0968
  143OSM    H7G15741  -0.023   1.485   7.115  0.5085  0.2819 -0.0887
  143OSM    C8F15742  -0.126   1.604   7.259  0.5683 -0.1911 -0.2086
  143OSM    H8F15743  -0.222   1.548   7.266  0.3614  0.0507 -1.0680
  143OSM    H8G15744  -0.150   1.712   7.272 -2.6237 -0.9449  1.1350
  143OSM    C9F15745  -0.040   1.583   7.383  0.0564 -0.1865 -0.4104
  143OSM    H9F15746   0.057   1.636   7.382 -0.4979  0.9088  1.2410
  143OSM   C10F15747  -0.070   1.507   7.486 -0.3000  0.5865  0.5645
  143OSM   H10F15748   0.003   1.501   7.568 -0.1570 -0.9591  0.3514
  143OSM   C11F15749  -0.193   1.430   7.507  0.6600  0.5512 -0.2058
  143OSM   H11F15750  -0.214   1.370   7.416  0.9207  0.1647 -0.0104
  143OSM   H11G15751  -0.279   1.499   7.526  1.6133  1.0976  2.5143
  143OSM   C12F15752  -0.171   1.334   7.631 -0.3663 -0.2230  0.0445
  143OSM   H12F15753  -0.068   1.292   7.628 -0.7498 -1.1781 -0.3200
  143OSM   H12G15754  -0.241   1.247   7.629  0.4396 -0.8828 -2.0069
  143OSM   C13F15755  -0.187   1.419   7.763  0.2396  0.0787 -0.4157
  143OSM   H13F15756  -0.293   1.453   7.765 -0.2168 -1.1795 -1.3991
  143OSM   H13G15757  -0.114   1.502   7.759  1.5155 -0.9906 -0.1629
  143OSM   C14F15758  -0.155   1.348   7.893  0.0984  0.7429 -0.5009
  143OSM   H14F15759  -0.052   1.308   7.881 -0.7657 -1.3688 -1.5035
  143OSM   H14G15760  -0.224   1.266   7.922 -0.3282  1.2901  0.0645
  143OSM   C15F15761  -0.163   1.453   8.008  0.0920 -0.0281 -0.3444
  143OSM   H15F15762  -0.263   1.500   7.999  0.5941  1.0691 -0.4016
  143OSM   H15G15763  -0.094   1.540   8.000 -0.1469  0.4238  1.8719
  143OSM   C16F15764  -0.147   1.397   8.150 -0.5834  0.0673  0.4375
  143OSM   H16F15765  -0.046   1.353   8.167  0.3541  1.5199 -0.9995
  143OSM   H16G15766  -0.221   1.315   8.155  0.1779 -0.6707 -0.1147
  143OSM   C17F15767  -0.190   1.497   8.260 -0.2005 -0.2317  0.6404
  143OSM   H17F15768  -0.299   1.505   8.240 -0.0016  0.9087 -0.0768
  143OSM   H17G15769  -0.141   1.593   8.235 -0.1753  0.6042  3.5285
  143OSM   C18F15770  -0.161   1.447   8.401  0.3614  0.4119  0.0749
  143OSM   H18F15771  -0.214   1.354   8.431  0.8379  0.1220  0.0266
  143OSM   H18G15772  -0.191   1.521   8.479 -0.1739 -1.0022  1.2590
  143OSM   H18H15773  -0.053   1.419   8.407  0.7833  1.9753  0.1230
  144OSM      N15774   4.182   2.275   6.224 -0.6174  0.2651  0.1986
  144OSM    C1515775   4.213   2.420   6.181  0.3306  0.3710  0.2085
  144OSM   H15A15776   4.239   2.413   6.077 -1.5367 -0.6149 -0.2480
  144OSM   H15B15777   4.302   2.457   6.230 -0.0981  0.5493  0.8774
  144OSM   H15C15778   4.132   2.492   6.190  1.1455  1.1786  1.3376
  144OSM    C1415779   4.041   2.247   6.235  0.5680 -0.0327  0.0913
  144OSM   H14A15780   3.981   2.280   6.152 -0.1028 -1.6826 -0.1185
  144OSM   H14B15781   3.992   2.300   6.316  0.5617 -0.3680  0.3122
  144OSM   H14C15782   4.032   2.144   6.269  0.9159  0.2265  1.0137
  144OSM    C1315783   4.230   2.180   6.121 -0.4521  0.1370  0.1794
  144OSM   H13A15784   4.196   2.083   6.153 -0.5573 -0.0696 -0.5464
  144OSM   H13B15785   4.337   2.182   6.105 -0.5128 -0.1787 -0.2770
  144OSM   H13C15786   4.176   2.200   6.030  0.5785 -0.3926 -0.5658
  144OSM    C1215787   4.237   2.236   6.359 -0.0168  0.5117  0.0770
  144OSM   H12A15788   4.204   2.315   6.424 -2.9381  0.6247 -1.3909
  144OSM   H12B15789   4.345   2.247   6.353  0.1897 -1.4972 -0.6425
  144OSM    C1115790   4.219   2.083   6.412  0.0367  0.0200  0.1831
  144OSM   H11A15791   4.115   2.058   6.443 -0.3219  1.5573  0.3347
  144OSM   H11B15792   4.282   2.071   6.502  0.1232 -0.7055  0.0322
  144OSM      P15793   4.206   1.861   6.291  0.0409 -0.2473  0.0427
  144OSM    O1315794   4.063   1.882   6.258 -0.9076  0.5476 -0.1979
  144OSM    O1415795   4.296   1.787   6.193  0.1885  0.3992 -0.1243
  144OSM    O1115796   4.211   1.799   6.435  0.0428  0.6106 -0.1083
  144OSM    O1215797   4.273   1.994   6.314 -0.0525  0.0880  0.0033
  144OSM    C1S15798   4.337   1.770   6.491 -1.0566 -0.1914 -0.2637
  144OSM    H1S15799   4.422   1.822   6.443 -1.3187 -0.4023 -0.9757
  144OSM    H1T15800   4.366   1.665   6.467 -1.2654 -0.2336 -0.3335
  144OSM     NF15801   4.454   1.758   6.716 -0.4553 -0.3165  0.2236
  144OSM    HNF15802   4.465   1.692   6.790  2.6976 -0.5713 -0.3133
  144OSM    C2S15803   4.328   1.775   6.644  0.0299  0.0418 -0.7383
  144OSM    H2S15804   4.282   1.873   6.669 -1.3915 -0.8975  0.5277
  144OSM    C3S15805   4.217   1.671   6.696  0.3623 -0.1843  0.0173
  144OSM    H3S15806   4.236   1.564   6.673 -0.2146 -0.0245 -1.2862
  144OSM     O315807   4.090   1.690   6.639  0.3955  0.9705  0.2730
  144OSM    HO315808   4.097   1.742   6.558  1.7835  1.2970  0.5850
  144OSM    C4S15809   4.195   1.690   6.847 -0.4764  1.3400  0.3910
  144OSM    H4S15810   4.152   1.785   6.883 -0.4703  0.9147  1.5451
  144OSM    C5S15811   4.209   1.586   6.935  0.1053 -0.4461 -0.1919
  144OSM    H5S15812   4.245   1.490   6.897  3.5634  0.0578  1.3986
  144OSM    C6S15813   4.194   1.585   7.083 -0.1988 -0.6411  0.0022
  144OSM    H6S15814   4.288   1.533   7.110  2.0924  1.8737 -2.3841
  144OSM    H6T15815   4.104   1.530   7.116 -1.1141  0.0933 -1.1605
  144OSM    C7S15816   4.209   1.721   7.151 -0.9262 -0.2057  0.7271
  144OSM    H7S15817   4.123   1.781   7.112 -0.7227  0.7584  1.7305
  144OSM    H7T15818   4.308   1.758   7.117 -0.0728 -1.4825  1.7442
  144OSM    C8S15819   4.217   1.717   7.305 -0.3346 -0.3122  0.2908
  144OSM    H8S15820   4.277   1.625   7.321 -0.8331 -0.9523 -1.3078
  144OSM    H8T15821   4.119   1.686   7.348  0.7420 -0.3965  2.8417
  144OSM    C9S15822   4.287   1.831   7.381 -0.2766 -0.4735 -0.1798
  144OSM    H9S15823   4.228   1.923   7.362 -0.0127 -0.0293  1.0661
  144OSM    H9T15824   4.396   1.831   7.358 -0.1906  0.8697  0.1405
  144OSM   C10S15825   4.294   1.805   7.532 -0.2425  0.4146 -0.4852
  144OSM   H10S15826   4.347   1.710   7.554  0.0784  0.2009 -2.0304
  144OSM   H10T15827   4.198   1.796   7.586  0.2834 -0.9643  0.2462
  144OSM   C11S15828   4.373   1.921   7.607  0.5733 -0.2248 -0.0048
  144OSM   H11S15829   4.295   2.000   7.619  0.0250 -0.6418 -0.7250
  144OSM   H11T15830   4.456   1.969   7.551 -0.2772  1.5085  0.1740
  144OSM   C12S15831   4.435   1.872   7.734 -0.7517  0.2812  0.3135
  144OSM   H12S15832   4.477   1.964   7.780 -2.3404  0.4442  1.5164
  144OSM   H12T15833   4.519   1.800   7.726  0.0673  1.1028  1.1884
  144OSM   C13S15834   4.335   1.838   7.844  0.6708 -0.2325 -0.4048
  144OSM   H13S15835   4.290   1.738   7.823  1.4980  0.0408 -3.9446
  144OSM   H13T15836   4.250   1.909   7.848  0.3396 -0.6286 -0.3212
  144OSM   C14S15837   4.385   1.844   7.991  0.8520  0.4558  0.4295
  144OSM   H14S15838   4.488   1.802   7.996  0.6253 -0.2875 -0.7014
  144OSM   H14T15839   4.304   1.788   8.043 -0.1617  0.9377 -0.5959
  144OSM   C15S15840   4.396   1.990   8.048 -0.0413  0.8272  0.3689
  144OSM   H15S15841   4.295   2.038   8.049 -0.0882  0.7522 -0.3069
  144OSM   H15T15842   4.455   2.056   7.981  0.4654 -0.8181 -0.8838
  144OSM   C16S15843   4.468   1.995   8.181 -0.3474 -0.4510 -0.2374
  144OSM   H16S15844   4.578   1.996   8.170 -0.0745  3.3949  1.3346
  144OSM   H16T15845   4.444   1.912   8.252 -1.1984  0.3837  0.4849
  144OSM   C17S15846   4.448   2.134   8.254 -0.7010 -0.1035 -0.2351
  144OSM   H17S15847   4.340   2.123   8.277 -0.9829 -3.4235 -2.5036
  144OSM   H17T15848   4.471   2.211   8.177  1.8630 -0.7517 -0.2362
  144OSM   C18S15849   4.543   2.156   8.381 -0.1471  0.0677 -0.7263
  144OSM   H18S15850   4.547   2.077   8.459 -0.2968  3.3249  2.9267
  144OSM   H18T15851   4.511   2.237   8.450  1.6516  0.6431 -0.5224
  144OSM   H18U15852   4.651   2.174   8.362  0.1466 -0.8053  0.0145
  144OSM    C1F15853   4.551   1.848   6.713  0.3568  0.0383  0.1359
  144OSM     OF15854   4.527   1.957   6.668 -0.5588 -0.1287  0.4507
  144OSM    C2F15855   4.679   1.822   6.792 -0.5194  0.4471  0.2889
  144OSM    H2F15856   4.758   1.872   6.732 -0.4110 -2.8108 -2.5464
  144OSM    H2G15857   4.705   1.714   6.787 -1.9328  0.1340 -0.9717
  144OSM    C3F15858   4.660   1.873   6.934 -0.2218 -0.4932  0.0121
  144OSM    H3F15859   4.563   1.831   6.968 -1.5528  3.1313  1.2281
  144OSM    H3G15860   4.639   1.982   6.931 -1.6436 -0.7648 -2.6283
  144OSM    C4F15861   4.779   1.841   7.022 -0.1563 -0.4026  0.0411
  144OSM    H4F15862   4.856   1.921   7.013 -0.2989  0.0721  2.3540
  144OSM    H4G15863   4.818   1.742   6.993  2.8373  0.8833 -0.7065
  144OSM    C5F15864   4.743   1.853   7.172 -0.4130 -0.1888 -0.1432
  144OSM    H5F15865   4.839   1.838   7.225 -0.7164 -0.5342  0.3226
  144OSM    H5G15866   4.667   1.776   7.200 -1.0612 -0.0063 -1.3310
  144OSM    C6F15867   4.683   1.983   7.210  0.5322  0.4429 -0.5855
  144OSM    H6F15868   4.584   1.976   7.160  0.3082 -1.6702  0.0836
  144OSM    H6G15869   4.729   2.073   7.163  0.2421  0.3540 -1.0457
  144OSM    C7F15870   4.662   2.001   7.356 -0.9869 -0.0493  0.2060
  144OSM    H7F15871   4.636   1.900   7.394  0.2568 -1.9337 -3.4364
  144OSM    H7G15872   4.587   2.071   7.401 -0.0528  1.8522 -1.0594
  144OSM    C8F15873   4.797   2.028   7.424 -0.3497  0.0882  0.4444
  144OSM    H8F15874   4.882   1.981   7.370 -1.2192  0.1426 -1.0085
  144OSM    H8G15875   4.791   1.984   7.526  0.0577  2.8702  1.7640
  144OSM    C9F15876   4.814   2.176   7.426  0.5342  0.6827  0.1959
  144OSM    H9F15877   4.794   2.241   7.339 -0.6267  0.9193  0.6218
  144OSM   C10F15878   4.834   2.253   7.540 -0.5216  0.2477 -0.2820
  144OSM   H10F15879   4.865   2.358   7.527 -2.7473  1.2963  2.0060
  144OSM   C11F15880   4.841   2.201   7.687 -0.1520 -0.7276 -0.3685
  144OSM   H11F15881   4.930   2.238   7.743 -1.8634  0.0421  1.9928
  144OSM   H11G15882   4.828   2.093   7.707  0.7836 -0.3987  2.4002
  144OSM   C12F15883   4.715   2.241   7.764  0.3646 -0.3936  0.0897
  144OSM   H12F15884   4.625   2.205   7.708  0.4489 -0.3967 -0.0460
  144OSM   H12G15885   4.718   2.352   7.757 -0.3733 -0.3516  0.3577
  144OSM   C13F15886   4.713   2.207   7.919  0.3747 -0.5864  0.4043
  144OSM   H13F15887   4.726   2.097   7.928  2.2292 -0.5431 -1.1635
  144OSM   H13G15888   4.614   2.240   7.958  0.7503  0.1242  0.7956
  144OSM   C14F15889   4.827   2.270   7.990  0.0896 -0.6268 -0.0685
  144OSM   H14F15890   4.830   2.377   7.964  0.8701 -0.7617 -0.5838
  144OSM   H14G15891   4.925   2.229   7.956 -0.3900 -2.5195  0.6803
  144OSM   C15F15892   4.826   2.248   8.140  0.2631 -0.1006 -0.5249
  144OSM   H15F15893   4.831   2.137   8.138 -2.7778 -0.3259 -2.0730
  144OSM   H15G15894   4.725   2.275   8.178  0.3425 -1.5240  0.8105
  144OSM   C16F15895   4.937   2.320   8.217  0.0378  0.2126  0.4528
  144OSM   H16F15896   4.959   2.413   8.161 -0.9975 -0.0934 -0.5077
  144OSM   H16G15897   5.032   2.263   8.216 -0.9737 -1.7735  3.5405
  144OSM   C17F15898   4.911   2.369   8.364 -0.2999 -0.1924 -0.2518
  144OSM   H17F15899   4.881   2.293   8.439  1.2832  0.5347  1.1756
  144OSM   H17G15900   4.839   2.454   8.360  0.8154  0.7272 -2.0888
  144OSM   C18F15901   5.040   2.431   8.427  0.5606 -0.2375 -0.3065
  144OSM   H18F15902   5.079   2.514   8.364  2.3566  0.7669  1.9875
  144OSM   H18G15903   5.113   2.361   8.473 -0.7092 -1.4237 -0.0294
  144OSM   H18H15904   4.998   2.488   8.511 -0.3114 -0.4076 -0.6179
  145SAPE     N15905   4.732   3.231  10.878 -0.1835  0.7167 -0.1441
  145SAPE   HN115906   4.717   3.305  10.807 -1.3069  0.0934 -0.5862
  145SAPE   HN215907   4.807   3.174  10.834 -0.7299 -0.3416  0.2709
  145SAPE   HN315908   4.649   3.169  10.882  0.8038 -0.7906 -1.4941
  145SAPE   C1215909   4.770   3.288  11.009 -0.0722  0.6322  0.4289
  145SAPE  H12A15910   4.818   3.206  11.066  0.9458  2.5590  2.4931
  145SAPE  H12B15911   4.680   3.326  11.061 -1.0512  2.6572 -2.4943
  145SAPE   C1115912   4.877   3.393  10.980  0.2084  0.3151 -0.1339
  145SAPE  H11A15913   4.896   3.437  11.080  1.1501 -1.7665  0.6799
  145SAPE  H11B15914   4.853   3.474  10.908 -0.0007  0.8444  0.5153
  145SAPE     P15915   5.113   3.406  10.879  0.0657  0.3080  0.1388
  145SAPE   O1315916   5.152   3.520  10.965  0.1341 -0.5861  0.7778
  145SAPE   O1415917   5.218   3.308  10.846  0.2574 -0.0130 -0.6621
  145SAPE   O1215918   4.996   3.324  10.939  0.2321 -0.0137  0.2659
  145SAPE   O1115919   5.059   3.468  10.738  0.0061 -0.1823 -0.0335
  145SAPE    C115920   5.006   3.376  10.633  0.0634  0.8819 -0.4977
  145SAPE    HA15921   4.971   3.282  10.679  2.5001 -0.1793 -0.6438
  145SAPE    HB15922   4.931   3.425  10.567  0.5085 -0.6154 -2.1821
  145SAPE    C215923   5.119   3.340  10.537 -0.0051 -0.9491  0.1016
  145SAPE    HS15924   5.203   3.290  10.590  0.7094  0.3950  0.2712
  145SAPE   O2115925   5.161   3.464  10.478 -0.7731 -0.1506  0.2375
  145SAPE   C2115926   5.296   3.477  10.451  0.5091 -0.2855 -0.2788
  145SAPE   O2215927   5.383   3.415  10.505 -1.3553  0.1192 -1.0094
  145SAPE   C2215928   5.314   3.600  10.360 -0.0195 -0.6281 -0.0197
  145SAPE   H2R15929   5.351   3.681  10.426  3.1827  0.5045 -2.8986
  145SAPE   H2S15930   5.399   3.586  10.290 -0.2089 -0.0155 -0.3722
  145SAPE    C315931   5.080   3.231  10.428 -0.0201  0.3547 -0.0171
  145SAPE    HX15932   5.046   3.137  10.476 -0.2806  0.1631 -0.5590
  145SAPE    HY15933   5.178   3.205  10.382  0.2624  1.8909 -0.3371
  145SAPE   O3115934   4.989   3.288  10.331  0.2435  0.6784  0.2872
  145SAPE   C3115935   4.973   3.209  10.221  0.4096 -0.2612 -0.2199
  145SAPE   O3215936   5.017   3.098  10.211  0.0629  0.4339 -0.3287
  145SAPE   C3215937   4.912   3.287  10.108 -0.6550 -0.3938  0.3458
  145SAPE   H2X15938   4.948   3.391  10.118  0.1632 -0.6324 -0.0603
  145SAPE   H2Y15939   4.802   3.293  10.121 -0.6455  2.3529 -0.2537
  145SAPE   C2315940   5.188   3.641  10.283 -0.2922  0.3063 -0.6850
  145SAPE   H3R15941   5.179   3.750  10.266  0.1722  0.1677 -1.9156
  145SAPE   H3S15942   5.094   3.628  10.340 -0.7515 -0.3675 -1.5737
  145SAPE   C2415943   5.179   3.563  10.144  0.6523  0.6069 -0.6956
  145SAPE   H4R15944   5.140   3.460  10.161 -2.9594  1.9883  0.3665
  145SAPE   H4S15945   5.283   3.551  10.106  0.9386  0.3694  0.1447
  145SAPE   C2515946   5.093   3.632  10.047 -0.0737 -0.0599 -0.6220
  145SAPE   H5R15947   4.996   3.654  10.096 -0.2922 -2.0503 -0.0740
  145SAPE   C2615948   5.106   3.668   9.917  0.8505 -0.3253 -0.3457
  145SAPE   H6R15949   5.030   3.735   9.873 -0.4378 -0.6534  1.2668
  145SAPE   C2715950   5.233   3.642   9.838  0.3645  0.1154 -0.1738
  145SAPE   H7R15951   5.319   3.631   9.908 -1.5624 -2.9687  2.0130
  145SAPE   H7S15952   5.239   3.728   9.768 -0.2749 -1.2925 -2.0607
  145SAPE   C2815953   5.235   3.519   9.758 -0.0173 -0.5363 -0.8072
  145SAPE   H8R15954   5.194   3.429   9.807 -1.2666  0.5639  0.2485
  145SAPE   C2915955   5.310   3.503   9.649  0.3622  0.1654 -0.2100
  145SAPE   H9R15956   5.303   3.404   9.600 -1.9451 -0.7725  1.7873
  145SAPE  C21015957   5.400   3.605   9.587  0.3948 -0.6289  0.1596
  145SAPE  H10R15958   5.496   3.551   9.577  0.2130 -0.7574 -1.1413
  145SAPE  H10S15959   5.416   3.687   9.660 -2.4196  1.3176 -1.2043
  145SAPE  C21115960   5.338   3.649   9.454  0.0264 -0.9780  0.1600
  145SAPE  H11R15961   5.230   3.635   9.442  0.2024 -2.1614 -0.1505
  145SAPE  C21215962   5.395   3.689   9.345 -0.4809  0.2371  0.5393
  145SAPE  H12R15963   5.337   3.711   9.255 -2.3855 -1.0195  1.3920
  145SAPE  C21315964   5.541   3.705   9.337  0.7069  0.0096  0.1390
  145SAPE  H13R15965   5.591   3.608   9.314  1.6518  0.8020 -1.3370
  145SAPE  H13S15966   5.585   3.738   9.433  1.3921  0.9238 -0.4668
  145SAPE  C21415967   5.590   3.806   9.233  0.6476  0.1777 -1.1188
  145SAPE  H14R15968   5.507   3.864   9.191 -0.6190 -0.6980  0.0644
  145SAPE  C21515969   5.711   3.830   9.188 -0.5570  0.3767  0.0089
  145SAPE  H15R15970   5.715   3.901   9.104  0.5845  1.3051  0.8195
  145SAPE  C21615971   5.839   3.752   9.230  0.3307  0.3128  0.0229
  145SAPE  H16R15972   5.808   3.645   9.240 -1.8579  0.6688 -2.1172
  145SAPE  H16S15973   5.882   3.795   9.323  3.3040  1.7153 -1.8505
  145SAPE  C21715974   5.956   3.747   9.125  0.1744  0.1418 -0.4480
  145SAPE  H17R15975   5.930   3.671   9.049 -1.8446  0.7998 -0.4526
  145SAPE  H17S15976   6.047   3.708   9.177 -1.3160 -1.3367  1.2027
  145SAPE  C21815977   5.993   3.885   9.070 -0.2987  0.3925 -0.0003
  145SAPE  H18R15978   5.919   3.923   8.996  1.7887  1.3160 -1.7124
  145SAPE  H18S15979   6.086   3.867   9.013  0.0552  0.7197  0.4725
  145SAPE  C21915980   6.032   3.985   9.178  0.0102 -0.1254  0.3034
  145SAPE  H19R15981   6.100   3.935   9.251 -0.4008  1.0802  1.5668
  145SAPE  H19S15982   5.941   4.021   9.232  0.3767  1.8831 -0.3143
  145SAPE  C22015983   6.100   4.112   9.125  0.2635 -0.5265  0.1985
  145SAPE  H20R15984   6.200   4.086   9.085  0.9427  1.2159  0.6608
  145SAPE  H20S15985   6.115   4.186   9.207 -0.6767 -1.3215  1.1171
  145SAPE  H20T15986   6.042   4.168   9.049  0.1423 -1.0621 -0.1034
  145SAPE   C3315987   4.945   3.231   9.966  0.0675  0.1518  0.1311
  145SAPE   H3X15988   4.903   3.128   9.963  0.0342  0.1989 -2.2655
  145SAPE   H3Y15989   5.053   3.215   9.946  0.3196  2.4633 -0.5769
  145SAPE   C3415990   4.899   3.323   9.855 -0.3486 -0.2279  0.2447
  145SAPE   H4X15991   4.952   3.421   9.850  0.3151 -0.6325 -1.5193
  145SAPE   H4Y15992   4.789   3.338   9.857 -0.4694 -0.4775 -1.8977
  145SAPE   C3515993   4.932   3.248   9.732 -0.7725  0.3419  0.7755
  145SAPE   H5X15994   4.875   3.155   9.709 -0.9426  0.8856 -1.2119
  145SAPE   H5Y15995   5.038   3.215   9.741  0.0828  1.7856 -2.4430
  145SAPE   C3615996   4.943   3.337   9.602 -0.3321  0.1059 -0.3315
  145SAPE   H6X15997   4.997   3.434   9.603 -1.1855  0.6398 -2.0436
  145SAPE   H6Y15998   4.836   3.363   9.592 -0.3319  1.2240  1.9878
  145SAPE   C3715999   4.987   3.260   9.473 -0.3076  0.3846  0.0628
  145SAPE   H7X16000   4.917   3.179   9.445  0.8563  0.1892 -2.4933
  145SAPE   H7Y16001   5.086   3.212   9.486 -0.3134  0.4325  0.2998
  145SAPE   C3816002   4.998   3.357   9.356  0.4125 -0.3216 -0.6664
  145SAPE   H8X16003   5.076   3.427   9.394  0.0594 -0.7608  0.9549
  145SAPE   H8Y16004   4.902   3.414   9.351 -0.5821 -1.5989  2.0112
  145SAPE   C3916005   5.054   3.298   9.236  0.4328  0.9373 -0.6125
  145SAPE   H9X16006   4.995   3.208   9.205 -1.6560  1.5761  1.2116
  145SAPE   H9Y16007   5.155   3.268   9.270  0.5247 -0.8304 -2.2383
  145SAPE  C31016008   5.062   3.404   9.125  0.1395  0.9729  0.1688
  145SAPE  H10X16009   5.082   3.506   9.165  2.5596  0.9479 -0.8243
  145SAPE  H10Y16010   4.969   3.417   9.066  0.1520  0.7806  0.1073
  145SAPE  C31116011   5.186   3.398   9.033 -0.4968 -0.1410  0.4258
  145SAPE  H11X16012   5.194   3.293   8.997 -0.0108  0.2353 -0.6060
  145SAPE  H11Y16013   5.274   3.431   9.092 -0.4023 -0.0133  0.2163
  145SAPE  C31216014   5.181   3.479   8.904  0.4394  0.0344  0.3972
  145SAPE  H12X16015   5.084   3.447   8.862 -0.7300  0.7979  2.3768
  145SAPE  H12Y16016   5.271   3.447   8.847  0.1175 -0.7540  0.3290
  145SAPE  C31316017   5.168   3.636   8.905  0.3819  0.3491 -0.7076
  145SAPE  H13X16018   5.083   3.653   8.975  0.3615 -2.0091 -0.0817
  145SAPE  H13Y16019   5.134   3.665   8.803  1.3655 -2.5060 -1.9580
  145SAPE  C31416020   5.293   3.701   8.959  0.5314  0.3489 -0.0043
  145SAPE  H14X16021   5.372   3.686   8.882  1.1062  0.0805  0.6206
  145SAPE  H14Y16022   5.314   3.646   9.054  0.5448 -0.7802 -0.6499
  145SAPE  C31516023   5.275   3.845   8.985  0.2209 -0.3157 -0.4830
  145SAPE  H15X16024   5.368   3.877   9.035  0.4792  1.4923 -1.9995
  145SAPE  H15Y16025   5.184   3.870   9.044  0.7840 -0.2235  0.3637
  145SAPE  C31616026   5.259   3.920   8.850 -0.2513  0.2112  0.6130
  145SAPE  H16X16027   5.184   3.878   8.780  0.8940  0.5082 -0.8292
  145SAPE  H16Y16028   5.351   3.902   8.790 -0.4617  1.7954 -0.2356
  145SAPE  C31716029   5.251   4.075   8.848  0.3131 -0.2962  0.6466
  145SAPE  H17X16030   5.340   4.114   8.902  0.1654 -0.2374  0.8505
  145SAPE  H17Y16031   5.169   4.103   8.918 -0.1796 -2.2502  0.9227
  145SAPE  C31816032   5.237   4.130   8.704  0.0999  0.1204 -0.4109
  145SAPE  H18X16033   5.146   4.090   8.653 -0.3290  2.2795 -1.4270
  145SAPE  H18Y16034   5.323   4.090   8.647 -0.2570 -0.5008 -0.5320
  145SAPE  H18Z16035   5.238   4.240   8.693 -0.5799 -0.0906 -3.2490
  146SAPE     N16036   5.366   3.091  10.811  0.5289 -0.4191 -0.5304
  146SAPE   HN116037   5.415   3.121  10.724 -1.2988  1.5276 -0.9654
  146SAPE   HN216038   5.279   3.147  10.823 -0.3569 -1.8682  0.0589
  146SAPE   HN316039   5.423   3.116  10.894 -0.0638 -1.2222  0.1304
  146SAPE   C1216040   5.325   2.950  10.812  0.6326  0.2121  0.8229
  146SAPE  H12A16041   5.274   2.916  10.905 -1.2950 -1.0752 -0.6268
  146SAPE  H12B16042   5.421   2.895  10.805  0.0809 -0.8193  1.0973
  146SAPE   C1116043   5.234   2.931  10.690  0.4983 -0.8700  0.2773
  146SAPE  H11A16044   5.210   2.823  10.680 -0.4622 -0.5676 -0.8495
  146SAPE  H11B16045   5.286   2.959  10.596  1.9458 -2.4780  0.5240
  146SAPE     P16046   4.979   2.947  10.746 -0.2208  0.2316  0.1431
  146SAPE   O1316047   5.004   2.893  10.881 -0.5540  0.5863  0.0692
  146SAPE   O1416048   4.870   3.045  10.722 -0.0763 -0.2765  0.0985
  146SAPE   O1216049   5.118   3.005  10.695 -0.0059  0.4682 -0.1082
  146SAPE   O1116050   4.958   2.825  10.651 -0.9228  0.0139 -0.0710
  146SAPE    C116051   4.912   2.843  10.514  0.3178  0.2101  0.2584
  146SAPE    HA16052   4.804   2.819  10.510  0.2371  0.3910 -5.1777
  146SAPE    HB16053   4.924   2.948  10.480  2.4458 -0.8328 -2.5499
  146SAPE    C216054   4.976   2.749  10.414  0.0279 -0.7283 -0.5010
  146SAPE    HS16055   4.934   2.766  10.313  1.2291 -1.8589 -1.2142
  146SAPE   O2116056   4.974   2.618  10.465 -0.1122  0.1488  0.2228
  146SAPE   C2116057   4.974   2.523  10.372  0.5010  0.6576 -1.0476
  146SAPE   O2216058   4.965   2.543  10.253  0.0051  0.3462 -0.5730
  146SAPE   C2216059   4.998   2.384  10.447 -0.1455 -0.4304  0.0533
  146SAPE   H2R16060   5.067   2.400  10.533 -0.0220  1.2543 -0.3358
  146SAPE   H2S16061   4.897   2.364  10.490 -0.7613  2.4547  0.1515
  146SAPE    C316062   5.120   2.794  10.406 -0.5811  0.2686 -0.3621
  146SAPE    HX16063   5.167   2.748  10.495  0.1121 -1.7592 -1.7181
  146SAPE    HY16064   5.131   2.904  10.421 -1.2631  0.5246 -1.6004
  146SAPE   O3116065   5.172   2.770  10.269 -0.3308 -0.5608 -0.1060
  146SAPE   C3116066   5.261   2.673  10.252  0.7235  0.2052  0.4216
  146SAPE   O3216067   5.315   2.612  10.344  0.1323  0.0461 -0.2579
  146SAPE   C3216068   5.301   2.667  10.102 -0.0482  0.4232  0.0254
  146SAPE   H2X16069   5.360   2.575  10.084  0.2153  0.5004  0.4883
  146SAPE   H2Y16070   5.374   2.749  10.082  1.0417 -0.0866  1.6676
  146SAPE   C2316071   5.046   2.279  10.346 -0.0433 -0.0999 -1.1622
  146SAPE   H3R16072   5.081   2.202  10.418 -0.1853  0.2961 -0.6641
  146SAPE   H3S16073   5.133   2.308  10.283  1.3640  0.7497  1.0819
  146SAPE   C2416074   4.926   2.223  10.266 -0.5389  0.2057 -1.0726
  146SAPE   H4R16075   4.883   2.307  10.207  0.7147  1.9737  0.3859
  146SAPE   H4S16076   4.836   2.202  10.326 -1.0667  2.0482 -1.1483
  146SAPE   C2516077   4.973   2.095  10.199 -0.6671 -0.1193 -0.6075
  146SAPE   H5R16078   4.952   2.000  10.250 -2.0934 -0.1239 -1.1457
  146SAPE   C2616079   5.025   2.086  10.075  0.1458  0.0333 -0.0319
  146SAPE   H6R16080   5.065   1.994  10.030 -0.2412 -0.0804 -0.1456
  146SAPE   C2716081   5.043   2.207   9.989 -0.1575 -0.5916  0.1117
  146SAPE   H7R16082   5.103   2.281  10.046 -0.3009 -1.3107  1.2122
  146SAPE   H7S16083   4.943   2.250   9.970  0.6290  0.4665 -2.0615
  146SAPE   C2816084   5.120   2.176   9.861 -0.1164  0.2639 -0.1371
  146SAPE   H8R16085   5.229   2.183   9.868 -0.1811  0.5467  0.5997
  146SAPE   C2916086   5.065   2.133   9.746  0.7746 -0.4484  0.1935
  146SAPE   H9R16087   5.128   2.120   9.656  0.4324  1.2854 -0.3181
  146SAPE  C21016088   4.919   2.108   9.712  0.3060  0.1504 -0.0865
  146SAPE  H10R16089   4.853   2.197   9.723 -1.7160 -1.1379 -1.0299
  146SAPE  H10S16090   4.867   2.047   9.789 -1.7383 -0.3114 -1.7156
  146SAPE  C21116091   4.888   2.044   9.579  0.1329  0.0152  0.7889
  146SAPE  H11R16092   4.848   1.942   9.588  0.9995 -0.4616 -0.4576
  146SAPE  C21216093   4.900   2.111   9.461 -0.0605 -0.3461  0.0591
  146SAPE  H12R16094   4.866   2.062   9.368  1.8662 -0.6329 -0.5393
  146SAPE  C21316095   4.963   2.245   9.430  1.3381 -0.2115  0.0519
  146SAPE  H13R16096   4.975   2.308   9.521 -0.3019  0.6448 -0.2705
  146SAPE  H13S16097   4.892   2.304   9.367 -1.2709 -2.2562  0.8779
  146SAPE  C21416098   5.093   2.220   9.362 -0.4454  0.6073 -0.0782
  146SAPE  H14R16099   5.169   2.155   9.407 -1.4122 -0.1879  0.4332
  146SAPE  C21516100   5.129   2.276   9.245  0.6889 -0.7183 -0.7460
  146SAPE  H15R16101   5.220   2.231   9.203  0.8086 -2.2386  1.0075
  146SAPE  C21616102   5.057   2.387   9.165 -0.5433  0.5794  0.2223
  146SAPE  H16R16103   5.123   2.469   9.200 -1.1854  2.1388 -2.0171
  146SAPE  H16S16104   4.968   2.427   9.217  1.5865  3.5399  1.9051
  146SAPE  C21716105   5.053   2.377   9.014 -0.0907 -0.9782 -0.1917
  146SAPE  H17R16106   5.154   2.372   8.968 -0.9463  0.5061 -2.3968
  146SAPE  H17S16107   5.009   2.469   8.971  1.0409 -1.0776 -1.6709
  146SAPE  C21816108   4.969   2.257   8.953 -0.0172  0.4153  0.5692
  146SAPE  H18R16109   4.861   2.282   8.959 -0.4361 -1.3211  0.5881
  146SAPE  H18S16110   4.987   2.166   9.014  1.9876 -0.4341 -1.1549
  146SAPE  C21916111   4.993   2.216   8.810  0.3756  0.3547 -0.1349
  146SAPE  H19R16112   4.973   2.305   8.746  0.4885 -0.1381 -0.8724
  146SAPE  H19S16113   4.924   2.140   8.769 -0.5237  1.3020 -0.4156
  146SAPE  C22016114   5.139   2.176   8.798 -0.3544  0.5677  0.0341
  146SAPE  H20R16115   5.175   2.088   8.855  1.3797  0.4207 -1.2145
  146SAPE  H20S16116   5.203   2.266   8.811 -0.4194  0.3679  2.0673
  146SAPE  H20T16117   5.154   2.129   8.698 -0.1012  0.5499  0.0807
  146SAPE   C3316118   5.187   2.660   9.991 -0.7086  0.3390  0.0301
  146SAPE   H3X16119   5.128   2.753  10.005  0.4524  1.4690 -2.0684
  146SAPE   H3Y16120   5.112   2.578  10.003 -1.2925  0.7949 -0.4407
  146SAPE   C3416121   5.242   2.664   9.850  0.1472  0.2639 -0.0533
  146SAPE   H4X16122   5.316   2.581   9.854 -0.7231 -0.4981  0.5967
  146SAPE   H4Y16123   5.287   2.762   9.825 -1.3810  0.6802 -1.3229
  146SAPE   C3516124   5.140   2.594   9.760  0.0504  0.5934  0.6041
  146SAPE   H5X16125   5.040   2.642   9.769 -0.1111  0.5735 -0.8314
  146SAPE   H5Y16126   5.129   2.488   9.790  2.2733 -1.2747 -4.2341
  146SAPE   C3616127   5.180   2.611   9.609 -0.2067  0.2622 -0.6779
  146SAPE   H6X16128   5.123   2.535   9.551 -0.8931 -0.2553  0.6187
  146SAPE   H6Y16129   5.288   2.586   9.613  0.1688  1.9356  0.9503
  146SAPE   C3716130   5.164   2.744   9.536  0.0120 -0.3259  0.5918
  146SAPE   H7X16131   5.195   2.836   9.590  1.9605 -0.5167 -0.1322
  146SAPE   H7Y16132   5.055   2.763   9.525  0.2908  0.7308 -0.5149
  146SAPE   C3816133   5.217   2.759   9.393 -0.2172  0.4089  0.0414
  146SAPE   H8X16134   5.206   2.657   9.349 -0.9661 -0.6532  2.5103
  146SAPE   H8Y16135   5.326   2.774   9.408 -0.1231 -0.8248  0.7333
  146SAPE   C3916136   5.145   2.874   9.322 -0.2213  0.2102 -0.9756
  146SAPE   H9X16137   5.156   2.956   9.396 -1.1077 -0.2996 -0.2539
  146SAPE   H9Y16138   5.035   2.858   9.319 -0.1737 -0.0841 -1.2698
  146SAPE  C31016139   5.208   2.914   9.190  0.2675 -0.0493  0.0945
  146SAPE  H10X16140   5.317   2.921   9.212 -0.1475  0.0283  2.4503
  146SAPE  H10Y16141   5.162   3.013   9.169 -0.1063  0.2257  1.9813
  146SAPE  C31116142   5.169   2.814   9.080  0.4942 -0.5827 -0.2763
  146SAPE  H11X16143   5.060   2.802   9.068  0.4136 -0.0115 -0.1211
  146SAPE  H11Y16144   5.209   2.714   9.109 -1.4257 -1.0881  0.7375
  146SAPE  C31216145   5.226   2.851   8.943  0.7486  0.0712  0.4125
  146SAPE  H12X16146   5.205   2.758   8.884  0.8192 -0.8290  1.7524
  146SAPE  H12Y16147   5.336   2.864   8.948  1.0242 -0.2683 -2.8110
  146SAPE  C31316148   5.154   2.970   8.876 -0.2579  0.5235  1.3663
  146SAPE  H13X16149   5.171   3.048   8.953  1.1667  0.1923  1.4145
  146SAPE  H13Y16150   5.045   2.954   8.878  0.0372 -1.6848  2.5163
  146SAPE  C31416151   5.213   3.017   8.740 -0.0912 -0.7136  0.0014
  146SAPE  H14X16152   5.133   3.081   8.697 -1.4664 -0.7683  2.2844
  146SAPE  H14Y16153   5.208   2.925   8.678 -1.0293  0.5718 -1.9169
  146SAPE  C31516154   5.345   3.088   8.741  0.7468  0.0438 -0.2684
  146SAPE  H15X16155   5.422   3.033   8.799 -0.4174 -0.4332  0.8665
  146SAPE  H15Y16156   5.332   3.186   8.792 -1.9401  0.3554 -1.4104
  146SAPE  C31616157   5.393   3.093   8.593  1.4441  0.1423 -0.5398
  146SAPE  H16X16158   5.320   3.158   8.540  1.2852 -0.6459 -1.3161
  146SAPE  H16Y16159   5.381   2.994   8.544 -0.0338 -0.1150  0.2753
  146SAPE  C31716160   5.529   3.139   8.575  0.1110 -0.5481  0.6000
  146SAPE  H17X16161   5.588   3.075   8.644 -0.5608  0.6806  2.3727
  146SAPE  H17Y16162   5.542   3.248   8.594 -0.3408 -0.0028 -1.8858
  146SAPE  C31816163   5.573   3.128   8.436  0.1497  0.0440  0.0468
  146SAPE  H18X16164   5.553   3.022   8.408  1.0691 -0.6238  1.7338
  146SAPE  H18Y16165   5.683   3.126   8.423 -0.1058  1.0310 -3.0122
  146SAPE  H18Z16166   5.529   3.207   8.372 -2.8209  0.8728  2.8660
  147SAPE     N16167   1.812   6.090  10.895 -0.1553 -0.6402 -0.0594
  147SAPE   HN116168   1.876   6.162  10.933 -0.9125  0.0966 -0.1570
  147SAPE   HN216169   1.715   6.125  10.887 -0.3309 -0.8986  0.8701
  147SAPE   HN316170   1.812   6.011  10.962 -0.0514  0.8857  1.8097
  147SAPE   C1216171   1.863   6.053  10.761  0.0661 -0.3988  0.2659
  147SAPE  H12A16172   1.971   6.079  10.761  0.1292 -0.6275 -0.7007
  147SAPE  H12B16173   1.826   6.136  10.697  1.5415  0.4484  0.4776
  147SAPE   C1116174   1.819   5.921  10.711 -0.3152  0.7215  0.8967
  147SAPE  H11A16175   1.854   5.892  10.609  0.7718  0.7561  1.2438
  147SAPE  H11B16176   1.708   5.925  10.711 -0.4380 -1.4416  0.2046
  147SAPE     P16177   1.998   5.758  10.828 -0.4529 -0.3304  0.6547
  147SAPE   O1316178   2.102   5.860  10.815 -0.1827 -0.0657  0.1188
  147SAPE   O1416179   2.004   5.682  10.957 -0.2366 -0.4371  0.1352
  147SAPE   O1216180   1.853   5.820  10.802  0.0748 -0.0226 -0.0088
  147SAPE   O1116181   2.007   5.666  10.696  0.1164  0.0665 -0.3614
  147SAPE    C116182   1.924   5.549  10.694 -0.1623 -0.1745 -0.0474
  147SAPE    HA16183   1.987   5.458  10.687 -0.8727 -0.5658 -1.7954
  147SAPE    HB16184   1.856   5.536  10.781 -0.9613 -1.3147 -0.8209
  147SAPE    C216185   1.834   5.534  10.567  0.7687 -0.4524  0.3989
  147SAPE    HS16186   1.794   5.430  10.562 -1.8959  0.5069 -0.2604
  147SAPE   O2116187   1.900   5.578  10.447  0.3662  0.3368 -0.4377
  147SAPE   C2116188   1.994   5.486  10.414  0.0272 -1.0833  0.1889
  147SAPE   O2216189   2.028   5.387  10.468  0.5286  0.2938 -0.2873
  147SAPE   C2216190   2.039   5.531  10.273 -0.0747  0.1895 -0.4394
  147SAPE   H2R16191   1.950   5.532  10.206 -0.1741  1.2051 -0.3024
  147SAPE   H2S16192   2.066   5.638  10.277  1.8069 -0.1733 -1.6629
  147SAPE    C316193   1.691   5.610  10.574 -0.6996  0.0985 -0.3983
  147SAPE    HX16194   1.721   5.715  10.596  2.2688 -0.7292 -0.0270
  147SAPE    HY16195   1.633   5.574  10.661  0.9155 -2.4180 -0.2684
  147SAPE   O3116196   1.618   5.595  10.456  0.8873  0.1264 -0.0552
  147SAPE   C3116197   1.578   5.476  10.421  0.5339 -0.6493 -0.2120
  147SAPE   O3216198   1.598   5.374  10.475  0.3944  0.3701 -0.3143
  147SAPE   C3216199   1.478   5.489  10.307  0.3403 -0.6309 -0.4100
  147SAPE   H2X16200   1.510   5.579  10.250  2.2449  0.9595  2.8638
  147SAPE   H2Y16201   1.380   5.515  10.352  0.0043 -0.4264 -1.2363
  147SAPE   C2316202   2.145   5.442  10.213  0.5073  0.0240  0.8255
  147SAPE   H3R16203   2.115   5.335  10.201  0.6462 -0.0425  1.0767
  147SAPE   H3S16204   2.238   5.445  10.274  1.1794 -0.8713 -0.1194
  147SAPE   C2416205   2.184   5.487  10.072  0.4943  0.3092  0.0905
  147SAPE   H4R16206   2.089   5.487  10.014  0.5396 -1.1600 -0.0236
  147SAPE   H4S16207   2.248   5.406  10.031  0.3355  0.3139 -0.1698
  147SAPE   C2516208   2.241   5.627  10.066  0.3945  0.1514 -0.4144
  147SAPE   H5R16209   2.261   5.677  10.161  0.2888  0.4785 -0.5630
  147SAPE   C2616210   2.272   5.695   9.954  0.2945  0.3621 -0.6220
  147SAPE   H6R16211   2.316   5.794   9.970  0.8431 -0.0224  0.3637
  147SAPE   C2716212   2.239   5.651   9.813 -0.3753 -0.3885 -0.1332
  147SAPE   H7R16213   2.129   5.665   9.806 -0.7364 -2.6528  0.4432
  147SAPE   H7S16214   2.263   5.543   9.806  1.5017 -0.1572  1.8946
  147SAPE   C2816215   2.317   5.715   9.696 -0.2161  0.9696 -0.3647
  147SAPE   H8R16216   2.419   5.754   9.709  1.1003 -2.2180 -0.2309
  147SAPE   C2916217   2.280   5.710   9.564 -0.2422 -0.7446  0.1240
  147SAPE   H9R16218   2.347   5.759   9.492 -0.7562 -0.9514 -0.5082
  147SAPE  C21016219   2.152   5.657   9.505  0.0567 -0.0316  0.5178
  147SAPE  H10R16220   2.067   5.679   9.573  0.3061 -2.2261  1.6495
  147SAPE  H10S16221   2.167   5.547   9.495 -1.1216  0.0147 -3.7066
  147SAPE  C21116222   2.131   5.698   9.358  0.4791  0.2763  0.3902
  147SAPE  H11R16223   2.055   5.778   9.347  0.4327 -0.0150 -1.8512
  147SAPE  C21216224   2.166   5.633   9.246  0.0315  0.7373 -0.2824
  147SAPE  H12R16225   2.124   5.668   9.151 -1.2863  0.2411  0.0929
  147SAPE  C21316226   2.258   5.514   9.242 -0.3933  0.7456  0.0024
  147SAPE  H13R16227   2.206   5.426   9.197  0.1223  1.2910 -1.7561
  147SAPE  H13S16228   2.289   5.478   9.343 -0.2953 -2.1460 -0.9482
  147SAPE  C21416229   2.393   5.547   9.183 -0.6313 -0.2142  0.4710
  147SAPE  H14R16230   2.432   5.648   9.202 -0.6292  0.4474 -2.5101
  147SAPE  C21516231   2.458   5.485   9.088 -0.6703  0.6688 -0.6073
  147SAPE  H15R16232   2.565   5.506   9.078 -0.4614 -0.7077 -1.5015
  147SAPE  C21616233   2.425   5.361   9.012 -0.4724 -0.3795  0.3214
  147SAPE  H16R16234   2.321   5.322   9.025 -0.9009  0.7837  0.5446
  147SAPE  H16S16235   2.492   5.280   9.047 -2.2311 -1.8232  0.5048
  147SAPE  C21716236   2.448   5.364   8.860 -0.4759  0.1551 -0.2605
  147SAPE  H17R16237   2.378   5.423   8.796 -0.0067 -1.0549 -1.9749
  147SAPE  H17S16238   2.437   5.260   8.823  2.8948 -0.1825 -0.6691
  147SAPE  C21816239   2.588   5.413   8.823  0.2151  0.9525  0.3065
  147SAPE  H18R16240   2.670   5.344   8.852 -0.1769 -0.1954 -1.1950
  147SAPE  H18S16241   2.604   5.510   8.875 -0.8052  0.4200  1.6573
  147SAPE  C21916242   2.621   5.447   8.675  0.0184 -0.5479  0.0421
  147SAPE  H19R16243   2.565   5.543   8.664 -0.0035 -0.0587  3.3215
  147SAPE  H19S16244   2.579   5.373   8.604  1.0371 -1.1174  0.0118
  147SAPE  C22016245   2.764   5.471   8.641 -0.2749  0.1500 -0.1079
  147SAPE  H20R16246   2.822   5.377   8.645  2.2255  1.6542  1.5914
  147SAPE  H20S16247   2.809   5.531   8.723  0.6192 -1.0486  0.2996
  147SAPE  H20T16248   2.772   5.525   8.544  0.3164  1.3307  0.5694
  147SAPE   C3316249   1.463   5.361  10.230  0.0740  0.4459  0.2309
  147SAPE   H3X16250   1.358   5.362  10.195 -0.7706  2.5314  2.5732
  147SAPE   H3Y16251   1.463   5.263  10.282 -2.1119  1.9244  3.3567
  147SAPE   C3416252   1.568   5.364  10.107  0.1242  0.3017 -0.6119
  147SAPE   H4X16253   1.672   5.381  10.144  0.6593  0.3896 -2.0969
  147SAPE   H4Y16254   1.529   5.446  10.043 -3.4037  0.9407  2.0622
  147SAPE   C3516255   1.565   5.232  10.029 -0.0687 -0.5994 -0.3554
  147SAPE   H5X16256   1.458   5.204  10.021 -0.7388  0.6423  2.9428
  147SAPE   H5Y16257   1.616   5.163  10.099 -1.3327 -1.5907 -0.3799
  147SAPE   C3616258   1.624   5.266   9.895  0.2752 -0.1025  0.3792
  147SAPE   H6X16259   1.723   5.316   9.907  0.9450 -1.2504 -0.1982
  147SAPE   H6Y16260   1.564   5.342   9.841  1.6445  0.9016  0.2177
  147SAPE   C3716261   1.640   5.155   9.800  0.6342  0.2150 -0.9081
  147SAPE   H7X16262   1.539   5.109   9.790  1.4511 -2.4478  1.8081
  147SAPE   H7Y16263   1.709   5.082   9.845 -0.4414  0.8797  2.0746
  147SAPE   C3816264   1.692   5.190   9.669 -0.0101  0.1421 -0.3978
  147SAPE   H8X16265   1.745   5.102   9.627 -1.3642 -1.0024  0.2097
  147SAPE   H8Y16266   1.769   5.270   9.675 -1.8713  1.9563  0.4515
  147SAPE   C3916267   1.594   5.243   9.565  0.3399 -0.2802 -0.3035
  147SAPE   H9X16268   1.540   5.328   9.611  2.9389  1.2981  0.0096
  147SAPE   H9Y16269   1.516   5.165   9.548 -1.6811  1.7193 -0.6309
  147SAPE  C31016270   1.660   5.285   9.436 -0.1000  1.0192 -0.1156
  147SAPE  H10X16271   1.680   5.193   9.378 -3.4226 -0.4020  0.7509
  147SAPE  H10Y16272   1.759   5.328   9.463 -0.1772  0.6475  0.7934
  147SAPE  C31116273   1.589   5.383   9.348  0.5465  0.2939 -0.0051
  147SAPE  H11X16274   1.560   5.480   9.393  0.6085 -0.2559  1.2824
  147SAPE  H11Y16275   1.498   5.330   9.312  1.1539 -0.3575 -0.6200
  147SAPE  C31216276   1.670   5.412   9.222 -0.4540  0.7748  0.0996
  147SAPE  H12X16277   1.751   5.482   9.252 -0.4359  0.5013  0.7189
  147SAPE  H12Y16278   1.608   5.480   9.160 -0.2679  0.1183 -0.8115
  147SAPE  C31316279   1.736   5.294   9.147  0.3746  0.6890  0.0375
  147SAPE  H13X16280   1.652   5.222   9.138 -0.5132  1.7964 -0.9753
  147SAPE  H13Y16281   1.821   5.248   9.200 -0.7229 -0.5426  0.7969
  147SAPE  C31416282   1.781   5.333   9.004  0.0404 -0.1817  0.7817
  147SAPE  H14X16283   1.697   5.391   8.959  1.1169  0.6143 -0.2397
  147SAPE  H14Y16284   1.799   5.243   8.942  0.3812  0.0694  0.5089
  147SAPE  C31516285   1.898   5.422   9.012 -0.2950  0.3984  0.9357
  147SAPE  H15X16286   1.995   5.377   9.043 -0.1626  0.3301  0.4378
  147SAPE  H15Y16287   1.891   5.506   9.085 -3.2300 -0.0500  1.2734
  147SAPE  C31616288   1.919   5.484   8.872  0.2420 -0.0503  0.1408
  147SAPE  H16X16289   1.850   5.563   8.838 -0.4558 -0.8894 -0.4316
  147SAPE  H16Y16290   1.908   5.411   8.789 -0.6877 -1.3748  1.3647
  147SAPE  C31716291   2.071   5.524   8.853 -0.6111  0.5423 -0.3080
  147SAPE  H17X16292   2.125   5.433   8.888 -0.6809  0.5277 -0.2408
  147SAPE  H17Y16293   2.098   5.604   8.925  0.0876 -1.1816  1.4136
  147SAPE  C31816294   2.100   5.562   8.711 -0.9322 -0.4150  0.0291
  147SAPE  H18X16295   2.034   5.643   8.675  2.3690  1.6788 -1.7357
  147SAPE  H18Y16296   2.087   5.479   8.638  0.8389  0.8735 -1.8567
  147SAPE  H18Z16297   2.206   5.594   8.706 -0.9692 -0.5235 -1.8254
  148SAPE     N16298   0.718   1.172  10.984 -0.1491  0.6340 -0.7633
  148SAPE   HN116299   0.637   1.187  10.921 -1.4051 -0.7864  0.4392
  148SAPE   HN216300   0.726   1.068  10.992  1.1971  0.6232 -1.6952
  148SAPE   HN316301   0.708   1.217  11.077 -1.3115  0.0371 -0.5802
  148SAPE   C1216302   0.839   1.228  10.908 -0.1408  0.0630  0.2660
  148SAPE  H12A16303   0.929   1.239  10.972  0.3429 -1.7603 -0.0303
  148SAPE  H12B16304   0.807   1.331  10.881  2.2743  0.7722 -0.2078
  148SAPE   C1116305   0.872   1.149  10.776  0.7908 -0.4211  0.1455
  148SAPE  H11A16306   0.919   1.053  10.805  0.2505 -1.0321 -0.9256
  148SAPE  H11B16307   0.945   1.200  10.710 -1.0549  1.2905 -0.6829
  148SAPE     P16308   0.708   1.194  10.579  0.0688  0.0012  0.1785
  148SAPE   O1316309   0.798   1.136  10.476 -0.3617  0.2018  0.2668
  148SAPE   O1416310   0.562   1.182  10.551  0.3610  0.3382 -0.0807
  148SAPE   O1216311   0.744   1.117  10.714 -0.4173  0.4076  0.4514
  148SAPE   O1116312   0.757   1.344  10.611  0.5246 -0.2593  0.3699
  148SAPE    C116313   0.678   1.438  10.672  1.3780 -0.2417 -0.9908
  148SAPE    HA16314   0.616   1.397  10.754  0.2079 -1.4599 -2.4332
  148SAPE    HB16315   0.736   1.523  10.715 -1.3308  2.4372 -2.2537
  148SAPE    C216316   0.572   1.504  10.571 -0.4465  0.2814  0.2610
  148SAPE    HS16317   0.487   1.433  10.575 -0.1335 -0.0443  1.7068
  148SAPE   O2116318   0.617   1.504  10.438  0.0981  0.7033 -0.2885
  148SAPE   C2116319   0.722   1.576  10.408 -0.0054 -0.2432 -0.6609
  148SAPE   O2216320   0.788   1.645  10.481 -0.0838  0.3470  0.7382
  148SAPE   C2216321   0.750   1.553  10.267  0.0080  0.0688 -0.6652
  148SAPE   H2R16322   0.785   1.448  10.255 -0.7062 -0.5716  2.0412
  148SAPE   H2S16323   0.659   1.580  10.209 -1.3183 -0.3470  1.1156
  148SAPE    C316324   0.525   1.645  10.624  0.8424  0.1110 -0.1557
  148SAPE    HX16325   0.617   1.708  10.626  0.6505  0.3824  0.1422
  148SAPE    HY16326   0.494   1.642  10.731 -1.8616 -1.8544 -0.8763
  148SAPE   O3116327   0.427   1.709  10.538 -0.1063  0.0405 -0.0879
  148SAPE   C3116328   0.306   1.668  10.567 -1.0853  0.1448 -0.1853
  148SAPE   O3216329   0.277   1.576  10.643 -0.3563  0.4015  0.0818
  148SAPE   C3216330   0.205   1.726  10.472 -0.0546 -0.2667 -0.1207
  148SAPE   H2X16331   0.116   1.757  10.531 -1.5486 -3.3528 -0.5198
  148SAPE   H2Y16332   0.159   1.635  10.427 -0.4269  0.2424 -0.7970
  148SAPE   C2316333   0.872   1.638  10.220 -0.3920  0.4508 -0.2778
  148SAPE   H3R16334   0.964   1.597  10.268  0.0816  1.7861  0.0007
  148SAPE   H3S16335   0.857   1.747  10.236 -0.9443  0.5739 -1.5143
  148SAPE   C2416336   0.884   1.624  10.064  0.0287  0.0818 -0.4576
  148SAPE   H4R16337   0.981   1.672  10.039  0.8526 -1.5699 -0.5547
  148SAPE   H4S16338   0.801   1.682  10.018  0.7734  0.8437 -0.8651
  148SAPE   C2516339   0.875   1.476  10.017 -0.1213 -0.2455  0.5812
  148SAPE   H5R16340   0.912   1.412  10.098  1.6971  0.9084  0.7189
  148SAPE   C2616341   0.835   1.420   9.904 -0.0713 -0.7800  0.1126
  148SAPE   H6R16342   0.841   1.312   9.890  0.6722 -0.9556  1.6006
  148SAPE   C2716343   0.784   1.496   9.783  0.0517 -0.7579  0.6135
  148SAPE   H7R16344   0.749   1.592   9.826 -1.7586 -0.4062 -1.4559
  148SAPE   H7S16345   0.689   1.448   9.750 -1.0265  1.8741 -0.3658
  148SAPE   C2816346   0.886   1.526   9.675 -0.5690  0.2831  0.2798
  148SAPE   H8R16347   0.985   1.555   9.711 -0.1449 -0.7975  0.0223
  148SAPE   C2916348   0.869   1.543   9.544  0.1490 -0.4340  0.2440
  148SAPE   H9R16349   0.958   1.572   9.487 -0.1238 -1.8490 -0.9410
  148SAPE  C21016350   0.742   1.541   9.460  0.2132  0.6848 -0.2073
  148SAPE  H10R16351   0.709   1.646   9.444 -2.3347 -0.0787 -0.4138
  148SAPE  H10S16352   0.657   1.495   9.514  1.3042  0.3382  1.2737
  148SAPE  C21116353   0.762   1.464   9.333  0.2928 -0.1957 -0.0661
  148SAPE  H11R16354   0.792   1.359   9.347  0.6883 -0.2104 -0.9424
  148SAPE  C21216355   0.738   1.510   9.210 -0.8907 -0.1036  0.1688
  148SAPE  H12R16356   0.760   1.444   9.124 -0.5961  2.0688 -1.5077
  148SAPE  C21316357   0.699   1.647   9.174  0.3040 -0.3365 -0.0823
  148SAPE  H13R16358   0.762   1.676   9.087 -1.1390  1.1479 -0.7049
  148SAPE  H13S16359   0.727   1.720   9.252  2.1354  0.7173 -1.6459
  148SAPE  C21416360   0.553   1.657   9.137  0.3207  0.1461 -0.2036
  148SAPE  H14R16361   0.487   1.621   9.217 -1.8885  0.3073 -1.8520
  148SAPE  C21516362   0.499   1.690   9.018  0.3079  0.5636  0.1421
  148SAPE  H15R16363   0.393   1.662   9.003  1.0948 -1.8452 -1.5999
  148SAPE  C21616364   0.559   1.732   8.891 -0.9304 -0.3087  0.4203
  148SAPE  H16R16365   0.661   1.775   8.903 -1.1058  0.7036 -1.3043
  148SAPE  H16S16366   0.499   1.803   8.830 -0.3563 -0.2265 -0.0704
  148SAPE  C21716367   0.586   1.628   8.778 -0.1886  0.0898  0.3913
  148SAPE  H17R16368   0.642   1.669   8.692 -1.0746  0.8576  0.1634
  148SAPE  H17S16369   0.489   1.589   8.740 -0.5831  2.2386 -0.9286
  148SAPE  C21816370   0.672   1.503   8.823  0.1429 -0.2705 -0.5445
  148SAPE  H18R16371   0.621   1.465   8.913 -1.0611  1.9454 -0.2210
  148SAPE  H18S16372   0.770   1.545   8.855 -1.0490  1.2445  1.2962
  148SAPE  C21916373   0.684   1.391   8.713 -0.5804  0.6844 -0.2658
  148SAPE  H19R16374   0.585   1.368   8.666  0.3707 -1.2520 -1.4571
  148SAPE  H19S16375   0.716   1.294   8.756 -3.0964 -0.5834 -1.0046
  148SAPE  C22016376   0.776   1.435   8.609  0.1576 -0.7698  1.0299
  148SAPE  H20R16377   0.751   1.527   8.553  2.2249 -0.4947  0.4550
  148SAPE  H20S16378   0.780   1.360   8.527 -0.9948  0.3904 -0.1304
  148SAPE  H20T16379   0.882   1.435   8.644  1.6418  1.1894 -2.8088
  148SAPE   C3316380   0.252   1.850  10.388  0.2038 -0.2647 -0.2462
  148SAPE   H3X16381   0.324   1.915  10.442 -0.7056  0.7600 -0.2401
  148SAPE   H3Y16382   0.162   1.913  10.372  0.1109 -0.4040 -0.2787
  148SAPE   C3416383   0.296   1.810  10.249 -0.6275  0.6987 -0.2606
  148SAPE   H4X16384   0.287   1.891  10.174  1.3438  0.1546 -1.1505
  148SAPE   H4Y16385   0.233   1.727  10.212  2.4635 -1.9981  0.0620
  148SAPE   C3516386   0.440   1.758  10.233  0.3827  0.4031 -0.0080
  148SAPE   H5X16387   0.439   1.665  10.294 -0.5392  0.3370 -0.1097
  148SAPE   H5Y16388   0.519   1.828  10.266  1.6053 -0.3602 -1.1898
  148SAPE   C3616389   0.463   1.723  10.085 -0.0590 -0.4024  0.3234
  148SAPE   H6X16390   0.375   1.667  10.045 -0.4835 -1.2181  2.2970
  148SAPE   H6Y16391   0.563   1.675  10.078  0.9641  1.7739 -1.8880
  148SAPE   C3716392   0.478   1.832   9.989 -0.0867 -0.4917  1.0603
  148SAPE   H7X16393   0.546   1.907  10.036 -1.4170  0.2052  1.9585
  148SAPE   H7Y16394   0.377   1.877   9.982  1.2074  2.5527 -0.2927
  148SAPE   C3816395   0.499   1.803   9.835 -0.1097  0.4011  0.3978
  148SAPE   H8X16396   0.413   1.740   9.805 -1.3703  0.7911  2.8474
  148SAPE   H8Y16397   0.592   1.748   9.808  0.2654  0.6365  1.1749
  148SAPE   C3916398   0.502   1.927   9.736  0.0626 -0.0744  0.1264
  148SAPE   H9X16399   0.586   1.994   9.765 -0.8417  0.2586  2.1056
  148SAPE   H9Y16400   0.403   1.974   9.752  0.0015 -0.3893  0.7204
  148SAPE  C31016401   0.521   1.883   9.585 -1.1511 -0.0947 -0.4968
  148SAPE  H10X16402   0.450   1.803   9.555 -0.9548 -0.9925  1.2532
  148SAPE  H10Y16403   0.615   1.823   9.586 -2.0754 -1.7139 -3.0485
  148SAPE  C31116404   0.528   2.006   9.489  0.2580  0.3604  0.0071
  148SAPE  H11X16405   0.603   2.080   9.523  0.3751 -0.7648  2.3716
  148SAPE  H11Y16406   0.427   2.052   9.494  0.3643  1.0253 -2.5795
  148SAPE  C31216407   0.568   1.966   9.347 -0.3063 -0.3122  0.2244
  148SAPE  H12X16408   0.497   1.891   9.306 -1.3081  1.0686 -0.6637
  148SAPE  H12Y16409   0.674   1.933   9.342 -0.0762  0.4280  0.0999
  148SAPE  C31316410   0.551   2.092   9.254 -0.6398 -0.1721 -0.2295
  148SAPE  H13X16411   0.620   2.167   9.298  1.6408 -1.1042 -2.0325
  148SAPE  H13Y16412   0.449   2.136   9.246 -0.3225  0.7091  0.4342
  148SAPE  C31416413   0.597   2.066   9.112 -0.0702 -0.7850 -0.4085
  148SAPE  H14X16414   0.531   1.989   9.067  0.9494 -0.9742 -1.6393
  148SAPE  H14Y16415   0.694   2.012   9.118 -0.3179 -1.1188  0.9079
  148SAPE  C31516416   0.612   2.188   9.008 -0.7775  0.2625  0.0833
  148SAPE  H15X16417   0.647   2.282   9.055 -1.9235  1.2851 -1.0147
  148SAPE  H15Y16418   0.514   2.202   8.955  0.1317  0.3802 -1.6444
  148SAPE  C31616419   0.716   2.160   8.893  0.3322  0.4653 -0.4618
  148SAPE  H16X16420   0.696   2.064   8.841 -1.3572  0.0309  0.9018
  148SAPE  H16Y16421   0.818   2.148   8.936 -0.4236  2.9284  2.3296
  148SAPE  C31716422   0.737   2.270   8.786  0.1094 -0.4936 -0.2149
  148SAPE  H17X16423   0.813   2.229   8.717  0.7790 -0.7291  0.6551
  148SAPE  H17Y16424   0.772   2.363   8.837  0.8510 -1.9202  2.0008
  148SAPE  C31816425   0.617   2.304   8.705  0.4706 -0.5454  0.3913
  148SAPE  H18X16426   0.593   2.226   8.629 -0.3798  1.0948 -1.0837
  148SAPE  H18Y16427   0.635   2.399   8.651  1.7062 -0.2057  1.3584
  148SAPE  H18Z16428   0.527   2.321   8.768 -0.2171 -2.9760  0.1725
  149SAPE     N16429   3.080   4.615  11.462  0.2295  0.1552 -0.0317
  149SAPE   HN116430   3.027   4.536  11.503  0.3688 -0.5820 -1.1912
  149SAPE   HN216431   3.157   4.569  11.408  0.2734 -1.3310  1.2390
  149SAPE   HN316432   3.126   4.666  11.540  1.0646  1.2067 -1.1592
  149SAPE   C1216433   3.008   4.708  11.363 -0.4799 -0.2551 -0.8289
  149SAPE  H12A16434   3.023   4.810  11.404  0.3020 -1.5246  2.3265
  149SAPE  H12B16435   2.901   4.682  11.377  0.0888 -2.0009  0.6103
  149SAPE   C1116436   3.055   4.701  11.216  0.5263 -0.4702 -0.6653
  149SAPE  H11A16437   3.008   4.776  11.148  2.1137 -0.1630 -1.4901
  149SAPE  H11B16438   3.022   4.601  11.181 -1.7884  0.2946 -0.7786
  149SAPE     P16439   3.270   4.849  11.166 -0.0567  0.2346  0.3088
  149SAPE   O1316440   3.197   4.971  11.208 -0.2570 -0.0371  0.1188
  149SAPE   O1416441   3.409   4.834  11.215  0.5379  0.4291  0.0999
  149SAPE   O1216442   3.195   4.720  11.215 -0.1155  0.2071 -0.2488
  149SAPE   O1116443   3.277   4.851  11.014  0.7233  0.2329 -0.0981
  149SAPE    C116444   3.336   4.741  10.940 -0.5654 -0.1779  0.2930
  149SAPE    HA16445   3.397   4.677  11.006  3.2770  0.8777 -1.9595
  149SAPE    HB16446   3.254   4.680  10.897  0.0873 -1.3793  0.7250
  149SAPE    C216447   3.437   4.788  10.838  0.4955  0.2693  0.0368
  149SAPE    HS16448   3.532   4.822  10.885 -0.4155  2.3691  0.4750
  149SAPE   O2116449   3.376   4.893  10.759  0.3315  0.3274 -0.0060
  149SAPE   C2116450   3.410   5.017  10.783 -0.2988  0.4388 -0.1535
  149SAPE   O2216451   3.480   5.058  10.874 -0.6491  0.2309 -0.0375
  149SAPE   C2216452   3.328   5.104  10.687  0.5206 -0.4329  0.2816
  149SAPE   H2R16453   3.307   5.051  10.592  2.4201 -3.1112  1.2311
  149SAPE   H2S16454   3.234   5.137  10.736  1.5595  1.1950  1.2771
  149SAPE    C316455   3.484   4.679  10.735  0.5214  0.3180  0.0836
  149SAPE    HX16456   3.484   4.582  10.790  1.0096 -1.3685 -2.7176
  149SAPE    HY16457   3.590   4.691  10.704  0.2438  1.1871 -0.5595
  149SAPE   O3116458   3.395   4.650  10.626 -0.1781  0.6588  0.2966
  149SAPE   C3116459   3.419   4.713  10.510 -1.0799  1.1854 -0.1355
  149SAPE   O3216460   3.518   4.781  10.493  0.1516  0.1374 -0.7282
  149SAPE   C3216461   3.311   4.704  10.408 -0.6460  0.4762  0.1704
  149SAPE   H2X16462   3.274   4.805  10.383  1.3609  1.6596  1.6791
  149SAPE   H2Y16463   3.223   4.656  10.456 -1.6049  2.3608  0.3875
  149SAPE   C2316464   3.419   5.228  10.656 -0.6329 -0.8104 -1.1108
  149SAPE   H3R16465   3.513   5.183  10.618  0.2362  0.6336 -0.7369
  149SAPE   H3S16466   3.429   5.293  10.746  1.0829 -0.1076 -1.7840
  149SAPE   C2416467   3.382   5.306  10.531  0.2800 -0.3150 -0.2687
  149SAPE   H4R16468   3.379   5.238  10.443  1.5811  0.7125 -1.1487
  149SAPE   H4S16469   3.470   5.371  10.511 -0.8753  1.5204  0.4324
  149SAPE   C2516470   3.252   5.389  10.539  0.3155  0.5058 -0.9185
  149SAPE   H5R16471   3.155   5.341  10.559 -0.6795  2.0192 -1.8523
  149SAPE   C2616472   3.238   5.527  10.508 -0.2505 -0.3933 -0.1938
  149SAPE   H6R16473   3.141   5.575  10.525  0.4920  1.0841  0.0969
  149SAPE   C2716474   3.345   5.615  10.459 -0.2429  0.7721 -0.1952
  149SAPE   H7R16475   3.418   5.549  10.407  1.7702  2.1550  0.7542
  149SAPE   H7S16476   3.399   5.662  10.543 -1.2715  1.4872  0.0822
  149SAPE   C2816477   3.302   5.724  10.367 -0.8045  0.2266 -0.4991
  149SAPE   H8R16478   3.213   5.780  10.398 -0.9291 -1.8021  3.4195
  149SAPE   C2916479   3.354   5.747  10.245 -0.3244 -0.2302 -0.3964
  149SAPE   H9R16480   3.302   5.826  10.188 -1.3633 -0.5653  0.0532
  149SAPE  C21016481   3.467   5.674  10.171  0.2094  0.3756  0.7429
  149SAPE  H10R16482   3.464   5.678  10.060  1.2070 -1.8239  0.5809
  149SAPE  H10S16483   3.468   5.568  10.203 -0.5186  0.0260 -0.3469
  149SAPE  C21116484   3.607   5.732  10.186  0.5017 -0.6320 -0.5459
  149SAPE  H11R16485   3.630   5.748  10.292 -0.0532  0.3250 -0.5586
  149SAPE  C21216486   3.703   5.763  10.093 -0.8701 -0.1329  0.0081
  149SAPE  H12R16487   3.799   5.812  10.117 -0.7107 -1.1394  1.5289
  149SAPE  C21316488   3.682   5.732   9.942  0.1139 -0.3709 -0.4947
  149SAPE  H13R16489   3.619   5.646   9.915  0.4693 -0.2984 -1.5967
  149SAPE  H13S16490   3.777   5.700   9.894  1.2775  1.3681  0.5172
  149SAPE  C21416491   3.620   5.853   9.879  0.4229  0.4399 -0.0264
  149SAPE  H14R16492   3.553   5.916   9.939 -1.9539 -1.7018 -0.2769
  149SAPE  C21516493   3.645   5.894   9.752 -0.1561 -0.9843 -0.2003
  149SAPE  H15R16494   3.618   5.998   9.727 -0.2536 -1.3486 -1.7161
  149SAPE  C21616495   3.744   5.839   9.650 -0.1821 -0.9473  0.3558
  149SAPE  H16R16496   3.808   5.754   9.682  0.0589 -1.2943 -1.0164
  149SAPE  H16S16497   3.812   5.924   9.628 -0.3738 -1.3902 -2.1791
  149SAPE  C21716498   3.685   5.788   9.517  0.2057 -0.4187 -0.0586
  149SAPE  H17R16499   3.598   5.850   9.489 -1.3149 -2.6765 -0.6767
  149SAPE  H17S16500   3.631   5.692   9.534 -3.4762  1.7876  2.0904
  149SAPE  C21816501   3.781   5.796   9.399 -0.0269 -0.1367  0.6897
  149SAPE  H18R16502   3.863   5.725   9.422 -0.4923 -0.5875  0.9750
  149SAPE  H18S16503   3.840   5.890   9.393  0.5698 -0.3020  3.0352
  149SAPE  C21916504   3.717   5.779   9.265 -0.5914  0.4895  0.3291
  149SAPE  H19R16505   3.686   5.883   9.242 -0.7223  0.6608  1.2232
  149SAPE  H19S16506   3.623   5.719   9.268 -0.2922  0.0060  0.2154
  149SAPE  C22016507   3.813   5.719   9.163 -0.1098  0.6137 -0.0704
  149SAPE  H20R16508   3.758   5.711   9.067 -0.5054 -0.2806  0.2211
  149SAPE  H20S16509   3.845   5.617   9.195 -0.6575  0.5567  0.3209
  149SAPE  H20T16510   3.908   5.773   9.144  0.6122 -0.7883 -0.5827
  149SAPE   C3316511   3.358   4.638  10.276  0.3065 -0.1777  0.0540
  149SAPE   H3X16512   3.360   4.528  10.261  1.1378  0.0347 -1.7293
  149SAPE   H3Y16513   3.454   4.684  10.244 -0.1760  0.2264 -0.8709
  149SAPE   C3416514   3.266   4.681  10.162  0.4878  0.1984 -0.2398
  149SAPE   H4X16515   3.276   4.784  10.121  0.3822 -0.8220 -3.1116
  149SAPE   H4Y16516   3.160   4.663  10.189  1.2449 -0.8903  2.2132
  149SAPE   C3516517   3.288   4.591  10.040  0.8770  0.1430 -0.1200
  149SAPE   H5X16518   3.211   4.511  10.039  0.0928  0.8782  0.2875
  149SAPE   H5Y16519   3.383   4.534  10.041  0.1606 -1.2635 -2.9100
  149SAPE   C3616520   3.269   4.665   9.910 -0.3900  0.3420  0.0404
  149SAPE   H6X16521   3.336   4.754   9.900 -1.2320  1.0367  0.3941
  149SAPE   H6Y16522   3.162   4.694   9.900 -0.0148  1.6061 -0.5762
  149SAPE   C3716523   3.292   4.569   9.789 -0.7496  0.3978 -0.2135
  149SAPE   H7X16524   3.220   4.484   9.792 -0.5887  0.2042 -1.4433
  149SAPE   H7Y16525   3.398   4.538   9.802 -0.8022  0.3006 -0.0112
  149SAPE   C3816526   3.265   4.630   9.648 -0.1152 -0.2034  0.4255
  149SAPE   H8X16527   3.339   4.710   9.625 -1.5007  0.2170 -3.2217
  149SAPE   H8Y16528   3.163   4.672   9.658  0.0819  0.4727 -0.3019
  149SAPE   C3916529   3.265   4.531   9.532 -0.1356  0.1512 -0.8456
  149SAPE   H9X16530   3.176   4.465   9.524 -1.0245  1.1801  0.2841
  149SAPE   H9Y16531   3.357   4.470   9.526  0.5510  1.2568 -2.2719
  149SAPE  C31016532   3.265   4.612   9.399  0.0516  0.2323 -0.9320
  149SAPE  H10X16533   3.346   4.688   9.407 -0.0950  0.4087 -1.1350
  149SAPE  H10Y16534   3.166   4.659   9.384 -0.0643  0.3412  0.1035
  149SAPE  C31116535   3.288   4.519   9.284 -0.1184 -0.0500  0.0943
  149SAPE  H11X16536   3.296   4.411   9.310  2.9922  0.1467  0.3134
  149SAPE  H11Y16537   3.388   4.536   9.241 -0.9650  1.0598 -1.5494
  149SAPE  C31216538   3.183   4.523   9.171 -0.3328 -0.2786 -0.5529
  149SAPE  H12X16539   3.203   4.621   9.122  0.9241  1.1368  2.5599
  149SAPE  H12Y16540   3.082   4.544   9.212 -0.6453 -1.8073 -0.4767
  149SAPE  C31316541   3.196   4.404   9.081 -0.4566 -0.3636 -0.4454
  149SAPE  H13X16542   3.189   4.308   9.137  1.3298  0.2101  0.8527
  149SAPE  H13Y16543   3.301   4.405   9.043  0.3033  3.2044  1.3726
  149SAPE  C31416544   3.101   4.392   8.965 -0.0056  0.1131 -0.0218
  149SAPE  H14X16545   3.129   4.305   8.902 -3.2379 -1.2624  0.2356
  149SAPE  H14Y16546   3.094   4.484   8.903  2.1220  0.3795  0.0385
  149SAPE  C31516547   2.960   4.345   9.014 -0.1670  0.4510  0.3312
  149SAPE  H15X16548   2.900   4.406   9.086 -0.3337 -0.4714  0.9903
  149SAPE  H15Y16549   2.984   4.253   9.071 -0.0197  0.0107 -0.4366
  149SAPE  C31616550   2.860   4.308   8.893 -0.7579 -0.2435 -0.7634
  149SAPE  H16X16551   2.922   4.252   8.820  2.4664  1.7703  0.2146
  149SAPE  H16Y16552   2.840   4.408   8.849  1.1802  0.1819 -0.7982
  149SAPE  C31716553   2.738   4.228   8.936  0.3340  0.2746  0.5548
  149SAPE  H17X16554   2.672   4.287   9.004 -1.3219  0.5897 -1.2429
  149SAPE  H17Y16555   2.778   4.152   9.007  0.0946  1.6331  2.1960
  149SAPE  C31816556   2.648   4.165   8.828 -0.8665 -0.0178 -0.7074
  149SAPE  H18X16557   2.716   4.109   8.761  2.1672  1.3263  1.0111
  149SAPE  H18Y16558   2.599   4.238   8.760  1.0632  2.6408  0.5380
  149SAPE  H18Z16559   2.569   4.107   8.881 -0.2203  1.3078  1.9207
  150SAPE     N16560   4.196   3.359  10.900  0.3870  0.1145 -0.2254
  150SAPE   HN116561   4.265   3.319  10.966  0.6506 -2.0059 -1.6768
  150SAPE   HN216562   4.207   3.462  10.904 -0.4619  0.1914  0.4571
  150SAPE   HN316563   4.102   3.325  10.930  0.1684  0.2181 -0.7733
  150SAPE   C1216564   4.225   3.312  10.765 -1.0671  0.0925  0.2611
  150SAPE  H12A16565   4.320   3.358  10.728 -0.1551 -1.4716  0.5577
  150SAPE  H12B16566   4.141   3.352  10.704  1.0383  0.1257 -2.8836
  150SAPE   C1116567   4.235   3.158  10.770 -0.5563  0.3867 -0.1537
  150SAPE  H11A16568   4.226   3.128  10.663  1.0636  1.8862 -0.7748
  150SAPE  H11B16569   4.147   3.117  10.823 -0.9166 -1.0767 -1.7889
  150SAPE     P16570   4.413   2.976  10.845 -0.1442 -0.0867 -0.3290
  150SAPE   O1316571   4.552   2.983  10.895 -0.1095  0.1769  0.1848
  150SAPE   O1416572   4.314   2.899  10.925 -0.3499 -0.0104  0.3873
  150SAPE   O1216573   4.360   3.125  10.830 -0.5229  0.1700 -0.1383
  150SAPE   O1116574   4.415   2.911  10.693  0.5660 -0.0185 -0.0639
  150SAPE    C116575   4.523   2.927  10.603  0.1947  0.0015 -0.1207
  150SAPE    HA16576   4.618   2.940  10.659 -0.7525  0.6569  1.3832
  150SAPE    HB16577   4.534   2.845  10.529  0.1932 -0.2577  0.1639
  150SAPE    C216578   4.523   3.062  10.523  0.1602  0.4705 -0.3584
  150SAPE    HS16579   4.532   3.146  10.596  1.8795 -0.1072  0.1568
  150SAPE   O2116580   4.400   3.083  10.441 -0.4253  0.5282 -0.6227
  150SAPE   C2116581   4.389   3.215  10.405 -0.3750 -0.3385  0.0407
  150SAPE   O2216582   4.459   3.306  10.452  0.0642  0.3508  0.2285
  150SAPE   C2216583   4.276   3.237  10.302  0.5841 -0.0001  0.8951
  150SAPE   H2R16584   4.193   3.172  10.339  1.4104 -1.8920 -0.4134
  150SAPE   H2S16585   4.256   3.346  10.297 -1.6453 -0.4229 -1.5257
  150SAPE    C316586   4.652   3.075  10.442  0.2497 -0.8296  0.0420
  150SAPE    HX16587   4.726   3.096  10.522 -2.0646  2.7229  1.4800
  150SAPE    HY16588   4.642   3.173  10.392  1.2477 -0.7574 -0.0352
  150SAPE   O3116589   4.669   2.963  10.349 -0.0765 -0.6797 -0.3379
  150SAPE   C3116590   4.675   2.988  10.221 -0.5699 -0.7954  0.7571
  150SAPE   O3216591   4.667   3.097  10.170 -0.0210  0.1720  0.5089
  150SAPE   C3216592   4.688   2.857  10.157 -1.0634 -1.0673  0.3522
  150SAPE   H2X16593   4.602   2.795  10.189 -0.9311  0.0453  3.1647
  150SAPE   H2Y16594   4.781   2.816  10.202 -0.3082 -1.4381 -1.4586
  150SAPE   C2316595   4.312   3.188  10.150 -0.5850  0.3246 -0.6740
  150SAPE   H3R16596   4.324   3.078  10.154  0.3639  0.4387 -0.2328
  150SAPE   H3S16597   4.414   3.230  10.135  0.5434 -0.1217  4.1027
  150SAPE   C2416598   4.218   3.222  10.045  0.6266 -0.1236  0.1361
  150SAPE   H4R16599   4.183   3.325  10.068  0.9452 -0.3572  1.8151
  150SAPE   H4S16600   4.127   3.159  10.053  0.7780 -0.5213 -1.1100
  150SAPE   C2516601   4.281   3.197   9.914  0.3764  0.4526  0.3986
  150SAPE   H5R16602   4.332   3.100   9.915 -0.5140 -0.0250  1.4815
  150SAPE   C2616603   4.297   3.280   9.814 -0.3852  0.0135  0.7900
  150SAPE   H6R16604   4.360   3.245   9.731 -0.8317  1.2388 -0.0930
  150SAPE   C2716605   4.257   3.427   9.795  0.1924  0.1034 -0.5439
  150SAPE   H7R16606   4.237   3.460   9.899  0.2457  0.6999 -0.7230
  150SAPE   H7S16607   4.160   3.432   9.741  0.9126  1.0393 -1.8186
  150SAPE   C2816608   4.349   3.522   9.719  0.0981  0.4613  0.0917
  150SAPE   H8R16609   4.425   3.577   9.776  0.6479 -0.5359  0.3259
  150SAPE   C2916610   4.346   3.529   9.582  0.8442 -0.2736 -0.8774
  150SAPE   H9R16611   4.415   3.603   9.539  1.6440  0.3807  1.4298
  150SAPE  C21016612   4.255   3.449   9.490 -0.1138 -0.8247  0.7281
  150SAPE  H10R16613   4.174   3.395   9.544 -0.5698 -2.1420 -1.1756
  150SAPE  H10S16614   4.301   3.362   9.438 -0.1839 -1.3084  1.4566
  150SAPE  C21116615   4.185   3.546   9.397 -0.3602  0.1487  0.9426
  150SAPE  H11R16616   4.096   3.591   9.445 -1.2026  0.7467 -1.0995
  150SAPE  C21216617   4.217   3.583   9.273 -0.0635 -0.8861  0.1606
  150SAPE  H12R16618   4.146   3.650   9.223  0.6425  1.4416  2.0845
  150SAPE  C21316619   4.343   3.543   9.193 -0.2617 -0.7652  0.1311
  150SAPE  H13R16620   4.345   3.441   9.149  0.8111 -0.3263 -0.8979
  150SAPE  H13S16621   4.426   3.542   9.267  0.5380  2.5202 -0.5490
  150SAPE  C21416622   4.371   3.659   9.102 -0.4715  0.2556 -1.0411
  150SAPE  H14R16623   4.386   3.751   9.160 -0.5033 -0.0299 -0.5735
  150SAPE  C21516624   4.378   3.664   8.970  1.0118 -0.1586  0.5539
  150SAPE  H15R16625   4.402   3.753   8.909  3.5285 -0.8842  0.3561
  150SAPE  C21616626   4.359   3.534   8.887 -0.3151 -0.1207 -0.7434
  150SAPE  H16R16627   4.269   3.477   8.916 -0.7465  0.5724 -0.6991
  150SAPE  H16S16628   4.449   3.474   8.911 -0.3291 -0.7473 -2.1527
  150SAPE  C21716629   4.352   3.564   8.741  0.0563 -0.0441 -0.5897
  150SAPE  H17R16630   4.369   3.477   8.674 -1.7756  0.0525 -1.2450
  150SAPE  H17S16631   4.425   3.644   8.716 -0.2249  0.9795  1.5767
  150SAPE  C21816632   4.224   3.622   8.696  0.3229  0.1041 -0.0983
  150SAPE  H18R16633   4.215   3.723   8.741 -0.0289  0.1109 -0.1792
  150SAPE  H18S16634   4.147   3.555   8.739 -0.3631  1.6914  1.2688
  150SAPE  C21916635   4.209   3.637   8.551  0.3481 -0.9602 -0.7570
  150SAPE  H19R16636   4.164   3.542   8.514  2.6776 -2.1600 -0.6607
  150SAPE  H19S16637   4.312   3.644   8.512  0.8469 -0.2638  0.6117
  150SAPE  C22016638   4.125   3.760   8.499 -0.4848 -0.0955 -0.3166
  150SAPE  H20R16639   4.110   3.759   8.389 -0.1933  0.9807 -0.3772
  150SAPE  H20S16640   4.176   3.855   8.526  0.9536 -0.4029 -1.8318
  150SAPE  H20T16641   4.031   3.759   8.558  0.2049 -0.7696  0.7961
  150SAPE   C3316642   4.714   2.857  10.004 -0.7770 -0.6451 -0.0869
  150SAPE   H3X16643   4.716   2.749   9.975  0.0300  0.1230 -3.2877
  150SAPE   H3Y16644   4.811   2.906   9.979 -0.7471 -1.7750 -2.4392
  150SAPE   C3416645   4.608   2.927   9.916 -0.8272 -0.7516  0.7286
  150SAPE   H4X16646   4.592   3.028   9.960 -0.4600 -0.7418  0.8445
  150SAPE   H4Y16647   4.512   2.872   9.914 -1.5902  0.5573 -0.0472
  150SAPE   C3516648   4.659   2.957   9.770 -0.5602 -0.0179 -0.3423
  150SAPE   H5X16649   4.671   2.866   9.707  0.0240 -0.4762  0.4105
  150SAPE   H5Y16650   4.763   2.993   9.779 -0.4904 -0.6345  2.3269
  150SAPE   C3616651   4.568   3.061   9.702  0.3152  0.3569  0.8635
  150SAPE   H6X16652   4.569   3.154   9.762 -1.3177  0.1952  1.1741
  150SAPE   H6Y16653   4.466   3.019   9.693  1.2693 -2.1142  0.8343
  150SAPE   C3716654   4.624   3.084   9.558  0.2176 -0.5835  0.1537
  150SAPE   H7X16655   4.627   2.997   9.489  2.1426  1.0579 -1.9904
  150SAPE   H7Y16656   4.731   3.110   9.573 -0.1726  1.3390 -0.0993
  150SAPE   C3816657   4.551   3.202   9.496 -0.8511 -0.5730 -0.2731
  150SAPE   H8X16658   4.526   3.279   9.572  2.1037 -0.2324  0.5083
  150SAPE   H8Y16659   4.450   3.170   9.465 -1.1469  0.7216 -0.7446
  150SAPE   C3916660   4.626   3.265   9.380 -0.1109 -0.0660  0.0953
  150SAPE   H9X16661   4.734   3.272   9.405  0.6065 -2.1848 -2.0305
  150SAPE   H9Y16662   4.595   3.371   9.365  1.1941  0.3201 -0.0099
  150SAPE  C31016663   4.629   3.188   9.247  0.3002  0.1382 -0.5130
  150SAPE  H10X16664   4.536   3.127   9.244  0.8485 -0.7825  0.7482
  150SAPE  H10Y16665   4.715   3.118   9.243 -0.3012 -0.5681 -2.0813
  150SAPE  C31116666   4.654   3.275   9.130 -0.1636  0.3565 -0.1393
  150SAPE  H11X16667   4.701   3.371   9.160  0.4443  0.1210 -0.3285
  150SAPE  H11Y16668   4.559   3.301   9.078 -0.3151 -0.1217 -0.1080
  150SAPE  C31216669   4.734   3.223   9.016  0.2137  0.3161 -0.1094
  150SAPE  H12X16670   4.700   3.125   8.976  1.2419 -0.0563 -0.1082
  150SAPE  H12Y16671   4.840   3.210   9.049 -0.0987 -0.6490  0.5588
  150SAPE  C31316672   4.737   3.310   8.891  0.2497 -0.1842 -0.1478
  150SAPE  H13X16673   4.755   3.417   8.913  0.7889  0.1355 -1.9893
  150SAPE  H13Y16674   4.635   3.307   8.844  0.0691  0.6659  0.1882
  150SAPE  C31416675   4.837   3.278   8.786 -0.7230  0.0751 -0.8611
  150SAPE  H14X16676   4.835   3.174   8.747  0.5198  0.4315 -1.9290
  150SAPE  H14Y16677   4.939   3.298   8.825 -1.7486 -0.3231  2.2938
  150SAPE  C31516678   4.808   3.354   8.659  0.5549  0.7971  0.5225
  150SAPE  H15X16679   4.814   3.462   8.683  2.0802  1.1984 -1.3850
  150SAPE  H15Y16680   4.706   3.319   8.633  1.7339 -4.3195  1.6954
  150SAPE  C31616681   4.902   3.323   8.533 -0.6990  0.4847 -0.1208
  150SAPE  H16X16682   4.922   3.215   8.514 -1.0169  0.7939 -2.6593
  150SAPE  H16Y16683   4.998   3.375   8.552 -0.5188  0.8543 -1.8708
  150SAPE  C31716684   4.859   3.386   8.398  0.4297  0.2464  0.1407
  150SAPE  H17X16685   4.845   3.496   8.392  0.1105  0.1353 -1.3644
  150SAPE  H17Y16686   4.752   3.357   8.388 -0.0512  2.0623 -0.2358
  150SAPE  C31816687   4.932   3.344   8.278 -0.7004 -1.0685  0.8161
  150SAPE  H18X16688   4.954   3.236   8.287 -2.1234 -1.2819  2.2426
  150SAPE  H18Y16689   5.032   3.392   8.280 -1.8099  1.4382  0.3526
  150SAPE  H18Z16690   4.871   3.359   8.186 -1.6552 -0.7994  1.4785
  151SAPE     N16691   2.573   0.675  10.623 -0.6993  0.1037  0.4000
  151SAPE   HN116692   2.649   0.707  10.560 -0.4187 -0.0740  0.6389
  151SAPE   HN216693   2.476   0.694  10.594 -1.3235  0.6217  2.6180
  151SAPE   HN316694   2.594   0.719  10.715  1.4514  1.0552 -0.4803
  151SAPE   C1216695   2.591   0.527  10.649  0.4759  0.0964  0.4250
  151SAPE  H12A16696   2.512   0.498  10.721  0.4394  0.4607  0.5305
  151SAPE  H12B16697   2.687   0.510  10.703  0.2686  1.2104  1.1567
  151SAPE   C1116698   2.581   0.454  10.507 -0.1659  0.3798 -0.3183
  151SAPE  H11A16699   2.476   0.471  10.474 -0.8764  0.6416  1.8732
  151SAPE  H11B16700   2.590   0.344  10.522  0.0831  0.3277 -0.8643
  151SAPE     P16701   2.804   0.442  10.382  0.2682 -0.1486 -0.2545
  151SAPE   O1316702   2.885   0.530  10.296  0.2613  0.1366 -0.1982
  151SAPE   O1416703   2.863   0.402  10.509 -0.1280  0.5081  0.1396
  151SAPE   O1216704   2.664   0.514  10.414  0.1613  0.0849  0.1929
  151SAPE   O1116705   2.760   0.311  10.306 -0.1981 -0.2544  0.2154
  151SAPE    C116706   2.661   0.320  10.200 -0.6443  0.1871  0.4740
  151SAPE    HA16707   2.560   0.338  10.242  0.7698  2.1180  3.4130
  151SAPE    HB16708   2.680   0.413  10.142 -3.0868  0.2668 -0.2763
  151SAPE    C216709   2.666   0.197  10.109 -0.0039 -0.4246  0.5286
  151SAPE    HS16710   2.607   0.222  10.018 -0.0169  0.8912  0.8793
  151SAPE   O2116711   2.619   0.077  10.168  0.2953  0.3018  0.5509
  151SAPE   C2116712   2.494   0.049  10.186 -0.1315  0.0621  0.9826
  151SAPE   O2216713   2.396   0.125  10.183 -0.1361  0.1128 -0.2467
  151SAPE   C2216714   2.472  -0.104  10.223  0.1165  0.2350  0.0383
  151SAPE   H2R16715   2.534  -0.125  10.312  0.2171  1.8335  0.3849
  151SAPE   H2S16716   2.371  -0.113  10.268  0.3101 -0.1578  0.3994
  151SAPE    C316717   2.816   0.178  10.074 -0.2443 -1.0700  0.2035
  151SAPE    HX16718   2.840   0.087  10.015 -0.1883 -2.0797  1.6927
  151SAPE    HY16719   2.862   0.160  10.174  1.1131 -1.8759 -0.5370
  151SAPE   O3116720   2.868   0.300  10.021 -0.5881  0.3364  0.0618
  151SAPE   C3116721   2.997   0.301  10.009 -0.1933  0.9006  0.2573
  151SAPE   O3216722   3.079   0.218  10.040 -0.1175  0.5270 -0.1440
  151SAPE   C3216723   3.041   0.440   9.955 -0.2065 -0.5507  0.0412
  151SAPE   H2X16724   3.149   0.464   9.966 -0.4652  0.8105 -0.2103
  151SAPE   H2Y16725   2.988   0.513  10.020 -0.8366 -1.3221  0.4139
  151SAPE   C2316726   2.507  -0.206  10.113 -0.4496 -0.0695  0.2970
  151SAPE   H3R16727   2.519  -0.301  10.170  0.2676  0.7885  1.6356
  151SAPE   H3S16728   2.609  -0.190  10.072 -0.4810  1.0408  0.6381
  151SAPE   C2416729   2.389  -0.230  10.010  0.3511 -0.1546 -0.7997
  151SAPE   H4R16730   2.307  -0.286  10.061 -0.2300 -0.6805 -2.2747
  151SAPE   H4S16731   2.425  -0.306   9.937  1.8867 -1.0943  0.8380
  151SAPE   C2516732   2.342  -0.109   9.943 -0.6648  0.1225 -0.1728
  151SAPE   H5R16733   2.272  -0.043   9.996 -0.2563 -1.1975  2.1384
  151SAPE   C2616734   2.394  -0.069   9.823  0.7147 -0.3985  0.0266
  151SAPE   H6R16735   2.355   0.026   9.784  1.6997  2.2411  4.6753
  151SAPE   C2716736   2.494  -0.133   9.725  0.4721 -0.0737  0.2305
  151SAPE   H7R16737   2.435  -0.213   9.675  2.0242  0.6908 -3.0428
  151SAPE   H7S16738   2.572  -0.182   9.788  2.3029  2.3016 -0.0455
  151SAPE   C2816739   2.555  -0.049   9.618  0.1633  0.0158 -0.1774
  151SAPE   H8R16740   2.605   0.042   9.655  1.5855 -1.1104  0.7470
  151SAPE   C2916741   2.558  -0.069   9.487  0.1301 -0.4601 -0.0673
  151SAPE   H9R16742   2.600   0.010   9.423 -1.7120  0.1513 -0.5678
  151SAPE  C21016743   2.496  -0.177   9.398 -0.2936  1.2680 -0.6233
  151SAPE  H10R16744   2.386  -0.164   9.410 -0.0868  2.0190  0.7042
  151SAPE  H10S16745   2.506  -0.267   9.463  0.2042  1.6697 -0.1338
  151SAPE  C21116746   2.554  -0.200   9.256  0.1333  0.4275  0.0959
  151SAPE  H11R16747   2.632  -0.276   9.237  0.0547  0.5580 -0.7697
  151SAPE  C21216748   2.526  -0.125   9.146 -0.2116 -0.4959 -0.4115
  151SAPE  H12R16749   2.573  -0.140   9.048  1.0072  0.2719  0.0247
  151SAPE  C21316750   2.439  -0.001   9.150  0.8157 -0.5019 -0.0936
  151SAPE  H13R16751   2.502   0.085   9.181  0.9347  0.0003 -1.6342
  151SAPE  H13S16752   2.363  -0.010   9.230 -1.3113  1.0612 -1.7979
  151SAPE  C21416753   2.357   0.039   9.028  0.1979  0.4052  0.6830
  151SAPE  H14R16754   2.251   0.046   9.057  0.0096 -2.3122  0.9253
  151SAPE  C21516755   2.388   0.076   8.904  0.0697  0.0930  0.6705
  151SAPE  H15R16756   2.316   0.109   8.828  0.8943 -1.2431 -0.7468
  151SAPE  C21616757   2.533   0.072   8.859 -0.1852  0.0932 -0.6163
  151SAPE  H16R16758   2.609   0.054   8.939  0.0501 -0.0599 -0.8680
  151SAPE  H16S16759   2.568   0.162   8.804  1.0099 -0.1015 -0.2081
  151SAPE  C21716760   2.553  -0.047   8.762  0.1166  0.6820 -0.1454
  151SAPE  H17R16761   2.471  -0.045   8.688 -1.6482 -0.1067  1.6817
  151SAPE  H17S16762   2.535  -0.136   8.825  0.0883  1.3763  0.8599
  151SAPE  C21816763   2.696  -0.057   8.704  0.4140  0.4900 -0.6915
  151SAPE  H18R16764   2.753  -0.063   8.799 -1.1354  0.8567  0.3052
  151SAPE  H18S16765   2.706   0.040   8.650  4.3450 -0.3691 -1.7783
  151SAPE  C21916766   2.734  -0.158   8.606  0.4175  0.5746  0.2375
  151SAPE  H19R16767   2.723  -0.265   8.635 -1.1258  0.8535  0.7252
  151SAPE  H19S16768   2.844  -0.158   8.591  0.4978  1.0530  0.7698
  151SAPE  C22016769   2.657  -0.145   8.474  0.0463  0.2231  0.3559
  151SAPE  H20R16770   2.680  -0.047   8.428 -0.2823 -0.7365 -2.0196
  151SAPE  H20S16771   2.547  -0.160   8.484 -0.6142  1.7193 -3.2734
  151SAPE  H20T16772   2.696  -0.221   8.403 -1.7653  0.4324 -0.9648
  151SAPE   C3316773   2.995   0.463   9.806 -0.1149  0.2193 -0.2823
  151SAPE   H3X16774   2.971   0.572   9.811 -1.8694 -0.0432 -1.8315
  151SAPE   H3Y16775   2.898   0.413   9.784 -0.3861  1.4473 -2.2164
  151SAPE   C3416776   3.097   0.452   9.696  0.4009  0.9168  0.7008
  151SAPE   H4X16777   3.138   0.349   9.701 -1.4503  0.0751 -0.5019
  151SAPE   H4Y16778   3.187   0.517   9.709  0.0476  1.4176  0.6397
  151SAPE   C3516779   3.033   0.469   9.559 -0.2414 -0.0822 -0.6098
  151SAPE   H5X16780   2.970   0.560   9.570  1.5959  1.1466  0.4049
  151SAPE   H5Y16781   2.971   0.381   9.534  2.2204 -2.0992 -0.0811
  151SAPE   C3616782   3.131   0.484   9.446 -0.0163 -0.3574  0.4479
  151SAPE   H6X16783   3.198   0.396   9.442  0.8793  0.2366  1.6735
  151SAPE   H6Y16784   3.202   0.562   9.482 -0.7542 -0.5588  2.4847
  151SAPE   C3716785   3.063   0.524   9.312 -0.0721 -1.1997  0.3347
  151SAPE   H7X16786   2.997   0.610   9.337 -0.9587 -1.7782  0.0364
  151SAPE   H7Y16787   3.002   0.437   9.280 -0.2737 -0.2038 -2.2422
  151SAPE   C3816788   3.172   0.569   9.211  0.7284  0.0971 -0.4020
  151SAPE   H8X16789   3.127   0.582   9.111 -1.0588  0.1541  0.3663
  151SAPE   H8Y16790   3.256   0.497   9.208  1.2397  0.6284  0.6709
  151SAPE   C3916791   3.237   0.700   9.245  0.4657 -0.1062 -0.3283
  151SAPE   H9X16792   3.326   0.675   9.308  0.4008 -0.5436 -0.4039
  151SAPE   H9Y16793   3.169   0.753   9.315  1.0869  0.9260 -0.4871
  151SAPE  C31016794   3.276   0.791   9.119 -0.5033  0.5350 -0.5296
  151SAPE  H10X16795   3.346   0.730   9.059 -1.2256 -1.7730  0.8395
  151SAPE  H10Y16796   3.332   0.875   9.164  1.1077 -1.9774  2.5432
  151SAPE  C31116797   3.158   0.835   9.031  0.4842 -0.3303 -0.3358
  151SAPE  H11X16798   3.086   0.883   9.102 -0.7024 -2.2116 -0.1884
  151SAPE  H11Y16799   3.104   0.749   8.985 -0.0560 -0.6058  0.7664
  151SAPE  C31216800   3.199   0.931   8.921  0.7035 -0.4773  0.8170
  151SAPE  H12X16801   3.256   1.021   8.954  1.4815  0.1126 -1.9060
  151SAPE  H12Y16802   3.111   0.978   8.872  0.8825  0.6589  1.5375
  151SAPE  C31316803   3.284   0.866   8.804 -0.3303 -0.6723  0.5714
  151SAPE  H13X16804   3.215   0.797   8.752  1.4932 -1.2378 -1.2320
  151SAPE  H13Y16805   3.362   0.805   8.854  0.7136 -0.0625 -0.2762
  151SAPE  C31416806   3.332   0.978   8.708 -1.3567  0.4292  0.4918
  151SAPE  H14X16807   3.401   1.039   8.770  0.5991 -1.1769  0.0123
  151SAPE  H14Y16808   3.258   1.052   8.671 -0.3944  0.2004 -2.1315
  151SAPE  C31516809   3.404   0.933   8.584 -0.1871  0.1732  0.5047
  151SAPE  H15X16810   3.343   0.850   8.545  3.2469 -1.5470 -1.6664
  151SAPE  H15Y16811   3.503   0.887   8.607 -0.4205  0.6513  2.6604
  151SAPE  C31616812   3.438   1.040   8.484  0.2444  0.6100 -0.7927
  151SAPE  H16X16813   3.493   1.120   8.539 -1.9270  0.7568  1.3382
  151SAPE  H16Y16814   3.358   1.098   8.433  0.6795 -0.7422 -3.1634
  151SAPE  C31716815   3.529   0.989   8.371 -0.8784 -0.5367  0.4719
  151SAPE  H17X16816   3.486   0.898   8.324 -2.2872  0.4665 -0.2691
  151SAPE  H17Y16817   3.623   0.960   8.421  0.2113  1.6065 -0.2416
  151SAPE  C31816818   3.576   1.098   8.275  0.6145  0.1872  0.1022
  151SAPE  H18X16819   3.653   1.045   8.215  0.5651 -1.2102  1.2118
  151SAPE  H18Y16820   3.623   1.178   8.336  0.4844  0.2806  0.0795
  151SAPE  H18Z16821   3.491   1.142   8.219 -1.7783 -1.7268  1.9542
  152SAPE     N16822   4.844   6.273  10.986  0.1753  0.0336 -0.4295
  152SAPE   HN116823   4.809   6.324  11.070 -0.4624  1.2078 -1.3858
  152SAPE   HN216824   4.840   6.170  11.004 -2.2032  0.0611 -0.4139
  152SAPE   HN316825   4.944   6.297  10.976  0.5817  0.2656  2.8589
  152SAPE   C1216826   4.751   6.299  10.872  0.2818  0.2951 -0.0256
  152SAPE  H12A16827   4.721   6.406  10.869 -0.8354 -0.0139 -2.3912
  152SAPE  H12B16828   4.662   6.235  10.891 -0.4912  0.5474 -2.4214
  152SAPE   C1116829   4.811   6.277  10.737  0.2461 -0.1871  0.4373
  152SAPE  H11A16830   4.735   6.294  10.657  0.1742 -0.2721  0.4870
  152SAPE  H11B16831   4.831   6.169  10.723 -2.2502 -0.6942  0.1812
  152SAPE     P16832   4.923   6.495  10.641  0.2569 -0.2381  0.0041
  152SAPE   O1316833   4.851   6.600  10.722  0.2621 -0.3403  0.0189
  152SAPE   O1416834   5.060   6.531  10.614 -0.2809  0.4832 -0.4770
  152SAPE   O1216835   4.930   6.362  10.715 -0.1813  0.5296  0.5640
  152SAPE   O1116836   4.836   6.467  10.511 -0.2657  0.3372 -0.0504
  152SAPE    C116837   4.874   6.364  10.415  0.3455 -0.6138 -0.1153
  152SAPE    HA16838   4.977   6.325  10.429 -0.1825 -1.7271  0.8922
  152SAPE    HB16839   4.801   6.281  10.431  1.5608 -1.5255  0.9434
  152SAPE    C216840   4.868   6.427  10.274 -0.2852  0.2255 -0.1353
  152SAPE    HS16841   4.952   6.389  10.212 -1.6029  1.5910 -2.9665
  152SAPE   O2116842   4.886   6.577  10.286  0.4951  0.0639  0.6200
  152SAPE   C2116843   5.000   6.628  10.232  0.3095  0.0904  0.4759
  152SAPE   O2216844   5.069   6.567  10.149  0.0937 -0.3487 -0.2200
  152SAPE   C2216845   5.014   6.763  10.293 -0.3137  0.2249 -0.8232
  152SAPE   H2R16846   4.924   6.819  10.261  0.2819  0.6127 -1.8632
  152SAPE   H2S16847   5.023   6.750  10.403  0.3408 -0.6187 -0.9694
  152SAPE    C316848   4.733   6.413  10.206  1.1317  0.1917 -0.2196
  152SAPE    HX16849   4.723   6.474  10.114 -0.5640 -0.7590 -0.7265
  152SAPE    HY16850   4.657   6.456  10.275  0.6710 -0.0488 -0.5639
  152SAPE   O3116851   4.699   6.276  10.176 -0.4493  0.3717 -0.0677
  152SAPE   C3116852   4.580   6.263  10.140  0.6322 -0.1455  0.1067
  152SAPE   O3216853   4.488   6.346  10.148 -0.2578  0.2454  0.2505
  152SAPE   C3216854   4.558   6.114  10.090 -0.7457 -0.3334  0.6849
  152SAPE   H2X16855   4.474   6.078  10.153 -1.6097  1.0817  0.3738
  152SAPE   H2Y16856   4.651   6.056  10.110  0.4288  0.5280 -1.8298
  152SAPE   C2316857   5.155   6.831  10.273  0.1142 -0.1485  0.9993
  152SAPE   H3R16858   5.175   6.833  10.164  2.1458 -0.5316  1.3127
  152SAPE   H3S16859   5.233   6.766  10.319  0.3277 -1.4655 -1.0665
  152SAPE   C2416860   5.169   6.973  10.333  0.4048 -0.6612  0.2776
  152SAPE   H4R16861   5.162   6.977  10.444  1.6305 -0.1865  0.3574
  152SAPE   H4S16862   5.095   7.041  10.287  0.7280 -2.2652 -2.8797
  152SAPE   C2516863   5.305   7.027  10.307 -0.4819 -0.0217  0.7258
  152SAPE   H5R16864   5.390   7.008  10.375  1.2605  1.2963 -0.9705
  152SAPE   C2616865   5.347   7.110  10.208 -0.0651  0.3803 -0.1607
  152SAPE   H6R16866   5.452   7.143  10.213 -0.6548  2.3988  0.0847
  152SAPE   C2716867   5.259   7.168  10.096  0.1725 -0.5193 -1.1104
  152SAPE   H7R16868   5.246   7.276  10.115  0.1781 -0.6422 -0.3784
  152SAPE   H7S16869   5.160   7.119  10.105  0.4618 -1.1925 -1.4602
  152SAPE   C2816870   5.314   7.149   9.956 -0.0252 -0.2654  0.0617
  152SAPE   H8R16871   5.292   7.053   9.907 -1.7350 -0.8272  1.7715
  152SAPE   C2916872   5.370   7.240   9.874 -0.3273 -0.3435 -0.1694
  152SAPE   H9R16873   5.395   7.217   9.770 -0.1587  0.8652 -0.4133
  152SAPE  C21016874   5.393   7.389   9.904 -0.2097 -0.0422 -0.3304
  152SAPE  H10R16875   5.350   7.414  10.003 -1.3216 -2.3247 -0.1662
  152SAPE  H10S16876   5.327   7.438   9.829 -0.4511  0.0388 -0.0660
  152SAPE  C21116877   5.539   7.426   9.885  0.1844 -0.7172 -0.4773
  152SAPE  H11R16878   5.603   7.408   9.973  0.9311  2.0046 -0.3816
  152SAPE  C21216879   5.587   7.464   9.771  0.2387 -0.1088  0.0103
  152SAPE  H12R16880   5.694   7.486   9.763  0.6060 -0.7760  2.3490
  152SAPE  C21316881   5.509   7.480   9.648  0.5546  0.9182  0.0577
  152SAPE  H13R16882   5.424   7.548   9.671 -0.3131 -0.6856  1.7971
  152SAPE  H13S16883   5.453   7.389   9.615 -1.7827  2.1548  0.3640
  152SAPE  C21416884   5.597   7.526   9.537 -0.2595 -0.0533 -0.0418
  152SAPE  H14R16885   5.705   7.505   9.544 -0.1527  0.7538  0.8526
  152SAPE  C21516886   5.552   7.589   9.427 -0.2017  0.3237 -0.8403
  152SAPE  H15R16887   5.627   7.627   9.355  1.1261 -0.4413  0.0942
  152SAPE  C21616888   5.404   7.622   9.400 -0.3689  0.6994 -1.2601
  152SAPE  H16R16889   5.372   7.692   9.481 -1.1889 -0.0776 -0.8906
  152SAPE  H16S16890   5.332   7.539   9.413  0.1971  0.4298  0.4263
  152SAPE  C21716891   5.369   7.679   9.258  0.6757 -0.2392 -0.3921
  152SAPE  H17R16892   5.260   7.694   9.242  0.9251  1.4243 -0.7136
  152SAPE  H17S16893   5.391   7.594   9.190 -1.9266 -2.6973  1.5546
  152SAPE  C21816894   5.449   7.802   9.228  0.5265  0.3796  0.1321
  152SAPE  H18R16895   5.549   7.795   9.276  1.7456 -3.2897 -2.5124
  152SAPE  H18S16896   5.401   7.895   9.267  2.5656  0.5634  2.4891
  152SAPE  C21916897   5.473   7.833   9.078  0.0600  0.2189  0.2839
  152SAPE  H19R16898   5.553   7.771   9.031 -1.2142 -1.9342  0.7858
  152SAPE  H19S16899   5.507   7.938   9.072 -0.2023  0.2831 -0.1270
  152SAPE  C22016900   5.346   7.829   8.990 -0.3156 -0.6321  0.4420
  152SAPE  H20R16901   5.366   7.853   8.883 -1.1501 -0.1368  0.3870
  152SAPE  H20S16902   5.277   7.911   9.020 -0.8278 -0.3708 -1.3155
  152SAPE  H20T16903   5.295   7.731   9.001 -1.2454 -0.4758 -1.8883
  152SAPE   C3316904   4.501   6.119   9.941  0.1736  0.1239  0.4680
  152SAPE   H3X16905   4.397   6.157   9.934  1.1917  3.2326  0.8412
  152SAPE   H3Y16906   4.506   6.012   9.909 -0.1539 -0.1515  1.2957
  152SAPE   C3416907   4.573   6.211   9.853 -0.1773 -0.7976 -0.8228
  152SAPE   H4X16908   4.677   6.225   9.889 -1.2475  0.8686  2.0045
  152SAPE   H4Y16909   4.527   6.312   9.856  1.1504 -0.1656  2.3823
  152SAPE   C3516910   4.572   6.156   9.713  0.8379  0.0647  0.0147
  152SAPE   H5X16911   4.640   6.228   9.661  0.9330  0.7215  1.0158
  152SAPE   H5Y16912   4.473   6.158   9.662  1.3060  1.5655 -0.9080
  152SAPE   C3616913   4.635   6.021   9.689  0.1812  0.1188 -0.0268
  152SAPE   H6X16914   4.571   5.939   9.729  0.8779  1.2842  3.9210
  152SAPE   H6Y16915   4.731   6.028   9.744 -0.2960  0.9336  0.7375
  152SAPE   C3716916   4.664   5.992   9.542  0.4148  0.7262 -0.1781
  152SAPE   H7X16917   4.570   5.965   9.489  0.6257 -0.2955 -0.0586
  152SAPE   H7Y16918   4.730   5.903   9.539 -1.1833 -0.4832 -1.6704
  152SAPE   C3816919   4.745   6.095   9.462  0.2042 -0.5706 -0.0972
  152SAPE   H8X16920   4.801   6.165   9.529  0.9186  0.0797 -1.3210
  152SAPE   H8Y16921   4.675   6.156   9.400 -0.5961 -3.7273 -2.5371
  152SAPE   C3916922   4.844   6.026   9.365 -0.1273 -0.5466 -0.0130
  152SAPE   H9X16923   4.900   5.949   9.423 -0.7697 -0.3028  0.9591
  152SAPE   H9Y16924   4.920   6.102   9.337  0.0107 -0.3773  0.7897
  152SAPE  C31016925   4.781   5.962   9.240  1.1811  0.0094 -0.2143
  152SAPE  H10X16926   4.704   6.028   9.193  0.9342  0.9726  1.4647
  152SAPE  H10Y16927   4.726   5.869   9.266 -3.1581  1.3966 -3.2400
  152SAPE  C31116928   4.893   5.923   9.142 -0.2530 -0.3033  0.0146
  152SAPE  H11X16929   4.862   5.834   9.083  1.1330 -1.1356  0.4783
  152SAPE  H11Y16930   4.981   5.898   9.206  1.5596  2.1633 -1.3696
  152SAPE  C31216931   4.912   6.039   9.046  0.1697 -0.0670 -0.4035
  152SAPE  H12X16932   5.011   6.019   8.999 -0.5168 -1.5473 -1.2957
  152SAPE  H12Y16933   4.916   6.137   9.099  0.2028 -0.2634 -0.0407
  152SAPE  C31316934   4.810   6.050   8.938  0.2555  0.2724 -0.0510
  152SAPE  H13X16935   4.817   6.150   8.891  2.3331  0.3285  0.2869
  152SAPE  H13Y16936   4.704   6.045   8.972 -0.2514  1.7886 -1.2918
  152SAPE  C31416937   4.825   5.934   8.829 -0.2599  0.6944 -0.0443
  152SAPE  H14X16938   4.749   5.855   8.845  0.0932  0.0974 -1.2013
  152SAPE  H14Y16939   4.921   5.887   8.859 -1.4457  0.1826  3.3364
  152SAPE  C31516940   4.813   5.994   8.687  0.0442  0.7868  0.2601
  152SAPE  H15X16941   4.889   6.072   8.664  0.2901  0.6845  0.7157
  152SAPE  H15Y16942   4.710   6.037   8.691 -0.6457 -0.8431  0.5472
  152SAPE  C31616943   4.809   5.893   8.571 -0.2894 -0.0083 -0.2211
  152SAPE  H16X16944   4.720   5.826   8.580 -0.3370  0.3014  2.9529
  152SAPE  H16Y16945   4.904   5.839   8.555 -0.6704 -0.1663 -2.1538
  152SAPE  C31716946   4.795   5.961   8.431 -0.0415  0.9633 -0.2638
  152SAPE  H17X16947   4.797   5.894   8.342 -2.6005  0.2892  0.1008
  152SAPE  H17Y16948   4.885   6.024   8.423  0.9666 -0.1125  1.8229
  152SAPE  C31816949   4.677   6.061   8.411 -0.7165 -0.3271 -0.6929
  152SAPE  H18X16950   4.581   6.028   8.455 -1.5608 -0.1044 -2.2994
  152SAPE  H18Y16951   4.640   6.097   8.312 -4.6365 -1.5380  0.1947
  152SAPE  H18Z16952   4.710   6.149   8.471  1.6273 -0.3758 -1.7865
  153SAPE     N16953   4.680   2.205  10.750 -0.5780 -0.2357  0.3855
  153SAPE   HN116954   4.686   2.261  10.838 -1.9137 -0.1168  0.4256
  153SAPE   HN216955   4.655   2.276  10.678  1.6704  1.4682  1.1749
  153SAPE   HN316956   4.608   2.130  10.761 -0.8501  0.0716  0.7564
  153SAPE   C1216957   4.816   2.155  10.731 -0.1125 -0.2086 -0.3386
  153SAPE  H12A16958   4.887   2.236  10.759  0.9103 -2.1394  3.1629
  153SAPE  H12B16959   4.836   2.130  10.624  0.8513  3.5880 -1.1866
  153SAPE   C1116960   4.836   2.037  10.827 -0.9099  0.5765  0.1157
  153SAPE  H11A16961   4.862   2.069  10.930  0.9135  1.3947 -0.5559
  153SAPE  H11B16962   4.924   1.976  10.798 -2.6042 -2.1685  0.3756
  153SAPE     P16963   4.677   1.842  10.722  0.2820  0.5624  0.0034
  153SAPE   O1316964   4.719   1.707  10.776  0.2372 -0.2087 -0.4810
  153SAPE   O1416965   4.532   1.859  10.688 -0.0121  0.1531 -0.2270
  153SAPE   O1216966   4.717   1.955  10.833 -0.3119  0.1353  0.0450
  153SAPE   O1116967   4.769   1.879  10.598  0.3659  0.3027 -0.8159
  153SAPE    C116968   4.810   1.796  10.496 -0.6543 -1.2439 -0.0708
  153SAPE    HA16969   4.745   1.706  10.486 -1.4792 -0.6488 -0.1285
  153SAPE    HB16970   4.801   1.850  10.399  3.8629 -0.3898 -0.2323
  153SAPE    C216971   4.958   1.745  10.512 -0.7874 -0.4202  0.0104
  153SAPE    HS16972   4.966   1.726  10.621 -0.0348 -3.0485 -0.4522
  153SAPE   O2116973   5.050   1.846  10.472 -0.1926 -0.3474 -0.2886
  153SAPE   C2116974   5.178   1.827  10.509 -1.0863 -0.5573  0.1955
  153SAPE   O2216975   5.217   1.740  10.586 -0.5735  0.0309  0.6199
  153SAPE   C2216976   5.277   1.935  10.462 -0.1501 -0.1175  0.3082
  153SAPE   H2R16977   5.229   2.008  10.393  2.5215  0.9950 -0.5169
  153SAPE   H2S16978   5.315   1.982  10.555 -3.5764  0.8163  1.3822
  153SAPE    C316979   4.972   1.622  10.424 -0.7501 -0.1290 -0.1955
  153SAPE    HX16980   4.889   1.556  10.455 -0.6823  0.3202  1.0170
  153SAPE    HY16981   5.058   1.558  10.452 -0.4688  0.9111  1.4870
  153SAPE   O3116982   4.985   1.650  10.284  0.0490 -0.9460  0.0758
  153SAPE   C3116983   4.884   1.604  10.208 -0.7835 -0.5132 -0.0018
  153SAPE   O3216984   4.783   1.545  10.248 -0.5299  0.2273 -0.1936
  153SAPE   C3216985   4.908   1.630  10.061 -0.2633  0.4509  0.4713
  153SAPE   H2X16986   5.005   1.684  10.052  0.7159 -1.0061  1.8771
  153SAPE   H2Y16987   4.820   1.685  10.020  0.0804  0.6925  0.0422
  153SAPE   C2316988   5.386   1.863  10.384  0.2999  0.7508 -0.3159
  153SAPE   H3R16989   5.433   1.779  10.440  1.0010 -0.8546 -3.1253
  153SAPE   H3S16990   5.467   1.927  10.343  0.3406  0.2126 -1.0852
  153SAPE   C2416991   5.319   1.801  10.254  0.2938  0.0595 -0.2719
  153SAPE   H4R16992   5.250   1.867  10.198 -1.5475 -1.4386  0.1135
  153SAPE   H4S16993   5.254   1.717  10.288 -0.6569  0.5720 -0.7830
  153SAPE   C2516994   5.411   1.739  10.149 -0.5633 -0.7370 -0.0349
  153SAPE   H5R16995   5.476   1.659  10.188 -0.6149  0.1291  1.9510
  153SAPE   C2616996   5.425   1.773  10.021  0.2108 -0.2736  0.1157
  153SAPE   H6R16997   5.507   1.725   9.967  1.9741  0.6852  1.8096
  153SAPE   C2716998   5.356   1.881   9.936  0.1255 -0.0397  0.0258
  153SAPE   H7R16999   5.338   1.965  10.006  0.6378 -2.2456  3.0190
  153SAPE   H7S17000   5.252   1.859   9.902 -0.5907  2.1057  0.6681
  153SAPE   C2817001   5.437   1.926   9.813  0.0639  0.4794 -0.3150
  153SAPE   H8R17002   5.530   1.975   9.845  0.3621 -2.0232  3.2040
  153SAPE   C2917003   5.411   1.920   9.679  0.0007 -0.0882  0.3467
  153SAPE   H9R17004   5.481   1.951   9.600 -2.3267  2.1863 -0.9986
  153SAPE  C21017005   5.286   1.859   9.618  0.9087  0.5708 -0.2245
  153SAPE  H10R17006   5.233   1.943   9.568  0.6367  0.6012  0.1090
  153SAPE  H10S17007   5.224   1.815   9.700  0.6897  0.0377 -0.6635
  153SAPE  C21117008   5.329   1.751   9.522  0.6942 -0.9889  0.1462
  153SAPE  H11R17009   5.342   1.651   9.566  0.3607 -1.5438 -0.9755
  153SAPE  C21217010   5.374   1.768   9.392  0.3398  0.2728 -0.1631
  153SAPE  H12R17011   5.395   1.683   9.326 -0.3562  0.0793 -0.1399
  153SAPE  C21317012   5.388   1.897   9.319  0.4464 -0.5381 -0.6077
  153SAPE  H13R17013   5.468   1.886   9.243  1.2110 -1.8909  0.3474
  153SAPE  H13S17014   5.434   1.972   9.386  0.5832 -0.8708 -0.3252
  153SAPE  C21417015   5.271   1.949   9.247  0.3294 -0.3895  0.9135
  153SAPE  H14R17016   5.198   1.994   9.316  1.0207  2.3716 -0.0334
  153SAPE  C21517017   5.236   1.955   9.115 -0.8103 -0.7486 -0.0956
  153SAPE  H15R17018   5.137   1.996   9.088 -1.3022 -1.1452  1.0122
  153SAPE  C21617019   5.319   1.883   9.013 -0.5616 -0.1042  0.3602
  153SAPE  H16R17020   5.425   1.910   9.033 -0.6607  1.3814 -0.8990
  153SAPE  H16S17021   5.295   1.925   8.913 -0.1099  0.3808  0.4469
  153SAPE  C21717022   5.297   1.731   9.003  0.0440  0.2257 -0.1612
  153SAPE  H17R17023   5.187   1.716   8.995  0.0735  1.1538 -3.4602
  153SAPE  H17S17024   5.324   1.690   9.103 -3.5573 -2.3276  0.0087
  153SAPE  C21817025   5.366   1.642   8.896  0.2096  0.1139  0.3034
  153SAPE  H18R17026   5.474   1.664   8.908 -0.0586  0.2041  3.0118
  153SAPE  H18S17027   5.328   1.682   8.799 -0.9030 -0.6754  0.3944
  153SAPE  C21917028   5.329   1.496   8.905  0.3040 -0.3348  0.8377
  153SAPE  H19R17029   5.223   1.475   8.882 -0.2776  1.2192  1.9217
  153SAPE  H19S17030   5.340   1.454   9.007  0.8079  1.0379  1.3775
  153SAPE  C22017031   5.403   1.405   8.804  0.1669 -0.4971  0.2220
  153SAPE  H20R17032   5.343   1.390   8.712 -1.5883 -0.8040  1.3742
  153SAPE  H20S17033   5.415   1.305   8.852 -3.3002 -1.1303  0.0068
  153SAPE  H20T17034   5.505   1.447   8.789  0.9703 -2.5443 -0.4735
  153SAPE   C3317035   4.921   1.488   9.994 -0.1484 -0.6721 -0.2274
  153SAPE   H3X17036   4.824   1.438  10.011 -1.4000  2.2581  2.1514
  153SAPE   H3Y17037   4.998   1.432  10.053 -2.4408 -1.1357  2.5452
  153SAPE   C3417038   4.973   1.499   9.850 -0.5127 -0.7380 -0.5696
  153SAPE   H4X17039   4.998   1.399   9.809  0.9194 -1.1138  1.0695
  153SAPE   H4Y17040   5.059   1.569   9.850 -1.5669  0.6031  0.6101
  153SAPE   C3517041   4.881   1.561   9.743  0.4222  0.3529  0.1962
  153SAPE   H5X17042   4.840   1.655   9.786  1.2585 -0.3607  2.7540
  153SAPE   H5Y17043   4.797   1.491   9.727 -0.1411  0.8719  0.8282
  153SAPE   C3617044   4.951   1.565   9.607 -0.0894  0.2581 -0.0585
  153SAPE   H6X17045   4.983   1.465   9.571  0.3830  0.7189 -0.9446
  153SAPE   H6Y17046   5.042   1.628   9.611 -0.5309  0.8714  0.5706
  153SAPE   C3717047   4.861   1.625   9.499  0.1400  0.2530  0.2687
  153SAPE   H7X17048   4.818   1.717   9.542  3.0431  1.7627  0.1877
  153SAPE   H7Y17049   4.794   1.540   9.472 -0.8954  0.8538  0.8988
  153SAPE   C3817050   4.940   1.681   9.379  0.2671  0.3889 -0.6941
  153SAPE   H8X17051   4.982   1.593   9.327 -0.4556 -0.4632  0.1192
  153SAPE   H8Y17052   5.018   1.749   9.419  2.3983 -2.4231  0.2880
  153SAPE   C3917053   4.849   1.769   9.289 -0.1331 -0.2136 -0.5021
  153SAPE   H9X17054   4.920   1.832   9.231  1.1476 -0.0926  1.1241
  153SAPE   H9Y17055   4.781   1.840   9.341  1.3943  0.8137  0.1879
  153SAPE  C31017056   4.779   1.680   9.187  0.5804 -0.2843 -0.4611
  153SAPE  H10X17057   4.685   1.653   9.240 -0.0494  1.3800 -0.6864
  153SAPE  H10Y17058   4.839   1.588   9.169  0.7339  0.0749 -1.9666
  153SAPE  C31117059   4.736   1.745   9.058 -0.6278 -0.0939 -0.1287
  153SAPE  H11X17060   4.699   1.848   9.078  3.8367  1.3403  1.9959
  153SAPE  H11Y17061   4.665   1.676   9.007  2.1783 -3.0494 -0.3186
  153SAPE  C31217062   4.851   1.773   8.962 -0.3076 -0.4804  1.0076
  153SAPE  H12X17063   4.908   1.679   8.946 -0.8571 -0.6753  0.0583
  153SAPE  H12Y17064   4.916   1.849   9.010 -0.4993 -0.0673  0.6246
  153SAPE  C31317065   4.806   1.818   8.818 -0.7505 -0.1870  0.2009
  153SAPE  H13X17066   4.760   1.918   8.833 -1.3944 -0.6257  1.3282
  153SAPE  H13Y17067   4.741   1.736   8.782 -2.8242  1.4378  0.0723
  153SAPE  C31417068   4.938   1.832   8.730 -0.4255 -0.1105 -0.3681
  153SAPE  H14X17069   4.983   1.730   8.728  1.6319  0.7760 -0.9962
  153SAPE  H14Y17070   5.019   1.887   8.782  0.1200 -0.7858 -0.4925
  153SAPE  C31517071   4.918   1.888   8.589  0.0406 -0.1809 -0.0375
  153SAPE  H15X17072   5.004   1.896   8.519 -0.7756  0.2032 -1.0204
  153SAPE  H15Y17073   4.879   1.989   8.613  0.1006 -0.0833 -0.3380
  153SAPE  C31617074   4.822   1.815   8.497 -0.6426  0.3052 -0.1864
  153SAPE  H16X17075   4.721   1.815   8.544 -0.1527  1.9423  0.9812
  153SAPE  H16Y17076   4.858   1.711   8.484  2.1559  1.4534 -3.0561
  153SAPE  C31717077   4.805   1.880   8.358  0.2957  0.0607  0.3933
  153SAPE  H17X17078   4.801   1.991   8.372  1.6970  0.2889 -0.7217
  153SAPE  H17Y17079   4.714   1.838   8.312  0.7688  1.6771 -2.1927
  153SAPE  C31817080   4.928   1.852   8.264  0.0592  0.4195 -0.3242
  153SAPE  H18X17081   4.933   1.745   8.233  0.9463  0.6396 -0.9523
  153SAPE  H18Y17082   5.023   1.878   8.314  0.0504 -0.4958  0.1993
  153SAPE  H18Z17083   4.914   1.913   8.172  0.1131  0.2487 -0.4459
  154SAPE     N17084   5.716   1.003  10.936 -0.4361 -0.0360  0.5840
  154SAPE   HN117085   5.648   1.040  10.866 -0.6317 -0.2061  0.6825
  154SAPE   HN217086   5.747   1.083  10.995 -0.8363  1.1332 -0.7470
  154SAPE   HN317087   5.795   0.965  10.879  0.4376  3.2886 -0.6588
  154SAPE   C1217088   5.668   0.896  11.027  0.3231  0.2562  0.1329
  154SAPE  H12A17089   5.585   0.947  11.080  1.4307  2.5563 -0.2413
  154SAPE  H12B17090   5.749   0.874  11.100 -1.5047 -2.7169  1.4667
  154SAPE   C1117091   5.629   0.775  10.944 -0.4346  0.3748 -0.6796
  154SAPE  H11A17092   5.552   0.809  10.871 -0.9062  2.1510  0.5705
  154SAPE  H11B17093   5.561   0.708  11.000  0.5000 -0.0004  0.0335
  154SAPE     P17094   5.728   0.584  10.799  0.7312 -0.0774 -0.2298
  154SAPE   O1317095   5.862   0.534  10.779 -0.0343 -0.3408 -0.2296
  154SAPE   O1417096   5.625   0.493  10.850  0.1703 -0.2581  0.5633
  154SAPE   O1217097   5.751   0.712  10.894 -0.2217  0.2380 -0.5102
  154SAPE   O1117098   5.674   0.647  10.666  0.7093 -0.2525  0.3409
  154SAPE    C117099   5.759   0.748  10.615  0.6048  0.3008  0.3402
  154SAPE    HA17100   5.727   0.839  10.671  0.5541  0.3021  0.3085
  154SAPE    HB17101   5.868   0.744  10.635  0.9993  0.9538 -1.4803
  154SAPE    C217102   5.743   0.774  10.467 -0.6047  0.3393 -0.7400
  154SAPE    HS17103   5.637   0.795  10.442 -0.8853 -0.1306  0.0123
  154SAPE   O2117104   5.792   0.652  10.410 -0.1634  0.4448 -0.4267
  154SAPE   C2117105   5.758   0.633  10.286 -0.5853 -0.2403  0.6223
  154SAPE   O2217106   5.669   0.690  10.230  0.2553  0.1106  0.2530
  154SAPE   C2217107   5.875   0.548  10.220  0.1281  0.1722  0.0891
  154SAPE   H2R17108   5.960   0.619  10.213 -0.3986  0.7567 -0.5050
  154SAPE   H2S17109   5.899   0.464  10.289  2.1443 -0.2737 -1.0797
  154SAPE    C317110   5.821   0.900  10.431 -0.6436 -0.5811  0.5609
  154SAPE    HX17111   5.922   0.899  10.476  0.4625  0.3209 -1.7369
  154SAPE    HY17112   5.776   0.989  10.480  2.7300  0.5193  1.9644
  154SAPE   O3117113   5.855   0.915  10.292  0.4878  0.2246  0.0145
  154SAPE   C3117114   5.782   0.990  10.209  0.0256  0.3674 -0.2505
  154SAPE   O3217115   5.681   1.052  10.240 -0.0582  0.1341 -0.3414
  154SAPE   C3217116   5.831   0.975  10.064 -0.5366  0.2196 -0.3593
  154SAPE   H2X17117   5.824   0.867  10.038 -0.3405  0.1642 -0.1838
  154SAPE   H2Y17118   5.934   1.013  10.057  0.1014 -0.3607  3.5181
  154SAPE   C2317119   5.842   0.491  10.078  0.1141  0.5238  0.6493
  154SAPE   H3R17120   5.931   0.434  10.044 -0.7125 -1.9378  2.3960
  154SAPE   H3S17121   5.830   0.585  10.019 -0.0658  0.4822  0.6188
  154SAPE   C2417122   5.721   0.398  10.085 -0.3156 -0.3802  0.3831
  154SAPE   H4R17123   5.625   0.454  10.095 -0.1591  0.4778 -2.1505
  154SAPE   H4S17124   5.725   0.329  10.171  3.4259 -0.1538  0.5229
  154SAPE   C2517125   5.697   0.319   9.961  0.2876  0.8113  1.1240
  154SAPE   H5R17126   5.625   0.358   9.887 -0.8057 -2.2957  0.3955
  154SAPE   C2617127   5.760   0.203   9.932  0.9361 -0.0689  0.3852
  154SAPE   H6R17128   5.739   0.155   9.836 -0.6100  1.7863 -0.2757
  154SAPE   C2717129   5.860   0.126  10.016  1.4477 -0.4209  0.6636
  154SAPE   H7R17130   5.852   0.165  10.120 -1.7810  0.0478  0.3336
  154SAPE   H7S17131   5.956   0.163   9.973  0.7381 -1.9939 -2.4977
  154SAPE   C2817132   5.855  -0.023  10.001  0.2337  0.9282  1.1184
  154SAPE   H8R17133   5.817  -0.084  10.083 -0.5425 -3.6066 -2.2488
  154SAPE   C2917134   5.919  -0.094   9.901 -0.0611 -0.4529  0.4249
  154SAPE   H9R17135   5.897  -0.202   9.900  1.1827 -0.7180 -0.3132
  154SAPE  C21017136   5.992  -0.040   9.787 -0.1092  0.1857  1.0017
  154SAPE  H10R17137   6.093  -0.019   9.828 -0.0578  1.1002  0.4267
  154SAPE  H10S17138   5.954   0.062   9.763 -1.9113 -0.9108 -1.1456
  154SAPE  C21117139   6.002  -0.135   9.671  1.0613 -0.1466 -0.1681
  154SAPE  H11R17140   6.071  -0.218   9.694  0.2243 -0.7003  0.4033
  154SAPE  C21217141   5.938  -0.124   9.548 -0.0777  0.4795 -1.5816
  154SAPE  H12R17142   5.940  -0.203   9.472  2.2481 -0.7540 -0.3145
  154SAPE  C21317143   5.854  -0.009   9.510  0.2003 -0.0225 -0.1522
  154SAPE  H13R17144   5.884   0.081   9.567  0.7821 -0.6003  0.4646
  154SAPE  H13S17145   5.746  -0.019   9.535 -0.1093  0.0821 -1.3648
  154SAPE  C21417146   5.846   0.021   9.364  0.2374  0.5754 -0.1338
  154SAPE  H14R17147   5.920  -0.028   9.299 -0.7908 -0.2470 -0.7111
  154SAPE  C21517148   5.773   0.129   9.317 -0.1883 -0.1593  0.5502
  154SAPE  H15R17149   5.778   0.158   9.211 -0.3442  0.2638  0.6591
  154SAPE  C21617150   5.696   0.227   9.405 -0.1321  0.5199  0.3203
  154SAPE  H16R17151   5.687   0.177   9.503  3.5922 -1.1116  0.0251
  154SAPE  H16S17152   5.598   0.246   9.357 -1.1340  2.8943  3.0566
  154SAPE  C21717153   5.764   0.366   9.430 -0.4762 -0.8314  0.0087
  154SAPE  H17R17154   5.856   0.345   9.487  0.7751  0.1044 -1.5831
  154SAPE  H17S17155   5.698   0.428   9.494 -0.1766  0.5745 -0.9790
  154SAPE  C21817156   5.793   0.445   9.300 -0.1115  0.0563 -0.0004
  154SAPE  H18R17157   5.860   0.394   9.228  0.7269  0.0731  0.7411
  154SAPE  H18S17158   5.845   0.539   9.328  1.3268 -0.6227 -0.3220
  154SAPE  C21917159   5.667   0.483   9.216  0.2874 -0.3084 -0.4964
  154SAPE  H19R17160   5.594   0.529   9.286 -1.4117 -1.9124 -1.1262
  154SAPE  H19S17161   5.611   0.392   9.184 -1.6817 -0.1042  2.0529
  154SAPE  C22017162   5.690   0.581   9.103 -0.0665 -0.3111 -0.6221
  154SAPE  H20R17163   5.740   0.676   9.131 -1.0030  0.2459 -0.7948
  154SAPE  H20S17164   5.597   0.611   9.051  0.3151  2.0008 -0.0706
  154SAPE  H20T17165   5.755   0.527   9.030  2.9812  0.9006  1.0259
  154SAPE   C3317166   5.739   1.042   9.963  0.3281 -0.1214  0.0814
  154SAPE   H3X17167   5.729   1.148   9.993  0.4966 -0.2756  0.7006
  154SAPE   H3Y17168   5.637   0.997   9.956  0.7934 -0.9174 -2.5618
  154SAPE   C3417169   5.803   1.030   9.821  0.9802 -0.0579 -0.1040
  154SAPE   H4X17170   5.760   0.939   9.773 -1.6142  0.6976  0.6514
  154SAPE   H4Y17171   5.912   1.017   9.837  0.7076 -1.1147  1.0723
  154SAPE   C3517172   5.767   1.151   9.739 -0.4853 -0.1840  0.4317
  154SAPE   H5X17173   5.794   1.246   9.789  1.6426  0.5316 -1.8668
  154SAPE   H5Y17174   5.656   1.152   9.746 -0.4295  0.3823  1.3337
  154SAPE   C3617175   5.814   1.148   9.590 -0.9497 -0.2234  0.5460
  154SAPE   H6X17176   5.748   1.216   9.532 -1.5013  0.6674  2.1665
  154SAPE   H6Y17177   5.813   1.041   9.557 -0.0609  0.5730 -2.4656
  154SAPE   C3717178   5.963   1.193   9.570  0.1977  0.5518 -0.1462
  154SAPE   H7X17179   6.014   1.175   9.667  0.4658  1.3257 -0.1319
  154SAPE   H7Y17180   5.969   1.304   9.578 -1.6450  0.6046  1.0620
  154SAPE   C3817181   6.035   1.136   9.444 -1.2302  0.0471 -0.5778
  154SAPE   H8X17182   6.009   1.028   9.437  0.0454 -0.2648 -0.8364
  154SAPE   H8Y17183   6.143   1.138   9.469 -1.6837 -0.1744  1.5812
  154SAPE   C3917184   6.007   1.209   9.317 -0.2503 -0.9308  0.3509
  154SAPE   H9X17185   6.071   1.300   9.309 -0.4468 -0.3074  4.1366
  154SAPE   H9Y17186   5.902   1.244   9.307 -0.2095 -0.8107  0.3296
  154SAPE  C31017187   6.040   1.123   9.195  0.1615  0.5318 -0.6589
  154SAPE  H10X17188   6.022   1.015   9.219 -2.5146  1.5273  2.7789
  154SAPE  H10Y17189   6.151   1.124   9.186  0.2004 -0.9246 -0.5849
  154SAPE  C31117190   5.985   1.173   9.065  0.2318 -0.5011  0.3587
  154SAPE  H11X17191   6.045   1.259   9.030  3.1439 -3.0927 -1.5396
  154SAPE  H11Y17192   5.883   1.212   9.085  0.0085 -0.6879 -0.3931
  154SAPE  C31217193   5.981   1.059   8.960 -0.2006  0.1849 -0.8124
  154SAPE  H12X17194   5.920   0.974   8.996 -2.6300  2.0363 -0.3138
  154SAPE  H12Y17195   6.089   1.032   8.953  0.1440  1.3784 -0.3627
  154SAPE  C31317196   5.928   1.098   8.817 -0.0797  0.2188  0.1336
  154SAPE  H13X17197   5.935   1.008   8.754  1.6935  0.3609  0.0738
  154SAPE  H13Y17198   5.997   1.178   8.781 -0.7046  1.3346  1.3337
  154SAPE  C31417199   5.781   1.143   8.816 -0.0455  0.2618 -0.1740
  154SAPE  H14X17200   5.768   1.217   8.897 -3.2069  2.0538 -2.0994
  154SAPE  H14Y17201   5.721   1.052   8.839 -0.2559  0.0407 -1.5096
  154SAPE  C31517202   5.747   1.207   8.687 -0.6517 -0.0307  0.2565
  154SAPE  H15X17203   5.819   1.290   8.669 -1.3402  0.7073  0.8175
  154SAPE  H15Y17204   5.647   1.253   8.698 -0.9354 -0.7209  0.6192
  154SAPE  C31617205   5.734   1.113   8.559 -0.5092  0.4936 -0.2545
  154SAPE  H16X17206   5.831   1.067   8.529 -0.8199  0.0768 -0.6288
  154SAPE  H16Y17207   5.716   1.173   8.467  0.1791 -0.7541 -1.2351
  154SAPE  C31717208   5.631   1.005   8.564 -0.2361 -0.1109  0.5141
  154SAPE  H17X17209   5.669   0.918   8.622 -0.1704 -0.8262 -0.5674
  154SAPE  H17Y17210   5.616   0.953   8.467 -3.4739 -2.9040  2.2921
  154SAPE  C31817211   5.485   1.048   8.581 -0.0687  0.0551 -0.3485
  154SAPE  H18X17212   5.468   1.148   8.537 -1.3651  0.1097  0.2502
  154SAPE  H18Y17213   5.453   1.059   8.687 -0.0859  2.3262 -0.5521
  154SAPE  H18Z17214   5.409   0.987   8.527 -1.4124  0.3748  1.1103
  155SAPE     N17215   6.307   0.701  10.923  0.5157 -0.5954 -0.2833
  155SAPE   HN117216   6.276   0.654  10.835  2.2087  0.5865 -1.5803
  155SAPE   HN217217   6.354   0.630  10.983  1.4735 -0.1489 -0.4704
  155SAPE   HN317218   6.223   0.735  10.973 -0.6556  1.2120 -3.2364
  155SAPE   C1217219   6.409   0.809  10.883 -0.4777  0.0661  0.5161
  155SAPE  H12A17220   6.491   0.768  10.819 -1.3652  2.0898 -2.1200
  155SAPE  H12B17221   6.442   0.863  10.974  1.9710 -0.3955 -0.0228
  155SAPE   C1117222   6.342   0.916  10.800 -0.3545  0.7717  0.4390
  155SAPE  H11A17223   6.338   0.868  10.700  0.6938 -2.5809  1.8476
  155SAPE  H11B17224   6.406   1.007  10.796  1.1370 -0.2866 -0.7152
  155SAPE     P17225   6.087   0.963  10.749 -0.0438 -0.0138  0.2438
  155SAPE   O1317226   6.099   0.872  10.638 -0.0981  0.2808  0.0467
  155SAPE   O1417227   5.959   0.957  10.823  0.3496 -0.7423  0.8069
  155SAPE   O1217228   6.208   0.939  10.851  0.6084 -0.1582 -0.1388
  155SAPE   O1117229   6.116   1.110  10.688  0.4169  0.5435  0.1588
  155SAPE    C117230   6.181   1.221  10.751 -0.0966  0.6720  1.0187
  155SAPE    HA17231   6.107   1.270  10.818 -1.3610 -0.0600  0.1968
  155SAPE    HB17232   6.263   1.186  10.817  0.2711  0.9828  0.7379
  155SAPE    C217233   6.263   1.310  10.651 -0.4181  0.2214 -0.7100
  155SAPE    HS17234   6.187   1.377  10.605 -2.0440  0.9860  2.7386
  155SAPE   O2117235   6.335   1.223  10.556 -0.1334  0.5396 -0.1053
  155SAPE   C2117236   6.261   1.202  10.442 -0.1053 -0.1172  0.4970
  155SAPE   O2217237   6.160   1.265  10.413  0.4167 -1.1291 -0.3880
  155SAPE   C2217238   6.324   1.081  10.366 -0.2766 -0.0194 -0.1601
  155SAPE   H2R17239   6.413   1.121  10.313 -1.6593  2.5783 -0.6622
  155SAPE   H2S17240   6.348   1.007  10.446 -1.2358 -0.8516 -0.6298
  155SAPE    C317241   6.357   1.415  10.719 -0.2661  0.1707 -0.0611
  155SAPE    HX17242   6.416   1.346  10.782 -0.3600 -0.2845 -0.4611
  155SAPE    HY17243   6.311   1.492  10.785 -0.4353  0.5122 -0.5676
  155SAPE   O3117244   6.457   1.471  10.628  0.2554 -0.1542 -0.1799
  155SAPE   C3117245   6.454   1.589  10.583  0.1134 -0.5315 -0.4713
  155SAPE   O3217246   6.361   1.673  10.600 -0.4603  0.5241 -0.0706
  155SAPE   C3217247   6.582   1.625  10.504 -0.0756  0.0539  0.4169
  155SAPE   H2X17248   6.614   1.529  10.457 -1.5332 -0.0747 -0.3781
  155SAPE   H2Y17249   6.665   1.670  10.562  1.6445 -0.3436 -1.6100
  155SAPE   C2317250   6.223   1.029  10.266 -0.2166  0.5088 -0.1935
  155SAPE   H3R17251   6.199   1.100  10.185  0.7719  0.8884 -0.1596
  155SAPE   H3S17252   6.132   1.001  10.324 -0.5688  0.6717 -0.6593
  155SAPE   C2417253   6.268   0.901  10.194  0.3064 -0.5421  0.7536
  155SAPE   H4R17254   6.185   0.857  10.134  0.8311 -0.3358 -0.1487
  155SAPE   H4S17255   6.281   0.814  10.262 -2.8122 -1.6115  0.1674
  155SAPE   C2517256   6.389   0.929  10.099 -0.6985 -0.2955  0.2158
  155SAPE   H5R17257   6.484   0.905  10.148  0.8873  1.7949 -1.6456
  155SAPE   C2617258   6.395   0.934   9.968 -0.0234 -0.1390  0.0067
  155SAPE   H6R17259   6.493   0.947   9.920 -0.0212 -2.7620 -0.8328
  155SAPE   C2717260   6.278   0.927   9.873  0.4841 -0.5127  0.2371
  155SAPE   H7R17261   6.190   0.980   9.915  0.7882  0.5043 -0.3685
  155SAPE   H7S17262   6.238   0.824   9.866 -0.3853 -0.1710  0.0382
  155SAPE   C2817263   6.299   0.978   9.734  0.5156  0.4768 -0.1978
  155SAPE   H8R17264   6.305   1.088   9.732 -4.0750  0.9119 -1.0475
  155SAPE   C2917265   6.280   0.904   9.618  0.6869 -0.2567  0.6346
  155SAPE   H9R17266   6.324   0.947   9.527  3.8982  0.2727  2.2863
  155SAPE  C21017267   6.230   0.763   9.603 -0.1466 -0.6352 -0.1245
  155SAPE  H10R17268   6.126   0.762   9.565 -1.0765  0.0176  2.2500
  155SAPE  H10S17269   6.206   0.710   9.697  0.4253 -2.1019 -0.7745
  155SAPE  C21117270   6.312   0.677   9.513 -0.0453  0.6182 -0.0886
  155SAPE  H11R17271   6.386   0.622   9.572  0.3751  0.0511 -1.1221
  155SAPE  C21217272   6.302   0.660   9.379 -0.2155 -0.0453 -0.1908
  155SAPE  H12R17273   6.380   0.593   9.339  1.9910  2.4809 -0.4070
  155SAPE  C21317274   6.215   0.732   9.284  0.0512 -0.1997  0.0725
  155SAPE  H13R17275   6.268   0.814   9.231 -0.7387 -0.7722 -1.6790
  155SAPE  H13S17276   6.131   0.780   9.340  0.4970 -0.0156  0.5880
  155SAPE  C21417277   6.154   0.630   9.187 -0.4201  0.6743  0.0348
  155SAPE  H14R17278   6.108   0.538   9.227  1.7206 -0.1912  0.7004
  155SAPE  C21517279   6.152   0.647   9.058  0.1067  0.2246 -0.3322
  155SAPE  H15R17280   6.091   0.570   9.008 -1.6662  0.7082  0.9583
  155SAPE  C21617281   6.200   0.757   8.980  0.5482 -0.3106  0.2536
  155SAPE  H16R17282   6.282   0.821   9.021  0.5202  0.5346 -0.9523
  155SAPE  H16S17283   6.110   0.820   8.963  1.7101  1.2635 -0.3448
  155SAPE  C21717284   6.240   0.702   8.843  0.4425 -0.3704  0.0405
  155SAPE  H17R17285   6.269   0.783   8.773 -1.2892  0.5459  0.3150
  155SAPE  H17S17286   6.162   0.641   8.792  0.5495  0.3172 -0.9725
  155SAPE  C21817287   6.372   0.618   8.858  0.6863  0.2593 -0.1215
  155SAPE  H18R17288   6.346   0.525   8.914  0.5365 -0.3264 -1.1279
  155SAPE  H18S17289   6.452   0.674   8.911  0.1687 -0.5339  1.5800
  155SAPE  C21917290   6.437   0.561   8.727 -0.3992 -0.8588  0.6785
  155SAPE  H19R17291   6.491   0.643   8.674 -1.5555 -0.1757  0.5193
  155SAPE  H19S17292   6.346   0.529   8.671 -0.8898  0.0317  0.9396
  155SAPE  C22017293   6.534   0.445   8.754  0.6801 -0.3828 -0.2878
  155SAPE  H20R17294   6.607   0.494   8.820  0.0737  0.0651  0.0620
  155SAPE  H20S17295   6.565   0.389   8.663  1.4482 -0.7162  0.1726
  155SAPE  H20T17296   6.484   0.362   8.809  2.7294 -2.8880 -1.9511
  155SAPE   C3317297   6.546   1.719  10.382  0.2299 -0.0148  0.3329
  155SAPE   H3X17298   6.507   1.813  10.426  1.0237  0.2814  0.4227
  155SAPE   H3Y17299   6.456   1.680  10.331 -0.2223  0.6039  0.6454
  155SAPE   C3417300   6.661   1.745  10.287 -0.4273 -0.1626  0.0699
  155SAPE   H4X17301   6.724   1.657  10.261 -0.8211 -0.5780  0.4959
  155SAPE   H4Y17302   6.730   1.822  10.327 -2.3225  1.8509 -0.3338
  155SAPE   C3517303   6.618   1.810  10.156  0.5630 -0.0487 -0.5554
  155SAPE   H5X17304   6.557   1.898  10.185 -2.2655 -1.7384 -1.0634
  155SAPE   H5Y17305   6.543   1.743  10.108 -0.7328  1.2074 -0.3399
  155SAPE   C3617306   6.736   1.829  10.067  0.2342 -0.1830  0.5347
  155SAPE   H6X17307   6.792   1.734  10.051  2.0775  0.7801  0.9320
  155SAPE   H6Y17308   6.799   1.900  10.125  0.4322 -0.4319  0.6255
  155SAPE   C3717309   6.703   1.901   9.934 -0.0801  1.0255  0.5026
  155SAPE   H7X17310   6.666   2.003   9.956  1.0080  1.2114  1.5971
  155SAPE   H7Y17311   6.616   1.850   9.888 -0.5893  1.9164  0.4707
  155SAPE   C3817312   6.823   1.898   9.835 -0.1930  0.1658 -0.3457
  155SAPE   H8X17313   6.857   1.793   9.821  0.3831  0.4581 -1.2439
  155SAPE   H8Y17314   6.909   1.952   9.879 -1.4139  0.5340  1.6853
  155SAPE   C3917315   6.779   1.951   9.700 -0.1329  0.1783 -0.0873
  155SAPE   H9X17316   6.754   2.059   9.702 -0.0161  0.2578 -1.4236
  155SAPE   H9Y17317   6.695   1.883   9.672  0.5108 -0.1042 -1.4380
  155SAPE  C31017318   6.882   1.934   9.589  0.3737  0.7236  0.6888
  155SAPE  H10X17319   6.914   1.828   9.584 -0.3441  0.5587 -1.3738
  155SAPE  H10Y17320   6.975   1.991   9.610  2.0488 -2.1707  1.6587
  155SAPE  C31117321   6.827   1.967   9.452 -0.5940 -0.8714 -0.2789
  155SAPE  H11X17322   6.771   2.061   9.470 -1.9241 -1.2982 -1.9275
  155SAPE  H11Y17323   6.746   1.896   9.422 -0.9850 -0.5311 -0.0363
  155SAPE  C31217324   6.933   1.970   9.341  0.3078  0.2935 -0.2411
  155SAPE  H12X17325   6.976   1.868   9.328  3.7585  1.5272  0.5787
  155SAPE  H12Y17326   7.021   2.037   9.352  1.0710 -0.3049 -2.2518
  155SAPE  C31317327   6.879   2.012   9.201  0.1895 -0.5244  0.3228
  155SAPE  H13X17328   6.819   2.105   9.206  0.0552 -0.5680 -0.4135
  155SAPE  H13Y17329   6.810   1.927   9.179  0.7757 -1.3061  1.3612
  155SAPE  C31417330   6.986   1.999   9.087  0.2091 -0.1163 -0.0106
  155SAPE  H14X17331   7.019   1.894   9.072 -0.0606 -0.0232 -1.4421
  155SAPE  H14Y17332   7.068   2.066   9.121  0.0209  0.3890 -0.5316
  155SAPE  C31517333   6.932   2.025   8.940 -0.1591  0.1108  0.6129
  155SAPE  H15X17334   6.901   2.131   8.936 -0.3921  0.0081 -0.4049
  155SAPE  H15Y17335   6.844   1.957   8.932 -0.3639  0.4201  0.2075
  155SAPE  C31617336   7.036   1.998   8.830  0.1220 -0.8388 -1.1567
  155SAPE  H16X17337   7.060   1.889   8.826  3.4742 -0.3155  0.7603
  155SAPE  H16Y17338   7.126   2.055   8.861  0.7535 -1.0875 -2.4611
  155SAPE  C31717339   6.995   2.057   8.695  0.2954  0.1927  0.1097
  155SAPE  H17X17340   6.901   2.013   8.657  0.2793 -1.2263  1.6927
  155SAPE  H17Y17341   7.077   2.039   8.622  0.3239  0.9467 -0.0538
  155SAPE  C31817342   6.978   2.212   8.693  0.0592 -0.3139  0.3113
  155SAPE  H18X17343   6.954   2.256   8.594 -0.0834  0.4000  0.6605
  155SAPE  H18Y17344   7.067   2.265   8.732 -0.7073  1.4659 -0.2633
  155SAPE  H18Z17345   6.893   2.243   8.758  0.9427  2.5957  0.1935
  156SAPE     N17346   3.571   5.863  10.760 -0.3392  0.1567  0.4665
  156SAPE   HN117347   3.547   5.768  10.795  0.1990 -0.3836 -0.5931
  156SAPE   HN217348   3.648   5.899  10.820 -0.0829  0.4199 -0.0209
  156SAPE   HN317349   3.483   5.919  10.763 -0.3459  0.1435  0.5246
  156SAPE   C1217350   3.640   5.869  10.629  0.2409  0.0789  0.0266
  156SAPE  H12A17351   3.569   5.833  10.551  0.7229  1.8473 -1.3072
  156SAPE  H12B17352   3.734   5.809  10.630 -0.7493 -1.6559 -2.2669
  156SAPE   C1117353   3.673   6.018  10.583  0.5627 -0.0687 -0.9088
  156SAPE  H11A17354   3.577   6.066  10.554  0.9824  0.7186 -1.0411
  156SAPE  H11B17355   3.720   6.004  10.483  2.0279  0.4964 -0.3285
  156SAPE     P17356   3.712   6.209  10.759 -0.0488  0.2933 -0.1512
  156SAPE   O1317357   3.612   6.154  10.859  0.1770 -0.7227 -0.0845
  156SAPE   O1417358   3.838   6.256  10.817 -0.4300 -0.7814  0.4150
  156SAPE   O1217359   3.760   6.091  10.665  0.3519 -0.1810  0.2296
  156SAPE   O1117360   3.643   6.318  10.664 -0.4358 -0.1356  0.1013
  156SAPE    C117361   3.723   6.398  10.574  0.0943  0.2992  0.4779
  156SAPE    HA17362   3.818   6.349  10.546 -0.4576 -0.5629  0.0750
  156SAPE    HB17363   3.660   6.416  10.485  0.6814  0.7052  0.1408
  156SAPE    C217364   3.754   6.537  10.629 -0.5893  0.0138  0.3784
  156SAPE    HS17365   3.784   6.525  10.736  0.1483 -3.4939 -0.1143
  156SAPE   O2117366   3.633   6.619  10.604 -0.3309  0.3361 -0.0078
  156SAPE   C2117367   3.620   6.728  10.662 -0.0845  0.2383 -0.3146
  156SAPE   O2217368   3.702   6.764  10.743  0.0995 -0.6041  0.1309
  156SAPE   C2217369   3.518   6.817  10.605 -0.3823  0.2062  0.0505
  156SAPE   H2R17370   3.424   6.764  10.577 -0.7466  1.7100 -1.7852
  156SAPE   H2S17371   3.492   6.883  10.691 -1.1516 -0.1358  0.0921
  156SAPE    C317372   3.878   6.596  10.560 -0.0031  0.4687  0.0429
  156SAPE    HX17373   3.968   6.548  10.603 -1.2260 -2.2005 -0.1562
  156SAPE    HY17374   3.882   6.706  10.573  0.3870  0.4882 -0.2360
  156SAPE   O3117375   3.891   6.555  10.419  0.1832 -0.2317 -0.2414
  156SAPE   C3117376   3.999   6.590  10.361 -0.2826 -0.0229 -0.4816
  156SAPE   O3217377   4.092   6.654  10.415  0.7993  0.3237  0.2263
  156SAPE   C3217378   3.991   6.547  10.212 -0.3685  0.0514  0.7101
  156SAPE   H2X17379   3.934   6.625  10.157 -0.8918  0.2672  1.5386
  156SAPE   H2Y17380   3.932   6.453  10.206  0.7544 -0.8001  2.2382
  156SAPE   C2317381   3.572   6.916  10.499  0.4845  0.0947 -0.1271
  156SAPE   H3R17382   3.663   6.964  10.538  1.5130 -2.2553  0.5604
  156SAPE   H3S17383   3.497   6.996  10.482  0.9866  0.9306  1.3687
  156SAPE   C2417384   3.606   6.855  10.369 -0.1945  0.0298  0.1725
  156SAPE   H4R17385   3.687   6.779  10.372  1.9705  2.1715 -0.7923
  156SAPE   H4S17386   3.632   6.941  10.304 -1.5645 -0.6556 -1.3610
  156SAPE   C2517387   3.486   6.795  10.298 -0.5172  0.6402  0.0300
  156SAPE   H5R17388   3.389   6.846  10.309 -1.0521 -0.2513 -0.4148
  156SAPE   C2617389   3.507   6.694  10.211  0.0097 -0.0584 -0.1262
  156SAPE   H6R17390   3.421   6.641  10.167  0.1058  0.8556 -1.4886
  156SAPE   C2717391   3.632   6.626  10.178 -0.6306 -0.1429 -0.2421
  156SAPE   H7R17392   3.667   6.568  10.266 -0.2316 -2.6821 -1.9642
  156SAPE   H7S17393   3.711   6.701  10.153  2.2203 -2.5023  1.0411
  156SAPE   C2817394   3.632   6.523  10.071  0.0370  0.0931 -0.0301
  156SAPE   H8R17395   3.668   6.427  10.110  0.5479  0.9319  1.6652
  156SAPE   C2917396   3.621   6.554   9.939 -0.2248  0.4532 -0.4863
  156SAPE   H9R17397   3.610   6.461   9.881  1.3828  1.0897 -1.8630
  156SAPE  C21017398   3.600   6.683   9.878  0.0433  0.0446 -0.0618
  156SAPE  H10R17399   3.533   6.749   9.936  0.2022  1.3486 -1.3010
  156SAPE  H10S17400   3.549   6.669   9.780  0.0921 -0.5571 -0.0036
  156SAPE  C21117401   3.727   6.757   9.847 -0.1998  0.0842 -0.0857
  156SAPE  H11R17402   3.773   6.805   9.934 -0.8995 -1.4861  1.2133
  156SAPE  C21217403   3.781   6.779   9.723  0.3371  0.2761  0.1140
  156SAPE  H12R17404   3.864   6.851   9.716  0.7708 -0.3175 -1.3131
  156SAPE  C21317405   3.733   6.726   9.590  0.0522 -0.1734  0.4998
  156SAPE  H13R17406   3.684   6.814   9.543 -1.2462 -1.0387  0.1701
  156SAPE  H13S17407   3.653   6.650   9.608  0.5505 -0.0032  4.2911
  156SAPE  C21417408   3.827   6.663   9.490  0.3438  0.5767  0.2538
  156SAPE  H14R17409   3.774   6.582   9.438  1.6501  0.2173 -0.5577
  156SAPE  C21517410   3.942   6.712   9.443  0.7792 -0.4435 -0.1595
  156SAPE  H15R17411   3.992   6.638   9.378  0.9276 -1.3653  0.9824
  156SAPE  C21617412   4.002   6.850   9.473  0.0067 -0.5494  0.0476
  156SAPE  H16R17413   4.082   6.843   9.549  0.0630  1.4544  0.2124
  156SAPE  H16S17414   3.936   6.921   9.528  2.5569  0.3443  2.1177
  156SAPE  C21717415   4.064   6.901   9.337  0.2520  0.3660  0.1269
  156SAPE  H17R17416   4.096   7.006   9.356  0.5192  0.3199 -0.0841
  156SAPE  H17S17417   3.983   6.907   9.261  0.3507 -0.4959 -0.0534
  156SAPE  C21817418   4.184   6.812   9.299 -0.9501  0.1253  0.0251
  156SAPE  H18R17419   4.169   6.702   9.294  0.6101 -0.1329  0.5145
  156SAPE  H18S17420   4.264   6.825   9.375 -1.1653 -0.7126  0.4118
  156SAPE  C21917421   4.255   6.863   9.172 -0.0407  0.3440 -0.4891
  156SAPE  H19R17422   4.358   6.824   9.159  1.2625  2.7284  1.6279
  156SAPE  H19S17423   4.271   6.973   9.181 -0.7109  0.4134 -0.1419
  156SAPE  C22017424   4.170   6.830   9.047  0.6729 -0.5246 -0.0032
  156SAPE  H20R17425   4.072   6.882   9.056  0.6871  0.0057 -2.1913
  156SAPE  H20S17426   4.137   6.724   9.054  0.8731 -0.4874  2.1069
  156SAPE  H20T17427   4.220   6.845   8.949  0.5935  0.1010  0.0513
  156SAPE   C3317428   4.130   6.527  10.148 -0.1621  0.7679 -1.1018
  156SAPE   H3X17429   4.187   6.447  10.199  0.8464  0.8158 -2.1209
  156SAPE   H3Y17430   4.176   6.627  10.157  0.7812  0.1438  2.3072
  156SAPE   C3417431   4.111   6.490   9.998 -0.0576 -0.0833 -0.3763
  156SAPE   H4X17432   4.037   6.551   9.943 -0.9742 -0.0371  0.8775
  156SAPE   H4Y17433   4.074   6.385   9.998 -2.5167  0.5937  3.5679
  156SAPE   C3517434   4.242   6.509   9.920 -0.2213 -0.6694 -0.1906
  156SAPE   H5X17435   4.323   6.444   9.960 -0.1352  0.7335  2.1179
  156SAPE   H5Y17436   4.273   6.614   9.940 -0.8834 -0.4793 -0.1447
  156SAPE   C3617437   4.214   6.480   9.774  0.5278 -0.1445 -0.2781
  156SAPE   H6X17438   4.130   6.549   9.752 -0.8582 -0.8705  2.2927
  156SAPE   H6Y17439   4.168   6.379   9.771  2.4797 -1.1287  0.5410
  156SAPE   C3717440   4.334   6.495   9.676  1.3884 -0.1525  0.0639
  156SAPE   H7X17441   4.426   6.459   9.728  0.6363 -0.1162  1.4753
  156SAPE   H7Y17442   4.344   6.606   9.669 -0.5338  0.1623  1.4864
  156SAPE   C3817443   4.286   6.436   9.539  0.1919 -1.0245  0.6072
  156SAPE   H8X17444   4.182   6.464   9.515 -0.0867 -3.2732 -1.1777
  156SAPE   H8Y17445   4.296   6.326   9.545  0.5267 -1.1267 -1.1329
  156SAPE   C3917446   4.385   6.475   9.425 -0.3241 -0.4640  0.0149
  156SAPE   H9X17447   4.488   6.461   9.464  0.2052 -1.4106 -1.6004
  156SAPE   H9Y17448   4.381   6.580   9.388  4.0681  0.4062  1.4359
  156SAPE  C31017449   4.392   6.380   9.309 -0.2626  0.1033  0.1472
  156SAPE  H10X17450   4.294   6.363   9.260 -0.0663 -2.2239  0.4369
  156SAPE  H10Y17451   4.409   6.280   9.354 -1.2169 -0.7685 -1.3526
  156SAPE  C31117452   4.516   6.403   9.214 -0.1874 -0.4286 -0.8496
  156SAPE  H11X17453   4.602   6.404   9.285 -0.3906 -0.6776 -0.5975
  156SAPE  H11Y17454   4.506   6.503   9.167  1.5385  0.2428  0.0957
  156SAPE  C31217455   4.534   6.285   9.111 -0.5694 -0.8584 -0.2376
  156SAPE  H12X17456   4.519   6.188   9.163  2.4898 -1.8250 -0.9887
  156SAPE  H12Y17457   4.640   6.283   9.078 -0.1443  2.4338  0.5996
  156SAPE  C31317458   4.441   6.311   8.992  0.4752 -0.4382  0.7741
  156SAPE  H13X17459   4.483   6.399   8.939 -0.4417 -0.7271 -0.4697
  156SAPE  H13Y17460   4.345   6.338   9.041  0.3695 -0.4202  0.5575
  156SAPE  C31417461   4.443   6.202   8.882  0.6029  0.5088 -0.7156
  156SAPE  H14X17462   4.482   6.110   8.933  2.1133  0.5430 -1.7314
  156SAPE  H14Y17463   4.510   6.221   8.796  1.4619  0.9634  0.0356
  156SAPE  C31517464   4.294   6.154   8.846 -0.2481 -0.5266  0.3479
  156SAPE  H15X17465   4.263   6.223   8.765  2.0801 -0.5270 -0.6207
  156SAPE  H15Y17466   4.230   6.151   8.937 -0.3971  2.7103  0.4782
  156SAPE  C31617467   4.296   6.013   8.784  0.5527 -0.2766  0.0644
  156SAPE  H16X17468   4.360   5.952   8.851  1.6097 -3.0629 -3.1973
  156SAPE  H16Y17469   4.337   6.019   8.680  0.5437 -1.0517  0.0131
  156SAPE  C31717470   4.147   5.972   8.766 -0.3857  0.7879  0.0027
  156SAPE  H17X17471   4.146   5.910   8.673  4.2666  0.8266 -0.3310
  156SAPE  H17Y17472   4.081   6.060   8.753 -0.2851  0.8404 -0.1565
  156SAPE  C31817473   4.101   5.890   8.886  0.1692  0.9065 -0.1634
  156SAPE  H18X17474   4.094   5.960   8.972 -0.4904  0.5403  0.0844
  156SAPE  H18Y17475   4.180   5.816   8.913 -2.4825 -1.6825  0.9654
  156SAPE  H18Z17476   4.013   5.828   8.862 -0.4308  1.3145  0.9169
  157SAPE     N17477   2.347   4.530  10.744 -0.0344  0.3235  0.3231
  157SAPE   HN117478   2.270   4.512  10.812 -1.8677 -2.8062 -2.2517
  157SAPE   HN217479   2.314   4.584  10.661 -2.4292 -1.1171  0.2373
  157SAPE   HN317480   2.378   4.438  10.707  2.1280  1.5325 -1.0643
  157SAPE   C1217481   2.464   4.602  10.799 -0.2529  0.2979 -0.8123
  157SAPE  H12A17482   2.550   4.592  10.730 -0.4311  1.3903 -1.2234
  157SAPE  H12B17483   2.484   4.558  10.899 -1.9815  1.6358  0.1978
  157SAPE   C1117484   2.444   4.757  10.819  0.9040  0.5279 -0.5410
  157SAPE  H11A17485   2.346   4.774  10.867  0.3354  1.3581 -1.9374
  157SAPE  H11B17486   2.436   4.816  10.725  1.7813  0.6230 -0.5701
  157SAPE     P17487   2.681   4.845  10.860  0.0539  0.1672  0.3272
  157SAPE   O1317488   2.736   4.949  10.944  0.1700  0.1790  0.3199
  157SAPE   O1417489   2.760   4.718  10.856 -0.1516 -0.6649  0.3829
  157SAPE   O1217490   2.539   4.812  10.908  0.6022 -0.0154  0.1407
  157SAPE   O1117491   2.661   4.906  10.715  0.8343 -0.2452 -0.1797
  157SAPE    C117492   2.638   5.048  10.690 -0.1740 -0.2715  0.2634
  157SAPE    HA17493   2.548   5.060  10.627  0.1025 -1.2768 -0.3408
  157SAPE    HB17494   2.638   5.118  10.776  0.7190 -0.5845  0.5282
  157SAPE    C217495   2.749   5.105  10.594  0.5405  0.7414  0.8923
  157SAPE    HS17496   2.836   5.124  10.661  0.8884 -1.0720  0.9966
  157SAPE   O2117497   2.706   5.224  10.529 -0.3492  0.4233 -0.8259
  157SAPE   C2117498   2.802   5.317  10.510 -0.7942 -0.2808 -1.2666
  157SAPE   O2217499   2.917   5.311  10.549  0.7509  0.0686 -0.1834
  157SAPE   C2217500   2.753   5.424  10.413 -0.4454 -0.0222 -0.7276
  157SAPE   H2R17501   2.642   5.420  10.424 -0.6211 -0.0543 -2.3078
  157SAPE   H2S17502   2.791   5.521  10.452  1.0589 -1.6640  2.2180
  157SAPE    C317503   2.794   4.996  10.488 -0.0947  0.1851 -0.2877
  157SAPE    HX17504   2.698   4.964  10.442 -0.6657 -0.3048  1.1780
  157SAPE    HY17505   2.835   4.909  10.544  0.0441  0.5145  0.1322
  157SAPE   O3117506   2.884   5.040  10.389 -0.3459 -0.2684  0.2780
  157SAPE   C3117507   3.017   5.041  10.431  0.1152  0.0848  0.4275
  157SAPE   O3217508   3.049   5.006  10.542 -0.1621 -0.0329  0.0370
  157SAPE   C3217509   3.110   5.085  10.324 -0.5305 -0.4178  0.4592
  157SAPE   H2X17510   3.212   5.059  10.359  0.3025  2.6990  0.5681
  157SAPE   H2Y17511   3.102   5.194  10.309 -0.1072 -0.3626  0.6261
  157SAPE   C2317512   2.777   5.394  10.265 -0.2496 -0.2411 -0.0710
  157SAPE   H3R17513   2.710   5.454  10.199 -1.3692 -1.3819 -0.0039
  157SAPE   H3S17514   2.754   5.287  10.249  0.5823 -0.2849 -1.0663
  157SAPE   C2417515   2.923   5.416  10.209 -0.2229 -0.0609  0.5313
  157SAPE   H4R17516   2.929   5.376  10.106 -0.5885 -0.2569  0.5823
  157SAPE   H4S17517   2.979   5.342  10.270 -0.6487  0.4457  1.5718
  157SAPE   C2517518   2.964   5.558  10.231 -0.4013 -1.0265 -0.3191
  157SAPE   H5R17519   2.935   5.609  10.324  0.9473  0.4519 -0.6555
  157SAPE   C2617520   3.027   5.631  10.141  0.3866 -0.3675  0.8530
  157SAPE   H6R17521   3.060   5.733  10.168 -2.5543  0.8481  0.1976
  157SAPE   C2717522   3.067   5.576  10.002  0.7570  0.5513  0.2971
  157SAPE   H7R17523   2.965   5.560   9.962  1.2203  0.1934 -0.7605
  157SAPE   H7S17524   3.110   5.474  10.017  0.4788  0.1825 -1.2864
  157SAPE   C2817525   3.155   5.653   9.901 -0.5838  0.1306 -1.0772
  157SAPE   H8R17526   3.252   5.690   9.937 -0.4665  0.9290 -2.1752
  157SAPE   C2917527   3.133   5.672   9.767 -0.0328  0.4196 -0.1488
  157SAPE   H9R17528   3.207   5.737   9.719  1.3063 -0.6811  0.3508
  157SAPE  C21017529   3.024   5.613   9.681 -0.1735 -0.2760 -0.5835
  157SAPE  H10R17530   2.969   5.695   9.629 -0.2308 -0.6724 -1.1630
  157SAPE  H10S17531   2.942   5.570   9.742  0.9964 -3.6078 -1.1221
  157SAPE  C21117532   3.063   5.498   9.589  0.5685 -0.0877 -0.0105
  157SAPE  H11R17533   3.057   5.400   9.638  1.2101 -0.7797 -1.2584
  157SAPE  C21217534   3.084   5.514   9.456 -0.1671  0.3703 -0.6688
  157SAPE  H12R17535   3.076   5.424   9.393  0.3574 -0.0366 -0.1625
  157SAPE  C21317536   3.083   5.646   9.384  0.3004  0.0604  0.2074
  157SAPE  H13R17537   3.118   5.733   9.443  1.7429 -0.4722  0.1988
  157SAPE  H13S17538   2.977   5.667   9.361  0.2126  1.8984  2.0109
  157SAPE  C21417539   3.170   5.646   9.262 -0.4453  0.4363  0.7987
  157SAPE  H14R17540   3.170   5.553   9.202 -0.5177  0.4500  0.7765
  157SAPE  C21517541   3.245   5.750   9.214  0.6768  0.0896  0.5765
  157SAPE  H15R17542   3.307   5.739   9.124 -0.8040  0.8868 -0.5847
  157SAPE  C21617543   3.259   5.885   9.278 -0.1502  0.3744 -0.3467
  157SAPE  H16R17544   3.340   5.892   9.354 -1.1957 -2.7316  1.2359
  157SAPE  H16S17545   3.163   5.913   9.327 -0.4345 -0.7286 -0.2324
  157SAPE  C21717546   3.278   5.986   9.168  0.2986 -0.5289 -0.3073
  157SAPE  H17R17547   3.263   6.088   9.210 -3.2700 -2.0186  2.5812
  157SAPE  H17S17548   3.208   5.980   9.082 -0.2375 -0.8534  0.1437
  157SAPE  C21817549   3.423   6.001   9.115 -0.3794  0.5369 -0.7321
  157SAPE  H18R17550   3.442   5.893   9.099 -0.5137  0.2974  0.6215
  157SAPE  H18S17551   3.499   6.025   9.193 -0.6457  0.1755 -0.3602
  157SAPE  C21917552   3.429   6.085   8.988  0.5327  0.4648  0.1964
  157SAPE  H19R17553   3.373   6.179   9.005 -2.0939 -0.8906 -0.3934
  157SAPE  H19S17554   3.353   6.036   8.924  0.5477  0.5311  0.1282
  157SAPE  C22017555   3.564   6.112   8.915  0.0674  0.2059  0.2028
  157SAPE  H20R17556   3.632   6.024   8.912  0.8656  0.8334 -1.4320
  157SAPE  H20S17557   3.621   6.188   8.972 -2.0502  0.2140  2.4252
  157SAPE  H20T17558   3.545   6.151   8.812 -1.2206 -0.8133  0.0209
  157SAPE   C3317559   3.087   5.027  10.180  0.4686 -0.5204  0.2058
  157SAPE   H3X17560   2.983   5.053  10.153  1.1547 -0.7531 -3.0201
  157SAPE   H3Y17561   3.093   4.916  10.174 -1.2969 -0.7196  1.4373
  157SAPE   C3417562   3.173   5.090  10.070 -0.0370 -0.6844 -0.4553
  157SAPE   H4X17563   3.280   5.062  10.074  0.2775  0.5091 -0.2319
  157SAPE   H4Y17564   3.173   5.201  10.077  0.8256 -0.7355  0.5197
  157SAPE   C3517565   3.130   5.044   9.932  0.1412 -0.7648 -0.3915
  157SAPE   H5X17566   3.021   5.052   9.915 -0.0249 -2.9841 -0.7245
  157SAPE   H5Y17567   3.160   4.938   9.918  1.4740 -0.2378 -1.8691
  157SAPE   C3617568   3.203   5.116   9.820 -1.0557  0.3133  0.3406
  157SAPE   H6X17569   3.313   5.101   9.830 -1.1312  0.3046  1.2089
  157SAPE   H6Y17570   3.195   5.226   9.818  3.0512  0.7869 -1.5124
  157SAPE   C3717571   3.202   5.042   9.682  1.0645  0.1534 -0.2207
  157SAPE   H7X17572   3.138   4.952   9.691 -1.8367  1.4085 -4.6018
  157SAPE   H7Y17573   3.298   4.996   9.650  0.5277 -1.3727  0.3296
  157SAPE   C3817574   3.165   5.129   9.563 -0.2691 -0.6323 -0.1902
  157SAPE   H8X17575   3.222   5.224   9.571  0.8091 -1.2666 -0.1070
  157SAPE   H8Y17576   3.058   5.158   9.560 -0.3714 -1.0965 -1.6079
  157SAPE   C3917577   3.205   5.058   9.434 -0.2633  0.5968  0.4239
  157SAPE   H9X17578   3.158   4.958   9.428  1.4145 -0.1095 -3.0167
  157SAPE   H9Y17579   3.313   5.039   9.447  0.6345  3.1172 -2.2596
  157SAPE  C31017580   3.181   5.143   9.305  0.5106  0.1525  0.1904
  157SAPE  H10X17581   3.208   5.247   9.336 -1.3741  0.2351  1.7340
  157SAPE  H10Y17582   3.073   5.143   9.279  0.5942  0.8426 -0.1834
  157SAPE  C31117583   3.267   5.098   9.192  0.5965 -0.0624  0.2813
  157SAPE  H11X17584   3.372   5.075   9.221  0.3704 -2.9549 -0.7754
  157SAPE  H11Y17585   3.273   5.181   9.118 -0.1273 -0.9745 -0.8430
  157SAPE  C31217586   3.220   4.970   9.121  0.3867 -0.6992  0.0540
  157SAPE  H12X17587   3.109   4.965   9.123  0.0715  1.8808  5.0561
  157SAPE  H12Y17588   3.258   4.889   9.187  1.3208  0.3299  0.8092
  157SAPE  C31317589   3.277   4.952   8.983 -0.1807 -0.3142 -0.6475
  157SAPE  H13X17590   3.385   4.979   8.975  0.0541  0.6851  3.3508
  157SAPE  H13Y17591   3.228   5.012   8.904 -0.9418  0.0469  0.0883
  157SAPE  C31417592   3.269   4.806   8.941 -1.2584 -0.8498 -0.7159
  157SAPE  H14X17593   3.167   4.767   8.924 -2.0637 -0.1198  2.0222
  157SAPE  H14Y17594   3.302   4.752   9.032 -2.4177  1.8691  1.4694
  157SAPE  C31517595   3.355   4.770   8.820  0.1817  0.1808  0.6541
  157SAPE  H15X17596   3.457   4.804   8.846  0.7378 -0.1213 -0.9784
  157SAPE  H15Y17597   3.334   4.833   8.731  0.5421 -1.6948 -0.8223
  157SAPE  C31617598   3.355   4.626   8.772 -0.0389 -0.1397  0.0570
  157SAPE  H16X17599   3.255   4.600   8.732  0.0204  0.0442 -0.2127
  157SAPE  H16Y17600   3.375   4.559   8.859  0.7499 -1.4228 -1.0677
  157SAPE  C31717601   3.462   4.596   8.664 -0.6106  0.3047  0.2966
  157SAPE  H17X17602   3.562   4.592   8.713 -0.4284 -0.2414 -0.1125
  157SAPE  H17Y17603   3.469   4.665   8.577  0.9502 -0.5793 -0.3244
  157SAPE  C31817604   3.441   4.457   8.598 -0.1141 -0.3445  0.6026
  157SAPE  H18X17605   3.529   4.426   8.537 -0.4487  0.2457 -0.2038
  157SAPE  H18Y17606   3.351   4.451   8.533 -0.7176 -1.4909  1.5335
  157SAPE  H18Z17607   3.417   4.379   8.673 -2.2303  1.4845  1.9556
  158SAPE     N17608   3.080   0.535  10.611 -0.6297 -0.1054 -0.4492
  158SAPE   HN117609   3.061   0.634  10.636 -1.9735 -0.2335 -0.8695
  158SAPE   HN217610   2.994   0.489  10.575 -3.2964  1.8910  2.8011
  158SAPE   HN317611   3.093   0.476  10.696 -1.9473  0.0067 -0.1418
  158SAPE   C1217612   3.178   0.526  10.501  0.0905  0.1293  0.1792
  158SAPE  H12A17613   3.270   0.580  10.533 -1.0428  1.1907  1.7801
  158SAPE  H12B17614   3.133   0.580  10.416 -2.0931  0.9142  1.7607
  158SAPE   C1117615   3.218   0.386  10.465  0.2165  0.5397 -0.4824
  158SAPE  H11A17616   3.294   0.395  10.384 -3.2904  0.3861 -4.1058
  158SAPE  H11B17617   3.128   0.331  10.429  0.0120 -1.6563  2.8783
  158SAPE     P17618   3.172   0.226  10.671 -0.1339 -0.4033  0.2136
  158SAPE   O1317619   3.250   0.121  10.730  0.3341  0.7876 -0.7454
  158SAPE   O1417620   3.083   0.313  10.755 -0.0728 -0.1224  0.4360
  158SAPE   O1217621   3.272   0.320  10.584  0.5013  0.1604  0.1081
  158SAPE   O1117622   3.079   0.156  10.567 -0.5032  0.9274  0.1769
  158SAPE    C117623   3.109   0.081  10.451 -1.3300  0.7657  0.6174
  158SAPE    HA17624   3.054   0.134  10.370  0.1740  2.7339  0.8142
  158SAPE    HB17625   3.218   0.075  10.429 -1.4208 -0.1890  0.3678
  158SAPE    C217626   3.060  -0.070  10.448 -0.2498 -0.1165 -0.2341
  158SAPE    HS17627   2.972  -0.070  10.515 -1.4588 -0.4705 -1.7700
  158SAPE   O2117628   3.166  -0.153  10.504 -0.0123  0.1585  0.0476
  158SAPE   C2117629   3.155  -0.286  10.492 -0.0255 -0.2194 -0.3388
  158SAPE   O2217630   3.057  -0.351  10.468  0.7984 -0.1673  0.4955
  158SAPE   C2217631   3.291  -0.351  10.521 -0.3085 -0.4352  0.2164
  158SAPE   H2R17632   3.371  -0.292  10.471 -0.7938  0.1018  0.0700
  158SAPE   H2S17633   3.304  -0.358  10.631 -1.0108  0.4046  0.3644
  158SAPE    C317634   3.004  -0.124  10.310 -0.4585 -0.4186 -0.1086
  158SAPE    HX17635   2.939  -0.042  10.274 -0.7480 -0.2572  0.7573
  158SAPE    HY17636   2.947  -0.217  10.331  2.6329 -2.1706  1.2939
  158SAPE   O3117637   3.108  -0.145  10.216  0.1607 -0.2372 -0.0165
  158SAPE   C3117638   3.067  -0.187  10.095  0.5951 -0.1684 -0.4589
  158SAPE   O3217639   2.949  -0.206  10.063 -0.2274 -0.4617 -0.4513
  158SAPE   C3217640   3.183  -0.236  10.005  0.1765 -0.1505  0.1419
  158SAPE   H2X17641   3.145  -0.332   9.966  1.5293 -0.8445  0.4775
  158SAPE   H2Y17642   3.273  -0.266  10.063  0.7579 -0.6181 -0.9805
  158SAPE   C2317643   3.317  -0.488  10.455 -0.1969 -0.3861 -0.4847
  158SAPE   H3R17644   3.248  -0.565  10.494 -0.4778  0.4082  0.6291
  158SAPE   H3S17645   3.422  -0.514  10.481 -0.1313  0.6256  0.3002
  158SAPE   C2417646   3.330  -0.482  10.300  1.0036  0.6653 -0.1938
  158SAPE   H4R17647   3.395  -0.397  10.271  2.3278 -0.8480 -1.9117
  158SAPE   H4S17648   3.240  -0.464  10.237  0.0310  1.1370  1.2771
  158SAPE   C2517649   3.395  -0.604  10.254  0.5761  0.2662  0.5740
  158SAPE   H5R17650   3.446  -0.663  10.331 -0.3258 -1.5495 -0.1526
  158SAPE   C2617651   3.410  -0.659  10.132 -0.0949 -0.1166  0.1744
  158SAPE   H6R17652   3.481  -0.743  10.127  0.1943  0.1628 -0.7431
  158SAPE   C2717653   3.361  -0.599  10.000 -0.0714  0.0272 -0.0088
  158SAPE   H7R17654   3.461  -0.589   9.953  0.5734 -0.3765  1.2299
  158SAPE   H7S17655   3.320  -0.496   9.999 -0.3600 -0.0864 -0.2140
  158SAPE   C2817656   3.264  -0.690   9.925 -0.2269 -0.3115 -0.4601
  158SAPE   H8R17657   3.211  -0.762   9.989 -0.6272  1.1895  0.9813
  158SAPE   C2917658   3.240  -0.689   9.791  0.1264 -0.5968 -0.3258
  158SAPE   H9R17659   3.181  -0.775   9.756 -0.4045  0.6569 -2.7187
  158SAPE  C21017660   3.306  -0.606   9.690 -0.3778  0.2537 -0.5709
  158SAPE  H10R17661   3.288  -0.653   9.591 -1.0530 -1.4167  0.2923
  158SAPE  H10S17662   3.416  -0.600   9.708 -0.6336  1.3273  0.8026
  158SAPE  C21117663   3.248  -0.467   9.683  0.1660 -0.3221 -0.1498
  158SAPE  H11R17664   3.152  -0.455   9.736  0.0618  0.6388 -0.5359
  158SAPE  C21217665   3.293  -0.382   9.585  0.2909 -0.0094 -0.5122
  158SAPE  H12R17666   3.243  -0.284   9.577 -2.3161 -1.0764  1.2572
  158SAPE  C21317667   3.398  -0.406   9.479 -0.2981 -0.6595 -0.4943
  158SAPE  H13R17668   3.374  -0.338   9.394 -1.8807 -0.9273 -0.2810
  158SAPE  H13S17669   3.390  -0.509   9.439 -2.4427 -0.0136 -1.9160
  158SAPE  C21417670   3.532  -0.371   9.545 -0.0366  0.1960  0.4851
  158SAPE  H14R17671   3.535  -0.276   9.601  0.8747  1.8872 -2.2152
  158SAPE  C21517672   3.644  -0.445   9.555 -0.3578 -0.1850  0.4592
  158SAPE  H15R17673   3.730  -0.408   9.614  0.1453 -1.7216  0.7351
  158SAPE  C21617674   3.659  -0.589   9.495  0.1281 -0.7104  0.1582
  158SAPE  H16R17675   3.554  -0.627   9.495  0.1211 -0.7999  1.8971
  158SAPE  H16S17676   3.709  -0.655   9.569  1.9107  0.2359 -0.1509
  158SAPE  C21717677   3.726  -0.610   9.354  0.0958  0.0101 -0.6171
  158SAPE  H17R17678   3.671  -0.554   9.275  0.5719 -1.5581 -2.1173
  158SAPE  H17S17679   3.696  -0.716   9.341  1.1877 -0.2065 -1.5082
  158SAPE  C21817680   3.877  -0.589   9.337 -0.1782 -0.2159 -1.2615
  158SAPE  H18R17681   3.937  -0.648   9.410  0.6696 -0.5134 -2.1684
  158SAPE  H18S17682   3.900  -0.481   9.333 -1.3488  0.2079  1.3480
  158SAPE  C21917683   3.925  -0.629   9.201 -0.6070 -0.4811  0.2302
  158SAPE  H19R17684   3.842  -0.605   9.131 -1.6133 -0.1767  1.5097
  158SAPE  H19S17685   3.961  -0.735   9.198  1.9489  0.2032  2.5980
  158SAPE  C22017686   4.045  -0.543   9.145  0.3895  0.7380  0.6634
  158SAPE  H20R17687   4.064  -0.585   9.044 -1.2764  1.4901 -0.0021
  158SAPE  H20S17688   4.143  -0.559   9.195  2.3420  3.7796 -1.8271
  158SAPE  H20T17689   4.030  -0.434   9.131 -1.7308  0.3644 -0.3073
  158SAPE   C3317690   3.201  -0.125   9.899 -0.4484  0.0560 -0.0315
  158SAPE   H3X17691   3.289  -0.159   9.841  0.0457 -0.6368  1.0983
  158SAPE   H3Y17692   3.215  -0.030   9.955  0.0116 -0.8720  1.4912
  158SAPE   C3417693   3.079  -0.116   9.803 -0.0879  0.4055 -0.3402
  158SAPE   H4X17694   2.988  -0.090   9.862 -1.0870 -0.7147 -1.3420
  158SAPE   H4Y17695   3.066  -0.217   9.758  0.6859 -2.1510  4.4166
  158SAPE   C3517696   3.103  -0.016   9.687 -0.1097 -0.3258 -0.1318
  158SAPE   H5X17697   3.199  -0.047   9.640 -0.6648 -1.3599 -0.6439
  158SAPE   H5Y17698   3.114   0.082   9.737  0.9748 -0.1671 -0.6456
  158SAPE   C3617699   2.987  -0.024   9.591 -0.6956 -0.0840 -0.1486
  158SAPE   H6X17700   2.896   0.004   9.648 -0.3623 -0.6387  0.6759
  158SAPE   H6Y17701   2.981  -0.133   9.571  1.6299 -0.1977 -0.4646
  158SAPE   C3717702   3.008   0.057   9.459 -0.2955  0.0307 -0.1023
  158SAPE   H7X17703   3.025   0.162   9.489  0.3158 -0.3488  0.9258
  158SAPE   H7Y17704   2.918   0.018   9.405 -0.1227 -2.6022  1.3350
  158SAPE   C3817705   3.126   0.006   9.375 -0.5600 -0.1118 -0.7308
  158SAPE   H8X17706   3.106  -0.100   9.348  0.2801 -0.6594  0.6777
  158SAPE   H8Y17707   3.220  -0.004   9.434 -0.3272  0.8349 -0.9191
  158SAPE   C3917708   3.143   0.093   9.249  0.0870 -0.4908 -0.1763
  158SAPE   H9X17709   3.238   0.060   9.201  1.3492  1.4065  0.8790
  158SAPE   H9Y17710   3.156   0.199   9.280 -0.0110  0.0461 -1.8609
  158SAPE  C31017711   3.025   0.089   9.157 -0.6937 -0.0101 -0.6943
  158SAPE  H10X17712   2.942   0.154   9.192  0.2790  1.4803 -1.0114
  158SAPE  H10Y17713   2.993  -0.017   9.157  0.9570 -0.5757  1.5248
  158SAPE  C31117714   3.058   0.124   9.008  0.1227  0.5289 -0.3532
  158SAPE  H11X17715   2.957   0.121   8.960  0.3044 -1.0030 -0.7036
  158SAPE  H11Y17716   3.113   0.038   8.963 -1.7120 -0.1338 -1.4710
  158SAPE  C31217717   3.121   0.262   8.988  0.1567  0.1879 -0.0478
  158SAPE  H12X17718   3.207   0.281   9.056 -0.1264  0.1023  0.3391
  158SAPE  H12Y17719   3.042   0.336   9.013  1.5611  1.3759  1.0832
  158SAPE  C31317720   3.159   0.303   8.847  1.1340 -0.5175  1.4041
  158SAPE  H13X17721   3.061   0.313   8.794  1.4625  0.7880  1.0151
  158SAPE  H13Y17722   3.219   0.221   8.803  2.1222  1.5165 -1.3258
  158SAPE  C31417723   3.232   0.438   8.838  0.4501 -0.1919 -0.3978
  158SAPE  H14X17724   3.304   0.435   8.922  1.5722  1.1224 -1.2732
  158SAPE  H14Y17725   3.161   0.520   8.862 -0.2635 -0.4544 -1.5559
  158SAPE  C31517726   3.298   0.471   8.706 -0.0965  0.0313  0.7837
  158SAPE  H15X17727   3.337   0.575   8.707 -1.3473  0.5751 -1.2446
  158SAPE  H15Y17728   3.232   0.463   8.617  1.4366 -0.6845 -0.3354
  158SAPE  C31617729   3.428   0.386   8.676  0.1909  0.4338 -0.6255
  158SAPE  H16X17730   3.457   0.403   8.570  2.3735 -0.5282 -0.2441
  158SAPE  H16Y17731   3.394   0.283   8.699 -3.0468  1.2209 -1.3810
  158SAPE  C31717732   3.536   0.437   8.770 -0.0083  0.5023  0.1463
  158SAPE  H17X17733   3.495   0.432   8.873 -0.1339  3.4007  0.2976
  158SAPE  H17Y17734   3.563   0.541   8.744  2.4890 -0.2193 -0.4758
  158SAPE  C31817735   3.663   0.355   8.761  0.1685 -0.0434  0.4546
  158SAPE  H18X17736   3.738   0.411   8.820  0.4425  0.7994 -0.6666
  158SAPE  H18Y17737   3.706   0.336   8.660  0.5489  0.1880  0.5724
  158SAPE  H18Z17738   3.650   0.250   8.797 -1.9968 -0.9821 -2.6490
  159SAPE     N17739   6.485   5.912   6.343 -0.3994  0.1838  0.1175
  159SAPE   HN117740   6.463   6.011   6.322 -0.2552  0.0525 -0.6918
  159SAPE   HN217741   6.582   5.893   6.311 -0.4276  0.6049 -0.2259
  159SAPE   HN317742   6.431   5.858   6.272  0.6991 -0.8996  0.0718
  159SAPE   C1217743   6.471   5.874   6.491  0.6961 -0.0759  0.2357
  159SAPE  H12A17744   6.538   5.941   6.548 -1.0031 -0.5552  3.0241
  159SAPE  H12B17745   6.510   5.770   6.499 -1.1101 -0.7559  0.7028
  159SAPE   C1117746   6.323   5.883   6.538 -1.0441  0.3438 -0.4720
  159SAPE  H11A17747   6.325   5.858   6.646  2.5142  3.1123  0.2961
  159SAPE  H11B17748   6.256   5.823   6.473  1.2114  1.1100 -3.8243
  159SAPE     P17749   6.300   6.143   6.609  0.0872  0.2830 -0.0959
  159SAPE   O1317750   6.372   6.102   6.734  0.0717  0.8122 -0.3278
  159SAPE   O1417751   6.348   6.255   6.527  0.1871 -0.3892 -0.4059
  159SAPE   O1217752   6.276   6.014   6.520 -0.7164 -0.1509 -0.3408
  159SAPE   O1117753   6.155   6.178   6.650 -0.7488 -0.1521  0.1241
  159SAPE    C117754   6.067   6.073   6.694  0.7274  0.3179 -0.0687
  159SAPE    HA17755   5.988   6.058   6.617  1.8461 -1.6724 -0.9024
  159SAPE    HB17756   6.115   5.974   6.706 -2.0361 -1.5249 -2.8254
  159SAPE    C217757   6.006   6.115   6.830  0.0363 -0.7335  0.6690
  159SAPE    HS17758   5.947   6.029   6.869  1.6509 -0.5395  3.9259
  159SAPE   O2117759   5.924   6.236   6.822  0.0581  0.4427  0.2630
  159SAPE   C2117760   5.804   6.221   6.774  0.0097  0.1068  0.3493
  159SAPE   O2217761   5.760   6.106   6.736  1.0811 -0.4644 -0.0396
  159SAPE   C2217762   5.746   6.350   6.755  0.1742 -0.4434  0.2455
  159SAPE   H2R17763   5.705   6.386   6.852  0.2707  1.2701 -0.3267
  159SAPE   H2S17764   5.826   6.414   6.713  0.5687 -1.3954 -0.5032
  159SAPE    C317765   6.121   6.139   6.934 -0.1238 -0.3122  0.1157
  159SAPE    HX17766   6.168   6.229   6.890  1.2824 -1.8342 -1.6524
  159SAPE    HY17767   6.186   6.049   6.931 -0.2679 -0.4079 -0.2412
  159SAPE   O3117768   6.080   6.168   7.071  0.1189  0.1349 -0.1491
  159SAPE   C3117769   6.048   6.061   7.147 -0.5449 -0.3892 -0.5941
  159SAPE   O3217770   6.067   5.945   7.118 -0.0017 -0.1173  0.4206
  159SAPE   C3217771   6.000   6.111   7.285  0.4364 -0.0373 -0.6967
  159SAPE   H2X17772   5.935   6.200   7.266  0.6522  0.2498 -0.1088
  159SAPE   H2Y17773   6.089   6.157   7.331  0.4359  1.3995 -2.0442
  159SAPE   C2317774   5.633   6.343   6.646  0.3333  0.0953 -0.1341
  159SAPE   H3R17775   5.592   6.242   6.624  2.6788 -1.1342  0.8996
  159SAPE   H3S17776   5.684   6.373   6.552  3.1412 -2.2675  0.5232
  159SAPE   C2417777   5.519   6.437   6.678  0.2122 -0.1577  0.0138
  159SAPE   H4R17778   5.456   6.388   6.756  0.1308  0.4495  0.3314
  159SAPE   H4S17779   5.445   6.460   6.599  0.0220  0.6586  0.4254
  159SAPE   C2517780   5.573   6.569   6.729 -0.4132 -0.2758 -0.5615
  159SAPE   H5R17781   5.659   6.595   6.665 -0.5856  2.4402  0.1568
  159SAPE   C2617782   5.545   6.655   6.835  0.0128 -0.0239  1.4079
  159SAPE   H6R17783   5.608   6.743   6.856  0.8601 -0.6543  1.5597
  159SAPE   C2717784   5.440   6.640   6.935  0.7198 -0.3404  0.4103
  159SAPE   H7R17785   5.362   6.573   6.893  0.8940 -0.9806  1.0744
  159SAPE   H7S17786   5.388   6.736   6.957 -0.4645 -0.8984  0.1439
  159SAPE   C2817787   5.495   6.572   7.054  0.6745  0.4771 -0.7306
  159SAPE   H8R17788   5.505   6.462   7.056  0.0259  0.4163  0.5291
  159SAPE   C2917789   5.519   6.638   7.170  0.0904  0.3587  0.6639
  159SAPE   H9R17790   5.573   6.583   7.248 -1.5232  0.2280  1.7440
  159SAPE  C21017791   5.506   6.784   7.204 -0.7421  0.0991  0.2065
  159SAPE  H10R17792   5.446   6.805   7.295  1.4317  0.4262  1.6466
  159SAPE  H10S17793   5.461   6.842   7.121 -3.6420 -0.8357  0.9856
  159SAPE  C21117794   5.657   6.830   7.219  1.0361 -0.0844  0.2805
  159SAPE  H11R17795   5.710   6.834   7.123  0.2406 -0.2791 -0.1780
  159SAPE  C21217796   5.720   6.879   7.324  0.1265  0.3844  0.1141
  159SAPE  H12R17797   5.825   6.913   7.318  0.7461 -1.3984  0.1188
  159SAPE  C21317798   5.671   6.892   7.461  0.2649  0.3961 -0.4000
  159SAPE  H13R17799   5.580   6.957   7.463  1.0334  1.4753  0.6567
  159SAPE  H13S17800   5.741   6.955   7.520  1.2707 -0.4833 -0.6260
  159SAPE  C21417801   5.640   6.759   7.530  0.0639  0.4084 -1.1127
  159SAPE  H14R17802   5.634   6.673   7.462 -0.6908 -0.0277 -0.5116
  159SAPE  C21517803   5.637   6.738   7.663 -0.9205 -0.3906  0.0103
  159SAPE  H15R17804   5.605   6.638   7.695 -5.3410  0.5300 -0.9435
  159SAPE  C21617805   5.658   6.834   7.777 -0.3131 -0.1130 -0.4358
  159SAPE  H16R17806   5.558   6.857   7.820  0.7489 -0.4698  2.4065
  159SAPE  H16S17807   5.708   6.926   7.740 -1.7455  0.9660  0.1953
  159SAPE  C21717808   5.730   6.778   7.898  0.5857 -0.0086 -0.7024
  159SAPE  H17R17809   5.832   6.752   7.865  0.4390  0.8061 -1.8204
  159SAPE  H17S17810   5.684   6.683   7.934  1.0723  0.2469  0.6516
  159SAPE  C21817811   5.746   6.880   8.015  0.5483 -0.8391 -0.6376
  159SAPE  H18R17812   5.803   6.961   7.964  0.2047  0.2829  0.6969
  159SAPE  H18S17813   5.812   6.845   8.096 -0.9575  0.3072  1.1626
  159SAPE  C21917814   5.621   6.934   8.075  0.3930 -0.0666 -0.0555
  159SAPE  H19R17815   5.572   7.005   8.006  1.9315  3.7600  2.4483
  159SAPE  H19S17816   5.643   7.000   8.162 -0.2175  0.1662 -0.0728
  159SAPE  C22017817   5.535   6.814   8.122 -1.1888  0.1441 -0.1218
  159SAPE  H20R17818   5.458   6.858   8.190  0.3012  1.6636  0.6495
  159SAPE  H20S17819   5.596   6.751   8.190 -2.6610 -1.7987 -0.5112
  159SAPE  H20T17820   5.494   6.748   8.043 -1.0876 -0.4588  0.3208
  159SAPE   C3317821   5.944   6.001   7.376  0.2852  0.2685 -0.0723
  159SAPE   H3X17822   6.013   5.916   7.392  1.1987  0.8731 -0.6949
  159SAPE   H3Y17823   5.846   5.959   7.343 -0.1035  0.0757  1.2944
  159SAPE   C3417824   5.931   6.072   7.513 -0.6054  0.1736 -0.9176
  159SAPE   H4X17825   5.847   6.145   7.520  1.1088  2.0975  0.9198
  159SAPE   H4Y17826   6.020   6.134   7.534 -0.7558 -0.0855  0.6093
  159SAPE   C3517827   5.915   5.972   7.625  0.0272  0.4438 -0.0053
  159SAPE   H5X17828   5.994   5.894   7.620 -1.5289 -1.2161  0.1746
  159SAPE   H5Y17829   5.817   5.921   7.610  0.3532 -0.6396  1.3993
  159SAPE   C3617830   5.914   6.041   7.759  0.4508 -0.7729 -0.1250
  159SAPE   H6X17831   5.838   6.120   7.750  0.6222 -0.3181  1.9859
  159SAPE   H6Y17832   6.005   6.098   7.787  2.7163 -3.5008 -1.2805
  159SAPE   C3717833   5.874   5.933   7.864 -0.4868  0.0848 -0.4277
  159SAPE   H7X17834   5.785   5.876   7.828  0.5683 -1.8094 -0.1624
  159SAPE   H7Y17835   5.831   5.989   7.950 -0.1989  0.1908 -0.3526
  159SAPE   C3817836   5.993   5.847   7.897 -0.1924  0.6701  0.5379
  159SAPE   H8X17837   6.078   5.918   7.896  1.0648 -0.7721 -0.3387
  159SAPE   H8Y17838   6.006   5.786   7.805 -0.8170  0.9636  0.2527
  159SAPE   C3917839   5.989   5.780   8.030  0.3800 -0.1850 -0.2846
  159SAPE   H9X17840   5.907   5.827   8.088 -0.3159 -1.2952 -0.3354
  159SAPE   H9Y17841   6.086   5.798   8.081  0.9015 -2.0112 -0.5635
  159SAPE  C31017842   5.965   5.627   8.030  0.4036 -0.3348 -0.3919
  159SAPE  H10X17843   6.063   5.584   8.001  1.2358 -0.0711  1.8472
  159SAPE  H10Y17844   5.892   5.600   7.951 -0.5565 -1.3103  0.7913
  159SAPE  C31117845   5.924   5.568   8.168  0.2044 -0.4694 -0.1557
  159SAPE  H11X17846   5.913   5.457   8.167 -1.6922 -0.3775  1.8861
  159SAPE  H11Y17847   5.830   5.622   8.192  0.3710 -0.6634  0.9680
  159SAPE  C31217848   6.021   5.607   8.279  0.2495 -0.5736  0.0495
  159SAPE  H12X17849   6.039   5.716   8.277 -1.7998 -0.1185  1.8380
  159SAPE  H12Y17850   6.115   5.549   8.270  0.2912 -0.6555  0.8643
  159SAPE  C31317851   5.967   5.571   8.420 -0.3299 -0.6633  0.2526
  159SAPE  H13X17852   5.859   5.594   8.430 -0.0126  1.0691  0.0425
  159SAPE  H13Y17853   6.013   5.642   8.493  0.1342  0.6815 -1.2864
  159SAPE  C31417854   5.998   5.421   8.447  0.3715 -0.4135  1.1870
  159SAPE  H14X17855   6.108   5.406   8.443  0.4734  0.5414 -0.0387
  159SAPE  H14Y17856   5.951   5.359   8.368 -1.2493 -0.9330  2.4998
  159SAPE  C31517857   5.933   5.383   8.579  0.1773  0.8356  0.4414
  159SAPE  H15X17858   5.828   5.419   8.584 -0.5183 -0.7218 -1.4695
  159SAPE  H15Y17859   5.978   5.435   8.667 -1.0442 -0.6864  2.0264
  159SAPE  C31617860   5.924   5.229   8.600  0.3540 -1.0459  0.4285
  159SAPE  H16X17861   6.029   5.201   8.577  0.2752 -0.2003 -1.1125
  159SAPE  H16Y17862   5.870   5.179   8.516 -1.7173  0.7549  0.5917
  159SAPE  C31717863   5.878   5.180   8.739  0.7964  0.8366 -0.2259
  159SAPE  H17X17864   5.884   5.070   8.753  1.8789  0.9265  0.0375
  159SAPE  H17Y17865   5.772   5.210   8.757  0.8905 -0.1914  2.6347
  159SAPE  C31817866   5.964   5.233   8.856  0.7231 -0.1704  0.3362
  159SAPE  H18X17867   5.929   5.191   8.952 -2.3862  2.6767  0.5993
  159SAPE  H18Y17868   5.954   5.343   8.859  0.3202 -0.2383  1.7256
  159SAPE  H18Z17869   6.065   5.191   8.835 -0.0493 -2.5104  0.9252
  160SAPE     N17870   6.243   6.507   6.529  0.0095 -0.6365 -0.3420
  160SAPE   HN117871   6.270   6.408   6.511 -0.3797 -1.1330  1.5976
  160SAPE   HN217872   6.292   6.525   6.618  0.1109  1.4754 -0.7806
  160SAPE   HN317873   6.140   6.518   6.531 -0.0819 -1.5043  1.0509
  160SAPE   C1217874   6.299   6.605   6.419  0.0100  0.3026  0.1670
  160SAPE  H12A17875   6.214   6.663   6.378 -0.5902  0.4235  1.5242
  160SAPE  H12B17876   6.347   6.546   6.338 -0.6639  2.8704 -2.2678
  160SAPE   C1117877   6.398   6.705   6.481  0.9952 -0.3812 -0.0434
  160SAPE  H11A17878   6.349   6.782   6.544  1.9087 -1.0380  1.5055
  160SAPE  H11B17879   6.445   6.764   6.399  0.7917 -2.2607 -1.5870
  160SAPE     P17880   6.637   6.596   6.520  0.3247  0.1753 -0.0807
  160SAPE   O1317881   6.648   6.450   6.525 -0.1694 -0.3025 -0.7805
  160SAPE   O1417882   6.661   6.653   6.386 -0.2555  0.0932  0.3881
  160SAPE   O1217883   6.493   6.637   6.556 -0.5055 -0.4110 -0.3265
  160SAPE   O1117884   6.727   6.672   6.627  0.1528  0.2425 -0.4466
  160SAPE    C117885   6.693   6.680   6.769 -1.0868  0.6714  0.1695
  160SAPE    HA17886   6.769   6.741   6.822  2.0030 -2.3874 -0.4323
  160SAPE    HB17887   6.593   6.726   6.785 -0.7125  1.0522  1.5027
  160SAPE    C217888   6.701   6.541   6.842 -0.0269 -0.5848 -0.2411
  160SAPE    HS17889   6.613   6.481   6.811 -0.1370 -0.3502 -0.3872
  160SAPE   O2117890   6.705   6.568   6.981  0.0969 -0.6890 -0.5197
  160SAPE   C2117891   6.595   6.607   7.042 -0.1098  1.1362  0.3791
  160SAPE   O2217892   6.491   6.625   6.988  0.2837 -0.1848  0.0409
  160SAPE   C2217893   6.625   6.650   7.185  0.3423 -0.0742 -0.2575
  160SAPE   H2R17894   6.646   6.551   7.231 -1.9715 -0.1953  0.6742
  160SAPE   H2S17895   6.712   6.718   7.180  0.3099 -0.0396 -0.3722
  160SAPE    C317896   6.844   6.480   6.807  0.4294  0.7012 -0.1603
  160SAPE    HX17897   6.908   6.570   6.817  0.1033  1.0865 -1.3180
  160SAPE    HY17898   6.844   6.435   6.706  2.2869 -1.3798  0.6960
  160SAPE   O3117899   6.871   6.369   6.891  0.1659 -0.3605 -0.5341
  160SAPE   C3117900   6.992   6.336   6.924  0.6363  0.0222  0.0980
  160SAPE   O3217901   7.096   6.377   6.885  0.3430  0.2180  0.7523
  160SAPE   C3217902   6.981   6.216   7.018  0.2423 -0.0297 -0.3744
  160SAPE   H2X17903   7.078   6.162   7.021  0.6247  0.6807  1.1191
  160SAPE   H2Y17904   6.895   6.155   6.985 -0.2934  0.6572 -0.2809
  160SAPE   C2317905   6.506   6.715   7.262 -0.4776  0.0724 -0.0545
  160SAPE   H3R17906   6.440   6.772   7.193  0.1370  0.0521 -0.6634
  160SAPE   H3S17907   6.545   6.794   7.330  0.5064 -1.2314  0.9398
  160SAPE   C2417908   6.427   6.616   7.349 -0.1784  0.1364 -0.2404
  160SAPE   H4R17909   6.362   6.670   7.421  1.7742  0.5327  1.3079
  160SAPE   H4S17910   6.492   6.561   7.420  2.6993  1.9782 -1.2942
  160SAPE   C2517911   6.344   6.531   7.248  0.5975  0.4076 -0.0219
  160SAPE   H5R17912   6.256   6.579   7.205 -0.7697 -2.8606 -1.1769
  160SAPE   C2617913   6.357   6.402   7.205 -0.4857 -0.3169 -0.3116
  160SAPE   H6R17914   6.295   6.372   7.119 -2.6208  0.3846  0.9137
  160SAPE   C2717915   6.465   6.308   7.260  0.6509 -0.2656 -0.2526
  160SAPE   H7R17916   6.480   6.317   7.370  1.7116  0.2316 -0.4254
  160SAPE   H7S17917   6.564   6.327   7.213  0.8354 -0.4327  0.0661
  160SAPE   C2817918   6.417   6.165   7.234  0.3420  0.2789  0.2328
  160SAPE   H8R17919   6.440   6.134   7.131 -0.7200 -1.4420  0.4762
  160SAPE   C2917920   6.372   6.077   7.324  0.2732  0.1301  0.6764
  160SAPE   H9R17921   6.322   5.983   7.294  1.5298 -0.6828  1.0680
  160SAPE  C21017922   6.374   6.111   7.467  0.3119 -0.0772 -0.4499
  160SAPE  H10R17923   6.340   6.215   7.483  0.1202 -0.2544  0.3431
  160SAPE  H10S17924   6.479   6.127   7.502 -0.1408  0.8782  0.5282
  160SAPE  C21117925   6.294   6.026   7.565  0.2856  0.1505  0.5033
  160SAPE  H11R17926   6.232   5.948   7.519 -1.2271  1.7534 -0.3180
  160SAPE  C21217927   6.293   6.052   7.698  0.2808 -0.4074 -0.4775
  160SAPE  H12R17928   6.243   5.983   7.768 -0.5347 -0.6424 -1.2673
  160SAPE  C21317929   6.363   6.159   7.772  0.9703  0.2172  0.0095
  160SAPE  H13R17930   6.280   6.224   7.807  0.8005  0.5333 -0.9774
  160SAPE  H13S17931   6.415   6.235   7.711  1.9486  0.1256  0.7149
  160SAPE  C21417932   6.466   6.110   7.877 -0.7045  0.1939  0.0751
  160SAPE  H14R17933   6.558   6.060   7.844  0.1056  0.3252  1.9482
  160SAPE  C21517934   6.447   6.117   8.009 -0.0429 -1.2943  0.8722
  160SAPE  H15R17935   6.526   6.074   8.072  2.1347  1.4092  0.2128
  160SAPE  C21617936   6.326   6.179   8.083  0.2651 -0.4199 -0.3083
  160SAPE  H16R17937   6.254   6.228   8.014 -0.3621  0.1196  0.7222
  160SAPE  H16S17938   6.353   6.259   8.155 -1.3720  0.3868 -0.5443
  160SAPE  C21717939   6.256   6.068   8.162  0.4665 -0.7286 -0.0864
  160SAPE  H17R17940   6.248   5.975   8.102 -1.0292  0.9782 -2.7302
  160SAPE  H17S17941   6.154   6.109   8.175  0.9133  0.0158  1.2577
  160SAPE  C21817942   6.315   6.038   8.305 -0.4632  0.0803  0.5391
  160SAPE  H18R17943   6.425   6.034   8.291 -0.8494 -0.2446 -4.3375
  160SAPE  H18S17944   6.290   5.939   8.350 -1.4901  0.1115  0.0887
  160SAPE  C21917945   6.283   6.145   8.421 -0.1833 -0.3716 -0.0621
  160SAPE  H19R17946   6.175   6.139   8.445 -0.1588  1.1037  0.5551
  160SAPE  H19S17947   6.311   6.249   8.395 -0.8825  0.6866  2.9920
  160SAPE  C22017948   6.358   6.122   8.555  0.4147  0.5450 -0.2480
  160SAPE  H20R17949   6.315   6.182   8.638 -0.1246 -0.2805  0.0868
  160SAPE  H20S17950   6.467   6.131   8.536  1.0210 -1.5602  1.7597
  160SAPE  H20T17951   6.349   6.016   8.586  0.6690  1.4496  3.2841
  160SAPE   C3317952   6.951   6.256   7.170  0.0077  0.0581  0.3918
  160SAPE   H3X17953   6.937   6.156   7.216  0.9097 -0.6230 -0.7371
  160SAPE   H3Y17954   6.854   6.308   7.157 -0.2212 -0.2264  0.9004
  160SAPE   C3417955   7.062   6.335   7.242 -0.0141 -0.3428  0.3553
  160SAPE   H4X17956   7.132   6.373   7.164 -1.7440 -0.8050 -1.5144
  160SAPE   H4Y17957   7.136   6.271   7.295 -0.2328  0.1853  1.3184
  160SAPE   C3517958   7.016   6.435   7.345  0.7253  0.1500 -0.1720
  160SAPE   H5X17959   6.958   6.516   7.295  0.0772 -0.1298  0.1272
  160SAPE   H5Y17960   7.110   6.473   7.391  0.1816 -0.2948  1.3849
  160SAPE   C3617961   6.939   6.378   7.464  0.5750  0.0127  0.0782
  160SAPE   H6X17962   7.008   6.307   7.513  0.6200 -1.1216 -1.5470
  160SAPE   H6Y17963   6.853   6.316   7.432  0.9581  0.8462 -2.8656
  160SAPE   C3717964   6.890   6.486   7.554 -0.3342 -0.3686 -0.0854
  160SAPE   H7X17965   6.840   6.563   7.491  1.7126  0.2026 -1.0848
  160SAPE   H7Y17966   6.972   6.532   7.613  1.0925  1.1180 -2.9964
  160SAPE   C3817967   6.776   6.441   7.642 -0.2202  0.5854  0.4622
  160SAPE   H8X17968   6.800   6.339   7.680 -2.2773 -0.1207 -0.0141
  160SAPE   H8Y17969   6.684   6.427   7.581  0.9946 -0.2129 -1.2598
  160SAPE   C3917970   6.733   6.523   7.766  0.1037 -0.3482 -0.1927
  160SAPE   H9X17971   6.638   6.483   7.806 -1.2754  1.9116 -1.0470
  160SAPE   H9Y17972   6.722   6.627   7.730  1.2016  0.0718  0.6417
  160SAPE  C31017973   6.839   6.532   7.884 -0.1369  0.7689  0.7094
  160SAPE  H10X17974   6.933   6.570   7.839 -2.6314  3.8475 -2.5322
  160SAPE  H10Y17975   6.851   6.430   7.925  0.0039  1.0128  1.2845
  160SAPE  C31117976   6.789   6.614   8.004 -0.0593 -0.0293 -0.1763
  160SAPE  H11X17977   6.692   6.570   8.035 -0.2528  0.2774 -0.3401
  160SAPE  H11Y17978   6.783   6.717   7.963 -1.7157  0.0943  0.3106
  160SAPE  C31217979   6.891   6.604   8.120 -0.2368  0.0547  0.4360
  160SAPE  H12X17980   6.993   6.638   8.093  0.2393  0.4443  2.5930
  160SAPE  H12Y17981   6.889   6.496   8.146  0.6682  0.0132  0.3588
  160SAPE  C31317982   6.857   6.691   8.238 -0.4249  0.1615 -0.5645
  160SAPE  H13X17983   6.774   6.636   8.287  0.8048 -0.1907  1.2531
  160SAPE  H13Y17984   6.827   6.791   8.200  2.2503  2.2687  2.2945
  160SAPE  C31417985   6.963   6.715   8.350  0.5355 -0.5099  0.3542
  160SAPE  H14X17986   7.059   6.747   8.304  0.2284  2.0229  1.2909
  160SAPE  H14Y17987   6.983   6.614   8.391 -4.7682 -1.0392  2.4921
  160SAPE  C31517988   6.920   6.811   8.459  0.3152  0.1040 -0.5352
  160SAPE  H15X17989   6.822   6.774   8.497 -0.6108  0.7450 -2.1678
  160SAPE  H15Y17990   6.898   6.903   8.400 -0.6351 -1.7795 -3.3234
  160SAPE  C31617991   7.034   6.824   8.570 -0.1531 -0.6371  0.5305
  160SAPE  H16X17992   7.131   6.838   8.517 -1.1474  2.3691 -0.7151
  160SAPE  H16Y17993   7.039   6.731   8.631  2.6756 -1.6130 -0.9981
  160SAPE  C31717994   7.010   6.948   8.658 -0.4509  0.0285 -0.1860
  160SAPE  H17X17995   6.938   6.917   8.736 -0.8564 -0.9622 -0.9335
  160SAPE  H17Y17996   6.968   7.028   8.593  1.1970  0.3866 -0.8631
  160SAPE  C31817997   7.139   6.999   8.733 -0.6339 -0.3164 -0.0924
  160SAPE  H18X17998   7.216   7.040   8.664 -0.0063 -2.1527 -0.5151
  160SAPE  H18Y17999   7.180   6.908   8.781  3.7785  0.6601 -1.5503
  160SAPE  H18Z18000   7.108   7.085   8.797 -0.4282 -0.0291 -0.3784
  161SAPE     N18001   1.793   2.933   6.168 -0.9487  0.5370  0.4229
  161SAPE   HN118002   1.693   2.957   6.183 -0.5460  1.2859  2.0915
  161SAPE   HN218003   1.834   2.992   6.092 -1.7720 -1.5783 -1.8096
  161SAPE   HN318004   1.797   2.835   6.133  0.9283 -0.2897  2.7010
  161SAPE   C1218005   1.858   2.928   6.304  0.3395 -0.2067  0.5172
  161SAPE  H12A18006   1.898   3.028   6.331  2.0310 -0.8339  0.5009
  161SAPE  H12B18007   1.943   2.858   6.291  0.8905  0.3185  1.1612
  161SAPE   C1118008   1.772   2.858   6.422 -0.6411 -0.1492  0.2754
  161SAPE  H11A18009   1.707   2.944   6.450  2.3418  2.0052  1.1714
  161SAPE  H11B18010   1.843   2.840   6.507  0.7067 -1.0005 -0.9797
  161SAPE     P18011   1.770   2.604   6.385  0.1550 -0.1198  0.4664
  161SAPE   O1318012   1.702   2.522   6.279 -0.3757 -0.2053  0.6642
  161SAPE   O1418013   1.918   2.608   6.384  0.4773 -0.2276  0.4390
  161SAPE   O1218014   1.707   2.746   6.377 -0.4129 -0.6286  0.5443
  161SAPE   O1118015   1.715   2.567   6.529 -0.0403 -0.4362 -0.0377
  161SAPE    C118016   1.802   2.506   6.630  0.5424  0.2890  0.0237
  161SAPE    HA18017   1.898   2.561   6.643 -0.1113  0.9772  2.4216
  161SAPE    HB18018   1.757   2.504   6.732  3.2662 -1.9160  1.3495
  161SAPE    C218019   1.833   2.357   6.595  0.1321 -0.1191 -0.4594
  161SAPE    HS18020   1.846   2.354   6.485 -2.0681  0.0662 -0.7674
  161SAPE   O2118021   1.730   2.273   6.642  0.4123 -0.2646  0.0424
  161SAPE   C2118022   1.717   2.157   6.577  0.1039  0.0301  0.9774
  161SAPE   O2218023   1.784   2.125   6.477  0.2826 -0.2332  0.0656
  161SAPE   C2218024   1.596   2.086   6.640  0.4778  0.8148 -0.3074
  161SAPE   H2R18025   1.595   2.080   6.751 -1.4331 -2.7656 -0.3553
  161SAPE   H2S18026   1.511   2.148   6.604 -1.9088 -0.0834  3.2537
  161SAPE    C318027   1.975   2.309   6.651  0.6941 -0.1437 -0.2514
  161SAPE    HX18028   2.045   2.353   6.577 -0.5124  0.6457 -0.9573
  161SAPE    HY18029   1.989   2.199   6.650  2.0017 -0.0825  2.2931
  161SAPE   O3118030   1.996   2.359   6.786  0.1274 -0.4465  0.3531
  161SAPE   C3118031   1.967   2.281   6.885 -0.1068 -0.1060  0.2146
  161SAPE   O3218032   1.942   2.163   6.877  0.1471 -0.3251 -0.2534
  161SAPE   C3218033   2.005   2.345   7.019 -0.6749 -0.2637  0.1001
  161SAPE   H2X18034   1.932   2.427   7.035 -0.7564 -0.2896 -0.1339
  161SAPE   H2Y18035   2.102   2.395   6.999 -1.2343  1.1671  0.8576
  161SAPE   C2318036   1.572   1.936   6.593 -0.5881  0.4597  0.0647
  161SAPE   H3R18037   1.603   1.921   6.488  2.3424  3.9451  0.2241
  161SAPE   H3S18038   1.461   1.932   6.593 -0.6573  1.8727 -0.7457
  161SAPE   C2418039   1.645   1.841   6.693 -0.3024 -0.7747  1.0724
  161SAPE   H4R18040   1.621   1.735   6.669 -2.9103  0.4881 -2.9185
  161SAPE   H4S18041   1.620   1.855   6.800 -0.3956 -1.4602  1.1464
  161SAPE   C2518042   1.795   1.863   6.681  0.3400  0.6328 -0.6529
  161SAPE   H5R18043   1.819   1.879   6.574 -3.5286  2.1660 -1.4506
  161SAPE   C2618044   1.893   1.868   6.773  0.5823 -0.8319  0.3304
  161SAPE   H6R18045   1.996   1.873   6.736 -0.1924  2.1234 -1.7956
  161SAPE   C2718046   1.866   1.857   6.923  0.2111 -0.3191  0.4169
  161SAPE   H7R18047   1.765   1.893   6.951 -0.2113 -0.4017 -0.8895
  161SAPE   H7S18048   1.934   1.928   6.974  1.1362 -0.8931  0.0127
  161SAPE   C2818049   1.893   1.726   6.988  1.1333  0.0511  0.0653
  161SAPE   H8R18050   1.838   1.638   6.951  3.9943 -2.2539  0.9040
  161SAPE   C2918051   1.975   1.702   7.094  0.4391 -0.0664 -0.5170
  161SAPE   H9R18052   1.978   1.597   7.128 -2.3646 -0.2200 -0.4753
  161SAPE  C21018053   2.065   1.801   7.167  0.2877 -0.1572  1.1651
  161SAPE  H10R18054   1.999   1.876   7.217  1.4279  1.0215  0.9556
  161SAPE  H10S18055   2.113   1.868   7.092  0.2106  0.2062  1.4344
  161SAPE  C21118056   2.172   1.744   7.256 -0.4646  0.1363 -0.3487
  161SAPE  H11R18057   2.256   1.703   7.199  0.8985 -1.8432  2.7711
  161SAPE  C21218058   2.184   1.757   7.392 -0.0062 -0.6798  0.0607
  161SAPE  H12R18059   2.263   1.698   7.442  0.1425 -0.6355 -0.1178
  161SAPE  C21318060   2.091   1.811   7.492 -0.1760 -0.4777  0.2791
  161SAPE  H13R18061   2.018   1.880   7.444  1.3665  2.3488  1.7373
  161SAPE  H13S18062   2.146   1.872   7.567 -0.1843  1.1326 -0.9724
  161SAPE  C21418063   2.016   1.686   7.547  0.3595 -0.5647 -0.2724
  161SAPE  H14R18064   1.980   1.617   7.469  1.6930 -1.2104 -0.3467
  161SAPE  C21518065   1.990   1.659   7.675 -0.1366  0.1557 -0.1028
  161SAPE  H15R18066   1.940   1.563   7.697  0.4026  0.1474  1.1791
  161SAPE  C21618067   2.037   1.743   7.787  0.0303 -0.8021 -1.1506
  161SAPE  H16R18068   2.075   1.847   7.773  0.0149 -0.8314 -1.4238
  161SAPE  H16S18069   2.124   1.698   7.838 -0.9538  0.0513  1.4522
  161SAPE  C21718070   1.930   1.750   7.899  0.0960  0.0146 -0.9522
  161SAPE  H17R18071   1.882   1.651   7.914 -1.1494  0.7196 -0.1036
  161SAPE  H17S18072   1.860   1.835   7.882 -0.3407  0.2693  1.7054
  161SAPE  C21818073   2.013   1.786   8.028  0.0484 -0.2008  0.5334
  161SAPE  H18R18074   2.058   1.883   7.998  0.7615 -0.6742  0.0373
  161SAPE  H18S18075   2.099   1.719   8.048  0.7882  1.3741  2.9982
  161SAPE  C21918076   1.915   1.806   8.149  0.3248 -0.3504  1.1091
  161SAPE  H19R18077   1.821   1.848   8.108  0.5987 -2.0994 -1.4678
  161SAPE  H19S18078   1.964   1.862   8.232  2.2272  0.1931 -0.3351
  161SAPE  C22018079   1.883   1.670   8.206 -0.2723  0.3466 -0.1479
  161SAPE  H20R18080   1.970   1.637   8.267  1.5622  3.4343 -0.9311
  161SAPE  H20S18081   1.858   1.599   8.124  1.4904  1.4902 -1.7523
  161SAPE  H20T18082   1.802   1.698   8.277 -1.0838  0.9339 -1.2910
  161SAPE   C3318083   2.034   2.230   7.123  0.3967  0.1265  0.1532
  161SAPE   H3X18084   2.132   2.181   7.107  1.2646  1.4537  1.1381
  161SAPE   H3Y18085   1.956   2.151   7.132 -2.5424  2.9219  1.3805
  161SAPE   C3418086   2.039   2.291   7.262  0.2006 -0.6552 -0.0355
  161SAPE   H4X18087   1.944   2.341   7.292  0.4673  0.3271 -0.7661
  161SAPE   H4Y18088   2.106   2.380   7.253 -1.0699  0.3597  0.1868
  161SAPE   C3518089   2.088   2.196   7.375 -0.0819 -0.1540 -0.0618
  161SAPE   H5X18090   2.183   2.153   7.338 -0.7568 -0.8749 -1.0000
  161SAPE   H5Y18091   2.012   2.120   7.401  0.9808 -0.4127  2.5795
  161SAPE   C3618092   2.111   2.280   7.504  0.7170  0.5615  0.4303
  161SAPE   H6X18093   2.025   2.350   7.511 -0.3592 -0.2499 -2.8478
  161SAPE   H6Y18094   2.200   2.343   7.485  1.0371 -0.0333 -0.0947
  161SAPE   C3718095   2.125   2.183   7.625 -0.2013 -0.4304  0.0935
  161SAPE   H7X18096   2.228   2.142   7.615  0.3613  0.5307  1.6205
  161SAPE   H7Y18097   2.045   2.106   7.625 -0.8048  0.1804  0.5016
  161SAPE   C3818098   2.108   2.262   7.751  0.1469  0.3782  0.0832
  161SAPE   H8X18099   2.020   2.331   7.744  1.4940  2.1035 -0.6857
  161SAPE   H8Y18100   2.196   2.328   7.761 -0.6170  1.4068  0.2262
  161SAPE   C3918101   2.111   2.177   7.880  0.3206 -0.7842 -0.3524
  161SAPE   H9X18102   2.214   2.136   7.889  0.4585 -0.3691 -0.0221
  161SAPE   H9Y18103   2.052   2.085   7.861  1.8393 -1.8067 -0.2790
  161SAPE  C31018104   2.061   2.235   8.015  0.2108  0.8965 -0.2314
  161SAPE  H10X18105   2.063   2.151   8.087  1.4460  1.9164  0.9705
  161SAPE  H10Y18106   1.955   2.269   8.011 -0.3315 -0.6586  0.2692
  161SAPE  C31118107   2.163   2.344   8.070  0.2455  0.2247  0.7621
  161SAPE  H11X18108   2.165   2.431   8.002  1.9687 -0.1378  0.2972
  161SAPE  H11Y18109   2.256   2.288   8.045 -0.0620  0.6530 -1.5843
  161SAPE  C31218110   2.162   2.376   8.224  0.4328  0.3363  0.1443
  161SAPE  H12X18111   2.151   2.283   8.285 -0.1464 -0.2648 -0.8419
  161SAPE  H12Y18112   2.076   2.441   8.251 -0.4485 -1.3450  1.6387
  161SAPE  C31318113   2.286   2.456   8.274 -0.4249  0.3910  0.3168
  161SAPE  H13X18114   2.297   2.551   8.216  2.6624 -0.9586 -1.5340
  161SAPE  H13Y18115   2.378   2.400   8.249 -0.7763 -0.1323  0.1873
  161SAPE  C31418116   2.267   2.491   8.415 -0.1847 -0.8947 -0.0282
  161SAPE  H14X18117   2.175   2.551   8.431 -0.6441 -1.8315  1.0028
  161SAPE  H14Y18118   2.352   2.554   8.449 -0.1828 -1.0530  0.2652
  161SAPE  C31518119   2.270   2.371   8.516  0.0305 -0.1131 -0.2598
  161SAPE  H15X18120   2.372   2.327   8.517 -0.4247 -1.2053 -0.3090
  161SAPE  H15Y18121   2.201   2.292   8.480  0.6527  0.4770 -2.8934
  161SAPE  C31618122   2.241   2.417   8.656  0.2673 -0.1986 -0.4757
  161SAPE  H16X18123   2.282   2.520   8.667  0.5939 -0.3114 -0.6363
  161SAPE  H16Y18124   2.281   2.352   8.737 -0.4555  2.1134  1.8993
  161SAPE  C31718125   2.082   2.414   8.688  0.8014 -0.1640 -0.2597
  161SAPE  H17X18126   2.042   2.316   8.721  0.0635 -0.3319 -1.6144
  161SAPE  H17Y18127   2.026   2.444   8.597  1.5323 -0.6856 -0.8919
  161SAPE  C31818128   2.064   2.504   8.812  0.3364  0.0591  0.8446
  161SAPE  H18X18129   2.104   2.606   8.791 -1.2419  1.2132  3.0479
  161SAPE  H18Y18130   2.123   2.473   8.902  0.8669  1.9690  1.2039
  161SAPE  H18Z18131   1.956   2.516   8.833  0.5311  4.4047  0.2360
  162SAPE     N18132   1.115   5.972   6.083 -0.7086 -0.3614 -0.7813
  162SAPE   HN118133   1.205   6.024   6.073 -1.1230  0.3280 -0.9872
  162SAPE   HN218134   1.144   5.872   6.084 -0.3340 -0.2891  1.4610
  162SAPE   HN318135   1.063   5.990   5.995  0.7550  0.8783 -1.4425
  162SAPE   C1218136   1.054   6.018   6.220 -0.0126 -0.0122  0.3320
  162SAPE  H12A18137   1.140   6.043   6.285 -1.1751  1.8979  1.2511
  162SAPE  H12B18138   0.998   5.926   6.249 -0.7326 -0.3183 -1.8647
  162SAPE   C1118139   0.959   6.142   6.213  0.2357  0.9665 -0.1580
  162SAPE  H11A18140   0.912   6.156   6.313 -0.0568  1.4708 -0.3586
  162SAPE  H11B18141   0.879   6.106   6.146 -0.7584  0.7405  1.0977
  162SAPE     P18142   0.930   6.365   6.109  0.2493  0.0099  0.2996
  162SAPE   O1318143   0.964   6.495   6.166 -0.3342 -0.3652  0.3567
  162SAPE   O1418144   0.932   6.359   5.964  0.0472  0.5973  0.7185
  162SAPE   O1218145   1.024   6.256   6.167 -0.6155 -0.1814 -0.1247
  162SAPE   O1118146   0.778   6.323   6.154  0.6637  0.2437  0.9828
  162SAPE    C118147   0.693   6.412   6.218  0.2104 -0.1045  0.0713
  162SAPE    HA18148   0.688   6.505   6.158  1.8134 -0.0911 -0.0961
  162SAPE    HB18149   0.590   6.371   6.208 -1.2718  3.4692 -0.5164
  162SAPE    C218150   0.724   6.436   6.368 -0.2285 -0.0708  0.1005
  162SAPE    HS18151   0.790   6.525   6.370 -2.6160  1.7957  0.0456
  162SAPE   O2118152   0.775   6.321   6.429 -0.0209  0.2590 -0.1201
  162SAPE   C2118153   0.858   6.345   6.534 -0.5637  0.8879 -0.0492
  162SAPE   O2218154   0.903   6.454   6.561 -0.2777  0.1342 -0.5753
  162SAPE   C2218155   0.893   6.216   6.603 -0.2225 -0.5651  0.1883
  162SAPE   H2R18156   0.966   6.163   6.538 -1.7741 -2.3358 -0.1796
  162SAPE   H2S18157   0.956   6.248   6.689  0.6767  3.1694 -1.6278
  162SAPE    C318158   0.597   6.494   6.447 -0.0518 -0.0614  0.1380
  162SAPE    HX18159   0.525   6.410   6.439  0.6635 -0.6324 -0.5528
  162SAPE    HY18160   0.551   6.579   6.393 -1.2257  0.1233  1.3866
  162SAPE   O3118161   0.610   6.521   6.587 -0.5431 -0.0332 -0.0973
  162SAPE   C3118162   0.633   6.647   6.624 -0.9810  0.5842 -0.0404
  162SAPE   O3218163   0.635   6.747   6.549 -0.0653 -0.1633 -0.1643
  162SAPE   C3218164   0.686   6.644   6.769 -0.4104  0.2323 -0.1134
  162SAPE   H2X18165   0.792   6.612   6.758 -0.1027  0.2413  2.2552
  162SAPE   H2Y18166   0.625   6.573   6.828 -1.2765 -0.0959 -1.3598
  162SAPE   C2318167   0.775   6.127   6.650 -0.7277 -0.1357  1.2062
  162SAPE   H3R18168   0.722   6.081   6.564 -1.4012  0.3135  1.3769
  162SAPE   H3S18169   0.709   6.198   6.704  0.9391  2.0290  0.5410
  162SAPE   C2418170   0.835   6.014   6.740  0.4445 -0.8838  0.2634
  162SAPE   H4R18171   0.912   5.946   6.697  0.6581 -0.8001  0.5088
  162SAPE   H4S18172   0.754   5.944   6.768  0.2638 -1.0397 -0.6385
  162SAPE   C2518173   0.883   6.072   6.872  0.0303 -0.2437  0.9817
  162SAPE   H5R18174   0.992   6.084   6.878  0.0020  3.6567 -2.3466
  162SAPE   C2618175   0.803   6.112   6.969 -0.6197  0.5638 -0.0326
  162SAPE   H6R18176   0.851   6.147   7.061 -0.3753  2.2270 -0.7551
  162SAPE   C2718177   0.662   6.128   6.978  0.5373  0.3525 -0.3640
  162SAPE   H7R18178   0.627   6.055   7.054  1.5172  0.3438  0.0856
  162SAPE   H7S18179   0.626   6.094   6.878  1.4588 -0.9342 -0.2786
  162SAPE   C2818180   0.598   6.258   6.992  0.2553 -0.5606 -0.0411
  162SAPE   H8R18181   0.513   6.272   6.923  1.0527  0.0115 -0.9307
  162SAPE   C2918182   0.618   6.348   7.089 -0.9162 -1.0085  0.4626
  162SAPE   H9R18183   0.558   6.440   7.080 -0.5714 -0.8843 -0.7323
  162SAPE  C21018184   0.717   6.334   7.201 -0.1985  0.6308  0.2371
  162SAPE  H10R18185   0.804   6.401   7.183  0.7097 -0.9704 -1.7259
  162SAPE  H10S18186   0.768   6.236   7.206 -0.9633  0.2316  0.3095
  162SAPE  C21118187   0.656   6.369   7.332 -0.3658  0.0127  0.8772
  162SAPE  H11R18188   0.646   6.476   7.352 -1.1664 -0.2037  1.7215
  162SAPE  C21218189   0.620   6.288   7.431 -0.7693  0.3129 -0.2807
  162SAPE  H12R18190   0.579   6.328   7.525  0.6338 -1.3710  1.1139
  162SAPE  C21318191   0.622   6.141   7.437 -0.6949  0.3134 -0.1026
  162SAPE  H13R18192   0.714   6.112   7.493  0.0294  1.8527 -0.4639
  162SAPE  H13S18193   0.624   6.100   7.334  0.3396 -0.6380  0.2749
  162SAPE  C21418194   0.505   6.073   7.512 -0.2328 -0.6688 -0.4287
  162SAPE  H14R18195   0.424   6.040   7.445 -2.2804  2.6625  0.1599
  162SAPE  C21518196   0.486   6.046   7.643 -0.0734 -0.3764 -0.2973
  162SAPE  H15R18197   0.388   6.019   7.685 -0.3510  0.7581 -0.1889
  162SAPE  C21618198   0.582   6.081   7.755  0.0335 -0.0338 -0.0503
  162SAPE  H16R18199   0.648   6.163   7.718 -0.8073  0.2195 -1.0196
  162SAPE  H16S18200   0.651   5.996   7.774 -1.8200 -1.4753  0.4011
  162SAPE  C21718201   0.502   6.139   7.871 -0.2621  0.1155  0.2884
  162SAPE  H17R18202   0.575   6.154   7.953 -0.9839 -1.1515  1.1858
  162SAPE  H17S18203   0.427   6.060   7.891  0.9944 -1.4399 -0.8368
  162SAPE  C21818204   0.432   6.282   7.839  0.1102 -0.0483  0.1185
  162SAPE  H18R18205   0.361   6.265   7.755 -0.9807 -2.3873  1.4236
  162SAPE  H18S18206   0.507   6.358   7.809 -0.9429  0.9290 -0.0949
  162SAPE  C21918207   0.350   6.354   7.952 -0.2242 -0.1649 -0.2062
  162SAPE  H19R18208   0.253   6.300   7.960 -1.3454  1.8414  0.5790
  162SAPE  H19S18209   0.325   6.453   7.908 -2.7387 -0.2740  0.7999
  162SAPE  C22018210   0.424   6.365   8.088 -0.7991  0.2146  0.1246
  162SAPE  H20R18211   0.360   6.417   8.163 -0.1590 -0.2442  1.0084
  162SAPE  H20S18212   0.525   6.409   8.075 -0.4315 -0.7280 -0.2908
  162SAPE  H20T18213   0.430   6.257   8.111 -0.7850  0.4833  1.4550
  162SAPE   C3318214   0.704   6.785   6.826  0.0177  0.3873  0.3282
  162SAPE   H3X18215   0.609   6.842   6.830 -0.4639 -0.3505 -0.3513
  162SAPE   H3Y18216   0.781   6.846   6.774  0.2851  0.2572  0.5638
  162SAPE   C3418217   0.756   6.788   6.974 -0.3435  0.0349 -0.5088
  162SAPE   H4X18218   0.672   6.755   7.039 -0.0011 -0.2487 -0.2037
  162SAPE   H4Y18219   0.780   6.888   7.016 -1.1551 -0.0668  0.2327
  162SAPE   C3518220   0.868   6.688   6.990 -0.2848  0.5295  0.0277
  162SAPE   H5X18221   0.946   6.695   6.912  0.4749  0.2170  0.7366
  162SAPE   H5Y18222   0.839   6.580   6.995 -0.6861  0.6498  0.4223
  162SAPE   C3618223   0.951   6.709   7.123  0.1564 -0.0602 -1.0000
  162SAPE   H6X18224   0.996   6.811   7.118  0.1685 -0.0794 -1.3214
  162SAPE   H6Y18225   1.025   6.628   7.139 -1.0067 -1.1270 -0.8302
  162SAPE   C3718226   0.848   6.697   7.239  0.1449 -0.2706  0.5364
  162SAPE   H7X18227   0.780   6.615   7.208  2.1174 -1.6697 -0.3826
  162SAPE   H7Y18228   0.796   6.794   7.251  0.0834 -0.4650  1.9516
  162SAPE   C3818229   0.911   6.648   7.370 -0.2144  0.1408  0.0578
  162SAPE   H8X18230   1.007   6.701   7.387 -0.1141 -0.2068  0.5984
  162SAPE   H8Y18231   0.955   6.546   7.362  2.3175  1.0415  1.4280
  162SAPE   C3918232   0.830   6.660   7.493 -0.2490  0.6083  0.2566
  162SAPE   H9X18233   0.735   6.605   7.504 -0.3306  0.2998 -1.6751
  162SAPE   H9Y18234   0.808   6.767   7.515  0.6481  0.4062  2.4702
  162SAPE  C31018235   0.915   6.640   7.619  0.1091  0.1082 -0.1911
  162SAPE  H10X18236   0.989   6.723   7.615  0.9020 -0.6202 -1.4238
  162SAPE  H10Y18237   0.962   6.541   7.604  0.7991  0.6074 -1.3969
  162SAPE  C31118238   0.836   6.641   7.749  0.3976  0.3296 -0.2645
  162SAPE  H11X18239   0.765   6.556   7.758 -0.0164  0.8731  3.8353
  162SAPE  H11Y18240   0.773   6.732   7.760  1.5344  0.9536  1.5055
  162SAPE  C31218241   0.930   6.639   7.871 -0.2362  0.1056  0.1721
  162SAPE  H12X18242   0.990   6.732   7.875 -0.1213  0.0039  3.2784
  162SAPE  H12Y18243   0.984   6.542   7.867  0.4286  0.5022 -1.6638
  162SAPE  C31318244   0.853   6.623   8.007 -0.1624 -0.0463  0.3452
  162SAPE  H13X18245   0.791   6.532   7.993 -3.7152  2.2041  0.2958
  162SAPE  H13Y18246   0.778   6.704   8.016 -1.9943 -1.6850  0.5736
  162SAPE  C31418247   0.929   6.618   8.140 -0.3187  0.6164  0.2429
  162SAPE  H14X18248   1.022   6.676   8.119 -0.3240  0.0208 -1.6867
  162SAPE  H14Y18249   0.961   6.512   8.150  2.3215  1.3140 -0.0499
  162SAPE  C31518250   0.859   6.666   8.265 -0.1064  0.1652  0.4425
  162SAPE  H15X18251   0.844   6.776   8.260 -1.9128 -0.1103 -1.7560
  162SAPE  H15Y18252   0.918   6.652   8.357  1.0826  0.4184 -0.2664
  162SAPE  C31618253   0.723   6.592   8.283  0.2868 -0.4634  0.4243
  162SAPE  H16X18254   0.741   6.482   8.287  1.4733 -0.3751 -1.3663
  162SAPE  H16Y18255   0.653   6.610   8.199  2.6480  0.0396 -1.5533
  162SAPE  C31718256   0.646   6.627   8.411 -0.5195  0.3150  0.5740
  162SAPE  H17X18257   0.625   6.735   8.422  0.1088  1.0400 -3.7699
  162SAPE  H17Y18258   0.712   6.599   8.497  0.3937  0.7307  0.0292
  162SAPE  C31818259   0.507   6.548   8.438 -0.5008  0.3670  0.6714
  162SAPE  H18X18260   0.523   6.438   8.433 -0.3974  0.4231 -0.2717
  162SAPE  H18Y18261   0.437   6.555   8.353 -0.4702 -2.3200  0.3507
  162SAPE  H18Z18262   0.470   6.581   8.537 -3.1795 -1.2683  0.3049
  163SAPE     N18263   6.593   3.392   6.483  0.2653  0.2544  0.0383
  163SAPE   HN118264   6.580   3.369   6.383  0.5570  1.0713 -0.1942
  163SAPE   HN218265   6.636   3.487   6.480  0.1495  0.2891 -0.5853
  163SAPE   HN318266   6.669   3.332   6.524  0.7611 -0.0252 -1.2380
  163SAPE   C1218267   6.459   3.412   6.545  0.0263 -0.6448  0.4775
  163SAPE  H12A18268   6.422   3.323   6.601 -3.3204 -2.1643 -3.5787
  163SAPE  H12B18269   6.386   3.411   6.462 -1.8150 -0.5684  2.0234
  163SAPE   C1118270   6.447   3.538   6.632 -0.0352 -0.3993  0.7418
  163SAPE  H11A18271   6.498   3.515   6.728  1.3205  0.8834  0.3692
  163SAPE  H11B18272   6.338   3.560   6.636 -0.2019 -0.4585 -1.6382
  163SAPE     P18273   6.499   3.798   6.615 -0.4425 -0.2300  0.1010
  163SAPE   O1318274   6.599   3.880   6.547  0.6775  0.2692  1.0465
  163SAPE   O1418275   6.355   3.844   6.587  0.2887  0.4318 -0.7162
  163SAPE   O1218276   6.523   3.646   6.568  0.0885 -0.0168 -0.3548
  163SAPE   O1118277   6.527   3.810   6.769 -0.1669 -0.3632  0.3367
  163SAPE    C118278   6.651   3.755   6.825  0.5943 -0.5147 -0.2324
  163SAPE    HA18279   6.673   3.654   6.784  0.6290 -0.9167  0.7496
  163SAPE    HB18280   6.741   3.810   6.789  2.0673 -0.9376  2.5032
  163SAPE    C218281   6.646   3.753   6.978  0.6539  0.0569  0.1678
  163SAPE    HS18282   6.745   3.711   7.007  1.1151 -0.3956 -1.9094
  163SAPE   O2118283   6.528   3.673   7.026  0.4618 -0.1129  0.7824
  163SAPE   C2118284   6.553   3.549   7.029  0.5980 -1.0024  0.1532
  163SAPE   O2218285   6.660   3.495   7.006  0.2044 -0.0584 -0.2796
  163SAPE   C2218286   6.418   3.482   7.061  0.3266 -0.6997 -0.1314
  163SAPE   H2R18287   6.374   3.541   7.144 -1.2419  0.7286 -1.9100
  163SAPE   H2S18288   6.345   3.490   6.978  0.7907  0.4241 -0.4398
  163SAPE    C318289   6.632   3.902   7.035  0.2137  0.3357 -0.2370
  163SAPE    HX18290   6.525   3.929   7.048  0.2953 -0.1356  1.7513
  163SAPE    HY18291   6.674   3.979   6.968 -0.2266  3.4484  2.7710
  163SAPE   O3118292   6.689   3.924   7.165  0.5370 -0.0230  0.7831
  163SAPE   C3118293   6.817   3.971   7.162 -0.2740 -0.0888 -0.6194
  163SAPE   O3218294   6.878   3.996   7.063  0.2962 -0.8888  0.3625
  163SAPE   C3218295   6.873   3.983   7.303  0.1143 -0.4708  0.3122
  163SAPE   H2X18296   6.871   3.882   7.350  0.5242 -1.3255 -1.4006
  163SAPE   H2Y18297   6.807   4.058   7.351 -1.1978  0.4329 -2.6290
  163SAPE   C2318298   6.426   3.333   7.097 -0.5314  0.4191 -0.3322
  163SAPE   H3R18299   6.501   3.281   7.034  0.3156  0.2208  0.7944
  163SAPE   H3S18300   6.326   3.286   7.087 -0.8011  0.0866  2.9554
  163SAPE   C2418301   6.452   3.302   7.244  0.1116 -0.4095  0.4216
  163SAPE   H4R18302   6.432   3.194   7.261 -2.9793 -0.1454 -0.7068
  163SAPE   H4S18303   6.374   3.358   7.300  1.5153  3.7422 -1.4324
  163SAPE   C2518304   6.593   3.340   7.289 -0.2042  0.9977  0.1993
  163SAPE   H5R18305   6.670   3.270   7.254 -1.8691 -0.3329 -1.0215
  163SAPE   C2618306   6.623   3.452   7.349 -0.7896 -0.7813 -0.3059
  163SAPE   H6R18307   6.730   3.462   7.370 -0.3933 -0.7738 -2.1149
  163SAPE   C2718308   6.533   3.565   7.399  0.2735  0.7489 -0.3269
  163SAPE   H7R18309   6.546   3.565   7.509  1.7669  0.1739 -0.4705
  163SAPE   H7S18310   6.430   3.533   7.372  0.2322 -0.9532  1.5978
  163SAPE   C2818311   6.544   3.707   7.355 -1.0838 -0.5160  1.0248
  163SAPE   H8R18312   6.496   3.732   7.259  0.1850  0.6105  0.6585
  163SAPE   C2918313   6.590   3.813   7.425 -0.3942 -0.0926  0.1537
  163SAPE   H9R18314   6.604   3.911   7.377  0.9717  0.7810  2.1856
  163SAPE  C21018315   6.646   3.823   7.565 -0.0517  0.3032 -0.1125
  163SAPE  H10R18316   6.572   3.788   7.641  0.8323 -0.9887  0.1710
  163SAPE  H10S18317   6.657   3.931   7.589  2.4984 -0.3587  2.1333
  163SAPE  C21118318   6.779   3.761   7.591 -0.5786 -0.4532  0.7790
  163SAPE  H11R18319   6.785   3.653   7.572 -0.1500 -0.2034 -0.6459
  163SAPE  C21218320   6.885   3.809   7.651  0.3880 -0.5450  0.1590
  163SAPE  H12R18321   6.970   3.742   7.671 -0.5494 -1.6491  0.5175
  163SAPE  C21318322   6.894   3.953   7.699 -0.1854  0.1422  0.4964
  163SAPE  H13R18323   6.797   3.992   7.737 -0.6456  1.2149 -1.5809
  163SAPE  H13S18324   6.921   4.014   7.610 -0.9894 -1.1547 -0.6826
  163SAPE  C21418325   6.992   3.980   7.809  0.2208 -0.9062  0.8979
  163SAPE  H14R18326   7.074   4.050   7.789 -0.3322 -1.1680 -3.0463
  163SAPE  C21518327   6.962   3.945   7.932 -0.0231  0.1456 -0.0678
  163SAPE  H15R18328   7.039   3.974   8.004  0.0903 -0.7477  0.1896
  163SAPE  C21618329   6.841   3.865   7.989 -0.7079  0.4958  0.3360
  163SAPE  H16R18330   6.796   3.804   7.908 -0.1684 -1.3092  1.3386
  163SAPE  H16S18331   6.766   3.933   8.033 -0.5770  0.6710  0.2914
  163SAPE  C21718332   6.898   3.770   8.091  0.3345 -0.9057 -0.2064
  163SAPE  H17R18333   6.810   3.706   8.113  0.2152 -0.3439  1.0743
  163SAPE  H17S18334   6.932   3.817   8.185 -1.8075  1.8859 -0.6835
  163SAPE  C21818335   7.012   3.685   8.031  0.1045 -0.4338 -0.0963
  163SAPE  H18R18336   7.107   3.743   8.022 -0.4525  0.1796 -3.4516
  163SAPE  H18S18337   6.992   3.661   7.925  2.2775  4.0475 -1.7850
  163SAPE  C21918338   7.039   3.555   8.113  0.0929 -0.3076 -0.9005
  163SAPE  H19R18339   7.090   3.492   8.038 -0.4241 -1.8679  0.0176
  163SAPE  H19S18340   6.937   3.519   8.138 -0.5434  2.8401  1.7858
  163SAPE  C22018341   7.124   3.585   8.240 -0.0756 -0.5511  0.3969
  163SAPE  H20R18342   7.077   3.665   8.301 -0.4139 -0.6591  0.2838
  163SAPE  H20S18343   7.224   3.616   8.202  0.2231  1.1470  2.4406
  163SAPE  H20T18344   7.143   3.495   8.303  1.3004 -0.4470  0.1572
  163SAPE   C3318345   7.030   4.033   7.312  0.1962 -0.8575 -0.0835
  163SAPE   H3X18346   7.085   4.042   7.215  0.6466 -1.3376  0.1207
  163SAPE   H3Y18347   7.081   3.965   7.383  1.9919 -1.9015 -2.2672
  163SAPE   C3418348   7.014   4.179   7.372 -0.4308  0.1692 -0.3300
  163SAPE   H4X18349   6.985   4.163   7.478  3.4712 -1.4954  0.6738
  163SAPE   H4Y18350   6.932   4.236   7.325 -0.9144  2.2893  2.7349
  163SAPE   C3518351   7.157   4.262   7.384  0.6744 -0.3006 -0.1087
  163SAPE   H5X18352   7.160   4.326   7.294 -0.5682 -0.6884 -0.4493
  163SAPE   H5Y18353   7.242   4.191   7.380  1.7601  0.7563  2.2020
  163SAPE   C3618354   7.183   4.343   7.516  0.2940 -0.2243  0.0351
  163SAPE   H6X18355   7.101   4.419   7.523 -0.3448 -0.8143 -0.8428
  163SAPE   H6Y18356   7.278   4.399   7.502 -0.1656  0.1494 -2.1021
  163SAPE   C3718357   7.197   4.247   7.633  0.4478 -0.2510 -0.0126
  163SAPE   H7X18358   7.261   4.162   7.603  0.9129  0.0770  0.0457
  163SAPE   H7Y18359   7.096   4.203   7.648 -0.2038  1.0685 -0.3356
  163SAPE   C3818360   7.250   4.312   7.761  0.2116  0.1232 -0.7191
  163SAPE   H8X18361   7.340   4.373   7.740  0.4221  0.2211  0.4245
  163SAPE   H8Y18362   7.285   4.227   7.824  1.1115  1.2519  0.3326
  163SAPE   C3918363   7.155   4.407   7.830 -0.2778  0.3322  0.1440
  163SAPE   H9X18364   7.072   4.338   7.855 -0.1095 -0.4393 -1.3214
  163SAPE   H9Y18365   7.118   4.477   7.751  0.2229 -0.6722 -1.0212
  163SAPE  C31018366   7.216   4.481   7.952 -0.0061 -0.3063  0.2580
  163SAPE  H10X18367   7.133   4.544   7.989 -1.2066 -1.3125 -0.6607
  163SAPE  H10Y18368   7.291   4.557   7.921  1.8389 -1.7721  0.9485
  163SAPE  C31118369   7.264   4.399   8.072  0.4262  0.6754  0.8426
  163SAPE  H11X18370   7.310   4.467   8.147  0.6724  1.5075 -0.0428
  163SAPE  H11Y18371   7.346   4.338   8.027  0.1930  0.9111  0.0723
  163SAPE  C31218372   7.159   4.310   8.144  0.0876  0.7139 -0.0300
  163SAPE  H12X18373   7.094   4.254   8.074  0.8204 -0.9497  0.5901
  163SAPE  H12Y18374   7.089   4.371   8.206  0.4124  0.2906  0.7655
  163SAPE  C31318375   7.232   4.214   8.241  0.2418  0.2951 -0.6657
  163SAPE  H13X18376   7.279   4.279   8.317  0.5299  0.7780 -1.2502
  163SAPE  H13Y18377   7.296   4.151   8.175 -0.6510  0.8534 -2.1093
  163SAPE  C31418378   7.120   4.125   8.308  0.1397 -0.1628  0.4972
  163SAPE  H14X18379   7.186   4.048   8.352  1.1822 -0.3377 -1.2935
  163SAPE  H14Y18380   7.051   4.080   8.233 -0.6588  1.1006  0.4470
  163SAPE  C31518381   7.038   4.198   8.415  0.5803  0.1635 -0.2597
  163SAPE  H15X18382   6.978   4.274   8.360  0.0337  1.1220  1.6013
  163SAPE  H15Y18383   7.103   4.241   8.493  0.0920  0.1746  0.1482
  163SAPE  C31618384   6.935   4.107   8.489 -0.5416 -0.4275 -0.2821
  163SAPE  H16X18385   6.916   4.129   8.596  1.6049 -0.6396  0.1838
  163SAPE  H16Y18386   6.986   4.009   8.494 -1.5052 -0.8628  1.6003
  163SAPE  C31718387   6.807   4.105   8.407  0.2851  0.1432  0.2543
  163SAPE  H17X18388   6.835   4.120   8.300 -2.2316 -0.5878 -0.5694
  163SAPE  H17Y18389   6.733   4.182   8.433 -0.3629 -0.6879  0.9159
  163SAPE  C31818390   6.745   3.963   8.427 -0.3130 -0.2971  0.4334
  163SAPE  H18X18391   6.718   3.948   8.534  0.5473  0.0917  0.7080
  163SAPE  H18Y18392   6.813   3.884   8.390 -0.4584 -0.3598  0.2988
  163SAPE  H18Z18393   6.654   3.945   8.366 -0.3371 -3.4671  1.2491
  164SAPE     N18394   1.803   0.695   6.148 -0.5452  0.4897  0.7019
  164SAPE   HN118395   1.888   0.729   6.198  0.3759  0.1816 -0.6175
  164SAPE   HN218396   1.715   0.737   6.184 -1.6140  1.1067 -2.3956
  164SAPE   HN318397   1.800   0.591   6.149 -3.3961  0.4529  2.5034
  164SAPE   C1218398   1.815   0.743   6.007 -0.3226 -0.2242 -0.0765
  164SAPE  H12A18399   1.873   0.838   6.011  0.8334 -0.9287  3.3817
  164SAPE  H12B18400   1.716   0.766   5.961 -0.3615 -1.3565 -0.5767
  164SAPE   C1118401   1.887   0.641   5.919 -0.0034  0.1191 -0.2286
  164SAPE  H11A18402   1.986   0.621   5.966  0.8857 -0.6229 -2.2936
  164SAPE  H11B18403   1.911   0.693   5.824 -1.7982  0.1072 -0.7182
  164SAPE     P18404   1.842   0.388   5.969 -0.1841  0.5595 -0.2795
  164SAPE   O1318405   1.736   0.286   5.953  0.2167  0.0705  0.0126
  164SAPE   O1418406   1.981   0.352   5.939 -0.0097  0.2214 -0.2297
  164SAPE   O1218407   1.811   0.519   5.888  0.4384  0.2096 -0.9108
  164SAPE   O1118408   1.837   0.427   6.119  0.2390 -0.1978  0.1719
  164SAPE    C118409   1.842   0.315   6.208 -1.2901  0.4251 -0.3356
  164SAPE    HA18410   1.761   0.239   6.211 -2.0900  1.2541 -0.4137
  164SAPE    HB18411   1.932   0.251   6.195 -1.5442 -0.5347  2.1137
  164SAPE    C218412   1.852   0.368   6.348  0.6153  0.0666  0.3607
  164SAPE    HS18413   1.851   0.284   6.421 -3.2670 -1.7310 -1.4105
  164SAPE   O2118414   1.732   0.447   6.372  0.3517  0.3827  0.1949
  164SAPE   C2118415   1.622   0.376   6.403  0.4063  0.1512  0.0582
  164SAPE   O2218416   1.613   0.258   6.406  0.2707  0.9663  0.1591
  164SAPE   C2218417   1.503   0.467   6.450 -0.0100  0.1573  0.2383
  164SAPE   H2R18418   1.447   0.507   6.363 -0.1592 -1.8211 -0.6320
  164SAPE   H2S18419   1.432   0.404   6.506 -0.8126 -1.8824 -2.8310
  164SAPE    C318420   1.973   0.459   6.367 -0.8746 -0.1337  0.1307
  164SAPE    HX18421   1.960   0.543   6.296  3.2193  2.7726  2.4538
  164SAPE    HY18422   2.069   0.414   6.335 -0.6170  1.0595 -0.8589
  164SAPE   O3118423   1.982   0.518   6.494 -0.3732  0.5870 -0.0297
  164SAPE   C3118424   2.024   0.437   6.595 -0.1711 -0.4252  0.5323
  164SAPE   O3218425   2.036   0.318   6.589  0.2769 -0.5761  0.0562
  164SAPE   C3218426   2.056   0.521   6.720 -0.0660  0.2023 -0.6058
  164SAPE   H2X18427   1.965   0.574   6.756  1.7115  0.7139  3.7891
  164SAPE   H2Y18428   2.135   0.596   6.699 -0.0793  0.2548 -0.4724
  164SAPE   C2318429   1.544   0.594   6.527  0.0755 -0.1200  0.0299
  164SAPE   H3R18430   1.630   0.640   6.475 -0.0832  1.2565  0.9119
  164SAPE   H3S18431   1.565   0.577   6.635 -1.8856  0.2356  0.5115
  164SAPE   C2418432   1.441   0.713   6.515  0.0408 -0.4381  0.7204
  164SAPE   H4R18433   1.434   0.731   6.406  2.2309  0.1246  0.6395
  164SAPE   H4S18434   1.486   0.803   6.563 -0.1669  0.6475 -1.0477
  164SAPE   C2518435   1.309   0.686   6.576 -0.0568 -0.5233 -0.3508
  164SAPE   H5R18436   1.245   0.626   6.509  1.1490 -0.0037 -2.0503
  164SAPE   C2618437   1.258   0.730   6.689 -0.1847 -0.2639  0.2520
  164SAPE   H6R18438   1.156   0.697   6.714  0.2908 -2.4789 -0.4858
  164SAPE   C2718439   1.334   0.815   6.787 -0.5231  0.6105 -0.8396
  164SAPE   H7R18440   1.443   0.802   6.772 -0.2410  0.8390  0.8809
  164SAPE   H7S18441   1.326   0.751   6.877 -0.2976  0.6813 -0.7694
  164SAPE   C2818442   1.299   0.959   6.796 -0.2224 -0.2312 -0.2423
  164SAPE   H8R18443   1.301   1.007   6.698  0.1595  0.8991  0.3030
  164SAPE   C2918444   1.283   1.041   6.905 -0.4911 -0.9587  0.0753
  164SAPE   H9R18445   1.248   1.144   6.887 -2.3543 -1.4786  0.4985
  164SAPE  C21018446   1.286   1.007   7.058 -0.3827 -0.1375  0.8922
  164SAPE  H10R18447   1.326   0.904   7.058  0.9797  0.1534 -3.7507
  164SAPE  H10S18448   1.186   1.005   7.107 -1.3060  1.5420 -0.7843
  164SAPE  C21118449   1.378   1.094   7.133 -0.4546 -1.3101  0.4078
  164SAPE  H11R18450   1.480   1.054   7.130  0.6679  1.4390 -0.4404
  164SAPE  C21218451   1.351   1.199   7.207 -0.2323 -0.3001  0.4630
  164SAPE  H12R18452   1.426   1.250   7.268 -1.1094  2.3944 -0.5460
  164SAPE  C21318453   1.213   1.262   7.216  0.6190  0.8102  0.1395
  164SAPE  H13R18454   1.133   1.185   7.223  0.2580  1.1875  0.1806
  164SAPE  H13S18455   1.182   1.316   7.124 -1.2914 -1.0910 -0.4162
  164SAPE  C21418456   1.191   1.358   7.331 -0.4522  0.1331  0.3786
  164SAPE  H14R18457   1.227   1.459   7.305 -1.1296  0.3880  0.4038
  164SAPE  C21518458   1.143   1.348   7.454  0.1873 -0.0046 -0.3013
  164SAPE  H15R18459   1.118   1.442   7.504 -1.3989  0.2784 -1.5471
  164SAPE  C21618460   1.090   1.221   7.525  0.2034 -0.0682  0.5559
  164SAPE  H16R18461   1.083   1.144   7.445 -1.3333  0.0233  0.5636
  164SAPE  H16S18462   0.986   1.231   7.563  0.2724 -0.5785  0.8921
  164SAPE  C21718463   1.178   1.160   7.640  0.3280  0.1779 -1.1492
  164SAPE  H17R18464   1.205   1.245   7.706  0.7739 -0.5659 -0.3476
  164SAPE  H17S18465   1.275   1.126   7.597 -0.7344 -3.6431 -0.8615
  164SAPE  C21818466   1.106   1.063   7.723  0.0319  0.6189  0.0286
  164SAPE  H18R18467   1.082   0.967   7.672  1.8318  0.4897 -0.6309
  164SAPE  H18S18468   1.006   1.105   7.748  0.6542  2.3764 -0.3256
  164SAPE  C21918469   1.181   1.033   7.864 -0.1228 -0.6217 -0.4980
  164SAPE  H19R18470   1.113   0.963   7.916 -2.5843  1.5972 -0.5582
  164SAPE  H19S18471   1.191   1.127   7.923 -1.0603 -2.4574  2.7915
  164SAPE  C22018472   1.321   0.973   7.848  0.1969 -0.5496  0.0743
  164SAPE  H20R18473   1.356   0.930   7.945 -2.4442 -0.6085  1.1085
  164SAPE  H20S18474   1.393   1.054   7.826  0.8013 -1.0223  0.2660
  164SAPE  H20T18475   1.323   0.901   7.764 -0.6997 -0.9691  0.3879
  164SAPE   C3318476   2.102   0.434   6.848  0.7008 -0.5366 -0.0685
  164SAPE   H3X18477   2.190   0.380   6.809 -0.8043 -2.7244 -0.6287
  164SAPE   H3Y18478   2.018   0.364   6.867 -0.1379  0.0925 -1.3285
  164SAPE   C3418479   2.137   0.529   6.961  0.1728 -0.0112 -0.1641
  164SAPE   H4X18480   2.056   0.601   6.983 -0.2858 -1.1845  2.3486
  164SAPE   H4Y18481   2.228   0.579   6.921  0.4621 -0.2572  0.1712
  164SAPE   C3518482   2.180   0.442   7.091  0.6455  0.0483  0.3520
  164SAPE   H5X18483   2.234   0.509   7.161 -0.4230  0.0394  1.2132
  164SAPE   H5Y18484   2.233   0.347   7.068 -2.0918 -2.1347  2.3851
  164SAPE   C3618485   2.046   0.406   7.172 -0.3211  0.2119  1.0604
  164SAPE   H6X18486   1.968   0.340   7.128  1.8897 -0.5199 -2.0551
  164SAPE   H6Y18487   2.002   0.507   7.188 -0.7472  0.3925 -1.0036
  164SAPE   C3718488   2.074   0.355   7.305  0.3136  0.4422 -0.1623
  164SAPE   H7X18489   2.153   0.276   7.302  0.6012  0.7464 -1.4081
  164SAPE   H7Y18490   1.987   0.313   7.358  1.8733 -2.0060  0.6277
  164SAPE   C3818491   2.121   0.467   7.407 -0.1460  0.0300 -0.3367
  164SAPE   H8X18492   2.055   0.555   7.395  1.3093  1.0648 -0.9507
  164SAPE   H8Y18493   2.223   0.487   7.367 -0.9506  1.1850 -1.9276
  164SAPE   C3918494   2.133   0.419   7.549 -0.2288 -0.4821  0.9087
  164SAPE   H9X18495   2.224   0.355   7.556 -0.9683 -1.5878  0.6185
  164SAPE   H9Y18496   2.035   0.372   7.572 -0.3138  0.2576  2.1297
  164SAPE  C31018497   2.158   0.530   7.645  0.7102 -0.2911 -0.0886
  164SAPE  H10X18498   2.078   0.606   7.632 -0.7437 -1.8210 -0.5913
  164SAPE  H10Y18499   2.258   0.573   7.626 -0.3420  2.1573 -0.5161
  164SAPE  C31118500   2.147   0.475   7.795 -0.3048  0.7470  0.7131
  164SAPE  H11X18501   2.180   0.559   7.859  0.5667  1.2776 -0.3953
  164SAPE  H11Y18502   2.223   0.395   7.806 -0.4785 -0.2907 -3.7074
  164SAPE  C31218503   2.009   0.441   7.852  0.8233 -0.0107 -0.1609
  164SAPE  H12X18504   1.941   0.426   7.765 -0.2118  2.4703  0.1258
  164SAPE  H12Y18505   1.966   0.516   7.922 -0.0995 -0.1119 -0.6101
  164SAPE  C31318506   2.008   0.313   7.937  0.3207  0.0019  0.0011
  164SAPE  H13X18507   2.043   0.232   7.870  0.0543  0.2523 -0.4458
  164SAPE  H13Y18508   1.902   0.282   7.952 -0.5729  2.1479 -1.2848
  164SAPE  C31418509   2.080   0.313   8.077 -0.3488 -0.8791 -0.2621
  164SAPE  H14X18510   2.166   0.383   8.068 -0.1714 -1.1560 -0.7416
  164SAPE  H14Y18511   2.114   0.211   8.106 -0.2841  0.1147  3.8250
  164SAPE  C31518512   1.988   0.364   8.196  0.2866 -0.5294  0.6581
  164SAPE  H15X18513   1.897   0.300   8.193 -0.9436  1.1394  0.3112
  164SAPE  H15Y18514   1.959   0.468   8.169  0.6377 -0.7310 -0.5668
  164SAPE  C31618515   2.056   0.354   8.331  0.3113  0.0707  0.4267
  164SAPE  H16X18516   1.984   0.386   8.410  0.7032 -0.1825  0.8937
  164SAPE  H16Y18517   2.154   0.406   8.333  1.1456 -1.4229  0.4202
  164SAPE  C31718518   2.100   0.212   8.366 -0.3505 -0.1375  0.3432
  164SAPE  H17X18519   2.196   0.188   8.315 -0.5368  1.4281 -0.8261
  164SAPE  H17Y18520   2.022   0.139   8.336  2.2507 -3.1782  0.3740
  164SAPE  C31818521   2.130   0.208   8.517  0.4101  0.6160 -0.2855
  164SAPE  H18X18522   2.176   0.110   8.544 -2.3411 -0.5119  0.6719
  164SAPE  H18Y18523   2.036   0.203   8.576  0.3845  1.8772 -0.1958
  164SAPE  H18Z18524   2.187   0.298   8.550 -2.1606  1.8342  1.1038
  165SAPE     N18525   2.278   3.330   6.248 -0.8099  0.1826  0.3885
  165SAPE   HN118526   2.368   3.307   6.201  0.2803  2.7797  1.0301
  165SAPE   HN218527   2.208   3.274   6.195  0.1660  0.1412 -0.8984
  165SAPE   HN318528   2.252   3.431   6.240 -0.6736  0.1916  0.0197
  165SAPE   C1218529   2.259   3.304   6.393  0.3594  0.2275 -0.1677
  165SAPE  H12A18530   2.298   3.394   6.445 -0.0055 -0.3154  1.0635
  165SAPE  H12B18531   2.326   3.220   6.422  1.0031  0.1979 -1.6441
  165SAPE   C1118532   2.112   3.279   6.417  0.9535  0.7247  0.1042
  165SAPE  H11A18533   2.081   3.274   6.523 -1.1461  3.5097 -0.2649
  165SAPE  H11B18534   2.095   3.173   6.386  0.0822  0.3707  1.7040
  165SAPE     P18535   1.878   3.386   6.395  0.3345  0.3141  0.3171
  165SAPE   O1318536   1.828   3.506   6.329  0.4241  0.1327  0.1550
  165SAPE   O1418537   1.814   3.256   6.376 -0.2919  0.4344  0.1146
  165SAPE   O1218538   2.032   3.378   6.352  0.4284  1.0991 -0.0305
  165SAPE   O1118539   1.884   3.405   6.550 -0.2822 -0.1378 -0.0699
  165SAPE    C118540   1.975   3.485   6.620 -0.4803 -0.9401 -0.2878
  165SAPE    HA18541   1.999   3.427   6.712 -2.7555  0.4986  1.3129
  165SAPE    HB18542   2.066   3.489   6.556 -0.4500 -2.2839 -0.3645
  165SAPE    C218543   1.920   3.623   6.671  0.2098  0.9275  0.7814
  165SAPE    HS18544   1.919   3.687   6.580  1.6562 -0.0748  0.0314
  165SAPE   O2118545   1.995   3.696   6.774  0.1474  0.0395  0.1581
  165SAPE   C2118546   2.126   3.718   6.752 -0.9085  0.2840  0.6352
  165SAPE   O2218547   2.173   3.710   6.638  0.5417 -0.3326  0.1437
  165SAPE   C2218548   2.187   3.760   6.885 -0.7671  0.1106  0.0177
  165SAPE   H2R18549   2.284   3.812   6.866 -1.6543  1.3708 -1.2878
  165SAPE   H2S18550   2.118   3.842   6.915  0.4701  1.5355 -0.8631
  165SAPE    C318551   1.772   3.605   6.719  0.2585  0.3620 -0.1847
  165SAPE    HX18552   1.719   3.547   6.641  0.8129  1.4201 -1.3729
  165SAPE    HY18553   1.732   3.708   6.720 -0.7292 -0.0064  0.9785
  165SAPE   O3118554   1.763   3.537   6.845  0.3166 -0.2252 -0.3352
  165SAPE   C3118555   1.772   3.619   6.950 -0.1606  0.5923  0.1865
  165SAPE   O3218556   1.770   3.742   6.950 -0.6225 -0.0344  0.2394
  165SAPE   C3218557   1.790   3.540   7.081 -0.1035  0.2652  0.5335
  165SAPE   H2X18558   1.747   3.608   7.158  0.7333  0.9678  0.3971
  165SAPE   H2Y18559   1.898   3.527   7.104 -0.1444 -1.0936  0.0921
  165SAPE   C2318560   2.193   3.635   6.975  0.0315  0.1897  0.5662
  165SAPE   H3R18561   2.270   3.559   6.949 -2.3143 -1.6221 -1.5829
  165SAPE   H3S18562   2.093   3.590   6.959 -0.3279  0.4172  2.0500
  165SAPE   C2418563   2.223   3.672   7.121  0.2788 -0.0604  0.2480
  165SAPE   H4R18564   2.311   3.740   7.121  0.9433 -0.9007 -0.2548
  165SAPE   H4S18565   2.251   3.580   7.177 -2.9145 -0.2470  1.7332
  165SAPE   C2518566   2.108   3.730   7.191 -0.4230 -0.0684  0.2739
  165SAPE   H5R18567   2.056   3.809   7.136  0.4787 -0.0160 -0.5217
  165SAPE   C2618568   2.073   3.707   7.322 -0.1105 -0.4090  0.2227
  165SAPE   H6R18569   1.990   3.764   7.366 -2.0601 -1.4187 -1.9479
  165SAPE   C2718570   2.147   3.617   7.416  0.3342  0.1544 -0.4184
  165SAPE   H7R18571   2.256   3.639   7.418  0.2854  0.7405  3.1977
  165SAPE   H7S18572   2.136   3.516   7.372  0.0880 -0.5458  1.1945
  165SAPE   C2818573   2.079   3.627   7.554  0.5474  0.3851  0.6276
  165SAPE   H8R18574   2.141   3.688   7.622 -0.1526 -0.5278  2.1340
  165SAPE   C2918575   1.970   3.565   7.604  0.6294  0.1398  0.2575
  165SAPE   H9R18576   1.935   3.592   7.704 -0.3714 -2.0878  0.5545
  165SAPE  C21018577   1.889   3.468   7.527  0.2336 -0.3467  0.2385
  165SAPE  H10R18578   1.930   3.370   7.558  1.8411  0.4140  0.6047
  165SAPE  H10S18579   1.910   3.473   7.418 -0.3278 -1.0222  0.0880
  165SAPE  C21118580   1.739   3.463   7.554 -0.1299 -0.5690  0.3456
  165SAPE  H11R18581   1.680   3.510   7.475  1.1927 -0.3989 -0.5692
  165SAPE  C21218582   1.669   3.420   7.663  0.6300 -0.1407 -0.1040
  165SAPE  H12R18583   1.563   3.420   7.637  0.5391  1.9354  0.1171
  165SAPE  C21318584   1.720   3.366   7.795 -0.5164 -0.3833  0.1118
  165SAPE  H13R18585   1.728   3.444   7.873 -0.2113 -2.5958  2.4010
  165SAPE  H13S18586   1.821   3.322   7.783 -0.8651 -1.0199 -0.5401
  165SAPE  C21418587   1.629   3.261   7.847 -0.1401  0.0204 -0.1980
  165SAPE  H14R18588   1.524   3.281   7.819  0.2184 -0.8371 -2.3624
  165SAPE  C21518589   1.655   3.152   7.922 -0.0326  0.1359  0.7652
  165SAPE  H15R18590   1.577   3.101   7.982  2.1144 -1.3010  2.4799
  165SAPE  C21618591   1.794   3.108   7.979  0.2597  0.4408  0.4293
  165SAPE  H16R18592   1.872   3.187   7.986  2.0184 -1.0393 -1.4089
  165SAPE  H16S18593   1.851   3.033   7.921  2.0054  0.6901  1.7257
  165SAPE  C21718594   1.765   3.064   8.119 -0.3436 -0.1407 -0.5631
  165SAPE  H17R18595   1.847   2.999   8.157 -1.3342  0.2719  2.6038
  165SAPE  H17S18596   1.675   3.000   8.123  0.4370 -1.3328 -1.5429
  165SAPE  C21818597   1.749   3.182   8.212  0.1588  0.4899  0.2220
  165SAPE  H18R18598   1.662   3.242   8.177 -2.3640 -3.2584 -0.5479
  165SAPE  H18S18599   1.838   3.248   8.205  0.8934 -0.6316 -2.0508
  165SAPE  C21918600   1.730   3.138   8.354  0.4043  0.0751  0.5612
  165SAPE  H19R18601   1.662   3.050   8.365 -2.2319  1.9176 -0.0208
  165SAPE  H19S18602   1.670   3.216   8.406 -2.8169 -1.2024 -0.9290
  165SAPE  C22018603   1.866   3.111   8.426  0.1335 -0.3685 -0.2951
  165SAPE  H20R18604   1.883   3.188   8.505 -2.3306 -1.0469  0.9694
  165SAPE  H20S18605   1.941   3.128   8.345 -0.5694  0.3200 -0.8086
  165SAPE  H20T18606   1.881   3.016   8.481  1.8648  0.3120  0.5197
  165SAPE   C3318607   1.723   3.399   7.076 -0.5318  0.4836 -0.5433
  165SAPE   H3X18608   1.790   3.334   7.016  0.5648  1.0233  0.0473
  165SAPE   H3Y18609   1.620   3.382   7.038 -1.0911 -2.6396  1.9325
  165SAPE   C3418610   1.710   3.338   7.217  0.2281 -0.2669 -0.2684
  165SAPE   H4X18611   1.632   3.397   7.269 -0.7943 -1.4264 -0.4428
  165SAPE   H4Y18612   1.807   3.350   7.270  0.0943 -1.0232  0.1647
  165SAPE   C3518613   1.669   3.189   7.232  0.2027 -0.5309 -0.1657
  165SAPE   H5X18614   1.716   3.133   7.149 -1.7168  1.4389 -2.7938
  165SAPE   H5Y18615   1.559   3.181   7.215 -0.1468  2.1225  0.4303
  165SAPE   C3618616   1.694   3.138   7.377 -0.6263 -1.1652  0.4659
  165SAPE   H6X18617   1.645   3.218   7.437 -1.3014 -1.1013 -0.1591
  165SAPE   H6Y18618   1.803   3.137   7.401 -0.3650  1.2647 -0.2551
  165SAPE   C3718619   1.649   2.996   7.405 -0.5432 -0.3431 -0.2823
  165SAPE   H7X18620   1.735   2.933   7.376 -1.2093 -1.1224 -0.5812
  165SAPE   H7Y18621   1.551   2.981   7.353 -0.6143  0.5842 -0.4364
  165SAPE   C3818622   1.624   2.977   7.560 -0.0782  0.2435  1.0002
  165SAPE   H8X18623   1.553   3.059   7.586 -0.1222  0.9227 -1.0725
  165SAPE   H8Y18624   1.718   2.997   7.615  1.1234 -0.8668 -0.5568
  165SAPE   C3918625   1.548   2.847   7.583 -0.0026  1.0645 -0.6740
  165SAPE   H9X18626   1.596   2.781   7.508  0.4786 -0.1765  0.6858
  165SAPE   H9Y18627   1.441   2.865   7.561  0.4284  4.3613 -0.5392
  165SAPE  C31018628   1.580   2.790   7.721 -0.3269  0.1188  1.0438
  165SAPE  H10X18629   1.521   2.698   7.739 -0.4055 -0.3123 -1.0867
  165SAPE  H10Y18630   1.544   2.857   7.802 -1.3239  0.7868  0.0747
  165SAPE  C31118631   1.734   2.755   7.744 -0.3400  0.2827  0.2145
  165SAPE  H11X18632   1.793   2.848   7.730 -0.6219  0.3165 -0.7820
  165SAPE  H11Y18633   1.778   2.681   7.674 -1.1105 -0.5689  0.6030
  165SAPE  C31218634   1.742   2.705   7.888  0.1979  0.1384  0.6627
  165SAPE  H12X18635   1.673   2.618   7.889  2.6871 -1.9475  1.5408
  165SAPE  H12Y18636   1.701   2.782   7.957 -0.4911  0.3385  0.0451
  165SAPE  C31318637   1.871   2.646   7.940  0.2521 -0.1687  0.6911
  165SAPE  H13X18638   1.955   2.717   7.944 -0.2070  0.7950 -3.1233
  165SAPE  H13Y18639   1.889   2.570   7.861 -2.2557  1.6583 -1.8503
  165SAPE  C31418640   1.856   2.594   8.082  0.1405 -0.2152 -0.4502
  165SAPE  H14X18641   1.952   2.555   8.123  1.7490  1.6559 -2.2706
  165SAPE  H14Y18642   1.787   2.506   8.085  1.4684 -1.3152 -0.9812
  165SAPE  C31518643   1.797   2.699   8.179  0.1707 -0.5786 -0.5430
  165SAPE  H15X18644   1.686   2.695   8.180  0.1809 -0.8420  0.5967
  165SAPE  H15Y18645   1.808   2.801   8.137 -4.1280 -0.0927 -0.9658
  165SAPE  C31618646   1.849   2.688   8.323  0.0834  0.7813 -0.6127
  165SAPE  H16X18647   1.930   2.763   8.331 -0.3185  1.2588 -1.0209
  165SAPE  H16Y18648   1.888   2.585   8.342  1.3036  1.2636 -0.4228
  165SAPE  C31718649   1.761   2.724   8.444  0.2545  0.1495  0.0024
  165SAPE  H17X18650   1.675   2.656   8.458 -0.5228  1.0614 -0.2433
  165SAPE  H17Y18651   1.711   2.818   8.415 -1.8045 -1.2605 -1.2375
  165SAPE  C31818652   1.833   2.733   8.580 -0.1130 -1.2326  0.3573
  165SAPE  H18X18653   1.901   2.821   8.573 -0.3641 -1.0816 -0.2095
  165SAPE  H18Y18654   1.894   2.644   8.609  0.2631 -1.1825 -0.2493
  165SAPE  H18Z18655   1.751   2.758   8.651  1.7361  1.8988  1.6043
  166SAPE     N18656   0.677   2.191   6.454 -0.2294 -0.6192  0.0625
  166SAPE   HN118657   0.691   2.289   6.485  0.2173 -0.7895  0.4089
  166SAPE   HN218658   0.712   2.189   6.355 -0.1058 -1.0572  0.1145
  166SAPE   HN318659   0.581   2.152   6.460 -1.1998  1.7725  1.8386
  166SAPE   C1218660   0.768   2.098   6.534  0.3373 -0.2031  0.5562
  166SAPE  H12A18661   0.723   1.997   6.531  0.2140 -0.1211 -0.8202
  166SAPE  H12B18662   0.782   2.148   6.632  1.4831  2.2072 -0.7411
  166SAPE   C1118663   0.909   2.089   6.473 -0.3544 -0.5823 -0.5184
  166SAPE  H11A18664   0.956   1.999   6.519  0.1604  0.4388  1.0238
  166SAPE  H11B18665   0.960   2.185   6.492 -1.4105 -0.4614  2.2602
  166SAPE     P18666   1.014   2.054   6.224  0.3735  0.0144  0.1010
  166SAPE   O1318667   0.960   2.108   6.096  0.0825  0.4699 -0.2089
  166SAPE   O1418668   1.143   2.114   6.275  0.2614 -0.2047  0.0088
  166SAPE   O1218669   0.897   2.078   6.331  0.4162 -0.1998 -0.3696
  166SAPE   O1118670   1.020   1.896   6.203 -0.0327  0.2836 -0.2988
  166SAPE    C118671   0.907   1.802   6.219  0.0227 -0.3444 -0.1929
  166SAPE    HA18672   0.810   1.846   6.185  1.7557  3.3952 -0.7758
  166SAPE    HB18673   0.926   1.711   6.159  0.2699  0.4100 -1.2825
  166SAPE    C218674   0.902   1.749   6.365 -0.3772  0.6705  0.3287
  166SAPE    HS18675   0.872   1.836   6.428  1.2010  1.6928 -0.2634
  166SAPE   O2118676   1.028   1.703   6.413 -0.1759 -0.1958 -0.0166
  166SAPE   C2118677   1.054   1.698   6.542  0.3942  0.9417 -1.1175
  166SAPE   O2218678   0.984   1.736   6.636  0.0900  0.3934 -0.8866
  166SAPE   C2218679   1.203   1.669   6.557  0.1061  0.1467 -0.4523
  166SAPE   H2R18680   1.226   1.568   6.517 -0.1775 -0.8103  1.6333
  166SAPE   H2S18681   1.256   1.737   6.488  1.3231 -0.2395  0.0766
  166SAPE    C318682   0.797   1.640   6.385 -0.0200  0.3543  0.1415
  166SAPE    HX18683   0.850   1.544   6.373 -0.0554  0.5645 -1.9672
  166SAPE    HY18684   0.715   1.654   6.312  1.2599  2.4383 -0.9857
  166SAPE   O3118685   0.739   1.644   6.522  0.1419 -0.6546  0.6746
  166SAPE   C3118686   0.635   1.724   6.534  0.2892  1.1512  0.0315
  166SAPE   O3218687   0.584   1.790   6.450 -0.3595  0.3672 -0.2225
  166SAPE   C3218688   0.579   1.706   6.674  0.6158  0.0307 -0.1833
  166SAPE   H2X18689   0.527   1.802   6.697  0.0805 -0.4224  0.5398
  166SAPE   H2Y18690   0.661   1.697   6.748  1.7322  0.6581 -1.3049
  166SAPE   C2318691   1.253   1.691   6.706  0.2474  0.0871  0.7631
  166SAPE   H3R18692   1.217   1.790   6.740  0.8118  1.0356 -1.3113
  166SAPE   H3S18693   1.363   1.696   6.699  0.1408 -0.1413 -2.8577
  166SAPE   C2418694   1.221   1.566   6.793  0.0342 -0.3705 -0.4768
  166SAPE   H4R18695   1.115   1.534   6.781 -0.4179  0.1573  1.6748
  166SAPE   H4S18696   1.224   1.602   6.898  0.5859  0.2938 -0.7091
  166SAPE   C2518697   1.315   1.457   6.759 -1.3333 -0.8397 -0.3934
  166SAPE   H5R18698   1.313   1.409   6.659 -0.7687 -0.7166 -0.4704
  166SAPE   C2618699   1.418   1.427   6.837  0.1039 -0.9353 -0.0216
  166SAPE   H6R18700   1.494   1.353   6.807  0.6315 -0.6892  0.6808
  166SAPE   C2718701   1.447   1.477   6.979 -0.1956 -0.2731 -0.8243
  166SAPE   H7R18702   1.514   1.402   7.026  1.5268  1.8390  0.2537
  166SAPE   H7S18703   1.357   1.497   7.041  0.4204  1.0032 -0.3054
  166SAPE   C2818704   1.515   1.608   6.980 -0.0867  0.3094 -0.9659
  166SAPE   H8R18705   1.545   1.656   6.886  0.1763  1.2601 -0.4089
  166SAPE   C2918706   1.547   1.669   7.097 -0.2756 -0.6785  0.9694
  166SAPE   H9R18707   1.593   1.769   7.090 -1.3448 -0.2397 -0.0448
  166SAPE  C21018708   1.521   1.620   7.238  0.1509 -0.4021  0.1695
  166SAPE  H10R18709   1.544   1.511   7.229 -3.8914 -1.2619 -1.7730
  166SAPE  H10S18710   1.414   1.621   7.265  0.6701 -1.7124  2.5706
  166SAPE  C21118711   1.614   1.679   7.342 -0.0855  0.2592 -0.1859
  166SAPE  H11R18712   1.699   1.731   7.296  0.0577  1.5711  1.4889
  166SAPE  C21218713   1.596   1.675   7.470 -0.4139  0.3163 -0.7112
  166SAPE  H12R18714   1.681   1.709   7.530  0.2419 -2.6355  0.1875
  166SAPE  C21318715   1.490   1.608   7.547  0.1650  0.1301  0.2305
  166SAPE  H13R18716   1.399   1.593   7.485 -0.5610 -1.7749  1.6733
  166SAPE  H13S18717   1.460   1.679   7.627  3.2237  4.3158 -1.9323
  166SAPE  C21418718   1.530   1.475   7.599  0.7326  0.4947 -0.5632
  166SAPE  H14R18719   1.547   1.412   7.511 -1.7167  0.6779 -1.2470
  166SAPE  C21518720   1.556   1.448   7.731  0.1486  0.4803 -0.0875
  166SAPE  H15R18721   1.586   1.347   7.761  0.5459  0.2353 -1.2739
  166SAPE  C21618722   1.540   1.538   7.850 -0.5825  0.5858 -0.2886
  166SAPE  H16R18723   1.592   1.634   7.831  1.2389 -0.2229  0.4139
  166SAPE  H16S18724   1.575   1.487   7.943 -1.5842 -1.3087 -0.8957
  166SAPE  C21718725   1.393   1.583   7.881  0.5016  0.6793  0.7078
  166SAPE  H17R18726   1.356   1.612   7.780 -0.3854 -0.2922  0.7340
  166SAPE  H17S18727   1.376   1.667   7.951 -0.0200  0.9283  0.2911
  166SAPE  C21818728   1.296   1.462   7.918  0.4616  0.3235  0.0572
  166SAPE  H18R18729   1.258   1.409   7.828  0.1085 -0.9341  0.9202
  166SAPE  H18S18730   1.212   1.527   7.951  1.9415  1.6732  1.3528
  166SAPE  C21918731   1.330   1.362   8.037 -0.0964 -0.6666 -0.1430
  166SAPE  H19R18732   1.400   1.284   8.001 -0.1918 -0.1422 -1.5181
  166SAPE  H19S18733   1.231   1.312   8.049 -0.1147 -1.1678 -2.0653
  166SAPE  C22018734   1.383   1.424   8.162 -0.2052 -0.1356 -0.1570
  166SAPE  H20R18735   1.479   1.482   8.158 -0.8292  0.8951 -0.6685
  166SAPE  H20S18736   1.396   1.347   8.241  0.9925  2.1158  1.9885
  166SAPE  H20T18737   1.306   1.497   8.196  0.9755  1.7731 -1.3574
  166SAPE   C3318738   0.470   1.585   6.692 -0.2051 -0.7438  0.4182
  166SAPE   H3X18739   0.524   1.488   6.700  2.2100  0.0449 -3.6028
  166SAPE   H3Y18740   0.403   1.579   6.604 -0.8668  2.0378  0.6418
  166SAPE   C3418741   0.381   1.608   6.817 -0.0266  0.3565  0.3047
  166SAPE   H4X18742   0.342   1.507   6.841  1.3926  0.1436  1.8434
  166SAPE   H4Y18743   0.302   1.682   6.789 -0.4166 -0.3861 -0.6454
  166SAPE   C3518744   0.431   1.656   6.960 -0.3281  0.3286  0.3269
  166SAPE   H5X18745   0.483   1.755   6.957 -1.3472  0.8520 -0.5578
  166SAPE   H5Y18746   0.494   1.577   7.006 -0.5313 -0.1019 -0.1302
  166SAPE   C3618747   0.308   1.668   7.052 -0.4976 -0.7952 -0.0629
  166SAPE   H6X18748   0.252   1.572   7.048 -0.0442 -1.0520 -0.3952
  166SAPE   H6Y18749   0.252   1.754   7.012  2.3506  1.1868 -0.0632
  166SAPE   C3718750   0.337   1.700   7.201 -0.0739  0.3436  0.1213
  166SAPE   H7X18751   0.246   1.750   7.240 -0.4501  0.2179 -0.5832
  166SAPE   H7Y18752   0.422   1.771   7.205 -1.9538  2.7128  0.3878
  166SAPE   C3818753   0.371   1.572   7.293  0.5023 -0.5752  0.4434
  166SAPE   H8X18754   0.423   1.515   7.213 -2.4078  0.1084 -2.1179
  166SAPE   H8Y18755   0.274   1.526   7.322 -0.5024  0.0081 -1.7509
  166SAPE   C3918756   0.445   1.625   7.409  0.0761 -0.1488 -0.3761
  166SAPE   H9X18757   0.374   1.663   7.485  0.6120 -0.4929  0.3062
  166SAPE   H9Y18758   0.520   1.699   7.375 -0.9931  0.0248 -2.4979
  166SAPE  C31018759   0.522   1.514   7.474 -0.1135  0.8057  0.3707
  166SAPE  H10X18760   0.578   1.463   7.392  2.1489 -1.3128  3.0299
  166SAPE  H10Y18761   0.454   1.429   7.496  1.4479 -0.7560 -0.5829
  166SAPE  C31118762   0.608   1.548   7.584  0.4859 -0.2302 -0.0196
  166SAPE  H11X18763   0.538   1.581   7.664  0.3183 -1.1973  0.2461
  166SAPE  H11Y18764   0.676   1.631   7.554  0.0550  0.0367 -0.2770
  166SAPE  C31218765   0.683   1.427   7.641 -0.4912  0.5835  0.3460
  166SAPE  H12X18766   0.757   1.398   7.563 -1.9864  1.8479 -1.6320
  166SAPE  H12Y18767   0.602   1.352   7.656  0.0537 -0.4868 -1.6903
  166SAPE  C31318768   0.758   1.444   7.774  0.3264 -0.2140  0.4780
  166SAPE  H13X18769   0.710   1.511   7.848  0.0659 -1.8396  1.8505
  166SAPE  H13Y18770   0.859   1.486   7.755  0.7136 -0.1886  2.4197
  166SAPE  C31418771   0.774   1.312   7.845 -0.0945 -0.4821  0.0413
  166SAPE  H14X18772   0.822   1.244   7.772  1.4250  0.4223  0.1596
  166SAPE  H14Y18773   0.672   1.275   7.869 -0.4205  1.7148  2.5127
  166SAPE  C31518774   0.849   1.303   7.978 -0.0869 -0.2323 -0.7081
  166SAPE  H15X18775   0.801   1.373   8.049 -1.0059  0.2357 -1.7712
  166SAPE  H15Y18776   0.950   1.347   7.963  0.3321 -1.4649 -1.7273
  166SAPE  C31618777   0.861   1.158   8.034  0.3782 -0.4492  0.4682
  166SAPE  H16X18778   0.930   1.101   7.968  2.1959  1.4529  0.6441
  166SAPE  H16Y18779   0.764   1.106   8.019  0.2281 -0.1128  0.2805
  166SAPE  C31718780   0.907   1.129   8.177 -0.1032  0.4027  0.2167
  166SAPE  H17X18781   1.011   1.167   8.186 -0.6619  2.4236 -1.2439
  166SAPE  H17Y18782   0.911   1.019   8.195  0.6000  0.4080  0.1339
  166SAPE  C31818783   0.819   1.186   8.293 -0.3238 -0.3953  0.6530
  166SAPE  H18X18784   0.787   1.287   8.259  1.0888 -0.0507  0.2710
  166SAPE  H18Y18785   0.874   1.187   8.390 -0.3312  1.2104  0.6605
  166SAPE  H18Z18786   0.729   1.123   8.308  0.9936 -2.5012  0.0760
  167SAPE     N18787   1.531   5.709   6.124  0.5956  0.3920  0.1594
  167SAPE   HN118788   1.631   5.698   6.148  0.7338 -0.2476 -0.6886
  167SAPE   HN218789   1.478   5.620   6.117 -0.3268  0.7078  2.1634
  167SAPE   HN318790   1.530   5.770   6.039  1.4161  2.1250  1.3264
  167SAPE   C1218791   1.433   5.767   6.223  0.2533  0.6706 -0.2134
  167SAPE  H12A18792   1.410   5.697   6.307  1.6581  2.4144  1.7295
  167SAPE  H12B18793   1.336   5.792   6.175 -0.3965  0.1899  0.7996
  167SAPE   C1118794   1.494   5.893   6.278 -1.0238  0.7886 -0.7651
  167SAPE  H11A18795   1.579   5.862   6.343  1.4929  3.8492 -2.3361
  167SAPE  H11B18796   1.428   5.949   6.348 -0.1324 -1.4771  2.1043
  167SAPE     P18797   1.491   6.116   6.142  0.2724  0.0646  0.0543
  167SAPE   O1318798   1.594   6.188   6.060  0.0698 -0.0052 -0.0630
  167SAPE   O1418799   1.355   6.092   6.087  0.9130  0.8211  0.2317
  167SAPE   O1218800   1.550   5.973   6.171 -0.3464 -0.6542 -0.3899
  167SAPE   O1118801   1.484   6.181   6.284  0.1066  0.0335 -0.5429
  167SAPE    C118802   1.369   6.228   6.348  0.1901  0.2303 -0.8846
  167SAPE    HA18803   1.281   6.160   6.341 -0.8725  1.2026  1.7722
  167SAPE    HB18804   1.384   6.230   6.458 -2.6134 -2.5957 -0.3256
  167SAPE    C218805   1.333   6.371   6.308  0.2836 -0.0961  0.3544
  167SAPE    HS18806   1.319   6.370   6.198  1.0396  1.7676  0.2029
  167SAPE   O2118807   1.446   6.459   6.336 -0.3769  0.0261 -0.2781
  167SAPE   C2118808   1.463   6.569   6.268  0.1351 -1.1251  0.3536
  167SAPE   O2218809   1.409   6.596   6.165  0.3720 -0.1746  0.2660
  167SAPE   C2218810   1.583   6.650   6.334 -0.1812 -0.0879  0.6244
  167SAPE   H2R18811   1.672   6.594   6.299 -1.1448  0.0121 -2.3187
  167SAPE   H2S18812   1.591   6.749   6.283 -2.1278 -0.3999 -0.3811
  167SAPE    C318813   1.201   6.420   6.382  0.3656  0.1352  0.2449
  167SAPE    HX18814   1.120   6.345   6.372 -0.0465  0.4590  1.0227
  167SAPE    HY18815   1.160   6.515   6.340 -1.4786 -0.8189 -0.2316
  167SAPE   O3118816   1.222   6.425   6.530 -0.7737  0.0763 -0.3587
  167SAPE   C3118817   1.263   6.543   6.576 -0.2697 -0.5310  0.4662
  167SAPE   O3218818   1.260   6.651   6.519  0.2409  0.9378  0.0167
  167SAPE   C3218819   1.312   6.521   6.716  0.2844 -0.0720  0.0246
  167SAPE   H2X18820   1.404   6.460   6.706  0.3009 -0.4826  2.2845
  167SAPE   H2Y18821   1.244   6.456   6.775  1.3612  1.4630  3.1830
  167SAPE   C2318822   1.605   6.665   6.493  0.2994 -0.1234 -0.4712
  167SAPE   H3R18823   1.572   6.577   6.553 -0.6166 -0.2102 -1.0822
  167SAPE   H3S18824   1.540   6.749   6.527 -0.1480 -0.9280  0.7173
  167SAPE   C2418825   1.746   6.723   6.530 -0.7841  0.3254  0.2754
  167SAPE   H4R18826   1.757   6.823   6.482  0.0925  0.3151  0.4372
  167SAPE   H4S18827   1.823   6.651   6.493 -1.0800  1.0079 -1.8108
  167SAPE   C2518828   1.760   6.735   6.681 -0.4009  0.2334 -0.3218
  167SAPE   H5R18829   1.808   6.643   6.717  1.3002  0.3971 -2.0317
  167SAPE   C2618830   1.745   6.845   6.758 -0.3706  0.2788  0.4405
  167SAPE   H6R18831   1.755   6.836   6.867  2.4541  0.1672  0.2654
  167SAPE   C2718832   1.716   6.984   6.716  0.0807 -0.3553 -0.2563
  167SAPE   H7R18833   1.725   6.991   6.606  0.4711 -0.7434 -0.2529
  167SAPE   H7S18834   1.796   7.052   6.751 -0.2092 -0.4457  0.6211
  167SAPE   C2818835   1.579   7.024   6.755  0.5738 -0.4171  0.3126
  167SAPE   H8R18836   1.505   7.020   6.674 -0.3567 -2.9439  1.1823
  167SAPE   C2918837   1.547   7.045   6.888  0.1506 -0.6846  0.4263
  167SAPE   H9R18838   1.441   7.075   6.894  0.3729  0.0093  1.0419
  167SAPE  C21018839   1.624   7.058   7.016 -0.0432 -0.1693  0.1165
  167SAPE  H10R18840   1.715   7.120   7.000  0.6799 -1.5572 -1.5086
  167SAPE  H10S18841   1.665   6.963   7.056 -0.8016 -1.1925 -1.3943
  167SAPE  C21118842   1.536   7.114   7.129 -0.5079  0.2264 -0.3445
  167SAPE  H11R18843   1.429   7.129   7.107 -1.3329 -1.6582  1.9573
  167SAPE  C21218844   1.575   7.151   7.252 -0.5031 -0.0123 -0.3974
  167SAPE  H12R18845   1.502   7.177   7.330  0.5469 -3.1080  1.8101
  167SAPE  C21318846   1.713   7.146   7.308  0.4854  0.0028 -0.1854
  167SAPE  H13R18847   1.789   7.164   7.229  0.1769  1.5126 -0.1593
  167SAPE  H13S18848   1.735   7.041   7.336 -1.2403 -0.1193  0.8999
  167SAPE  C21418849   1.747   7.235   7.429 -0.3375 -0.3311  0.5837
  167SAPE  H14R18850   1.746   7.344   7.411 -1.1317  0.1129  2.8809
  167SAPE  C21518851   1.745   7.190   7.557  0.2876 -0.1876  0.0353
  167SAPE  H15R18852   1.743   7.267   7.637  2.6416 -1.2377  1.1764
  167SAPE  C21618853   1.720   7.054   7.619 -0.7165  0.3663 -0.0107
  167SAPE  H16R18854   1.802   7.017   7.685  0.6736 -0.8503 -2.2760
  167SAPE  H16S18855   1.721   6.985   7.532  2.3605  1.8536 -1.3332
  167SAPE  C21718856   1.605   7.052   7.712  0.4014  0.8411  0.6042
  167SAPE  H17R18857   1.604   6.955   7.767 -1.5772  0.1259 -0.5950
  167SAPE  H17S18858   1.507   7.054   7.660 -0.0529  0.1576  1.4090
  167SAPE  C21818859   1.596   7.163   7.820  0.1289  0.0098  0.2423
  167SAPE  H18R18860   1.577   7.266   7.784  1.9847 -0.3368 -1.9989
  167SAPE  H18S18861   1.697   7.167   7.867  0.5518  1.5102 -0.7183
  167SAPE  C21918862   1.485   7.135   7.918  0.3627 -0.6229  0.7464
  167SAPE  H19R18863   1.524   7.061   7.991  0.8507 -0.1296  0.9997
  167SAPE  H19S18864   1.402   7.091   7.860  0.1827  1.2972 -0.5545
  167SAPE  C22018865   1.439   7.255   8.008 -0.2553  0.1223 -0.7936
  167SAPE  H20R18866   1.350   7.302   7.961  0.5191  2.1093 -0.3788
  167SAPE  H20S18867   1.514   7.337   8.013  0.5049 -0.6272  1.2450
  167SAPE  H20T18868   1.414   7.213   8.108  0.1112 -1.1310 -1.2103
  167SAPE   C3318869   1.353   6.644   6.792  0.2266 -0.6281  0.0071
  167SAPE   H3X18870   1.284   6.729   6.776  1.6292  0.6828  0.7320
  167SAPE   H3Y18871   1.455   6.679   6.766 -0.0630  0.7989  0.7325
  167SAPE   C3418872   1.341   6.631   6.936 -0.3887  0.2333 -0.6608
  167SAPE   H4X18873   1.348   6.524   6.966 -1.7289  0.2699 -0.1717
  167SAPE   H4Y18874   1.244   6.667   6.973  1.3469  1.7151  2.8968
  167SAPE   C3518875   1.444   6.709   7.013 -0.3378  0.2859  0.0935
  167SAPE   H5X18876   1.424   6.816   6.991 -1.7310  0.2268  0.9565
  167SAPE   H5Y18877   1.550   6.681   6.997  0.1323 -0.4922  3.6647
  167SAPE   C3618878   1.441   6.707   7.166  0.0497  0.0489 -0.0209
  167SAPE   H6X18879   1.511   6.792   7.187  0.5823  0.4179 -2.8258
  167SAPE   H6Y18880   1.477   6.620   7.224 -0.9951  0.6291  1.5660
  167SAPE   C3718881   1.303   6.742   7.216  0.7030  0.0994 -0.0409
  167SAPE   H7X18882   1.237   6.653   7.217  0.9818 -0.1666 -1.8456
  167SAPE   H7Y18883   1.256   6.818   7.150 -1.3427 -1.5078 -0.5426
  167SAPE   C3818884   1.300   6.801   7.359 -0.3264 -0.1528  0.0827
  167SAPE   H8X18885   1.195   6.835   7.362 -0.6835 -1.1762 -0.5254
  167SAPE   H8Y18886   1.366   6.891   7.359 -2.3650  1.4130  0.9703
  167SAPE   C3918887   1.351   6.701   7.463  0.0498  0.2293 -0.0077
  167SAPE   H9X18888   1.449   6.656   7.434 -1.2771 -1.8891 -1.4590
  167SAPE   H9Y18889   1.280   6.616   7.457  0.4502  0.0156 -3.2436
  167SAPE  C31018890   1.356   6.766   7.607 -0.3077 -0.5030 -0.3707
  167SAPE  H10X18891   1.256   6.814   7.606  0.4462  1.2176  1.1450
  167SAPE  H10Y18892   1.440   6.838   7.615  0.5449 -1.4515 -0.5940
  167SAPE  C31118893   1.349   6.665   7.728 -1.4282  0.2237 -0.0773
  167SAPE  H11X18894   1.445   6.610   7.735 -1.2724  0.5513  0.4691
  167SAPE  H11Y18895   1.260   6.598   7.721 -1.3528  0.1780 -0.6293
  167SAPE  C31218896   1.325   6.738   7.856  0.0074  1.1531 -0.2424
  167SAPE  H12X18897   1.238   6.802   7.829  0.1969  2.1099  1.3013
  167SAPE  H12Y18898   1.409   6.798   7.897 -0.6218  1.3350  0.8341
  167SAPE  C31318899   1.280   6.646   7.982  0.3315 -0.4644  0.5155
  167SAPE  H13X18900   1.202   6.571   7.958 -0.4147  0.5385 -0.3019
  167SAPE  H13Y18901   1.220   6.704   8.056 -1.2447 -0.8665 -0.3882
  167SAPE  C31418902   1.386   6.569   8.057 -0.3861  0.2807  1.2839
  167SAPE  H14X18903   1.474   6.637   8.058  1.8729 -2.1541 -2.8632
  167SAPE  H14Y18904   1.417   6.486   7.990  2.1406  2.1735 -0.0825
  167SAPE  C31518905   1.351   6.501   8.191 -0.7015  0.8066  0.1620
  167SAPE  H15X18906   1.306   6.575   8.260 -1.6220  2.2780 -1.8966
  167SAPE  H15Y18907   1.450   6.475   8.235  0.6232 -0.5522 -3.2718
  167SAPE  C31618908   1.262   6.381   8.183 -0.3483  0.2817 -0.0786
  167SAPE  H16X18909   1.312   6.302   8.124 -0.6704 -1.2133  1.5713
  167SAPE  H16Y18910   1.175   6.409   8.120 -0.1303  0.4311 -0.3184
  167SAPE  C31718911   1.205   6.331   8.322  0.0974  0.0556 -0.4364
  167SAPE  H17X18912   1.286   6.273   8.371 -1.9146 -2.3661  0.1808
  167SAPE  H17Y18913   1.129   6.253   8.305  1.2040 -1.5527  1.5836
  167SAPE  C31818914   1.152   6.431   8.425 -0.4237  0.4811 -0.7473
  167SAPE  H18X18915   1.240   6.474   8.475  0.8595 -1.1793 -1.4689
  167SAPE  H18Y18916   1.106   6.371   8.506 -0.3824 -1.3298 -2.0121
  167SAPE  H18Z18917   1.074   6.500   8.385 -1.1792 -0.0681 -0.2489
  168SAPE     N18918   4.541   3.864   6.385 -0.1153 -0.6611  0.7853
  168SAPE   HN118919   4.601   3.779   6.386 -1.4260 -1.6283  2.2422
  168SAPE   HN218920   4.439   3.844   6.389 -0.0680 -0.8565  0.9794
  168SAPE   HN318921   4.567   3.917   6.299  2.3538 -0.7040  1.4318
  168SAPE   C1218922   4.600   3.961   6.488 -0.9242 -0.6985  0.2320
  168SAPE  H12A18923   4.609   3.916   6.589  0.4084  1.0338  0.9322
  168SAPE  H12B18924   4.525   4.043   6.499 -0.6872 -0.3574 -0.6637
  168SAPE   C1118925   4.741   4.015   6.447  0.0387 -0.0932 -0.1333
  168SAPE  H11A18926   4.780   4.074   6.532 -1.0277  0.6989 -0.1767
  168SAPE  H11B18927   4.732   4.072   6.352  0.6170 -0.3741 -0.3627
  168SAPE     P18928   4.979   3.913   6.380  0.0927  0.0907  0.3124
  168SAPE   O1318929   5.014   3.816   6.272  0.3041 -0.3805 -0.9595
  168SAPE   O1418930   4.998   4.059   6.338  0.0149  0.1927  0.1551
  168SAPE   O1218931   4.826   3.903   6.413  0.0103 -0.2229 -0.2008
  168SAPE   O1118932   5.053   3.882   6.520  0.3304 -0.3875 -0.2774
  168SAPE    C118933   5.196   3.906   6.520  0.0012  0.3498  0.4004
  168SAPE    HA18934   5.242   3.846   6.439 -0.1691 -1.1269  1.3535
  168SAPE    HB18935   5.216   4.011   6.490 -0.3669 -0.0185 -1.2060
  168SAPE    C218936   5.255   3.873   6.661  0.5429 -0.7702  0.3244
  168SAPE    HS18937   5.362   3.901   6.660 -0.1115  1.9715 -0.5197
  168SAPE   O2118938   5.227   3.737   6.705 -0.1679 -0.7701  0.4462
  168SAPE   C2118939   5.300   3.653   6.634 -0.1352  0.4651 -0.1213
  168SAPE   O2218940   5.382   3.679   6.550  0.2761  0.4044 -0.2131
  168SAPE   C2218941   5.271   3.510   6.684  0.1927  0.2282  0.3760
  168SAPE   H2R18942   5.165   3.489   6.655  0.7916 -2.0026 -0.3236
  168SAPE   H2S18943   5.338   3.440   6.629  3.1657  2.6748  0.6075
  168SAPE    C318944   5.196   3.969   6.770 -0.2045 -0.2744 -0.4205
  168SAPE    HX18945   5.095   3.937   6.803 -0.2375  0.6447  0.4189
  168SAPE    HY18946   5.195   4.069   6.722  2.1111  0.7158  1.3894
  168SAPE   O3118947   5.268   3.967   6.892 -0.8897 -0.9944  0.1931
  168SAPE   C3118948   5.239   4.067   6.975 -0.3550  0.5048 -0.3468
  168SAPE   O3218949   5.169   4.162   6.966 -0.5343 -0.5853  0.4518
  168SAPE   C3218950   5.317   4.041   7.100 -0.1752 -0.8455 -0.2867
  168SAPE   H2X18951   5.413   4.096   7.100 -0.4950 -0.2404  1.0341
  168SAPE   H2Y18952   5.337   3.933   7.118  0.8012 -0.4730  1.0042
  168SAPE   C2318953   5.270   3.484   6.835 -0.5429 -1.1175  0.8744
  168SAPE   H3R18954   5.187   3.413   6.853 -1.3346 -1.3955 -2.9609
  168SAPE   H3S18955   5.244   3.578   6.888  3.4896 -0.1670  1.5279
  168SAPE   C2418956   5.404   3.443   6.907 -0.1185  0.2459 -0.3239
  168SAPE   H4R18957   5.390   3.474   7.013 -1.8225  0.1515 -0.4859
  168SAPE   H4S18958   5.487   3.501   6.864  0.6075  0.2862  1.0759
  168SAPE   C2518959   5.436   3.298   6.879  0.0252 -0.2282 -1.0283
  168SAPE   H5R18960   5.468   3.271   6.777  1.2199 -1.7533 -0.2906
  168SAPE   C2618961   5.433   3.192   6.968  0.8186 -0.0725  0.2701
  168SAPE   H6R18962   5.478   3.097   6.936 -0.8166 -0.4432 -1.0993
  168SAPE   C2718963   5.397   3.203   7.116  0.5484  0.0988 -0.2683
  168SAPE   H7R18964   5.442   3.302   7.142  0.8385 -0.5388  1.8501
  168SAPE   H7S18965   5.455   3.121   7.161 -0.9159 -0.9070 -0.1505
  168SAPE   C2818966   5.247   3.199   7.159 -0.7685  0.3556  1.0564
  168SAPE   H8R18967   5.188   3.234   7.073  0.8969  3.2082  0.9469
  168SAPE   C2918968   5.207   3.143   7.271 -0.3562  0.0932 -0.2094
  168SAPE   H9R18969   5.097   3.150   7.281 -0.5169  1.0227 -2.0872
  168SAPE  C21018970   5.288   3.082   7.376 -0.6030  0.5432 -0.3121
  168SAPE  H10R18971   5.333   3.150   7.451 -0.4814  0.2550 -0.1229
  168SAPE  H10S18972   5.376   3.032   7.329 -0.7450  0.9419 -1.0145
  168SAPE  C21118973   5.207   2.977   7.444 -0.2228 -0.5345  0.2477
  168SAPE  H11R18974   5.212   2.879   7.393  0.1651 -1.6959  2.3680
  168SAPE  C21218975   5.143   2.982   7.563 -0.2659  0.0470  0.9762
  168SAPE  H12R18976   5.093   2.889   7.593  0.7582 -0.4434  1.1919
  168SAPE  C21318977   5.136   3.100   7.655 -0.9497  0.0085 -0.3889
  168SAPE  H13R18978   5.103   3.184   7.591  2.2475  0.2760 -1.8763
  168SAPE  H13S18979   5.241   3.119   7.685  0.0025 -2.6300 -1.6940
  168SAPE  C21418980   5.045   3.084   7.775  0.2887 -0.1467  0.0301
  168SAPE  H14R18981   4.938   3.075   7.750  0.6958 -1.4975 -1.4078
  168SAPE  C21518982   5.081   3.071   7.901  1.0874  0.0003  1.1060
  168SAPE  H15R18983   5.003   3.082   7.978  0.2795  2.4286  0.0312
  168SAPE  C21618984   5.220   3.068   7.948 -0.0832 -0.4212 -0.2839
  168SAPE  H16R18985   5.260   3.172   7.947 -0.4064 -0.2513  1.1915
  168SAPE  H16S18986   5.293   3.013   7.885  1.0785 -0.1008  0.7398
  168SAPE  C21718987   5.230   3.035   8.100  0.3421 -0.2224  0.2288
  168SAPE  H17R18988   5.151   3.093   8.153 -2.3206 -3.8829  0.6796
  168SAPE  H17S18989   5.331   3.070   8.129  0.4199  3.2732 -3.3744
  168SAPE  C21818990   5.220   2.887   8.132  0.4704 -0.6358 -0.1235
  168SAPE  H18R18991   5.303   2.829   8.087  1.9267  0.1764  1.4031
  168SAPE  H18S18992   5.126   2.842   8.094 -0.4150  1.5823 -0.6818
  168SAPE  C21918993   5.230   2.858   8.283  0.0388 -0.4297 -0.0724
  168SAPE  H19R18994   5.303   2.934   8.318 -1.6729  0.2238  2.3134
  168SAPE  H19S18995   5.286   2.767   8.314 -0.5903 -0.0746  2.2341
  168SAPE  C22018996   5.100   2.891   8.360  0.7046  0.5247  0.5505
  168SAPE  H20R18997   5.118   2.882   8.469 -0.7780 -2.0360  0.6591
  168SAPE  H20S18998   5.026   2.811   8.336  0.8792  0.7016 -0.6361
  168SAPE  H20T18999   5.067   2.991   8.324  1.8583  1.0484  0.9245
  168SAPE   C3319000   5.237   4.087   7.224  0.5910  0.1331 -0.0669
  168SAPE   H3X19001   5.139   4.036   7.215 -0.1631  1.4168  0.5634
  168SAPE   H3Y19002   5.229   4.198   7.225 -1.1238  0.0367  0.4902
  168SAPE   C3419003   5.296   4.035   7.355  0.4061 -0.2943  0.5360
  168SAPE   H4X19004   5.400   4.068   7.337 -0.1631  0.9443 -0.7232
  168SAPE   H4Y19005   5.298   3.924   7.352  3.3623 -0.3070 -1.5181
  168SAPE   C3519006   5.232   4.069   7.491  0.5650 -0.6090  0.3100
  168SAPE   H5X19007   5.192   4.172   7.493  1.3879 -0.1713 -2.0521
  168SAPE   H5Y19008   5.306   4.056   7.573 -0.2044 -3.2827  0.6605
  168SAPE   C3619009   5.119   3.975   7.526  1.0893  0.2961 -0.1141
  168SAPE   H6X19010   5.162   3.877   7.555  0.0344 -0.3328 -0.6339
  168SAPE   H6Y19011   5.047   3.970   7.441  0.5102 -0.9979  0.4281
  168SAPE   C3719012   5.019   4.006   7.642  0.1279  0.8920  0.2830
  168SAPE   H7X19013   4.953   4.092   7.616  2.7571  2.9757  0.0020
  168SAPE   H7Y19014   5.078   4.033   7.732  0.4136 -1.1604  0.7536
  168SAPE   C3819015   4.930   3.875   7.667 -0.2040 -0.4020  0.0261
  168SAPE   H8X19016   4.879   3.869   7.766 -1.2688  2.2340 -0.2836
  168SAPE   H8Y19017   5.013   3.801   7.668 -0.2199 -0.4218 -0.0857
  168SAPE   C3919018   4.827   3.838   7.560 -0.0975 -0.4626  0.1499
  168SAPE   H9X19019   4.866   3.873   7.462  0.6167 -3.3582 -0.6991
  168SAPE   H9Y19020   4.737   3.902   7.571 -0.0411  0.1541 -2.4184
  168SAPE  C31019021   4.792   3.689   7.557  0.5055 -0.1210  0.4391
  168SAPE  H10X19022   4.778   3.664   7.664  0.2151 -1.7643  0.0533
  168SAPE  H10Y19023   4.879   3.632   7.518  0.9575  0.9378 -0.1193
  168SAPE  C31119024   4.663   3.655   7.490 -0.4685 -0.3833 -0.2581
  168SAPE  H11X19025   4.666   3.719   7.399 -0.3460  2.0777  1.3721
  168SAPE  H11Y19026   4.575   3.683   7.552  0.1210 -0.9456  0.8484
  168SAPE  C31219027   4.647   3.505   7.462 -0.3657  0.3322  0.7763
  168SAPE  H12X19028   4.548   3.490   7.413  1.1436 -0.1196 -2.4354
  168SAPE  H12Y19029   4.662   3.450   7.557  2.3284 -2.0656 -0.8721
  168SAPE  C31319030   4.740   3.444   7.354  0.3811  0.3113 -0.2055
  168SAPE  H13X19031   4.847   3.473   7.357  0.7582 -0.5698 -2.5318
  168SAPE  H13Y19032   4.704   3.493   7.261 -2.8811 -1.3859  0.0209
  168SAPE  C31419033   4.712   3.296   7.331 -0.0789 -0.0063  0.3999
  168SAPE  H14X19034   4.619   3.284   7.271  0.9321  0.1578 -1.2421
  168SAPE  H14Y19035   4.694   3.248   7.430 -0.8029  2.0357  1.3227
  168SAPE  C31519036   4.824   3.212   7.264  0.5935  0.1635  0.3263
  168SAPE  H15X19037   4.905   3.195   7.338  1.8552 -0.6367 -1.1585
  168SAPE  H15Y19038   4.867   3.275   7.183 -1.3563  2.6801  1.1427
  168SAPE  C31619039   4.773   3.077   7.217 -0.1961  0.2504 -0.1873
  168SAPE  H16X19040   4.696   3.101   7.141 -1.0218  2.6351  1.2810
  168SAPE  H16Y19041   4.732   3.023   7.304  0.0917 -0.2082 -0.3298
  168SAPE  C31719042   4.876   2.988   7.150  0.1899 -0.0616 -0.2692
  168SAPE  H17X19043   4.838   2.884   7.142 -1.4056  0.5149 -0.5535
  168SAPE  H17Y19044   4.971   2.986   7.207 -0.0292  2.1513  0.2608
  168SAPE  C31819045   4.909   3.046   7.012 -0.3947  0.2604  0.3225
  168SAPE  H18X19046   4.989   2.986   6.964  0.3437  0.1798  1.5971
  168SAPE  H18Y19047   4.938   3.153   7.013  0.0778  0.2722 -2.8345
  168SAPE  H18Z19048   4.823   3.043   6.942  1.2143  1.1278 -1.8193
  169SAPE     N19049   3.813   3.059   6.409 -0.5696 -0.0260  0.2636
  169SAPE   HN119050   3.847   2.989   6.340  0.2963  0.5082  0.1418
  169SAPE   HN219051   3.897   3.085   6.465  1.1578 -3.9195 -0.2143
  169SAPE   HN319052   3.734   3.020   6.464 -1.3005  0.2179 -0.5821
  169SAPE   C1219053   3.744   3.165   6.321 -0.4610  0.1888 -0.2021
  169SAPE  H12A19054   3.695   3.234   6.393 -1.3277 -0.7238  0.1107
  169SAPE  H12B19055   3.665   3.105   6.271 -0.6324 -0.7167  1.1166
  169SAPE   C1119056   3.841   3.245   6.235 -0.3829 -0.2330  0.2127
  169SAPE  H11A19057   3.785   3.308   6.163 -0.8625 -1.4436 -0.5162
  169SAPE  H11B19058   3.893   3.170   6.170 -0.5900 -0.9612  0.8717
  169SAPE     P19059   4.075   3.310   6.330 -0.2462  0.0924  0.2911
  169SAPE   O1319060   4.133   3.309   6.193 -0.5932  0.5013  0.1958
  169SAPE   O1419061   4.132   3.407   6.425  0.4586 -1.7797  0.9386
  169SAPE   O1219062   3.924   3.333   6.313 -0.0766  0.2467 -0.0422
  169SAPE   O1119063   4.076   3.170   6.394  0.8288  0.0327 -0.5748
  169SAPE    C119064   4.190   3.083   6.413  0.7288  0.9862 -0.6281
  169SAPE    HA19065   4.195   3.008   6.331  2.2989 -0.3131  0.5986
  169SAPE    HB19066   4.283   3.142   6.402  0.3346  1.4903 -1.3242
  169SAPE    C219067   4.179   3.010   6.548  0.2353 -0.4825 -0.1917
  169SAPE    HS19068   4.092   2.942   6.550 -1.3474  1.4677 -0.1737
  169SAPE   O2119069   4.177   3.096   6.658  0.2268 -0.1839 -0.3659
  169SAPE   C2119070   4.056   3.142   6.684 -0.2072 -0.3611 -0.1321
  169SAPE   O2219071   3.952   3.099   6.636  0.0311 -0.3073 -0.6543
  169SAPE   C2219072   4.064   3.252   6.793  0.7734  0.0563 -0.9854
  169SAPE   H2R19073   4.115   3.206   6.880 -0.1516  1.1182  0.1616
  169SAPE   H2S19074   4.114   3.343   6.756  1.0718  0.7903  1.1194
  169SAPE    C319075   4.297   2.915   6.566 -0.1543 -0.0725 -0.5105
  169SAPE    HX19076   4.383   2.978   6.596  0.5952 -1.7702  1.1663
  169SAPE    HY19077   4.339   2.875   6.471  0.9897  0.8993 -0.4345
  169SAPE   O3119078   4.267   2.814   6.665 -0.0331 -0.1888  0.2284
  169SAPE   C3119079   4.363   2.730   6.686  0.1717 -0.2821  0.3953
  169SAPE   O3219080   4.477   2.741   6.646  0.2713 -0.3932 -0.6657
  169SAPE   C3219081   4.307   2.620   6.779  1.2382  1.2148  0.0671
  169SAPE   H2X19082   4.383   2.542   6.802 -1.5214 -1.5219  0.5998
  169SAPE   H2Y19083   4.229   2.565   6.722  0.6073  0.4321  1.6484
  169SAPE   C2319084   3.924   3.292   6.848 -0.4502 -0.4278  0.0048
  169SAPE   H3R19085   3.854   3.209   6.873  0.8956 -2.3041 -2.1163
  169SAPE   H3S19086   3.882   3.347   6.761  1.5303 -0.0011 -0.7225
  169SAPE   C2419087   3.938   3.386   6.970  0.1723 -0.1085 -0.1389
  169SAPE   H4R19088   3.844   3.444   6.987  1.5066  2.7809 -1.8439
  169SAPE   H4S19089   4.025   3.450   6.943 -0.3792  1.2702  1.1885
  169SAPE   C2519090   3.956   3.300   7.098  0.6927 -0.5432 -0.4050
  169SAPE   H5R19091   3.875   3.229   7.120  0.4556 -0.2325 -0.2675
  169SAPE   C2619092   4.056   3.323   7.191  0.4447  0.2858  0.1151
  169SAPE   H6R19093   4.059   3.257   7.279  1.1231 -0.0747 -0.1664
  169SAPE   C2719094   4.168   3.432   7.171  0.7459 -0.3988  0.1153
  169SAPE   H7R19095   4.111   3.527   7.166  1.2736 -0.1529 -2.0244
  169SAPE   H7S19096   4.211   3.431   7.069  0.7403  2.1969  0.0095
  169SAPE   C2819097   4.270   3.455   7.272 -0.0861  0.3973 -0.4958
  169SAPE   H8R19098   4.357   3.389   7.281 -0.1958  0.3627  0.3825
  169SAPE   C2919099   4.250   3.526   7.388  0.0789  0.1826  0.4568
  169SAPE   H9R19100   4.333   3.538   7.459  0.4571  1.4268 -0.1682
  169SAPE  C21019101   4.127   3.609   7.428 -0.1710  0.7805  0.4039
  169SAPE  H10R19102   4.060   3.554   7.497 -0.4574  0.0654 -0.4288
  169SAPE  H10S19103   4.056   3.623   7.344  0.6600  2.5734 -0.0506
  169SAPE  C21119104   4.188   3.741   7.486  0.1221  0.1041 -0.3854
  169SAPE  H11R19105   4.208   3.819   7.411 -1.1300  0.8137 -0.0119
  169SAPE  C21219106   4.224   3.759   7.613 -0.4241  0.6504 -0.4692
  169SAPE  H12R19107   4.265   3.857   7.643  1.3150 -0.8043  2.3098
  169SAPE  C21319108   4.205   3.643   7.711 -0.0193 -0.6640  0.3075
  169SAPE  H13R19109   4.258   3.561   7.659  0.0757  0.6744 -1.8521
  169SAPE  H13S19110   4.096   3.621   7.709 -0.1613 -0.1274  1.2566
  169SAPE  C21419111   4.260   3.684   7.846 -0.3791 -0.4379 -0.1412
  169SAPE  H14R19112   4.370   3.683   7.848 -0.2801  2.1482 -0.6476
  169SAPE  C21519113   4.188   3.703   7.955 -0.1075  0.5215  0.3124
  169SAPE  H15R19114   4.242   3.710   8.050  0.6835 -2.3682  0.1648
  169SAPE  C21619115   4.035   3.685   7.973 -0.3305  0.4461  0.2089
  169SAPE  H16R19116   3.992   3.615   7.899 -0.2566  0.5011  0.1133
  169SAPE  H16S19117   3.983   3.781   7.952 -0.5616  0.5636  1.3071
  169SAPE  C21719118   3.998   3.634   8.111  0.5297 -0.2534 -0.0788
  169SAPE  H17R19119   4.031   3.702   8.193 -2.9076  0.4603  0.8535
  169SAPE  H17S19120   4.042   3.532   8.119 -0.1379 -0.6159 -0.9016
  169SAPE  C21819121   3.845   3.617   8.119 -0.2190  0.3447 -0.1075
  169SAPE  H18R19122   3.827   3.550   8.205  0.3153  2.0519  1.4009
  169SAPE  H18S19123   3.811   3.566   8.026 -1.7697 -1.2131  1.2553
  169SAPE  C21919124   3.766   3.749   8.134 -0.2032 -0.2817 -0.5583
  169SAPE  H19R19125   3.660   3.729   8.105 -0.1926 -0.7961 -0.2555
  169SAPE  H19S19126   3.819   3.821   8.069 -0.0181 -0.3102 -0.4398
  169SAPE  C22019127   3.758   3.816   8.275 -0.3625  0.4254  0.0118
  169SAPE  H20R19128   3.862   3.844   8.302  0.8383  0.9171 -4.3082
  169SAPE  H20S19129   3.716   3.744   8.349  0.3597 -0.1802 -0.1570
  169SAPE  H20T19130   3.695   3.907   8.269 -2.5937 -1.0382 -0.0299
  169SAPE   C3319131   4.259   2.673   6.915  0.7592 -0.5575  0.6792
  169SAPE   H3X19132   4.174   2.742   6.896  1.5533  0.1190 -0.4799
  169SAPE   H3Y19133   4.336   2.736   6.964  0.8863  0.1331 -0.3971
  169SAPE   C3419134   4.223   2.560   7.004  0.1922  0.4996  0.3855
  169SAPE   H4X19135   4.316   2.505   7.028  1.3712  1.6351 -1.3344
  169SAPE   H4Y19136   4.151   2.493   6.952  0.5149  0.4503 -0.0030
  169SAPE   C3519137   4.162   2.608   7.142  0.0197 -0.1659  0.3209
  169SAPE   H5X19138   4.107   2.703   7.127  3.1307  1.6039 -0.6024
  169SAPE   H5Y19139   4.247   2.651   7.198 -0.4219  0.4583  0.5258
  169SAPE   C3619140   4.096   2.501   7.224  0.3635  0.1885 -0.4935
  169SAPE   H6X19141   4.171   2.420   7.233  1.3591  1.0075 -1.2495
  169SAPE   H6Y19142   3.995   2.476   7.184 -1.0135  0.9165  2.2418
  169SAPE   C3719143   4.076   2.554   7.370 -0.1720 -0.0250  0.1342
  169SAPE   H7X19144   4.170   2.593   7.413 -0.4986  1.3756 -0.3717
  169SAPE   H7Y19145   4.043   2.474   7.440  0.4166  1.1335  1.7770
  169SAPE   C3819146   3.961   2.657   7.380  0.4465 -0.2213 -0.0888
  169SAPE   H8X19147   3.873   2.626   7.321 -0.3425  0.3662  0.7404
  169SAPE   H8Y19148   4.005   2.748   7.332 -0.1734 -0.0049 -0.2557
  169SAPE   C3919149   3.903   2.695   7.521  0.0673  0.6057 -0.5890
  169SAPE   H9X19150   3.853   2.606   7.565  1.9873 -0.0989  0.2951
  169SAPE   H9Y19151   3.835   2.779   7.494  1.9878  1.6604 -2.4816
  169SAPE  C31019152   4.016   2.727   7.621  0.2060  0.2652 -1.1184
  169SAPE  H10X19153   4.078   2.816   7.596 -1.4507  2.1131  0.9725
  169SAPE  H10Y19154   4.091   2.646   7.636  2.7311  2.5032 -1.0747
  169SAPE  C31119155   3.962   2.762   7.760 -0.0215 -0.5736 -0.4660
  169SAPE  H11X19156   3.908   2.677   7.808  0.8228 -0.3346  0.9567
  169SAPE  H11Y19157   3.883   2.837   7.739 -1.0845 -2.2210 -2.7896
  169SAPE  C31219158   4.070   2.815   7.858  0.1313  0.2054 -0.2229
  169SAPE  H12X19159   4.104   2.911   7.814  1.2220  0.4114  1.0272
  169SAPE  H12Y19160   4.156   2.744   7.852 -1.1401 -1.6189  1.7735
  169SAPE  C31319161   4.030   2.837   8.007 -0.3344 -0.4545  0.6345
  169SAPE  H13X19162   3.961   2.922   8.029 -1.0873 -0.4721 -1.3989
  169SAPE  H13Y19163   4.128   2.871   8.046 -0.3468  1.5405 -0.8914
  169SAPE  C31419164   3.981   2.709   8.081  0.1422  0.0588 -0.1346
  169SAPE  H14X19165   4.048   2.622   8.063 -2.9889 -2.2278 -1.7415
  169SAPE  H14Y19166   3.875   2.682   8.058  0.5372 -2.2423  0.4659
  169SAPE  C31519167   3.957   2.724   8.240  0.4460 -0.0381  0.2495
  169SAPE  H15X19168   3.921   2.622   8.265 -0.0023  0.1038  0.1923
  169SAPE  H15Y19169   3.881   2.803   8.260 -1.7087 -0.7646 -3.7864
  169SAPE  C31619170   4.091   2.747   8.302  1.0507  0.3627  0.1659
  169SAPE  H16X19171   4.119   2.851   8.279 -1.9665  1.1086 -0.6980
  169SAPE  H16Y19172   4.168   2.681   8.256 -1.0370 -0.6061 -2.2082
  169SAPE  C31719173   4.071   2.724   8.454 -0.1245 -0.3947 -0.2999
  169SAPE  H17X19174   4.035   2.621   8.474  2.9402 -1.3961  0.6111
  169SAPE  H17Y19175   3.988   2.791   8.486 -0.0384 -1.3283  2.0483
  169SAPE  C31819176   4.186   2.753   8.545 -0.2869 -0.4848 -0.3871
  169SAPE  H18X19177   4.202   2.863   8.535 -3.5030  0.0097 -1.2013
  169SAPE  H18Y19178   4.278   2.699   8.514 -0.6163 -0.8371 -0.7636
  169SAPE  H18Z19179   4.158   2.730   8.650 -1.4510  0.2130 -0.5244
  170SAPE     N19180   3.886   6.465   6.282 -0.0255 -0.2940 -0.5412
  170SAPE   HN119181   3.943   6.501   6.361 -1.4433 -2.7219  1.7584
  170SAPE   HN219182   3.790   6.450   6.319 -0.7303  0.4427 -1.9965
  170SAPE   HN319183   3.924   6.372   6.257 -1.4980 -1.3393  0.9246
  170SAPE   C1219184   3.880   6.549   6.164  0.9611 -0.0028  0.3895
  170SAPE  H12A19185   3.830   6.491   6.083  1.9918 -0.6781  0.2137
  170SAPE  H12B19186   3.981   6.557   6.120  0.5016  1.1505 -0.4948
  170SAPE   C1119187   3.808   6.680   6.184  0.2267 -0.1465 -0.2993
  170SAPE  H11A19188   3.706   6.648   6.217  1.6312 -2.4433  2.1903
  170SAPE  H11B19189   3.814   6.732   6.086 -1.1402 -1.2648 -1.0204
  170SAPE     P19190   3.795   6.897   6.326 -0.0290  0.0423  0.0459
  170SAPE   O1319191   3.847   6.987   6.225  0.6369 -0.0213  0.6780
  170SAPE   O1419192   3.648   6.889   6.335 -0.3033  0.6528  0.0350
  170SAPE   O1219193   3.863   6.757   6.298 -0.1791 -0.4666  0.7247
  170SAPE   O1119194   3.856   6.940   6.471  0.3375  0.2138  0.1186
  170SAPE    C119195   3.988   6.948   6.510 -0.0446  0.2047 -0.0258
  170SAPE    HA19196   4.049   6.976   6.422 -1.8862 -2.1532 -2.2149
  170SAPE    HB19197   4.001   7.022   6.591 -1.2427  1.8585 -1.2767
  170SAPE    C219198   4.048   6.808   6.547 -0.1169  0.7171  0.0237
  170SAPE    HS19199   4.056   6.752   6.451 -0.7646  2.1905 -0.9350
  170SAPE   O2119200   3.964   6.742   6.642  0.1520 -0.1087 -0.4516
  170SAPE   C2119201   3.932   6.618   6.630  0.0872  0.0879  0.0387
  170SAPE   O2219202   3.958   6.536   6.545 -0.1067 -0.5674  0.0087
  170SAPE   C2219203   3.848   6.573   6.752 -0.4503 -0.2026  0.8355
  170SAPE   H2R19204   3.825   6.467   6.730  1.7808  0.0365 -3.9498
  170SAPE   H2S19205   3.913   6.574   6.841 -0.1761  2.0150  0.6855
  170SAPE    C319206   4.184   6.816   6.616 -0.7046  0.3941 -0.0677
  170SAPE    HX19207   4.263   6.845   6.543  0.2509 -2.0965 -0.1287
  170SAPE    HY19208   4.228   6.720   6.651 -0.0444 -0.1844 -2.3121
  170SAPE   O3119209   4.195   6.903   6.724  0.2424  0.2272 -0.7792
  170SAPE   C3119210   4.150   6.858   6.848 -1.0311 -0.0029  0.0823
  170SAPE   O3219211   4.112   6.753   6.887 -0.0319  0.6705 -0.0322
  170SAPE   C3219212   4.158   6.980   6.952 -0.4196 -0.3931  0.3318
  170SAPE   H2X19213   4.159   7.081   6.905  3.2242  0.2454  1.4419
  170SAPE   H2Y19214   4.250   6.971   7.013  0.5139  0.6044 -0.8648
  170SAPE   C2319215   3.721   6.662   6.778 -0.2972 -0.0783 -0.1120
  170SAPE   H3R19216   3.638   6.640   6.708 -1.9868 -0.3474  1.8831
  170SAPE   H3S19217   3.762   6.765   6.765 -1.7675  0.1285 -6.1224
  170SAPE   C2419218   3.669   6.637   6.924 -0.0185 -0.3069 -0.3975
  170SAPE   H4R19219   3.756   6.607   6.987  0.4061  0.4530 -0.6156
  170SAPE   H4S19220   3.607   6.544   6.926  0.6259 -0.7727  2.5163
  170SAPE   C2519221   3.600   6.758   6.986  0.2614 -0.2721 -0.6407
  170SAPE   H5R19222   3.555   6.831   6.917 -2.5826  2.3989  3.5523
  170SAPE   C2619223   3.610   6.795   7.108 -0.3772 -0.1308  0.0483
  170SAPE   H6R19224   3.574   6.894   7.140  0.3514 -0.2756  1.3563
  170SAPE   C2719225   3.682   6.719   7.214  0.0821 -0.3442  0.0511
  170SAPE   H7R19226   3.674   6.613   7.183 -1.9004 -0.4655  0.8636
  170SAPE   H7S19227   3.635   6.730   7.314  0.6687 -0.5112  0.3503
  170SAPE   C2819228   3.824   6.760   7.242 -0.1637 -0.5183  0.0426
  170SAPE   H8R19229   3.869   6.796   7.148 -2.4214  0.2987 -0.8015
  170SAPE   C2919230   3.904   6.754   7.347 -0.2795 -0.8244 -0.8963
  170SAPE   H9R19231   4.005   6.798   7.343 -0.6884  0.2792  0.2437
  170SAPE  C21019232   3.864   6.697   7.479  0.1957 -0.4105  0.4888
  170SAPE  H10R19233   3.930   6.611   7.500  1.6493  0.8409  1.2213
  170SAPE  H10S19234   3.761   6.657   7.487 -0.0323  0.1619  0.4230
  170SAPE  C21119235   3.901   6.803   7.585  0.3482  0.0496 -0.4925
  170SAPE  H11R19236   3.936   6.901   7.550  1.6295  0.5422  1.9276
  170SAPE  C21219237   3.884   6.798   7.725  1.1497 -0.6638  0.1193
  170SAPE  H12R19238   3.923   6.881   7.785 -0.9180 -0.1384  0.8156
  170SAPE  C21319239   3.820   6.682   7.803 -0.1484 -0.4426 -0.1492
  170SAPE  H13R19240   3.812   6.596   7.734  1.2382 -1.2637  0.6733
  170SAPE  H13S19241   3.714   6.700   7.833  0.0796  0.1067  0.3395
  170SAPE  C21419242   3.908   6.650   7.923  0.1110 -0.4632  0.0991
  170SAPE  H14R19243   4.014   6.679   7.922  0.3079 -1.1338  0.5077
  170SAPE  C21519244   3.864   6.581   8.032 -0.8000  0.2078  0.7813
  170SAPE  H15R19245   3.933   6.560   8.115  2.7600 -1.3573 -2.3268
  170SAPE  C21619246   3.726   6.527   8.041 -0.3042  1.0580  0.4209
  170SAPE  H16R19247   3.727   6.428   8.092  1.3757 -0.0285 -1.5598
  170SAPE  H16S19248   3.678   6.501   7.944 -0.8255 -1.0442  1.1775
  170SAPE  C21719249   3.628   6.611   8.124  0.4050 -0.5433 -0.2873
  170SAPE  H17R19250   3.631   6.720   8.106 -1.0234 -0.0646  1.9711
  170SAPE  H17S19251   3.658   6.601   8.231  1.0126  2.2948 -0.1294
  170SAPE  C21819252   3.483   6.565   8.101  0.5427 -0.4913  0.1872
  170SAPE  H18R19253   3.496   6.455   8.089 -0.2723 -0.4472 -1.3420
  170SAPE  H18S19254   3.440   6.613   8.010 -1.9004  2.8212  2.8444
  170SAPE  C21919255   3.388   6.586   8.215  0.1982 -0.7433 -0.0607
  170SAPE  H19R19256   3.282   6.567   8.190 -0.7623  2.7677  0.6938
  170SAPE  H19S19257   3.399   6.686   8.263  1.4968 -0.7174 -0.3760
  170SAPE  C22019258   3.412   6.493   8.333 -0.0489 -0.3864  0.2614
  170SAPE  H20R19259   3.472   6.552   8.406 -0.9865  0.4627  0.3811
  170SAPE  H20S19260   3.461   6.400   8.299  0.0270 -0.0752 -0.5049
  170SAPE  H20T19261   3.311   6.473   8.377 -0.1057  0.8828  0.7720
  170SAPE   C3319262   4.045   6.980   7.058 -0.4859  0.7206 -0.3081
  170SAPE   H3X19263   4.052   6.898   7.132  1.4511  3.2515  2.5715
  170SAPE   H3Y19264   3.952   6.961   7.000  0.9725 -0.6969 -2.3290
  170SAPE   C3419265   4.029   7.112   7.122 -0.4148 -0.1864 -0.4658
  170SAPE   H4X19266   4.054   7.188   7.045  2.0201 -1.3952 -0.9567
  170SAPE   H4Y19267   4.107   7.115   7.201 -0.8480  2.7801 -0.0065
  170SAPE   C3519268   3.892   7.146   7.183  0.0072  0.0910  0.2599
  170SAPE   H5X19269   3.841   7.051   7.211  1.5033 -0.3712  1.5674
  170SAPE   H5Y19270   3.834   7.189   7.099 -0.5075 -1.5630 -0.2756
  170SAPE   C3619271   3.910   7.239   7.306  0.2817 -0.4482 -0.6864
  170SAPE   H6X19272   3.823   7.306   7.318 -0.4713 -1.3977 -0.6896
  170SAPE   H6Y19273   3.992   7.306   7.275 -0.9051  0.7361 -1.3613
  170SAPE   C3719274   3.934   7.180   7.447 -0.2055 -0.1961 -0.3642
  170SAPE   H7X19275   4.037   7.140   7.453 -0.2583 -0.1868  0.8221
  170SAPE   H7Y19276   3.864   7.096   7.466  1.3216 -1.0580  2.0011
  170SAPE   C3819277   3.928   7.303   7.546 -0.1162  0.3035  0.0117
  170SAPE   H8X19278   3.819   7.324   7.553 -0.6381 -1.9645 -0.7185
  170SAPE   H8Y19279   3.974   7.382   7.483 -1.0560  0.4617 -0.4923
  170SAPE   C3919280   3.996   7.268   7.674 -0.7529  0.3101 -0.2286
  170SAPE   H9X19281   4.030   7.359   7.727  1.0707 -1.7728  2.4841
  170SAPE   H9Y19282   4.091   7.214   7.653 -0.3021  1.2656 -0.6695
  170SAPE  C31019283   3.911   7.192   7.779 -0.2276 -0.3529 -0.2482
  170SAPE  H10X19284   3.868   7.097   7.740 -0.7323 -0.3423  0.2677
  170SAPE  H10Y19285   3.826   7.256   7.811  2.1875  3.2334 -0.4593
  170SAPE  C31119286   4.003   7.152   7.899 -0.3044  0.2511  0.1229
  170SAPE  H11X19287   4.068   7.237   7.928 -0.9368  0.1253  2.1199
  170SAPE  H11Y19288   4.068   7.067   7.871  0.1312  1.4577 -2.8878
  170SAPE  C31219289   3.937   7.104   8.034  0.3934 -1.1456  0.1058
  170SAPE  H12X19290   3.868   7.022   8.005  0.4592 -0.9644 -0.6033
  170SAPE  H12Y19291   3.880   7.193   8.068  0.4561 -0.0297 -2.4205
  170SAPE  C31319292   4.026   7.053   8.141 -0.1198  0.3796 -0.3370
  170SAPE  H13X19293   4.094   7.136   8.170  0.7314 -0.5058  0.2293
  170SAPE  H13Y19294   4.071   6.961   8.100  0.3054 -0.3192  1.5868
  170SAPE  C31419295   3.949   7.001   8.264 -0.1588  0.0844 -1.0026
  170SAPE  H14X19296   3.882   6.919   8.229 -0.0026 -1.0536  1.1966
  170SAPE  H14Y19297   3.881   7.077   8.307  0.2907  0.0444 -0.2000
  170SAPE  C31519298   4.034   6.944   8.377 -0.4356  0.1059  1.0976
  170SAPE  H15X19299   4.104   7.022   8.416  0.6504  0.4771 -1.3909
  170SAPE  H15Y19300   4.104   6.867   8.339  0.8361  1.2457  1.0495
  170SAPE  C31619301   3.949   6.879   8.488 -0.0620  0.8320 -0.6584
  170SAPE  H16X19302   3.897   6.790   8.446 -1.9912  0.5762  2.0732
  170SAPE  H16Y19303   3.868   6.945   8.526 -0.5977  0.1056 -0.5229
  170SAPE  C31719304   4.032   6.818   8.602 -0.1792 -0.6645  0.0545
  170SAPE  H17X19305   4.083   6.901   8.656  3.4043 -1.8602 -1.2032
  170SAPE  H17Y19306   4.112   6.749   8.567  0.6576 -1.0943  2.5856
  170SAPE  C31819307   3.942   6.727   8.689  0.6434  0.3429  0.1035
  170SAPE  H18X19308   3.853   6.778   8.731 -0.1629  1.5816 -2.8533
  170SAPE  H18Y19309   3.994   6.687   8.780  1.5568 -1.2577 -1.0652
  170SAPE  H18Z19310   3.922   6.635   8.630  2.1228 -1.1570  1.8029
  171SAPE     N19311   5.534   2.452   6.299 -0.1393 -0.1514 -0.2968
  171SAPE   HN119312   5.509   2.449   6.400  0.1865  0.2859 -0.2046
  171SAPE   HN219313   5.636   2.469   6.293 -0.2116 -0.0562 -1.4586
  171SAPE   HN319314   5.491   2.534   6.252  0.2405 -0.3600 -1.0201
  171SAPE   C1219315   5.516   2.315   6.242 -0.0296 -0.5063 -0.1787
  171SAPE  H12A19316   5.546   2.320   6.135 -0.2807  0.4945 -0.2119
  171SAPE  H12B19317   5.410   2.285   6.246 -0.6123  1.4515  0.4755
  171SAPE   C1119318   5.609   2.209   6.304 -0.1777  0.1673  0.0454
  171SAPE  H11A19319   5.712   2.248   6.291  0.3805 -1.4999 -0.8182
  171SAPE  H11B19320   5.596   2.120   6.238 -0.5572  0.3182 -0.0914
  171SAPE     P19321   5.524   2.038   6.486 -0.4697 -0.0298  0.0601
  171SAPE   O1319322   5.414   2.001   6.399  0.3613 -0.5739 -0.4350
  171SAPE   O1419323   5.639   1.942   6.496 -0.2020  0.2875  0.2616
  171SAPE   O1219324   5.584   2.178   6.440  0.7203  0.1846 -0.1282
  171SAPE   O1119325   5.470   2.080   6.630  0.0480  0.6028 -0.4156
  171SAPE    C119326   5.429   1.967   6.717 -0.2355 -0.0105  0.0757
  171SAPE    HA19327   5.497   1.881   6.701  1.0097  0.7416  1.1043
  171SAPE    HB19328   5.453   2.002   6.820  0.4770  0.0339 -0.1003
  171SAPE    C219329   5.279   1.941   6.712  0.7439 -0.2935 -0.3481
  171SAPE    HS19330   5.262   1.894   6.612  0.8472 -1.6380  0.2500
  171SAPE   O2119331   5.210   2.072   6.715 -0.7890 -0.1175  0.2882
  171SAPE   C2119332   5.083   2.075   6.715  0.1921 -0.4054  0.3752
  171SAPE   O2219333   5.005   1.982   6.702 -0.0911  0.4474  0.7294
  171SAPE   C2219334   5.041   2.219   6.729  0.2832 -0.0716 -0.0275
  171SAPE   H2R19335   5.127   2.289   6.735 -0.0813  0.7426 -2.6900
  171SAPE   H2S19336   4.984   2.244   6.636  2.3200  1.0326 -1.0543
  171SAPE    C319337   5.230   1.851   6.828 -0.5323  0.2184 -0.8130
  171SAPE    HX19338   5.306   1.771   6.836  0.9030  1.6765  0.8395
  171SAPE    HY19339   5.125   1.820   6.805 -1.1358  1.6575 -0.1458
  171SAPE   O3119340   5.238   1.908   6.959  0.1709  0.6256 -0.4258
  171SAPE   C3119341   5.198   1.825   7.061 -0.3972 -0.2541  0.2406
  171SAPE   O3219342   5.166   1.710   7.049 -0.0069  0.1221 -0.1594
  171SAPE   C3219343   5.216   1.910   7.186 -0.1567 -0.1502  0.4211
  171SAPE   H2X19344   5.163   2.004   7.160 -1.8387 -1.6039 -1.8181
  171SAPE   H2Y19345   5.326   1.923   7.192  0.1344 -0.1408 -3.0719
  171SAPE   C2319346   4.953   2.224   6.865 -0.0603 -0.4314  0.4368
  171SAPE   H3R19347   4.845   2.202   6.852 -0.0696 -0.1681  0.0434
  171SAPE   H3S19348   4.950   2.327   6.906 -0.1016  0.5799 -1.9146
  171SAPE   C2419349   5.014   2.145   6.990  0.1791 -0.3748  0.2985
  171SAPE   H4R19350   5.018   2.036   6.969  0.8077 -0.9471  2.9265
  171SAPE   H4S19351   4.949   2.171   7.077  1.7534  1.3559  1.0373
  171SAPE   C2519352   5.146   2.213   7.018  0.3755  0.7841  0.5957
  171SAPE   H5R19353   5.222   2.190   6.941 -0.7249  0.8734 -0.5517
  171SAPE   C2619354   5.186   2.282   7.126 -0.6779  0.1639 -0.1161
  171SAPE   H6R19355   5.289   2.320   7.132 -0.5883 -0.2125  0.8044
  171SAPE   C2719356   5.110   2.322   7.250 -0.3405  0.9199 -0.0782
  171SAPE   H7R19357   5.151   2.287   7.348 -0.3746  0.7603 -0.1197
  171SAPE   H7S19358   5.011   2.271   7.244  0.0141  0.2401 -0.2297
  171SAPE   C2819359   5.093   2.469   7.261 -0.0996  0.4113 -0.3265
  171SAPE   H8R19360   5.069   2.520   7.166  0.9848  2.2712  0.3549
  171SAPE   C2919361   5.103   2.539   7.375  0.0697 -0.3790  0.2381
  171SAPE   H9R19362   5.058   2.639   7.378 -1.9292 -1.1439 -1.9277
  171SAPE  C21019363   5.125   2.475   7.515 -0.4476 -0.7474  0.0605
  171SAPE  H10R19364   5.063   2.383   7.513 -0.6150 -0.6322 -0.0315
  171SAPE  H10S19365   5.082   2.534   7.599  0.2939 -1.5740  1.0549
  171SAPE  C21119366   5.276   2.447   7.535  0.1655  0.2862  0.2983
  171SAPE  H11R19367   5.320   2.424   7.437  0.8454 -2.4024  1.1404
  171SAPE  C21219368   5.351   2.458   7.647  0.1427 -1.0588  0.2613
  171SAPE  H12R19369   5.457   2.427   7.645  0.7651  0.9844 -0.4259
  171SAPE  C21319370   5.307   2.520   7.776  0.0536  0.3220  0.4306
  171SAPE  H13R19371   5.213   2.578   7.760  0.0512  0.2747  0.2713
  171SAPE  H13S19372   5.375   2.604   7.802 -0.2632  0.6428  0.2349
  171SAPE  C21419373   5.281   2.407   7.875 -0.0248 -0.3116  0.5010
  171SAPE  H14R19374   5.197   2.343   7.846  0.2712 -0.0825 -0.9426
  171SAPE  C21519375   5.339   2.387   7.992 -0.1984 -0.0173 -0.0308
  171SAPE  H15R19376   5.322   2.288   8.038  0.2349 -0.2657 -0.3950
  171SAPE  C21619377   5.443   2.470   8.058  0.1197 -0.2321  0.3888
  171SAPE  H16R19378   5.413   2.575   8.035 -2.1137 -0.7156  0.8416
  171SAPE  H16S19379   5.532   2.439   7.999 -2.5046 -3.1572 -2.3678
  171SAPE  C21719380   5.459   2.444   8.208 -0.6681 -0.0980 -0.4440
  171SAPE  H17R19381   5.516   2.350   8.221 -0.9642 -0.0687  1.2226
  171SAPE  H17S19382   5.365   2.445   8.266 -1.6686  1.6377 -1.9644
  171SAPE  C21819383   5.547   2.558   8.264  0.1657 -0.6717  0.3877
  171SAPE  H18R19384   5.490   2.652   8.245 -1.8320 -2.3602 -2.7406
  171SAPE  H18S19385   5.644   2.570   8.212 -1.0212  0.0461 -1.7887
  171SAPE  C21919386   5.581   2.532   8.413  0.2228  0.2654  0.6010
  171SAPE  H19R19387   5.663   2.458   8.418 -0.2530 -0.5961 -2.3705
  171SAPE  H19S19388   5.494   2.490   8.468  1.8737 -0.0416  3.1281
  171SAPE  C22019389   5.623   2.660   8.489  0.3556  0.7440 -0.0583
  171SAPE  H20R19390   5.543   2.736   8.481  1.0628  1.5181  0.0798
  171SAPE  H20S19391   5.717   2.689   8.438 -1.2434  1.3744 -2.8178
  171SAPE  H20T19392   5.647   2.636   8.595  4.9533  0.7167 -0.8770
  171SAPE   C3319393   5.165   1.831   7.307 -0.4430 -0.8019 -0.2950
  171SAPE   H3X19394   5.220   1.735   7.321  1.2097  0.2729  1.0230
  171SAPE   H3Y19395   5.062   1.798   7.281 -0.4134 -2.3348  1.3265
  171SAPE   C3419396   5.168   1.911   7.435 -0.1393  0.2338 -0.0701
  171SAPE   H4X19397   5.118   2.007   7.412  1.5815  1.6002  1.6398
  171SAPE   H4Y19398   5.276   1.923   7.458  0.3296 -0.5372 -1.7189
  171SAPE   C3519399   5.079   1.826   7.534 -0.6259  0.2479  0.0417
  171SAPE   H5X19400   5.120   1.725   7.555 -0.0035  0.4378 -0.2230
  171SAPE   H5Y19401   4.978   1.821   7.488 -1.0956  1.2298  0.9143
  171SAPE   C3619402   5.055   1.876   7.671  0.2352  0.0749  0.4605
  171SAPE   H6X19403   5.009   1.794   7.731  0.1987 -0.6587 -0.5523
  171SAPE   H6Y19404   4.986   1.963   7.666  0.3359  0.3598  2.8918
  171SAPE   C3719405   5.175   1.916   7.744 -0.3655 -0.3325 -0.1320
  171SAPE   H7X19406   5.221   2.010   7.708 -1.0129  1.1500  2.6301
  171SAPE   H7Y19407   5.252   1.837   7.729 -2.3667 -2.4708  0.1664
  171SAPE   C3819408   5.153   1.922   7.900 -0.6293  0.0999 -0.0429
  171SAPE   H8X19409   5.102   1.837   7.951 -0.3062 -0.1694 -0.1683
  171SAPE   H8Y19410   5.083   2.007   7.918  0.3947  0.4895  2.5600
  171SAPE   C3919411   5.284   1.970   7.971 -0.8643  0.0198  0.4167
  171SAPE   H9X19412   5.318   2.055   7.908 -0.9403 -0.7094 -0.6334
  171SAPE   H9Y19413   5.361   1.891   7.981  2.2658  2.4734 -2.0995
  171SAPE  C31019414   5.249   2.012   8.117  0.8384 -0.1443 -1.0360
  171SAPE  H10X19415   5.191   1.927   8.159 -0.0060 -0.2846 -2.3917
  171SAPE  H10Y19416   5.176   2.096   8.112  1.2177  0.2060 -0.6342
  171SAPE  C31119417   5.364   2.052   8.202  0.2474  0.3146 -0.8637
  171SAPE  H11X19418   5.411   2.151   8.185  0.2434  0.5566  0.4314
  171SAPE  H11Y19419   5.440   1.973   8.183  1.3748  1.1549 -0.0070
  171SAPE  C31219420   5.321   2.048   8.353  1.3421  0.1530  0.2170
  171SAPE  H12X19421   5.303   1.940   8.369  1.0017 -0.1053 -1.6727
  171SAPE  H12Y19422   5.229   2.109   8.363  0.7460 -1.0958  3.5371
  171SAPE  C31319423   5.427   2.097   8.448  0.5127  0.1250 -0.4615
  171SAPE  H13X19424   5.381   2.103   8.549  0.9724 -0.5441 -0.2058
  171SAPE  H13Y19425   5.444   2.206   8.429  1.8148  0.3121  1.5056
  171SAPE  C31419426   5.556   2.021   8.445 -0.1011  0.4689  0.2622
  171SAPE  H14X19427   5.633   2.075   8.504  2.4295 -1.6447 -0.8874
  171SAPE  H14Y19428   5.591   2.005   8.341 -3.4497 -2.3815 -0.6215
  171SAPE  C31519429   5.534   1.881   8.502  0.3786  0.0753  0.0870
  171SAPE  H15X19430   5.463   1.833   8.432 -1.4890 -0.0400  1.9286
  171SAPE  H15Y19431   5.493   1.899   8.604  0.0109  3.3921 -0.5408
  171SAPE  C31619432   5.673   1.816   8.510 -0.0539  0.5036  0.4054
  171SAPE  H16X19433   5.735   1.888   8.568  0.7095  0.8102 -0.7523
  171SAPE  H16Y19434   5.724   1.821   8.411  2.2790  4.4953  1.5563
  171SAPE  C31719435   5.659   1.671   8.573 -0.3314 -0.0429 -0.4832
  171SAPE  H17X19436   5.626   1.674   8.679  0.2486 -1.1971 -0.2611
  171SAPE  H17Y19437   5.760   1.627   8.588 -1.3499 -1.4778  3.4333
  171SAPE  C31819438   5.567   1.578   8.498 -0.6669  0.3775  0.5118
  171SAPE  H18X19439   5.460   1.607   8.499 -1.1939 -1.4304  0.7477
  171SAPE  H18Y19440   5.574   1.474   8.537  1.0289  0.7285  1.2597
  171SAPE  H18Z19441   5.596   1.577   8.391  0.8905 -2.0820  0.8708
  172SAPE     N19442   5.008   0.049   6.607 -0.7094  0.4133 -0.1058
  172SAPE   HN119443   4.983   0.016   6.512  1.5968 -2.3330  0.0858
  172SAPE   HN219444   4.959  -0.005   6.681 -1.8757  0.5513 -0.7530
  172SAPE   HN319445   4.993   0.150   6.624  0.6951  0.5320  0.5701
  172SAPE   C1219446   5.147   0.006   6.640  0.3356  0.4967  0.2209
  172SAPE  H12A19447   5.163   0.030   6.747 -0.6862 -2.4164  1.1025
  172SAPE  H12B19448   5.214   0.066   6.574  0.0219  0.8419  0.2132
  172SAPE   C1119449   5.173  -0.146   6.622 -0.1026  0.0400  0.7841
  172SAPE  H11A19450   5.095  -0.211   6.667  0.8222 -2.5753 -1.0893
  172SAPE  H11B19451   5.269  -0.172   6.671  1.2070  1.3941 -0.9406
  172SAPE     P19452   5.073  -0.223   6.385 -0.5838  0.1213 -0.3882
  172SAPE   O1319453   4.958  -0.137   6.399  0.2199  0.1080  1.0660
  172SAPE   O1419454   5.136  -0.235   6.253  0.7564 -0.1474 -0.1235
  172SAPE   O1219455   5.190  -0.176   6.479  0.2307 -0.1086 -0.5856
  172SAPE   O1119456   5.030  -0.363   6.442  0.4177  0.3102 -0.1700
  172SAPE    C119457   5.127  -0.462   6.483 -0.2745  0.1300  0.0758
  172SAPE    HA19458   5.166  -0.509   6.390 -0.6435 -0.0433  0.0061
  172SAPE    HB19459   5.209  -0.408   6.534  2.5882 -1.0802 -2.8844
  172SAPE    C219460   5.073  -0.575   6.581 -0.1105  0.2005  0.0367
  172SAPE    HS19461   4.996  -0.637   6.530 -0.4987  2.4278 -2.2595
  172SAPE   O2119462   5.022  -0.499   6.689  0.5738  0.3087 -0.3462
  172SAPE   C2119463   4.905  -0.542   6.740  0.3662  0.6814 -0.5603
  172SAPE   O2219464   4.845  -0.641   6.703  0.1250  0.4189 -0.0359
  172SAPE   C2219465   4.851  -0.451   6.848  0.3595  0.1046 -0.5181
  172SAPE   H2R19466   4.809  -0.362   6.795 -0.4166 -1.7203 -3.2195
  172SAPE   H2S19467   4.770  -0.514   6.892  0.1075 -0.8579 -2.2770
  172SAPE    C319468   5.192  -0.661   6.617 -0.0188 -0.9064 -0.1935
  172SAPE    HX19469   5.271  -0.591   6.653 -0.0676 -1.4302  0.9765
  172SAPE    HY19470   5.230  -0.719   6.530  1.3906  0.1967 -0.3619
  172SAPE   O3119471   5.163  -0.756   6.722 -0.0120 -0.1540  0.1174
  172SAPE   C3119472   5.097  -0.866   6.676 -0.1425 -0.2916 -0.1090
  172SAPE   O3219473   5.062  -0.876   6.561  0.0307  0.5863 -0.3967
  172SAPE   C3219474   5.081  -0.966   6.785  0.1149 -0.7120  0.4726
  172SAPE   H2X19475   5.155  -0.940   6.864  1.1541  0.2779 -0.7687
  172SAPE   H2Y19476   5.089  -1.070   6.745  1.6612 -1.3876  2.3597
  172SAPE   C2319477   4.959  -0.416   6.952 -0.0640 -0.0507  0.6725
  172SAPE   H3R19478   5.062  -0.394   6.916  0.8156 -0.5051  2.7775
  172SAPE   H3S19479   4.978  -0.511   7.005 -1.8250 -0.7862  0.0510
  172SAPE   C2419480   4.910  -0.326   7.073 -0.6282 -0.1737 -0.0094
  172SAPE   H4R19481   4.884  -0.226   7.030  1.3147  0.1544 -0.5312
  172SAPE   H4S19482   4.999  -0.302   7.136 -1.0914  1.7525 -0.0212
  172SAPE   C2519483   4.789  -0.381   7.150  0.6097  0.5888  0.2168
  172SAPE   H5R19484   4.721  -0.441   7.088 -0.8205 -0.1546  2.3545
  172SAPE   C2619485   4.750  -0.367   7.278  0.2700 -0.4501 -0.7066
  172SAPE   H6R19486   4.651  -0.403   7.308  0.2742  1.8580  2.7004
  172SAPE   C2719487   4.832  -0.294   7.379  0.3258  0.3244 -0.7563
  172SAPE   H7R19488   4.773  -0.226   7.443  0.2936 -0.4326  0.0368
  172SAPE   H7S19489   4.909  -0.234   7.325  0.2319  0.0354 -1.2168
  172SAPE   C2819490   4.904  -0.391   7.470 -0.2512  0.7438  0.4710
  172SAPE   H8R19491   5.004  -0.429   7.443 -0.9011 -0.1663 -0.7214
  172SAPE   C2919492   4.861  -0.419   7.596  0.1199  0.6035 -0.3862
  172SAPE   H9R19493   4.928  -0.482   7.656  0.4200  2.2031  1.0377
  172SAPE  C21019494   4.744  -0.361   7.668 -0.0015  0.0665 -0.4157
  172SAPE  H10R19495   4.707  -0.417   7.757 -2.3409  2.4484  0.2265
  172SAPE  H10S19496   4.660  -0.363   7.596  0.1902 -1.0083 -0.6250
  172SAPE  C21119497   4.750  -0.216   7.701  0.0314  0.1735  0.2379
  172SAPE  H11R19498   4.732  -0.148   7.616 -2.9012  1.0567  1.4655
  172SAPE  C21219499   4.756  -0.172   7.831 -0.0174 -0.1657  0.8310
  172SAPE  H12R19500   4.786  -0.067   7.847  0.6280 -0.3444  0.8164
  172SAPE  C21319501   4.759  -0.261   7.953 -0.3584 -0.7359  0.4450
  172SAPE  H13R19502   4.867  -0.282   7.970  0.9293  2.8164 -2.1580
  172SAPE  H13S19503   4.710  -0.360   7.942 -0.1622 -0.6475 -1.4740
  172SAPE  C21419504   4.708  -0.204   8.080 -0.3406  0.3375 -0.2278
  172SAPE  H14R19505   4.645  -0.114   8.072  0.2607  0.9758  1.7763
  172SAPE  C21519506   4.759  -0.230   8.203  0.2017 -0.1640 -0.1540
  172SAPE  H15R19507   4.712  -0.180   8.290  0.0173  1.1273 -0.9587
  172SAPE  C21619508   4.866  -0.332   8.225 -0.2844 -0.4386 -0.0572
  172SAPE  H16R19509   4.965  -0.285   8.213 -1.1212  1.4726  0.1730
  172SAPE  H16S19510   4.862  -0.422   8.160 -1.8462 -1.3208  1.1660
  172SAPE  C21719511   4.882  -0.384   8.373  0.0749  0.2995  0.2940
  172SAPE  H17R19512   4.976  -0.442   8.383  0.8449  1.4082 -0.3514
  172SAPE  H17S19513   4.804  -0.463   8.385 -0.4023  0.9451  1.5798
  172SAPE  C21819514   4.871  -0.276   8.473 -0.3756  0.5972  0.2551
  172SAPE  H18R19515   4.767  -0.238   8.476 -1.1727 -1.4817  0.4811
  172SAPE  H18S19516   4.955  -0.207   8.450  1.2993 -1.7402 -1.0392
  172SAPE  C21919517   4.904  -0.323   8.617  0.0829 -0.1721 -0.0124
  172SAPE  H19R19518   5.014  -0.336   8.629  0.5836  1.2466 -2.3908
  172SAPE  H19S19519   4.846  -0.415   8.640 -1.4988  0.8885  0.4071
  172SAPE  C22019520   4.863  -0.210   8.717  0.0766 -0.3422  0.1507
  172SAPE  H20R19521   4.874  -0.240   8.823  3.2666  4.1618  1.3888
  172SAPE  H20S19522   4.765  -0.160   8.703 -0.1163 -0.6290  0.4519
  172SAPE  H20T19523   4.919  -0.115   8.700 -3.1313  1.7418  0.2457
  172SAPE   C3319524   4.941  -0.948   6.859  0.0294  0.2292 -0.7420
  172SAPE   H3X19525   4.904  -1.046   6.897 -0.7023  0.6668 -0.3081
  172SAPE   H3Y19526   4.864  -0.916   6.786 -1.0940  1.8448  1.0724
  172SAPE   C3419527   4.948  -0.838   6.970 -0.0845 -0.1187  0.5411
  172SAPE   H4X19528   4.957  -0.734   6.931 -3.4843 -0.0557 -0.4206
  172SAPE   H4Y19529   5.038  -0.848   7.033 -0.4340  3.1017  1.7325
  172SAPE   C3519530   4.832  -0.842   7.065  0.5517  0.5260 -0.2517
  172SAPE   H5X19531   4.806  -0.947   7.088 -0.6896  0.4529 -1.8445
  172SAPE   H5Y19532   4.738  -0.795   7.030 -0.5472  1.2799  3.3360
  172SAPE   C3619533   4.877  -0.771   7.191 -0.0279 -0.5807 -0.8951
  172SAPE   H6X19534   4.918  -0.677   7.149 -1.1323  0.0043 -0.6996
  172SAPE   H6Y19535   4.955  -0.833   7.240  1.1649  0.6200 -1.2452
  172SAPE   C3719536   4.762  -0.735   7.279 -0.0436  0.0971 -0.5211
  172SAPE   H7X19537   4.672  -0.687   7.235 -1.7849 -2.6361 -0.2062
  172SAPE   H7Y19538   4.809  -0.676   7.360  2.1519 -1.5995 -0.4820
  172SAPE   C3819539   4.713  -0.861   7.359 -0.4350 -0.2499  0.9936
  172SAPE   H8X19540   4.800  -0.897   7.418  1.2761  4.1407  1.5061
  172SAPE   H8Y19541   4.690  -0.939   7.282  2.4662 -1.6971  1.4744
  172SAPE   C3919542   4.608  -0.841   7.469  0.6369 -0.5983  0.1830
  172SAPE   H9X19543   4.560  -0.939   7.488 -2.2087  0.2440 -1.9648
  172SAPE   H9Y19544   4.525  -0.775   7.435  0.8014 -0.0245  0.8754
  172SAPE  C31019545   4.665  -0.785   7.597 -0.1712 -0.4084  0.4019
  172SAPE  H10X19546   4.664  -0.675   7.583  0.6969 -0.5798 -1.1351
  172SAPE  H10Y19547   4.767  -0.821   7.620  0.1103  0.3095  0.3102
  172SAPE  C31119548   4.558  -0.809   7.713  0.4651 -0.2391 -0.4423
  172SAPE  H11X19549   4.515  -0.911   7.712 -1.8748  0.6270  1.5134
  172SAPE  H11Y19550   4.470  -0.747   7.686  0.2035 -0.0079  0.8869
  172SAPE  C31219551   4.598  -0.782   7.855 -0.7947  0.3405 -0.5166
  172SAPE  H12X19552   4.619  -0.673   7.856  0.0400  0.1899  0.5456
  172SAPE  H12Y19553   4.688  -0.839   7.888 -1.3788 -0.2881  0.0468
  172SAPE  C31319554   4.492  -0.780   7.969  0.9141 -0.4741 -0.0719
  172SAPE  H13X19555   4.395  -0.742   7.930  1.1713  0.0568 -0.1920
  172SAPE  H13Y19556   4.525  -0.706   8.044 -1.5239 -0.4195  1.0414
  172SAPE  C31419557   4.461  -0.915   8.053  0.2700 -0.8210 -0.2939
  172SAPE  H14X19558   4.556  -0.969   8.074  1.0010 -0.4651 -2.4544
  172SAPE  H14Y19559   4.407  -0.986   7.986  1.6576 -2.4591  0.2324
  172SAPE  C31519560   4.384  -0.881   8.183  0.4947 -0.4287 -0.3351
  172SAPE  H15X19561   4.297  -0.813   8.169 -1.7875 -2.8635  0.9858
  172SAPE  H15Y19562   4.454  -0.837   8.257  1.2117 -2.9517  0.5851
  172SAPE  C31619563   4.328  -1.006   8.262 -0.1793  0.7807  0.2119
  172SAPE  H16X19564   4.408  -1.083   8.264 -2.4635 -2.1727  6.4151
  172SAPE  H16Y19565   4.242  -1.049   8.206 -1.3725 -1.3435  3.3644
  172SAPE  C31719566   4.288  -0.976   8.405 -0.2531 -0.0397 -0.5359
  172SAPE  H17X19567   4.188  -0.928   8.411 -0.3938 -0.3431 -0.4380
  172SAPE  H17Y19568   4.376  -0.933   8.457  0.0315 -1.2292  0.0048
  172SAPE  C31819569   4.266  -1.109   8.477  0.2148  0.0492 -0.2989
  172SAPE  H18X19570   4.222  -1.101   8.579 -1.3810 -2.5747 -0.6923
  172SAPE  H18Y19571   4.365  -1.158   8.484 -0.4227 -1.3992 -1.0596
  172SAPE  H18Z19572   4.202  -1.176   8.416 -1.0873  0.4560  0.5659
  173SOPE     N19573   1.543   3.343  11.331 -0.2069  0.3487 -1.0832
  173SOPE   HN119574   1.489   3.325  11.418  2.2068 -2.2273  0.0305
  173SOPE   HN219575   1.520   3.266  11.265  0.2291  0.0526 -0.8952
  173SOPE   HN319576   1.646   3.341  11.348  0.2312  3.6676 -2.5317
  173SOPE   C1219577   1.508   3.472  11.259 -0.1270  0.3103  0.2649
  173SOPE  H12A19578   1.557   3.554  11.316  3.4792 -0.9265 -0.8139
  173SOPE  H12B19579   1.397   3.472  11.265 -0.3010 -2.0079 -1.4918
  173SOPE   C1119580   1.566   3.469  11.115  0.2156  0.0835 -0.4471
  173SOPE  H11A19581   1.503   3.404  11.051 -2.4665  1.9186  0.1512
  173SOPE  H11B19582   1.671   3.433  11.110  0.9049  1.9053 -0.1856
  173SOPE     P19583   1.615   3.745  11.094 -0.5438  0.8672 -0.0052
  173SOPE   O1319584   1.736   3.725  11.180 -0.3899 -0.1475 -0.1817
  173SOPE   O1419585   1.514   3.836  11.155  0.0684  0.7472  0.1174
  173SOPE   O1219586   1.546   3.610  11.062 -0.4607  0.0303  0.0166
  173SOPE   O1119587   1.661   3.794  10.959 -0.3667 -0.6601  0.1888
  173SOPE    C119588   1.779   3.734  10.913 -0.9984  0.4803  0.3288
  173SOPE    HA19589   1.751   3.633  10.875 -0.3718 -0.2423  1.6805
  173SOPE    HB19590   1.866   3.720  10.982 -0.5159 -2.5479 -0.7295
  173SOPE    C219591   1.845   3.808  10.791 -0.5880 -0.6946  0.0850
  173SOPE    HS19592   1.864   3.911  10.829 -0.0691  0.8149 -3.7776
  173SOPE   O2119593   1.749   3.804  10.678  0.1965  0.3157 -0.0208
  173SOPE   C2119594   1.716   3.914  10.621  0.1009 -0.6440 -0.0927
  173SOPE   O2219595   1.779   4.021  10.625 -0.3906  0.6505 -0.3350
  173SOPE   C2219596   1.599   3.886  10.531 -0.3415 -0.6317  0.2537
  173SOPE   H2R19597   1.513   3.841  10.585 -1.5905 -0.6248 -1.6330
  173SOPE   H2S19598   1.619   3.804  10.459 -0.6519  0.1782 -0.7822
  173SOPE    C319599   1.982   3.744  10.750  0.7577  0.8312 -0.5200
  173SOPE    HX19600   1.962   3.640  10.717 -0.7896  1.5436 -1.9493
  173SOPE    HY19601   2.039   3.738  10.845  1.7357 -2.6106 -1.1651
  173SOPE   O3119602   2.053   3.815  10.640 -1.0320 -0.6623 -0.3121
  173SOPE   C3119603   2.180   3.777  10.627  0.7189  0.2644  0.3530
  173SOPE   O3219604   2.232   3.685  10.690  0.3944 -0.5148  0.3489
  173SOPE   C3219605   2.249   3.865  10.531  0.7433 -1.2088  0.5748
  173SOPE   H2X19606   2.353   3.851  10.567  0.9207  2.0707  1.6822
  173SOPE   H2Y19607   2.212   3.970  10.538  0.0025 -1.4868  0.9338
  173SOPE   C2319608   1.556   4.014  10.461 -0.3499 -0.5210 -0.0405
  173SOPE   H3R19609   1.541   4.094  10.536 -0.5169  0.1258 -0.7434
  173SOPE   H3S19610   1.452   4.006  10.424 -0.2080  1.4995 -1.0230
  173SOPE   C2419611   1.644   4.050  10.340  0.0662  0.3272  0.3517
  173SOPE   H4R19612   1.748   4.074  10.371  0.0025  1.6383 -0.4013
  173SOPE   H4S19613   1.658   3.955  10.285 -2.0939 -0.3006  0.8116
  173SOPE   C2519614   1.583   4.145  10.234 -0.2953 -0.4281  0.0302
  173SOPE   H5R19615   1.482   4.110  10.206 -0.2099  0.0503 -0.8890
  173SOPE   H5S19616   1.577   4.240  10.291  0.7570 -0.2290 -0.1576
  173SOPE   C2619617   1.678   4.152  10.110  0.0225  0.5080  0.2054
  173SOPE   H6R19618   1.640   4.237  10.048 -1.6421 -0.9808 -0.9269
  173SOPE   H6S19619   1.782   4.171  10.142  0.7752  0.8791 -2.2406
  173SOPE   C2719620   1.687   4.017  10.031 -0.9289 -0.5501 -0.5528
  173SOPE   H7R19621   1.770   3.958  10.075 -1.4620  0.0594  1.3373
  173SOPE   H7S19622   1.590   3.964  10.046 -1.9912  1.2875 -0.6616
  173SOPE   C2819623   1.721   4.020   9.879  0.4558 -0.0087 -1.1076
  173SOPE   H8R19624   1.705   3.917   9.840 -0.5448 -0.8114  1.2693
  173SOPE   H8S19625   1.653   4.077   9.812  1.2602 -0.1057 -2.0312
  173SOPE   C2919626   1.865   4.061   9.858  0.2482 -0.6735  0.6535
  173SOPE   H9119627   1.940   4.064   9.938  1.4385  0.1943 -0.4503
  173SOPE  C21019628   1.909   4.098   9.737 -0.1189  0.3605 -0.4171
  173SOPE  H10119629   2.013   4.128   9.718  0.8016 -2.1815  0.1130
  173SOPE  C21119630   1.816   4.101   9.620  0.3385 -0.3331  0.0039
  173SOPE  H11R19631   1.740   4.182   9.624 -0.2728 -0.8276 -1.0602
  173SOPE  H11S19632   1.753   4.009   9.624 -0.4634  0.2242  0.4928
  173SOPE  C21219633   1.891   4.120   9.494 -0.3312  1.0928 -1.0908
  173SOPE  H12R19634   1.837   4.081   9.405 -0.7738  0.3595 -0.5148
  173SOPE  H12S19635   1.986   4.062   9.498 -0.4727  0.8609 -1.0890
  173SOPE  C21319636   1.913   4.268   9.462  0.0681 -0.5572  0.0194
  173SOPE  H13R19637   1.965   4.317   9.547  1.8292  0.5345 -1.6258
  173SOPE  H13S19638   1.812   4.314   9.453 -0.0482 -0.7181  0.4521
  173SOPE  C21419639   1.996   4.307   9.337 -0.5310  0.4138  0.5479
  173SOPE  H14R19640   2.098   4.266   9.351 -0.4249 -0.5254 -2.2261
  173SOPE  H14S19641   1.997   4.418   9.334  1.0148  0.4322  0.8654
  173SOPE  C21519642   1.957   4.252   9.200  0.6117 -0.8299 -0.7157
  173SOPE  H15R19643   1.865   4.306   9.167  0.6328  0.0404  0.5888
  173SOPE  H15S19644   1.930   4.145   9.201 -0.2665 -0.6163 -0.4993
  173SOPE  C21619645   2.064   4.278   9.094 -1.1854 -0.1602  0.5939
  173SOPE  H16R19646   2.166   4.274   9.137 -0.9412 -0.1260  0.0347
  173SOPE  H16S19647   2.064   4.381   9.052  0.7572 -0.6345 -0.7117
  173SOPE  C21719648   2.053   4.175   8.969 -0.4061 -0.2259  0.2652
  173SOPE  H17R19649   1.954   4.182   8.920  0.2452 -0.5362 -1.1582
  173SOPE  H17S19650   2.061   4.068   8.998  0.1566 -0.2205  0.1336
  173SOPE  C21819651   2.159   4.215   8.864 -0.6605  0.1541 -0.8242
  173SOPE  H18R19652   2.115   4.313   8.836 -0.3653  1.4772  2.8246
  173SOPE  H18S19653   2.161   4.137   8.785 -1.2449 -0.1051 -0.5904
  173SOPE  H18T19654   2.262   4.210   8.905 -0.9967 -1.4923 -0.0929
  173SOPE   C3319655   2.236   3.814  10.389  0.3478 -0.3079  0.3260
  173SOPE   H3X19656   2.272   3.710  10.380  1.4436  0.0623  0.1610
  173SOPE   H3Y19657   2.318   3.873  10.342  1.1859 -1.5224  0.2079
  173SOPE   C3419658   2.100   3.840  10.326  0.1309 -0.4147 -0.0637
  173SOPE   H4X19659   2.072   3.941  10.361  1.9696 -0.0114  0.3557
  173SOPE   H4Y19660   2.023   3.768  10.361  1.2064 -0.9607  1.2883
  173SOPE   C3519661   2.095   3.829  10.175  0.0117  0.3090 -0.0475
  173SOPE   H5X19662   2.143   3.910  10.117 -1.3618  0.9163 -0.3654
  173SOPE   H5Y19663   1.985   3.831  10.161 -0.5421 -0.5285  3.2172
  173SOPE   C3619664   2.142   3.695  10.116 -0.8763  0.8847 -0.5934
  173SOPE   H6X19665   2.084   3.621  10.176 -1.3450 -1.1839 -3.4070
  173SOPE   H6Y19666   2.246   3.658  10.132 -1.4225 -1.0045 -1.1596
  173SOPE   C3719667   2.089   3.672   9.968 -0.3898  0.3084 -0.8313
  173SOPE   H7X19668   1.982   3.701   9.965  0.1369  2.8251  1.3290
  173SOPE   H7Y19669   2.107   3.565   9.944 -0.3949  0.1964 -0.3501
  173SOPE   C3819670   2.165   3.760   9.875 -0.6076 -0.3178 -0.3531
  173SOPE   H8X19671   2.274   3.742   9.872  0.0489  2.8258  1.0103
  173SOPE   H8Y19672   2.163   3.866   9.908  0.5224 -1.0541  2.3000
  173SOPE   C3919673   2.101   3.746   9.738  0.1713  0.3235 -0.8980
  173SOPE   H9X19674   1.992   3.764   9.747 -0.0912 -1.9487  4.1708
  173SOPE   H9Y19675   2.112   3.637   9.716 -1.0436 -0.1053  0.4356
  173SOPE  C31019676   2.168   3.819   9.626  0.4319  0.0227  0.4301
  173SOPE  H10X19677   2.275   3.791   9.633  0.9803  1.4298 -1.6146
  173SOPE  H10Y19678   2.170   3.930   9.637  0.4492  0.0126  0.5331
  173SOPE  C31119679   2.118   3.773   9.488  0.6674  0.2399 -0.1123
  173SOPE  H11X19680   2.012   3.804   9.474 -0.3803 -3.5092 -1.6591
  173SOPE  H11Y19681   2.115   3.662   9.492 -0.9959  0.2729  0.7882
  173SOPE  C31219682   2.203   3.836   9.372  0.2107 -0.6806  0.2972
  173SOPE  H12X19683   2.296   3.775   9.365  1.0892  0.7268 -1.1676
  173SOPE  H12Y19684   2.232   3.942   9.389  4.4735 -1.8013  1.1722
  173SOPE  C31319685   2.129   3.824   9.239 -0.4296 -0.1261  0.1372
  173SOPE  H13X19686   2.199   3.850   9.157 -0.0834  1.8212  0.9775
  173SOPE  H13Y19687   2.064   3.914   9.244 -0.2148 -0.0506  2.2253
  173SOPE  C31419688   2.030   3.714   9.209 -0.0996  0.7909 -0.0066
  173SOPE  H14X19689   1.950   3.709   9.286  0.0823 -1.1002  0.1053
  173SOPE  H14Y19690   2.076   3.614   9.221 -0.4308  0.5147 -0.8939
  173SOPE  C31519691   1.952   3.730   9.074  0.4834 -0.3631 -0.3638
  173SOPE  H15X19692   1.913   3.834   9.078  0.9768 -0.2049  0.3227
  173SOPE  H15Y19693   1.870   3.655   9.075  0.4800 -0.5289  4.3063
  173SOPE  C31619694   2.037   3.712   8.946 -0.6726  0.5242 -0.3515
  173SOPE  H16X19695   2.091   3.615   8.946 -0.8050  0.3636 -3.0466
  173SOPE  H16Y19696   2.128   3.775   8.956  1.2434 -2.3953  2.7878
  173SOPE  C31719697   1.973   3.731   8.807 -0.0907  0.2906  0.2062
  173SOPE  H17X19698   1.931   3.833   8.811  0.2980  0.4687 -0.2472
  173SOPE  H17Y19699   1.891   3.658   8.788  1.5930 -0.8982 -3.6012
  173SOPE  C31819700   2.074   3.720   8.695 -0.6319  0.1746 -0.6170
  173SOPE  H18X19701   2.046   3.783   8.607 -1.3458  0.3260 -0.2857
  173SOPE  H18Y19702   2.088   3.617   8.655  1.0058 -0.7893  2.2147
  173SOPE  H18Z19703   2.175   3.759   8.719  0.5825 -2.9361 -0.3071
  174SOPE     N19704   6.263   3.956  10.824  0.5508  0.2921 -0.7564
  174SOPE   HN119705   6.344   3.897  10.850 -1.2729 -2.2900 -0.6176
  174SOPE   HN219706   6.270   3.985  10.724 -0.6387  2.1795 -0.3555
  174SOPE   HN319707   6.270   4.049  10.871 -0.1129  0.9694 -1.9380
  174SOPE   C1219708   6.133   3.883  10.860  0.5332  0.2406  0.0833
  174SOPE  H12A19709   6.045   3.947  10.837  0.4752 -0.0760 -0.5843
  174SOPE  H12B19710   6.135   3.866  10.970 -0.7642 -1.6703 -0.1562
  174SOPE   C1119711   6.121   3.749  10.793  1.2056  0.5174 -0.1951
  174SOPE  H11A19712   6.215   3.695  10.767  1.4602  1.3996 -1.1839
  174SOPE  H11B19713   6.076   3.766  10.692 -0.3869 -1.2928  0.1458
  174SOPE     P19714   6.047   3.523  10.895 -0.4087 -0.4461  0.4642
  174SOPE   O1319715   5.931   3.470  10.975  0.7167  0.1440 -0.0720
  174SOPE   O1419716   6.184   3.516  10.947 -0.2768  0.6608  0.2952
  174SOPE   O1219717   6.021   3.673  10.864 -0.1426  0.8121  0.4915
  174SOPE   O1119718   6.028   3.464  10.753 -0.0095  0.3923  0.3648
  174SOPE    C119719   6.119   3.380  10.675  0.1832 -0.9163 -0.8324
  174SOPE    HA19720   6.120   3.275  10.711 -1.4820 -0.4982  0.5500
  174SOPE    HB19721   6.225   3.412  10.687 -0.0741 -0.6216  0.8685
  174SOPE    C219722   6.089   3.384  10.521  0.2397  0.0409 -0.5451
  174SOPE    HS19723   6.109   3.487  10.485  1.0160 -0.0770 -0.4714
  174SOPE   O2119724   5.951   3.347  10.500  0.4765 -0.2468 -0.6893
  174SOPE   C2119725   5.884   3.398  10.404 -0.6998  0.5472  0.0033
  174SOPE   O2219726   5.933   3.476  10.327  0.1649 -0.1845 -0.0207
  174SOPE   C2219727   5.738   3.357  10.399  0.2117  0.2249 -0.4874
  174SOPE   H2R19728   5.674   3.431  10.451 -2.8533 -1.7581 -1.1640
  174SOPE   H2S19729   5.732   3.264  10.460 -0.0908 -0.3887 -1.4391
  174SOPE    C319730   6.183   3.285  10.445 -0.0992 -0.2988 -0.8046
  174SOPE    HX19731   6.178   3.186  10.494 -0.2248 -0.7764 -1.7496
  174SOPE    HY19732   6.292   3.305  10.460  0.0896 -2.2712  0.7958
  174SOPE   O3119733   6.158   3.265  10.303  0.1764 -0.9893  0.0938
  174SOPE   C3119734   6.186   3.376  10.233 -0.0684  0.1550  0.4110
  174SOPE   O3219735   6.252   3.466  10.282  0.2984 -0.3902 -0.5599
  174SOPE   C3219736   6.132   3.366  10.090  0.0335  0.7076 -0.1603
  174SOPE   H2X19737   6.024   3.392  10.089 -1.0453 -3.1382  0.0783
  174SOPE   H2Y19738   6.132   3.256  10.073 -1.7526  0.1929  2.5621
  174SOPE   C2319739   5.682   3.330  10.256 -0.4903  0.0299 -0.5952
  174SOPE   H3R19740   5.762   3.297  10.187  0.9486  0.8837  0.6140
  174SOPE   H3S19741   5.632   3.423  10.222  0.2413  1.6717  2.4638
  174SOPE   C2419742   5.578   3.225  10.264 -0.0734  0.9355  0.2789
  174SOPE   H4R19743   5.638   3.132  10.272  0.6549  1.3567 -0.1572
  174SOPE   H4S19744   5.525   3.243  10.361 -2.3331  2.2760 -1.1097
  174SOPE   C2519745   5.481   3.229  10.150 -0.1892 -0.5590  1.2640
  174SOPE   H5R19746   5.394   3.164  10.175 -0.8278 -0.6280 -0.9595
  174SOPE   H5S19747   5.429   3.325  10.132 -0.2227 -1.1039 -2.0632
  174SOPE   C2619748   5.537   3.188  10.008 -0.6514  0.3842 -1.1674
  174SOPE   H6R19749   5.621   3.257   9.984 -0.2143  0.8537  1.4240
  174SOPE   H6S19750   5.575   3.086  10.027  0.8195  0.9342 -1.0014
  174SOPE   C2719751   5.428   3.182   9.898  0.0820  0.0687 -0.5302
  174SOPE   H7R19752   5.339   3.132   9.941  1.1615 -2.0357 -0.6148
  174SOPE   H7S19753   5.395   3.284   9.868  0.5736  0.1200 -0.9240
  174SOPE   C2819754   5.476   3.117   9.768 -0.1179  0.6171 -0.7131
  174SOPE   H8R19755   5.561   3.180   9.732 -0.8384  1.8022 -0.3885
  174SOPE   H8S19756   5.507   3.015   9.801  0.4773  0.4667 -1.6791
  174SOPE   C2919757   5.370   3.125   9.659  0.4433 -0.4842 -0.2722
  174SOPE   H9119758   5.269   3.154   9.691  0.4834 -0.8034  0.1579
  174SOPE  C21019759   5.391   3.117   9.525 -0.3531 -0.1523 -0.4803
  174SOPE  H10119760   5.310   3.135   9.452  0.9058  1.8644 -1.4636
  174SOPE  C21119761   5.511   3.076   9.453  0.6065  0.0217  0.3911
  174SOPE  H11R19762   5.503   2.969   9.422  5.8169 -0.4923 -0.2372
  174SOPE  H11S19763   5.604   3.083   9.513  1.1852 -1.8757 -0.1915
  174SOPE  C21219764   5.524   3.154   9.324  0.4255  0.2057  0.3656
  174SOPE  H12R19765   5.554   3.257   9.355  1.3267  0.7444 -2.0597
  174SOPE  H12S19766   5.427   3.152   9.270  1.3708  3.3045 -1.7231
  174SOPE  C21319767   5.620   3.089   9.229  0.3842  0.0677  1.0544
  174SOPE  H13R19768   5.629   2.979   9.238  2.7025 -0.0661 -1.5492
  174SOPE  H13S19769   5.723   3.114   9.259  0.7623 -2.3536  2.0180
  174SOPE  C21419770   5.613   3.135   9.082  0.0226  0.4451  0.3012
  174SOPE  H14R19771   5.518   3.091   9.043 -0.2448  0.5499  0.8227
  174SOPE  H14S19772   5.695   3.082   9.029  1.3161  0.4636  2.1789
  174SOPE  C21519773   5.641   3.278   9.055  0.1006 -0.4396  0.5208
  174SOPE  H15R19774   5.722   3.303   9.127 -0.8458 -1.8498  2.1321
  174SOPE  H15S19775   5.554   3.339   9.086  0.9681 -0.1435  2.5436
  174SOPE  C21619776   5.672   3.305   8.903 -0.2582 -0.1947 -0.2118
  174SOPE  H16R19777   5.573   3.299   8.854 -0.6798  2.1920  0.1946
  174SOPE  H16S19778   5.738   3.235   8.848  2.4264  0.2320  2.2110
  174SOPE  C21719779   5.737   3.445   8.893 -0.3387 -0.1909 -0.0298
  174SOPE  H17R19780   5.762   3.462   8.786  2.2166 -0.1296  0.5176
  174SOPE  H17S19781   5.830   3.450   8.954  0.8289 -1.9267 -1.5574
  174SOPE  C21819782   5.643   3.567   8.940 -0.3128  0.2044 -0.1785
  174SOPE  H18R19783   5.547   3.555   8.884 -0.9916 -1.3495  1.2530
  174SOPE  H18S19784   5.674   3.673   8.925  1.2632  0.0761  1.8629
  174SOPE  H18T19785   5.629   3.560   9.049 -0.4377  2.2083 -0.0182
  174SOPE   C3319786   6.204   3.454   9.982 -0.4672 -0.6845  0.0057
  174SOPE   H3X19787   6.212   3.561  10.012  0.5141 -0.3375 -1.3705
  174SOPE   H3Y19788   6.132   3.445   9.898  1.0458  0.8760 -1.5423
  174SOPE   C3419789   6.346   3.410   9.946  0.2501  0.4711  0.0862
  174SOPE   H4X19790   6.354   3.308   9.904  1.7182  0.2134  0.9142
  174SOPE   H4Y19791   6.417   3.397  10.031  0.2078 -3.5150 -0.2900
  174SOPE   C3519792   6.406   3.491   9.840  0.0970 -0.2774  1.0757
  174SOPE   H5X19793   6.511   3.465   9.815 -0.5083  0.4170 -2.8378
  174SOPE   H5Y19794   6.408   3.595   9.878  0.2430 -0.6991  2.2841
  174SOPE   C3619795   6.327   3.486   9.704  0.2335 -0.1879 -0.1866
  174SOPE   H6X19796   6.224   3.523   9.726 -0.0046 -0.5099 -0.7551
  174SOPE   H6Y19797   6.312   3.381   9.674  0.0653 -0.6144  1.2989
  174SOPE   C3719798   6.382   3.571   9.601  1.0892 -0.3227 -0.2570
  174SOPE   H7X19799   6.490   3.547   9.598  1.0581 -0.4581 -0.2964
  174SOPE   H7Y19800   6.370   3.678   9.630  2.6429  0.0278 -0.8015
  174SOPE   C3819801   6.316   3.544   9.466  0.3608 -0.2482 -0.6324
  174SOPE   H8X19802   6.210   3.577   9.475  0.8489  0.9630  1.2262
  174SOPE   H8Y19803   6.307   3.434   9.456 -0.5028 -0.0515 -2.4038
  174SOPE   C3919804   6.385   3.616   9.353 -0.0212  0.0165 -0.5032
  174SOPE   H9X19805   6.492   3.592   9.332 -0.0800 -0.7070  0.0090
  174SOPE   H9Y19806   6.390   3.726   9.364 -0.5438  0.1355 -1.3638
  174SOPE  C31019807   6.330   3.588   9.221  0.0682 -0.7487 -0.4175
  174SOPE  H10X19808   6.221   3.611   9.219  0.0375 -0.9166 -2.1427
  174SOPE  H10Y19809   6.341   3.478   9.210 -0.7474 -0.8263 -0.5578
  174SOPE  C31119810   6.403   3.668   9.106 -0.1018  0.1545  0.2554
  174SOPE  H11X19811   6.506   3.630   9.119 -0.6499 -0.8024  2.1711
  174SOPE  H11Y19812   6.396   3.777   9.125  1.0556 -0.2669  3.7153
  174SOPE  C31219813   6.357   3.629   8.968 -0.5115 -0.3240  0.2066
  174SOPE  H12X19814   6.258   3.679   8.957  0.4095  1.4601 -0.3100
  174SOPE  H12Y19815   6.351   3.519   8.959 -0.5299 -0.1914 -1.6558
  174SOPE  C31319816   6.444   3.687   8.855 -0.3009  0.6625 -1.1757
  174SOPE  H13X19817   6.391   3.673   8.759 -0.7054 -1.1777 -0.7209
  174SOPE  H13Y19818   6.537   3.628   8.869 -0.3813  0.8196  0.1711
  174SOPE  C31419819   6.476   3.838   8.872 -0.1353  0.6429 -0.4103
  174SOPE  H14X19820   6.547   3.864   8.791 -1.4447 -0.3708 -1.9314
  174SOPE  H14Y19821   6.524   3.860   8.970  0.8994  1.9177 -1.1726
  174SOPE  C31519822   6.347   3.923   8.860 -0.0323 -0.0374 -0.4014
  174SOPE  H15X19823   6.301   3.933   8.961 -0.1978 -0.7227 -0.4100
  174SOPE  H15Y19824   6.282   3.866   8.792  1.3770 -0.7266 -1.2201
  174SOPE  C31619825   6.379   4.061   8.798  0.9580  1.0301 -0.0136
  174SOPE  H16X19826   6.436   4.052   8.703  1.9427 -1.8323  0.7317
  174SOPE  H16Y19827   6.452   4.111   8.866  3.3333 -1.6111 -0.4044
  174SOPE  C31719828   6.262   4.163   8.802 -0.0941  0.8608 -0.2013
  174SOPE  H17X19829   6.304   4.259   8.766 -1.3011  1.4940  0.0169
  174SOPE  H17Y19830   6.237   4.185   8.908 -1.3482 -1.6141  0.0870
  174SOPE  C31819831   6.142   4.129   8.711  0.0008 -0.2425 -0.3555
  174SOPE  H18X19832   6.077   4.216   8.691  0.1274  0.0128  0.3001
  174SOPE  H18Y19833   6.074   4.067   8.772 -1.1886  0.4429 -0.9578
  174SOPE  H18Z19834   6.166   4.074   8.618 -2.3330 -1.1031 -0.5021
  175SOPE     N19835   2.632   5.853  10.747  0.6583 -0.1981  0.8091
  175SOPE   HN119836   2.560   5.784  10.778  1.1627 -1.0912  0.0562
  175SOPE   HN219837   2.721   5.833  10.797  1.7155  0.5059 -0.6932
  175SOPE   HN319838   2.597   5.946  10.778 -0.7461 -0.6875  0.7668
  175SOPE   C1219839   2.646   5.856  10.600  0.6888  0.1404  0.3156
  175SOPE  H12A19840   2.547   5.865  10.550  1.0101 -1.6239 -0.7163
  175SOPE  H12B19841   2.677   5.756  10.562  2.4742  1.1136 -0.9408
  175SOPE   C1119842   2.745   5.958  10.548 -0.5022 -0.9595 -0.4433
  175SOPE  H11A19843   2.701   6.055  10.579 -0.1720 -0.5882 -1.1152
  175SOPE  H11B19844   2.764   5.951  10.439  1.4615 -1.9165 -0.0904
  175SOPE     P19845   2.988   5.860  10.567  0.0377 -0.1268  0.2866
  175SOPE   O1319846   2.934   5.723  10.583  0.1158 -0.1557 -0.0355
  175SOPE   O1419847   3.107   5.892  10.651  0.4243  0.1861  0.3245
  175SOPE   O1219848   2.869   5.959  10.616 -0.2925 -0.0020  0.2384
  175SOPE   O1119849   3.005   5.887  10.416  0.9001  0.1599  0.0704
  175SOPE    C119850   3.049   6.006  10.348  0.3675 -0.2417 -0.7283
  175SOPE    HA19851   3.142   5.983  10.293  0.1027  0.0417 -1.3029
  175SOPE    HB19852   3.067   6.087  10.422  1.3581 -0.4969 -0.6754
  175SOPE    C219853   2.944   6.059  10.247  0.4691 -0.4670  0.8255
  175SOPE    HS19854   2.850   6.078  10.303 -0.0710  3.5882 -1.1506
  175SOPE   O2119855   2.931   5.966  10.137  0.7401 -0.0820 -0.3057
  175SOPE   C2119856   2.808   5.916  10.108  0.4491  0.1356  0.1722
  175SOPE   O2219857   2.715   5.924  10.185  0.1407 -0.8455 -0.3160
  175SOPE   C2219858   2.810   5.856   9.969  0.0416  0.2347 -0.3080
  175SOPE   H2R19859   2.905   5.802   9.949  0.3773  0.9051 -0.5199
  175SOPE   H2S19860   2.816   5.940   9.898  0.4813 -0.6156 -1.3036
  175SOPE    C319861   2.984   6.196  10.185  0.1696 -0.1682 -0.1782
  175SOPE    HX19862   3.084   6.184  10.138 -0.5943  0.9606 -2.2135
  175SOPE    HY19863   2.979   6.273  10.265  0.7764 -2.2220  1.9426
  175SOPE   O3119864   2.894   6.228  10.074 -0.0065  0.0058  0.1061
  175SOPE   C3119865   2.772   6.269  10.102  1.2529 -0.1344  0.3088
  175SOPE   O3219866   2.719   6.290  10.209 -0.2353 -0.5901  0.4701
  175SOPE   C3219867   2.692   6.301   9.976  0.1597  0.1384  0.1122
  175SOPE   H2X19868   2.679   6.411   9.970 -3.4407 -0.1270  0.4108
  175SOPE   H2Y19869   2.589   6.258   9.976 -0.9252  2.5655 -0.4316
  175SOPE   C2319870   2.673   5.786   9.951  0.1372  0.4561 -0.1087
  175SOPE   H3R19871   2.585   5.852   9.966  0.9053  1.7497 -1.0759
  175SOPE   H3S19872   2.650   5.695  10.011 -0.1687 -0.0664 -0.9898
  175SOPE   C2419873   2.663   5.733   9.804 -0.7764  1.3438  0.0157
  175SOPE   H4R19874   2.755   5.672   9.794 -1.5601  0.1853 -0.4187
  175SOPE   H4S19875   2.579   5.662   9.786  0.5947 -0.7523  1.4266
  175SOPE   C2519876   2.670   5.850   9.693  0.9109  0.2783 -0.5902
  175SOPE   H5R19877   2.583   5.917   9.712  1.0587  0.0752  0.9447
  175SOPE   H5S19878   2.762   5.912   9.696  1.5768 -0.7168 -0.1128
  175SOPE   C2619879   2.655   5.793   9.555 -0.3995 -0.2412  0.1186
  175SOPE   H6R19880   2.743   5.727   9.540 -0.3859 -0.4973  1.2099
  175SOPE   H6S19881   2.564   5.731   9.545 -0.3346 -0.0979 -1.5921
  175SOPE   C2719882   2.658   5.893   9.445  0.0618 -0.4158 -0.0439
  175SOPE   H7R19883   2.585   5.976   9.442  1.2965  0.6606 -1.3934
  175SOPE   H7S19884   2.757   5.944   9.444 -0.3544  0.6118 -3.9279
  175SOPE   C2819885   2.647   5.827   9.302 -0.4635  0.7767 -0.7564
  175SOPE   H8R19886   2.724   5.746   9.303  0.0535  1.2482 -1.4411
  175SOPE   H8S19887   2.552   5.770   9.309 -0.5627  1.0997  0.6918
  175SOPE   C2919888   2.643   5.918   9.183 -0.2001 -0.2152  0.6315
  175SOPE   H9119889   2.544   5.952   9.148 -0.2850 -0.0951  0.9832
  175SOPE  C21019890   2.739   5.940   9.094  0.8004  0.6073 -0.1707
  175SOPE  H10119891   2.713   5.991   9.000 -0.3448  0.1192 -0.1450
  175SOPE  C21119892   2.878   5.887   9.096 -0.1246  0.4410 -0.7481
  175SOPE  H11R19893   2.900   5.828   9.188  2.5590  1.8638 -0.3808
  175SOPE  H11S19894   2.946   5.974   9.094 -1.1943  1.2841 -1.4294
  175SOPE  C21219895   2.922   5.797   8.984  0.0959 -0.3160 -0.6348
  175SOPE  H12R19896   2.846   5.720   8.961 -0.9766  0.9597 -1.4831
  175SOPE  H12S19897   3.017   5.745   9.010 -1.0859 -2.0193  0.4029
  175SOPE  C21319898   2.935   5.878   8.852  0.0774 -0.0170 -0.0864
  175SOPE  H13R19899   2.976   5.979   8.874  3.1033 -0.9761 -0.7530
  175SOPE  H13S19900   2.832   5.899   8.817 -0.7974 -3.4102  0.0239
  175SOPE  C21419901   3.020   5.823   8.744 -0.1363 -1.0879  0.3690
  175SOPE  H14R19902   3.023   5.893   8.658 -2.3010 -2.2090 -0.6905
  175SOPE  H14S19903   2.969   5.737   8.695  1.0484 -0.3504 -2.3856
  175SOPE  C21519904   3.166   5.782   8.774  0.1694 -0.0987  0.1894
  175SOPE  H15R19905   3.162   5.709   8.858 -2.5108  0.3478  0.5366
  175SOPE  H15S19906   3.208   5.876   8.816 -1.1356  1.4226 -1.7713
  175SOPE  C21619907   3.235   5.729   8.649 -0.5015  0.6085  0.3319
  175SOPE  H16R19908   3.212   5.794   8.562 -0.6009  1.2573  0.8436
  175SOPE  H16S19909   3.200   5.625   8.631  2.0245 -0.6017  1.8232
  175SOPE  C21719910   3.390   5.710   8.658 -0.3360  0.2949 -0.4261
  175SOPE  H17R19911   3.426   5.704   8.553  1.0411 -0.3988  0.0678
  175SOPE  H17S19912   3.408   5.613   8.709  0.2221  0.8268  0.4299
  175SOPE  C21819913   3.471   5.820   8.728  0.1906  0.4050  0.2707
  175SOPE  H18R19914   3.451   5.823   8.837  1.5417  0.9051  0.5230
  175SOPE  H18S19915   3.452   5.920   8.682 -0.6988  0.2343  0.2428
  175SOPE  H18T19916   3.579   5.799   8.713  0.4560  1.1705  1.0567
  175SOPE   C3319917   2.755   6.242   9.846  0.6323 -0.0976  1.2110
  175SOPE   H3X19918   2.745   6.132   9.861 -0.2579 -0.1258  0.4586
  175SOPE   H3Y19919   2.860   6.273   9.825 -0.4073  3.6169  0.8625
  175SOPE   C3419920   2.659   6.285   9.730 -0.8053  0.2239 -0.4724
  175SOPE   H4X19921   2.648   6.395   9.730  1.3081  0.5015 -2.5518
  175SOPE   H4Y19922   2.557   6.243   9.746 -0.8951  0.4528 -0.4500
  175SOPE   C3519923   2.699   6.253   9.587 -1.1473  0.0031 -0.3525
  175SOPE   H5X19924   2.610   6.262   9.522 -1.8881  1.2585  0.7793
  175SOPE   H5Y19925   2.717   6.144   9.578 -2.2570 -0.0558 -2.5371
  175SOPE   C3619926   2.808   6.339   9.538  0.5821  0.9097  0.5716
  175SOPE   H6X19927   2.894   6.317   9.605 -1.1197 -2.7398  1.8129
  175SOPE   H6Y19928   2.787   6.448   9.548  0.7149  0.8544  1.6355
  175SOPE   C3719929   2.852   6.310   9.397 -0.2021 -0.1682 -0.4610
  175SOPE   H7X19930   2.764   6.299   9.331 -0.2117 -0.4884 -0.3952
  175SOPE   H7Y19931   2.905   6.212   9.392 -1.9762 -1.1540 -0.5644
  175SOPE   C3819932   2.934   6.424   9.342  0.7071  0.2631  0.8545
  175SOPE   H8X19933   3.007   6.457   9.420 -0.4557 -0.0496  2.1152
  175SOPE   H8Y19934   2.867   6.509   9.318  0.1787  0.0596  1.5660
  175SOPE   C3919935   3.021   6.403   9.216  0.0497 -0.2370  0.9727
  175SOPE   H9X19936   3.089   6.325   9.257 -0.9204 -1.6365  0.0099
  175SOPE   H9Y19937   3.080   6.496   9.202  0.2922 -0.1542  2.4013
  175SOPE  C31019938   2.937   6.362   9.091 -0.3899 -0.6190 -0.5821
  175SOPE  H10X19939   2.877   6.453   9.074 -0.7462 -0.8187 -0.3915
  175SOPE  H10Y19940   2.859   6.285   9.111 -0.0209 -0.7755  0.2765
  175SOPE  C31119941   3.031   6.321   8.977 -0.3558  0.0003  0.5983
  175SOPE  H11X19942   2.971   6.302   8.885  0.2929  2.1666 -0.3646
  175SOPE  H11Y19943   3.087   6.229   9.002  0.8572  0.9837  1.6635
  175SOPE  C31219944   3.142   6.422   8.927  0.1628  0.1317 -0.2562
  175SOPE  H12X19945   3.223   6.373   8.869  0.2601  0.3045 -0.2697
  175SOPE  H12Y19946   3.192   6.476   9.011  0.1928  1.3053 -0.9982
  175SOPE  C31319947   3.078   6.524   8.827 -0.4987 -0.1288 -0.0645
  175SOPE  H13X19948   3.000   6.582   8.881 -0.5446  0.5519 -0.8493
  175SOPE  H13Y19949   3.032   6.468   8.743  0.7225 -0.6335 -0.4225
  175SOPE  C31419950   3.182   6.607   8.758 -0.2305  0.1772 -0.3062
  175SOPE  H14X19951   3.245   6.544   8.692  1.0955  1.4067 -0.2685
  175SOPE  H14Y19952   3.252   6.650   8.833 -0.3769 -0.0409 -0.0418
  175SOPE  C31519953   3.118   6.702   8.660 -0.5016 -0.1649  0.3401
  175SOPE  H15X19954   3.053   6.768   8.722  0.8676  1.5459  0.0509
  175SOPE  H15Y19955   3.054   6.645   8.590  0.7228 -2.6314  1.1304
  175SOPE  C31619956   3.220   6.795   8.586  0.2774  0.1526 -0.6817
  175SOPE  H16X19957   3.266   6.720   8.518  0.8459 -1.2061  1.1179
  175SOPE  H16Y19958   3.289   6.829   8.667 -0.7136  1.0704 -0.2108
  175SOPE  C31719959   3.153   6.907   8.514  0.3230  0.1925 -0.1394
  175SOPE  H17X19960   3.236   6.974   8.483  0.0410  0.0326 -1.2687
  175SOPE  H17Y19961   3.080   6.967   8.573  0.1019  2.0647 -2.2055
  175SOPE  C31819962   3.087   6.866   8.378  0.7147 -0.0394  0.3077
  175SOPE  H18X19963   3.033   6.952   8.333 -0.7539 -2.3062 -2.5845
  175SOPE  H18Y19964   3.007   6.793   8.400  0.7787  0.5310  2.7018
  175SOPE  H18Z19965   3.156   6.811   8.311  1.6252  1.7739 -0.3256
  176SOPE     N19966   4.180   5.847  10.962  0.2786 -0.3573  0.7396
  176SOPE   HN119967   4.196   5.947  10.985 -0.4583 -0.4235  1.5489
  176SOPE   HN219968   4.137   5.851  10.867 -0.0890  1.3293  0.9564
  176SOPE   HN319969   4.120   5.800  11.032 -2.1691 -2.7697 -2.6156
  176SOPE   C1219970   4.313   5.784  10.951  0.5896  0.1322  0.1561
  176SOPE  H12A19971   4.289   5.675  10.943 -0.1048  0.3246 -0.6144
  176SOPE  H12B19972   4.363   5.809  11.046 -1.6704 -2.2256  2.1183
  176SOPE   C1119973   4.380   5.812  10.814 -0.1832 -0.0191 -1.1660
  176SOPE  H11A19974   4.318   5.796  10.723 -0.2117  0.3216 -1.2095
  176SOPE  H11B19975   4.472   5.751  10.807 -0.2752 -0.2214 -0.6382
  176SOPE     P19976   4.363   6.068  10.757 -0.2206 -0.2606  0.3377
  176SOPE   O1319977   4.458   6.171  10.721 -0.4236  0.1317 -0.0087
  176SOPE   O1419978   4.256   6.101  10.852  0.2157  0.3081 -0.2090
  176SOPE   O1219979   4.431   5.947  10.818 -0.6843 -0.0645 -0.6620
  176SOPE   O1119980   4.293   6.010  10.625  0.2895  0.3098 -0.0818
  176SOPE    C119981   4.216   6.092  10.537 -0.2529  0.6115  0.0706
  176SOPE    HA19982   4.244   6.066  10.433  0.6087 -1.4966  0.7759
  176SOPE    HB19983   4.238   6.200  10.547  0.0144  0.6930 -1.2878
  176SOPE    C219984   4.064   6.066  10.553 -0.5540  0.2605 -0.3363
  176SOPE    HS19985   4.034   6.079  10.659  1.4640 -0.6809  0.3948
  176SOPE   O2119986   4.032   5.942  10.494  0.0723  0.4427  0.2216
  176SOPE   C2119987   4.042   5.834  10.574 -0.2610 -0.1054 -0.6899
  176SOPE   O2219988   4.066   5.835  10.696  0.2724 -0.1697  0.7851
  176SOPE   C2219989   4.045   5.708  10.484 -0.2359 -0.1136  0.1826
  176SOPE   H2R19990   4.042   5.614  10.545  1.9788 -0.1738  0.2846
  176SOPE   H2S19991   4.142   5.713  10.430 -0.7047 -0.8088 -0.7570
  176SOPE    C319992   3.995   6.177  10.458 -0.8646 -0.1059  0.0078
  176SOPE    HX19993   4.020   6.277  10.501  0.5504 -0.8216  0.9345
  176SOPE    HY19994   3.884   6.172  10.461 -0.9371  1.0506  0.0514
  176SOPE   O3119995   4.043   6.178  10.326  0.4620  0.1011  0.3541
  176SOPE   C3119996   3.959   6.129  10.228  0.6482 -0.1252  0.1831
  176SOPE   O3219997   3.848   6.087  10.247  0.0296  0.2391  0.1062
  176SOPE   C3219998   4.040   6.125  10.104  0.4936  0.3945  0.2671
  176SOPE   H2X19999   4.106   6.037  10.120  0.0644 -0.0354 -0.3026
  176SOPE   H2Y20000   4.111   6.210  10.094  0.0558  0.8009  0.5586
  176SOPE   C2320001   3.917   5.688  10.400  0.3618 -0.3049 -0.2333
  176SOPE   H3R20002   3.892   5.787  10.355 -0.1012 -0.4569 -0.3179
  176SOPE   H3S20003   3.828   5.652  10.455 -0.0215  0.8109 -0.1073
  176SOPE   C2420004   3.938   5.586  10.293 -0.1078  0.4001 -1.1051
  176SOPE   H4R20005   3.956   5.494  10.353  0.8627  0.8874 -0.6173
  176SOPE   H4S20006   3.842   5.567  10.241  0.5222  0.9036 -2.5003
  176SOPE   C2520007   4.054   5.612  10.195 -0.1156 -0.7854 -0.1006
  176SOPE   H5R20008   4.051   5.713  10.151 -0.4281 -0.1986  1.2075
  176SOPE   H5S20009   4.150   5.604  10.250 -0.3952  0.2290  0.5746
  176SOPE   C2620010   4.042   5.493  10.095  0.5109 -0.3788  0.9320
  176SOPE   H6R20011   4.064   5.407  10.162 -1.3536 -1.9044 -0.3296
  176SOPE   H6S20012   3.937   5.496  10.061  1.1148 -1.9698 -1.3262
  176SOPE   C2720013   4.126   5.507   9.974 -0.0421 -0.4553  0.0007
  176SOPE   H7R20014   4.105   5.602   9.919 -0.3992  0.3553  1.4846
  176SOPE   H7S20015   4.233   5.522  10.001  0.2352 -0.8945 -0.8275
  176SOPE   C2820016   4.107   5.386   9.875  0.1377 -0.1768 -0.2705
  176SOPE   H8R20017   4.191   5.378   9.803  0.3585 -2.0817  0.1501
  176SOPE   H8S20018   4.113   5.291   9.932 -1.6979  1.4931  3.0588
  176SOPE   C2920019   3.972   5.387   9.804  0.1580 -0.8804 -0.4736
  176SOPE   H9120020   3.883   5.376   9.868  0.2529  1.9469  0.2873
  176SOPE  C21020021   3.949   5.420   9.675 -0.5756  0.5589  0.4219
  176SOPE  H10120022   3.849   5.396   9.636  1.0103 -2.0509 -2.5439
  176SOPE  C21120023   4.050   5.451   9.572 -0.3595  0.1151  0.3489
  176SOPE  H11R20024   4.145   5.393   9.579  0.5460  1.3203 -1.1753
  176SOPE  H11S20025   4.078   5.558   9.569 -0.7931  0.2833  1.8758
  176SOPE  C21220026   4.005   5.410   9.429 -0.5964  0.0675  0.4047
  176SOPE  H12R20027   3.904   5.445   9.398 -0.0046 -0.0284 -1.8300
  176SOPE  H12S20028   3.997   5.300   9.416 -3.3152  0.2271  0.1088
  176SOPE  C21320029   4.100   5.459   9.317 -0.3152 -0.4793 -0.0816
  176SOPE  H13R20030   4.199   5.412   9.336  0.1246  0.8412  1.1552
  176SOPE  H13S20031   4.105   5.568   9.337  0.2023 -0.9682  3.0388
  176SOPE  C21420032   4.065   5.422   9.177  0.3731 -0.0460 -0.7293
  176SOPE  H14R20033   3.972   5.477   9.148 -1.6031 -1.2973  2.6857
  176SOPE  H14S20034   4.036   5.316   9.161 -0.6377  0.4492 -2.4793
  176SOPE  C21520035   4.177   5.451   9.078 -0.4591 -0.2705 -0.9019
  176SOPE  H15R20036   4.260   5.379   9.092  0.4754  0.5988 -1.7428
  176SOPE  H15S20037   4.229   5.548   9.095 -1.9134  0.7522 -2.0374
  176SOPE  C21620038   4.136   5.451   8.930 -0.0958 -0.5547 -0.1950
  176SOPE  H16R20039   4.222   5.459   8.860 -1.3851 -1.6519 -1.9794
  176SOPE  H16S20040   4.072   5.540   8.918 -0.2632 -0.6862 -0.2768
  176SOPE  C21720041   4.070   5.324   8.885  1.0031  0.6662  0.5593
  176SOPE  H17R20042   3.965   5.320   8.923  0.4698  0.2218 -0.8898
  176SOPE  H17S20043   4.124   5.240   8.934  1.7316  2.1677  2.4607
  176SOPE  C21820044   4.066   5.310   8.728  0.5753  0.5900 -0.6117
  176SOPE  H18R20045   4.172   5.323   8.697  1.1716 -3.0692 -0.5436
  176SOPE  H18S20046   4.017   5.403   8.693  0.3076  0.5811 -0.2652
  176SOPE  H18T20047   4.017   5.216   8.696 -0.3196  1.3831 -1.6366
  176SOPE   C3320048   3.957   6.101   9.972 -0.4456  0.7405 -0.6131
  176SOPE   H3X20049   3.904   6.198   9.958 -1.5406  0.4392  1.1717
  176SOPE   H3Y20050   3.882   6.020   9.982  0.5147 -0.3927 -2.2069
  176SOPE   C3420051   4.046   6.070   9.851  0.4016 -0.1877 -0.8745
  176SOPE   H4X20052   4.116   6.155   9.841  2.7756 -1.6803  1.6341
  176SOPE   H4Y20053   3.977   6.063   9.763 -1.2147 -0.2316  0.3420
  176SOPE   C3520054   4.130   5.946   9.866 -0.0017 -0.2656  0.0108
  176SOPE   H5X20055   4.075   5.852   9.887 -0.1213 -0.5490 -1.5029
  176SOPE   H5Y20056   4.203   5.957   9.950  1.0490  1.1229 -1.0388
  176SOPE   C3620057   4.217   5.919   9.738 -0.2946 -0.2910  0.1940
  176SOPE   H6X20058   4.285   5.835   9.764 -0.7482 -0.1961  1.8046
  176SOPE   H6Y20059   4.287   6.002   9.718  2.0306 -0.9259  4.4571
  176SOPE   C3720060   4.143   5.890   9.612  0.3380 -0.1536  0.1951
  176SOPE   H7X20061   4.074   5.971   9.580  0.8678 -0.3347 -1.5143
  176SOPE   H7Y20062   4.075   5.803   9.618  0.8936 -0.6408 -0.3093
  176SOPE   C3820063   4.242   5.863   9.492  0.7379 -0.7514  0.3314
  176SOPE   H8X20064   4.287   5.764   9.514 -0.1755 -1.2748 -0.1051
  176SOPE   H8Y20065   4.318   5.943   9.486 -0.2038  0.1450 -0.0182
  176SOPE   C3920066   4.168   5.860   9.353  0.0757  0.2958 -0.3608
  176SOPE   H9X20067   4.124   5.959   9.329 -0.3491 -0.1031 -1.2887
  176SOPE   H9Y20068   4.082   5.791   9.371 -0.7511  1.6950  1.2966
  176SOPE  C31020069   4.248   5.798   9.243 -0.7789  0.4638  0.8793
  176SOPE  H10X20070   4.176   5.791   9.157 -2.1077  2.0642  1.7896
  176SOPE  H10Y20071   4.277   5.696   9.276 -3.2545  0.0765  2.1581
  176SOPE  C31120072   4.368   5.883   9.183  0.0851  0.2352 -0.3727
  176SOPE  H11X20073   4.433   5.911   9.268 -0.0296 -1.0457  0.1510
  176SOPE  H11Y20074   4.320   5.967   9.127  0.2069  0.5311 -0.0389
  176SOPE  C31220075   4.454   5.811   9.076  0.3306  0.5055  0.0855
  176SOPE  H12X20076   4.541   5.878   9.061  0.9798 -0.1433  0.8602
  176SOPE  H12Y20077   4.403   5.791   8.979 -1.1409 -2.6635  1.3747
  176SOPE  C31320078   4.523   5.675   9.124  0.4269 -0.6050 -0.4233
  176SOPE  H13X20079   4.449   5.596   9.150  0.9024 -0.6685  0.7920
  176SOPE  H13Y20080   4.575   5.702   9.218 -2.2121  2.0698  0.4445
  176SOPE  C31420081   4.624   5.630   9.019 -0.3322 -0.1931 -0.5196
  176SOPE  H14X20082   4.676   5.539   9.055  1.3471  0.8112 -0.3258
  176SOPE  H14Y20083   4.697   5.711   9.000 -0.0110 -0.3928 -0.1361
  176SOPE  C31520084   4.555   5.591   8.893 -0.4310  0.8024 -0.2110
  176SOPE  H15X20085   4.552   5.671   8.816  0.9592  0.5925 -0.5164
  176SOPE  H15Y20086   4.451   5.557   8.913 -0.1479  0.6794  1.1629
  176SOPE  C31620087   4.625   5.483   8.814 -0.0382 -0.3056  0.2570
  176SOPE  H16X20088   4.574   5.457   8.719  1.7391 -2.3820 -0.2178
  176SOPE  H16Y20089   4.629   5.388   8.871  1.1528  0.3393  1.2992
  176SOPE  C31720090   4.775   5.513   8.770  0.2769 -0.3677 -0.7956
  176SOPE  H17X20091   4.830   5.499   8.866  1.4548 -2.9264 -1.7522
  176SOPE  H17Y20092   4.780   5.609   8.714  0.3167  1.1691  1.6723
  176SOPE  C31820093   4.828   5.397   8.680 -0.5075 -0.0212  0.5085
  176SOPE  H18X20094   4.901   5.442   8.609 -1.4506 -1.2967 -1.3599
  176SOPE  H18Y20095   4.745   5.352   8.621 -1.0623  0.7286  0.6965
  176SOPE  H18Z20096   4.868   5.314   8.742  2.0199  0.1126 -0.8181
  177SOPE     N20097   1.406   2.749  10.811  0.0421 -0.1600 -0.1194
  177SOPE   HN120098   1.365   2.776  10.720  0.7592 -1.0798 -0.7349
  177SOPE   HN220099   1.499   2.709  10.788  0.1672  0.9024 -1.6386
  177SOPE   HN320100   1.349   2.679  10.863  0.2378 -0.3895 -0.2086
  177SOPE   C1220101   1.427   2.873  10.903 -0.7417  0.2708 -0.0040
  177SOPE  H12A20102   1.465   2.850  11.004  0.7448 -0.2433 -0.6544
  177SOPE  H12B20103   1.327   2.922  10.903 -0.5594  0.6366  0.3352
  177SOPE   C1120104   1.534   2.957  10.838 -0.2659 -0.2348 -0.4837
  177SOPE  H11A20105   1.496   2.994  10.740 -1.7080  1.3823  0.6316
  177SOPE  H11B20106   1.629   2.900  10.837 -0.7943 -1.5409  3.9794
  177SOPE     P20107   1.638   3.104  11.046 -0.0783 -0.1220  0.3092
  177SOPE   O1320108   1.548   3.148  11.150  0.0248 -0.8790  0.0970
  177SOPE   O1420109   1.757   3.185  11.017 -0.0817  0.1747 -0.5566
  177SOPE   O1220110   1.545   3.078  10.915 -0.0456 -0.1000  0.0602
  177SOPE   O1120111   1.689   2.961  11.081 -0.0970  0.2351 -0.5076
  177SOPE    C120112   1.825   2.932  11.112  0.3132 -0.3864 -1.0157
  177SOPE    HA20113   1.836   2.877  11.208  0.2645  0.3647 -0.5692
  177SOPE    HB20114   1.894   3.019  11.116  0.5908 -0.6303 -0.1057
  177SOPE    C220115   1.885   2.831  11.007  0.3712  0.1283  0.1489
  177SOPE    HS20116   1.989   2.799  11.031  0.0404  0.4045  2.1424
  177SOPE   O2120117   1.885   2.888  10.869  0.9506  0.6493  0.0368
  177SOPE   C2120118   1.967   2.984  10.845 -0.1943  0.6966 -0.2065
  177SOPE   O2220119   2.060   3.027  10.911 -0.2853  0.1370 -0.4039
  177SOPE   C2220120   1.937   3.042  10.707  0.6194 -0.1731  0.2606
  177SOPE   H2R20121   1.971   3.147  10.696 -1.5553  0.4162 -1.8879
  177SOPE   H2S20122   1.827   3.051  10.693  0.7029  2.1885  0.6660
  177SOPE    C320123   1.807   2.700  11.013  0.0393 -0.1764 -0.5224
  177SOPE    HX20124   1.699   2.722  11.006 -0.4976 -1.2173  2.7321
  177SOPE    HY20125   1.822   2.661  11.116 -0.9777  0.9822  0.0916
  177SOPE   O3120126   1.860   2.609  10.921 -0.2428  0.2433  0.5384
  177SOPE   C3120127   1.783   2.582  10.818  0.6190 -0.2161 -0.3849
  177SOPE   O3220128   1.679   2.639  10.786  0.2173 -0.4012 -0.4170
  177SOPE   C3220129   1.824   2.448  10.776  0.4286  0.4947  0.7024
  177SOPE   H2X20130   1.737   2.409  10.720  1.7142 -0.6167 -0.6192
  177SOPE   H2Y20131   1.842   2.379  10.862  0.9598 -1.6969 -1.0611
  177SOPE   C2320132   1.997   2.941  10.599  0.3910  0.0845  0.0972
  177SOPE   H3R20133   1.988   2.835  10.630 -1.6202 -0.6400 -2.6156
  177SOPE   H3S20134   2.107   2.961  10.595  0.4310 -0.3086 -1.9174
  177SOPE   C2420135   1.961   2.962  10.451  0.0441 -0.7187  0.2942
  177SOPE   H4R20136   1.958   3.069  10.420  0.8343 -0.5685  0.6979
  177SOPE   H4S20137   2.032   2.908  10.385  0.4284  0.2412 -0.1020
  177SOPE   C2520138   1.817   2.911  10.424 -0.4600 -0.5390  0.0938
  177SOPE   H5R20139   1.792   2.814  10.473  0.5551 -0.8605  0.0066
  177SOPE   H5S20140   1.742   2.983  10.462  0.8796  1.7000 -1.2740
  177SOPE   C2620141   1.801   2.887  10.268 -0.6988  0.2606 -0.1080
  177SOPE   H6R20142   1.816   2.984  10.216 -0.7988 -0.1137 -0.8506
  177SOPE   H6S20143   1.883   2.820  10.234 -0.4355  1.3577 -1.7500
  177SOPE   C2720144   1.674   2.814  10.233  0.1422 -0.3303  0.4101
  177SOPE   H7R20145   1.658   2.726  10.298 -1.6856  1.1469  2.1167
  177SOPE   H7S20146   1.592   2.888  10.248 -0.2239 -0.1701 -2.0478
  177SOPE   C2820147   1.658   2.784  10.080 -0.1386 -0.1581  0.3501
  177SOPE   H8R20148   1.566   2.722  10.069  0.4884 -1.0926  0.1856
  177SOPE   H8S20149   1.647   2.878  10.022 -1.5750  1.8005  3.5139
  177SOPE   C2920150   1.778   2.708  10.022 -0.4186 -0.2093  0.0828
  177SOPE   H9120151   1.810   2.616  10.072 -2.6405 -1.7786 -1.2284
  177SOPE  C21020152   1.856   2.743   9.919 -0.0018 -0.2620  0.2478
  177SOPE  H10120153   1.947   2.685   9.898  0.3791  0.1752  0.6569
  177SOPE  C21120154   1.831   2.859   9.823 -0.4542  0.1677  0.7789
  177SOPE  H11R20155   1.924   2.912   9.793  1.4571 -2.6122  1.5305
  177SOPE  H11S20156   1.752   2.930   9.856 -0.9285 -0.0731  0.1918
  177SOPE  C21220157   1.769   2.800   9.700 -0.7246  1.0518  0.1937
  177SOPE  H12R20158   1.670   2.755   9.726  0.0665 -1.3672 -0.7189
  177SOPE  H12S20159   1.819   2.708   9.664 -0.7696  1.4145 -0.8376
  177SOPE  C21320160   1.763   2.899   9.582 -0.4849  0.0478  0.4303
  177SOPE  H13R20161   1.859   2.954   9.568 -0.5581 -0.0811 -0.6725
  177SOPE  H13S20162   1.692   2.975   9.619  0.3633  0.6646  0.8373
  177SOPE  C21420163   1.719   2.835   9.457 -0.1122  0.1405  0.5060
  177SOPE  H14R20164   1.617   2.793   9.472 -0.4812  1.1727  0.9796
  177SOPE  H14S20165   1.784   2.749   9.429  0.8405  0.6685  1.0402
  177SOPE  C21520166   1.722   2.942   9.352  0.0838  0.2048  0.9596
  177SOPE  H15R20167   1.827   2.980   9.350  0.3223 -0.3817  1.6219
  177SOPE  H15S20168   1.639   3.010   9.379 -1.3358 -2.0926  2.7331
  177SOPE  C21620169   1.694   2.879   9.213  0.3234 -0.0033 -0.0651
  177SOPE  H16R20170   1.600   2.820   9.220  0.0616  0.0448 -2.3214
  177SOPE  H16S20171   1.768   2.811   9.164  1.1623  1.1874 -0.4862
  177SOPE  C21720172   1.671   2.975   9.097 -0.7977 -0.3332  0.7431
  177SOPE  H17R20173   1.748   3.055   9.103 -2.9862  1.9984 -0.2815
  177SOPE  H17S20174   1.573   3.025   9.112 -1.1469 -0.6873 -0.3012
  177SOPE  C21820175   1.662   2.901   8.961 -0.7039  0.3369  0.2102
  177SOPE  H18R20176   1.588   2.818   8.969 -0.3583 -0.0520 -0.5178
  177SOPE  H18S20177   1.762   2.854   8.947  0.2212  1.5589  2.1443
  177SOPE  H18T20178   1.626   2.969   8.882 -2.1490  1.4055  1.7143
  177SOPE   C3320179   1.957   2.458  10.707 -0.0886  0.4098 -0.3034
  177SOPE   H3X20180   2.006   2.362  10.678 -0.0970  0.5640 -0.8427
  177SOPE   H3Y20181   2.014   2.509  10.788 -3.2495  0.1852  2.2726
  177SOPE   C3420182   1.958   2.528  10.571 -0.3948 -0.5955  0.3067
  177SOPE   H4X20183   1.930   2.633  10.595  0.6056 -0.5992  1.6137
  177SOPE   H4Y20184   1.882   2.466  10.521 -1.5205 -0.3232  1.6027
  177SOPE   C3520185   2.092   2.521  10.498 -0.8997  0.0535  0.6210
  177SOPE   H5X20186   2.141   2.422  10.488  1.4313  1.0827  1.2793
  177SOPE   H5Y20187   2.177   2.570  10.550  1.1534 -1.4845 -1.1091
  177SOPE   C3620188   2.087   2.569  10.348 -1.3229 -0.3857  0.1178
  177SOPE   H6X20189   2.008   2.646  10.339 -0.3936  0.6572  0.6144
  177SOPE   H6Y20190   2.068   2.481  10.282  0.2339  0.0234 -0.9624
  177SOPE   C3720191   2.226   2.629  10.305 -0.2107  0.1561  0.3886
  177SOPE   H7X20192   2.313   2.563  10.328  0.4888  0.1031 -2.1391
  177SOPE   H7Y20193   2.247   2.709  10.379 -0.8420  0.0144  0.7220
  177SOPE   C3820194   2.239   2.668  10.168 -0.2098 -0.5361  0.3382
  177SOPE   H8X20195   2.345   2.685  10.140  0.8084 -2.1863  2.8493
  177SOPE   H8Y20196   2.179   2.759  10.147 -1.2407 -1.1675  0.4837
  177SOPE   C3920197   2.188   2.567  10.057 -0.2035  0.2185 -0.8981
  177SOPE   H9X20198   2.078   2.557  10.066 -0.3322  1.6879 -0.6566
  177SOPE   H9Y20199   2.230   2.467  10.082 -1.3011 -0.2863 -1.0151
  177SOPE  C31020200   2.235   2.615   9.920  0.1816  0.4006  0.4281
  177SOPE  H10X20201   2.346   2.618   9.928  0.2556 -0.7244  0.0318
  177SOPE  H10Y20202   2.205   2.718   9.889  0.1958  0.4893  0.7075
  177SOPE  C31120203   2.185   2.522   9.810 -0.4856 -0.2066 -0.5177
  177SOPE  H11X20204   2.076   2.541   9.820  0.0752  2.4001  2.1108
  177SOPE  H11Y20205   2.200   2.417   9.841 -2.0570  0.1182  1.5118
  177SOPE  C31220206   2.242   2.559   9.668  0.0439 -0.0015  0.2725
  177SOPE  H12X20207   2.317   2.478   9.656 -3.4335 -3.1748 -2.7404
  177SOPE  H12Y20208   2.275   2.663   9.646 -1.5109  0.5999  0.6333
  177SOPE  C31320209   2.139   2.531   9.554 -0.0659 -0.3956 -0.2990
  177SOPE  H13X20210   2.063   2.612   9.561  2.5830  2.4347 -1.8137
  177SOPE  H13Y20211   2.099   2.434   9.590  0.5335 -0.2134  0.9011
  177SOPE  C31420212   2.206   2.523   9.415 -0.2148 -0.0153 -0.3378
  177SOPE  H14X20213   2.296   2.587   9.429 -0.8461  0.8122  0.0186
  177SOPE  H14Y20214   2.129   2.563   9.346 -2.3066 -3.2214 -0.1083
  177SOPE  C31520215   2.234   2.378   9.367 -0.0940  0.2173 -0.3711
  177SOPE  H15X20216   2.140   2.327   9.396 -0.2235 -0.4644 -1.8904
  177SOPE  H15Y20217   2.316   2.344   9.433 -2.1877 -3.3102  0.6857
  177SOPE  C31620218   2.246   2.363   9.220  0.1706 -0.2655 -0.1276
  177SOPE  H16X20219   2.175   2.437   9.178  1.9327  1.6624  0.1651
  177SOPE  H16Y20220   2.218   2.260   9.188 -0.7112 -0.4379  1.1069
  177SOPE  C31720221   2.392   2.397   9.176  0.1477 -0.6264 -0.0538
  177SOPE  H17X20222   2.427   2.493   9.220  1.0270 -1.0801  0.2575
  177SOPE  H17Y20223   2.399   2.418   9.067 -0.3891  0.9632  0.1910
  177SOPE  C31820224   2.493   2.285   9.209  0.5670  0.3350  0.3200
  177SOPE  H18X20225   2.594   2.294   9.164 -0.6997  0.7992 -2.6466
  177SOPE  H18Y20226   2.452   2.184   9.182  1.4966  0.5563 -2.2299
  177SOPE  H18Z20227   2.516   2.278   9.317  4.6204 -0.5857 -0.4391
  178SOPE     N20228   1.061   6.682  11.411  0.5292  0.3558 -0.2326
  178SOPE   HN120229   1.079   6.585  11.444  0.5348  0.7540  0.9980
  178SOPE   HN220230   1.148   6.732  11.386  0.5965 -0.1924 -1.1326
  178SOPE   HN320231   1.019   6.737  11.489 -0.0986 -0.4719  0.0367
  178SOPE   C1220232   0.963   6.690  11.294 -0.3029  0.2822 -1.5905
  178SOPE  H12A20233   0.931   6.796  11.279 -1.0964  0.3544  0.2919
  178SOPE  H12B20234   0.883   6.622  11.329 -0.5664  1.8690  1.2007
  178SOPE   C1120235   1.026   6.632  11.172 -0.2910  0.4823 -0.3683
  178SOPE  H11A20236   0.962   6.629  11.082 -0.1638 -1.2028 -0.4164
  178SOPE  H11B20237   1.041   6.524  11.192  1.5485  0.4918 -1.5361
  178SOPE     P20238   1.258   6.660  11.039 -0.1696 -0.4927  0.2982
  178SOPE   O1320239   1.285   6.515  11.052 -0.4854 -0.4277 -0.3869
  178SOPE   O1420240   1.376   6.755  11.030 -0.1131 -0.1767 -0.7829
  178SOPE   O1220241   1.153   6.699  11.150  0.0573 -0.1321 -0.5535
  178SOPE   O1120242   1.175   6.663  10.904  0.3511 -0.6204  0.7026
  178SOPE    C120243   1.071   6.752  10.879  0.1223 -0.1476 -0.5729
  178SOPE    HA20244   1.043   6.820  10.962 -1.7438 -1.4388 -0.0829
  178SOPE    HB20245   0.978   6.695  10.860 -0.8503  1.9835 -2.6792
  178SOPE    C220246   1.082   6.850  10.759 -0.0853 -0.0487  0.1160
  178SOPE    HS20247   0.984   6.898  10.746 -0.1659  0.2970  1.7586
  178SOPE   O2120248   1.108   6.774  10.638 -0.0691 -0.4821  0.4459
  178SOPE   C2120249   1.050   6.811  10.527 -0.1571 -0.4891 -0.2460
  178SOPE   O2220250   0.954   6.881  10.517  0.3310 -0.2374  0.8296
  178SOPE   C2220251   1.105   6.752  10.400  0.4980 -0.5047 -1.3795
  178SOPE   H2R20252   1.119   6.645  10.427 -1.2994 -0.0946  1.6333
  178SOPE   H2S20253   1.199   6.805  10.373  0.0948  0.9912  0.0587
  178SOPE    C320254   1.186   6.956  10.780  0.1455 -0.5159  0.7540
  178SOPE    HX20255   1.274   6.918  10.836  0.9953  1.2349  0.7041
  178SOPE    HY20256   1.143   7.043  10.835  4.4014  2.1097  0.3942
  178SOPE   O3120257   1.223   7.014  10.651  0.7057 -0.0289  0.1900
  178SOPE   C3120258   1.332   7.084  10.667 -0.3303  1.0562  0.0001
  178SOPE   O3220259   1.402   7.090  10.767 -0.0670 -1.1853  0.1255
  178SOPE   C3220260   1.386   7.136  10.535  0.1938 -0.3440  0.3053
  178SOPE   H2X20261   1.496   7.139  10.549  0.1829  2.4872  0.4307
  178SOPE   H2Y20262   1.348   7.237  10.507  1.7122  0.1917  0.0537
  178SOPE   C2320263   1.009   6.773  10.289  0.8068 -0.1890 -0.3910
  178SOPE   H3R20264   1.006   6.881  10.264 -0.2754  0.3430  1.8559
  178SOPE   H3S20265   0.908   6.733  10.312  0.7346 -0.0581 -0.4714
  178SOPE   C2420266   1.049   6.714  10.148  0.0199 -0.0372  0.3827
  178SOPE   H4R20267   1.152   6.746  10.120  0.1253 -0.4828  0.2497
  178SOPE   H4S20268   1.050   6.603  10.148  3.5395 -0.1097 -0.1702
  178SOPE   C2520269   0.955   6.768  10.039  0.7157 -0.1434 -0.0016
  178SOPE   H5R20270   0.856   6.721  10.054  0.5613  0.6795  1.9706
  178SOPE   H5S20271   0.944   6.879  10.044  0.0876 -0.1743 -0.5713
  178SOPE   C2620272   0.999   6.730   9.900  0.2083 -0.0715  0.7294
  178SOPE   H6R20273   0.913   6.768   9.840  0.6044 -1.1423 -0.5611
  178SOPE   H6S20274   1.098   6.767   9.868  0.4770 -1.8913 -0.7326
  178SOPE   C2720275   1.013   6.581   9.871 -0.1561  0.1659 -0.1149
  178SOPE   H7R20276   1.102   6.535   9.920 -1.4523 -1.5132  0.7632
  178SOPE   H7S20277   0.924   6.531   9.914 -0.1146  1.4997  1.6493
  178SOPE   C2820278   1.010   6.535   9.723  0.2146 -0.6037 -0.4275
  178SOPE   H8R20279   1.005   6.425   9.732  1.8389 -0.8066 -1.5097
  178SOPE   H8S20280   0.915   6.564   9.673  0.2734 -0.6308 -0.5555
  178SOPE   C2920281   1.138   6.566   9.647  0.1858 -0.3888 -0.0360
  178SOPE   H9120282   1.232   6.548   9.703  1.3551  2.7020 -0.8240
  178SOPE  C21020283   1.159   6.623   9.528  0.5712  0.3297 -0.0626
  178SOPE  H10120284   1.264   6.630   9.496  1.2741 -4.7822  0.3079
  178SOPE  C21120285   1.058   6.688   9.431 -0.3877  0.3876 -1.1689
  178SOPE  H11R20286   1.078   6.797   9.426 -2.0379  0.8504  0.8713
  178SOPE  H11S20287   0.950   6.682   9.459 -0.5141  1.0365 -1.5027
  178SOPE  C21220288   1.064   6.632   9.292  0.2015  0.1280 -0.1208
  178SOPE  H12R20289   0.974   6.678   9.245  0.8281  2.8458  1.1706
  178SOPE  H12S20290   1.061   6.522   9.279  0.4991  0.3968 -3.5207
  178SOPE  C21320291   1.178   6.690   9.208  0.5074 -1.2067 -0.1779
  178SOPE  H13R20292   1.267   6.666   9.270  1.0755  0.9120 -0.1248
  178SOPE  H13S20293   1.177   6.799   9.189 -2.2557 -1.3028 -1.0053
  178SOPE  C21420294   1.194   6.625   9.076 -0.3577 -0.1076  0.0303
  178SOPE  H14R20295   1.190   6.514   9.089 -1.6720 -0.1882 -0.8562
  178SOPE  H14S20296   1.295   6.650   9.035 -0.6543  1.0934  0.0076
  178SOPE  C21520297   1.083   6.642   8.972  0.7797  0.4404 -0.4662
  178SOPE  H15R20298   1.076   6.739   8.918  0.3721  0.6390 -0.0660
  178SOPE  H15S20299   0.988   6.639   9.029  0.7328 -0.4361 -0.5790
  178SOPE  C21620300   1.085   6.535   8.866 -0.3183 -0.1962  0.2571
  178SOPE  H16R20301   1.074   6.438   8.920  0.4525  0.5603  1.8396
  178SOPE  H16S20302   1.179   6.536   8.808 -0.4323  1.3221  0.0704
  178SOPE  C21720303   0.971   6.549   8.759 -0.0487 -0.1750  0.3736
  178SOPE  H17R20304   0.878   6.545   8.819 -1.4130  1.1543 -1.5071
  178SOPE  H17S20305   0.956   6.460   8.694 -2.1632 -0.1963  0.8131
  178SOPE  C21820306   0.973   6.677   8.665  0.6378  0.3232 -0.7093
  178SOPE  H18R20307   1.066   6.681   8.605 -1.4814 -0.2210 -4.3004
  178SOPE  H18S20308   0.952   6.763   8.732  1.5175  0.7465 -0.9652
  178SOPE  H18T20309   0.887   6.669   8.596 -0.5155 -0.6867  0.7620
  178SOPE   C3320310   1.350   7.038  10.413  0.2739  0.4772  0.4121
  178SOPE   H3X20311   1.240   7.027  10.399  0.2566 -0.0140  0.9000
  178SOPE   H3Y20312   1.389   6.939  10.443 -0.1942  0.3702  0.6876
  178SOPE   C3420313   1.414   7.082  10.283  0.4051  0.5506  0.4820
  178SOPE   H4X20314   1.523   7.074  10.299  0.4209  0.1149  0.1656
  178SOPE   H4Y20315   1.392   7.190  10.266  0.5530  0.3170 -1.4660
  178SOPE   C3520316   1.364   7.003  10.162 -0.2502 -1.1490 -0.4047
  178SOPE   H5X20317   1.253   7.003  10.160 -0.2966 -1.4392  1.0269
  178SOPE   H5Y20318   1.400   6.900  10.184  1.1262 -0.5796  0.0892
  178SOPE   C3620319   1.419   7.051  10.021  0.4359 -0.4580  0.5875
  178SOPE   H6X20320   1.530   7.063  10.021  0.2950  3.0819 -2.9487
  178SOPE   H6Y20321   1.383   7.154   9.999  1.0186 -0.4629 -0.4910
  178SOPE   C3720322   1.365   6.955   9.910  0.3952  0.0086  0.4923
  178SOPE   H7X20323   1.259   6.981   9.890  0.2124 -1.6402 -0.8801
  178SOPE   H7Y20324   1.367   6.849   9.942 -1.2139 -1.2141 -3.0004
  178SOPE   C3820325   1.447   6.957   9.783 -0.1322 -0.5369  0.8131
  178SOPE   H8X20326   1.555   6.943   9.806  0.0180 -0.0639  0.4268
  178SOPE   H8Y20327   1.448   7.057   9.735  0.4187  0.0383  1.9794
  178SOPE   C3920328   1.409   6.859   9.672  0.1525  0.0106  0.3051
  178SOPE   H9X20329   1.306   6.875   9.632  0.3837 -3.2746 -1.9939
  178SOPE   H9Y20330   1.394   6.755   9.709  1.1257 -0.0304  0.6027
  178SOPE  C31020331   1.510   6.856   9.557  0.0137 -0.8870  0.1206
  178SOPE  H10X20332   1.609   6.813   9.585  1.6974  2.8714  0.4936
  178SOPE  H10Y20333   1.540   6.962   9.542  2.1766 -1.4545  0.1464
  178SOPE  C31120334   1.471   6.799   9.420 -0.7307  0.3446  0.4515
  178SOPE  H11X20335   1.371   6.830   9.384 -0.6909 -1.0918 -1.0049
  178SOPE  H11Y20336   1.483   6.689   9.411 -0.0894  0.2966  1.6234
  178SOPE  C31220337   1.573   6.862   9.323  0.1780  0.1558 -0.3886
  178SOPE  H12X20338   1.676   6.853   9.364 -0.0220 -3.4121 -0.3502
  178SOPE  H12Y20339   1.560   6.972   9.308 -0.8726  0.0582 -0.2374
  178SOPE  C31320340   1.579   6.784   9.192  0.0345 -0.1363  0.1127
  178SOPE  H13X20341   1.516   6.693   9.202 -0.3970 -0.0659 -1.6151
  178SOPE  H13Y20342   1.680   6.745   9.164  0.0816 -1.9268  2.4878
  178SOPE  C31420343   1.526   6.862   9.077 -0.1557  0.6097  0.5312
  178SOPE  H14X20344   1.573   6.962   9.066  1.1955 -0.0974 -0.5808
  178SOPE  H14Y20345   1.417   6.883   9.081 -0.4680 -0.9969  0.9151
  178SOPE  C31520346   1.549   6.792   8.937 -0.7864 -0.8672  0.4572
  178SOPE  H15X20347   1.478   6.708   8.921 -1.1654 -0.3724 -0.4935
  178SOPE  H15Y20348   1.650   6.746   8.944  0.0442  0.7975 -0.1103
  178SOPE  C31620349   1.554   6.897   8.820 -0.6298  0.5051 -0.1701
  178SOPE  H16X20350   1.654   6.942   8.837  0.6756 -2.8277  1.9272
  178SOPE  H16Y20351   1.467   6.966   8.830 -0.1233  0.9293  1.8337
  178SOPE  C31720352   1.547   6.836   8.684  0.4636 -0.1696  1.2515
  178SOPE  H17X20353   1.622   6.757   8.665  1.2708  0.6938  0.7976
  178SOPE  H17Y20354   1.567   6.924   8.619 -0.0114  0.5213  2.0082
  178SOPE  C31820355   1.413   6.783   8.638  0.2411  0.5988  0.1794
  178SOPE  H18X20356   1.399   6.679   8.676 -1.7134  0.3208 -1.1873
  178SOPE  H18Y20357   1.417   6.773   8.528 -1.7826  1.3434 -0.0042
  178SOPE  H18Z20358   1.325   6.845   8.665 -0.6408  0.4151 -2.1011
  179SOPE     N20359   3.444   2.490   6.435  0.3944 -0.3402 -0.5526
  179SOPE   HN120360   3.488   2.561   6.373  0.6615  0.1065  0.1464
  179SOPE   HN220361   3.465   2.393   6.403  0.1174 -0.1938 -1.1953
  179SOPE   HN320362   3.340   2.494   6.436  0.4317  0.9211 -0.5613
  179SOPE   C1220363   3.498   2.522   6.567  0.2287 -0.2597  0.6515
  179SOPE  H12A20364   3.608   2.530   6.556  0.1182 -0.5297 -0.8388
  179SOPE  H12B20365   3.473   2.441   6.639 -0.1640  2.0638  3.2580
  179SOPE   C1120366   3.430   2.648   6.615 -0.0837 -0.5889  0.0514
  179SOPE  H11A20367   3.476   2.672   6.714 -0.2775  3.0923 -0.5882
  179SOPE  H11B20368   3.321   2.628   6.613 -0.2779  0.4172 -2.2426
  179SOPE     P20369   3.450   2.909   6.536  0.2222  0.1598  0.4614
  179SOPE   O1320370   3.344   2.956   6.440  0.0854 -0.7264 -0.1531
  179SOPE   O1420371   3.588   2.961   6.520  0.6399  0.0549  0.3810
  179SOPE   O1220372   3.461   2.754   6.524 -0.1169 -0.7010 -0.0290
  179SOPE   O1120373   3.412   2.923   6.687  0.6572 -0.0064 -0.1832
  179SOPE    C120374   3.283   2.980   6.719 -0.2472  0.3478  0.1178
  179SOPE    HA20375   3.203   2.912   6.683  0.0390  0.5950 -1.0418
  179SOPE    HB20376   3.275   3.080   6.670  1.8796  0.4471 -0.0885
  179SOPE    C220377   3.265   3.001   6.875 -0.1895 -0.7245 -0.1016
  179SOPE    HS20378   3.163   3.039   6.901  0.4161  0.3902  0.7409
  179SOPE   O2120379   3.365   3.092   6.920 -0.1728 -0.2387 -0.1442
  179SOPE   C2120380   3.345   3.166   7.031 -0.7488  0.7124 -0.1542
  179SOPE   O2220381   3.246   3.154   7.101 -0.0768 -1.1123  0.4713
  179SOPE   C2220382   3.457   3.269   7.052  0.1920 -0.2237 -0.4305
  179SOPE   H2R20383   3.449   3.348   6.975 -1.2324  0.7191  0.6345
  179SOPE   H2S20384   3.550   3.215   7.025 -1.0570 -2.3479 -0.7601
  179SOPE    C320385   3.279   2.870   6.945 -0.5769 -0.1514  0.1978
  179SOPE    HX20386   3.382   2.835   6.921 -1.1991 -0.7826 -1.7133
  179SOPE    HY20387   3.216   2.792   6.898 -0.5409 -0.1956  0.2233
  179SOPE   O3120388   3.265   2.875   7.086  0.1865 -0.7797 -0.1907
  179SOPE   C3120389   3.143   2.874   7.135  0.4601 -1.4832 -0.4397
  179SOPE   O3220390   3.043   2.869   7.069  0.4047  0.0619  0.2688
  179SOPE   C3220391   3.147   2.891   7.284 -0.5206 -0.0350 -0.3473
  179SOPE   H2X20392   3.252   2.919   7.307 -0.7053  0.7317 -0.4141
  179SOPE   H2Y20393   3.125   2.792   7.330 -0.6537  0.4882  0.7203
  179SOPE   C2320394   3.481   3.334   7.194 -0.4053  0.3839  0.9918
  179SOPE   H3R20395   3.505   3.244   7.256  1.0922  0.1740  0.1457
  179SOPE   H3S20396   3.385   3.365   7.240 -1.0291  0.8801 -0.5862
  179SOPE   C2420397   3.605   3.428   7.185 -0.0447  1.0057  0.0785
  179SOPE   H4R20398   3.684   3.397   7.113 -0.5857  0.2651 -0.2161
  179SOPE   H4S20399   3.575   3.532   7.161 -1.7535  0.4725 -0.2425
  179SOPE   C2520400   3.657   3.442   7.327  0.3467  0.4362  0.3504
  179SOPE   H5R20401   3.725   3.356   7.345  0.8085  0.2927 -1.8122
  179SOPE   H5S20402   3.724   3.530   7.338 -1.4144  1.9183 -0.2334
  179SOPE   C2620403   3.557   3.468   7.442  0.3545 -0.3641  0.7308
  179SOPE   H6R20404   3.477   3.539   7.412  0.9179  0.4640  1.1417
  179SOPE   H6S20405   3.502   3.376   7.471 -1.8123  0.5954 -0.1245
  179SOPE   C2720406   3.623   3.511   7.572 -0.5306  0.1149  0.3659
  179SOPE   H7R20407   3.701   3.438   7.603  1.1195  1.6835  0.1600
  179SOPE   H7S20408   3.680   3.606   7.561 -0.7801  0.0752 -1.6637
  179SOPE   C2820409   3.529   3.529   7.690  0.0378  0.0349 -0.2262
  179SOPE   H8R20410   3.584   3.579   7.773  0.4457  0.1738 -0.5719
  179SOPE   H8S20411   3.435   3.572   7.648 -0.6527 -2.6376 -1.6006
  179SOPE   C2920412   3.489   3.392   7.746  0.2619  0.3168 -0.3855
  179SOPE   H9120413   3.478   3.308   7.676  0.9717 -0.3530  0.2899
  179SOPE  C21020414   3.467   3.360   7.878 -0.0309 -0.3248 -0.3117
  179SOPE  H10120415   3.423   3.260   7.892  0.3356 -0.6783 -1.5839
  179SOPE  C21120416   3.475   3.452   8.000 -0.1578 -0.1459 -0.2767
  179SOPE  H11R20417   3.497   3.556   7.966 -0.3993  0.2068  0.6317
  179SOPE  H11S20418   3.561   3.415   8.060 -1.2571  1.0269  2.1590
  179SOPE  C21220419   3.338   3.460   8.070  0.1642  0.3728  0.0851
  179SOPE  H12R20420   3.291   3.360   8.082  0.1410  0.6999  3.7125
  179SOPE  H12S20421   3.273   3.528   8.011 -0.6104 -0.2131  0.2330
  179SOPE  C21320422   3.349   3.500   8.218 -0.4195  0.4995  0.0822
  179SOPE  H13R20423   3.400   3.598   8.230 -1.1250  0.7330  1.3622
  179SOPE  H13S20424   3.416   3.423   8.261  0.5078  0.5614 -1.2168
  179SOPE  C21420425   3.207   3.508   8.281  1.3471  0.1295  0.7475
  179SOPE  H14R20426   3.188   3.400   8.297 -3.1280  1.0120  2.7397
  179SOPE  H14S20427   3.146   3.560   8.204 -1.2075 -0.9459  1.9473
  179SOPE  C21520428   3.205   3.568   8.424 -0.0906  0.8237 -0.0695
  179SOPE  H15R20429   3.104   3.609   8.445  0.1655  1.0439  0.7430
  179SOPE  H15S20430   3.278   3.651   8.429  0.7581  0.0690  0.4010
  179SOPE  C21620431   3.244   3.462   8.530 -0.0013  0.0496  0.0754
  179SOPE  H16R20432   3.241   3.353   8.508  1.4573 -0.2024  0.9825
  179SOPE  H16S20433   3.164   3.456   8.606 -2.1465 -2.8932 -2.1589
  179SOPE  C21720434   3.373   3.502   8.605  0.1271  0.8768 -0.9236
  179SOPE  H17R20435   3.452   3.501   8.527  1.0068 -0.5727 -0.0556
  179SOPE  H17S20436   3.397   3.413   8.667 -1.3496 -0.2544 -1.9265
  179SOPE  C21820437   3.366   3.635   8.684 -0.4332 -0.2829 -0.0513
  179SOPE  H18R20438   3.368   3.714   8.606 -0.0815 -0.1891  0.0512
  179SOPE  H18S20439   3.460   3.652   8.740  1.3819  0.0493 -2.9948
  179SOPE  H18T20440   3.288   3.650   8.762  0.6983  1.1674  0.8524
  179SOPE   C3320441   3.062   3.001   7.346  0.3628  0.2043 -0.3667
  179SOPE   H3X20442   2.959   2.996   7.302  0.5466  0.5811 -0.8516
  179SOPE   H3Y20443   3.101   3.103   7.325  0.7717 -0.2470 -1.9686
  179SOPE   C3420444   3.046   3.011   7.504  0.0293  0.4166  1.0116
  179SOPE   H4X20445   2.984   2.924   7.533  0.7478 -0.7310 -0.7118
  179SOPE   H4Y20446   2.976   3.094   7.527 -1.8181  1.0146 -5.0333
  179SOPE   C3520447   3.176   3.002   7.582  0.3484 -0.3147  0.3103
  179SOPE   H5X20448   3.255   3.079   7.570  0.6465 -0.8011 -1.0407
  179SOPE   H5Y20449   3.221   2.908   7.543  3.4538  1.8870 -1.8992
  179SOPE   C3620450   3.161   2.972   7.734 -0.4683  0.2032 -0.1690
  179SOPE   H6X20451   3.265   2.964   7.772 -0.6901 -1.2829  0.2081
  179SOPE   H6Y20452   3.109   2.878   7.765  0.3518 -0.1314  0.2257
  179SOPE   C3720453   3.103   3.095   7.807  0.0009  0.4534 -0.0607
  179SOPE   H7X20454   2.992   3.101   7.796 -0.0623  0.5532  0.6238
  179SOPE   H7Y20455   3.138   3.186   7.754 -0.3058 -0.8471 -2.7028
  179SOPE   C3820456   3.132   3.121   7.956 -0.0732 -0.4395  0.0239
  179SOPE   H8X20457   3.078   3.210   7.994  1.0628 -0.4415  1.7221
  179SOPE   H8Y20458   3.240   3.144   7.969 -0.4865  0.2659  2.9516
  179SOPE   C3920459   3.101   2.995   8.034  0.7516 -0.2864  0.2038
  179SOPE   H9X20460   3.167   2.917   7.991  0.8551  0.6628 -1.4559
  179SOPE   H9Y20461   2.993   2.973   8.017  0.7030 -0.5077  0.7771
  179SOPE  C31020462   3.110   3.003   8.185 -0.4632 -0.8036 -0.1494
  179SOPE  H10X20463   3.067   3.096   8.228  0.3836 -0.3233 -0.3225
  179SOPE  H10Y20464   3.218   3.007   8.214 -0.4520  0.8555 -0.3428
  179SOPE  C31120465   3.039   2.887   8.257  0.5380  0.3137  0.6833
  179SOPE  H11X20466   3.055   2.790   8.205 -1.4075  0.8090 -0.9632
  179SOPE  H11Y20467   2.930   2.904   8.255  0.4365  0.0805  2.5155
  179SOPE  C31220468   3.097   2.872   8.395  0.3121  0.0280 -0.5014
  179SOPE  H12X20469   3.206   2.851   8.390  0.6184  1.7218 -1.6137
  179SOPE  H12Y20470   3.047   2.785   8.444  0.8169 -1.4597 -2.4761
  179SOPE  C31320471   3.089   3.001   8.479  0.2320  0.4043 -0.6394
  179SOPE  H13X20472   2.996   3.061   8.465  0.3946  0.3974 -1.8759
  179SOPE  H13Y20473   3.167   3.071   8.441  0.8748 -1.1383 -2.3103
  179SOPE  C31420474   3.124   2.969   8.629 -0.2724 -0.2416 -0.7353
  179SOPE  H14X20475   3.226   2.926   8.642  0.8570  2.7096  1.1943
  179SOPE  H14Y20476   3.054   2.890   8.664  0.2044 -0.9173 -1.2854
  179SOPE  C31520477   3.118   3.092   8.722 -0.4803 -0.2048 -0.9225
  179SOPE  H15X20478   3.021   3.142   8.700  0.0326  1.3131  0.0881
  179SOPE  H15Y20479   3.196   3.164   8.691  0.3111 -0.7616 -0.2685
  179SOPE  C31620480   3.129   3.046   8.869  0.7303 -1.0843 -0.5808
  179SOPE  H16X20481   3.178   3.126   8.928  1.0131 -2.5088  1.2041
  179SOPE  H16Y20482   3.195   2.957   8.875  1.4493 -0.5237 -0.0969
  179SOPE  C31720483   2.989   3.006   8.937  0.0701 -0.2608  0.7426
  179SOPE  H17X20484   2.953   2.925   8.870  1.5730 -1.5353  1.4093
  179SOPE  H17Y20485   2.921   3.093   8.927  0.3314 -0.1319  0.0120
  179SOPE  C31820486   2.994   2.977   9.083 -0.0018  0.3912 -0.2411
  179SOPE  H18X20487   2.896   2.964   9.135  0.0497 -1.9740 -0.6256
  179SOPE  H18Y20488   3.046   3.056   9.141 -0.6800  1.4448 -1.0176
  179SOPE  H18Z20489   3.050   2.885   9.107 -2.6163 -1.1748  0.2994
  180SOPE     N20490   2.668   2.069   6.383  0.3358  0.0554  0.1854
  180SOPE   HN120491   2.630   2.154   6.336 -1.2567 -2.0719 -2.6021
  180SOPE   HN220492   2.640   2.075   6.483  1.1791  0.0886  0.4343
  180SOPE   HN320493   2.772   2.071   6.377  0.4387 -2.0663  0.4560
  180SOPE   C1220494   2.607   1.944   6.327  0.2075  0.0623  0.1686
  180SOPE  H12A20495   2.656   1.854   6.370 -1.1047 -1.0892 -0.6291
  180SOPE  H12B20496   2.632   1.943   6.219  1.9862  1.4057  0.5320
  180SOPE   C1120497   2.449   1.937   6.323 -0.2288  0.3092 -0.2263
  180SOPE  H11A20498   2.420   1.898   6.423 -1.8552 -0.4995 -0.9728
  180SOPE  H11B20499   2.422   1.865   6.243 -0.2959 -0.8184  0.7724
  180SOPE     P20500   2.259   2.127   6.353 -0.4812 -0.1240 -0.1475
  180SOPE   O1320501   2.135   2.063   6.317 -0.0468  0.1427 -0.0181
  180SOPE   O1420502   2.272   2.273   6.327  0.0340 -0.1783 -0.2703
  180SOPE   O1220503   2.380   2.057   6.292 -0.3373  0.1214 -0.6082
  180SOPE   O1120504   2.288   2.113   6.513  0.1360  0.0050 -0.5225
  180SOPE    C120505   2.210   2.013   6.579  0.1040 -0.2893  0.0814
  180SOPE    HA20506   2.210   1.923   6.513  0.7598  0.6704 -1.2904
  180SOPE    HB20507   2.105   2.045   6.593  0.5895  1.5330 -0.1120
  180SOPE    C220508   2.288   1.980   6.702  0.4594 -0.5760 -0.4527
  180SOPE    HS20509   2.393   1.988   6.668  0.5315 -1.9991 -0.5883
  180SOPE   O2120510   2.247   1.852   6.742 -0.2890  0.1538 -0.1823
  180SOPE   C2120511   2.354   1.778   6.786  0.2362  0.0803 -0.4081
  180SOPE   O2220512   2.466   1.826   6.797 -0.4121  0.1364  0.0578
  180SOPE   C2220513   2.312   1.630   6.815 -0.1910  0.8073  0.2964
  180SOPE   H2R20514   2.285   1.578   6.721  1.3738 -0.1441  0.3366
  180SOPE   H2S20515   2.234   1.645   6.893  1.8630  0.9041  2.4591
  180SOPE    C320516   2.267   2.086   6.818 -0.0756 -0.1964  0.5570
  180SOPE    HX20517   2.159   2.076   6.842 -0.3149 -0.4860 -0.5679
  180SOPE    HY20518   2.283   2.189   6.781 -0.2507 -0.6253 -0.7748
  180SOPE   O3120519   2.353   2.061   6.929  0.0505 -0.2616 -0.1270
  180SOPE   C3120520   2.477   2.126   6.931  0.7551  0.3601  0.0770
  180SOPE   O3220521   2.501   2.212   6.852 -0.2014 -0.3609 -0.7962
  180SOPE   C3220522   2.555   2.077   7.050  0.6079 -0.4592  0.3881
  180SOPE   H2X20523   2.651   2.135   7.046  0.2985  0.0034 -1.9214
  180SOPE   H2Y20524   2.587   1.976   7.017 -0.5573 -1.2775  1.6786
  180SOPE   C2320525   2.433   1.550   6.874  0.0245 -0.4998  0.1624
  180SOPE   H3R20526   2.468   1.609   6.961  0.4915  0.4554 -0.6420
  180SOPE   H3S20527   2.517   1.532   6.803  0.2970  2.7171 -0.5031
  180SOPE   C2420528   2.388   1.411   6.907  0.2676  1.0236 -0.5170
  180SOPE   H4R20529   2.342   1.383   6.810 -1.8146  1.6672  0.2234
  180SOPE   H4S20530   2.471   1.339   6.918 -0.3512 -0.0696 -2.5548
  180SOPE   C2520531   2.289   1.404   7.028  0.0960 -0.0696 -0.1036
  180SOPE   H5R20532   2.258   1.508   7.052  1.7830  0.7234 -1.1914
  180SOPE   H5S20533   2.199   1.354   6.985 -0.5973  1.0716 -0.0176
  180SOPE   C2620534   2.338   1.326   7.151 -0.6112 -0.1840 -0.1591
  180SOPE   H6R20535   2.340   1.219   7.121 -1.0893  0.0820 -1.2175
  180SOPE   H6S20536   2.442   1.360   7.166 -0.3755 -0.9894  0.0488
  180SOPE   C2720537   2.245   1.340   7.265 -0.2644 -0.2771  0.2052
  180SOPE   H7R20538   2.223   1.448   7.280  0.7549 -0.0352 -0.0032
  180SOPE   H7S20539   2.155   1.282   7.236 -1.4797  1.1466  0.9684
  180SOPE   C2820540   2.301   1.272   7.389  0.6806 -0.1788 -0.1713
  180SOPE   H8R20541   2.216   1.261   7.460  1.2407 -1.7867  0.2907
  180SOPE   H8S20542   2.331   1.169   7.365  1.5199 -0.1631  0.7285
  180SOPE   C2920543   2.419   1.332   7.456 -0.8756 -0.3853 -0.4048
  180SOPE   H9120544   2.510   1.318   7.396 -0.1436 -0.5507  0.7098
  180SOPE  C21020545   2.419   1.415   7.565  0.1665  0.1184 -0.2424
  180SOPE  H10120546   2.511   1.431   7.623  0.2543 -0.2799 -0.2734
  180SOPE  C21120547   2.293   1.461   7.636 -0.7650 -0.3280 -0.7335
  180SOPE  H11R20548   2.198   1.450   7.580 -0.6089  0.0326 -1.0737
  180SOPE  H11S20549   2.306   1.570   7.656  0.1440  0.1107 -3.3382
  180SOPE  C21220550   2.250   1.391   7.773  0.8145 -0.5838  0.4112
  180SOPE  H12R20551   2.229   1.283   7.762 -0.4228 -0.1369 -2.5655
  180SOPE  H12S20552   2.152   1.436   7.801  0.3950 -0.5179 -1.1079
  180SOPE  C21320553   2.354   1.416   7.888  0.1004 -0.3486  0.7164
  180SOPE  H13R20554   2.380   1.523   7.900 -0.0354  0.2341 -3.1292
  180SOPE  H13S20555   2.449   1.369   7.855  0.8538  1.0620  0.8094
  180SOPE  C21420556   2.314   1.350   8.021  0.5295  0.9680 -0.4614
  180SOPE  H14R20557   2.277   1.247   8.000  1.1498  0.4662  0.8090
  180SOPE  H14S20558   2.226   1.390   8.077 -0.3721 -3.1690  1.4670
  180SOPE  C21520559   2.435   1.341   8.118 -0.2562 -0.5041 -0.0456
  180SOPE  H15R20560   2.453   1.447   8.149  0.7506 -0.7107  0.1145
  180SOPE  H15S20561   2.519   1.298   8.059  1.0747 -1.3341  2.3032
  180SOPE  C21620562   2.396   1.251   8.243 -0.2110  0.1657  0.1219
  180SOPE  H16R20563   2.486   1.264   8.308  0.0069 -0.1724 -0.1096
  180SOPE  H16S20564   2.387   1.144   8.215 -1.4486  0.7529 -1.8977
  180SOPE  C21720565   2.266   1.299   8.318 -0.3186 -0.0017 -0.1690
  180SOPE  H17R20566   2.257   1.241   8.413  1.4422 -0.4839 -0.2620
  180SOPE  H17S20567   2.176   1.263   8.263  0.1440 -0.7345 -0.4558
  180SOPE  C21820568   2.263   1.446   8.350 -0.2642  0.6766  0.2382
  180SOPE  H18R20569   2.346   1.484   8.413 -2.2743  2.1098  2.1799
  180SOPE  H18S20570   2.182   1.474   8.420 -1.2367  1.0342 -0.9870
  180SOPE  H18T20571   2.264   1.503   8.254  0.7387  0.7439  0.2842
  180SOPE   C3320572   2.489   2.057   7.187 -0.2814  0.1920 -0.4953
  180SOPE   H3X20573   2.382   2.033   7.170 -0.2758  0.7722 -1.4509
  180SOPE   H3Y20574   2.495   2.152   7.244 -2.0411  0.6860 -1.0789
  180SOPE   C3420575   2.559   1.952   7.274  0.9526  0.2478 -0.2133
  180SOPE   H4X20576   2.669   1.959   7.269  1.2535 -2.4888  0.9564
  180SOPE   H4Y20577   2.528   1.856   7.228 -1.6240  0.4806  0.8329
  180SOPE   C3520578   2.500   1.968   7.412  0.0759 -0.3398  0.2739
  180SOPE   H5X20579   2.389   1.976   7.406 -0.2139 -0.4112  3.7245
  180SOPE   H5Y20580   2.531   2.062   7.462  3.6727 -1.8011  1.0360
  180SOPE   C3620581   2.546   1.844   7.496  0.2264 -0.5436 -0.1470
  180SOPE   H6X20582   2.655   1.853   7.517  0.0200  0.6594  0.5267
  180SOPE   H6Y20583   2.531   1.756   7.430 -0.0028 -0.8149  0.2626
  180SOPE   C3720584   2.474   1.803   7.623 -0.2086 -0.2305 -0.5955
  180SOPE   H7X20585   2.487   1.695   7.644  0.4313  0.1993  1.4372
  180SOPE   H7Y20586   2.366   1.827   7.610 -0.0068  2.7361  1.9331
  180SOPE   C3820587   2.511   1.897   7.740  0.5104 -0.3353 -0.6497
  180SOPE   H8X20588   2.511   2.003   7.706 -0.1001 -0.1088  0.0258
  180SOPE   H8Y20589   2.614   1.871   7.774 -0.1326 -0.8484  1.0109
  180SOPE   C3920590   2.411   1.892   7.856 -0.0607 -0.7212  0.8255
  180SOPE   H9X20591   2.391   1.786   7.881  0.4223 -0.9531  0.2562
  180SOPE   H9Y20592   2.314   1.918   7.808 -0.0207 -1.5013  0.2966
  180SOPE  C31020593   2.444   1.963   7.986 -0.2986  0.1014 -0.5091
  180SOPE  H10X20594   2.460   2.073   7.977  1.3113  0.0376  1.0104
  180SOPE  H10Y20595   2.536   1.908   8.015 -0.9932 -1.6720 -1.5610
  180SOPE  C31120596   2.330   1.945   8.082  0.4206 -0.1373 -0.3116
  180SOPE  H11X20597   2.315   1.836   8.101 -1.4329 -0.0032 -0.8233
  180SOPE  H11Y20598   2.237   1.973   8.029  0.0838  0.5036  0.5850
  180SOPE  C31220599   2.347   2.014   8.211 -0.2153 -0.5939  0.4015
  180SOPE  H12X20600   2.361   2.121   8.185  0.1899 -0.7998 -0.2456
  180SOPE  H12Y20601   2.436   1.984   8.270 -0.2285 -0.2292  0.6111
  180SOPE  C31320602   2.217   1.991   8.299 -0.0178  0.2464 -0.0395
  180SOPE  H13X20603   2.128   2.001   8.234  1.0350 -2.7682 -2.1747
  180SOPE  H13Y20604   2.215   2.080   8.365  0.8625  2.1177 -2.3924
  180SOPE  C31420605   2.220   1.856   8.369  0.5310  0.7406 -0.4345
  180SOPE  H14X20606   2.326   1.836   8.395  0.0964 -2.2723 -0.6501
  180SOPE  H14Y20607   2.193   1.777   8.295 -1.9302 -0.0328  1.1798
  180SOPE  C31520608   2.130   1.859   8.492 -0.3794 -0.1220 -0.7567
  180SOPE  H15X20609   2.025   1.875   8.460 -0.2477  1.2785 -0.5441
  180SOPE  H15Y20610   2.162   1.949   8.548 -1.3341 -0.3140  0.1246
  180SOPE  C31620611   2.142   1.726   8.574  0.5688  0.1040 -0.0386
  180SOPE  H16X20612   2.249   1.714   8.599  0.6781  0.9249 -0.0794
  180SOPE  H16Y20613   2.111   1.644   8.506  1.0814 -0.2045  0.0905
  180SOPE  C31720614   2.071   1.734   8.710 -0.6643  0.0177  0.0408
  180SOPE  H17X20615   1.974   1.787   8.706 -1.8972 -1.9322  1.9525
  180SOPE  H17Y20616   2.136   1.798   8.773 -1.8924  0.3885  0.9742
  180SOPE  C31820617   2.055   1.603   8.786  0.4253 -0.0769 -0.4378
  180SOPE  H18X20618   1.996   1.641   8.872  1.2205  1.1634 -0.4074
  180SOPE  H18Y20619   2.149   1.547   8.807  2.3333  2.3715 -2.0010
  180SOPE  H18Z20620   1.992   1.536   8.724  0.1943 -0.3481  0.0819
  181SOPE     N20621   5.720   0.992   6.017 -0.4159  0.3815  0.4066
  181SOPE   HN120622   5.656   1.064   5.976 -0.8638 -0.2519 -0.0168
  181SOPE   HN220623   5.759   0.931   5.943  2.8450  2.8640 -0.1184
  181SOPE   HN320624   5.663   0.931   6.079 -1.2385  3.3092  2.8365
  181SOPE   C1220625   5.830   1.074   6.081 -0.6792 -0.1348 -0.2646
  181SOPE  H12A20626   5.782   1.149   6.146  0.9855  0.0037  0.8506
  181SOPE  H12B20627   5.881   1.117   5.992  1.0390  1.1817  1.3055
  181SOPE   C1120628   5.925   0.984   6.161  1.0213  0.7558 -0.0990
  181SOPE  H11A20629   5.863   0.941   6.242 -2.1049  2.6686 -1.3040
  181SOPE  H11B20630   6.000   1.047   6.214 -0.8420  1.5668  1.6950
  181SOPE     P20631   6.132   0.907   6.021  0.2693 -0.3358 -0.4354
  181SOPE   O1320632   6.130   1.030   5.938 -0.4819 -0.2321 -0.5981
  181SOPE   O1420633   6.183   0.780   5.962 -0.0710 -0.2809 -0.2567
  181SOPE   O1220634   5.985   0.883   6.076  0.9693 -0.4113 -0.6693
  181SOPE   O1120635   6.209   0.938   6.154 -0.0629  0.2861  0.5580
  181SOPE    C120636   6.309   0.860   6.212 -0.7577  0.0908  0.7856
  181SOPE    HA20637   6.409   0.907   6.210 -0.3303 -0.6669 -2.9903
  181SOPE    HB20638   6.323   0.769   6.150 -3.7869 -0.6262  0.9765
  181SOPE    C220639   6.282   0.811   6.362  0.2277  0.3980 -0.0402
  181SOPE    HS20640   6.210   0.726   6.362  0.9535 -0.2398 -1.3325
  181SOPE   O2120641   6.233   0.919   6.434  0.0027 -0.6184 -0.4060
  181SOPE   C2120642   6.147   0.890   6.532 -0.5797  0.4729  0.4430
  181SOPE   O2220643   6.110   0.779   6.562 -0.0272  0.3369  0.0893
  181SOPE   C2220644   6.102   1.016   6.603 -0.3685 -0.1595  0.6542
  181SOPE   H2R20645   6.029   1.062   6.534  1.6893 -0.3915 -1.8329
  181SOPE   H2S20646   6.193   1.078   6.622  0.1076 -1.2334  2.1368
  181SOPE    C320647   6.416   0.765   6.429 -0.1760 -0.5344 -0.1702
  181SOPE    HX20648   6.473   0.856   6.401 -0.5122  0.1839  1.3369
  181SOPE    HY20649   6.455   0.678   6.372  0.0058 -0.9300  0.5397
  181SOPE   O3120650   6.410   0.752   6.574 -0.4830 -0.6022  0.2271
  181SOPE   C3120651   6.516   0.695   6.626 -0.6089 -0.3235  0.4223
  181SOPE   O3220652   6.610   0.646   6.565 -0.3932  0.2762  0.0955
  181SOPE   C3220653   6.524   0.709   6.776  0.1685 -0.3067  0.0193
  181SOPE   H2X20654   6.429   0.752   6.814  0.0711 -0.9768  0.5497
  181SOPE   H2Y20655   6.605   0.782   6.796  0.3847 -0.1697 -1.2811
  181SOPE   C2320656   6.046   0.978   6.744 -0.1365  0.3382 -0.6091
  181SOPE   H3R20657   5.958   0.913   6.722 -0.7199  1.0947 -0.5698
  181SOPE   H3S20658   6.003   1.065   6.798 -0.4162 -0.8738  1.2117
  181SOPE   C2420659   6.153   0.913   6.833  0.1022 -0.3378  0.5276
  181SOPE   H4R20660   6.197   0.818   6.797  0.8398 -0.6014  2.0203
  181SOPE   H4S20661   6.241   0.977   6.857  2.4577 -2.5380 -1.6497
  181SOPE   C2520662   6.094   0.870   6.962 -0.0479 -0.2972 -0.0893
  181SOPE   H5R20663   6.070   0.956   7.028  0.8671 -0.7895  0.9103
  181SOPE   H5S20664   6.005   0.808   6.938 -0.1308  0.4980 -2.0169
  181SOPE   C2620665   6.185   0.773   7.048 -0.7349  0.4593 -0.3746
  181SOPE   H6R20666   6.216   0.682   6.992 -1.9190 -0.7417  0.8624
  181SOPE   H6S20667   6.283   0.819   7.073 -1.5149  1.7198  0.4059
  181SOPE   C2720668   6.102   0.724   7.173  0.4319  0.1793 -0.1549
  181SOPE   H7R20669   6.022   0.670   7.119  0.3855 -0.8595  0.9232
  181SOPE   H7S20670   6.169   0.647   7.218  1.6998  0.2416 -1.8354
  181SOPE   C2820671   6.036   0.826   7.263 -0.1733 -0.2646 -0.3189
  181SOPE   H8R20672   6.121   0.887   7.301 -1.0464  0.4539  0.5382
  181SOPE   H8S20673   5.962   0.886   7.206 -1.5009 -0.9412  0.6471
  181SOPE   C2920674   5.964   0.760   7.378  0.1168 -0.1659 -0.8927
  181SOPE   H9120675   5.869   0.717   7.346 -0.2167  0.7707 -1.1980
  181SOPE  C21020676   6.004   0.737   7.503 -0.3171  0.2800 -0.1217
  181SOPE  H10120677   5.934   0.694   7.576 -0.7874  0.7170 -0.3082
  181SOPE  C21120678   6.144   0.769   7.560 -0.0819  0.7327  0.1901
  181SOPE  H11R20679   6.181   0.865   7.517 -2.0319  0.5468 -2.0892
  181SOPE  H11S20680   6.207   0.682   7.534 -1.0941  0.3430 -1.0469
  181SOPE  C21220681   6.146   0.784   7.713 -0.0545  0.3010  0.1400
  181SOPE  H12R20682   6.066   0.855   7.742 -1.1760 -0.5937 -0.6822
  181SOPE  H12S20683   6.242   0.827   7.750  0.8381 -0.2734 -1.4273
  181SOPE  C21320684   6.119   0.658   7.784  0.0405  0.1829 -0.6726
  181SOPE  H13R20685   6.202   0.591   7.756 -1.3887 -1.8035 -0.3820
  181SOPE  H13S20686   6.024   0.608   7.753  2.0608 -3.3926 -1.6339
  181SOPE  C21420687   6.111   0.680   7.942 -0.5181 -0.5974 -0.0437
  181SOPE  H14R20688   6.023   0.737   7.979 -1.0441 -0.7352 -1.0666
  181SOPE  H14S20689   6.198   0.739   7.978 -1.0370 -0.0796  0.3649
  181SOPE  C21520690   6.114   0.546   8.005 -0.4796  0.6799 -0.5093
  181SOPE  H15R20691   6.211   0.492   8.011 -0.4487  0.7279 -0.5758
  181SOPE  H15S20692   6.055   0.480   7.939  2.6610 -1.5216 -1.3443
  181SOPE  C21620693   6.048   0.538   8.143  0.0596  0.1310  0.2911
  181SOPE  H16R20694   5.946   0.583   8.148  0.1956  0.4016  0.7847
  181SOPE  H16S20695   6.110   0.587   8.221 -2.0724  2.5448  0.6078
  181SOPE  C21720696   6.030   0.389   8.177 -0.2164 -0.4392 -0.1389
  181SOPE  H17R20697   6.123   0.330   8.166  1.2327  1.8762 -1.0825
  181SOPE  H17S20698   5.958   0.349   8.102 -1.9010  0.5113  0.9086
  181SOPE  C21820699   5.966   0.367   8.311 -0.2166 -0.0276  0.2638
  181SOPE  H18R20700   5.975   0.260   8.338 -0.8990  0.3896  2.3051
  181SOPE  H18S20701   5.858   0.390   8.301  0.0899  1.2212 -0.5882
  181SOPE  H18T20702   5.999   0.415   8.406 -0.2816  1.0938 -0.2570
  181SOPE   C3320703   6.555   0.568   6.837  0.2984 -0.2376 -0.5355
  181SOPE   H3X20704   6.661   0.537   6.818  0.7790  0.5471  0.7777
  181SOPE   H3Y20705   6.497   0.489   6.785  0.4568  0.3480 -1.6318
  181SOPE   C3420706   6.513   0.552   6.981 -0.0600 -0.0101 -0.1822
  181SOPE   H4X20707   6.521   0.442   6.998 -0.8477  0.0539  0.7392
  181SOPE   H4Y20708   6.406   0.575   7.000 -0.2243 -0.2562 -0.7988
  181SOPE   C3520709   6.592   0.622   7.086  0.2873 -0.5637  0.4683
  181SOPE   H5X20710   6.591   0.732   7.072  0.4687 -0.6277 -0.0787
  181SOPE   H5Y20711   6.700   0.593   7.090  0.0915 -1.2963  0.5941
  181SOPE   C3620712   6.540   0.624   7.227 -0.2686  0.5311 -0.5033
  181SOPE   H6X20713   6.441   0.672   7.234 -0.4224 -0.0144  1.7892
  181SOPE   H6Y20714   6.605   0.695   7.283 -0.6626 -0.7779  1.7371
  181SOPE   C3720715   6.543   0.485   7.292 -0.0147 -0.0637 -0.0732
  181SOPE   H7X20716   6.499   0.405   7.229 -0.6520 -1.4441  2.0305
  181SOPE   H7Y20717   6.478   0.500   7.381 -0.0399  0.3877 -0.1639
  181SOPE   C3820718   6.686   0.452   7.345 -0.1519  1.3692  0.1388
  181SOPE   H8X20719   6.708   0.536   7.414  0.3592 -1.4161  3.6051
  181SOPE   H8Y20720   6.757   0.449   7.260 -0.7345  0.3863 -0.3314
  181SOPE   C3920721   6.682   0.320   7.428  0.0095  0.3881  0.5094
  181SOPE   H9X20722   6.783   0.287   7.459 -0.5591 -1.4902  0.4599
  181SOPE   H9Y20723   6.647   0.244   7.355  1.0487  0.1502  0.2446
  181SOPE  C31020724   6.593   0.322   7.559 -0.1869 -0.2081  0.6607
  181SOPE  H10X20725   6.536   0.227   7.565 -0.3302 -0.6353 -3.7453
  181SOPE  H10Y20726   6.522   0.407   7.550 -0.1111 -0.2899 -1.0670
  181SOPE  C31120727   6.688   0.333   7.671  0.3224 -0.1781 -0.5206
  181SOPE  H11X20728   6.729   0.436   7.676  1.0208 -0.4338 -0.7555
  181SOPE  H11Y20729   6.771   0.260   7.661  0.7311  0.3525 -1.0681
  181SOPE  C31220730   6.618   0.306   7.805  0.9729  0.0601  0.6362
  181SOPE  H12X20731   6.608   0.195   7.806  0.6483  0.0897  0.7228
  181SOPE  H12Y20732   6.516   0.349   7.804  1.0260  0.2113  1.3222
  181SOPE  C31320733   6.704   0.358   7.919  0.1757  0.4141 -0.0611
  181SOPE  H13X20734   6.710   0.469   7.909  0.4933  0.3063 -1.1137
  181SOPE  H13Y20735   6.802   0.316   7.890 -0.2384  0.5389 -1.7255
  181SOPE  C31420736   6.673   0.309   8.067 -0.8279 -0.2130  0.1664
  181SOPE  H14X20737   6.764   0.328   8.127 -1.5617 -0.3759  1.3673
  181SOPE  H14Y20738   6.658   0.199   8.074 -2.2185  0.0615  2.2387
  181SOPE  C31520739   6.556   0.389   8.130 -0.0526  0.3349  0.4169
  181SOPE  H15X20740   6.467   0.388   8.064 -1.4824 -0.8666  2.2561
  181SOPE  H15Y20741   6.595   0.493   8.134  0.7826  0.0165  0.8096
  181SOPE  C31620742   6.516   0.342   8.276 -0.1911  0.7732  0.4230
  181SOPE  H16X20743   6.602   0.367   8.342  0.7694  0.7058 -0.7664
  181SOPE  H16Y20744   6.501   0.232   8.273 -1.0383  0.8883 -1.9015
  181SOPE  C31720745   6.393   0.410   8.329 -0.2661 -0.3907  1.2271
  181SOPE  H17X20746   6.321   0.421   8.245 -1.9401  1.2393  2.7927
  181SOPE  H17Y20747   6.402   0.518   8.355 -2.6445  0.8953 -2.3884
  181SOPE  C31820748   6.322   0.316   8.420  0.5325 -0.1392 -0.0053
  181SOPE  H18X20749   6.221   0.350   8.451  0.0034  0.8043 -2.5065
  181SOPE  H18Y20750   6.390   0.319   8.508 -0.3117 -1.9696  0.7562
  181SOPE  H18Z20751   6.318   0.211   8.386 -0.8088  0.1772 -0.9189
  182SOPE     N20752   2.074   2.461   6.218  0.1767 -0.0785 -0.4239
  182SOPE   HN120753   2.011   2.502   6.290 -1.6825 -2.5577 -0.4852
  182SOPE   HN220754   2.010   2.395   6.168 -0.6959  0.8102 -0.5082
  182SOPE   HN320755   2.158   2.417   6.261  0.5140  0.5434 -0.4401
  182SOPE   C1220756   2.120   2.580   6.128 -0.3194 -0.7577  0.1745
  182SOPE  H12A20757   2.048   2.659   6.157  1.5900  0.9926  0.3965
  182SOPE  H12B20758   2.119   2.533   6.028 -1.5754 -3.0876  1.1896
  182SOPE   C1120759   2.265   2.611   6.168  0.4092  0.2753  0.8019
  182SOPE  H11A20760   2.307   2.673   6.086 -0.6444  0.3361  0.2948
  182SOPE  H11B20761   2.329   2.520   6.179 -1.3178 -1.0882  0.1137
  182SOPE     P20762   2.255   2.848   6.285  0.3595  0.2207 -0.1889
  182SOPE   O1320763   2.149   2.888   6.191  0.2088  0.2250  0.3087
  182SOPE   O1420764   2.391   2.898   6.263 -0.2157  0.1579  0.0305
  182SOPE   O1220765   2.260   2.682   6.287 -0.1945 -0.3733  0.4863
  182SOPE   O1120766   2.220   2.898   6.435  0.3558  0.0502  0.1973
  182SOPE    C120767   2.165   2.806   6.530  0.7867  0.1485 -0.0410
  182SOPE    HA20768   2.229   2.715   6.533  0.0382 -0.4157 -0.7591
  182SOPE    HB20769   2.067   2.769   6.493  0.5412 -0.8332  1.4842
  182SOPE    C220770   2.154   2.861   6.668  0.6668 -0.5852 -1.0401
  182SOPE    HS20771   2.230   2.942   6.672 -0.9429  0.9573  1.3239
  182SOPE   O2120772   2.169   2.764   6.770 -0.0702 -0.0224  0.4657
  182SOPE   C2120773   2.255   2.781   6.875 -0.8601 -0.2206  0.8181
  182SOPE   O2220774   2.308   2.889   6.902  0.3049  0.3919 -0.3325
  182SOPE   C2220775   2.267   2.655   6.964  0.1606  0.5160  0.4567
  182SOPE   H2R20776   2.301   2.579   6.890  1.3790  1.6879 -0.2164
  182SOPE   H2S20777   2.168   2.633   7.008 -0.2773  1.4779 -0.0383
  182SOPE    C320778   2.015   2.938   6.698 -0.0610  0.3832  0.8564
  182SOPE    HX20779   1.937   2.864   6.669 -1.8317  2.2047  0.6722
  182SOPE    HY20780   2.007   3.020   6.624  0.0255 -1.9035 -1.8627
  182SOPE   O3120781   1.984   2.980   6.833  0.1107  0.0455  0.0658
  182SOPE   C3120782   2.053   3.089   6.871  0.5570 -0.2362  0.9702
  182SOPE   O3220783   2.111   3.164   6.787 -0.5569  0.1120  0.2684
  182SOPE   C3220784   2.057   3.094   7.022  0.0668  0.3963  0.8708
  182SOPE   H2X20785   2.129   3.011   7.037 -1.4394 -1.2244 -0.3328
  182SOPE   H2Y20786   1.963   3.059   7.069 -0.4391  0.7077  0.1141
  182SOPE   C2320787   2.373   2.683   7.066 -0.1865  0.1220 -0.0291
  182SOPE   H3R20788   2.338   2.764   7.135 -2.1312  0.7004 -1.5898
  182SOPE   H3S20789   2.469   2.698   7.012  0.2105  1.9212  1.0845
  182SOPE   C2420790   2.390   2.564   7.168 -0.6975 -0.7543 -0.1822
  182SOPE   H4R20791   2.292   2.536   7.212 -1.8427  1.7250 -0.9729
  182SOPE   H4S20792   2.411   2.471   7.111  2.9930 -1.4953  2.0371
  182SOPE   C2520793   2.490   2.588   7.286 -0.4929 -0.2916 -0.3076
  182SOPE   H5R20794   2.593   2.595   7.247 -0.9233  4.5558 -1.3019
  182SOPE   H5S20795   2.482   2.691   7.327  2.7735 -0.4027  0.8390
  182SOPE   C2620796   2.474   2.484   7.399  0.1281  1.3736 -0.8364
  182SOPE   H6R20797   2.369   2.502   7.430 -0.3446 -0.7215 -1.0730
  182SOPE   H6S20798   2.482   2.379   7.363 -2.3148  0.1125  1.9112
  182SOPE   C2720799   2.568   2.510   7.514  0.0120  0.5690  0.0610
  182SOPE   H7R20800   2.663   2.549   7.472  0.3598  0.9829  1.1907
  182SOPE   H7S20801   2.539   2.601   7.571  1.7166  0.3614  1.3771
  182SOPE   C2820802   2.593   2.392   7.613 -0.3419 -0.3505 -0.2650
  182SOPE   H8R20803   2.610   2.301   7.551  0.8371 -0.9591  0.8706
  182SOPE   H8S20804   2.689   2.416   7.665 -0.5688  1.5711 -0.6633
  182SOPE   C2920805   2.475   2.376   7.702  0.3610  0.2089  0.2454
  182SOPE   H9120806   2.394   2.315   7.660  1.2853 -1.4885  0.8193
  182SOPE  C21020807   2.466   2.410   7.832  0.1550  0.5471 -0.3410
  182SOPE  H10120808   2.367   2.397   7.879 -0.6808 -1.1635 -2.4221
  182SOPE  C21120809   2.568   2.471   7.917 -0.4022 -0.5463 -0.1478
  182SOPE  H11R20810   2.531   2.560   7.973 -1.6014 -0.3596 -1.1738
  182SOPE  H11S20811   2.651   2.515   7.857 -0.5264 -0.5313 -0.3091
  182SOPE  C21220812   2.623   2.367   8.015  0.0754  0.2260  0.1870
  182SOPE  H12R20813   2.655   2.277   7.957  1.2123  0.6618  0.1214
  182SOPE  H12S20814   2.540   2.334   8.081  1.3752 -1.6243  0.9886
  182SOPE  C21320815   2.739   2.436   8.093  0.1053 -0.7932  0.5716
  182SOPE  H13R20816   2.716   2.538   8.131 -3.1514 -1.4262  0.5314
  182SOPE  H13S20817   2.824   2.449   8.022  2.3443 -0.1117  3.1888
  182SOPE  C21420818   2.779   2.360   8.223 -0.0230  0.3875 -0.7259
  182SOPE  H14R20819   2.888   2.378   8.238 -0.0024 -1.1365  1.4692
  182SOPE  H14S20820   2.770   2.251   8.205  1.5530  0.0825  0.1394
  182SOPE  C21520821   2.705   2.408   8.346 -0.1113 -0.4632  0.2200
  182SOPE  H15R20822   2.597   2.393   8.325  0.2577 -2.9835 -0.1268
  182SOPE  H15S20823   2.702   2.519   8.353 -0.3614 -0.1019 -3.5253
  182SOPE  C21620824   2.748   2.350   8.476 -0.1257 -0.1250 -0.2777
  182SOPE  H16R20825   2.694   2.390   8.564  2.9103  0.8838  1.2733
  182SOPE  H16S20826   2.855   2.377   8.491  0.3570 -2.0651  0.0570
  182SOPE  C21720827   2.748   2.198   8.487  0.7227 -0.5772  0.3263
  182SOPE  H17R20828   2.753   2.173   8.596  1.0901 -0.3809  0.3564
  182SOPE  H17S20829   2.840   2.170   8.432 -0.0428  0.0064 -1.2888
  182SOPE  C21820830   2.620   2.131   8.435 -0.2359  0.0516 -0.6026
  182SOPE  H18R20831   2.542   2.154   8.510  0.2040  2.5590 -0.8128
  182SOPE  H18S20832   2.633   2.022   8.423  0.2131 -0.0721  0.8559
  182SOPE  H18T20833   2.586   2.163   8.334  1.5282 -2.1632 -1.9953
  182SOPE   C3320834   2.096   3.229   7.086  0.9377  0.0819 -0.0482
  182SOPE   H3X20835   2.018   3.307   7.071  1.4258  1.0136  1.9334
  182SOPE   H3Y20836   2.196   3.262   7.052  2.0981 -2.5967  0.5446
  182SOPE   C3420837   2.096   3.228   7.241 -0.0610 -0.4623 -0.4514
  182SOPE   H4X20838   1.993   3.227   7.282  0.2255 -0.5457  0.2829
  182SOPE   H4Y20839   2.124   3.331   7.273  0.9584 -1.2652  1.4119
  182SOPE   C3520840   2.193   3.124   7.291 -0.8027  0.2352  0.1938
  182SOPE   H5X20841   2.299   3.143   7.262 -0.4100  0.9295  1.9589
  182SOPE   H5Y20842   2.165   3.031   7.237 -2.9547  1.2724 -0.5720
  182SOPE   C3620843   2.198   3.094   7.440  0.4851  0.3828  0.3478
  182SOPE   H6X20844   2.244   2.995   7.460 -2.6623 -1.1018  0.8835
  182SOPE   H6Y20845   2.100   3.091   7.491  0.0681 -0.3169 -0.4749
  182SOPE   C3720846   2.288   3.195   7.516 -0.3663 -0.1872  0.6049
  182SOPE   H7X20847   2.238   3.289   7.484 -0.5863 -1.2258 -2.4051
  182SOPE   H7Y20848   2.387   3.202   7.468 -1.3491  1.2546 -1.3663
  182SOPE   C3820849   2.306   3.167   7.670  1.1243  0.9057 -0.2947
  182SOPE   H8X20850   2.353   3.067   7.681  0.2488  0.2358 -2.2471
  182SOPE   H8Y20851   2.208   3.172   7.723  0.9291  0.7302 -0.6389
  182SOPE   C3920852   2.380   3.286   7.737  0.8942  0.0567 -0.3390
  182SOPE   H9X20853   2.373   3.382   7.682 -1.9399  0.3756  0.3844
  182SOPE   H9Y20854   2.488   3.262   7.749  0.6260 -0.6453  0.7901
  182SOPE  C31020855   2.323   3.330   7.876 -0.6981 -0.0085  0.1918
  182SOPE  H10X20856   2.394   3.402   7.922 -2.4449  2.0283 -0.1752
  182SOPE  H10Y20857   2.316   3.235   7.934  1.0373  2.0124  4.0769
  182SOPE  C31120858   2.185   3.405   7.866 -0.3210 -0.2203 -0.1523
  182SOPE  H11X20859   2.104   3.332   7.844 -0.3091  0.4476 -2.8452
  182SOPE  H11Y20860   2.191   3.478   7.782 -0.8572  1.0355  0.8702
  182SOPE  C31220861   2.163   3.460   8.006 -1.0413 -0.1475 -0.2983
  182SOPE  H12X20862   2.252   3.509   8.051 -1.0970 -0.0978 -0.2407
  182SOPE  H12Y20863   2.146   3.375   8.075  2.3880 -0.7762 -0.0479
  182SOPE  C31320864   2.043   3.553   8.017 -0.7394  0.1406  0.2891
  182SOPE  H13X20865   1.955   3.499   7.976  0.1018 -0.0245 -1.3775
  182SOPE  H13Y20866   2.065   3.647   7.961  1.3726  0.0157  0.8102
  182SOPE  C31420867   2.018   3.583   8.164  0.0271 -0.2215 -0.6179
  182SOPE  H14X20868   2.074   3.673   8.197  1.0873 -1.1807  0.2855
  182SOPE  H14Y20869   2.067   3.498   8.216  1.0432 -1.3190 -3.2138
  182SOPE  C31520870   1.867   3.584   8.204 -0.1269 -0.4056  0.3211
  182SOPE  H15X20871   1.833   3.486   8.165  0.4329 -0.1655 -0.8290
  182SOPE  H15Y20872   1.822   3.666   8.145  0.5539  2.3988  3.4066
  182SOPE  C31620873   1.835   3.609   8.350 -0.8088  1.0742  0.8027
  182SOPE  H16X20874   1.893   3.699   8.379 -0.2912  0.9902  0.0495
  182SOPE  H16Y20875   1.867   3.518   8.404  1.1910  1.5872  0.5514
  182SOPE  C31720876   1.688   3.634   8.364 -0.0983 -1.2131 -0.0713
  182SOPE  H17X20877   1.633   3.555   8.308 -0.7474 -1.4766  0.9060
  182SOPE  H17Y20878   1.656   3.733   8.325 -0.9637 -0.2312  2.8982
  182SOPE  C31820879   1.650   3.643   8.510 -0.5534  0.0012  0.3174
  182SOPE  H18X20880   1.684   3.549   8.559  2.4861  1.5983  1.4976
  182SOPE  H18Y20881   1.543   3.665   8.529 -1.2477 -2.8538  0.2227
  182SOPE  H18Z20882   1.716   3.723   8.548 -1.2189  0.2215  1.0404
  183SOPE     N20883   4.351   5.892   6.179 -0.0737  0.3381 -0.1261
  183SOPE   HN120884   4.261   5.938   6.154 -1.6757 -1.2261  2.3546
  183SOPE   HN220885   4.417   5.921   6.104 -0.2544 -1.1431 -0.8910
  183SOPE   HN320886   4.337   5.790   6.162 -1.4612  0.9110 -2.9882
  183SOPE   C1220887   4.397   5.936   6.312 -0.5987  0.3575  0.6463
  183SOPE  H12A20888   4.462   6.023   6.288 -0.9405 -0.1259 -2.3656
  183SOPE  H12B20889   4.449   5.851   6.361  0.5173  1.9962  2.4367
  183SOPE   C1120890   4.283   5.989   6.403  1.0220 -0.0285  0.0701
  183SOPE  H11A20891   4.326   6.030   6.498 -1.3318  0.8469  0.8373
  183SOPE  H11B20892   4.216   5.908   6.438  1.6492  0.0988  1.6640
  183SOPE     P20893   4.229   6.238   6.343 -0.1963 -0.4912  0.0320
  183SOPE   O1320894   4.130   6.323   6.266 -0.1308  0.3094  0.0751
  183SOPE   O1420895   4.371   6.271   6.312  0.3980  0.1990 -0.6362
  183SOPE   O1220896   4.207   6.083   6.332  0.9349 -0.0983 -0.1033
  183SOPE   O1120897   4.202   6.257   6.497 -0.8850 -0.1508 -0.0460
  183SOPE    C120898   4.081   6.207   6.556 -0.6741  0.6091 -0.0225
  183SOPE    HA20899   4.084   6.097   6.542 -0.1477  0.6094  0.0451
  183SOPE    HB20900   4.002   6.264   6.502 -0.2247  1.1906 -0.0816
  183SOPE    C220901   4.085   6.242   6.709 -0.1520  0.5210  0.2376
  183SOPE    HS20902   4.102   6.352   6.716 -0.3397  0.5415  0.3988
  183SOPE   O2120903   4.185   6.158   6.761  0.0947 -0.3715  0.0270
  183SOPE   C2120904   4.290   6.215   6.820 -0.1160  0.5214 -0.7768
  183SOPE   O2220905   4.317   6.331   6.828 -0.0320 -0.3380  0.2768
  183SOPE   C2220906   4.385   6.095   6.856 -0.0123 -0.4999  0.0571
  183SOPE   H2R20907   4.466   6.107   6.781  1.4071  3.4031  1.9443
  183SOPE   H2S20908   4.329   5.999   6.855 -0.1894 -0.4122  0.9428
  183SOPE    C320909   3.954   6.201   6.779  0.1874  0.2571  0.4149
  183SOPE    HX20910   3.944   6.091   6.770 -0.6407  0.3174  0.4704
  183SOPE    HY20911   3.865   6.243   6.726  0.2157 -0.6872 -0.4059
  183SOPE   O3120912   3.968   6.248   6.920 -0.0956 -0.0879  0.1331
  183SOPE   C3120913   3.845   6.291   6.970 -0.5165  0.2139 -0.5979
  183SOPE   O3220914   3.741   6.298   6.914  0.1343  0.2382  0.1557
  183SOPE   C3220915   3.868   6.336   7.118 -0.3160  0.0509 -0.6842
  183SOPE   H2X20916   3.884   6.446   7.131 -0.1449 -0.2386  2.1030
  183SOPE   H2Y20917   3.959   6.278   7.144 -0.4126 -0.0880 -0.6585
  183SOPE   C2320918   4.463   6.118   6.992 -0.3165  0.0652  0.0597
  183SOPE   H3R20919   4.486   6.226   7.002  1.2549 -0.4391  2.9776
  183SOPE   H3S20920   4.555   6.057   6.996 -0.3324  0.0187 -0.2324
  183SOPE   C2420921   4.386   6.090   7.126  0.2905  0.3590  0.4291
  183SOPE   H4R20922   4.363   5.982   7.131 -1.8120  0.7614  0.5969
  183SOPE   H4S20923   4.453   6.116   7.211 -0.9674  1.0178  1.2735
  183SOPE   C2520924   4.259   6.183   7.144  0.2700  0.5835  0.0461
  183SOPE   H5R20925   4.200   6.192   7.050  0.0318 -0.5371  0.0637
  183SOPE   H5S20926   4.194   6.124   7.212 -0.3216  0.0996 -0.9083
  183SOPE   C2620927   4.272   6.322   7.204 -0.8519  0.0046 -0.2778
  183SOPE   H6R20928   4.332   6.388   7.138 -0.2502  0.1453  0.4047
  183SOPE   H6S20929   4.173   6.371   7.214 -0.0679  1.9747 -1.6640
  183SOPE   C2720930   4.326   6.325   7.360 -0.0459 -0.0247 -0.1543
  183SOPE   H7R20931   4.419   6.266   7.365  0.8655  1.4221  0.8270
  183SOPE   H7S20932   4.355   6.430   7.383 -1.3478  0.2126  0.5176
  183SOPE   C2820933   4.237   6.263   7.464 -0.3062  0.2203  0.8541
  183SOPE   H8R20934   4.220   6.159   7.428  0.9140 -0.8533  3.1812
  183SOPE   H8S20935   4.307   6.253   7.550  2.0561 -0.8837 -1.0552
  183SOPE   C2920936   4.112   6.333   7.494 -0.1200  0.9503  0.0596
  183SOPE   H9120937   4.061   6.380   7.408 -1.1592 -1.1474 -0.5513
  183SOPE  C21020938   4.039   6.349   7.610 -0.6424  0.2949 -0.1710
  183SOPE  H10120939   3.956   6.421   7.602 -1.1589  0.1294  2.5506
  183SOPE  C21120940   4.060   6.293   7.751 -0.0043 -0.1213  0.0789
  183SOPE  H11R20941   4.078   6.183   7.741 -1.1449 -0.1645 -1.9588
  183SOPE  H11S20942   3.972   6.320   7.813  0.4999 -0.5977  1.0312
  183SOPE  C21220943   4.181   6.357   7.819 -0.1546  0.2074  0.6259
  183SOPE  H12R20944   4.183   6.466   7.799  0.1845 -0.1766 -1.6672
  183SOPE  H12S20945   4.278   6.329   7.772 -0.3348  2.3980 -1.2062
  183SOPE  C21320946   4.199   6.329   7.969 -0.2053  0.3079  0.2955
  183SOPE  H13R20947   4.219   6.221   7.987 -3.2340 -0.4297 -0.2259
  183SOPE  H13S20948   4.102   6.366   8.009  1.0676  1.6056  2.3869
  183SOPE  C21420949   4.313   6.410   8.025  0.2632  0.0009 -0.8706
  183SOPE  H14R20950   4.311   6.505   7.968  1.0303  1.4159  1.2912
  183SOPE  H14S20951   4.404   6.362   7.983  0.0487 -1.4202  0.1977
  183SOPE  C21520952   4.321   6.437   8.174  0.8442  0.3627 -0.2351
  183SOPE  H15R20953   4.226   6.491   8.199  0.0716 -0.8337 -0.5091
  183SOPE  H15S20954   4.393   6.521   8.184  0.5745  0.4750  0.9125
  183SOPE  C21620955   4.335   6.313   8.265  0.0088 -0.8424  0.4031
  183SOPE  H16R20956   4.438   6.275   8.251  0.2797 -0.2136  0.6610
  183SOPE  H16S20957   4.263   6.240   8.221 -1.8915  2.8041 -3.1558
  183SOPE  C21720958   4.320   6.332   8.420  1.1288  0.2908  0.1011
  183SOPE  H17R20959   4.311   6.232   8.467  0.6899  0.7573  1.0302
  183SOPE  H17S20960   4.220   6.380   8.428 -0.2824 -2.1385 -1.4533
  183SOPE  C21820961   4.442   6.404   8.491  0.4753  0.6215 -0.8930
  183SOPE  H18R20962   4.451   6.370   8.596  2.2166 -0.5680 -1.3903
  183SOPE  H18S20963   4.418   6.510   8.469 -0.2221 -0.2078 -4.9023
  183SOPE  H18T20964   4.538   6.392   8.436  0.2481  0.4234 -1.2491
  183SOPE   C3320965   3.759   6.277   7.212 -0.3194 -0.3697 -0.5558
  183SOPE   H3X20966   3.774   6.167   7.202 -2.7072 -0.8661  0.6173
  183SOPE   H3Y20967   3.655   6.293   7.176 -0.5984 -1.8180 -0.4723
  183SOPE   C3420968   3.769   6.310   7.360  0.6012 -0.3703  0.5939
  183SOPE   H4X20969   3.767   6.417   7.388  3.1495 -0.1706  0.2337
  183SOPE   H4Y20970   3.864   6.272   7.403  2.4352  1.3673 -1.6494
  183SOPE   C3520971   3.646   6.248   7.437  0.4555 -0.0608  0.4253
  183SOPE   H5X20972   3.628   6.139   7.420  0.0354 -0.0942  1.0578
  183SOPE   H5Y20973   3.554   6.301   7.405  0.2885  0.4632  1.7021
  183SOPE   C3620974   3.655   6.285   7.589  0.1254  0.8825  0.4495
  183SOPE   H6X20975   3.645   6.396   7.597  1.2487  1.0466 -0.2428
  183SOPE   H6Y20976   3.755   6.258   7.629  0.0012 -1.0128 -0.4088
  183SOPE   C3720977   3.547   6.204   7.661 -0.6506 -0.0063  0.3555
  183SOPE   H7X20978   3.585   6.100   7.660  1.3702  0.6935  0.2251
  183SOPE   H7Y20979   3.449   6.208   7.608  0.8564  0.8716 -2.5728
  183SOPE   C3820980   3.540   6.241   7.813  0.0628 -0.2984  0.3352
  183SOPE   H8X20981   3.478   6.333   7.824  1.0438  0.3090  0.8824
  183SOPE   H8Y20982   3.639   6.263   7.859  0.3634 -1.8912  0.4875
  183SOPE   C3920983   3.459   6.128   7.896  0.2281 -0.1976  0.3567
  183SOPE   H9X20984   3.504   6.037   7.850  0.3892 -0.0745  0.2685
  183SOPE   H9Y20985   3.357   6.150   7.858  0.4143 -2.5432 -1.7807
  183SOPE  C31020986   3.495   6.124   8.041 -0.5579 -0.7918 -0.3800
  183SOPE  H10X20987   3.455   6.208   8.101  1.0050 -0.1917 -0.1216
  183SOPE  H10Y20988   3.605   6.121   8.060 -0.5931  1.6882  0.5439
  183SOPE  C31120989   3.434   6.001   8.103 -0.5285 -0.1064  0.0842
  183SOPE  H11X20990   3.462   5.912   8.044  0.1828 -1.9186  2.9219
  183SOPE  H11Y20991   3.325   6.016   8.093 -0.6763 -1.1858 -0.0673
  183SOPE  C31220992   3.478   5.961   8.246 -0.5014 -0.2542 -0.3581
  183SOPE  H12X20993   3.589   5.957   8.243 -0.5305 -3.0707  0.0214
  183SOPE  H12Y20994   3.449   5.859   8.279 -2.6467  1.0216  2.0825
  183SOPE  C31320995   3.434   6.059   8.356  0.0281  0.3156 -0.0644
  183SOPE  H13X20996   3.488   6.155   8.341  1.5172 -0.5610 -0.5224
  183SOPE  H13Y20997   3.472   6.018   8.452  2.8707  0.0717 -1.1805
  183SOPE  C31420998   3.282   6.074   8.388 -0.0181  0.2280  0.1542
  183SOPE  H14X20999   3.239   5.972   8.402  0.3840 -0.3830 -2.5172
  183SOPE  H14Y21000   3.233   6.119   8.299  3.4306  1.2491 -1.3989
  183SOPE  C31521001   3.248   6.143   8.523  0.0723  0.2943 -0.9012
  183SOPE  H15X21002   3.301   6.240   8.517  6.7223 -2.8176 -1.7026
  183SOPE  H15Y21003   3.296   6.080   8.602  1.2931  0.4608 -1.4883
  183SOPE  C31621004   3.100   6.146   8.554  0.1723 -0.7189  0.6533
  183SOPE  H16X21005   3.103   6.163   8.664 -0.9767  0.3555  0.5362
  183SOPE  H16Y21006   3.055   6.048   8.527 -1.2264  0.0919 -0.0356
  183SOPE  C31721007   3.019   6.264   8.497 -0.2812 -0.0800 -0.4055
  183SOPE  H17X21008   3.030   6.255   8.387 -0.8249 -0.4602 -0.4354
  183SOPE  H17Y21009   3.060   6.358   8.540 -0.4619 -0.0675 -0.2556
  183SOPE  C31821010   2.873   6.259   8.541  0.4321 -0.6466 -0.1677
  183SOPE  H18X21011   2.827   6.171   8.490 -0.2582  0.0284 -0.7448
  183SOPE  H18Y21012   2.812   6.342   8.498 -0.7169 -1.4712 -0.1731
  183SOPE  H18Z21013   2.856   6.250   8.650  2.1508  1.5065  0.3378
  184SOPE     N21014   3.542   1.115   6.237  0.3213 -0.4698 -0.8915
  184SOPE   HN121015   3.537   1.217   6.216 -0.1421 -0.5373 -1.1207
  184SOPE   HN221016   3.604   1.067   6.168  1.3651 -0.7294  0.2098
  184SOPE   HN321017   3.449   1.070   6.223  0.6021 -1.0635 -0.8573
  184SOPE   C1221018   3.600   1.093   6.381  0.4859 -0.3923  0.8587
  184SOPE  H12A21019   3.508   1.071   6.438 -1.3912  0.9193 -1.4570
  184SOPE  H12B21020   3.648   1.186   6.420  1.8061 -1.0876  0.9449
  184SOPE   C1121021   3.697   0.979   6.391 -0.2551 -0.6912 -0.3925
  184SOPE  H11A21022   3.649   0.892   6.342 -2.4472  2.0854 -3.6432
  184SOPE  H11B21023   3.713   0.960   6.499  1.4446 -0.1492 -0.5153
  184SOPE     P21024   3.871   0.961   6.200  0.0719  0.2474  0.1719
  184SOPE   O1321025   4.001   1.022   6.180  0.0461  0.0482 -0.1494
  184SOPE   O1421026   3.766   0.974   6.099  0.1700 -0.2936 -0.3420
  184SOPE   O1221027   3.818   1.021   6.334 -0.0289 -0.2335 -0.0155
  184SOPE   O1121028   3.894   0.809   6.233 -0.2103 -0.9877  0.7953
  184SOPE    C121029   3.976   0.777   6.351 -0.1258  0.0097  0.4997
  184SOPE    HA21030   4.024   0.862   6.404  1.9545 -1.4123  1.0612
  184SOPE    HB21031   4.064   0.716   6.320 -0.8957 -1.7369  1.5636
  184SOPE    C221032   3.899   0.697   6.454 -0.0882  0.6295 -0.1567
  184SOPE    HS21033   3.793   0.702   6.423 -0.8469  0.0908  2.1596
  184SOPE   O2121034   3.928   0.751   6.581 -0.1440 -0.4239 -0.1336
  184SOPE   C2121035   3.823   0.765   6.664 -0.2805 -0.0604 -0.7417
  184SOPE   O2221036   3.703   0.766   6.629  0.1786  0.3364 -0.5411
  184SOPE   C2221037   3.880   0.766   6.808  0.1955  0.4270 -0.2235
  184SOPE   H2R21038   3.970   0.829   6.795 -1.5728  2.7896 -1.6825
  184SOPE   H2S21039   3.911   0.663   6.836  0.4883  0.7657  0.7509
  184SOPE    C321040   3.925   0.540   6.441 -0.0513  0.0525  0.1627
  184SOPE    HX21041   4.034   0.520   6.453  0.2697  2.3118  1.3706
  184SOPE    HY21042   3.898   0.508   6.338  0.0922  2.3815 -0.6598
  184SOPE   O3121043   3.862   0.469   6.547  0.0021 -0.1166 -0.3903
  184SOPE   C3121044   3.735   0.438   6.534  0.0892  0.4516 -0.2719
  184SOPE   O3221045   3.654   0.472   6.446 -0.5894  0.0521 -0.5491
  184SOPE   C3221046   3.708   0.348   6.659  0.1310  0.7404  0.5339
  184SOPE   H2X21047   3.804   0.328   6.712  0.6171  0.9163 -0.2621
  184SOPE   H2Y21048   3.667   0.249   6.629  2.0018 -0.1819  0.8797
  184SOPE   C2321049   3.794   0.844   6.912  0.7299  0.1665  0.1237
  184SOPE   H3R21050   3.696   0.793   6.907  0.5290  0.5395  0.2573
  184SOPE   H3S21051   3.789   0.947   6.870 -1.2894  0.9923  2.1952
  184SOPE   C2421052   3.855   0.848   7.052  0.4831 -0.4999 -0.4639
  184SOPE   H4R21053   3.874   0.744   7.085  0.1978 -0.5955 -0.5956
  184SOPE   H4S21054   3.949   0.906   7.056  0.1255  0.1101 -0.6626
  184SOPE   C2521055   3.763   0.912   7.158 -0.1676 -0.5564 -0.3861
  184SOPE   H5R21056   3.752   1.020   7.137 -1.4198 -0.3836  0.9453
  184SOPE   H5S21057   3.665   0.865   7.137  0.0344 -0.1654 -2.3530
  184SOPE   C2621058   3.818   0.896   7.304  0.2935 -0.6620  0.6411
  184SOPE   H6R21059   3.745   0.936   7.377  0.3931 -0.2281  0.5100
  184SOPE   H6S21060   3.840   0.789   7.322  1.2833 -0.6799 -0.5428
  184SOPE   C2721061   3.946   0.988   7.333 -0.3851  0.7172  0.3063
  184SOPE   H7R21062   4.032   0.925   7.300 -0.7250  1.3542 -1.9829
  184SOPE   H7S21063   3.939   1.078   7.268 -0.5738  0.0166 -0.6685
  184SOPE   C2821064   3.952   1.026   7.484  0.0096 -0.4857 -0.4211
  184SOPE   H8R21065   4.045   1.082   7.509 -0.0283 -0.3943 -0.4860
  184SOPE   H8S21066   3.868   1.097   7.498 -1.0141 -1.1908 -2.6242
  184SOPE   C2921067   3.954   0.909   7.579  0.6278 -0.6258 -0.4983
  184SOPE   H9121068   3.976   0.810   7.538 -1.1910 -1.1434 -0.3225
  184SOPE  C21021069   3.923   0.917   7.712  0.2010 -0.4876  0.5392
  184SOPE  H10121070   3.926   0.822   7.768  3.0385  0.1416  1.6577
  184SOPE  C21121071   3.883   1.041   7.794 -0.8003 -0.2607 -0.4466
  184SOPE  H11R21072   3.777   1.024   7.822 -0.5222 -0.0665  0.7434
  184SOPE  H11S21073   3.891   1.131   7.729 -0.5012  0.0172 -0.0298
  184SOPE  C21221074   3.979   1.053   7.917  0.5251  0.1599 -0.5231
  184SOPE  H12R21075   4.083   1.073   7.882 -0.1085  0.4066 -2.3638
  184SOPE  H12S21076   3.969   0.961   7.978 -1.2922  1.6924  1.6904
  184SOPE  C21321077   3.934   1.164   8.012  0.1858  0.6329 -0.9150
  184SOPE  H13R21078   3.825   1.167   8.035  0.9539  2.3878  3.3688
  184SOPE  H13S21079   3.954   1.258   7.956  0.1193  1.4946  0.4826
  184SOPE  C21421080   4.000   1.165   8.151  0.0043 -0.3464  0.3529
  184SOPE  H14R21081   4.111   1.160   8.157  0.1666 -1.6416 -2.3473
  184SOPE  H14S21082   3.965   1.069   8.195 -0.0932 -1.7215 -2.5124
  184SOPE  C21521083   3.953   1.292   8.222 -0.3358 -0.3062 -0.0145
  184SOPE  H15R21084   3.845   1.304   8.200 -0.3788 -1.1267 -0.2969
  184SOPE  H15S21085   4.007   1.381   8.183  0.7231 -1.2029 -0.6703
  184SOPE  C21621086   3.966   1.299   8.375  0.2673  0.0695  0.1601
  184SOPE  H16R21087   3.921   1.210   8.425  0.3688  0.5824  1.1861
  184SOPE  H16S21088   3.906   1.384   8.415  0.0845 -0.1982  0.4675
  184SOPE  C21721089   4.110   1.299   8.433  0.0858 -0.4773 -0.3429
  184SOPE  H17R21090   4.166   1.387   8.393  1.5077 -1.4513 -0.5947
  184SOPE  H17S21091   4.155   1.202   8.401 -0.9227 -2.9038  4.6001
  184SOPE  C21821092   4.109   1.302   8.591  0.9220 -0.6941  0.5932
  184SOPE  H18R21093   4.211   1.314   8.632  1.4505  2.0450 -1.2382
  184SOPE  H18S21094   4.050   1.224   8.642 -2.7517  0.9291 -0.7412
  184SOPE  H18T21095   4.062   1.401   8.614 -0.3519 -0.6152 -1.9471
  184SOPE   C3321096   3.618   0.424   6.754  0.0527 -0.0321  0.9021
  184SOPE   H3X21097   3.527   0.460   6.702 -0.4500 -0.8202  1.2073
  184SOPE   H3Y21098   3.679   0.511   6.785 -1.9156  2.4219 -1.5709
  184SOPE   C3421099   3.579   0.341   6.876  0.6776 -0.3959 -0.1505
  184SOPE   H4X21100   3.661   0.271   6.902  1.1684  0.1457 -0.2295
  184SOPE   H4Y21101   3.493   0.276   6.847 -0.4459  0.7398  0.5900
  184SOPE   C3521102   3.549   0.428   7.000 -0.1069 -0.6360  0.2031
  184SOPE   H5X21103   3.649   0.467   7.027  1.1843 -2.8352 -1.0520
  184SOPE   H5Y21104   3.538   0.367   7.092  1.7198 -1.4184 -0.0476
  184SOPE   C3621105   3.453   0.544   6.978 -0.0026  0.2506  1.1353
  184SOPE   H6X21106   3.348   0.509   6.970  0.3980 -0.6952 -0.5767
  184SOPE   H6Y21107   3.467   0.599   6.883  0.9066 -0.8965  0.5830
  184SOPE   C3721108   3.468   0.629   7.097 -0.0177  0.5265 -1.4690
  184SOPE   H7X21109   3.416   0.726   7.080  1.7631  2.2304  1.7862
  184SOPE   H7Y21110   3.577   0.647   7.113  0.3533 -0.7578 -2.4171
  184SOPE   C3821111   3.399   0.581   7.226  1.1708  1.3156 -0.1675
  184SOPE   H8X21112   3.452   0.486   7.249 -1.1540 -0.1910 -0.6031
  184SOPE   H8Y21113   3.293   0.562   7.197  0.7434  2.8697  0.3143
  184SOPE   C3921114   3.399   0.673   7.354 -0.3741  0.1534  0.0555
  184SOPE   H9X21115   3.343   0.626   7.437  2.1025 -2.7211  0.2629
  184SOPE   H9Y21116   3.355   0.774   7.336  0.4433  0.3832 -0.7324
  184SOPE  C31021117   3.542   0.696   7.409 -0.0840  0.0432 -0.5395
  184SOPE  H10X21118   3.604   0.738   7.327  1.3367 -0.5085  0.2234
  184SOPE  H10Y21119   3.585   0.596   7.430  0.7493  0.7923  1.4868
  184SOPE  C31121120   3.547   0.776   7.536 -0.4275 -0.3473  0.1318
  184SOPE  H11X21121   3.488   0.869   7.525  2.0016  1.3382  0.8067
  184SOPE  H11Y21122   3.652   0.798   7.562 -0.3160 -0.2237 -0.4229
  184SOPE  C31221123   3.478   0.713   7.660 -0.6155  0.4237  0.2702
  184SOPE  H12X21124   3.512   0.610   7.682  0.4958  1.1464  2.1702
  184SOPE  H12Y21125   3.367   0.709   7.649 -0.9237 -1.8664  3.1961
  184SOPE  C31321126   3.513   0.787   7.797 -1.0163  0.1061  1.1867
  184SOPE  H13X21127   3.417   0.803   7.851 -1.9693 -0.9436 -0.1337
  184SOPE  H13Y21128   3.563   0.884   7.777 -0.2514 -0.5984 -0.4998
  184SOPE  C31421129   3.602   0.700   7.896  0.0774 -0.5239 -0.1057
  184SOPE  H14X21130   3.695   0.662   7.847  0.6500  3.4665 -2.6498
  184SOPE  H14Y21131   3.542   0.613   7.929 -2.0020  0.4728 -1.1067
  184SOPE  C31521132   3.655   0.782   8.016  0.9573  0.0082  0.3015
  184SOPE  H15X21133   3.572   0.803   8.087  0.6467  3.4628 -0.9032
  184SOPE  H15Y21134   3.696   0.880   7.983  4.5642  0.2089  4.4077
  184SOPE  C31621135   3.761   0.708   8.102 -0.1864  0.7912 -0.0469
  184SOPE  H16X21136   3.828   0.786   8.146  1.3573  0.1244 -1.1517
  184SOPE  H16Y21137   3.831   0.660   8.030  0.1583 -0.3038  0.9866
  184SOPE  C31721138   3.707   0.621   8.210  0.3030 -0.1746 -0.4339
  184SOPE  H17X21139   3.670   0.522   8.178 -4.1945  0.4166  2.1209
  184SOPE  H17Y21140   3.611   0.661   8.249 -0.8189 -1.2323 -1.9719
  184SOPE  C31821141   3.811   0.603   8.320 -0.6658  0.5820 -0.3013
  184SOPE  H18X21142   3.854   0.701   8.348  2.1401 -0.3582 -0.9142
  184SOPE  H18Y21143   3.903   0.544   8.297 -1.1780 -0.6240  0.6126
  184SOPE  H18Z21144   3.758   0.560   8.407  1.7106 -0.2321  0.8450
  185SAPI   C1221145   2.571   3.544  11.130 -0.0263  0.2318 -0.2548
  185SAPI    H221146   2.665   3.557  11.072 -1.3184 -0.4710 -2.6617
  185SAPI    O221147   2.472   3.467  11.052 -0.1441  0.1871  0.2299
  185SAPI   HO221148   2.409   3.527  11.010  1.2041  1.6544  0.1759
  185SAPI   C1321149   2.618   3.461  11.251 -0.6274 -0.4388  0.1987
  185SAPI    H321150   2.700   3.515  11.302 -0.0514 -1.2910  0.1952
  185SAPI    O321151   2.678   3.337  11.217  0.0624  0.2437  0.9208
  185SAPI   HO321152   2.767   3.348  11.181  0.5250 -1.1234  1.5674
  185SAPI   C1421153   2.513   3.448  11.361 -0.9681  0.0945  0.7410
  185SAPI    H421154   2.432   3.389  11.313  0.2727 -0.9949 -0.0967
  185SAPI    O421155   2.563   3.381  11.481 -0.0244 -0.7471  0.0025
  185SAPI   HO421156   2.608   3.299  11.460 -0.8762 -1.4308  0.7593
  185SAPI   C1521157   2.458   3.584  11.394 -0.3670  0.3460 -0.6045
  185SAPI    H521158   2.537   3.643  11.445  0.1156 -1.5162  0.9394
  185SAPI    O521159   2.355   3.570  11.493  0.2104 -0.4915  0.3690
  185SAPI   HO521160   2.378   3.500  11.556  0.3647 -1.7958 -1.0838
  185SAPI   C1621161   2.409   3.664  11.269  0.3373 -0.0359  0.3432
  185SAPI    H621162   2.324   3.606  11.227 -0.9288  1.0429  1.3469
  185SAPI    O621163   2.352   3.789  11.298  0.1585  0.3016  0.1259
  185SAPI   HO621164   2.337   3.828  11.211 -1.1099  0.7484  0.5272
  185SAPI   C1121165   2.519   3.678  11.168  0.0794  0.5546 -0.2289
  185SAPI    H121166   2.606   3.735  11.207  0.7564 -0.1395 -0.6833
  185SAPI     P21167   2.584   3.835  10.956 -0.2530  0.1224 -0.5280
  185SAPI   O1321168   2.691   3.892  11.038 -0.1072  0.0949  0.6898
  185SAPI   O1421169   2.512   3.938  10.878  1.1157 -0.0479 -0.2414
  185SAPI   O1221170   2.478   3.748  11.052  0.2185  0.5530  0.4649
  185SAPI   O1121171   2.645   3.725  10.859 -0.1215  0.6460 -0.4344
  185SAPI    C121172   2.557   3.655  10.770  0.5651  0.0034 -0.8037
  185SAPI    HA21173   2.522   3.560  10.817  0.9317  0.0515 -0.4284
  185SAPI    HB21174   2.464   3.714  10.756  0.7068  0.2049 -0.9119
  185SAPI    C221175   2.619   3.637  10.623  0.2880  0.0393 -0.6442
  185SAPI    HS21176   2.695   3.557  10.638 -2.4179 -2.5380  0.2439
  185SAPI   O2121177   2.671   3.764  10.596 -0.8358 -0.4807  0.6522
  185SAPI   C2121178   2.797   3.766  10.552  0.1964 -0.1101 -0.2648
  185SAPI   O2221179   2.851   3.665  10.513  0.3360 -0.0762  0.0910
  185SAPI   C2221180   2.863   3.904  10.547 -0.2280 -0.4508  1.0933
  185SAPI   H2R21181   2.876   3.927  10.655  3.3514  2.0518  0.3327
  185SAPI   H2S21182   2.961   3.893  10.495  0.3962  1.1138  1.8665
  185SAPI    C321183   2.513   3.584  10.525  0.3690 -0.5582  0.5354
  185SAPI    HX21184   2.429   3.657  10.524 -0.9721 -2.0544 -0.1705
  185SAPI    HY21185   2.465   3.491  10.562  0.6195 -0.0820  2.1426
  185SAPI   O3121186   2.573   3.573  10.395 -0.6253  0.5593 -0.0751
  185SAPI   C3121187   2.645   3.466  10.370  0.5001 -0.6600  0.0383
  185SAPI   O3221188   2.673   3.371  10.444  0.1570  0.1198 -0.1570
  185SAPI   C3221189   2.702   3.467  10.234  0.2422 -0.8451  0.0828
  185SAPI   H2X21190   2.764   3.377  10.217  0.4305 -0.7847  0.4464
  185SAPI   H2Y21191   2.762   3.560  10.230 -1.1224  0.0320 -1.9335
  185SAPI   C2321192   2.773   4.007  10.473  0.0082 -0.2409  0.1966
  185SAPI   H3R21193   2.804   4.108  10.505 -2.6399  1.1526 -1.3206
  185SAPI   H3S21194   2.667   3.999  10.506  0.1052 -2.8525  0.1284
  185SAPI   C2421195   2.787   3.994  10.315 -1.1472  0.3339 -0.3113
  185SAPI   H4R21196   2.895   4.005  10.294 -1.3215  2.5259 -0.3335
  185SAPI   H4S21197   2.738   4.083  10.270 -2.2422 -0.1803 -0.1660
  185SAPI   C2521198   2.735   3.861  10.258 -0.2222 -0.5109  0.0854
  185SAPI   H5R21199   2.794   3.774  10.289  0.9072  0.1353 -0.2144
  185SAPI   C2621200   2.626   3.863  10.185  0.2288 -0.0706  0.4926
  185SAPI   H6R21201   2.601   3.773  10.127  0.1103  1.0849 -1.3562
  185SAPI   C2721202   2.539   3.984  10.139  0.0710  0.1356  0.5738
  185SAPI   H7R21203   2.515   4.045  10.229 -2.3175  1.9726 -1.1681
  185SAPI   H7S21204   2.432   3.961  10.117 -0.3928  2.2611  0.3373
  185SAPI   C2821205   2.614   4.053  10.025  0.9788 -0.4300  0.6490
  185SAPI   H8R21206   2.689   4.126  10.059  0.6409  0.5883 -0.6981
  185SAPI   C2921207   2.602   4.038   9.892  0.3330  0.0303  0.1133
  185SAPI   H9R21208   2.661   4.109   9.831 -0.7316  0.2632 -0.6793
  185SAPI  C21021209   2.503   3.944   9.825 -0.7664 -0.1670  0.0240
  185SAPI  H10R21210   2.433   3.897   9.897 -2.3334 -0.3468 -1.5269
  185SAPI  H10S21211   2.572   3.865   9.791 -1.0763  0.0271 -1.1147
  185SAPI  C21121212   2.425   4.012   9.717 -0.6845 -0.1852  0.0126
  185SAPI  H11R21213   2.327   4.062   9.729 -0.2230  0.4881  1.1361
  185SAPI  C21221214   2.466   4.001   9.584 -0.5901 -0.9804 -0.4573
  185SAPI  H12R21215   2.398   4.053   9.516  0.0098  0.0714 -0.2731
  185SAPI  C21321216   2.585   3.939   9.524  0.0628  0.0281 -0.6524
  185SAPI  H13R21217   2.561   3.842   9.475 -0.7265 -0.0610 -0.1048
  185SAPI  H13S21218   2.655   3.916   9.607 -2.4941 -0.5377  1.4591
  185SAPI  C21421219   2.652   4.024   9.418  1.2085  0.4291 -0.0271
  185SAPI  H14R21220   2.718   4.107   9.450 -0.9352  2.3540 -0.3425
  185SAPI  C21521221   2.625   4.023   9.285 -0.1669  0.1687 -0.0155
  185SAPI  H15R21222   2.683   4.096   9.226  0.5192  0.2238  0.7075
  185SAPI  C21621223   2.523   3.948   9.196  0.3615  0.0586  0.2354
  185SAPI  H16R21224   2.525   4.017   9.109  3.3293 -0.3066 -0.0929
  185SAPI  H16S21225   2.421   3.969   9.235 -0.0413  1.3705 -1.3859
  185SAPI  C21721226   2.544   3.800   9.161 -0.7378 -0.4612  0.1665
  185SAPI  H17R21227   2.533   3.736   9.251 -0.1850  0.7834  1.1532
  185SAPI  H17S21228   2.648   3.786   9.123 -1.5107 -1.1155 -1.8539
  185SAPI  C21821229   2.464   3.756   9.037  0.5493 -0.2243 -0.2832
  185SAPI  H18R21230   2.463   3.841   8.965  1.3072  1.0904  1.1894
  185SAPI  H18S21231   2.360   3.733   9.071  0.9591 -0.5678  0.7782
  185SAPI  C21921232   2.508   3.632   8.961  0.0407  0.1087 -0.5787
  185SAPI  H19R21233   2.512   3.545   9.030 -1.7788  0.1162 -0.4043
  185SAPI  H19S21234   2.612   3.655   8.933 -1.1081  1.3364 -4.3497
  185SAPI  C22021235   2.421   3.597   8.838  0.1175  0.7334 -0.3991
  185SAPI  H20R21236   2.439   3.674   8.760 -0.2603  1.2137 -0.0208
  185SAPI  H20S21237   2.318   3.600   8.880  0.2606 -0.7062  0.0950
  185SAPI  H20T21238   2.440   3.494   8.802 -1.4281 -0.7133  2.5688
  185SAPI   C3321239   2.593   3.477  10.128 -0.2635  0.0619 -0.0234
  185SAPI   H3X21240   2.533   3.570  10.139  0.1682  0.3478 -0.0180
  185SAPI   H3Y21241   2.538   3.381  10.140  0.1285  0.1092  2.7789
  185SAPI   C3421242   2.648   3.483   9.984  0.5986  0.2533 -0.2915
  185SAPI   H4X21243   2.696   3.389   9.950 -2.0200 -1.8415  1.4453
  185SAPI   H4Y21244   2.720   3.568   9.981  0.0480  0.7189 -0.8368
  185SAPI   C3521245   2.538   3.523   9.884 -0.7279  0.0603 -0.2606
  185SAPI   H5X21246   2.500   3.627   9.897 -1.4996  0.0579 -2.2327
  185SAPI   H5Y21247   2.449   3.464   9.911 -0.8253  0.6489  0.7519
  185SAPI   C3621248   2.576   3.509   9.739  0.4605  0.0619 -0.3156
  185SAPI   H6X21249   2.600   3.402   9.723  1.9383  0.8189 -4.5766
  185SAPI   H6Y21250   2.656   3.582   9.714  0.2280  0.3859 -0.1115
  185SAPI   C3721251   2.465   3.545   9.640  0.6700  0.4320 -0.0963
  185SAPI   H7X21252   2.473   3.651   9.607 -1.4388  1.2829  1.8729
  185SAPI   H7Y21253   2.364   3.518   9.677  0.8906 -0.0856  0.1383
  185SAPI   C3821254   2.489   3.463   9.514 -0.5763  0.0116  0.3120
  185SAPI   H8X21255   2.521   3.357   9.526  2.4556  0.3199 -3.1659
  185SAPI   H8Y21256   2.573   3.518   9.465  0.2066  0.9053  2.5188
  185SAPI   C3921257   2.365   3.451   9.418 -0.2707  0.1744  0.0876
  185SAPI   H9X21258   2.312   3.549   9.420  1.6302  1.2568 -0.6020
  185SAPI   H9Y21259   2.297   3.374   9.461 -0.9980  0.9024  0.2802
  185SAPI  C31021260   2.411   3.427   9.274  0.5922  0.3567 -0.0301
  185SAPI  H10X21261   2.515   3.464   9.264  0.0826  2.1454  0.8280
  185SAPI  H10Y21262   2.360   3.490   9.198  2.6507  0.5483 -1.3173
  185SAPI  C31121263   2.406   3.276   9.230  0.3637  0.1686  0.6395
  185SAPI  H11X21264   2.302   3.236   9.232 -0.0037  0.9938 -0.3968
  185SAPI  H11Y21265   2.478   3.220   9.292 -1.0728 -0.7205  1.5702
  185SAPI  C31221266   2.446   3.270   9.081  0.1481  0.1155  0.0252
  185SAPI  H12X21267   2.541   3.325   9.062  0.0905 -0.3191 -1.7332
  185SAPI  H12Y21268   2.380   3.332   9.016 -0.0910 -0.9748 -0.8089
  185SAPI  C31321269   2.457   3.128   9.019  0.3622  0.1483  0.7869
  185SAPI  H13X21270   2.356   3.097   8.985  0.6110  1.0304 -0.8580
  185SAPI  H13Y21271   2.486   3.051   9.094  1.2156  1.1648  1.5325
  185SAPI  C31421272   2.550   3.123   8.902 -0.4126 -0.2320 -0.1473
  185SAPI  H14X21273   2.647   3.167   8.934 -1.5865  2.1735  0.2706
  185SAPI  H14Y21274   2.521   3.190   8.819 -0.0219 -0.4469 -0.4625
  185SAPI  C31521275   2.588   2.985   8.838  0.0235 -0.2799 -0.0025
  185SAPI  H15X21276   2.504   2.913   8.841  0.6171 -0.9860  0.0293
  185SAPI  H15Y21277   2.656   2.930   8.906  1.4077  1.2668 -0.0642
  185SAPI  C31621278   2.642   2.997   8.693  0.1510  0.1136 -0.5164
  185SAPI  H16X21279   2.735   3.057   8.696 -0.0165  0.4193  2.8048
  185SAPI  H16Y21280   2.570   3.056   8.633  2.8076  3.2520 -0.8780
  185SAPI  C31721281   2.668   2.857   8.635  0.4719 -0.3824  0.2008
  185SAPI  H17X21282   2.571   2.803   8.644  0.1635  0.3270  1.3501
  185SAPI  H17Y21283   2.747   2.793   8.680  0.2985 -2.3565 -2.0858
  185SAPI  C31821284   2.695   2.864   8.483 -0.2825 -0.3045 -0.1588
  185SAPI  H18X21285   2.778   2.928   8.448 -0.7726  0.3407 -0.1712
  185SAPI  H18Y21286   2.601   2.887   8.427  0.6902  2.2659 -0.8880
  185SAPI  H18Z21287   2.727   2.764   8.447  2.2367  0.6938 -0.8589
  186SAPI   C1221288   3.477   0.919  10.798 -0.3117 -0.5552  0.1212
  186SAPI    H221289   3.429   1.012  10.762 -0.5218 -0.3647  0.8686
  186SAPI    O221290   3.538   0.859  10.684  0.3630 -0.1257  0.1304
  186SAPI   HO221291   3.471   0.877  10.617  1.6345  6.1802 -0.1125
  186SAPI   C1321292   3.584   0.959  10.896 -0.4311 -0.1472  0.2708
  186SAPI    H321293   3.535   1.003  10.986  0.5203  0.4601  0.5080
  186SAPI    O321294   3.659   1.068  10.844 -0.0909 -0.1746  0.6383
  186SAPI   HO321295   3.700   1.034  10.764  0.4737  0.3500  0.6949
  186SAPI   C1421296   3.661   0.825  10.945  0.4709 -0.5676  0.1865
  186SAPI    H421297   3.697   0.766  10.857  1.9114  0.8130 -0.1832
  186SAPI    O421298   3.772   0.850  11.024  0.3208 -0.2682 -0.3412
  186SAPI   HO421299   3.836   0.779  11.013 -0.8766 -1.4084 -0.2368
  186SAPI   C1521300   3.558   0.739  11.016  0.1368  0.5378 -0.1546
  186SAPI    H521301   3.521   0.806  11.096  0.6829  1.7102 -0.8545
  186SAPI    O521302   3.613   0.625  11.078  0.3143  0.0070 -0.3682
  186SAPI   HO521303   3.554   0.601  11.149 -1.0441  0.1690 -1.3969
  186SAPI   C1621304   3.442   0.706  10.919 -0.5509  0.1434 -0.9285
  186SAPI    H621305   3.481   0.650  10.832 -1.6234  1.2107 -2.1548
  186SAPI    O621306   3.347   0.621  10.983  0.3526 -0.1334 -0.1623
  186SAPI   HO621307   3.292   0.577  10.918 -0.1320 -1.1056  0.8733
  186SAPI   C1121308   3.382   0.832  10.866 -0.1997 -0.4588 -0.3340
  186SAPI    H121309   3.344   0.880  10.958  3.2029  2.8194 -0.3906
  186SAPI     P21310   3.133   0.882  10.761  0.1250 -0.4236  0.5533
  186SAPI   O1321311   3.089   0.926  10.896  0.4404 -0.3155  0.0668
  186SAPI   O1421312   3.042   0.798  10.680 -0.0956  0.6792 -0.4764
  186SAPI   O1221313   3.280   0.792  10.770 -0.0738 -0.7308  0.3730
  186SAPI   O1121314   3.176   1.013  10.681 -0.6409 -0.4198  0.0103
  186SAPI    C121315   3.081   1.095  10.611  0.3310 -0.1420  0.3487
  186SAPI    HA21316   3.075   1.053  10.508 -0.8845 -1.1653  0.8007
  186SAPI    HB21317   2.980   1.087  10.657 -0.0704 -0.1519 -0.5080
  186SAPI    C221318   3.119   1.239  10.620 -0.2040 -0.6056  0.2213
  186SAPI    HS21319   3.046   1.303  10.566  0.8993  1.2920  0.8582
  186SAPI   O2121320   3.254   1.261  10.569  0.1444 -0.5201  0.0912
  186SAPI   C2121321   3.265   1.261  10.435 -0.4644 -0.0383  0.6053
  186SAPI   O2221322   3.171   1.246  10.351 -0.4642  0.0450 -0.0772
  186SAPI   C2221323   3.411   1.297  10.401 -0.6517  0.4943  0.4175
  186SAPI   H2R21324   3.459   1.321  10.499  0.5942  2.2839 -0.5693
  186SAPI   H2S21325   3.448   1.202  10.357 -2.2262  0.2006 -0.3276
  186SAPI    C321326   3.126   1.285  10.764  0.2589  0.1205  0.5175
  186SAPI    HX21327   3.205   1.228  10.817  1.0770  2.4586  1.9370
  186SAPI    HY21328   3.029   1.249  10.805  1.0362 -0.3226  2.0566
  186SAPI   O3121329   3.125   1.425  10.762 -0.1183 -0.3859 -0.0420
  186SAPI   C3121330   3.250   1.474  10.769  0.2967  0.5924  0.7587
  186SAPI   O3221331   3.346   1.409  10.807  0.1339  0.9746  0.4909
  186SAPI   C3221332   3.251   1.624  10.728 -0.2207 -0.0653 -0.7169
  186SAPI   H2X21333   3.311   1.668  10.811 -1.7189  1.0692 -0.1764
  186SAPI   H2Y21334   3.151   1.672  10.725  1.0701  2.8440 -1.0153
  186SAPI   C2321335   3.418   1.424  10.309  0.0600  0.3015  0.3068
  186SAPI   H3R21336   3.407   1.520  10.364  0.9884 -0.0306  1.1025
  186SAPI   H3S21337   3.328   1.404  10.246  1.4342 -0.1012 -1.6215
  186SAPI   C2421338   3.540   1.419  10.221  0.5339  0.1238  0.0068
  186SAPI   H4R21339   3.532   1.507  10.154 -0.8049  0.6312  0.7859
  186SAPI   H4S21340   3.533   1.323  10.166 -2.4691  0.4037 -0.2788
  186SAPI   C2521341   3.662   1.428  10.312  0.5274  0.0159 -0.0902
  186SAPI   H5R21342   3.645   1.422  10.420  1.6037 -3.0154  0.0220
  186SAPI   C2621343   3.789   1.421  10.270 -0.3556  0.0416  0.0508
  186SAPI   H6R21344   3.870   1.439  10.341 -0.8035  4.3627 -0.2632
  186SAPI   C2721345   3.823   1.408  10.125  0.7002 -0.3173  1.2089
  186SAPI   H7R21346   3.798   1.505  10.076 -2.9071  0.3096  3.8702
  186SAPI   H7S21347   3.755   1.334  10.079 -0.3790  1.3636 -0.0078
  186SAPI   C2821348   3.966   1.362  10.106  0.3097 -0.1024 -0.5469
  186SAPI   H8R21349   4.032   1.331  10.188  0.8780  1.1903 -0.4923
  186SAPI   C2921350   4.008   1.332   9.981  1.1420  0.3811 -0.0242
  186SAPI   H9R21351   4.106   1.282   9.969  0.5520 -0.6871 -0.5419
  186SAPI  C21021352   3.931   1.352   9.848 -0.0064  0.7794  0.5909
  186SAPI  H10R21353   3.956   1.456   9.817 -0.4398  0.6125 -0.3435
  186SAPI  H10S21354   3.822   1.333   9.863  0.0052 -2.2648 -2.0238
  186SAPI  C21121355   3.975   1.250   9.744 -0.3659 -1.0266 -0.0102
  186SAPI  H11R21356   3.977   1.143   9.770 -0.4476 -0.8108  0.8928
  186SAPI  C21221357   4.014   1.282   9.615  0.7494  0.2083 -0.1010
  186SAPI  H12R21358   4.036   1.196   9.550 -0.0259 -0.8698  0.9979
  186SAPI  C21321359   4.017   1.426   9.555  1.1023 -0.1201  0.9167
  186SAPI  H13R21360   3.937   1.488   9.601 -0.4915 -0.6614 -0.9795
  186SAPI  H13S21361   4.015   1.406   9.446  1.4025 -2.4072  1.2820
  186SAPI  C21421362   4.151   1.486   9.580 -0.5356 -0.2483  0.6079
  186SAPI  H14R21363   4.178   1.485   9.687 -1.8866 -1.4632  0.9663
  186SAPI  C21521364   4.227   1.557   9.504 -0.5542 -0.2941  0.3390
  186SAPI  H15R21365   4.326   1.590   9.540  0.5072 -2.7730 -0.0564
  186SAPI  C21621366   4.196   1.596   9.356  0.5818 -0.2107 -0.0857
  186SAPI  H16R21367   4.202   1.706   9.341  0.7515 -0.0443  1.1121
  186SAPI  H16S21368   4.089   1.587   9.327  0.4210  3.2302 -1.0183
  186SAPI  C21721369   4.286   1.518   9.260  0.3928 -0.1409 -0.4016
  186SAPI  H17R21370   4.269   1.410   9.280 -1.0831 -0.2611 -2.0985
  186SAPI  H17S21371   4.391   1.547   9.280 -0.4322  1.6250  1.7634
  186SAPI  C21821372   4.244   1.545   9.111 -0.3620  0.2793 -0.2356
  186SAPI  H18R21373   4.338   1.517   9.058 -1.7007 -3.0317 -1.1500
  186SAPI  H18S21374   4.229   1.653   9.090  3.5965  1.4531  1.9132
  186SAPI  C21921375   4.127   1.456   9.062 -0.4687  0.6216  0.6858
  186SAPI  H19R21376   4.040   1.501   9.115 -2.0434 -0.7694 -0.5652
  186SAPI  H19S21377   4.147   1.350   9.089 -1.1071 -0.0088 -1.1012
  186SAPI  C22021378   4.080   1.467   8.914  0.4627  0.4011 -0.6174
  186SAPI  H20R21379   4.136   1.544   8.858 -0.9763  1.4948 -0.6016
  186SAPI  H20S21380   3.970   1.482   8.908  0.4636  0.5814 -0.2401
  186SAPI  H20T21381   4.099   1.376   8.852  0.4176  0.2539 -0.4172
  186SAPI   C3321382   3.333   1.660  10.597  0.7359  0.0095 -0.0012
  186SAPI   H3X21383   3.260   1.654  10.514  1.3284  1.3175 -0.6276
  186SAPI   H3Y21384   3.407   1.577  10.584  0.3512 -0.3564  0.1043
  186SAPI   C3421385   3.403   1.799  10.603  0.3013 -0.0899  0.1180
  186SAPI   H4X21386   3.500   1.783  10.551  0.3797  0.4720  0.0848
  186SAPI   H4Y21387   3.408   1.839  10.707  0.9634  0.7883 -0.2295
  186SAPI   C3521388   3.340   1.908  10.517  0.1433 -0.4246  0.2681
  186SAPI   H5X21389   3.387   2.007  10.535 -3.3686  1.2497  1.1199
  186SAPI   H5Y21390   3.233   1.936  10.529 -0.5028 -3.3849  2.7821
  186SAPI   C3621391   3.362   1.881  10.366  0.7270 -0.1984  0.6907
  186SAPI   H6X21392   3.274   1.831  10.321  0.6596  0.7526 -0.2916
  186SAPI   H6Y21393   3.446   1.809  10.358 -0.6684 -1.8896  0.8504
  186SAPI   C3721394   3.383   2.010  10.281  0.0019 -0.0026 -0.0469
  186SAPI   H7X21395   3.472   2.062  10.322  0.5087 -0.1625 -0.9379
  186SAPI   H7Y21396   3.289   2.070  10.292 -0.8443 -1.3600  0.4127
  186SAPI   C3821397   3.396   1.975  10.129  0.3878 -1.1606 -0.2813
  186SAPI   H8X21398   3.303   1.921  10.100 -0.9920  0.1480  1.4894
  186SAPI   H8Y21399   3.487   1.914  10.109  0.7423 -1.2329  1.4098
  186SAPI   C3921400   3.411   2.098  10.037 -0.1574  0.2931  0.7661
  186SAPI   H9X21401   3.493   2.168  10.066 -0.2166 -0.2197  2.3113
  186SAPI   H9Y21402   3.320   2.162  10.036 -0.9427 -0.7291 -1.8792
  186SAPI  C31021403   3.424   2.039   9.899  0.1777 -0.0284 -0.2513
  186SAPI  H10X21404   3.343   1.966   9.881  1.1572 -1.2190  0.0725
  186SAPI  H10Y21405   3.515   1.976   9.901 -0.3235 -0.7482  0.6552
  186SAPI  C31121406   3.436   2.144   9.790  0.5255  0.1942  0.2536
  186SAPI  H11X21407   3.523   2.203   9.826 -0.4322  1.2627  0.9072
  186SAPI  H11Y21408   3.354   2.218   9.799 -0.5809 -0.8977 -0.5278
  186SAPI  C31221409   3.438   2.066   9.654  0.2401 -0.3753 -0.4198
  186SAPI  H12X21410   3.348   2.002   9.643 -0.5426  0.2775  1.6210
  186SAPI  H12Y21411   3.517   1.988   9.648 -1.1604 -2.4599  3.9021
  186SAPI  C31321412   3.458   2.152   9.524 -0.5285  0.2723 -0.2190
  186SAPI  H13X21413   3.397   2.246   9.524 -0.1145  0.5544  0.4864
  186SAPI  H13Y21414   3.442   2.100   9.428 -2.2928  1.1567 -0.4429
  186SAPI  C31421415   3.607   2.195   9.527 -0.0407 -0.0398  0.1513
  186SAPI  H14X21416   3.666   2.110   9.488  0.3999  0.7328 -0.8842
  186SAPI  H14Y21417   3.654   2.217   9.625  0.4226 -3.0141  0.7087
  186SAPI  C31521418   3.643   2.306   9.427 -0.0683 -0.6466 -0.2619
  186SAPI  H15X21419   3.753   2.316   9.439 -0.3579 -0.9392  3.8460
  186SAPI  H15Y21420   3.595   2.402   9.455  1.3530 -0.4411  1.6728
  186SAPI  C31621421   3.620   2.273   9.284  0.3908 -0.3382 -0.5218
  186SAPI  H16X21422   3.510   2.267   9.270  0.1837  2.6360 -0.8988
  186SAPI  H16Y21423   3.678   2.183   9.256  0.7031  0.2872 -1.9637
  186SAPI  C31721424   3.668   2.384   9.197 -0.1199  0.4718  1.1686
  186SAPI  H17X21425   3.772   2.410   9.224  0.7389  0.5333 -1.7873
  186SAPI  H17Y21426   3.621   2.480   9.225 -1.3291 -0.0829  1.1322
  186SAPI  C31821427   3.648   2.364   9.046  0.1627 -0.6898 -0.2288
  186SAPI  H18X21428   3.690   2.445   8.984 -1.2162  0.9373  0.8691
  186SAPI  H18Y21429   3.538   2.363   9.026  0.0490  3.6619 -0.6639
  186SAPI  H18Z21430   3.692   2.270   9.006 -0.5214 -1.2639  0.3572
  187SAPI   C1221431   3.498   2.043   6.281 -0.2059  0.2241 -0.0084
  187SAPI    H221432   3.603   2.012   6.258  0.3618 -0.4534  3.0356
  187SAPI    O221433   3.447   2.126   6.185  0.0874 -0.0510 -0.5888
  187SAPI   HO221434   3.489   2.210   6.206 -0.6570  0.3344 -0.5730
  187SAPI   C1321435   3.421   1.916   6.285 -0.3118  0.7687 -1.1251
  187SAPI    H321436   3.484   1.853   6.352  0.2325  1.9776 -0.4595
  187SAPI    O321437   3.422   1.853   6.155  0.5352  0.2358 -0.2555
  187SAPI   HO321438   3.453   1.763   6.166 -2.9496 -1.0322  0.2571
  187SAPI   C1421439   3.278   1.933   6.334  0.5628 -0.3550  0.5904
  187SAPI    H421440   3.225   1.999   6.263  1.0444  0.7367  1.2146
  187SAPI    O421441   3.210   1.803   6.333  0.2785  0.2771 -0.2457
  187SAPI   HO421442   3.221   1.746   6.409 -0.8532 -0.1294 -0.3594
  187SAPI   C1521443   3.278   2.007   6.471  0.3065  0.2192  0.2197
  187SAPI    H521444   3.320   1.937   6.546  1.6451 -0.5115 -1.1825
  187SAPI    O521445   3.141   2.042   6.505  0.3436  0.1865  0.5433
  187SAPI   HO521446   3.122   1.971   6.567 -0.1641  1.1542  1.5200
  187SAPI   C1621447   3.358   2.138   6.459 -0.1104  0.1056 -0.0275
  187SAPI    H621448   3.307   2.202   6.383 -0.3119 -0.9834 -0.8233
  187SAPI    O621449   3.357   2.200   6.588 -0.4121  0.3734  0.4780
  187SAPI   HO621450   3.385   2.138   6.655  0.5800 -0.4681 -0.6669
  187SAPI   C1121451   3.499   2.118   6.407  0.3122 -0.9588 -0.3950
  187SAPI    H121452   3.554   2.054   6.480  0.3988  0.1301  0.5334
  187SAPI     P21453   3.731   2.262   6.425  0.0846  0.0847  0.3412
  187SAPI   O1321454   3.787   2.374   6.346  0.0330  0.0281  0.3032
  187SAPI   O1421455   3.791   2.125   6.405  0.1953 -0.1183 -0.3259
  187SAPI   O1221456   3.568   2.242   6.399 -0.2148 -0.4832 -0.0287
  187SAPI   O1121457   3.729   2.296   6.571 -1.2206 -0.1984  0.0162
  187SAPI    C121458   3.693   2.204   6.672 -0.2209 -0.1955  0.4864
  187SAPI    HA21459   3.592   2.223   6.713 -1.1430 -3.9622  0.3477
  187SAPI    HB21460   3.676   2.102   6.630  0.2888 -0.1357  0.1161
  187SAPI    C221461   3.799   2.201   6.787  0.0353 -0.1558  0.2412
  187SAPI    HS21462   3.753   2.143   6.869 -0.9521  1.0587  0.5836
  187SAPI   O2121463   3.832   2.329   6.835  0.6981  0.2950 -0.6867
  187SAPI   C2121464   3.739   2.399   6.890  0.5157  0.6181  0.2509
  187SAPI   O2221465   3.627   2.356   6.920 -1.0198 -0.6207  0.3216
  187SAPI   C2221466   3.788   2.548   6.909  0.1195 -0.2935  0.4516
  187SAPI   H2R21467   3.704   2.607   6.951 -0.7908 -2.7102  2.2891
  187SAPI   H2S21468   3.869   2.539   6.984  0.7509 -1.5413 -0.3467
  187SAPI    C321469   3.931   2.124   6.740  0.3574 -0.0943 -1.2594
  187SAPI    HX21470   3.974   2.186   6.659 -0.5508  0.7528 -1.1041
  187SAPI    HY21471   3.899   2.030   6.688  0.3360 -1.0460  0.3975
  187SAPI   O3121472   4.027   2.093   6.844  0.0362  0.4419  0.1065
  187SAPI   C3121473   4.154   2.138   6.829  0.2543  0.1004  0.0268
  187SAPI   O3221474   4.198   2.221   6.748  0.1009 -0.5109  0.1320
  187SAPI   C3221475   4.242   2.054   6.927 -0.7384  0.2279  0.5544
  187SAPI   H2X21476   4.290   1.973   6.867  3.9003  1.6272  1.9562
  187SAPI   H2Y21477   4.168   2.018   7.002 -0.2081 -2.4826 -0.1175
  187SAPI   C2321478   3.854   2.616   6.784 -0.1628 -0.1115  0.5560
  187SAPI   H3R21479   3.780   2.608   6.702 -0.4161 -0.1755  0.7885
  187SAPI   H3S21480   3.939   2.551   6.756  2.0288  2.5048  0.6701
  187SAPI   C2421481   3.906   2.759   6.820  0.6519  0.1553  0.3371
  187SAPI   H4R21482   3.990   2.793   6.756  1.7167 -1.1892  0.9615
  187SAPI   H4S21483   3.953   2.757   6.920  0.8012  1.0892  0.2954
  187SAPI   C2521484   3.781   2.853   6.816 -0.2249 -0.2640  0.9465
  187SAPI   H5R21485   3.759   2.902   6.720 -1.0368  1.4921  1.9891
  187SAPI   C2621486   3.718   2.914   6.917 -0.1090  0.5850 -0.2883
  187SAPI   H6R21487   3.632   2.975   6.887 -1.2319 -0.9116 -0.2134
  187SAPI   C2721488   3.744   2.911   7.063 -0.3785  0.0052 -0.0812
  187SAPI   H7R21489   3.823   2.984   7.089  1.2653 -1.8258  0.3398
  187SAPI   H7S21490   3.793   2.813   7.082 -1.8398 -0.6329  0.5717
  187SAPI   C2821491   3.617   2.909   7.144  0.3070 -0.2407 -0.2202
  187SAPI   H8R21492   3.532   2.858   7.096 -0.3464 -0.2403  0.8910
  187SAPI   C2921493   3.599   2.955   7.270  0.0834 -0.0201  0.3198
  187SAPI   H9R21494   3.496   2.950   7.307  0.2588 -1.8870  0.6805
  187SAPI  C21021495   3.701   3.025   7.352  0.2857  0.1325 -0.2570
  187SAPI  H10R21496   3.750   3.112   7.303  1.2112  0.9111  1.9449
  187SAPI  H10S21497   3.789   2.960   7.370  1.3250  0.3479 -3.8204
  187SAPI  C21121498   3.648   3.080   7.477 -0.2492  0.0539 -0.4249
  187SAPI  H11R21499   3.539   3.091   7.484 -0.4796 -0.8611 -2.0722
  187SAPI  C21221500   3.718   3.124   7.585  0.0414  0.3491 -0.2206
  187SAPI  H12R21501   3.656   3.171   7.663 -0.4343  0.9576 -0.9531
  187SAPI  C21321502   3.869   3.112   7.603 -0.5348 -0.1714  0.3556
  187SAPI  H13R21503   3.922   3.051   7.527  0.4499  0.0951  0.8096
  187SAPI  H13S21504   3.886   3.068   7.703  1.7152  2.1363  1.0897
  187SAPI  C21421505   3.943   3.245   7.602  0.1885 -0.2477  0.3853
  187SAPI  H14R21506   3.981   3.279   7.504  1.5809  1.6609  1.5200
  187SAPI  C21521507   3.980   3.316   7.706  0.3114 -0.2499  0.5284
  187SAPI  H15R21508   4.056   3.392   7.681  0.3076 -1.2189 -2.9981
  187SAPI  C21621509   3.966   3.292   7.850  0.2257  0.2720  0.1270
  187SAPI  H16R21510   3.918   3.194   7.868  2.8220 -1.5177 -2.0231
  187SAPI  H16S21511   3.907   3.378   7.889  1.3087  0.3640  1.6594
  187SAPI  C21721512   4.101   3.295   7.920  0.5654 -0.0507  0.0497
  187SAPI  H17R21513   4.144   3.397   7.907 -0.7287  0.7037  1.2859
  187SAPI  H17S21514   4.163   3.221   7.866 -0.1255 -1.3011  0.9281
  187SAPI  C21821515   4.098   3.248   8.063 -0.6347  0.4078  0.2054
  187SAPI  H18R21516   4.058   3.144   8.055  1.0170 -0.2827  0.3507
  187SAPI  H18S21517   4.031   3.301   8.133  0.7408  0.2051  1.7510
  187SAPI  C21921518   4.228   3.243   8.144 -0.0901  0.4736 -0.3876
  187SAPI  H19R21519   4.312   3.202   8.085 -0.4654  0.0916 -0.6616
  187SAPI  H19S21520   4.222   3.179   8.235 -1.1260  0.5795 -0.3603
  187SAPI  C22021521   4.269   3.379   8.192 -0.4236 -0.6575  0.3771
  187SAPI  H20R21522   4.327   3.446   8.125 -0.0279  0.4279  1.7592
  187SAPI  H20S21523   4.330   3.375   8.285 -0.0332  0.8920  0.2240
  187SAPI  H20T21524   4.187   3.445   8.229  2.5302  2.4046  2.0307
  187SAPI   C3321525   4.349   2.138   6.998 -0.3482  0.2466 -0.1753
  187SAPI   H3X21526   4.365   2.243   6.967  2.4402  0.7762  2.6444
  187SAPI   H3Y21527   4.452   2.096   6.994 -0.0027  1.1436 -1.1880
  187SAPI   C3421528   4.308   2.139   7.146 -0.2627  0.0429  0.3259
  187SAPI   H4X21529   4.306   2.038   7.192 -0.9271  0.5545  1.4618
  187SAPI   H4Y21530   4.202   2.171   7.154 -0.1900  1.2263 -2.2671
  187SAPI   C3521531   4.390   2.230   7.242  0.3075 -0.2154 -0.7472
  187SAPI   H5X21532   4.399   2.328   7.190 -2.2004 -0.0100 -0.9005
  187SAPI   H5Y21533   4.499   2.212   7.256 -0.3720 -3.0072  2.2518
  187SAPI   C3621534   4.325   2.244   7.386  0.1993 -0.2157  0.7094
  187SAPI   H6X21535   4.335   2.146   7.437  0.6251 -0.1084  0.8373
  187SAPI   H6Y21536   4.217   2.259   7.363  0.6006 -0.3341 -1.4606
  187SAPI   C3721537   4.389   2.359   7.472 -0.1013 -0.5396  0.1766
  187SAPI   H7X21538   4.378   2.453   7.414 -3.2623 -0.8508  0.0922
  187SAPI   H7Y21539   4.495   2.333   7.492  0.0131  0.8722  1.6997
  187SAPI   C3821540   4.319   2.382   7.605 -0.8828 -0.2301  0.1595
  187SAPI   H8X21541   4.302   2.284   7.652  0.7940 -0.7598 -0.2716
  187SAPI   H8Y21542   4.224   2.440   7.599  0.5024  2.4399  1.8651
  187SAPI   C3921543   4.409   2.469   7.697  0.3326  0.3884  0.7908
  187SAPI   H9X21544   4.398   2.576   7.667  2.1830  0.1941 -0.7793
  187SAPI   H9Y21545   4.516   2.445   7.681 -0.0827 -0.0139 -1.8143
  187SAPI  C31021546   4.368   2.456   7.844  0.1192 -0.8414  0.4276
  187SAPI  H10X21547   4.362   2.351   7.881 -1.8043 -0.8050  0.3295
  187SAPI  H10Y21548   4.261   2.485   7.847  0.0992  0.3346 -3.8916
  187SAPI  C31121549   4.458   2.532   7.948  0.5029 -0.3165 -0.0493
  187SAPI  H11X21550   4.428   2.636   7.919  3.5021  0.2469 -1.4765
  187SAPI  H11Y21551   4.567   2.516   7.932  0.1538 -2.8305 -0.3432
  187SAPI  C31221552   4.401   2.497   8.082  0.1987  0.6577  0.3414
  187SAPI  H12X21553   4.396   2.389   8.105  2.7281  0.4810  0.3058
  187SAPI  H12Y21554   4.306   2.554   8.095  0.9423  1.8915  0.5930
  187SAPI  C31321555   4.497   2.540   8.190  0.5784  0.0778 -0.2395
  187SAPI  H13X21556   4.527   2.645   8.169  2.7133  0.3312  3.1588
  187SAPI  H13Y21557   4.588   2.476   8.180  0.1694 -0.5769  0.1339
  187SAPI  C31421558   4.439   2.535   8.331 -0.2693  0.5024  0.4027
  187SAPI  H14X21559   4.399   2.433   8.343 -1.3728  0.8294 -0.3596
  187SAPI  H14Y21560   4.349   2.597   8.349 -0.3931  0.4197  0.0789
  187SAPI  C31521561   4.547   2.561   8.438 -0.0598  0.4557 -0.5477
  187SAPI  H15X21562   4.592   2.662   8.430 -0.9955  0.9443  0.1991
  187SAPI  H15Y21563   4.619   2.480   8.414  0.1541  0.1119  1.0916
  187SAPI  C31621564   4.503   2.525   8.583  0.7145  0.0946  0.1997
  187SAPI  H16X21565   4.447   2.429   8.577  2.1336 -0.6938 -1.6775
  187SAPI  H16Y21566   4.436   2.602   8.627  0.8193  1.6464 -2.1849
  187SAPI  C31721567   4.622   2.491   8.666 -0.0318  0.5370  0.0000
  187SAPI  H17X21568   4.700   2.570   8.664  0.7550 -0.2403 -1.6224
  187SAPI  H17Y21569   4.672   2.400   8.626  0.0111  0.2983  0.5918
  187SAPI  C31821570   4.582   2.463   8.814  0.0556  0.2342 -0.0642
  187SAPI  H18X21571   4.517   2.373   8.808 -1.2339  0.9078  2.5534
  187SAPI  H18Y21572   4.509   2.538   8.852  0.4344  1.0080 -0.8373
  187SAPI  H18Z21573   4.671   2.450   8.879  0.9965  1.6871 -0.9998
  188SAPI   C1221574   5.981   6.662   5.977 -0.3640  0.1654 -0.6458
  188SAPI    H221575   5.887   6.610   6.006 -0.9143  2.3348  1.7796
  188SAPI    O221576   6.066   6.574   5.911  0.8614  0.1462  0.4016
  188SAPI   HO221577   6.061   6.492   5.961 -0.9923  0.2869  0.5303
  188SAPI   C1321578   5.935   6.787   5.902 -0.5300  0.4524 -0.1576
  188SAPI    H321579   5.887   6.859   5.973  1.8349  0.8362  1.1496
  188SAPI    O321580   5.850   6.756   5.786  0.2622 -0.4718 -0.2334
  188SAPI   HO321581   5.864   6.821   5.717 -1.7392  1.0394  0.6740
  188SAPI   C1421582   6.063   6.865   5.864 -0.2948  0.2249  0.3325
  188SAPI    H421583   6.124   6.804   5.794 -2.7179 -1.2409 -0.6161
  188SAPI    O421584   6.027   6.971   5.782  0.2211 -0.3168 -0.2554
  188SAPI   HO421585   6.022   7.058   5.822 -3.4082 -0.2130 -0.6278
  188SAPI   C1521586   6.142   6.901   5.988 -0.3034  0.4531  1.3049
  188SAPI    H521587   6.071   6.955   6.054 -1.3365  1.2348 -0.3849
  188SAPI    O521588   6.251   6.989   5.961 -0.2178  0.6086  0.0818
  188SAPI   HO521589   6.220   7.078   5.978 -2.6220  0.2670 -1.9401
  188SAPI   C1621590   6.180   6.779   6.068 -0.2840 -0.4152 -0.0289
  188SAPI    H621591   6.247   6.718   6.004  1.6018 -0.8365  2.1985
  188SAPI    O621592   6.254   6.821   6.183 -0.2321  0.7285 -0.0503
  188SAPI   HO621593   6.218   6.901   6.222  3.1986  1.4423  2.0698
  188SAPI   C1121594   6.048   6.701   6.107 -0.4432 -0.2319  0.0935
  188SAPI    H121595   5.984   6.776   6.159 -1.0042  0.0255 -0.9435
  188SAPI     P21596   5.960   6.518   6.287 -0.3005 -0.5949  0.3761
  188SAPI   O1321597   5.994   6.381   6.308  0.0934 -0.5562 -0.0151
  188SAPI   O1421598   5.825   6.552   6.229 -0.5661 -0.4346 -0.4934
  188SAPI   O1221599   6.083   6.587   6.192 -0.0866  0.5776  0.6819
  188SAPI   O1121600   5.995   6.586   6.425  0.2242 -0.3910 -0.2508
  188SAPI    C121601   5.939   6.705   6.462  0.2011 -0.0363 -0.1234
  188SAPI    HA21602   5.931   6.775   6.376  1.0007 -0.3752 -0.4843
  188SAPI    HB21603   5.834   6.687   6.494  0.4563  0.6999  1.1769
  188SAPI    C221604   6.003   6.758   6.585 -0.1664 -0.4025 -0.7801
  188SAPI    HS21605   6.107   6.794   6.565 -1.0773  1.4832 -2.5773
  188SAPI   O2121606   5.988   6.655   6.690 -0.2820 -0.0612 -0.6785
  188SAPI   C2121607   6.063   6.658   6.799 -0.2436 -0.5936 -0.5875
  188SAPI   O2221608   6.159   6.734   6.813  0.3609  0.0897 -0.3650
  188SAPI   C2221609   6.017   6.563   6.906  0.2417 -0.0616  0.1869
  188SAPI   H2R21610   5.977   6.479   6.846  0.8209 -0.4066  0.2794
  188SAPI   H2S21611   6.108   6.520   6.953  1.6907  1.6712 -0.8880
  188SAPI    C321612   5.935   6.893   6.623  0.1566 -0.0068  0.3509
  188SAPI    HX21613   5.826   6.872   6.618  0.1292 -0.5248  2.2242
  188SAPI    HY21614   5.966   6.962   6.542  0.1055  0.7683  0.9787
  188SAPI   O3121615   5.961   6.934   6.757 -0.0601 -0.1627  0.2159
  188SAPI   C3121616   6.006   7.058   6.784  0.2919  0.3503  0.4221
  188SAPI   O3221617   5.996   7.146   6.698  0.3039 -0.4893  0.3729
  188SAPI   C3221618   6.053   7.071   6.923  0.6916 -0.0759  0.2767
  188SAPI   H2X21619   6.163   7.086   6.916  0.4602  2.0245  0.7266
  188SAPI   H2Y21620   6.034   6.976   6.979  0.3573  0.3330  0.8655
  188SAPI   C2321621   5.908   6.625   6.997 -0.7838  0.6842 -0.6321
  188SAPI   H3R21622   5.829   6.669   6.932 -1.0050  0.7953 -0.2911
  188SAPI   H3S21623   5.960   6.709   7.048 -1.2512  0.9126 -0.5331
  188SAPI   C2421624   5.837   6.528   7.086 -0.1332  0.8238 -0.0250
  188SAPI   H4R21625   5.765   6.470   7.024  1.1568 -1.5330  0.5418
  188SAPI   H4S21626   5.762   6.575   7.153  1.2964  0.6481  1.7946
  188SAPI   C2521627   5.934   6.440   7.165 -0.5357  0.4801 -0.9878
  188SAPI   H5R21628   5.981   6.363   7.102  1.6756 -2.1008  3.3513
  188SAPI   C2621629   5.976   6.457   7.298 -0.0159  1.3955 -0.1048
  188SAPI   H6R21630   6.050   6.382   7.329 -1.0873  1.3873  2.7860
  188SAPI   C2721631   5.929   6.553   7.399 -0.2864  0.2821  0.3872
  188SAPI   H7R21632   5.861   6.508   7.474  0.5912 -0.4259  0.7807
  188SAPI   H7S21633   5.872   6.637   7.352 -1.4976 -1.7065 -1.8882
  188SAPI   C2821634   6.049   6.618   7.470  0.0699 -0.4342  0.3537
  188SAPI   H8R21635   6.073   6.715   7.427 -3.4292 -0.5717 -2.3934
  188SAPI   C2921636   6.109   6.572   7.580 -0.3374 -0.5186 -0.3090
  188SAPI   H9R21637   6.192   6.628   7.626 -0.9472  0.0650  0.0915
  188SAPI  C21021638   6.071   6.447   7.648 -0.0291  0.0247  0.8083
  188SAPI  H10R21639   6.155   6.405   7.707  0.6319  1.3205  0.8228
  188SAPI  H10S21640   6.051   6.373   7.568  0.7429  0.1591  0.4815
  188SAPI  C21121641   5.954   6.463   7.740  0.1414 -0.2163  0.0211
  188SAPI  H11R21642   5.862   6.500   7.692 -1.1585 -4.3344 -1.0293
  188SAPI  C21221643   5.926   6.434   7.871  0.3578 -0.2894  0.4360
  188SAPI  H12R21644   5.826   6.464   7.906 -0.1571  0.2198 -1.3874
  188SAPI  C21321645   6.010   6.361   7.969 -0.3114  0.4889  0.7158
  188SAPI  H13R21646   6.075   6.431   8.026  1.8716 -0.4348 -0.5265
  188SAPI  H13S21647   6.090   6.301   7.921 -0.7655  1.2061 -1.0070
  188SAPI  C21421648   5.923   6.282   8.067 -0.5192  0.0958 -0.7342
  188SAPI  H14R21649   5.939   6.174   8.057  0.1912  0.1523 -0.2439
  188SAPI  C21521650   5.857   6.327   8.175 -0.5491  0.3189 -0.4352
  188SAPI  H15R21651   5.810   6.249   8.238  0.6932  0.8873  1.2719
  188SAPI  C21621652   5.835   6.468   8.213 -0.8657 -1.2426 -0.3354
  188SAPI  H16R21653   5.728   6.500   8.213 -0.5346 -0.0779 -0.6335
  188SAPI  H16S21654   5.897   6.529   8.144  0.4678 -3.1358 -0.8837
  188SAPI  C21721655   5.892   6.510   8.352 -0.2827  0.4030  1.1048
  188SAPI  H17R21656   6.000   6.484   8.350 -0.0755  1.2399  0.0983
  188SAPI  H17S21657   5.851   6.439   8.427  0.3235 -2.1107 -0.7849
  188SAPI  C21821658   5.860   6.656   8.381 -0.5327  0.0923 -0.2757
  188SAPI  H18R21659   5.751   6.676   8.381 -0.5611  0.1229 -1.8788
  188SAPI  H18S21660   5.908   6.723   8.307 -0.1854  1.2812  0.9941
  188SAPI  C21921661   5.924   6.698   8.515  0.2325 -0.2615 -0.2855
  188SAPI  H19R21662   5.873   6.643   8.596  3.8780 -1.3385  1.4847
  188SAPI  H19S21663   5.906   6.805   8.537  0.1025 -0.3525  0.0570
  188SAPI  C22021664   6.070   6.682   8.529 -0.0050  0.0776 -0.3587
  188SAPI  H20R21665   6.098   6.741   8.619 -1.9263 -0.9212  0.9498
  188SAPI  H20S21666   6.118   6.721   8.436  2.0897 -1.4928 -0.0001
  188SAPI  H20T21667   6.100   6.576   8.539  1.6800  0.4877 -0.7192
  188SAPI   C3321668   5.997   7.185   7.009 -0.5680 -0.5989 -1.3982
  188SAPI   H3X21669   5.897   7.217   6.972  0.5645  1.2355 -3.1219
  188SAPI   H3Y21670   6.065   7.273   6.998 -1.1690  0.3525  1.5564
  188SAPI   C3421671   5.993   7.158   7.165  0.3344 -0.3776 -0.1973
  188SAPI   H4X21672   5.930   7.068   7.184  1.4070 -0.8881  1.1132
  188SAPI   H4Y21673   5.943   7.250   7.201  0.0944  0.2073 -1.9304
  188SAPI   C3521674   6.134   7.129   7.224  0.2896 -0.0792  0.3564
  188SAPI   H5X21675   6.184   7.228   7.234  1.5139 -0.3853 -2.0846
  188SAPI   H5Y21676   6.186   7.070   7.146 -0.5504 -0.0856 -0.2093
  188SAPI   C3621677   6.132   7.049   7.355 -0.2997  0.3407 -0.1923
  188SAPI   H6X21678   6.239   7.039   7.385 -0.4916 -0.5908  0.1938
  188SAPI   H6Y21679   6.099   6.944   7.340 -0.3704  0.4648 -0.9208
  188SAPI   C3721680   6.055   7.122   7.465 -0.6562  0.1075  0.2166
  188SAPI   H7X21681   5.949   7.147   7.445 -0.5254  0.5189  0.0134
  188SAPI   H7Y21682   6.105   7.221   7.477 -0.8958  0.0103  2.3370
  188SAPI   C3821683   6.060   7.044   7.600 -0.5651  0.8380  0.2624
  188SAPI   H8X21684   5.974   6.972   7.602  1.0947 -1.3952 -2.0092
  188SAPI   H8Y21685   6.060   7.119   7.682  0.7910  1.3217 -0.1649
  188SAPI   C3921686   6.184   6.964   7.632 -0.0390  0.1080  0.3109
  188SAPI   H9X21687   6.276   7.026   7.620  0.8749 -1.2156  0.2810
  188SAPI   H9Y21688   6.205   6.888   7.554 -0.0658  0.7742 -0.3640
  188SAPI  C31021689   6.191   6.905   7.771 -0.5112 -0.2145 -0.5132
  188SAPI  H10X21690   6.112   6.831   7.792  0.2176 -1.0680 -0.7170
  188SAPI  H10Y21691   6.170   6.989   7.841 -2.3854 -0.1455 -1.1124
  188SAPI  C31121692   6.322   6.830   7.784  0.4340 -0.3959  0.4939
  188SAPI  H11X21693   6.406   6.903   7.778  1.1339 -0.8458  3.5373
  188SAPI  H11Y21694   6.350   6.748   7.715  0.1770  0.6263 -0.8719
  188SAPI  C31221695   6.348   6.766   7.922  0.0094 -0.1074 -0.0288
  188SAPI  H12X21696   6.366   6.841   8.001  2.4679  0.3010 -0.8801
  188SAPI  H12Y21697   6.441   6.705   7.915  0.4497  0.6060 -0.4439
  188SAPI  C31321698   6.239   6.662   7.976 -0.2576 -0.3076 -0.8285
  188SAPI  H13X21699   6.237   6.580   7.901  1.4537 -0.2817 -0.9428
  188SAPI  H13Y21700   6.139   6.709   7.980  0.6952  1.7263  1.2101
  188SAPI  C31421701   6.279   6.607   8.121  0.7539  0.1763 -0.1664
  188SAPI  H14X21702   6.205   6.531   8.154  1.7170 -1.0030 -0.6641
  188SAPI  H14Y21703   6.252   6.698   8.179 -1.1666 -1.2868  1.3640
  188SAPI  C31521704   6.421   6.565   8.142  0.5028  0.7822  0.2251
  188SAPI  H15X21705   6.496   6.642   8.116  0.8283  0.5626  0.5029
  188SAPI  H15Y21706   6.445   6.480   8.074  1.6516  1.0640  0.2579
  188SAPI  C31621707   6.448   6.524   8.286  0.7905 -0.8316 -0.2078
  188SAPI  H16X21708   6.546   6.472   8.290 -1.2397 -5.6629 -3.3970
  188SAPI  H16Y21709   6.363   6.455   8.304 -0.4811  0.3454 -1.4175
  188SAPI  C31721710   6.432   6.642   8.383  0.5116 -0.3008  0.0296
  188SAPI  H17X21711   6.333   6.691   8.373  0.4800 -0.5150 -0.7800
  188SAPI  H17Y21712   6.498   6.729   8.361 -0.0165  0.0053 -0.3632
  188SAPI  C31821713   6.451   6.596   8.529  0.2812  0.3727 -0.2884
  188SAPI  H18X21714   6.375   6.515   8.532  1.5298 -0.8034  0.5488
  188SAPI  H18Y21715   6.433   6.689   8.587  3.5486 -0.0591  1.6651
  188SAPI  H18Z21716   6.550   6.551   8.553 -0.1979 -1.9672 -2.3132
  189POPC     N21717   6.760   5.746  10.850 -0.0046 -0.1497 -0.1700
  189POPC   C1221718   6.892   5.732  10.786  0.1901  0.2697 -0.3965
  189POPC  H12A21719   6.899   5.628  10.756 -0.9854  0.1684 -0.3502
  189POPC  H12B21720   6.964   5.745  10.866 -1.9531  1.0051  1.5346
  189POPC   C1321721   6.771   5.673  10.975  0.5903  0.2999  0.5839
  189POPC  H13A21722   6.835   5.724  11.045  0.4212  0.5306  0.5727
  189POPC  H13B21723   6.670   5.671  11.014 -0.1097 -1.3311 -1.1743
  189POPC  H13C21724   6.786   5.567  10.964  0.4731 -0.0409  3.0503
  189POPC   C1421725   6.735   5.895  10.889 -0.3340 -0.0876  0.2532
  189POPC  H14A21726   6.704   5.950  10.801  0.1026 -0.4168 -0.1127
  189POPC  H14B21727   6.651   5.917  10.953 -1.0092  2.9954 -1.4644
  189POPC  H14C21728   6.824   5.948  10.920  0.4755 -0.3323 -1.4951
  189POPC   C1521729   6.649   5.693  10.757  0.6542  0.0843 -0.5199
  189POPC  H15A21730   6.552   5.706  10.802 -0.3901 -1.7517 -2.0915
  189POPC  H15B21731   6.669   5.588  10.743  0.2745 -0.3997  2.0504
  189POPC  H15C21732   6.649   5.731  10.656  2.0908 -1.5411 -1.1831
  189POPC   C1121733   6.940   5.815  10.663 -0.0959 -0.0709  0.1451
  189POPC  H11A21734   6.868   5.800  10.580  2.1003 -1.0946 -1.7129
  189POPC  H11B21735   7.040   5.779  10.629 -0.2916  0.1546 -0.7120
  189POPC     P21736   7.052   6.004  10.809  0.3059 -0.0605  0.2889
  189POPC   O1321737   7.111   5.891  10.886 -0.5106  0.7858  0.0292
  189POPC   O1421738   6.980   6.103  10.893 -0.3201 -0.6394  0.2268
  189POPC   O1221739   6.944   5.954  10.704 -0.5241  0.0245 -0.4275
  189POPC   O1121740   7.162   6.083  10.714 -0.6304 -0.2926 -0.0499
  189POPC    C121741   7.257   6.009  10.644  0.1750  0.3013  0.1762
  189POPC    HA21742   7.247   5.899  10.638  0.4733  0.3176 -0.9026
  189POPC    HB21743   7.359   6.020  10.686  0.2754  0.4304 -0.1008
  189POPC    C221744   7.273   6.057  10.499  1.3127 -0.7089  0.1085
  189POPC    HS21745   7.240   6.163  10.500  1.1063 -0.7435 -1.4579
  189POPC   O2121746   7.186   5.976  10.425  0.3335  0.6987 -0.3412
  189POPC   C2121747   7.067   6.033  10.395 -0.6078 -0.2374  0.1773
  189POPC   O2221748   7.035   6.151  10.413 -0.2017  0.1625 -0.5046
  189POPC   C2221749   7.000   5.927  10.318  0.3196 -0.8916  0.0468
  189POPC   H2R21750   6.978   5.851  10.396 -1.2969 -0.4780  0.0372
  189POPC   H2S21751   7.056   5.886  10.232 -0.0288 -2.1803  0.4057
  189POPC    C321752   7.418   6.042  10.434  0.2804 -0.3334  0.9153
  189POPC    HX21753   7.458   5.943  10.465 -0.1772 -1.7133 -2.3841
  189POPC    HY21754   7.492   6.107  10.484 -0.3503 -0.2640  1.7803
  189POPC   O3121755   7.417   6.061  10.289 -0.2976  0.0405  0.1371
  189POPC   C3121756   7.394   5.958  10.212  1.5149  0.2066 -0.8383
  189POPC   O3221757   7.402   5.838  10.236  0.3139  0.3397  0.4761
  189POPC   C3221758   7.360   6.013  10.073  0.0878 -0.1282 -0.0878
  189POPC   H2X21759   7.421   6.104  10.056 -0.8786  1.3385  3.3270
  189POPC   H2Y21760   7.251   6.036  10.081  0.4293  1.5939 -0.0682
  189POPC   C2321761   6.859   5.974  10.266  0.9356  0.2640  0.7289
  189POPC   H3R21762   6.805   6.023  10.350  0.2669 -1.1634  1.1756
  189POPC   H3S21763   6.819   5.873  10.242  0.0145  0.9067 -0.5334
  189POPC   C2421764   6.876   6.057  10.135  0.7970  1.1674 -0.2016
  189POPC   H4R21765   6.968   6.015  10.089  0.6080 -0.3981  0.7880
  189POPC   H4S21766   6.881   6.167  10.149 -1.0212  1.1877  0.6309
  189POPC   C2521767   6.756   6.031  10.041 -0.5450  0.1252  0.3708
  189POPC   H5R21768   6.669   6.079  10.091 -0.4470 -0.3294  0.9869
  189POPC   H5S21769   6.738   5.921  10.034  0.7742 -0.0332 -1.0709
  189POPC   C2621770   6.760   6.097   9.898 -0.4452  0.4570 -0.4349
  189POPC   H6R21771   6.752   6.208   9.900 -0.2366  0.4961  2.2218
  189POPC   H6S21772   6.687   6.052   9.827 -0.6861 -0.3301  0.2942
  189POPC   C2721773   6.886   6.062   9.825 -0.9533 -0.1221 -0.2729
  189POPC   H7R21774   6.929   5.960   9.837 -0.0261  0.1683 -0.9877
  189POPC   H7S21775   6.962   6.127   9.875  0.6436 -1.4070 -0.9206
  189POPC   C2821776   6.875   6.088   9.673  0.2412 -0.2506 -0.3479
  189POPC   H8R21777   6.815   6.178   9.649 -1.2563 -0.8747  0.8630
  189POPC   H8S21778   6.812   6.000   9.649 -0.6868  0.1398  0.5730
  189POPC   C2921779   7.006   6.103   9.608 -0.4590 -0.1221  0.4784
  189POPC   H9121780   7.090   6.129   9.674 -0.6911  1.3490  0.2396
  189POPC  C21021781   7.041   6.081   9.479  0.1329  0.4472  0.3725
  189POPC  H10121782   7.144   6.097   9.444  0.7791  1.8085  2.6726
  189POPC  C21121783   6.940   6.034   9.376 -0.1874 -0.0878  0.8814
  189POPC  H11R21784   6.899   6.113   9.309 -1.4388 -1.1355  0.3714
  189POPC  H11S21785   6.855   5.980   9.424  0.8455 -2.7026 -0.0717
  189POPC  C21221786   6.996   5.921   9.286  0.5580 -0.3981  0.2122
  189POPC  H12R21787   6.910   5.873   9.234  0.2678 -0.6516  0.9075
  189POPC  H12S21788   7.031   5.838   9.352  0.0831 -1.3570 -0.7133
  189POPC  C21321789   7.100   5.966   9.183 -0.1549 -0.2427 -0.2686
  189POPC  H13R21790   7.163   5.877   9.162 -1.1846 -0.5169 -2.4528
  189POPC  H13S21791   7.164   6.048   9.224  0.1504 -0.7697  0.3281
  189POPC  C21421792   7.043   6.008   9.045 -0.3653  0.0291  0.2180
  189POPC  H14R21793   6.946   5.955   9.030 -0.1632  0.1558 -1.7745
  189POPC  H14S21794   7.116   5.980   8.966 -4.4999 -3.3124 -2.9064
  189POPC  C21521795   6.995   6.158   9.025  0.3961  0.3619  0.1377
  189POPC  H15R21796   7.070   6.227   9.070  1.2338 -1.3958  1.5757
  189POPC  H15S21797   6.893   6.161   9.070 -0.3874 -0.5063 -1.5191
  189POPC  C21621798   6.983   6.189   8.876  0.4561 -0.0757 -0.3627
  189POPC  H16R21799   6.916   6.115   8.829  2.6724 -3.1538  0.9822
  189POPC  H16S21800   7.083   6.169   8.832  0.1147 -1.4548 -0.5533
  189POPC  C21721801   6.950   6.331   8.836 -0.5066  0.5764  0.2413
  189POPC  H17R21802   7.041   6.391   8.856  2.5534 -3.1574 -1.2216
  189POPC  H17S21803   6.870   6.379   8.898  0.4020 -0.3764  2.2679
  189POPC  C21821804   6.923   6.350   8.687  0.5237  0.0889  0.7831
  189POPC  H18R21805   6.822   6.312   8.660  1.1696 -0.7140 -0.6572
  189POPC  H18S21806   6.991   6.286   8.627 -0.1109  0.2733 -0.1661
  189POPC  H18T21807   6.915   6.454   8.650  0.9607 -0.4053 -0.7876
  189POPC   C3321808   7.394   5.903   9.965 -0.6009  0.0879  0.5828
  189POPC   H3X21809   7.321   5.820   9.973  0.7613 -1.3315 -0.9878
  189POPC   H3Y21810   7.492   5.854   9.983 -0.7345 -0.8972 -1.1213
  189POPC   C3421811   7.400   5.957   9.823  0.1112 -0.1547 -0.7293
  189POPC   H4X21812   7.484   6.030   9.823 -0.1304  0.1495  0.3378
  189POPC   H4Y21813   7.305   6.007   9.794  0.7262  0.7422 -1.2387
  189POPC   C3521814   7.427   5.846   9.727 -0.1364 -0.4573  0.0083
  189POPC   H5X21815   7.346   5.770   9.731 -0.6097  0.0511  0.0730
  189POPC   H5Y21816   7.526   5.799   9.743 -0.7143 -1.2135  1.5907
  189POPC   C3621817   7.430   5.901   9.584  0.4333  0.0434 -0.1304
  189POPC   H6X21818   7.495   5.989   9.565  1.7787 -0.5471  1.4926
  189POPC   H6Y21819   7.325   5.923   9.553 -0.4403 -0.7188  2.0669
  189POPC   C3721820   7.488   5.797   9.492  0.5084 -0.1043 -0.6186
  189POPC   H7X21821   7.427   5.704   9.497  1.7578 -0.8766  1.1205
  189POPC   H7Y21822   7.591   5.770   9.525 -0.0000  0.9501  2.1248
  189POPC   C3821823   7.490   5.847   9.349  0.8419  0.1227  0.4418
  189POPC   H8X21824   7.568   5.925   9.334  1.8899 -0.7792  1.0746
  189POPC   H8Y21825   7.388   5.885   9.326  1.2259  1.0694  0.2719
  189POPC   C3921826   7.526   5.747   9.239 -0.7024 -0.5252 -0.0170
  189POPC   H9X21827   7.452   5.665   9.252 -1.8005  0.5624  0.8002
  189POPC   H9Y21828   7.632   5.715   9.244 -0.4478  0.1558 -0.7322
  189POPC  C31021829   7.504   5.810   9.104  0.0284 -0.2454  0.1579
  189POPC  H10X21830   7.571   5.899   9.106  0.8187 -0.7677 -1.4013
  189POPC  H10Y21831   7.399   5.845   9.086 -0.4351 -0.8825  1.4994
  189POPC  C31121832   7.516   5.710   8.985  0.1813  0.4222  0.0012
  189POPC  H11X21833   7.426   5.649   8.963  1.9384 -1.2755 -3.1952
  189POPC  H11Y21834   7.601   5.641   9.004 -1.0329 -0.7474  1.4604
  189POPC  C31221835   7.550   5.790   8.854  0.0176 -0.1142 -0.0669
  189POPC  H12X21836   7.563   5.716   8.772  0.1395 -2.1687  1.7247
  189POPC  H12Y21837   7.632   5.860   8.880 -1.9512  1.6662  1.7421
  189POPC  C31321838   7.440   5.887   8.815  0.1337 -0.5355  0.2158
  189POPC  H13X21839   7.437   5.982   8.874 -0.6212  0.9647 -2.1199
  189POPC  H13Y21840   7.339   5.848   8.840  0.1681  0.0215  1.2887
  189POPC  C31421841   7.435   5.922   8.665  0.1470  0.0636  0.5419
  189POPC  H14X21842   7.404   5.834   8.605  0.6505  0.6598 -0.6238
  189POPC  H14Y21843   7.527   5.965   8.621 -1.8352  1.1688 -2.9115
  189POPC  C31521844   7.322   6.029   8.627 -0.1707 -0.5811  0.2870
  189POPC  H15X21845   7.328   6.103   8.710  0.7342  0.0629 -0.3408
  189POPC  H15Y21846   7.228   5.970   8.629  0.1210 -1.0396  0.6076
  189POPC  C31621847   7.333   6.103   8.488 -0.5161  0.0958  0.3589
  189POPC  H16X21848   7.244   6.164   8.465  0.1384  1.1264  0.4950
  189POPC  H16Y21849   7.344   6.018   8.417  2.4123  0.8112 -0.1973
  189POPC  H16Z21850   7.428   6.159   8.476  1.7123 -3.0973  1.6670
  190POPC     N21851   3.501   5.216  11.296 -0.4501 -0.9586  0.1185
  190POPC   C1221852   3.547   5.164  11.154  0.3959  0.7260 -0.3310
  190POPC  H12A21853   3.474   5.200  11.083 -1.3499 -1.7297  0.0796
  190POPC  H12B21854   3.535   5.057  11.152 -0.2608  0.7747 -2.8467
  190POPC   C1321855   3.573   5.134  11.402  0.6540 -0.0782  0.9624
  190POPC  H13A21856   3.569   5.171  11.504  1.4226  0.0448  0.9520
  190POPC  H13B21857   3.526   5.036  11.396 -1.2952  0.8844 -3.9780
  190POPC  H13C21858   3.676   5.115  11.378  0.6730  1.5771 -0.4137
  190POPC   C1421859   3.550   5.354  11.323 -0.4144  0.6584 -0.1146
  190POPC  H14A21860   3.540   5.377  11.428 -0.7538  0.4056 -0.0907
  190POPC  H14B21861   3.654   5.371  11.300 -0.5080  1.9072  0.2771
  190POPC  H14C21862   3.492   5.422  11.262  1.4725  1.1547 -1.4668
  190POPC   C1521863   3.350   5.215  11.311 -0.2260  0.2586 -0.2630
  190POPC  H15A21864   3.299   5.269  11.233  1.0275  2.5537  0.4039
  190POPC  H15B21865   3.320   5.256  11.406  0.8247 -1.1508  0.7336
  190POPC  H15C21866   3.332   5.109  11.313  2.4124 -0.3698 -2.5343
  190POPC   C1121867   3.676   5.206  11.086 -0.5575  0.4930  0.1833
  190POPC  H11A21868   3.674   5.314  11.060  1.9447  0.1218 -1.9950
  190POPC  H11B21869   3.700   5.152  10.991  1.2546  0.5732  0.5760
  190POPC     P21870   3.904   5.266  11.178  0.6953 -0.2553 -0.0280
  190POPC   O1321871   4.005   5.185  11.257  0.2992 -0.1519  0.2212
  190POPC   O1421872   3.870   5.406  11.224  0.9532 -0.0164  0.2494
  190POPC   O1221873   3.781   5.175  11.179 -0.2351  0.1338  0.7463
  190POPC   O1121874   3.944   5.277  11.028  0.1251  0.4815  0.2185
  190POPC    C121875   4.012   5.156  10.974  0.1103  0.2377 -0.6661
  190POPC    HA21876   3.982   5.061  11.023 -0.0896  0.4329 -0.4063
  190POPC    HB21877   4.118   5.162  11.008  0.6132  1.3819 -2.2871
  190POPC    C221878   4.002   5.141  10.817  0.7271 -0.2177 -0.1449
  190POPC    HS21879   4.046   5.046  10.780  0.9762 -0.1407 -0.0464
  190POPC   O2121880   4.059   5.258  10.756 -0.5273  0.0135 -0.3875
  190POPC   C2121881   4.189   5.244  10.753  0.0516 -0.3610  0.3867
  190POPC   O2221882   4.256   5.153  10.798  0.1399 -0.5763 -0.2986
  190POPC   C2221883   4.239   5.365  10.679 -0.2675 -0.0958 -0.3378
  190POPC   H2R21884   4.314   5.422  10.738 -1.4068  0.9398  0.1473
  190POPC   H2S21885   4.155   5.435  10.663 -0.1277 -0.1749 -1.4356
  190POPC    C321886   3.852   5.119  10.779 -0.1734  0.6876 -1.1819
  190POPC    HX21887   3.790   5.205  10.813 -2.9121 -1.6511  0.1289
  190POPC    HY21888   3.812   5.033  10.837  1.2876 -0.5954 -1.9956
  190POPC   O3121889   3.836   5.099  10.641 -0.4532 -0.2408 -0.3985
  190POPC   C3121890   3.821   5.209  10.569 -1.3484  0.1274  0.0917
  190POPC   O3221891   3.800   5.324  10.610 -0.2771  0.1207  0.1630
  190POPC   C3221892   3.840   5.166  10.421  0.7485  0.4937  0.0589
  190POPC   H2X21893   3.828   5.057  10.403  2.7585  0.2464 -0.0230
  190POPC   H2Y21894   3.944   5.192  10.390 -0.1761  1.5990 -2.3655
  190POPC   C2321895   4.309   5.328  10.549  0.6493  0.2270  0.0911
  190POPC   H3R21896   4.362   5.230  10.561 -1.6589 -0.7949  3.6222
  190POPC   H3S21897   4.385   5.406  10.528 -1.6576  2.5284 -0.1457
  190POPC   C2421898   4.214   5.307  10.431  0.1781 -0.1019 -0.0873
  190POPC   H4R21899   4.125   5.372  10.446 -0.1861 -0.4344 -0.7351
  190POPC   H4S21900   4.187   5.199  10.428 -0.7156  0.1321 -1.3827
  190POPC   C2521901   4.273   5.315  10.293 -0.1272 -0.3232 -0.5864
  190POPC   H5R21902   4.319   5.410  10.259 -1.0884  0.2688 -0.2754
  190POPC   H5S21903   4.197   5.297  10.214 -0.8166  1.2300 -0.3115
  190POPC   C2621904   4.399   5.225  10.280 -0.2698  0.0233  0.1219
  190POPC   H6R21905   4.377   5.117  10.294  0.5771 -0.2045 -0.2523
  190POPC   H6S21906   4.468   5.248  10.364 -0.8194 -1.4363  1.0170
  190POPC   C2721907   4.483   5.255  10.151 -0.0033  0.2160 -0.5108
  190POPC   H7R21908   4.579   5.200  10.150 -0.4214 -0.5915  0.5419
  190POPC   H7S21909   4.522   5.358  10.162  0.0321  0.0231  1.6984
  190POPC   C2821910   4.417   5.238  10.009  0.3089 -0.3233 -0.0845
  190POPC   H8R21911   4.493   5.243   9.928 -0.1897  0.8683 -0.5032
  190POPC   H8S21912   4.354   5.330   9.999 -0.0337 -0.3212  1.7100
  190POPC   C2921913   4.337   5.110   9.996 -0.3528 -1.1550  0.0677
  190POPC   H9121914   4.268   5.087  10.079 -0.3108 -0.9758  0.1545
  190POPC  C21021915   4.339   5.026   9.889  0.4953  0.2723 -0.6552
  190POPC  H10121916   4.267   4.943   9.897  0.5032  0.2627 -0.6852
  190POPC  C21121917   4.418   5.028   9.767  0.2487  0.4978 -0.1308
  190POPC  H11R21918   4.456   4.926   9.745  2.1260  0.7906  1.5393
  190POPC  H11S21919   4.504   5.099   9.765  2.8013 -2.3817  1.0500
  190POPC  C21221920   4.324   5.077   9.654  0.0690 -0.1698  0.5110
  190POPC  H12R21921   4.276   5.171   9.690  0.7308  0.5500 -0.4244
  190POPC  H12S21922   4.242   5.003   9.652 -0.3727  0.3348 -0.2296
  190POPC  C21321923   4.389   5.099   9.514 -0.5897  0.0974  0.0740
  190POPC  H13R21924   4.446   5.004   9.504 -0.4984  0.1113  0.4739
  190POPC  H13S21925   4.464   5.181   9.514  0.0753 -0.4799  1.7346
  190POPC  C21421926   4.295   5.107   9.395  0.3692 -0.0506 -0.6599
  190POPC  H14R21927   4.250   5.209   9.408  1.1709  0.2807 -0.4443
  190POPC  H14S21928   4.221   5.026   9.413  1.0293 -0.0527  2.7285
  190POPC  C21521929   4.352   5.070   9.262  0.1023  0.4886  0.0263
  190POPC  H15R21930   4.417   4.984   9.286 -0.1588  0.5303  0.8937
  190POPC  H15S21931   4.416   5.144   9.209  0.8461 -0.5366 -0.5421
  190POPC  C21621932   4.238   5.038   9.158  0.1075  0.5369  0.9780
  190POPC  H16R21933   4.173   5.127   9.141 -2.9291 -2.0675 -3.1653
  190POPC  H16S21934   4.177   4.961   9.210  1.6855 -1.0230  0.6443
  190POPC  C21721935   4.288   4.983   9.018 -0.5260 -0.1516 -0.1254
  190POPC  H17R21936   4.370   4.915   9.051 -1.2914 -0.5682  0.9799
  190POPC  H17S21937   4.326   5.070   8.960  1.5957 -1.1899 -0.3858
  190POPC  C21821938   4.186   4.906   8.929  0.1897 -0.1060 -1.0082
  190POPC  H18R21939   4.124   4.984   8.881  0.9014  0.8284 -0.4372
  190POPC  H18S21940   4.125   4.829   8.981 -0.2721  0.8189 -0.1623
  190POPC  H18T21941   4.248   4.861   8.848  0.3899 -1.2641 -0.2363
  190POPC   C3321942   3.739   5.246  10.321 -0.3562 -0.3966  0.4740
  190POPC   H3X21943   3.806   5.256  10.233  2.4678 -0.9200  2.4174
  190POPC   H3Y21944   3.714   5.347  10.360 -0.7878 -0.1810 -0.3415
  190POPC   C3421945   3.614   5.161  10.292  0.1060 -0.8846  0.0320
  190POPC   H4X21946   3.561   5.148  10.389  2.2448 -0.3158  1.3717
  190POPC   H4Y21947   3.639   5.062  10.249 -3.2194 -1.2194 -1.3519
  190POPC   C3521948   3.513   5.238  10.192 -0.3493 -0.6448  0.2569
  190POPC   H5X21949   3.494   5.334  10.245  1.9804 -1.1408  2.1264
  190POPC   H5Y21950   3.421   5.181  10.163 -0.6506 -0.4143  0.7542
  190POPC   C3621951   3.584   5.279  10.063  0.3408  0.0109 -0.2819
  190POPC   H6X21952   3.631   5.187  10.023 -1.1978 -0.7997 -0.3274
  190POPC   H6Y21953   3.666   5.349  10.088  0.0344 -0.5775  2.8093
  190POPC   C3721954   3.492   5.340   9.959  0.3865  0.3097 -0.9272
  190POPC   H7X21955   3.469   5.447   9.977  0.3185  0.0313  0.8115
  190POPC   H7Y21956   3.393   5.289   9.963  1.2788 -1.3977  0.1258
  190POPC   C3821957   3.553   5.315   9.825 -0.8111  0.5744  0.4806
  190POPC   H8X21958   3.579   5.209   9.804  1.9432  1.4043 -0.7684
  190POPC   H8Y21959   3.653   5.363   9.834  0.3573 -1.4973 -0.5521
  190POPC   C3921960   3.468   5.354   9.704  0.8024  0.4108  0.0079
  190POPC   H9X21961   3.418   5.452   9.719  0.3132 -0.0291  1.3977
  190POPC   H9Y21962   3.390   5.277   9.684 -0.5066  2.5105 -4.0934
  190POPC  C31021963   3.549   5.379   9.574 -0.1818  0.2012 -0.3979
  190POPC  H10X21964   3.599   5.281   9.560 -0.4724 -0.3143  1.7890
  190POPC  H10Y21965   3.618   5.464   9.591 -1.0614  0.8930 -0.2041
  190POPC  C31121966   3.462   5.416   9.450 -0.4782  0.1586 -0.3750
  190POPC  H11X21967   3.425   5.520   9.452  0.0481  0.3538 -0.5139
  190POPC  H11Y21968   3.375   5.347   9.450  1.5212 -2.6160  0.8159
  190POPC  C31221969   3.553   5.401   9.319 -0.4612 -0.2800  0.5709
  190POPC  H12X21970   3.596   5.300   9.302  1.8346  0.8728 -0.9247
  190POPC  H12Y21971   3.629   5.476   9.347 -1.2546  0.4615  0.7892
  190POPC  C31321972   3.495   5.441   9.179 -0.3213  0.1950  0.5303
  190POPC  H13X21973   3.477   5.550   9.175 -1.0420  0.0530 -2.4890
  190POPC  H13Y21974   3.395   5.398   9.157 -0.7234  1.5292 -0.3621
  190POPC  C31421975   3.592   5.403   9.065  0.5267 -0.1902 -0.1496
  190POPC  H14X21976   3.602   5.292   9.062  0.6689 -0.1901  0.1945
  190POPC  H14Y21977   3.693   5.442   9.088  0.4705  1.4397 -2.3153
  190POPC  C31521978   3.543   5.467   8.936 -0.2752 -0.1755 -0.5079
  190POPC  H15X21979   3.542   5.576   8.957 -1.5179 -0.0747 -0.9752
  190POPC  H15Y21980   3.437   5.439   8.918 -0.0590 -0.2737 -1.7171
  190POPC  C31621981   3.616   5.433   8.806  0.5401  0.7623 -0.0188
  190POPC  H16X21982   3.726   5.426   8.818  0.3674 -0.9497  0.9294
  190POPC  H16Y21983   3.598   5.509   8.727  2.1175  0.7056 -0.4609
  190POPC  H16Z21984   3.578   5.336   8.768 -0.9366  1.3838 -0.1962
  191POPC     N21985   0.880   3.752   6.241  0.6446 -0.1735 -0.4948
  191POPC   C1221986   0.732   3.756   6.276 -0.1631 -0.1149 -0.4443
  191POPC  H12A21987   0.687   3.683   6.210  1.3198 -1.1273 -0.3787
  191POPC  H12B21988   0.692   3.851   6.243 -1.5493 -0.6625 -0.4278
  191POPC   C1321989   0.924   3.612   6.252 -0.0997  0.4734 -0.6674
  191POPC  H13A21990   1.027   3.586   6.230  0.7768  2.5010  0.6921
  191POPC  H13B21991   0.917   3.591   6.358  1.4331  0.7296 -0.4843
  191POPC  H13C21992   0.858   3.546   6.199 -0.2128  0.1354 -0.1154
  191POPC   C1421993   0.900   3.811   6.106 -0.3223  0.1732 -0.3084
  191POPC  H14A21994   1.004   3.826   6.079 -0.7739 -1.9092 -3.8247
  191POPC  H14B21995   0.857   3.751   6.027  0.8158  1.8678 -2.3159
  191POPC  H14C21996   0.856   3.909   6.097  2.7889  1.4901 -3.2276
  191POPC   C1521997   0.950   3.837   6.337  0.1712  0.7965 -0.6688
  191POPC  H15A21998   0.905   3.819   6.433  2.6938  1.7415  0.7843
  191POPC  H15B21999   0.927   3.939   6.309 -1.6051  0.6382  0.0937
  191POPC  H15C22000   1.058   3.836   6.338  0.1815  1.0897 -1.1075
  191POPC   C1122001   0.688   3.728   6.420  0.4657  0.6456  0.5297
  191POPC  H11A22002   0.580   3.754   6.417  0.2642 -0.1656 -1.7599
  191POPC  H11B22003   0.729   3.792   6.500 -1.3580 -0.4802  2.4694
  191POPC     P22004   0.598   3.477   6.465  0.0266  0.0800  0.6332
  191POPC   O1322005   0.596   3.400   6.345  0.2091 -0.1872  0.1669
  191POPC   O1422006   0.468   3.538   6.490  0.4565  0.6242 -0.2986
  191POPC   O1222007   0.717   3.593   6.447 -0.1412  0.1651 -0.4489
  191POPC   O1122008   0.645   3.384   6.584  0.4097 -0.5725  0.3900
  191POPC    C122009   0.760   3.406   6.662 -0.1429  0.3497 -0.0203
  191POPC    HA22010   0.756   3.506   6.709 -0.9469  0.6886 -0.7737
  191POPC    HB22011   0.851   3.408   6.598  0.3780 -1.0078  0.6559
  191POPC    C222012   0.773   3.304   6.773 -0.2780 -0.7581  0.4752
  191POPC    HS22013   0.682   3.240   6.782 -0.3843 -0.4577  1.7677
  191POPC   O2122014   0.803   3.369   6.901 -0.3134 -0.0538  1.1008
  191POPC   C2122015   0.723   3.334   6.999 -0.9227 -0.0808  0.3313
  191POPC   O2222016   0.606   3.302   6.986  0.9738 -0.4980  0.2003
  191POPC   C2222017   0.798   3.337   7.134 -0.4160 -0.2842  0.6327
  191POPC   H2R22018   0.819   3.444   7.156 -1.7606  0.7061 -2.4138
  191POPC   H2S22019   0.900   3.295   7.122 -1.1996 -3.0797  2.6836
  191POPC    C322020   0.890   3.204   6.738  0.0032  0.3716 -0.6044
  191POPC    HX22021   0.976   3.275   6.733  0.0354  0.2597 -2.0783
  191POPC    HY22022   0.875   3.159   6.638  1.2109 -1.1444 -0.1444
  191POPC   O3122023   0.905   3.100   6.842 -0.3626 -0.0023 -0.1037
  191POPC   C3122024   0.843   2.985   6.817 -0.0543 -0.1029  1.1005
  191POPC   O3222025   0.766   2.969   6.722 -0.7020  0.3903 -0.3122
  191POPC   C3222026   0.859   2.886   6.931  0.3234 -0.2520 -0.2616
  191POPC   H2X22027   0.962   2.845   6.934 -0.9750 -3.8270  1.8307
  191POPC   H2Y22028   0.787   2.802   6.917  0.3183 -0.2582 -0.1942
  191POPC   C2322029   0.715   3.279   7.249 -0.0101  0.8542 -0.9529
  191POPC   H3R22030   0.711   3.170   7.229  0.1228  0.9183 -1.3322
  191POPC   H3S22031   0.614   3.322   7.233  0.2811  1.2090 -1.8688
  191POPC   C2422032   0.773   3.309   7.390  0.0639  0.0621  0.5076
  191POPC   H4R22033   0.765   3.417   7.415  1.0260 -0.0312  1.2660
  191POPC   H4S22034   0.875   3.267   7.392  0.3251  0.3542 -2.4241
  191POPC   C2522035   0.696   3.241   7.507 -0.3295  0.1000 -0.0364
  191POPC   H5R22036   0.694   3.131   7.494  0.4038  0.3092 -2.3479
  191POPC   H5S22037   0.589   3.270   7.514 -0.4850 -0.8460  2.2955
  191POPC   C2622038   0.761   3.281   7.643 -0.2150 -0.8548  0.5711
  191POPC   H6R22039   0.738   3.389   7.652 -1.3889 -1.0318 -0.0431
  191POPC   H6S22040   0.868   3.263   7.618 -0.4705 -0.4645 -0.9170
  191POPC   C2722041   0.724   3.195   7.765  0.6537  0.7296 -0.1458
  191POPC   H7R22042   0.725   3.097   7.712  1.3724  0.4142  0.4252
  191POPC   H7S22043   0.623   3.224   7.800  0.8952 -0.9962  2.3129
  191POPC   C2822044   0.820   3.210   7.889 -0.0926  1.2117  0.0206
  191POPC   H8R22045   0.921   3.165   7.879 -0.2649  0.2854  1.9425
  191POPC   H8S22046   0.780   3.148   7.972  0.7879  1.9370  0.9978
  191POPC   C2922047   0.839   3.345   7.944  0.2604  0.1920  0.3966
  191POPC   H9122048   0.892   3.410   7.872  0.9721  0.0866  0.8099
  191POPC  C21022049   0.804   3.398   8.061  0.2016  0.3207  0.2806
  191POPC  H10122050   0.839   3.499   8.085 -0.1107  0.5906 -0.3726
  191POPC  C21122051   0.735   3.332   8.169  0.0456 -0.4974 -0.4232
  191POPC  H11R22052   0.723   3.223   8.157 -1.3676 -0.1909 -2.1027
  191POPC  H11S22053   0.631   3.371   8.173 -0.6247 -2.1561 -0.9124
  191POPC  C21222054   0.812   3.366   8.301 -0.0185 -0.1570  0.2704
  191POPC  H12R22055   0.830   3.475   8.312 -1.9293  0.3394 -1.0025
  191POPC  H12S22056   0.910   3.315   8.293 -1.2452 -2.7453  0.3947
  191POPC  C21322057   0.737   3.325   8.435  0.7901  0.1294 -0.0041
  191POPC  H13R22058   0.632   3.350   8.410  0.3369 -1.4825  0.1589
  191POPC  H13S22059   0.765   3.395   8.516  0.5359 -1.2010  1.2777
  191POPC  C21422060   0.738   3.174   8.480  0.0396  0.0637 -0.3530
  191POPC  H14R22061   0.676   3.115   8.409 -0.1813  2.3839 -2.2292
  191POPC  H14S22062   0.695   3.163   8.582  3.7616 -4.6695  1.0628
  191POPC  C21522063   0.880   3.109   8.468 -0.0708 -0.4455  0.4165
  191POPC  H15R22064   0.936   3.154   8.383  2.5425  1.0468  2.7326
  191POPC  H15S22065   0.866   2.999   8.460 -1.1305 -0.6231  3.4443
  191POPC  C21622066   0.980   3.133   8.580 -0.1144 -0.3277 -0.0598
  191POPC  H16R22067   0.993   3.241   8.604  1.5355 -0.5347  0.0294
  191POPC  H16S22068   1.077   3.097   8.540  0.1893 -0.0062  0.3766
  191POPC  C21722069   0.970   3.056   8.711 -0.3492 -0.3413 -0.7797
  191POPC  H17R22070   0.888   3.098   8.773  0.6634 -0.3385  0.6018
  191POPC  H17S22071   1.063   3.074   8.770 -1.1863  2.3442 -0.1438
  191POPC  C21822072   0.941   2.912   8.703  0.3511 -0.0595 -0.6025
  191POPC  H18R22073   0.950   2.867   8.804  2.5955  0.9397 -0.2872
  191POPC  H18S22074   1.010   2.861   8.633  0.3951 -2.4855  1.0706
  191POPC  H18T22075   0.839   2.894   8.664  0.1447 -1.0799  0.3622
  191POPC   C3322076   0.823   2.952   7.065 -0.1658  0.3955 -0.1085
  191POPC   H3X22077   0.719   2.990   7.064 -0.8247 -1.2466  1.2562
  191POPC   H3Y22078   0.903   3.024   7.093  0.8826 -0.3630 -1.0205
  191POPC   C3422079   0.837   2.851   7.182  0.1770 -0.9555  0.5547
  191POPC   H4X22080   0.933   2.802   7.158 -0.1761 -0.8677 -1.1690
  191POPC   H4Y22081   0.757   2.773   7.182 -0.3596 -0.4547 -1.0846
  191POPC   C3522082   0.840   2.913   7.319  0.0689 -1.2577  0.7281
  191POPC   H5X22083   0.733   2.936   7.336  0.7262 -0.2140  4.7473
  191POPC   H5Y22084   0.898   3.007   7.306 -0.8761 -0.9201 -1.4536
  191POPC   C3622085   0.889   2.821   7.426  0.9860  0.4869 -0.1492
  191POPC   H6X22086   1.000   2.824   7.420  0.9122 -0.0912 -2.9101
  191POPC   H6Y22087   0.852   2.717   7.412  0.1404  1.1306 -3.7201
  191POPC   C3722088   0.844   2.870   7.567 -0.4895  0.1898 -0.6396
  191POPC   H7X22089   0.734   2.873   7.579 -0.2688  0.9247  1.6446
  191POPC   H7Y22090   0.891   2.969   7.587  2.5833 -1.0101 -1.2622
  191POPC   C3822091   0.892   2.785   7.687 -0.2203  0.0636 -0.0462
  191POPC   H8X22092   1.001   2.806   7.701 -0.2775 -0.6882  1.8296
  191POPC   H8Y22093   0.875   2.676   7.678 -0.3401 -0.1854  2.5465
  191POPC   C3922094   0.827   2.819   7.826 -0.7194  0.4153 -0.5978
  191POPC   H9X22095   0.717   2.820   7.816 -0.7061  0.4484 -0.7321
  191POPC   H9Y22096   0.853   2.917   7.872 -0.5637 -0.2637  0.8385
  191POPC  C31022097   0.852   2.705   7.936 -0.4879  0.4256  0.4637
  191POPC  H10X22098   0.962   2.686   7.941 -0.6862 -1.7774 -1.5427
  191POPC  H10Y22099   0.812   2.607   7.902 -0.5921  0.3556  0.7919
  191POPC  C31122100   0.775   2.739   8.067  0.1604  0.2673 -1.1599
  191POPC  H11X22101   0.664   2.738   8.058 -0.0329  0.7873  0.8862
  191POPC  H11Y22102   0.811   2.840   8.093  2.1541 -0.3061 -1.5065
  191POPC  C31222103   0.833   2.662   8.189 -0.7866 -0.4972  0.4167
  191POPC  H12X22104   0.944   2.664   8.190 -0.7820 -0.0019 -0.2679
  191POPC  H12Y22105   0.797   2.557   8.190 -0.1509 -0.7557 -1.2706
  191POPC  C31322106   0.791   2.749   8.306 -0.4049  0.3481  0.5364
  191POPC  H13X22107   0.819   2.856   8.296  0.3304 -0.0621 -2.7502
  191POPC  H13Y22108   0.836   2.706   8.399  2.3292 -1.7721 -1.5739
  191POPC  C31422109   0.641   2.751   8.322 -0.8116  0.4003  0.5155
  191POPC  H14X22110   0.594   2.661   8.275  1.5388 -0.5880 -0.0871
  191POPC  H14Y22111   0.595   2.840   8.275  0.4658  0.0614 -1.5274
  191POPC  C31522112   0.608   2.751   8.472  0.3488  0.2417  0.0588
  191POPC  H15X22113   0.670   2.826   8.525 -0.7446  0.6929  0.7230
  191POPC  H15Y22114   0.634   2.652   8.516 -3.0326 -0.5421  0.6048
  191POPC  C31622115   0.464   2.770   8.509  0.3041 -0.3982 -0.5390
  191POPC  H16X22116   0.404   2.683   8.474 -0.2244 -0.8985  1.4834
  191POPC  H16Y22117   0.414   2.864   8.479 -0.9810 -1.4137 -1.7381
  191POPC  H16Z22118   0.454   2.767   8.619  0.2857  0.5695 -0.5075
  192POPC     N22119   6.244   1.337   6.198 -0.3091 -0.3481 -0.0480
  192POPC   C1222120   6.099   1.307   6.222 -0.3756 -0.0753 -0.3498
  192POPC  H12A22121   6.072   1.216   6.170 -2.5651  1.4069 -1.9898
  192POPC  H12B22122   6.031   1.374   6.172 -0.4368  0.1249 -0.0042
  192POPC   C1322123   6.274   1.332   6.050  0.3670 -0.8653  0.4647
  192POPC  H13A22124   6.204   1.391   5.993  3.0110  1.0588 -1.0008
  192POPC  H13B22125   6.373   1.370   6.031  0.3677 -1.6192 -1.2148
  192POPC  H13C22126   6.266   1.235   6.003  1.8350 -0.8013  0.0271
  192POPC   C1422127   6.291   1.470   6.263  0.0090  0.6085  0.2724
  192POPC  H14A22128   6.246   1.493   6.359  0.2087 -0.4173  0.6221
  192POPC  H14B22129   6.398   1.474   6.278  0.3087 -2.1917 -0.6931
  192POPC  H14C22130   6.259   1.553   6.202  1.1779  0.7025 -0.2354
  192POPC   C1522131   6.328   1.222   6.249 -0.1758 -0.1611 -0.4784
  192POPC  H15A22132   6.303   1.119   6.232  2.6818 -1.0704  0.3013
  192POPC  H15B22133   6.313   1.219   6.356 -1.8156  1.9980 -0.5895
  192POPC  H15C22134   6.433   1.237   6.225 -0.2263  2.9929  0.7382
  192POPC   C1122135   6.063   1.308   6.373  0.0403 -0.0297  0.2839
  192POPC  H11A22136   6.072   1.407   6.421  0.2840  0.8797 -1.5362
  192POPC  H11B22137   6.120   1.227   6.424 -1.8617 -0.9613  1.0271
  192POPC     P22138   5.805   1.367   6.399 -0.0796  0.1873  0.2444
  192POPC   O1322139   5.672   1.294   6.409  0.2212  0.6230  0.0694
  192POPC   O1422140   5.815   1.483   6.307  0.5793  0.0772  0.1067
  192POPC   O1222141   5.923   1.268   6.371 -0.1582  0.2357  0.0172
  192POPC   O1122142   5.840   1.421   6.543  0.2981  0.4419 -0.4432
  192POPC    C122143   5.839   1.334   6.658 -1.1528  0.5138 -0.0866
  192POPC    HA22144   5.919   1.364   6.730 -0.6892  4.5373 -1.9945
  192POPC    HB22145   5.849   1.225   6.640  1.3327  0.3667  1.6190
  192POPC    C222146   5.712   1.361   6.739  0.5830 -0.0450 -0.1743
  192POPC    HS22147   5.625   1.355   6.669  0.7584  2.7037 -0.7618
  192POPC   O2122148   5.716   1.496   6.802 -0.2352 -0.2514  0.1946
  192POPC   C2122149   5.597   1.533   6.854  0.0428 -0.1656 -0.7389
  192POPC   O2222150   5.495   1.470   6.848 -0.1663  0.1830 -0.1616
  192POPC   C2222151   5.622   1.652   6.941 -0.7345  0.0395 -0.1150
  192POPC   H2R22152   5.568   1.739   6.899 -0.1674 -0.4964 -2.0299
  192POPC   H2S22153   5.730   1.669   6.958 -0.9128  0.2291  0.9401
  192POPC    C322154   5.687   1.251   6.845  0.3239 -0.2823  0.1868
  192POPC    HX22155   5.657   1.158   6.792 -1.9930  0.2558  0.4217
  192POPC    HY22156   5.595   1.286   6.897  0.6682  4.4018 -1.8603
  192POPC   O3122157   5.804   1.234   6.920 -0.3742  0.1821  0.1643
  192POPC   C3122158   5.790   1.276   7.042 -0.5236 -0.5764 -0.4220
  192POPC   O3222159   5.693   1.319   7.102  0.0212  0.0994  0.3495
  192POPC   C3222160   5.920   1.250   7.121 -0.1092  0.0129  0.2165
  192POPC   H2X22161   6.012   1.265   7.061  1.2024 -1.7974  1.6450
  192POPC   H2Y22162   5.922   1.141   7.144  1.5736  0.3311  1.7747
  192POPC   C2322163   5.565   1.636   7.086  0.0733 -0.8265  0.0294
  192POPC   H3R22164   5.608   1.545   7.132 -0.4337 -0.1024  2.0621
  192POPC   H3S22165   5.454   1.627   7.078  0.0254  0.3011 -0.8652
  192POPC   C2422166   5.588   1.756   7.190 -0.0224 -0.0112  0.3843
  192POPC   H4R22167   5.535   1.839   7.140  0.4727  0.1750  0.1627
  192POPC   H4S22168   5.696   1.783   7.193 -0.2248  0.9434 -0.3972
  192POPC   C2522169   5.536   1.725   7.331  0.3073  0.0177 -0.1322
  192POPC   H5R22170   5.428   1.697   7.322  0.3531 -0.4740  0.7320
  192POPC   H5S22171   5.534   1.815   7.395 -0.7235  2.4303 -3.3136
  192POPC   C2622172   5.608   1.601   7.395 -0.2704 -0.0927 -0.1595
  192POPC   H6R22173   5.715   1.612   7.423  0.0989  0.4124 -1.6575
  192POPC   H6S22174   5.612   1.514   7.326  2.2108 -1.4950  1.5944
  192POPC   C2722175   5.540   1.552   7.521  0.6886  0.5254  0.2615
  192POPC   H7R22176   5.460   1.481   7.491 -0.0421  1.6920 -0.6621
  192POPC   H7S22177   5.500   1.639   7.577 -0.2218 -0.0918  0.5872
  192POPC   C2822178   5.644   1.490   7.621  0.4356 -0.2212  0.4163
  192POPC   H8R22179   5.718   1.568   7.651 -0.1043  0.4694 -0.0206
  192POPC   H8S22180   5.696   1.411   7.562 -1.1223  0.4179 -1.9394
  192POPC   C2922181   5.571   1.448   7.746  0.0402 -0.0081 -0.0642
  192POPC   H9122182   5.486   1.380   7.729  0.2391 -1.0217  2.4912
  192POPC  C21022183   5.600   1.489   7.875  0.1447 -0.2600  0.2469
  192POPC  H10122184   5.543   1.440   7.956 -0.1566 -1.2141 -0.5150
  192POPC  C21122185   5.712   1.580   7.915 -0.2632 -0.1558  0.0470
  192POPC  H11R22186   5.693   1.619   8.018  0.3146 -2.0967  0.9481
  192POPC  H11S22187   5.693   1.677   7.864 -2.2040  0.2961  1.4870
  192POPC  C21222188   5.853   1.531   7.895 -0.2852  0.2244 -0.1102
  192POPC  H12R22189   5.894   1.558   7.795  1.6718  1.3371  0.9221
  192POPC  H12S22190   5.858   1.420   7.906  2.4612  0.4260  1.8734
  192POPC  C21322191   5.958   1.589   8.002  0.6499  0.3799  0.0661
  192POPC  H13R22192   5.955   1.700   8.009 -1.5538  0.2712  3.3225
  192POPC  H13S22193   6.061   1.551   7.981  0.8547 -0.1039  1.7258
  192POPC  C21422194   5.931   1.532   8.136  0.4121  0.2307 -0.9662
  192POPC  H14R22195   5.937   1.421   8.124  0.6809  0.3272 -1.7870
  192POPC  H14S22196   5.828   1.558   8.168  1.1717  0.3059  1.7149
  192POPC  C21522197   6.040   1.577   8.240  0.4980 -0.0774  0.4656
  192POPC  H15R22198   6.036   1.688   8.233 -1.2988 -0.0495  1.2569
  192POPC  H15S22199   6.144   1.544   8.219  0.1808 -0.2323 -0.9353
  192POPC  C21622200   6.013   1.534   8.386  0.3217 -0.0136 -0.2278
  192POPC  H16R22201   5.985   1.427   8.379 -1.7191  0.4144  0.8213
  192POPC  H16S22202   5.918   1.580   8.421 -0.8381  0.1965 -3.3502
  192POPC  C21722203   6.130   1.570   8.480  0.2881  0.2860  1.0395
  192POPC  H17R22204   6.143   1.680   8.495 -0.9623  0.7817 -1.1457
  192POPC  H17S22205   6.220   1.525   8.433 -0.0312  0.6890  0.0207
  192POPC  C21822206   6.111   1.506   8.622 -0.2392  0.2164  0.1853
  192POPC  H18R22207   6.086   1.401   8.598  0.6017 -0.2137  1.1376
  192POPC  H18S22208   6.024   1.547   8.677 -0.7151 -1.4962  0.7462
  192POPC  H18T22209   6.203   1.516   8.684 -1.5139  0.7832  2.0685
  192POPC   C3322210   5.922   1.339   7.247 -0.4556 -0.0662 -0.0829
  192POPC   H3X22211   5.835   1.332   7.315  0.4324  0.7316  1.1639
  192POPC   H3Y22212   5.926   1.442   7.205  0.2852 -0.1816 -0.3192
  192POPC   C3422213   6.051   1.326   7.328  0.5888 -0.7083  0.4792
  192POPC   H4X22214   6.132   1.391   7.290  0.2823 -0.4394  0.2787
  192POPC   H4Y22215   6.091   1.223   7.334  1.1761 -0.4240  1.9388
  192POPC   C3522216   6.034   1.345   7.482 -0.4346 -0.7260  0.4918
  192POPC   H5X22217   5.943   1.293   7.517 -1.8790  1.8255  0.7719
  192POPC   H5Y22218   6.006   1.453   7.488 -4.2211 -1.5680  0.7247
  192POPC   C3622219   6.158   1.319   7.564  0.0405  0.2994 -1.0593
  192POPC   H6X22220   6.232   1.397   7.539  0.7973  0.4599  1.3868
  192POPC   H6Y22221   6.211   1.228   7.530 -3.1974 -1.7952 -0.9979
  192POPC   C3722222   6.145   1.333   7.719 -0.4080 -0.8053 -0.1148
  192POPC   H7X22223   6.040   1.336   7.753 -0.2228 -1.7123  0.5897
  192POPC   H7Y22224   6.201   1.419   7.761  0.1908 -1.0562 -0.3798
  192POPC   C3822225   6.203   1.213   7.788  0.3200 -0.4248  0.3285
  192POPC   H8X22226   6.307   1.192   7.756  0.1948  0.4531 -0.7402
  192POPC   H8Y22227   6.148   1.124   7.752 -1.0492  0.1011  1.0239
  192POPC   C3922228   6.196   1.220   7.940 -0.1480 -0.0787  0.8295
  192POPC   H9X22229   6.092   1.205   7.974 -0.7957 -2.1170 -1.6779
  192POPC   H9Y22230   6.228   1.324   7.959  3.5441 -1.5186  3.6956
  192POPC  C31022231   6.298   1.121   8.009 -0.6965 -0.1869 -0.5203
  192POPC  H10X22232   6.403   1.136   7.976 -0.2466  1.7521  1.5423
  192POPC  H10Y22233   6.275   1.014   7.990 -0.0380 -0.4002 -0.1439
  192POPC  C31122234   6.294   1.121   8.165  0.1226 -0.4590  0.8730
  192POPC  H11X22235   6.288   1.227   8.198 -2.2505 -0.6586  1.2077
  192POPC  H11Y22236   6.391   1.090   8.208  0.0871 -1.6662  0.1166
  192POPC  C31222237   6.194   1.027   8.231  0.3824 -0.4112 -0.7007
  192POPC  H12X22238   6.196   0.919   8.206 -4.7038 -1.0693  0.5427
  192POPC  H12Y22239   6.090   1.057   8.206  0.2884  2.8753  2.6997
  192POPC  C31322240   6.178   1.032   8.383  0.0150  1.2716  0.0773
  192POPC  H13X22241   6.134   1.128   8.417 -1.3488  0.0217  2.0738
  192POPC  H13Y22242   6.282   1.034   8.420  0.2179  3.4520 -0.4767
  192POPC  C31422243   6.091   0.918   8.445  0.4642 -0.0027  0.5870
  192POPC  H14X22244   6.003   0.900   8.380  1.9833 -0.2525 -1.5297
  192POPC  H14Y22245   6.057   0.948   8.547 -1.1577 -2.3133  0.8208
  192POPC  C31522246   6.162   0.782   8.462  0.3708  0.2706  0.4445
  192POPC  H15X22247   6.252   0.797   8.526  1.6515  0.1813 -1.2911
  192POPC  H15Y22248   6.210   0.749   8.368  1.2495  1.9778  0.2486
  192POPC  C31622249   6.072   0.675   8.520  0.2839  0.0668  0.3230
  192POPC  H16X22250   6.134   0.585   8.539  0.4813  0.2176  0.3989
  192POPC  H16Y22251   5.989   0.645   8.453  0.9772 -2.2768  0.4358
  192POPC  H16Z22252   6.030   0.723   8.611  0.7653 -0.4339  0.8124
  193SOD    SOD22253   4.398   1.115   4.127  0.8056  0.0019 -0.1371
  194SOD    SOD22254   3.766   2.477  10.845  0.2942  0.6213 -0.6307
  195SOD    SOD22255   4.147   1.927   3.690 -0.0894  0.1157 -0.2690
  196SOD    SOD22256   2.337   1.204   3.443  0.0097 -0.1752 -0.1397
  197SOD    SOD22257   0.561   1.621  15.404  0.0160 -0.3005 -0.0730
  198SOD    SOD22258   2.378   1.690   1.149  0.0969 -0.2088  0.5089
  199SOD    SOD22259   0.103   5.082   6.439  0.3335  0.2284  0.2369
  200SOD    SOD22260   3.079   1.841   5.053 -0.3091 -0.4542 -0.1487
  201SOD    SOD22261   1.669   6.305   4.424 -0.2076 -0.5136  0.0497
  202SOD    SOD22262   2.039   2.426   2.978 -0.9436 -0.3981 -0.3697
  203SOD    SOD22263   0.765   1.904   1.942 -0.2608  0.7750  0.0727
  204SOD    SOD22264   0.137   1.620   0.801 -0.1704  0.5417  0.1041
  205SOD    SOD22265   1.990   4.036   6.046  0.1754  0.2665  0.2109
  206SOD    SOD22266   3.698   2.856  17.316  0.2363  0.3705 -0.1710
  207SOD    SOD22267   1.367   4.516   0.038 -0.1039  0.3883  0.2558
  208SOD    SOD22268   2.531   6.691   1.985  0.2144  0.3815  0.2519
  209SOD    SOD22269   0.953   5.569   1.115 -0.1202  0.3512 -0.2063
  210SOD    SOD22270   4.159   2.238  13.624  0.1510 -0.0237  0.4880
  211SOD    SOD22271   4.581   0.701  16.203 -0.0387 -0.2844 -0.0041
  212SOD    SOD22272   4.275   2.031  16.752  0.5460  0.4737 -0.0614
  213SOD    SOD22273   5.393   4.056  10.573 -0.0374 -0.1607  0.0517
  214SOD    SOD22274   5.460   6.579   2.086  0.0463 -0.1945  0.0816
  215SOD    SOD22275   1.234   4.812   5.812 -0.0493 -0.1422 -0.6813
  216SOD    SOD22276   0.933   1.154   3.823  0.0665  0.0140  0.2034
  217SOD    SOD22277   4.758   3.135  13.254  1.1248  0.0547  0.4683
  218SOD    SOD22278   4.277   0.965  10.858  0.3155  0.2022 -0.1397
  219SOD    SOD22279   0.635   0.728   4.437  0.2045 -0.9649 -0.0021
  220SOD    SOD22280   1.644   0.185  16.152 -0.3097  0.0832 -0.4379
  221SOD    SOD22281   4.070   5.420  11.644  0.3094  0.2685  0.2055
  222SOD    SOD22282   1.344   6.470  16.770 -0.1006 -0.5148  0.1133
  223SOD    SOD22283   1.248   4.330  11.181 -0.2185  0.3144 -0.4469
  224SOD    SOD22284   1.389   2.781   5.629  0.1453  0.0104 -0.1046
  225SOD    SOD22285   6.451   4.838  10.611 -0.1842 -0.3084 -0.2364
  226SOD    SOD22286   5.711   0.203  16.013 -0.0600 -0.2598  0.2463
  227SOD    SOD22287   0.183   4.350   0.389 -0.0611  0.2443  0.3927
  228SOD    SOD22288   6.583   3.611   4.951  0.1304  0.0059 -0.3169
  229SOD    SOD22289   5.077   1.235   3.575 -0.0844 -0.5703  0.3885
  230SOD    SOD22290   0.369   1.913   1.531  0.0656 -0.5641  0.4160
  231SOD    SOD22291   0.142   0.297  12.719  0.0448 -0.4052 -0.1130
  232SOD    SOD22292   5.854   2.389  15.241  0.5209  0.5048 -0.2945
  233SOD    SOD22293   5.281   5.842  15.486  0.0929  0.1679 -0.3905
  234SOD    SOD22294   6.400   2.658  11.351  0.1822 -0.3470 -0.1066
  235SOD    SOD22295   0.193   3.796  12.887  0.0523 -0.5590 -0.0114
  236SOD    SOD22296   3.303   1.405   0.770  0.2582 -0.6464 -0.2206
  237SOD    SOD22297   0.071   2.835  16.474  0.7150 -0.0769  0.3319
  238SOD    SOD22298   2.371   4.897  16.956 -0.0353 -0.2235 -0.1135
  239SOD    SOD22299   1.308   0.973   0.423  0.4544 -0.2261 -0.0309
  240SOD    SOD22300   4.256   1.760  11.691  0.0866  0.0973 -0.1316
  241SOD    SOD22301   6.164   3.294  16.051 -0.4486  0.2592  0.2590
  242SOD    SOD22302   3.589   5.067   4.290  0.0388 -0.2032 -0.3144
  243SOD    SOD22303   1.422   1.568  10.817  0.0990 -0.0389  0.1529
  244SOD    SOD22304   6.449   2.425   6.359  0.1214 -0.0054 -0.4787
  245SOD    SOD22305   1.184   5.754  11.936  0.3446 -0.0664 -0.2833
  246SOD    SOD22306   6.055   0.400  10.750 -0.3790  0.0712  0.1038
  247SOD    SOD22307   5.014   4.958   1.627  0.2288 -0.6011  0.4662
  248SOD    SOD22308   4.215   0.045  10.523 -0.1586  0.1289  0.3784
  249SOD    SOD22309   5.557   2.194   3.315  0.1451  0.2395 -0.1480
  250SOD    SOD22310   6.436   0.320   0.651 -0.6455 -0.0364  0.1526
  251SOD    SOD22311   6.650   0.048  16.255 -0.2079  0.4055  0.1050
  252SOD    SOD22312   6.145   5.514   4.551 -0.1426  0.0552 -0.2592
  253SOD    SOD22313   1.584   2.955  16.910  0.1531 -0.1648 -0.4116
  254SOD    SOD22314   3.389   4.870  14.864 -0.1673 -0.0528  0.0875
  255SOD    SOD22315   6.039   6.207   6.162 -0.2463 -0.2859  0.0677
  256SOD    SOD22316   1.178   2.088   3.499  0.3689  0.6447  0.0022
  257SOD    SOD22317   5.146   3.383   3.649  0.1038  0.0123 -0.3885
  258SOD    SOD22318   3.003   4.011  13.731  0.0195 -0.3456 -0.4323
  259SOD    SOD22319   3.511   1.572   3.997 -0.0893  0.5087  0.3266
  260SOD    SOD22320   4.560   3.156   6.220  0.4056  0.0359  0.1865
  261SOD    SOD22321   1.439   2.855   0.664  0.1067 -0.2527 -0.2444
  262SOD    SOD22322   5.509   3.729   6.200  0.2410  0.6810 -0.0919
  263SOD    SOD22323   3.675   3.061  13.632 -0.2508  0.4037  0.3824
  264SOD    SOD22324   2.568   4.702  13.262  0.3800  0.2081 -0.1360
  265SOD    SOD22325   3.198   3.230   4.075 -0.0158  0.5574  0.1854
  266SOD    SOD22326   4.284   6.347   1.329 -0.0068 -0.3154 -0.3158
  267SOD    SOD22327   2.776   0.618  11.836 -0.1804  0.6320  0.1615
  268SOD    SOD22328   0.237   3.212  15.430  0.1328 -0.1274 -0.3545
  269SOD    SOD22329   4.404   0.014   5.231  0.0632 -0.4049 -0.1803
  270CLA    CLA22330   1.317   0.572  12.813 -0.1488 -0.2771 -0.0638
  271CLA    CLA22331   3.889   3.977   3.522 -0.1608  0.2473  0.1897
  272CLA    CLA22332   6.026   3.988   3.268 -0.3731  0.0304 -0.3328
  273CLA    CLA22333   0.735   0.777   1.423 -0.4442 -0.0540  0.2429
  274CLA    CLA22334   1.805   0.629  16.377 -0.0793 -0.3240  0.1016
  275CLA    CLA22335   2.017   1.323  15.168 -0.0520 -0.1946  0.3480
  276CLA    CLA22336   0.918   4.079  14.359 -0.0669  0.6901  0.2151
  277CLA    CLA22337   0.724   2.463   4.561 -0.0954  0.3542 -0.0008
  278CLA    CLA22338   1.679   2.178   4.134  0.1289 -0.2095 -0.2427
  279CLA    CLA22339   3.802   4.322  15.866  0.1155  0.0510 -0.4489
  280CLA    CLA22340   0.624   1.706   1.792 -0.1304  0.1509 -0.0662
  281CLA    CLA22341   3.029   3.223   0.051 -0.3166  0.0514  0.2867
  282CLA    CLA22342   3.988   2.725  13.527 -0.4199  0.1390  0.6274
  283CLA    CLA22343   4.246   2.460  16.434  0.1064 -0.0442 -0.1397
  284CLA    CLA22344   1.141   5.134   1.846 -0.2729  0.0245 -0.4949
  285CLA    CLA22345   2.292   4.045   2.369  0.2516 -0.1550  0.0008
  286CLA    CLA22346   2.982   0.419  12.538  0.0977  0.0386 -0.0774
  287CLA    CLA22347   1.498   1.421   2.226  0.2019 -0.0021  0.1380
  288CLA    CLA22348   0.517   0.723  17.075  0.3211  0.1219 -0.1662
  289CLA    CLA22349   5.110   4.926  16.864  0.0494  0.2256 -0.1751
  290CLA    CLA22350   0.314   2.296   0.371  0.1000  0.1962  0.1517
  291CLA    CLA22351   6.022   6.540   4.235 -0.2260 -0.2892  0.3445
  292CLA    CLA22352   4.560   2.252   3.445  0.0838 -0.1501 -0.2171
  293CLA    CLA22353   2.598   3.062   4.079 -0.3947  0.3835  0.1964
  294CLA    CLA22354   5.132   4.791   1.379 -0.4033  0.3955 -0.0095
  295CLA    CLA22355   5.940   1.803   1.333 -0.2943  0.0838 -0.2375
  296CLA    CLA22356   0.595   1.800  15.807  0.2388 -0.0204 -0.0718
  297CLA    CLA22357   6.375   2.384  13.156  0.0761 -0.3640  0.2878
  298CLA    CLA22358   3.375   4.867  15.617 -0.0281 -0.1745  0.3408
  299CLA    CLA22359   0.054   5.961   0.370 -0.3119  0.2499 -0.1355
  300CLA    CLA22360   5.225   1.668   3.951  0.1213  0.1002  0.2616
  301CLA    CLA22361   6.555   2.131  17.174 -0.1375 -0.1151 -0.3267
  302CLA    CLA22362   3.663   4.094  14.283 -0.2573 -0.0740 -0.1255
  303CLA    CLA22363   0.051   6.112   5.600 -0.1209 -0.3773  0.0918
  304CLA    CLA22364   3.908   6.627  15.467  0.7178 -0.2400 -0.0617
  305CLA    CLA22365   4.475   3.250  16.922  0.0834 -0.4136 -0.4639
  306CLA    CLA22366   5.943   5.782   1.439  0.0824  0.1030 -0.0075
  307CLA    CLA22367   4.017   1.425   3.279 -0.3007  0.0259 -0.1381
  308CLA    CLA22368   2.405   6.035  11.662  0.3255 -0.2839 -0.0527
  309CLA    CLA22369   3.776   5.189   2.951  0.0036 -0.0220 -0.1294
  310CLA    CLA22370   6.640   3.087   1.779 -0.4518  0.0052  0.1249
  311CLA    CLA22371   0.110   3.232   4.829 -0.0526  0.0690  0.5440
  312CLA    CLA22372   1.680   4.968  14.758  0.2509 -0.0527 -0.2204
  313CLA    CLA22373   6.048   2.074  14.976 -0.4535 -0.1131  0.2446
  314CLA    CLA22374   5.970   5.283  13.648  0.2069  0.3284 -0.2107
  315CLA    CLA22375   2.455   0.657  14.704  0.2167 -0.2055  0.2644
  316CLA    CLA22376   4.919   0.566   1.672  0.0029 -0.0172  0.7549
  317CLA    CLA22377   0.739   4.987   0.772 -0.2280  0.1473 -0.8332
  318CLA    CLA22378   5.030   0.235  15.998 -0.2616  0.3921  0.0938
  319CLA    CLA22379   6.615   0.346   2.759  0.0109 -0.0006 -0.2680
  320CLA    CLA22380   0.341   2.894  16.061  0.0512 -0.0441 -0.3164
  321CLA    CLA22381   5.739   6.371  15.864 -0.3738  0.1534 -0.1497
  322CLA    CLA22382   0.025   5.463   0.449 -0.3000 -0.4411 -0.5073
  323TIP3   OH222383   3.791   6.681  15.180  0.2699 -0.8264  0.2647
  323TIP3    H122384   3.801   6.767  15.221 -1.8782 -0.8601  0.9493
  323TIP3    H222385   3.823   6.619  15.246  0.8097 -0.6399  0.1874
  324TIP3   OH222386   6.389   0.072   4.893 -0.0836 -0.3255  0.6232
  324TIP3    H122387   6.304   0.079   4.937 -0.0651  1.0615  0.4714
  324TIP3    H222388   6.368   0.045   4.804 -0.2336 -1.6060  1.0285
  325TIP3   OH222389   4.339   2.729   0.165 -0.2920  0.5870  0.0891
  325TIP3    H122390   4.421   2.702   0.207 -0.5811  1.5150  1.3329
  325TIP3    H222391   4.285   2.759   0.238 -1.8269 -0.2138 -0.6963
  326TIP3   OH222392   0.480   1.562   6.247  0.0586 -0.6017 -0.2228
  326TIP3    H122393   0.468   1.479   6.293  1.5189  0.4669  2.2815
  326TIP3    H222394   0.410   1.619   6.282  0.3261 -0.1866 -0.3568
  327TIP3   OH222395   0.603   0.730  12.951 -0.2267  0.6165  0.0533
  327TIP3    H122396   0.536   0.783  12.994  1.3002  3.0242 -0.3723
  327TIP3    H222397   0.676   0.729  13.012  0.0347 -0.5096 -0.2432
  328TIP3   OH222398   4.369   0.558  11.720 -0.1549 -0.2393  0.1824
  328TIP3    H122399   4.373   0.520  11.632 -0.3677  2.7329 -1.2359
  328TIP3    H222400   4.278   0.548  11.746 -0.6602  0.9649 -1.0123
  329TIP3   OH222401   6.143   4.620   1.132  0.0755  0.1368 -0.4745
  329TIP3    H122402   6.142   4.714   1.113  0.1379  0.2175 -0.0820
  329TIP3    H222403   6.134   4.614   1.227  0.8705 -0.2240 -0.4101
  330TIP3   OH222404   5.007   1.570  13.463 -0.1452  0.1964 -0.2550
  330TIP3    H122405   5.041   1.482  13.446 -0.3255  0.3285 -1.3805
  330TIP3    H222406   4.980   1.602  13.377 -1.2973  0.8532  0.3359
  331TIP3   OH222407   5.175   0.471  12.154  0.2049  0.2004 -0.3893
  331TIP3    H122408   5.262   0.496  12.120 -0.0509 -0.7641 -1.8255
  331TIP3    H222409   5.185   0.380  12.180  0.2641  0.7830  1.8176
  332TIP3   OH222410   0.865   5.668  14.114 -0.3761 -0.2079 -0.4950
  332TIP3    H122411   0.807   5.600  14.151  0.3043 -1.2595 -1.3284
  332TIP3    H222412   0.835   5.679  14.024 -0.7552  0.9394 -0.2547
  333TIP3   OH222413   1.630   1.939   5.324  0.5920 -0.2797  0.0118
  333TIP3    H122414   1.559   1.903   5.375  1.3750 -1.5900  0.2278
  333TIP3    H222415   1.642   2.028   5.357 -1.3852  0.2181 -0.5236
  334TIP3   OH222416   0.962   6.179  15.721 -0.4444 -0.3644 -0.0284
  334TIP3    H122417   0.950   6.204  15.630  1.1418  1.4479  0.1953
  334TIP3    H222418   0.877   6.193  15.762 -1.2649 -1.5353 -1.2633
  335TIP3   OH222419   0.735   5.913  15.597 -0.0717  0.3015 -0.3570
  335TIP3    H122420   0.798   5.926  15.525  0.9234 -0.4365  0.3633
  335TIP3    H222421   0.720   5.819  15.599 -2.1554  0.5410 -1.2662
  336TIP3   OH222422   3.356   6.701   2.081  0.1012 -0.2988  0.1218
  336TIP3    H122423   3.438   6.654   2.096 -0.7046 -1.2691  1.6996
  336TIP3    H222424   3.324   6.666   1.998  2.0733  1.3546 -1.4648
  337TIP3   OH222425   5.512   0.511   1.718 -0.2522 -0.1375 -0.6425
  337TIP3    H122426   5.572   0.548   1.783 -0.3547  1.7032 -1.5344
  337TIP3    H222427   5.435   0.485   1.769 -0.0472  0.6034  0.0711
  338TIP3   OH222428   1.824   5.066  13.836 -0.0992  0.5933  0.1615
  338TIP3    H122429   1.801   4.978  13.807  3.7007 -0.1541 -1.2572
  338TIP3    H222430   1.772   5.124  13.781 -0.1354 -0.8438 -1.4157
  339TIP3   OH222431   4.968   6.596   0.806 -0.1344 -0.2524  0.2129
  339TIP3    H122432   5.011   6.676   0.837 -0.3984  0.4966 -1.2533
  339TIP3    H222433   4.882   6.598   0.848 -0.3725  0.5774 -0.2860
  340TIP3   OH222434   2.304   0.351  14.481  0.1003  0.0427 -0.7762
  340TIP3    H122435   2.305   0.324  14.572 -1.3629  1.0703 -0.4114
  340TIP3    H222436   2.385   0.318  14.444  2.4430  2.4665  1.7546
  341TIP3   OH222437   3.253   2.959  14.458 -0.5194 -0.3828  0.0323
  341TIP3    H122438   3.289   3.027  14.401  0.0032  0.9651  1.8661
  341TIP3    H222439   3.322   2.940  14.520 -0.6468 -2.6854 -0.4243
  342TIP3   OH222440   3.951   0.250   3.433 -0.3220  0.0947  0.1052
  342TIP3    H122441   3.988   0.162   3.437  0.1540  0.3264  1.2916
  342TIP3    H222442   3.986   0.286   3.351  0.4264 -0.4201  0.1822
  343TIP3   OH222443   4.614   6.726  13.438  0.9587  0.0869  0.1940
  343TIP3    H122444   4.680   6.709  13.504  1.2853  0.3901 -0.0516
  343TIP3    H222445   4.530   6.717  13.484  1.1876  0.3842  0.6652
  344TIP3   OH222446   4.239   2.930  12.938 -0.1468  0.0190 -0.1520
  344TIP3    H122447   4.238   2.871  13.014  0.6932  0.7430  0.4369
  344TIP3    H222448   4.168   2.992  12.955  0.2454  0.3752  0.2090
  345TIP3   OH222449   2.121   1.090   4.275  0.2043  0.2709 -0.5938
  345TIP3    H122450   2.142   1.016   4.332  1.7637  0.5362 -0.7633
  345TIP3    H222451   2.026   1.092   4.271  0.0211  0.3216  2.1048
  346TIP3   OH222452   4.843   0.399   1.132 -0.3673  0.1938  0.1598
  346TIP3    H122453   4.789   0.321   1.121 -0.4388  0.4102 -1.3107
  346TIP3    H222454   4.800   0.449   1.201 -1.0832 -0.4505  0.1931
  347TIP3   OH222455   6.131   3.664  11.322 -0.1846 -0.2861  0.0722
  347TIP3    H122456   6.191   3.674  11.397 -1.4404 -2.6083  1.5022
  347TIP3    H222457   6.187   3.676  11.245  1.5402  0.3591  1.3618
  348TIP3   OH222458   3.751   1.735  12.382 -0.5361  0.2432 -0.0541
  348TIP3    H122459   3.758   1.812  12.438 -1.4825 -0.9379  1.7777
  348TIP3    H222460   3.823   1.745  12.319  0.8897  1.4173  1.6456
  349TIP3   OH222461   5.396   4.665  14.112 -0.4455  0.2031  0.0985
  349TIP3    H122462   5.323   4.664  14.050 -2.4304  1.6605  2.2342
  349TIP3    H222463   5.456   4.731  14.079 -2.1963  2.0351  0.3820
  350TIP3   OH222464   0.883   6.051   4.063  0.3849  0.2016  0.3241
  350TIP3    H122465   0.855   6.089   4.147  0.7436 -0.5132  0.7776
  350TIP3    H222466   0.964   6.004   4.084 -0.2016 -1.0626 -0.1583
  351TIP3   OH222467   3.482   0.793   0.341 -0.2388 -0.0447 -0.0600
  351TIP3    H122468   3.543   0.852   0.386 -0.6901 -0.4689  1.1439
  351TIP3    H222469   3.395   0.827   0.365 -0.4946  0.3483 -1.4795
  352TIP3   OH222470   2.175   3.324   4.176  0.3384 -0.0895  0.4501
  352TIP3    H122471   2.176   3.419   4.186  1.7718 -0.1500  1.1171
  352TIP3    H222472   2.241   3.307   4.109 -0.9067 -0.5386 -0.7080
  353TIP3   OH222473   6.523   1.707  11.841 -1.3745 -0.0251  0.1990
  353TIP3    H122474   6.549   1.619  11.811 -2.6114 -0.2295 -0.3370
  353TIP3    H222475   6.435   1.719  11.806 -0.7609  1.9534 -0.8411
  354TIP3   OH222476   3.377   1.191   6.633  0.0461 -0.2202 -0.3858
  354TIP3    H122477   3.310   1.177   6.700 -0.9784 -0.9986 -1.5230
  354TIP3    H222478   3.339   1.153   6.554  0.9260  1.2795 -1.5775
  355TIP3   OH222479   4.711   5.978   5.628 -0.0759 -0.8186 -0.1113
  355TIP3    H122480   4.784   5.988   5.689 -1.1816 -0.0967  1.1404
  355TIP3    H222481   4.633   5.989   5.682 -1.0975  0.3800 -1.7502
  356TIP3   OH222482   6.352   3.533  16.403  0.1851  0.8226  0.0787
  356TIP3    H122483   6.331   3.545  16.310  1.5617  1.1034 -0.2209
  356TIP3    H222484   6.333   3.617  16.443 -0.9282  0.5433  0.1773
  357TIP3   OH222485   6.205   4.543  14.363  0.5799  1.1825  0.2088
  357TIP3    H122486   6.123   4.581  14.395 -0.6287  0.3412 -1.6536
  357TIP3    H222487   6.184   4.451  14.348  1.8797  0.9502 -0.3229
  358TIP3   OH222488   1.232   5.259  16.850 -0.5152  0.7068 -0.4236
  358TIP3    H122489   1.278   5.343  16.854  1.2567 -0.2488  1.4722
  358TIP3    H222490   1.301   5.195  16.836 -1.5578 -0.6077  0.2634
  359TIP3   OH222491   5.773   0.538  14.598 -0.4537 -0.0205  0.4142
  359TIP3    H122492   5.732   0.509  14.680  0.7494  3.2226  2.3736
  359TIP3    H222493   5.713   0.603  14.563  1.3970  2.6692  1.8127
  360TIP3   OH222494   4.349   1.647  13.761 -0.2939 -0.1379 -0.2631
  360TIP3    H122495   4.407   1.571  13.752  1.2184  1.1221 -2.2764
  360TIP3    H222496   4.273   1.626  13.707  0.3142 -0.0839 -1.1627
  361TIP3   OH222497   2.284   0.008  15.002 -0.4712  0.0255  0.4571
  361TIP3    H122498   2.272   0.087  14.949 -2.1594 -0.1041  0.6044
  361TIP3    H222499   2.375  -0.017  14.987  0.7309  3.0817  1.9022
  362TIP3   OH222500   2.438   5.756   5.891  0.1256  0.0752 -0.0287
  362TIP3    H122501   2.411   5.811   5.817  1.1219 -0.9919 -1.2217
  362TIP3    H222502   2.496   5.812   5.942  2.6543 -0.3379 -2.2382
  363TIP3   OH222503   4.808   4.223   3.461 -0.5835  0.3672  0.0405
  363TIP3    H122504   4.752   4.195   3.534  0.6495 -1.7295  0.2785
  363TIP3    H222505   4.750   4.225   3.386 -1.3092 -0.2534  0.5686
  364TIP3   OH222506   1.488   0.130   2.937  0.0682  0.1174 -0.8830
  364TIP3    H122507   1.462   0.221   2.952 -0.3378 -0.1488  0.1332
  364TIP3    H222508   1.454   0.083   3.013  3.4935 -0.2726  0.5967
  365TIP3   OH222509   2.572   6.243   1.060 -0.5888 -0.4825  0.2096
  365TIP3    H122510   2.618   6.325   1.043 -0.9496 -0.3965 -0.4036
  365TIP3    H222511   2.640   6.182   1.089 -0.4177  0.2120  1.3168
  366TIP3   OH222512   6.344   3.942  15.357  0.3740 -0.7485 -0.2892
  366TIP3    H122513   6.379   4.027  15.381 -1.5153 -0.1077  0.3549
  366TIP3    H222514   6.408   3.879  15.391  1.3327  0.3835  0.0407
  367TIP3   OH222515   2.280   1.827   2.225  0.3545  0.5242  0.2308
  367TIP3    H122516   2.327   1.910   2.216  0.6672  0.5847  2.0768
  367TIP3    H222517   2.246   1.828   2.315  0.4640 -1.3835  0.3266
  368TIP3   OH222518   5.531   4.820   2.661  0.3644 -0.1663  0.0497
  368TIP3    H122519   5.621   4.837   2.633  0.1116 -3.4101 -3.6141
  368TIP3    H222520   5.539   4.791   2.752  2.8953  0.4466  0.0923
  369TIP3   OH222521   6.138   4.693  12.723  0.1688 -0.0614  0.0791
  369TIP3    H122522   6.125   4.717  12.631 -0.2336  2.2868  0.6795
  369TIP3    H222523   6.199   4.620  12.720 -0.5783 -0.6732 -2.0916
  370TIP3   OH222524   5.110   4.875   3.081  0.3831  0.1749 -0.6243
  370TIP3    H122525   5.044   4.810   3.055 -0.8583  1.4042 -0.6291
  370TIP3    H222526   5.119   4.932   3.005  0.5829  0.7276 -0.1906
  371TIP3   OH222527   5.351   5.384  11.428 -0.1784 -0.1527 -0.1480
  371TIP3    H122528   5.297   5.306  11.416 -1.2772  0.6958 -1.0139
  371TIP3    H222529   5.425   5.370  11.369 -0.8163 -0.1783 -0.9723
  372TIP3   OH222530   5.190   2.267  16.470  0.5356 -0.1241 -0.5254
  372TIP3    H122531   5.257   2.327  16.439  0.0646 -0.0942 -1.5252
  372TIP3    H222532   5.210   2.184  16.426  1.0541 -0.6644  0.6716
  373TIP3   OH222533   2.493   4.503   3.760  0.3830 -0.0610 -0.3890
  373TIP3    H122534   2.525   4.417   3.730  0.4985  0.5022 -2.0034
  373TIP3    H222535   2.496   4.498   3.855 -1.2012 -2.4354 -0.3840
  374TIP3   OH222536   3.435   5.537  16.726  0.2704 -0.2431 -0.4765
  374TIP3    H122537   3.464   5.620  16.764  0.4108  0.3064 -1.7274
  374TIP3    H222538   3.355   5.560  16.677  0.4577 -0.7834 -1.0451
  375TIP3   OH222539   3.106   1.272   4.035 -0.3397 -0.7202 -0.1569
  375TIP3    H122540   3.080   1.333   4.104 -1.9904 -1.7205  0.1712
  375TIP3    H222541   3.059   1.301   3.957  1.2066  0.1656 -0.7980
  376TIP3   OH222542   2.237   6.300  11.152  0.1731  0.0903 -0.6016
  376TIP3    H122543   2.232   6.240  11.077 -0.9749  1.0899 -1.3659
  376TIP3    H222544   2.280   6.249  11.221  1.3454 -0.8215 -1.9639
  377TIP3   OH222545   3.069   2.391   1.584  0.1783 -0.2901 -0.4315
  377TIP3    H122546   3.018   2.312   1.602 -0.0715  0.1061  0.6567
  377TIP3    H222547   3.062   2.444   1.664  1.1400  0.4040 -0.7806
  378TIP3   OH222548   0.510   6.183  15.412 -0.2960  0.0471  0.2767
  378TIP3    H122549   0.493   6.133  15.492  0.0359 -1.0190 -0.2901
  378TIP3    H222550   0.424   6.194  15.372 -0.4514  0.5015  0.7263
  379TIP3   OH222551   1.384   2.768  12.818 -0.2480  0.1524  0.2006
  379TIP3    H122552   1.351   2.717  12.892  0.5773  0.5693  0.8787
  379TIP3    H222553   1.479   2.758  12.822 -0.0645  1.7087  0.3481
  380TIP3   OH222554   3.127   4.410   4.948 -0.3118  0.0937  0.7499
  380TIP3    H122555   3.193   4.474   4.923 -2.1474  2.1212  0.8288
  380TIP3    H222556   3.098   4.437   5.035 -1.9678 -0.1046  0.2975
  381TIP3   OH222557   3.532   0.794   3.434  0.0728  0.3591 -0.2270
  381TIP3    H122558   3.466   0.731   3.462 -0.7947 -0.1874 -3.0915
  381TIP3    H222559   3.610   0.741   3.418  0.3565  0.5565  0.4835
  382TIP3   OH222560   6.425   1.068  15.971 -0.0680  0.1645 -0.2122
  382TIP3    H122561   6.500   1.075  16.031  1.6178 -0.2325 -2.1565
  382TIP3    H222562   6.419   0.975  15.950 -1.4856  0.1116  0.3207
  383TIP3   OH222563   1.221   6.088   2.550 -0.3587  0.2707 -0.7588
  383TIP3    H122564   1.287   6.154   2.571  0.6791 -0.5868 -1.2430
  383TIP3    H222565   1.207   6.041   2.633  1.3978 -1.0566 -1.1627
  384TIP3   OH222566   6.437   2.229   5.042 -0.3222  0.4509 -0.0879
  384TIP3    H122567   6.425   2.303   4.982  0.1035  3.1543  2.8428
  384TIP3    H222568   6.491   2.265   5.113  0.5139 -2.9566  1.1698
  385TIP3   OH222569   2.573   0.314  13.289  0.0535  0.0937  0.3396
  385TIP3    H122570   2.485   0.326  13.253  0.1234 -0.7571 -0.1480
  385TIP3    H222571   2.628   0.374  13.239 -0.5071  1.9492  1.8333
  386TIP3   OH222572   2.810   3.583  16.516  0.2212 -0.0004  0.0668
  386TIP3    H122573   2.842   3.670  16.537 -0.7708  0.9109 -1.8304
  386TIP3    H222574   2.750   3.598  16.442  0.1086 -2.3044 -0.3699
  387TIP3   OH222575   0.057   6.158  14.319 -0.2428  0.4951 -0.1290
  387TIP3    H122576   0.115   6.215  14.268 -0.1177  0.6899  0.2260
  387TIP3    H222577   0.003   6.113  14.254 -0.4796  1.1718 -0.4069
  388TIP3   OH222578   3.987   5.383   1.303 -0.4656  0.3025  0.0276
  388TIP3    H122579   4.007   5.290   1.315 -0.8718 -0.0453 -1.6452
  388TIP3    H222580   3.896   5.384   1.273 -0.2127  1.1504 -0.7667
  389TIP3   OH222581   6.332   2.013   1.195  0.1643 -0.7050  0.7330
  389TIP3    H122582   6.347   1.949   1.264  1.1034 -1.6373 -0.2821
  389TIP3    H222583   6.279   1.967   1.130 -0.5607  0.0991  0.7362
  390TIP3   OH222584   1.523   0.662  15.223 -0.6750 -0.2416 -0.3489
  390TIP3    H122585   1.574   0.740  15.243  1.4215 -1.3540 -1.0399
  390TIP3    H222586   1.527   0.610  15.303 -0.7553 -0.3234 -0.3986
  391TIP3   OH222587   4.665   0.242  13.102 -0.4313 -0.1300 -0.9754
  391TIP3    H122588   4.692   0.329  13.131 -2.1728 -0.3648  1.7222
  391TIP3    H222589   4.595   0.258  13.039  0.6544  0.3984 -2.0767
  392TIP3   OH222590   6.483   1.169   1.346 -0.7701  0.1757  0.4967
  392TIP3    H122591   6.558   1.145   1.292 -0.9386 -2.2367  1.2212
  392TIP3    H222592   6.520   1.188   1.432 -1.0051 -1.9086  1.1035
  393TIP3   OH222593   5.913   5.860   6.340 -0.3621  0.9217  0.3851
  393TIP3    H122594   5.919   5.796   6.411 -0.5594  0.0329 -0.3944
  393TIP3    H222595   5.823   5.891   6.344 -0.8546 -0.3238 -0.4839
  394TIP3   OH222596   2.507   5.336  13.669  0.0860  0.2448  0.8862
  394TIP3    H122597   2.481   5.421  13.706 -0.9587  1.1717 -1.7809
  394TIP3    H222598   2.553   5.293  13.741 -1.9798  1.7927  3.3240
  395TIP3   OH222599   1.356   1.885  13.295 -0.0280  0.6358 -0.1696
  395TIP3    H122600   1.358   1.797  13.334 -2.3044  1.1202  1.1953
  395TIP3    H222601   1.440   1.923  13.321 -0.0503 -0.2735  1.4006
  396TIP3   OH222602   5.327   2.024  11.810 -0.0302 -0.4925  0.1110
  396TIP3    H122603   5.408   1.997  11.853  0.8360  2.2668  0.3913
  396TIP3    H222604   5.276   2.066  11.879  0.4733  2.1252 -0.9749
  397TIP3   OH222605   5.017   5.796   2.748  0.1366 -0.6020  0.1016
  397TIP3    H122606   5.029   5.723   2.688 -1.6645 -1.2629  0.4800
  397TIP3    H222607   4.927   5.826   2.732 -0.8076 -1.4821  3.1505
  398TIP3   OH222608   2.148   0.934   6.102 -0.0462  0.4269  0.0395
  398TIP3    H122609   2.155   0.945   6.008  0.7190 -1.7261 -0.2089
  398TIP3    H222610   2.177   1.018   6.139  0.1834  1.0956 -1.6091
  399TIP3   OH222611   2.901   4.361  14.494 -0.0084  0.6077  0.2504
  399TIP3    H122612   2.943   4.417  14.559  0.2247  0.8691 -0.1238
  399TIP3    H222613   2.973   4.327  14.441 -0.2459  0.8920 -0.2618
  400TIP3   OH222614   2.464   3.133   0.383  0.1651 -0.2149 -0.2692
  400TIP3    H122615   2.445   3.198   0.315 -0.4618 -0.4058 -0.2821
  400TIP3    H222616   2.522   3.070   0.340 -0.8674 -0.7765 -0.8980
  401TIP3   OH222617   6.545   3.289   2.722 -0.4078 -0.1490 -0.0281
  401TIP3    H122618   6.609   3.222   2.746 -0.5038  0.1806  1.2184
  401TIP3    H222619   6.595   3.370   2.718 -0.6956  0.0789  0.7629
  402TIP3   OH222620   0.686   4.902  14.947  0.0015 -0.0488  0.3777
  402TIP3    H122621   0.596   4.870  14.938  0.2656 -0.6588 -0.2550
  402TIP3    H222622   0.723   4.848  15.018  1.1464 -2.9475 -2.1723
  403TIP3   OH222623   1.680   3.456   5.684  0.1126 -0.3025 -0.1394
  403TIP3    H122624   1.642   3.383   5.634 -0.7161 -0.2733  0.4235
  403TIP3    H222625   1.714   3.416   5.763 -3.7085  0.2600  2.0441
  404TIP3   OH222626   2.865   6.551   1.517  0.0078  0.4673  0.3807
  404TIP3    H122627   2.924   6.498   1.571 -0.6974 -1.5881 -0.7971
  404TIP3    H222628   2.921   6.585   1.447  0.4389  1.2530  1.0809
  405TIP3   OH222629   5.535   2.315  13.882 -0.5213  0.0981 -0.4555
  405TIP3    H122630   5.537   2.220  13.897  0.5239  0.2602  0.6426
  405TIP3    H222631   5.447   2.333  13.851 -0.7807 -1.2214 -0.5386
  406TIP3   OH222632   2.184   6.326  12.988  0.3658 -0.0298  0.6208
  406TIP3    H122633   2.222   6.275  12.917  0.6922  1.9230 -0.6785
  406TIP3    H222634   2.259   6.364  13.034  0.1226  0.8928  0.2910
  407TIP3   OH222635   2.382   1.618   4.688 -0.0262 -0.3047  0.5387
  407TIP3    H122636   2.351   1.703   4.657  0.5528 -0.0734  0.5779
  407TIP3    H222637   2.475   1.617   4.667 -0.4396 -1.8274 -1.4533
  408TIP3   OH222638   3.361   6.161  15.299 -0.3075 -0.6125  0.4559
  408TIP3    H122639   3.440   6.114  15.273 -0.4354 -0.2205 -0.7346
  408TIP3    H222640   3.292   6.096  15.296 -0.3187 -0.5819 -0.2499
  409TIP3   OH222641   0.901   5.150   2.282  0.5954 -0.0367 -0.1279
  409TIP3    H122642   0.957   5.072   2.283  0.1965 -0.3444 -0.9424
  409TIP3    H222643   0.920   5.193   2.365 -0.3329 -1.8186  1.0828
  410TIP3   OH222644   4.164   3.713   4.135 -0.4052 -0.0758 -0.4707
  410TIP3    H122645   4.242   3.697   4.189 -0.3432 -1.1495 -0.8477
  410TIP3    H222646   4.160   3.637   4.077 -1.6358  0.0548 -0.5797
  411TIP3   OH222647   0.892   1.166  11.590  0.1009 -0.1335 -0.5869
  411TIP3    H122648   0.944   1.227  11.538 -1.4367  1.3271 -0.4936
  411TIP3    H222649   0.949   1.141  11.663  0.2873  2.4151  0.2191
  412TIP3   OH222650   2.330   3.129   5.789 -0.1248  0.3051  0.1508
  412TIP3    H122651   2.330   3.049   5.841  1.1501  0.7301  0.8452
  412TIP3    H222652   2.326   3.098   5.698 -1.1098 -0.4805  0.4439
  413TIP3   OH222653   1.899   4.322   2.209  0.1830  0.5336  0.2465
  413TIP3    H122654   1.859   4.408   2.220  1.8930  1.2625  1.2911
  413TIP3    H222655   1.923   4.295   2.298 -0.0440 -0.8961 -0.0953
  414TIP3   OH222656   0.006   3.837  11.131  0.5382 -0.0380  0.2774
  414TIP3    H122657   0.091   3.795  11.146 -0.1479 -2.1617 -1.2878
  414TIP3    H222658  -0.004   3.836  11.036  0.4702  3.8910  0.0975
  415TIP3   OH222659   0.260   0.170  12.168  0.0818  0.0128  0.4813
  415TIP3    H122660   0.292   0.196  12.082 -0.6460  0.2572  0.2726
  415TIP3    H222661   0.218   0.249  12.203  0.1320 -0.1612  0.9438
  416TIP3   OH222662   0.924   1.972  12.359 -0.1214  0.0839 -0.2911
  416TIP3    H122663   0.960   1.911  12.296 -0.5218 -0.1981 -0.2453
  416TIP3    H222664   0.993   1.982  12.425 -0.5165 -1.2782  0.3615
  417TIP3   OH222665   1.813   1.616  16.189 -0.6488  0.0228 -0.2257
  417TIP3    H122666   1.798   1.524  16.166  1.4063 -0.3282 -0.3641
  417TIP3    H222667   1.825   1.615  16.284  2.5638 -0.4481 -0.5270
  418TIP3   OH222668   3.968   1.054  15.631 -0.0076  0.0514  0.2571
  418TIP3    H122669   3.989   1.094  15.715  0.2371  2.9141 -1.0582
  418TIP3    H222670   4.053   1.042  15.588  0.0975 -3.4115  1.1123
  419TIP3   OH222671   5.543   1.592  13.078  0.0673  0.3897  0.3854
  419TIP3    H122672   5.476   1.659  13.067  0.9478  1.1897 -0.1481
  419TIP3    H222673   5.603   1.628  13.143  0.1621 -0.1913  0.6286
  420TIP3   OH222674   2.285   5.773   4.765 -0.0920  0.9240  0.1874
  420TIP3    H122675   2.259   5.696   4.715 -0.4565 -0.0659  1.8351
  420TIP3    H222676   2.207   5.830   4.764 -0.3036  0.6356  0.1481
  421TIP3   OH222677   4.885   3.733   5.324 -0.9383  0.5502  0.8688
  421TIP3    H122678   4.913   3.768   5.239 -0.2968  0.8299  1.1915
  421TIP3    H222679   4.861   3.810   5.375  0.3190  0.5443  1.5215
  422TIP3   OH222680   3.131   2.537   1.360 -0.5273 -0.2196  0.5210
  422TIP3    H122681   3.121   2.497   1.447  1.1909  1.4857  1.6082
  422TIP3    H222682   3.118   2.631   1.375 -0.1277  0.1210 -1.0426
  423TIP3   OH222683   4.918   4.677   2.090  0.0925 -0.6645 -0.2649
  423TIP3    H122684   4.925   4.645   2.000  2.2602  1.2981 -0.8983
  423TIP3    H222685   5.009   4.681   2.121 -0.5861 -0.9392  1.9072
  424TIP3   OH222686   4.729   3.624   5.131  0.2814  0.1390  0.6538
  424TIP3    H122687   4.791   3.583   5.070  0.7678  1.2055  0.4040
  424TIP3    H222688   4.781   3.640   5.210 -0.0135 -0.1132  0.8993
  425TIP3   OH222689   4.280   3.141  14.713  0.2172  0.1206 -0.8800
  425TIP3    H122690   4.271   3.216  14.653 -0.3882 -0.5719 -1.6759
  425TIP3    H222691   4.360   3.098  14.685 -0.3091 -0.4703 -1.5231
  426TIP3   OH222692   1.361   6.230  16.032  0.7917 -0.3924  0.2650
  426TIP3    H122693   1.296   6.190  15.975  0.5661 -1.3384  1.1512
  426TIP3    H222694   1.426   6.161  16.046  1.0436 -0.0470  0.8224
  427TIP3   OH222695   5.636   3.972  16.952  0.2881 -0.1900 -0.2523
  427TIP3    H122696   5.628   4.043  17.016  0.8311 -1.7199  1.5999
  427TIP3    H222697   5.550   3.968  16.910  0.1380  1.3202 -0.1392
  428TIP3   OH222698   5.627   5.853   6.080 -0.4703  0.0899 -0.0865
  428TIP3    H122699   5.649   5.941   6.047  0.9559  0.0592  0.7084
  428TIP3    H222700   5.591   5.869   6.167 -1.4415 -0.0363 -0.4581
  429TIP3   OH222701   4.900   1.665   2.412  0.3325  0.0409 -1.1003
  429TIP3    H122702   4.935   1.576   2.408 -1.2342 -0.6420 -0.5405
  429TIP3    H222703   4.922   1.703   2.327  0.4207 -1.1340 -1.6227
  430TIP3   OH222704   0.247   3.074   1.471  0.4256 -0.8584  0.1704
  430TIP3    H122705   0.260   2.991   1.426 -1.2782 -1.2189  0.2913
  430TIP3    H222706   0.238   3.138   1.400 -2.2857 -1.4286 -0.0972
  431TIP3   OH222707   2.646   6.637   0.363 -0.2528 -0.2588  0.5264
  431TIP3    H122708   2.553   6.657   0.355 -0.0057  0.5230 -0.6428
  431TIP3    H222709   2.667   6.658   0.454 -1.0858  0.1532  0.6341
  432TIP3   OH222710   1.933   1.803   2.731 -0.0892 -0.0606  0.2993
  432TIP3    H122711   1.883   1.735   2.775  0.8422  0.7483  2.7445
  432TIP3    H222712   1.949   1.768   2.643 -1.9940 -1.7495  0.5624
  433TIP3   OH222713   3.965   0.690  16.383  0.2076 -0.2785 -0.6832
  433TIP3    H122714   3.888   0.719  16.334 -0.3478 -0.9940 -0.2654
  433TIP3    H222715   3.974   0.597  16.360  0.2909 -0.4738  0.1022
  434TIP3   OH222716   0.700   4.381  13.557  0.0145  0.2627  0.3233
  434TIP3    H122717   0.725   4.465  13.518  0.9433  0.1037  0.5514
  434TIP3    H222718   0.770   4.321  13.530  0.0438 -0.1243  1.2363
  435TIP3   OH222719   1.764   6.547  13.799 -0.0029  0.7156  0.2872
  435TIP3    H122720   1.744   6.579  13.887  0.4164 -2.3772  1.6677
  435TIP3    H222721   1.697   6.481  13.782 -0.2196  1.4309 -1.8761
  436TIP3   OH222722   5.079   3.262  11.677  0.3444  0.3772 -0.0115
  436TIP3    H122723   5.152   3.270  11.615 -0.2028 -0.4736 -0.7848
  436TIP3    H222724   5.004   3.297  11.630 -0.2724 -1.1353 -0.1978
  437TIP3   OH222725   3.388   6.748   5.225 -0.4027  0.6848  0.3824
  437TIP3    H122726   3.419   6.684   5.289  1.3307  0.5547 -0.5258
  437TIP3    H222727   3.468   6.782   5.185 -1.3544  2.4437 -0.1055
  438TIP3   OH222728   6.679   6.566  13.364 -0.7293  0.6743 -0.5815
  438TIP3    H122729   6.641   6.626  13.302 -0.7720  2.0983  0.7584
  438TIP3    H222730   6.750   6.615  13.405 -0.3139 -0.4159  0.0722
  439TIP3   OH222731   0.786   0.091  15.966  0.8213  0.2120 -0.1499
  439TIP3    H122732   0.766   0.074  16.058  0.3008 -0.1116 -0.3228
  439TIP3    H222733   0.739   0.172  15.946  2.8908  1.6621  0.5352
  440TIP3   OH222734   4.826   5.348  15.743  0.1340  0.3233  0.0798
  440TIP3    H122735   4.857   5.349  15.653 -3.0471 -0.7429 -1.1393
  440TIP3    H222736   4.849   5.434  15.778  0.4349  1.1771 -2.1118
  441TIP3   OH222737   1.152   6.665   0.763  0.5006  0.3879  0.2843
  441TIP3    H122738   1.243   6.639   0.747  0.1909 -2.0609  2.0704
  441TIP3    H222739   1.106   6.584   0.782 -1.9249  1.6655  0.2621
  442TIP3   OH222740   5.795   0.209  12.604  0.3658 -0.2473 -0.2589
  442TIP3    H122741   5.828   0.122  12.582  0.5462 -0.0626 -0.7158
  442TIP3    H222742   5.871   0.266  12.601  0.3330 -0.1448  0.4870
  443TIP3   OH222743   5.749   2.529   2.530  0.3075 -0.1919  0.1188
  443TIP3    H122744   5.798   2.609   2.509  1.5661 -0.7019  0.9344
  443TIP3    H222745   5.796   2.492   2.606 -1.8661 -0.2832  1.5098
  444TIP3   OH222746   0.588   4.558   2.912  0.2517 -0.4702 -0.5047
  444TIP3    H122747   0.570   4.551   3.006  0.1121  2.1472 -0.2600
  444TIP3    H222748   0.680   4.533   2.904  1.4926  2.9815  1.0455
  445TIP3   OH222749   0.561   3.560   1.489  0.5816 -0.4326  0.6675
  445TIP3    H122750   0.624   3.522   1.428  0.3216  0.7840 -0.3874
  445TIP3    H222751   0.476   3.544   1.449  0.5384  3.1937 -1.0611
  446TIP3   OH222752   1.174   4.247  13.641  0.0069 -0.6750 -0.2322
  446TIP3    H122753   1.124   4.303  13.700 -0.2636 -0.6668 -0.4682
  446TIP3    H222754   1.261   4.242  13.681  1.0069  2.3517 -1.7104
  447TIP3   OH222755   5.769   5.931  12.434 -0.8982 -0.1133  0.5923
  447TIP3    H122756   5.810   5.934  12.347 -1.2143  1.4286  0.4781
  447TIP3    H222757   5.819   5.865  12.482  1.6892  1.6152  0.4303
  448TIP3   OH222758   0.941   2.166  11.361  0.3936  0.1191 -0.6590
  448TIP3    H122759   0.960   2.231  11.428  2.0162  0.5164 -1.4519
  448TIP3    H222760   1.014   2.105  11.365 -0.4627 -0.9449 -0.7939
  449TIP3   OH222761   5.866   0.913   3.821 -0.1354  0.7080  0.6850
  449TIP3    H122762   5.903   0.996   3.854  1.8638  0.2984 -0.4032
  449TIP3    H222763   5.887   0.849   3.890 -0.5418  0.8528  0.9454
  450TIP3   OH222764   6.043   5.319   3.390 -0.0338  0.2792 -0.5293
  450TIP3    H122765   6.091   5.395   3.358  1.8408  0.0549  1.5492
  450TIP3    H222766   6.097   5.244   3.364  1.7986  0.0941  3.1390
  451TIP3   OH222767   4.594   6.760   0.910 -0.3488  0.0329 -0.1291
  451TIP3    H122768   4.543   6.797   0.838  0.1067  0.7740 -0.0814
  451TIP3    H222769   4.538   6.691   0.945 -0.0842 -1.1906 -1.9661
  452TIP3   OH222770   4.876   0.550  16.629  0.1173  0.3574 -0.2044
  452TIP3    H122771   4.787   0.516  16.639  0.0722  1.0368  2.2917
  452TIP3    H222772   4.932   0.478  16.655  0.2766  0.2413 -0.8522
  453TIP3   OH222773   1.868   5.618  15.934 -0.5616 -0.0363 -0.3578
  453TIP3    H122774   1.958   5.649  15.922 -0.7682  0.5953 -0.3087
  453TIP3    H222775   1.845   5.577  15.850 -0.3177  0.0339 -0.4585
  454TIP3   OH222776   0.942   3.198   0.753 -0.3821 -0.1954 -0.3980
  454TIP3    H122777   0.961   3.252   0.830  1.1493 -0.0070 -0.8731
  454TIP3    H222778   0.857   3.159   0.772 -0.7045  0.9762  0.7473
  455TIP3   OH222779   3.157   0.174  15.145 -0.3715  0.0805  0.0391
  455TIP3    H122780   3.213   0.119  15.200 -1.3533 -0.8622  0.1329
  455TIP3    H222781   3.215   0.205  15.076  0.5160  0.0090  0.7348
  456TIP3   OH222782   2.069   1.707  15.936 -0.2792  0.5132 -0.3219
  456TIP3    H122783   2.028   1.785  15.974 -1.9878  0.2286 -1.4498
  456TIP3    H222784   2.128   1.741  15.869 -0.4600  0.8659 -0.3044
  457TIP3   OH222785   0.439   0.647   0.404  0.0314  0.4508 -0.6256
  457TIP3    H122786   0.423   0.554   0.391 -1.5369  0.7888 -1.3478
  457TIP3    H222787   0.432   0.660   0.499  0.8056 -0.2542 -0.4704
  458TIP3   OH222788   1.787   4.928  13.482 -0.1313 -0.5196  0.0003
  458TIP3    H122789   1.737   4.901  13.559 -1.8346 -0.9076 -1.1828
  458TIP3    H222790   1.767   4.861  13.417  0.0403  0.6322 -1.2597
  459TIP3   OH222791   5.907   3.739  13.475 -0.1542  0.3628 -0.3822
  459TIP3    H122792   5.960   3.797  13.529  0.5189 -0.5370 -0.0615
  459TIP3    H222793   5.859   3.798  13.416  0.4704  1.2389 -0.0291
  460TIP3   OH222794   2.382   0.078  10.684  0.2443 -0.2022  0.0547
  460TIP3    H122795   2.459   0.040  10.642 -0.3166 -0.5002 -0.7324
  460TIP3    H222796   2.321   0.093  10.612  0.0521  1.2357  0.5000
  461TIP3   OH222797   5.910   6.585  16.008  0.1564  0.6481 -0.0903
  461TIP3    H122798   5.844   6.529  15.968 -0.4443  1.9385 -0.9662
  461TIP3    H222799   5.989   6.570  15.957  0.3441 -0.2826  0.4452
  462TIP3   OH222800   1.957   5.434  16.203 -0.1667 -0.4041 -0.2006
  462TIP3    H122801   2.001   5.440  16.118 -2.7740 -0.4772 -1.6416
  462TIP3    H222802   2.026   5.451  16.267  1.4796  1.8413 -2.3928
  463TIP3   OH222803   1.261   0.113  12.132  0.2977 -0.4959  0.4592
  463TIP3    H122804   1.343   0.078  12.165  1.4793  0.1273 -1.6224
  463TIP3    H222805   1.240   0.185  12.191  2.5005  0.8007 -0.2090
  464TIP3   OH222806   1.189   3.259  13.755  0.0693 -0.0656 -0.0611
  464TIP3    H122807   1.107   3.301  13.730  0.1246 -0.9821 -2.0001
  464TIP3    H222808   1.221   3.220  13.674  1.3278 -1.5799  1.1054
  465TIP3   OH222809   2.087   4.713  15.040  0.5292  0.2747 -0.3138
  465TIP3    H122810   2.016   4.732  14.979 -0.6821 -0.8534  0.6881
  465TIP3    H222811   2.122   4.629  15.012  0.9527  0.4529 -0.3285
  466TIP3   OH222812   0.401   3.625   0.567  0.2593  0.2701  0.3332
  466TIP3    H122813   0.445   3.614   0.482 -1.3606  0.2725 -0.5554
  466TIP3    H222814   0.466   3.669   0.622  1.9518 -1.2481 -0.3544
  467TIP3   OH222815   3.132   4.995   5.371 -0.6468 -0.1766 -0.2614
  467TIP3    H122816   3.172   4.931   5.311 -0.7034  0.1066 -0.6090
  467TIP3    H222817   3.176   4.980   5.454  0.5361  0.4410 -0.7507
  468TIP3   OH222818   0.915   2.720  14.426 -0.5681  0.2679  0.1472
  468TIP3    H122819   0.951   2.747  14.342  0.1006 -1.0299 -0.0162
  468TIP3    H222820   0.975   2.652  14.457 -1.3829 -0.0159  1.1664
  469TIP3   OH222821   5.979   4.862  14.454  0.3415  0.1270  0.4860
  469TIP3    H122822   6.020   4.895  14.534  0.1004 -0.4704  0.8585
  469TIP3    H222823   5.912   4.927  14.433  0.1606  0.0993  0.9702
  470TIP3   OH222824   1.851   0.776   2.125 -0.1713  0.2142  0.0774
  470TIP3    H122825   1.885   0.864   2.142 -0.3511 -0.0353  1.9586
  470TIP3    H222826   1.834   0.774   2.031  2.1959  1.3478 -0.4517
  471TIP3   OH222827   0.935   5.067  12.955 -0.2723  0.1057  0.0273
  471TIP3    H122828   0.919   5.153  12.992  0.5346  0.1827  0.2306
  471TIP3    H222829   0.854   5.018  12.969 -0.9041  0.9753 -0.5119
  472TIP3   OH222830   0.159   5.554   3.315  0.0293 -0.1271 -0.2228
  472TIP3    H122831   0.170   5.633   3.262  1.2991  0.3826  0.7484
  472TIP3    H222832   0.209   5.571   3.394 -0.9906 -1.2838  0.7163
  473TIP3   OH222833   3.889   4.307   0.772  0.1361  0.3166  0.0707
  473TIP3    H122834   3.962   4.277   0.826 -0.0357  0.0611  0.1627
  473TIP3    H222835   3.866   4.393   0.808  0.6461  0.5806 -0.2099
  474TIP3   OH222836   3.481   3.281  15.224  0.4723 -0.6219  0.3775
  474TIP3    H122837   3.440   3.200  15.255  0.2337 -1.1253 -1.1672
  474TIP3    H222838   3.433   3.304  15.145  0.9496  0.6976  0.4374
  475TIP3   OH222839   2.842   5.763  15.874  0.6613 -0.1768 -0.2328
  475TIP3    H122840   2.885   5.684  15.905 -0.0812 -0.5829 -0.2094
  475TIP3    H222841   2.770   5.731  15.819  1.0783  0.5021 -1.2062
  476TIP3   OH222842   2.677   1.367  12.150  0.2426  0.6495 -0.1672
  476TIP3    H122843   2.729   1.292  12.179  0.8100  1.7227  1.7714
  476TIP3    H222844   2.667   1.355  12.056  0.1397 -1.9559  0.1149
  477TIP3   OH222845   0.640   1.112   3.369 -0.1810  0.2987 -0.1797
  477TIP3    H122846   0.553   1.085   3.338 -1.6884  3.2431  1.1306
  477TIP3    H222847   0.635   1.101   3.464  0.6120  1.2041 -0.0286
  478TIP3   OH222848   3.730   2.668  14.731  0.4818 -0.0693 -0.0654
  478TIP3    H122849   3.793   2.727  14.689  2.7194 -0.5847  2.3192
  478TIP3    H222850   3.749   2.582  14.692  2.2729 -0.4686  1.5130
  479TIP3   OH222851   4.699   3.007  16.584  0.2147 -0.0241  0.8775
  479TIP3    H122852   4.626   3.035  16.529  0.0772  0.2036  1.1760
  479TIP3    H222853   4.675   2.919  16.614  1.8768 -1.7964 -2.3416
  480TIP3   OH222854   2.183   1.014   5.801 -0.0214  0.5359  0.1047
  480TIP3    H122855   2.130   0.984   5.728 -2.0053  0.3013  1.5491
  480TIP3    H222856   2.191   1.108   5.788  0.3614  0.3853 -0.8277
  481TIP3   OH222857   3.132   1.295  16.903 -0.2501  0.3293  0.1601
  481TIP3    H122858   3.050   1.259  16.868 -0.1903  0.1197  0.2358
  481TIP3    H222859   3.116   1.389  16.908 -0.8619  0.1974  1.1227
  482TIP3   OH222860   0.133   5.445  13.897 -0.1527 -0.2870 -0.2541
  482TIP3    H122861   0.046   5.457  13.934  0.4297 -0.1197  1.1366
  482TIP3    H222862   0.187   5.419  13.971  1.7332  2.9843 -0.2876
  483TIP3   OH222863   6.147   0.960  13.339  0.5434  0.3116 -0.3424
  483TIP3    H122864   6.140   1.034  13.278  1.8553  0.3455 -0.4739
  483TIP3    H222865   6.112   0.993  13.421  0.6937  0.9309 -0.5222
  484TIP3   OH222866   6.587   0.931   5.290  0.3194  0.1205 -0.0443
  484TIP3    H122867   6.623   1.003   5.342 -0.0622  0.6221 -0.4653
  484TIP3    H222868   6.502   0.963   5.261  1.3052  0.6649 -2.6090
  485TIP3   OH222869   3.109   0.750  13.009  0.7172 -0.1059  0.0352
  485TIP3    H122870   3.199   0.721  13.027 -0.1068 -2.5734  0.4553
  485TIP3    H222871   3.072   0.681  12.954 -0.6325  1.3959 -1.0305
  486TIP3   OH222872   2.154   6.162  11.780 -0.1695  0.1303 -0.4701
  486TIP3    H122873   2.238   6.118  11.770  0.0573  0.4392 -0.0104
  486TIP3    H222874   2.088   6.095  11.762  0.1768 -0.1761 -0.5934
  487TIP3   OH222875   5.472   6.291  11.262 -0.0918  0.4282  0.5728
  487TIP3    H122876   5.382   6.281  11.233 -0.1282  0.7960  0.5440
  487TIP3    H222877   5.477   6.242  11.344  0.4266 -1.9634 -0.7996
  488TIP3   OH222878   1.641   4.472  14.914 -0.0143 -0.1807 -0.7475
  488TIP3    H122879   1.567   4.498  14.860  0.1208  1.5798 -0.1583
  488TIP3    H222880   1.696   4.550  14.918  1.0735 -0.9578  0.1407
  489TIP3   OH222881   5.355   4.043  11.602  0.2264  0.7488 -0.2275
  489TIP3    H122882   5.304   4.027  11.682  0.5514 -1.6790 -0.4187
  489TIP3    H222883   5.441   4.073  11.634 -0.1452  1.3224  0.2504
  490TIP3   OH222884   4.262   0.761   2.708  0.0124 -0.3964  0.0107
  490TIP3    H122885   4.178   0.790   2.670 -0.1773  0.3686  0.9783
  490TIP3    H222886   4.311   0.726   2.633 -0.8974 -0.2150 -0.6910
  491TIP3   OH222887   5.155   6.258  11.412 -0.4901  0.4467  0.5833
  491TIP3    H122888   5.117   6.178  11.376 -0.2620  1.7015 -2.7943
  491TIP3    H222889   5.090   6.326  11.392  0.8151  1.6321  0.2391
  492TIP3   OH222890   5.580   5.493   1.220  0.7293  0.0325  0.2148
  492TIP3    H122891   5.578   5.563   1.155  3.4255 -1.5972 -1.8578
  492TIP3    H222892   5.520   5.521   1.288 -1.8280  2.1529 -2.6659
  493TIP3   OH222893   6.413   4.370  12.569  0.3294  0.1588  0.2770
  493TIP3    H122894   6.404   4.425  12.647  0.2343  0.9002 -0.2481
  493TIP3    H222895   6.323   4.348  12.544  0.3867 -1.0153  1.0114
  494TIP3   OH222896   2.869   3.815  17.058 -0.3455  0.6100  0.3091
  494TIP3    H122897   2.928   3.812  17.133  0.2553 -3.9603 -0.0237
  494TIP3    H222898   2.925   3.833  16.983 -0.1121  0.4301  0.4400
  495TIP3   OH222899   6.083   5.145  15.980 -0.1234  0.0579 -0.0882
  495TIP3    H122900   6.098   5.210  16.049  0.2493 -0.8267  0.6777
  495TIP3    H222901   6.115   5.063  16.017  0.5492 -0.3432 -1.5107
  496TIP3   OH222902   2.053   5.215   4.016 -0.2686  0.4540  0.5483
  496TIP3    H122903   2.052   5.253   4.104  1.3583  1.1604  0.2847
  496TIP3    H222904   2.126   5.154   4.017 -1.2570 -0.7803  0.1596
  497TIP3   OH222905   3.080   5.971   4.100 -0.4464 -0.0102  0.2744
  497TIP3    H122906   3.042   5.950   4.015  0.5438  0.7189 -0.3700
  497TIP3    H222907   3.029   5.919   4.162  0.8657 -3.1634 -1.0707
  498TIP3   OH222908   2.894   4.613  12.691 -0.1655  0.0593  0.1050
  498TIP3    H122909   2.911   4.585  12.781 -1.2445  0.9868  0.6183
  498TIP3    H222910   2.918   4.537  12.637 -1.2045 -1.1699  1.3083
  499TIP3   OH222911   5.741   3.792  15.504  0.1091  0.3967  0.1415
  499TIP3    H122912   5.725   3.701  15.530  1.3489  0.3970  1.0564
  499TIP3    H222913   5.827   3.812  15.542 -0.4630  2.1871  0.5955
  500TIP3   OH222914   2.306   6.433  14.307  0.0450  0.1761  0.5526
  500TIP3    H122915   2.330   6.423  14.215 -1.2554 -0.2278  0.2295
  500TIP3    H222916   2.248   6.359  14.325  0.8066 -0.1267  1.9028
  501TIP3   OH222917   4.061   0.069  14.880 -0.4722  0.4547 -0.6526
  501TIP3    H122918   3.986   0.055  14.822 -0.0275 -2.7873 -0.6125
  501TIP3    H222919   4.123   0.118  14.827 -0.9497 -0.5312 -2.1840
  502TIP3   OH222920   1.146   6.447  16.371  0.0858 -0.0172  0.9018
  502TIP3    H122921   1.100   6.420  16.292 -0.6252  1.0401  0.9291
  502TIP3    H222922   1.197   6.370  16.397 -0.5782 -0.7577  0.0771
  503TIP3   OH222923   3.178   1.836   1.904  0.0917 -0.1399  0.6668
  503TIP3    H122924   3.242   1.903   1.880 -1.0760  0.5633 -0.6611
  503TIP3    H222925   3.101   1.886   1.933 -1.1193 -0.8030 -1.1723
  504TIP3   OH222926   2.496   5.054   2.434 -0.3123 -0.1464  0.0628
  504TIP3    H122927   2.423   4.992   2.424  0.9673 -1.4550 -1.9403
  504TIP3    H222928   2.572   4.999   2.451  0.4558  1.0839  0.7143
  505TIP3   OH222929   6.249   1.855   2.571  0.1007 -0.1909  0.5040
  505TIP3    H122930   6.291   1.872   2.655  0.9617  0.5211 -0.0400
  505TIP3    H222931   6.256   1.761   2.558  0.9707 -0.1642  0.7298
  506TIP3   OH222932   4.016   5.556  12.445 -0.5346 -0.4647  0.2881
  506TIP3    H122933   4.006   5.488  12.511 -0.8380  0.5937  1.3609
  506TIP3    H222934   4.081   5.616  12.482 -1.0605  0.3934 -0.1464
  507TIP3   OH222935   5.372   0.915   4.019  0.4519 -0.2001 -0.0649
  507TIP3    H122936   5.282   0.888   4.002  0.6881 -1.3048  0.3466
  507TIP3    H222937   5.413   0.839   4.060  1.0443  0.9258  1.5515
  508TIP3   OH222938   6.001   3.864   2.640 -0.2573 -0.0215 -0.6404
  508TIP3    H122939   5.943   3.851   2.715  2.1046 -1.0393  1.1576
  508TIP3    H222940   5.988   3.955   2.614 -1.5306  0.1960  0.6446
  509TIP3   OH222941   1.219   2.524   0.941 -0.0275  0.1896 -0.2228
  509TIP3    H122942   1.181   2.452   0.890 -0.1727 -1.3749  1.9323
  509TIP3    H222943   1.313   2.513   0.931  0.0217 -1.4565  1.4358
  510TIP3   OH222944   6.425   4.757   5.983 -0.3323  0.3448  0.3388
  510TIP3    H122945   6.405   4.774   5.891  1.2838 -0.3769 -0.1950
  510TIP3    H222946   6.365   4.813   6.032 -1.2994  0.6663 -1.1433
  511TIP3   OH222947   0.177   2.615   3.552 -0.2724 -0.1379 -1.2273
  511TIP3    H122948   0.270   2.615   3.529 -0.1043 -1.0661 -0.6042
  511TIP3    H222949   0.173   2.660   3.637 -0.5633  1.0366 -1.8522
  512TIP3   OH222950   3.896   3.937   5.111  0.1533  0.4904 -0.1716
  512TIP3    H122951   3.847   3.981   5.042  2.3117  2.6638 -0.4228
  512TIP3    H222952   3.948   4.006   5.152  2.3159 -1.5016  0.6805
  513TIP3   OH222953   6.177   4.109   3.035  0.3798 -0.2003 -0.1333
  513TIP3    H122954   6.138   4.082   2.952  0.6095  1.8397 -0.9575
  513TIP3    H222955   6.109   4.093   3.101 -0.9212  0.8907 -1.1624
  514TIP3   OH222956   3.424   6.395  15.460  0.2432  0.2455  0.3150
  514TIP3    H122957   3.423   6.315  15.408 -1.2834 -0.6061  1.5483
  514TIP3    H222958   3.448   6.464  15.398 -0.5917 -0.8438 -1.2945
  515TIP3   OH222959   4.389   1.684  15.083  0.3527 -0.6741 -0.3555
  515TIP3    H122960   4.463   1.720  15.035 -0.2182 -0.8821 -1.4248
  515TIP3    H222961   4.405   1.709  15.174  1.0677  0.4055 -0.7533
  516TIP3   OH222962   3.615   3.161   4.639 -0.9495 -0.4753  0.2491
  516TIP3    H122963   3.707   3.175   4.663 -0.8349 -0.3370 -0.2610
  516TIP3    H222964   3.566   3.195   4.714 -0.5704 -3.7224  2.1481
  517TIP3   OH222965   4.256   0.628  12.629 -0.3536  0.0391  0.2069
  517TIP3    H122966   4.191   0.573  12.674  0.4401  1.1472  2.9450
  517TIP3    H222967   4.214   0.714  12.622 -1.1558 -0.4934 -3.0203
  518TIP3   OH222968   1.377   0.674   5.052 -0.3340 -0.1156 -0.2617
  518TIP3    H122969   1.403   0.723   5.130 -0.2209 -0.8653  0.1860
  518TIP3    H222970   1.400   0.583   5.072  0.4589 -0.2208 -1.4870
  519TIP3   OH222971   1.946   1.123   0.869  0.5180  0.3747 -0.1002
  519TIP3    H122972   2.022   1.134   0.927  0.0535 -0.7405  0.7565
  519TIP3    H222973   1.971   1.168   0.789  1.4982  1.2948  0.6828
  520TIP3   OH222974   6.315   1.828  12.530 -0.1902  0.7389  0.2352
  520TIP3    H122975   6.303   1.787  12.445  0.6580 -0.3732  0.6278
  520TIP3    H222976   6.349   1.915  12.511  0.9729  0.1379 -0.5532
  521TIP3   OH222977   1.063   3.854   3.342 -0.3697  0.3599  0.2158
  521TIP3    H122978   0.993   3.794   3.318 -1.0351  0.6687  1.3140
  521TIP3    H222979   1.029   3.941   3.324 -0.0721  0.4911  0.2682
  522TIP3   OH222980   2.609   0.256  15.933 -0.0761  0.2803  0.1569
  522TIP3    H122981   2.637   0.345  15.913  0.1258 -0.1806 -1.7867
  522TIP3    H222982   2.514   0.259  15.924  0.0116  0.0808 -0.9511
  523TIP3   OH222983   6.091   1.428   3.952 -0.1984  0.4899  0.2128
  523TIP3    H122984   6.119   1.503   4.005  0.4976  0.7037 -0.4340
  523TIP3    H222985   6.044   1.467   3.879  0.5562  0.3386 -0.3659
  524TIP3   OH222986   0.202   4.299  15.048 -0.0030 -0.1520  0.7867
  524TIP3    H122987   0.147   4.221  15.039 -1.2364  0.5537  1.8178
  524TIP3    H222988   0.158   4.366  14.996  0.7700  0.0023  0.3207
  525TIP3   OH222989   3.050   3.635  15.957 -0.1858  0.1361  0.2250
  525TIP3    H122990   3.022   3.561  16.011 -0.1071 -0.4920 -0.5768
  525TIP3    H222991   2.971   3.661  15.910 -0.3678  0.9902  0.9874
  526TIP3   OH222992   0.278   3.436  14.721  0.1109 -0.2246  0.8501
  526TIP3    H122993   0.294   3.419  14.628  0.1014  0.5160  0.7007
  526TIP3    H222994   0.363   3.420  14.762 -0.1090 -1.4450  0.8623
  527TIP3   OH222995   1.721   0.028   6.032 -0.3587 -0.1525  0.1877
  527TIP3    H122996   1.717   0.110   5.983 -0.2475  0.0740  0.5505
  527TIP3    H222997   1.658  -0.029   5.988 -0.7182  0.2535  0.1588
  528TIP3   OH222998   6.704   5.232   4.901 -0.0663 -0.4907 -0.1139
  528TIP3    H122999   6.746   5.312   4.933  0.0252 -0.9797  1.0316
  528TIP3    H223000   6.765   5.162   4.925  0.0802 -0.8703 -1.5365
  529TIP3   OH223001   3.707   5.603   3.078  0.3079 -0.1971  0.0731
  529TIP3    H123002   3.626   5.633   3.120  1.4217  0.6657  1.7495
  529TIP3    H223003   3.770   5.673   3.096  1.8226 -1.5463  0.1708
  530TIP3   OH223004   4.855   4.560  14.911  0.1254 -0.5669  0.7223
  530TIP3    H123005   4.779   4.554  14.969 -0.2205  1.2795  0.4999
  530TIP3    H223006   4.928   4.577  14.970  0.2104 -1.2334  0.8250
  531TIP3   OH223007   0.607   3.228  11.413 -0.0302 -0.7265 -0.0825
  531TIP3    H123008   0.628   3.170  11.340  2.6854 -0.4349  0.3618
  531TIP3    H223009   0.685   3.283  11.422 -2.2447  2.7445 -0.1996
  532TIP3   OH223010   0.552   5.075   5.548 -0.5651  0.7868 -0.1649
  532TIP3    H123011   0.559   5.167   5.573  0.3215  0.6880 -0.0147
  532TIP3    H223012   0.569   5.026   5.628  0.1845  0.4888 -0.4949
  533TIP3   OH223013   3.928   3.080  14.245  0.8492  1.2201 -0.4368
  533TIP3    H123014   4.004   3.049  14.195  0.6920  2.4555 -1.4911
  533TIP3    H223015   3.966   3.127  14.319  1.0822 -0.1402  0.3520
  534TIP3   OH223016   4.739   1.216  11.768  0.2164  0.1510  0.2549
  534TIP3    H123017   4.720   1.220  11.674  0.3473  0.9722  0.2549
  534TIP3    H223018   4.667   1.165  11.805 -0.3881  0.6924 -0.1517
  535TIP3   OH223019   5.731   0.240   4.425  0.1813  0.2061 -0.0909
  535TIP3    H123020   5.747   0.300   4.498 -0.2505  0.1840  0.0256
  535TIP3    H223021   5.750   0.153   4.461  1.0069  0.2822 -0.3189
  536TIP3   OH223022   5.117   3.925  12.134  0.4569 -0.5763  0.0950
  536TIP3    H123023   5.025   3.909  12.159  0.7192 -0.3447  1.3041
  536TIP3    H223024   5.147   3.841  12.101 -0.6370 -0.2468 -1.9052
  537TIP3   OH223025   5.195   3.430   1.543 -0.2735  0.3903  0.0961
  537TIP3    H123026   5.235   3.417   1.629  1.5444 -0.3513 -0.8117
  537TIP3    H223027   5.224   3.517   1.515  0.3282  0.0510 -0.3570
  538TIP3   OH223028   3.254   0.256   4.966  0.1593 -0.0179 -0.1329
  538TIP3    H123029   3.175   0.245   5.018  0.7203  0.0466  0.7497
  538TIP3    H223030   3.222   0.281   4.879 -0.7325  2.2043  0.7575
  539TIP3   OH223031   3.594   3.917   3.417 -0.6045  0.1391 -0.1222
  539TIP3    H123032   3.681   3.903   3.456 -1.1741 -0.7035  0.8847
  539TIP3    H223033   3.613   3.941   3.326  0.6720 -0.4379 -0.0358
  540TIP3   OH223034   4.682   0.316  17.258  0.1413 -0.1450  0.1192
  540TIP3    H123035   4.656   0.250  17.193  0.8269 -0.7468  0.4387
  540TIP3    H223036   4.608   0.322  17.318  0.2684 -1.0162  0.3807
  541TIP3   OH223037   4.417   2.829   1.399  0.1272 -0.1989 -0.5098
  541TIP3    H123038   4.380   2.785   1.323  0.7166  1.5839 -1.9165
  541TIP3    H223039   4.392   2.921   1.388  0.2958  0.1311  1.4313
  542TIP3   OH223040   2.198   3.751  13.590 -0.4751 -0.7242 -0.1611
  542TIP3    H123041   2.108   3.719  13.583 -0.8977  0.4618 -0.5692
  542TIP3    H223042   2.197   3.807  13.668 -0.8998  1.5553 -1.6694
  543TIP3   OH223043   3.871   1.168  16.873 -0.2618  0.4560  0.5519
  543TIP3    H123044   3.921   1.249  16.860  0.1011  0.2572  0.6906
  543TIP3    H223045   3.781   1.197  16.888 -0.0650  0.8522  0.9939
  544TIP3   OH223046   4.016   1.519  12.078  0.5130  0.7506  0.0760
  544TIP3    H123047   3.960   1.451  12.115  1.2553  0.6428  1.0429
  544TIP3    H223048   4.093   1.473  12.046  1.3519  1.1795  1.3939
  545TIP3   OH223049   6.691   0.191  11.057  0.4877 -0.1434 -0.0090
  545TIP3    H123050   6.759   0.257  11.072  0.6971 -0.2863 -0.2992
  545TIP3    H223051   6.699   0.170  10.963 -1.5417  1.5517 -0.6201
  546TIP3   OH223052   5.800   3.576  11.919  0.0284  0.0851  0.2515
  546TIP3    H123053   5.792   3.504  11.981  0.7541  1.6138  2.2179
  546TIP3    H223054   5.830   3.535  11.838  0.4366 -1.8137  1.3203
  547TIP3   OH223055   3.037   3.781   3.950 -0.5497  0.1094  0.3097
  547TIP3    H123056   3.107   3.798   4.013  0.6211  1.3450 -1.2323
  547TIP3    H223057   2.960   3.763   4.003  0.9922 -1.6449  2.0861
  548TIP3   OH223058   4.009   4.883  14.124  0.0696 -0.8806  0.2456
  548TIP3    H123059   4.078   4.930  14.171 -1.7243 -0.6606  2.8437
  548TIP3    H223060   4.015   4.793  14.157 -1.4585 -0.6353  1.2992
  549TIP3   OH223061   0.338   4.668  14.000 -0.1993  0.1871 -0.7209
  549TIP3    H123062   0.366   4.594  14.055 -0.0846  1.2161  0.6493
  549TIP3    H223063   0.332   4.631  13.912  1.3973 -1.0857 -0.3516
  550TIP3   OH223064   6.048   6.481  14.152 -0.3548  0.1551 -0.2336
  550TIP3    H123065   6.042   6.389  14.180  0.1659  0.1376 -0.1690
  550TIP3    H223066   6.015   6.531  14.226 -1.7208 -0.0278 -0.6937
  551TIP3   OH223067   6.614   6.082  14.790 -0.5333  0.4771  0.0207
  551TIP3    H123068   6.679   6.097  14.721 -1.2756  1.3479 -0.5132
  551TIP3    H223069   6.584   5.992  14.775  0.8070 -0.0756  0.5139
  552TIP3   OH223070   3.294   0.363  17.065 -0.3123 -0.1634 -0.0589
  552TIP3    H123071   3.309   0.432  17.130  0.7773 -0.6745  0.2569
  552TIP3    H223072   3.382   0.336  17.037 -0.6727 -1.8587  0.3047
  553TIP3   OH223073   3.249   5.589  13.791 -0.0011 -0.2294 -0.4960
  553TIP3    H123074   3.254   5.499  13.760  0.0139 -0.1763 -0.6479
  553TIP3    H223075   3.340   5.618  13.793 -0.0780  0.1389 -1.4977
  554TIP3   OH223076   3.091   3.530   1.417 -0.1074  0.0347  1.2412
  554TIP3    H123077   3.023   3.491   1.362 -0.7059  2.4573  0.1134
  554TIP3    H223078   3.045   3.594   1.470  1.0713  0.5409  1.6880
  555TIP3   OH223079   6.158   4.473   2.099 -0.1146  0.2902 -0.4628
  555TIP3    H123080   6.111   4.417   2.037 -1.2192 -0.9348  1.3606
  555TIP3    H223081   6.236   4.422   2.123 -0.9425 -0.3965  0.9348
  556TIP3   OH223082   5.339   0.837   2.682 -0.4603  0.5155  0.3400
  556TIP3    H123083   5.341   0.824   2.777 -0.8957 -0.8487  0.1869
  556TIP3    H223084   5.388   0.763   2.647 -1.5661  0.1759 -0.5501
  557TIP3   OH223085   3.280   0.437   6.043  0.8231  0.4460  0.3444
  557TIP3    H123086   3.321   0.411   6.125  1.7710  0.1208 -0.2140
  557TIP3    H223087   3.291   0.362   5.985 -0.8765  0.2231  0.2632
  558TIP3   OH223088   5.885   0.019   1.629  0.6570 -0.6282 -0.5762
  558TIP3    H123089   5.877  -0.063   1.579  0.9150 -0.7132 -0.4812
  558TIP3    H223090   5.800   0.062   1.618  0.3319 -1.1537 -0.1981
  559TIP3   OH223091   5.955   4.366   5.905  0.6829  1.3144 -0.0237
  559TIP3    H123092   5.975   4.286   5.855  1.8499  0.6739  1.4032
  559TIP3    H223093   6.038   4.413   5.910  0.3146  1.9494  0.3181
  560TIP3   OH223094   5.982   6.056   0.493 -0.0843  0.2266 -0.2448
  560TIP3    H123095   6.068   6.089   0.467 -0.2827 -0.3824 -1.7820
  560TIP3    H223096   5.920   6.104   0.437 -0.8899  1.5980  1.7270
  561TIP3   OH223097   5.404   4.848   0.873 -0.2373 -0.0200  0.0883
  561TIP3    H123098   5.403   4.780   0.806 -1.0547 -2.0766  2.0216
  561TIP3    H223099   5.472   4.820   0.935  0.0767  1.4633  0.4414
  562TIP3   OH223100   3.331   6.025  11.449 -0.5485  0.6324  0.3265
  562TIP3    H123101   3.259   5.961  11.441  0.4553 -0.4545 -0.3324
  562TIP3    H223102   3.289   6.110  11.435 -1.8112  0.0717  0.5601
  563TIP3   OH223103   3.572   1.522   5.391 -0.1225 -0.6523  0.0384
  563TIP3    H123104   3.486   1.515   5.432 -0.2136  0.5494  0.0753
  563TIP3    H223105   3.620   1.583   5.447 -0.8726  2.6303 -2.5829
  564TIP3   OH223106   1.332   3.996  14.557  0.1711  0.2104 -1.1712
  564TIP3    H123107   1.374   3.969  14.475 -1.5523 -1.8038 -1.4641
  564TIP3    H223108   1.390   3.963  14.625  0.8656  0.6094 -1.5531
  565TIP3   OH223109   4.291   2.374   2.729 -0.9138 -0.0732 -0.6146
  565TIP3    H123110   4.224   2.329   2.780 -0.4866 -0.2779 -0.2336
  565TIP3    H223111   4.352   2.409   2.794 -0.6145  0.0566 -0.9613
  566TIP3   OH223112   3.908   3.825  14.453 -0.0861  0.1313  0.3006
  566TIP3    H123113   3.988   3.856  14.410 -1.1165  0.9716 -1.0868
  566TIP3    H223114   3.850   3.801  14.381 -0.4462 -2.3061  1.2806
  567TIP3   OH223115   0.508   2.678   4.921  0.6903 -0.0106 -0.7915
  567TIP3    H123116   0.446   2.708   4.988 -0.2443 -1.1211 -1.1202
  567TIP3    H223117   0.586   2.732   4.934  0.1741  0.4498  0.5642
  568TIP3   OH223118   2.006   3.573  15.836  0.4349  0.3317  0.1728
  568TIP3    H123119   2.056   3.581  15.755 -1.2378  1.2325 -0.8259
  568TIP3    H223120   1.978   3.662  15.855 -0.3079 -0.0711  1.0100
  569TIP3   OH223121   1.841   2.836  14.686 -0.8110  0.0636 -0.3715
  569TIP3    H123122   1.753   2.800  14.699  0.4865 -2.9118  0.9287
  569TIP3    H223123   1.876   2.848  14.774  0.3759  0.5172 -0.8762
  570TIP3   OH223124   0.535   2.109  13.138  0.4407  0.0349  0.1796
  570TIP3    H123125   0.466   2.150  13.086  0.9057  0.2506 -0.2692
  570TIP3    H223126   0.616   2.131  13.093  1.0174  1.6246  1.8714
  571TIP3   OH223127   0.810   4.724  15.888 -0.5221  1.1000  1.2162
  571TIP3    H123128   0.739   4.738  15.950 -2.4340  3.2459 -1.2320
  571TIP3    H223129   0.769   4.730  15.802  2.5470  2.0436 -0.3494
  572TIP3   OH223130   3.975   4.006   0.936 -0.2711 -0.0789 -0.0544
  572TIP3    H123131   4.043   3.956   0.892  0.1541  1.2887 -0.9945
  572TIP3    H223132   4.018   4.085   0.968 -0.5486 -0.9878  2.9273
  573TIP3   OH223133   3.902   2.769   0.005 -0.2407 -0.1065 -0.3080
  573TIP3    H123134   3.933   2.679   0.008 -1.3117 -0.5336  3.6337
  573TIP3    H223135   3.979   2.822   0.028 -0.9307 -0.7622  4.4313
  574TIP3   OH223136   0.329   1.095  13.276 -0.0680  0.3587  0.4792
  574TIP3    H123137   0.282   1.131  13.351  0.1879 -0.0102  0.8177
  574TIP3    H223138   0.358   1.009  13.305 -1.7967 -0.7155 -0.7512
  575TIP3   OH223139   4.537   0.940  11.559  0.3099 -0.1963 -0.0990
  575TIP3    H123140   4.517   1.027  11.523  1.7484  0.5940  0.9129
  575TIP3    H223141   4.552   0.886  11.482 -0.4552  0.4708 -0.7447
  576TIP3   OH223142   6.092   2.911  15.135 -0.2178 -0.2979 -0.0076
  576TIP3    H123143   6.057   2.822  15.131 -1.7379  0.2379  0.6665
  576TIP3    H223144   6.030   2.958  15.191  0.4700  1.2300 -0.5038
  577TIP3   OH223145   3.986   6.134  11.654 -0.3117 -0.1487  0.3454
  577TIP3    H123146   4.056   6.193  11.627 -0.6905  0.7889  1.3139
  577TIP3    H223147   3.905   6.180  11.631 -0.6132 -0.6760  0.3295
  578TIP3   OH223148   0.669   2.565  15.698  0.1998 -0.0553 -0.2880
  578TIP3    H123149   0.658   2.479  15.740 -0.9527 -0.0739 -0.5849
  578TIP3    H223150   0.677   2.546  15.605 -0.5269  0.1764 -0.4043
  579TIP3   OH223151   1.904   4.208   3.875  0.5207 -0.0626  0.4301
  579TIP3    H123152   1.892   4.114   3.865 -1.7888 -0.0641  2.2928
  579TIP3    H223153   1.815   4.243   3.882  1.2061  2.5560 -2.0388
  580TIP3   OH223154   3.422   2.430   3.666  0.3093  0.4435  0.8874
  580TIP3    H123155   3.408   2.337   3.683  0.1765  0.0138 -1.2575
  580TIP3    H223156   3.428   2.436   3.570  0.6284  2.6011  0.9948
  581TIP3   OH223157   5.439   1.006   1.648  0.1999 -0.1271  0.2171
  581TIP3    H123158   5.360   1.041   1.605 -0.8433  1.6707  3.3184
  581TIP3    H223159   5.511   1.036   1.592 -1.1290  0.8432 -1.0785
  582TIP3   OH223160   4.443   2.212   5.221  0.9378  0.7131  0.1049
  582TIP3    H123161   4.520   2.161   5.246  0.7531  0.1498 -0.4487
  582TIP3    H223162   4.439   2.203   5.126 -1.8624 -2.2967  0.3431
  583TIP3   OH223163   5.710   0.037   0.641 -0.1458  0.5354 -0.1688
  583TIP3    H123164   5.750   0.029   0.555 -2.3787 -0.1984 -1.2317
  583TIP3    H223165   5.616   0.038   0.623 -0.6654  1.9798  2.1566
  584TIP3   OH223166   1.803   4.531  12.974 -0.4069 -0.6030 -0.0901
  584TIP3    H123167   1.708   4.543  12.980 -0.2372  0.6237  0.5150
  584TIP3    H223168   1.814   4.462  12.909 -1.6684  0.2465 -1.2601
  585TIP3   OH223169   2.106   3.120  14.926 -0.0366 -0.2924 -0.8345
  585TIP3    H123170   2.180   3.087  14.875  1.5175  1.1515  0.3775
  585TIP3    H223171   2.113   3.076  15.010  1.4962  2.2127  0.4560
  586TIP3   OH223172   2.061   1.834   4.321 -0.3411 -0.4726  0.5499
  586TIP3    H123173   2.089   1.834   4.412  0.1995  1.3677  0.4106
  586TIP3    H223174   1.980   1.886   4.320 -0.2688 -0.3624 -0.0425
  587TIP3   OH223175   1.386   0.611  17.246  0.1994  0.5544  0.4088
  587TIP3    H123176   1.448   0.582  17.178  0.6328  0.1697  0.9528
  587TIP3    H223177   1.300   0.605  17.205  0.1787 -2.2430  0.6815
  588TIP3   OH223178   1.395   1.581  11.905  0.7616  0.2461  0.1655
  588TIP3    H123179   1.435   1.535  11.979  0.8750  0.0337 -0.0227
  588TIP3    H223180   1.417   1.526  11.829  0.9422  0.6417 -0.0708
  589TIP3   OH223181   0.805   6.265  14.903  0.0503 -0.4306 -0.2731
  589TIP3    H123182   0.850   6.252  14.987 -0.0239 -0.3151 -0.2141
  589TIP3    H223183   0.840   6.197  14.846  0.1444 -0.4736 -0.1644
  590TIP3   OH223184   0.529   6.471  16.352  0.0770 -0.1534 -0.5107
  590TIP3    H123185   0.617   6.438  16.334 -0.1947 -1.7734  0.8447
  590TIP3    H223186   0.510   6.530  16.280  2.3005  0.3023 -0.7973
  591TIP3   OH223187   3.877   3.399  16.086  0.1432  0.2290 -0.1710
  591TIP3    H123188   3.823   3.320  16.084 -1.5109  1.3029 -0.0452
  591TIP3    H223189   3.939   3.388  16.015  0.3345 -1.4419  0.2288
  592TIP3   OH223190   2.429   2.649  12.459  0.1568 -0.6377 -0.1153
  592TIP3    H123191   2.473   2.574  12.498 -0.4582 -0.0274  1.8898
  592TIP3    H223192   2.483   2.724  12.482  0.0932 -0.3065 -0.9973
  593TIP3   OH223193   4.046   3.620  16.929  0.0758 -0.4546 -0.6167
  593TIP3    H123194   4.090   3.542  16.894  0.0134  0.6693 -3.4432
  593TIP3    H223195   3.983   3.585  16.992  0.5317 -2.6452 -1.2689
  594TIP3   OH223196   1.238   0.119   2.687  0.6277  0.4310 -0.0446
  594TIP3    H123197   1.226   0.058   2.761  2.1807  1.6058  1.2333
  594TIP3    H223198   1.186   0.080   2.617 -1.1667 -0.5965  1.7249
  595TIP3   OH223199   3.541   0.296  13.639 -0.0445  0.5912  0.0160
  595TIP3    H123200   3.489   0.326  13.564 -0.7635  0.3431  0.3969
  595TIP3    H223201   3.542   0.370  13.699  0.1930  0.6544 -0.0653
  596TIP3   OH223202   4.221   6.315  11.283  0.6434 -0.1246  0.5594
  596TIP3    H123203   4.148   6.318  11.222  0.2694 -1.6935  0.8727
  596TIP3    H223204   4.278   6.387  11.257 -0.7754  0.8374  0.0138
  597TIP3   OH223205   4.350   2.733  11.631  0.0602  0.5297 -0.4614
  597TIP3    H123206   4.268   2.697  11.665 -0.6889  1.0355 -1.6558
  597TIP3    H223207   4.334   2.828  11.628  1.0894  0.7364  0.2969
  598TIP3   OH223208   1.993   2.046  12.270  0.1055  0.5315 -0.0021
  598TIP3    H123209   1.900   2.035  12.252 -0.0058 -0.1179  0.9357
  598TIP3    H223210   2.037   2.008  12.193 -0.3924  2.0946 -1.1014
  599TIP3   OH223211   2.919   2.434   4.919  0.0037 -0.2309 -0.5916
  599TIP3    H123212   2.986   2.367   4.931 -0.2130 -0.5117 -0.9417
  599TIP3    H223213   2.960   2.515   4.948 -0.5341 -0.8746  2.2881
  600TIP3   OH223214   6.733   1.355   3.236  0.9504  0.2619 -0.2795
  600TIP3    H123215   6.775   1.293   3.176  1.0473 -1.1606  1.2021
  600TIP3    H223216   6.687   1.300   3.300 -0.9531  1.7386 -0.2677
  601TIP3   OH223217   3.251   2.175  15.153  0.3216 -0.4270 -0.5694
  601TIP3    H123218   3.291   2.180  15.066 -2.4879 -1.7509 -2.0742
  601TIP3    H223219   3.171   2.227  15.145  0.2323 -0.1950  1.4041
  602TIP3   OH223220   0.169   2.206  13.258  0.1616 -0.3511 -0.2861
  602TIP3    H123221   0.084   2.250  13.259 -0.1598 -0.9582 -0.2956
  602TIP3    H223222   0.148   2.112  13.257  0.7577 -0.5547 -3.0764
  603TIP3   OH223223   1.880   3.603  14.322  0.0027  0.1271 -0.7064
  603TIP3    H123224   1.866   3.517  14.283  1.1750  0.6908 -2.5064
  603TIP3    H223225   1.926   3.652  14.255 -0.2888  2.0549  0.4299
  604TIP3   OH223226   6.269   2.347   3.781 -0.2860  0.1549 -0.3160
  604TIP3    H123227   6.361   2.331   3.760 -0.9067 -1.5376 -1.9457
  604TIP3    H223228   6.264   2.442   3.792  1.2168  0.5488 -2.4638
  605TIP3   OH223229   4.091   1.459  17.061  0.1453 -0.0138  0.7397
  605TIP3    H123230   4.049   1.381  17.098 -0.5218 -1.3887 -2.5998
  605TIP3    H223231   4.058   1.464  16.972  2.2625  2.5917 -0.0235
  606TIP3   OH223232   6.142   6.141   4.153 -0.0710 -0.2893 -0.0420
  606TIP3    H123233   6.116   6.140   4.245  0.1539 -1.2524  0.0240
  606TIP3    H223234   6.226   6.095   4.152 -0.7750 -1.6220 -0.9096
  607TIP3   OH223235   1.313   6.606   1.138  0.2886  0.7126 -0.5416
  607TIP3    H123236   1.280   6.696   1.130 -1.4710  0.1619  0.0328
  607TIP3    H223237   1.343   6.584   1.049  0.9422  1.9109 -0.6480
  608TIP3   OH223238   6.722   2.579  12.554  0.1208 -0.0389 -0.2278
  608TIP3    H123239   6.663   2.639  12.599  1.4274  1.6621 -0.6477
  608TIP3    H223240   6.789   2.558  12.620  0.5397  0.2550 -0.5581
  609TIP3   OH223241   4.374   6.139   1.305  0.8990  0.1525  0.3687
  609TIP3    H123242   4.470   6.144   1.303  0.9643 -1.1354 -0.1563
  609TIP3    H223243   4.352   6.068   1.245 -0.3956  0.3883  0.5357
  610TIP3   OH223244   2.171   2.405  12.980  0.0192  0.0602  0.7529
  610TIP3    H123245   2.157   2.311  12.994  1.2646 -0.1098  0.9167
  610TIP3    H223246   2.131   2.423  12.894 -1.2334 -0.3663  1.2208
  611TIP3   OH223247   5.248   2.906  11.624  0.2836 -0.1482 -0.2495
  611TIP3    H123248   5.245   2.823  11.671  0.6263 -0.5561 -0.9311
  611TIP3    H223249   5.219   2.971  11.688  1.5191 -0.5627  0.7833
  612TIP3   OH223250   0.998   4.699  16.386  0.3149 -0.4593 -0.7956
  612TIP3    H123251   1.016   4.771  16.325  1.3649  1.3670  1.5364
  612TIP3    H223252   0.931   4.733  16.445  1.0449 -1.2798  0.5451
  613TIP3   OH223253   0.487   0.526   4.419 -0.2512 -0.3870 -0.2269
  613TIP3    H123254   0.545   0.473   4.472  0.3780  0.4569 -0.0515
  613TIP3    H223255   0.460   0.469   4.347 -0.2310 -1.1845  0.3916
  614TIP3   OH223256   5.286   4.499   3.525  0.2523 -0.4384  0.5197
  614TIP3    H123257   5.295   4.592   3.546 -2.7233  0.5546 -1.9151
  614TIP3    H223258   5.217   4.468   3.583  0.6186 -0.9373  0.7017
  615TIP3   OH223259   0.918   5.286  14.045  0.0406 -0.9163 -0.6599
  615TIP3    H123260   0.962   5.370  14.049 -0.7494 -0.4281 -1.7258
  615TIP3    H223261   0.921   5.261  13.953 -1.1685 -1.2445 -0.6370
  616TIP3   OH223262   5.398   6.279   6.006  0.3991 -0.0543  0.2034
  616TIP3    H123263   5.472   6.219   5.993 -0.0496 -0.3212 -1.3960
  616TIP3    H223264   5.406   6.308   6.097  2.5277 -0.0158  0.0728
  617TIP3   OH223265   5.376   2.606  13.091 -0.2093  0.4360 -0.2508
  617TIP3    H123266   5.415   2.526  13.056  0.0667  0.0265  0.9505
  617TIP3    H223267   5.442   2.642  13.149 -0.8581  0.8135  0.2706
  618TIP3   OH223268   3.584   4.988  14.803  0.1094  1.1547  0.2243
  618TIP3    H123269   3.642   5.065  14.804  0.9527  0.5765  2.5645
  618TIP3    H223270   3.636   4.920  14.761  0.4806  1.0992  0.7670
  619TIP3   OH223271   1.699   1.961   5.773 -0.0954 -0.4139  0.0114
  619TIP3    H123272   1.731   1.893   5.713  0.7302  0.6400 -0.7631
  619TIP3    H223273   1.604   1.950   5.772 -0.0116 -1.1582 -0.5896
  620TIP3   OH223274   5.623   5.679   0.413  0.1618  0.1243  0.0936
  620TIP3    H123275   5.680   5.659   0.487  0.5695  3.3452  0.8116
  620TIP3    H223276   5.546   5.624   0.426  1.8449 -2.2162  0.7038
  621TIP3   OH223277   0.412   2.304  16.425 -0.1677  0.2121  0.0129
  621TIP3    H123278   0.421   2.247  16.349 -1.1462 -0.8266  0.6587
  621TIP3    H223279   0.368   2.251  16.491 -0.4181  1.4711  0.9057
  622TIP3   OH223280   0.190   3.721   2.866 -0.0744  0.1570  1.0041
  622TIP3    H123281   0.252   3.784   2.903  0.6809  0.2847 -0.4074
  622TIP3    H223282   0.108   3.769   2.859  0.0713  0.4739  1.4357
  623TIP3   OH223283   0.572   2.492  16.726 -0.1776 -0.7201  0.1005
  623TIP3    H123284   0.597   2.400  16.719 -0.2454 -0.7320  0.0053
  623TIP3    H223285   0.562   2.508  16.820 -1.8185 -1.2658  0.0504
  624TIP3   OH223286   0.436   1.054  16.153 -0.0364  0.3380  0.2217
  624TIP3    H123287   0.444   1.060  16.058  0.3056 -0.5562  0.1826
  624TIP3    H223288   0.407   1.141  16.181  0.1142  0.6793 -0.6707
  625TIP3   OH223289   3.237   4.475   4.365 -0.1289  0.4585  0.1199
  625TIP3    H123290   3.226   4.563   4.329  0.1696 -0.2170 -1.7466
  625TIP3    H223291   3.151   4.434   4.356 -0.5778  0.8779  2.0450
  626TIP3   OH223292   2.890   3.659   4.605  0.0140 -0.3647 -0.3404
  626TIP3    H123293   2.832   3.684   4.532  1.0007 -3.0067 -2.1724
  626TIP3    H223294   2.873   3.566   4.618  2.9808 -0.9534 -0.1402
  627TIP3   OH223295   0.757   5.354  13.548  0.2807 -0.2893 -0.2362
  627TIP3    H123296   0.672   5.311  13.545  0.9292 -1.5719 -1.5875
  627TIP3    H223297   0.755   5.418  13.477 -0.6290  1.9611  1.6770
  628TIP3   OH223298   2.079   1.718   4.076  0.6316  0.5363 -0.1209
  628TIP3    H123299   2.071   1.756   4.164 -0.5085  0.5975 -0.2436
  628TIP3    H223300   2.038   1.781   4.018 -0.6121 -0.4914 -0.4196
  629TIP3   OH223301   0.689   2.061   1.509 -0.0689  0.4639  0.1106
  629TIP3    H123302   0.781   2.088   1.512 -0.4478  1.8947 -0.1261
  629TIP3    H223303   0.684   2.002   1.434  0.6314  0.5025  0.0289
  630TIP3   OH223304   4.588   0.627   1.169  0.2348 -0.3313 -0.4859
  630TIP3    H123305   4.682   0.614   1.164  0.7738  1.0620  3.1851
  630TIP3    H223306   4.576   0.721   1.158 -0.4690 -0.2154  1.0510
  631TIP3   OH223307   5.266   0.833  13.184  0.3714 -0.4546 -0.0632
  631TIP3    H123308   5.248   0.758  13.128  0.7575 -0.9347  0.4394
  631TIP3    H223309   5.256   0.909  13.127 -1.3254 -0.7982 -0.2649
  632TIP3   OH223310   6.445   6.268  13.338 -0.2413 -0.1401  0.1800
  632TIP3    H123311   6.391   6.201  13.379  0.7381 -2.1529 -1.6372
  632TIP3    H223312   6.532   6.257  13.377 -0.3359  0.9409  0.7509
  633TIP3   OH223313   6.348   2.112   1.521  0.2176  0.1882 -0.2199
  633TIP3    H123314   6.411   2.180   1.543 -0.5065  1.0995 -0.8804
  633TIP3    H223315   6.294   2.150   1.451  0.6995 -1.5939 -1.6277
  634TIP3   OH223316   1.054   0.917  16.740 -0.1061 -0.2465  0.4456
  634TIP3    H123317   1.046   0.835  16.690 -0.6180 -1.0252  1.7479
  634TIP3    H223318   1.095   0.891  16.822  3.1054  1.4329 -0.4903
  635TIP3   OH223319   4.553   3.709  13.604 -0.4987 -0.0947 -0.5982
  635TIP3    H123320   4.559   3.707  13.508 -0.6876 -1.3712 -0.6086
  635TIP3    H223321   4.589   3.794  13.629 -2.3100  1.1375 -1.9189
  636TIP3   OH223322   3.119   2.181   3.749  0.0332 -0.2539  0.2423
  636TIP3    H123323   3.099   2.273   3.733  1.5600  0.0503 -0.0258
  636TIP3    H223324   3.159   2.179   3.836  2.9697 -0.1350 -0.9845
  637TIP3   OH223325   4.354   4.803   2.483  0.5291 -0.0103  0.4469
  637TIP3    H123326   4.319   4.874   2.430 -0.3396 -0.7037  0.0647
  637TIP3    H223327   4.436   4.838   2.519 -0.2900  1.4880  0.9586
  638TIP3   OH223328   3.559   4.227  15.458  0.5475  0.1248  0.2131
  638TIP3    H123329   3.624   4.237  15.388 -0.1603  0.8163 -0.3644
  638TIP3    H223330   3.604   4.176  15.525  2.0609  1.4845  0.3040
  639TIP3   OH223331   5.069   6.298   4.789  0.1018  0.0845  0.0757
  639TIP3    H123332   5.019   6.218   4.772 -0.2039  0.2965 -0.0268
  639TIP3    H223333   5.107   6.284   4.876 -0.3221  0.0136  0.2544
  640TIP3   OH223334   6.633   6.022  17.187 -0.3576 -0.7215 -0.6040
  640TIP3    H123335   6.630   6.017  17.282 -0.5029 -0.5517 -0.5994
  640TIP3    H223336   6.713   5.976  17.163 -0.2529 -0.6494 -0.3916
  641TIP3   OH223337   4.655   1.910   0.335  0.1245 -0.0319  0.2255
  641TIP3    H123338   4.709   1.846   0.290 -1.3502 -1.6399  0.6621
  641TIP3    H223339   4.665   1.990   0.284  0.3379 -1.1707 -1.6035
  642TIP3   OH223340   3.463   1.378   3.875  0.5233  0.4131 -0.2295
  642TIP3    H123341   3.515   1.299   3.858  2.1313  1.1037  1.1645
  642TIP3    H223342   3.377   1.359   3.838  1.8065 -0.6854 -2.8999
  643TIP3   OH223343   0.352   2.855  16.910 -0.5295  0.1292  0.3884
  643TIP3    H123344   0.301   2.774  16.914 -0.5048 -0.0049 -1.1227
  643TIP3    H223345   0.403   2.847  16.829  0.0529  1.3249  0.6062
  644TIP3   OH223346   3.250   4.449   0.372  0.1333 -0.2555 -0.5158
  644TIP3    H123347   3.308   4.453   0.296 -0.3866 -0.0198 -0.9046
  644TIP3    H223348   3.200   4.530   0.368 -0.4709 -0.6152 -0.3815
  645TIP3   OH223349   5.910   0.680  16.062  0.3341 -0.1791 -0.2016
  645TIP3    H123350   5.931   0.685  16.155 -0.4767 -0.7313  0.0197
  645TIP3    H223351   5.891   0.770  16.036  1.7855  0.1692 -0.1425
  646TIP3   OH223352   5.609   0.623   4.773 -0.2153 -0.3303 -0.1001
  646TIP3    H123353   5.680   0.579   4.820 -0.3361 -0.1955  0.2150
  646TIP3    H223354   5.550   0.553   4.747 -0.3153 -0.3732  0.2395
  647TIP3   OH223355   6.676   4.790  13.081  0.9396 -0.3065 -0.2878
  647TIP3    H123356   6.739   4.858  13.102  1.4272 -0.8779  0.1416
  647TIP3    H223357   6.653   4.751  13.165 -0.6714  0.4646 -0.3256
  648TIP3   OH223358   1.579   3.507   0.473 -0.3340  0.6710 -0.1477
  648TIP3    H123359   1.494   3.541   0.500 -1.1917 -1.9990  0.8538
  648TIP3    H223360   1.561   3.464   0.389  0.1195  0.4277 -0.1229
  649TIP3   OH223361   5.413   3.294  14.700  0.0331  0.0016 -0.5235
  649TIP3    H123362   5.484   3.247  14.657 -0.0620 -2.5966  1.8816
  649TIP3    H223363   5.455   3.338  14.774 -0.5387  0.1367 -0.2758
  650TIP3   OH223364   3.560   1.400   2.148  0.1973 -0.2279 -0.5352
  650TIP3    H123365   3.529   1.365   2.232 -0.5649  3.2980  0.7995
  650TIP3    H223366   3.501   1.361   2.083 -1.2900 -0.5745  0.9470
  651TIP3   OH223367   0.673   2.536   2.098  0.2795 -0.2920  0.1039
  651TIP3    H123368   0.600   2.503   2.047 -0.0512 -0.3663  0.6195
  651TIP3    H223369   0.653   2.629   2.112 -0.0012 -0.4431  0.7266
  652TIP3   OH223370   2.418   0.871   3.964 -0.1511 -0.5247  0.4042
  652TIP3    H123371   2.442   0.893   3.874 -2.6564 -1.9965 -0.7359
  652TIP3    H223372   2.496   0.827   3.999 -0.0791 -2.6732 -2.1276
  653TIP3   OH223373   4.974   5.226   2.626 -0.4650  0.2554 -0.8565
  653TIP3    H123374   4.943   5.159   2.565  0.4447 -0.4181 -0.6008
  653TIP3    H223375   5.066   5.238   2.605  0.7493 -2.1880  2.2210
  654TIP3   OH223376   4.695   1.414  14.319  0.0539  0.3736  0.2431
  654TIP3    H123377   4.736   1.371  14.244 -2.0684 -0.4904 -0.5126
  654TIP3    H223378   4.691   1.347  14.386  0.0280  0.4971  0.3660
  655TIP3   OH223379   1.284   1.423  15.724  0.6969 -0.2775 -0.1814
  655TIP3    H123380   1.252   1.378  15.645  1.1985  2.1541 -1.8976
  655TIP3    H223381   1.374   1.391  15.735  0.5966 -0.7041 -0.5525
  656TIP3   OH223382   0.632   6.230   5.284  0.1419 -0.0679  0.3431
  656TIP3    H123383   0.584   6.298   5.235  1.4450  0.9796  0.4661
  656TIP3    H223384   0.703   6.277   5.327 -0.1708 -1.1816  2.1964
  657TIP3   OH223385   1.940   5.161   5.887  0.1111 -0.9399 -0.2416
  657TIP3    H123386   1.984   5.227   5.940  0.0135  0.1867 -1.5062
  657TIP3    H223387   1.862   5.137   5.937 -0.0094  0.1286  0.0986
  658TIP3   OH223388   5.168   3.062  11.848  0.0090 -1.1145 -0.5561
  658TIP3    H123389   5.111   3.002  11.895 -0.6122  0.3555  0.6577
  658TIP3    H223390   5.109   3.116  11.795  0.2163  0.4325  0.7286
  659TIP3   OH223391   1.677   6.704  14.106 -0.3830 -0.2594 -0.5798
  659TIP3    H123392   1.714   6.767  14.044  0.6369  0.1127  0.3797
  659TIP3    H223393   1.596   6.745  14.137 -0.1388  0.2049 -0.5581
  660TIP3   OH223394   0.855   0.077  11.832  0.0019  0.2700 -1.1459
  660TIP3    H123395   0.936   0.115  11.866  0.3070 -0.9865 -0.3989
  660TIP3    H223396   0.800   0.152  11.811  0.0595  1.1590  1.5107
  661TIP3   OH223397   0.777   4.584  16.680 -0.1700 -0.0038  0.1738
  661TIP3    H123398   0.806   4.650  16.617  0.1384 -0.5998 -0.3067
  661TIP3    H223399   0.830   4.507  16.662  0.3409 -0.0081  1.5374
  662TIP3   OH223400   2.884   4.472   3.687  0.2936 -0.2583 -0.0143
  662TIP3    H123401   2.966   4.459   3.639 -0.4699  1.2898 -1.8382
  662TIP3    H223402   2.845   4.384   3.690  1.2452 -0.7218 -0.5406
  663TIP3   OH223403   6.745   4.127   5.379 -0.7163  0.2500 -0.2309
  663TIP3    H123404   6.775   4.055   5.435  0.1430  0.3946 -0.4780
  663TIP3    H223405   6.704   4.188   5.439  1.9815  1.3812  0.6471
  664TIP3   OH223406   5.259   5.969   1.561  0.0632  0.2002  0.2557
  664TIP3    H123407   5.317   5.935   1.629 -0.9333  0.0758  1.0635
  664TIP3    H223408   5.195   6.023   1.609  0.3712  1.5273 -0.7683
  665TIP3   OH223409   6.491   0.237   3.180 -0.0573 -0.2734 -0.2041
  665TIP3    H123410   6.438   0.193   3.245  0.4975 -0.0612  0.4052
  665TIP3    H223411   6.492   0.177   3.105 -0.4199 -0.6726  0.1079
  666TIP3   OH223412   6.084   4.947   1.360 -0.0020  0.9613 -0.2523
  666TIP3    H123413   6.030   4.887   1.309  1.9088 -0.1090 -1.1520
  666TIP3    H223414   6.125   5.003   1.295  0.8162  1.0018  0.2775
  667TIP3   OH223415   2.008   1.937   5.493 -0.4575 -0.6024  0.1714
  667TIP3    H123416   2.043   1.919   5.406 -2.3913  0.5150 -0.9006
  667TIP3    H223417   1.936   1.875   5.502  0.2066 -1.2370  1.3352
  668TIP3   OH223418   0.926   5.051   4.212  0.4139  0.3349  0.1107
  668TIP3    H123419   0.970   5.064   4.296 -0.1628 -0.4221  0.5383
  668TIP3    H223420   0.929   4.957   4.197  1.4770  0.5532 -1.2611
  669TIP3   OH223421   1.136   0.341   0.229 -0.0511 -0.3036  0.2168
  669TIP3    H123422   1.213   0.313   0.180  0.1482 -0.5589  0.6728
  669TIP3    H223423   1.161   0.331   0.321 -1.3801 -2.5839  0.4169
  670TIP3   OH223424   5.274   6.722   4.370  0.0773 -0.4335  0.4363
  670TIP3    H123425   5.198   6.671   4.397  1.1857 -2.1879  0.4031
  670TIP3    H223426   5.323   6.664   4.312  1.4064  0.6865  0.3788
  671TIP3   OH223427   6.273   0.189   3.757  0.7307 -0.4085  0.2446
  671TIP3    H123428   6.321   0.113   3.791 -1.7559 -3.3811 -2.2109
  671TIP3    H223429   6.316   0.207   3.673  0.8875  0.4993  0.5170
  672TIP3   OH223430   4.780   0.835  16.237  0.2422  0.3491 -0.0076
  672TIP3    H123431   4.794   0.930  16.238  2.7274  0.0562 -1.2869
  672TIP3    H223432   4.814   0.805  16.322 -0.0810  0.5253  0.1872
  673TIP3   OH223433   2.839   6.759   4.041  0.7899  0.1455  0.0890
  673TIP3    H123434   2.879   6.672   4.049  1.1478  0.2515 -0.4519
  673TIP3    H223435   2.845   6.779   3.947 -0.0430  0.4036  0.0860
  674TIP3   OH223436   5.974   2.924   5.116  0.3457 -0.3094 -0.3473
  674TIP3    H123437   5.974   2.840   5.071 -2.3739 -0.1031 -0.9078
  674TIP3    H223438   5.946   2.987   5.050  0.3555  0.6886  0.5733
  675TIP3   OH223439   1.001   5.100  17.168  0.1919 -0.0654  0.5923
  675TIP3    H123440   1.042   5.078  17.252 -1.0711 -2.2507  0.7109
  675TIP3    H223441   1.034   5.035  17.107 -0.2022  0.4687 -0.2134
  676TIP3   OH223442   6.475   5.676   2.008  0.3933 -0.1908  0.0448
  676TIP3    H123443   6.445   5.657   2.097 -0.4685 -1.5041 -0.5073
  676TIP3    H223444   6.409   5.736   1.974  1.2813  1.1693  0.6088
  677TIP3   OH223445   4.119   4.907  12.900  0.1074  0.3080  0.3005
  677TIP3    H123446   4.130   4.964  12.824  2.1531  1.6503  1.5185
  677TIP3    H223447   4.203   4.910  12.945 -0.0762 -2.8209  1.0611
  678TIP3   OH223448   0.455   2.270  11.821  0.2723 -0.8372  0.9268
  678TIP3    H123449   0.520   2.264  11.891  2.1652  2.8207 -0.1913
  678TIP3    H223450   0.504   2.249  11.741 -0.5577 -0.4740  0.3011
  679TIP3   OH223451   2.708   0.493  11.353 -0.0005 -0.1100  0.0527
  679TIP3    H123452   2.685   0.400  11.358  1.3079 -0.4821 -0.3293
  679TIP3    H223453   2.786   0.501  11.409  1.1113  0.3200 -1.4999
  680TIP3   OH223454   5.019   3.361  15.075  0.0958  0.6702  0.2498
  680TIP3    H123455   4.947   3.381  15.017 -0.3410 -2.2282 -0.3612
  680TIP3    H223456   5.095   3.404  15.035 -0.8224  1.7235 -0.4266
  681TIP3   OH223457   1.634   5.228  12.854  0.3967 -0.1359  0.3113
  681TIP3    H123458   1.539   5.233  12.841  0.5339 -0.2117 -0.8539
  681TIP3    H223459   1.648   5.260  12.943 -0.7117  0.0006  0.4494
  682TIP3   OH223460   2.963   3.571  13.994  0.1588  0.2561 -0.4874
  682TIP3    H123461   2.872   3.542  13.989  0.4748 -1.4113  1.8931
  682TIP3    H223462   3.014   3.492  13.976  1.1085  0.7388  0.0054
  683TIP3   OH223463   0.732   3.597  13.325  0.2738  0.4609 -0.4831
  683TIP3    H123464   0.669   3.587  13.254 -1.0709  0.3292  0.6949
  683TIP3    H223465   0.738   3.510  13.364 -1.6909  1.2078  1.7224
  684TIP3   OH223466   0.478   5.125  11.277  0.0714 -0.1581 -0.0734
  684TIP3    H123467   0.400   5.074  11.254 -0.3934  0.5168 -0.0113
  684TIP3    H223468   0.479   5.197  11.214  0.5009 -0.0157  0.0944
  685TIP3   OH223469   0.486   2.310   2.470 -0.0163 -0.0449  0.7960
  685TIP3    H123470   0.564   2.365   2.476  0.3784 -0.6645  1.4916
  685TIP3    H223471   0.413   2.368   2.490  0.3493  0.3331  1.0309
  686TIP3   OH223472   0.147   6.412   0.608 -0.4347 -0.6310 -0.3779
  686TIP3    H123473   0.101   6.359   0.543  0.9766 -0.5292 -1.4870
  686TIP3    H223474   0.222   6.358   0.634  0.3492  0.3299 -0.6297
  687TIP3   OH223475   1.922   3.345   3.312  0.5400  0.2800 -0.1544
  687TIP3    H123476   1.983   3.392   3.369  1.3173  2.9802 -2.9671
  687TIP3    H223477   1.840   3.392   3.320 -0.0661 -0.8258  0.4653
  688TIP3   OH223478   6.297   0.433   4.717 -0.2594  0.1124 -0.4086
  688TIP3    H123479   6.356   0.469   4.783  0.0230  0.7615 -1.0064
  688TIP3    H223480   6.308   0.490   4.641 -0.9671 -0.3159 -0.8429
  689TIP3   OH223481   6.566   4.095  14.060 -0.1809 -0.2974 -0.3809
  689TIP3    H123482   6.543   4.106  13.968 -0.3313 -0.3946 -0.3557
  689TIP3    H223483   6.661   4.091  14.061 -0.1774 -0.2556 -0.5279
  690TIP3   OH223484   5.761   1.926  12.465  0.3303  0.5086 -0.0233
  690TIP3    H123485   5.694   1.872  12.507  1.2185  0.1524  0.9894
  690TIP3    H223486   5.818   1.863  12.421 -0.0296  0.8133 -0.9350
  691TIP3   OH223487   1.282   1.205   1.485  0.7917  0.1608  0.2824
  691TIP3    H123488   1.346   1.137   1.504  2.8943  1.8745 -0.1837
  691TIP3    H223489   1.227   1.169   1.416  1.1142 -1.4490  0.8314
  692TIP3   OH223490   1.151   4.005   3.632 -0.4170  0.3554 -0.3225
  692TIP3    H123491   1.087   4.039   3.694  0.0304  0.1276  0.2750
  692TIP3    H223492   1.146   4.064   3.557 -0.5249  0.9942  0.1848
  693TIP3   OH223493   6.191   3.403   0.103 -0.0727  0.4565 -0.6297
  693TIP3    H123494   6.119   3.355   0.145 -0.3669 -0.0287 -1.6350
  693TIP3    H223495   6.157   3.492   0.092  0.0277  0.5995  0.1861
  694TIP3   OH223496   5.960   1.529  13.432  0.1435 -0.7603 -0.2663
  694TIP3    H123497   5.965   1.500  13.523  1.4787  0.0075 -0.0634
  694TIP3    H223498   5.936   1.621  13.438 -0.5248 -0.9020 -0.7342
  695TIP3   OH223499   5.983   6.185   1.644 -0.1458  0.3230 -0.1925
  695TIP3    H123500   5.925   6.220   1.577 -0.2100  0.0288 -0.2933
  695TIP3    H223501   5.984   6.251   1.712  0.9765  1.2508 -1.0657
  696TIP3   OH223502   5.799   1.948   2.273 -0.1031 -0.0964 -0.4366
  696TIP3    H123503   5.891   1.922   2.262 -0.0193 -0.4546  0.8870
  696TIP3    H223504   5.750   1.868   2.254 -0.0275 -0.3628  0.4077
  697TIP3   OH223505   5.751   0.008   2.750  0.3480  0.6538 -0.2015
  697TIP3    H123506   5.829   0.006   2.695 -0.1404 -1.5174 -0.9134
  697TIP3    H223507   5.680  -0.016   2.691 -0.4040 -0.3425  1.0537
  698TIP3   OH223508   0.049   2.659   1.643 -0.6891  0.0529  0.3705
  698TIP3    H123509  -0.004   2.734   1.616  0.0367  1.3411  2.3201
  698TIP3    H223510   0.044   2.659   1.738 -0.6259 -2.3973  0.4392
  699TIP3   OH223511   6.457   0.181  11.202  0.3399 -0.6309  0.2143
  699TIP3    H123512   6.537   0.204  11.154  0.6017 -1.3300  0.2957
  699TIP3    H223513   6.473   0.091  11.231 -0.7089 -0.9656 -0.2264
  700TIP3   OH223514   3.344   3.292  11.712  0.0394  0.5574  0.8675
  700TIP3    H123515   3.357   3.266  11.621  0.8430  1.7212  0.6332
  700TIP3    H223516   3.254   3.266  11.731 -0.0590  0.0750 -0.1789
  701TIP3   OH223517   3.829   0.837  15.672 -0.0566  0.4457 -0.7552
  701TIP3    H123518   3.841   0.898  15.746 -0.2153 -0.4821  0.0547
  701TIP3    H223519   3.812   0.894  15.597 -0.3159  1.4037  0.0057
  702TIP3   OH223520   2.715   3.056   4.689  0.3258 -0.5092  0.5921
  702TIP3    H123521   2.697   3.136   4.639 -0.4133  0.0292  1.6828
  702TIP3    H223522   2.667   2.987   4.643 -0.6122  0.0367  0.7308
  703TIP3   OH223523   0.137   5.885   3.557 -1.0030  0.5334 -0.6277
  703TIP3    H123524   0.103   5.965   3.518 -1.8277  1.1535  1.2400
  703TIP3    H223525   0.108   5.888   3.648 -1.2987 -2.0337 -0.5553
  704TIP3   OH223526   5.204   3.407   6.028 -0.2182  0.2999 -0.5096
  704TIP3    H123527   5.152   3.330   6.005  0.8813 -0.3477 -0.8926
  704TIP3    H223528   5.148   3.457   6.088 -0.9062 -0.8548 -0.1652
  705TIP3   OH223529   4.629   1.260   4.812 -0.1014 -0.1711  0.0836
  705TIP3    H123530   4.715   1.228   4.840 -0.4243 -0.9347  0.2185
  705TIP3    H223531   4.586   1.184   4.774 -1.6990 -0.4662  2.2766
  706TIP3   OH223532   2.431   4.241  14.625 -0.8671  0.4987 -0.3528
  706TIP3    H123533   2.422   4.288  14.707  3.1867 -1.2624  1.3435
  706TIP3    H223534   2.496   4.290  14.575 -0.4217 -0.5129 -0.7968
  707TIP3   OH223535   0.025   2.282   2.026 -0.3622  0.2003  0.3669
  707TIP3    H123536  -0.038   2.353   2.040 -3.0085 -2.2426  2.0332
  707TIP3    H223537  -0.027   2.212   1.986  1.7180 -1.3961  0.2971
  708TIP3   OH223538   6.339   0.539   3.456  0.1310 -0.5192  0.0045
  708TIP3    H123539   6.406   0.534   3.524  0.3352 -0.1130 -0.1587
  708TIP3    H223540   6.272   0.597   3.491  1.0417  1.0913 -0.7827
  709TIP3   OH223541   5.418   2.158   2.160 -0.1007 -0.6610 -0.0744
  709TIP3    H123542   5.461   2.152   2.245  0.1713  1.0881 -0.0488
  709TIP3    H223543   5.329   2.125   2.176 -0.6071  1.1712  1.3456
  710TIP3   OH223544   4.051   4.301  16.258 -0.2909  0.2230  0.1636
  710TIP3    H123545   4.092   4.345  16.184 -0.6608  0.8980  0.3582
  710TIP3    H223546   4.114   4.233  16.282 -0.4316 -0.4083 -1.1475
  711TIP3   OH223547   2.082   0.411   0.919 -0.2357  0.7519 -0.0845
  711TIP3    H123548   2.084   0.462   0.838  1.1406  1.3116  0.2647
  711TIP3    H223549   2.077   0.320   0.891 -2.9440  1.0273 -0.7201
  712TIP3   OH223550   4.367   3.625   4.319  0.3693 -0.3436  0.2464
  712TIP3    H123551   4.455   3.657   4.300  0.1784  1.0814  1.5762
  712TIP3    H223552   4.347   3.658   4.407 -2.1252  0.7759 -0.6403
  713TIP3   OH223553   5.680   1.499  16.390 -0.5821 -0.4746  0.3756
  713TIP3    H123554   5.733   1.488  16.469 -0.6375  1.4541  0.7296
  713TIP3    H223555   5.707   1.427  16.333  2.5521  0.4685  0.4908
  714TIP3   OH223556   5.319   0.468  12.782  0.5502  0.2061 -0.3678
  714TIP3    H123557   5.382   0.400  12.758  0.5863 -0.1765  0.7592
  714TIP3    H223558   5.233   0.428  12.767  0.5673  0.2216 -0.5156
  715TIP3   OH223559   0.421   6.390   3.830 -0.5956 -0.2932  0.0191
  715TIP3    H123560   0.462   6.357   3.911  1.1540  1.0237 -0.2910
  715TIP3    H223561   0.457   6.477   3.818 -1.0732 -0.3266 -2.0350
  716TIP3   OH223562   3.870   6.273  14.278 -0.1412  0.2869  0.1717
  716TIP3    H123563   3.902   6.307  14.362  0.3683 -0.4876  0.3108
  716TIP3    H223564   3.817   6.343  14.242 -0.5740  0.5450  1.2598
  717TIP3   OH223565   5.761   2.683  16.043 -0.3348  0.4052 -0.4224
  717TIP3    H123566   5.678   2.690  15.996 -0.2455 -0.2583 -0.6877
  717TIP3    H223567   5.791   2.594  16.025 -1.3193 -0.6646  2.6414
  718TIP3   OH223568   0.659   0.709  12.271  0.3202  0.2664 -0.2986
  718TIP3    H123569   0.737   0.746  12.312  0.0426  0.7484 -0.1980
  718TIP3    H223570   0.692   0.634  12.221  0.7775  0.1777  0.1220
  719TIP3   OH223571   3.046   4.575  13.775  0.2449  0.2561  0.1819
  719TIP3    H123572   3.018   4.493  13.815 -0.9397  0.8003  0.5119
  719TIP3    H223573   3.141   4.568  13.770  0.1342 -1.3161 -0.2111
  720TIP3   OH223574   5.836   0.127   2.981  0.7985  0.4558 -0.3568
  720TIP3    H123575   5.928   0.140   2.962  0.7567 -0.6246 -1.3316
  720TIP3    H223576   5.806   0.063   2.917 -0.2898 -0.2987  0.8641
  721TIP3   OH223577   4.452   0.755   5.737 -0.3593 -0.4906 -0.3834
  721TIP3    H123578   4.383   0.822   5.738 -0.4619 -0.5492 -1.8240
  721TIP3    H223579   4.407   0.676   5.766 -0.1702  0.0794  1.6201
  722TIP3   OH223580   4.563   2.186   4.956 -0.1445 -0.3851 -0.2200
  722TIP3    H123581   4.548   2.097   4.924 -0.9296 -1.1144  1.9769
  722TIP3    H223582   4.631   2.176   5.023 -0.3546  0.6446  0.1661
  723TIP3   OH223583   2.155   4.003  16.815 -0.4260 -0.4695 -0.1762
  723TIP3    H123584   2.131   3.915  16.846 -0.7072 -1.4680 -2.9282
  723TIP3    H223585   2.178   4.051  16.894 -1.3404 -2.6843  1.5443
  724TIP3   OH223586   6.332   4.815   4.878 -0.1123 -0.1135 -0.0015
  724TIP3    H123587   6.420   4.832   4.912  0.1323 -2.3711  0.5945
  724TIP3    H223588   6.294   4.903   4.866  1.8677  0.8807  0.5868
  725TIP3   OH223589   5.855   2.144  13.988  0.5493  0.3391  0.2796
  725TIP3    H123590   5.886   2.211  14.049  1.1048  0.2910  0.0503
  725TIP3    H223591   5.775   2.111  14.029  1.7959 -0.8965  1.8957
  726TIP3   OH223592   5.355   5.695   6.363 -0.1321 -0.1218  0.5047
  726TIP3    H123593   5.355   5.747   6.444  1.3132 -1.2105  1.2517
  726TIP3    H223594   5.412   5.620   6.383  3.1209  1.2720 -2.5955
  727TIP3   OH223595   4.303   0.922  14.218  0.2828 -0.0531  0.1355
  727TIP3    H123596   4.215   0.884  14.227 -0.5771  1.7469 -0.1850
  727TIP3    H223597   4.295   1.009  14.257  1.4793  0.7876 -1.4062
  728TIP3   OH223598   4.278   2.721  13.127 -0.0362  0.0932  0.5349
  728TIP3    H123599   4.221   2.658  13.170  0.1602  0.9959  2.1808
  728TIP3    H223600   4.361   2.714  13.174  0.4722  0.4760 -0.2870
  729TIP3   OH223601   2.768   0.207   2.347  0.6859 -0.2778 -0.0266
  729TIP3    H123602   2.810   0.229   2.264  0.0101  0.2011 -0.2454
  729TIP3    H223603   2.675   0.201   2.326  0.5427 -0.4192  0.6409
  730TIP3   OH223604   0.788   5.767   0.037  0.1126 -0.3387 -0.2627
  730TIP3    H123605   0.788   5.785   0.131  0.4970 -2.1430  0.1232
  730TIP3    H223606   0.782   5.853  -0.004  2.2559  0.6835  1.3904
  731TIP3   OH223607   0.041   3.631   0.210 -0.2950  0.2357  0.2666
  731TIP3    H123608   0.050   3.714   0.162  2.4585 -0.0829  0.0451
  731TIP3    H223609   0.059   3.654   0.301  0.3766 -0.0654  0.2188
  732TIP3   OH223610   6.441   1.257  13.585 -0.8364 -0.1763 -0.3360
  732TIP3    H123611   6.494   1.199  13.529  1.9056  1.9522 -0.1403
  732TIP3    H223612   6.457   1.226  13.674 -0.6444 -0.1236 -0.3505
  733TIP3   OH223613   2.603   4.382   5.026  1.0306 -0.0738 -0.0041
  733TIP3    H123614   2.684   4.335   5.047  1.6457  0.7446 -0.4590
  733TIP3    H223615   2.565   4.333   4.954  1.5897  0.0420 -0.3840
  734TIP3   OH223616   5.271   6.580   3.754  0.2145 -0.2259 -0.0598
  734TIP3    H123617   5.348   6.527   3.735 -0.5686 -1.0717 -1.0212
  734TIP3    H223618   5.206   6.516   3.785 -0.4376  0.3055 -0.3104
  735TIP3   OH223619   3.360   5.166   1.624 -0.9008 -0.0980 -0.0448
  735TIP3    H123620   3.297   5.098   1.647 -0.7253 -0.5711 -0.9460
  735TIP3    H223621   3.316   5.248   1.646 -1.7990 -0.4230 -0.6064
  736TIP3   OH223622   5.545   0.709   6.707  0.0721  0.8278  0.0948
  736TIP3    H123623   5.622   0.724   6.653  0.4622 -0.0982  0.3835
  736TIP3    H223624   5.471   0.736   6.651  0.4877  0.1810 -0.7821
  737TIP3   OH223625   0.319   5.026  14.348 -0.1176 -0.0184  0.5567
  737TIP3    H123626   0.276   5.012  14.433 -1.2937 -1.3045 -0.2097
  737TIP3    H223627   0.411   5.003  14.363 -0.5212 -1.3010  1.2445
  738TIP3   OH223628   5.610   2.528  13.734 -0.7262  0.6238  0.2596
  738TIP3    H123629   5.601   2.457  13.798 -2.5909 -1.7370 -2.3550
  738TIP3    H223630   5.701   2.558  13.744 -0.2727 -1.1757  2.4259
  739TIP3   OH223631   3.166   0.907  12.122 -0.3472 -0.1834  0.0655
  739TIP3    H123632   3.169   0.873  12.033 -1.0597 -0.5032  0.1596
  739TIP3    H223633   3.176   1.002  12.112 -2.6258  0.0488 -0.5678
  740TIP3   OH223634   2.536   3.848   1.930 -0.3259 -0.2944  0.6086
  740TIP3    H123635   2.529   3.899   2.011  0.2540  0.3270  0.2728
  740TIP3    H223636   2.488   3.900   1.865  1.6628  0.7113 -0.1394
  741TIP3   OH223637   3.714   0.991  14.141 -0.3671 -0.3480 -0.5520
  741TIP3    H123638   3.708   0.905  14.182  0.2479  0.1195  0.5569
  741TIP3    H223639   3.770   0.977  14.065 -0.4729 -0.9738 -0.5217
  742TIP3   OH223640   1.368   2.551   5.602 -0.0334  0.1345 -0.5236
  742TIP3    H123641   1.282   2.513   5.584 -0.0302 -0.1405  0.0176
  742TIP3    H223642   1.424   2.475   5.617 -0.5870  0.2801  3.2703
  743TIP3   OH223643   1.716   6.495   2.616  0.0366 -0.1094  0.0389
  743TIP3    H123644   1.810   6.516   2.622  0.3869 -1.1232 -1.4083
  743TIP3    H223645   1.704   6.422   2.676  0.4461 -0.7812 -0.6825
  744TIP3   OH223646   4.442   1.516   2.242 -0.0553 -0.4577 -0.1277
  744TIP3    H123647   4.362   1.550   2.282  0.7771 -1.9578  3.1028
  744TIP3    H223648   4.511   1.576   2.270  0.0824  0.9895 -3.1191
  745TIP3   OH223649   6.774   1.523   3.840  0.3685 -0.3347  0.8319
  745TIP3    H123650   6.735   1.450   3.889 -0.4225 -0.4880 -0.0077
  745TIP3    H223651   6.773   1.494   3.749 -1.0234  1.1544  0.3230
  746TIP3   OH223652   0.648   4.097  14.511  0.0211  0.4764  0.3942
  746TIP3    H123653   0.663   4.099  14.606  0.6339 -1.4793  0.3812
  746TIP3    H223654   0.732   4.124  14.473  0.8828 -1.9550  0.4197
  747TIP3   OH223655   5.966   5.856   5.622  0.2422 -0.2219  0.2282
  747TIP3    H123656   5.963   5.927   5.559  2.8085  0.9404  1.2831
  747TIP3    H223657   6.007   5.894   5.700 -1.3046 -2.0279  2.0414
  748TIP3   OH223658   4.724   4.257   5.206  0.3989  0.2033 -0.0405
  748TIP3    H123659   4.642   4.279   5.162 -0.1978  0.5242  1.1972
  748TIP3    H223660   4.769   4.199   5.145 -0.7307  0.0402 -0.7487
  749TIP3   OH223661   3.048   4.246  11.978 -1.1137 -0.0863  0.5408
  749TIP3    H123662   3.096   4.176  12.023  1.4700  0.6939 -0.7982
  749TIP3    H223663   2.961   4.209  11.962 -0.1964 -2.5793  0.8514
  750TIP3   OH223664   0.849   4.856  16.853  0.3254  0.1152 -0.6030
  750TIP3    H123665   0.782   4.916  16.886  0.8755 -0.1447  1.1106
  750TIP3    H223666   0.859   4.880  16.761  0.3255  2.4984 -0.0634
  751TIP3   OH223667   5.817   0.178   5.156  0.4853 -0.2156 -0.0433
  751TIP3    H123668   5.901   0.223   5.147 -0.4712  2.0986  1.7524
  751TIP3    H223669   5.810   0.157   5.249 -1.4256  0.7340  0.0726
  752TIP3   OH223670   3.447   4.539   1.454  0.0760 -0.4900  0.0701
  752TIP3    H123671   3.417   4.613   1.506 -0.3741 -0.8777  0.3721
  752TIP3    H223672   3.537   4.560   1.432  1.1917 -1.4924  3.2118
  753TIP3   OH223673   2.095   5.527   3.670  0.2128 -0.4617  0.2351
  753TIP3    H123674   2.047   5.567   3.598  1.3202  1.9674  0.7310
  753TIP3    H223675   2.029   5.477   3.719 -0.9165 -0.6118 -1.3681
  754TIP3   OH223676   6.405   4.981   6.374  0.2888  0.3702 -0.0871
  754TIP3    H123677   6.362   4.957   6.293  0.9100  1.8963 -0.8995
  754TIP3    H223678   6.459   4.905   6.396 -1.7397 -1.0373  0.2535
  755TIP3   OH223679   2.449   6.179   3.979 -0.0864  0.8264 -0.6367
  755TIP3    H123680   2.405   6.152   4.060 -1.7336 -0.7286 -1.9714
  755TIP3    H223681   2.496   6.259   4.003 -1.5244  1.1076  1.5382
  756TIP3   OH223682   3.572   2.468  13.431  0.0400  0.7500 -0.3849
  756TIP3    H123683   3.532   2.385  13.457  0.0397 -0.0431 -2.6515
  756TIP3    H223684   3.500   2.531  13.433 -0.1275  0.5414  0.6225
  757TIP3   OH223685   3.705   1.744   3.608 -0.0780  0.4198 -0.0158
  757TIP3    H123686   3.678   1.821   3.558  0.9874  0.7497 -0.1014
  757TIP3    H223687   3.789   1.719   3.569  0.2390  0.0398  0.9048
  758TIP3   OH223688   4.490   0.224   4.127  0.2951  0.0921  0.1843
  758TIP3    H123689   4.584   0.232   4.110  0.4407  1.4675  1.4129
  758TIP3    H223690   4.455   0.311   4.109 -0.4124  0.1115  1.4946
  759TIP3   OH223691   0.873   4.946   0.212 -0.2729 -0.2476  0.1291
  759TIP3    H123692   0.851   5.039   0.218 -2.3404 -0.6196 -0.9609
  759TIP3    H223693   0.797   4.901   0.250  0.7899 -1.5150  0.8414
  760TIP3   OH223694   0.361   4.070  15.645  0.5626 -0.3482 -0.3708
  760TIP3    H123695   0.350   4.091  15.552 -2.1466  1.6710  0.2843
  760TIP3    H223696   0.398   4.150  15.684  1.8198 -1.2236  0.3205
  761TIP3   OH223697   0.078   2.510  11.298 -0.4564 -0.5191  0.5196
  761TIP3    H123698   0.172   2.496  11.305 -0.5398 -0.8615  1.0188
  761TIP3    H223699   0.067   2.605  11.302 -0.0398 -0.4004 -0.8388
  762TIP3   OH223700   5.109   1.907   3.779  0.3909 -0.1439  0.0551
  762TIP3    H123701   5.167   1.947   3.714 -1.4100 -1.1029 -2.3004
  762TIP3    H223702   5.164   1.841   3.822  1.3821 -0.2841 -1.3271
  763TIP3   OH223703   3.934   1.014   5.801  0.0372 -0.2100 -0.1940
  763TIP3    H123704   3.878   0.942   5.830  0.9894 -0.2310  1.7216
  763TIP3    H223705   3.931   1.077   5.873  0.1238  1.1494 -1.3527
  764TIP3   OH223706   5.055   3.458   2.259 -0.0058  0.7273  0.1688
  764TIP3    H123707   5.000   3.383   2.238  1.7845 -0.0911 -2.0961
  764TIP3    H223708   5.122   3.424   2.317  1.2711  0.2741 -1.4797
  765TIP3   OH223709   3.602   6.245  16.488 -0.0469  0.0845 -0.4082
  765TIP3    H123710   3.677   6.207  16.443  0.8166  0.6839  0.4762
  765TIP3    H223711   3.620   6.339  16.489 -0.6355  0.2003  0.1412
  766TIP3   OH223712   4.126   0.444  11.456  0.6561  0.0801 -0.0558
  766TIP3    H123713   4.124   0.527  11.503 -1.6026 -0.4605  0.9120
  766TIP3    H223714   4.109   0.467  11.365 -2.0956  0.5859  0.5057
  767TIP3   OH223715   2.490   3.156   2.752  0.0397  0.1258 -0.2574
  767TIP3    H123716   2.569   3.201   2.722 -1.7460  2.4438 -1.9660
  767TIP3    H223717   2.440   3.141   2.671 -1.1041 -1.5989  0.7236
  768TIP3   OH223718   1.133   1.982  12.583 -0.0558 -0.2813 -0.0379
  768TIP3    H123719   1.141   1.982  12.679 -0.2399  0.4942 -0.0185
  768TIP3    H223720   1.181   2.059  12.555 -0.2387 -0.3565 -0.5550
  769TIP3   OH223721   1.140   1.027   0.251 -0.3279  0.2099  0.4022
  769TIP3    H123722   1.176   1.052   0.166  0.2534 -0.0519  0.5702
  769TIP3    H223723   1.045   1.038   0.240 -0.6391 -2.9044 -1.3586
  770TIP3   OH223724   5.459   5.475   0.540  0.1373  0.3623  0.2096
  770TIP3    H123725   5.371   5.444   0.561  0.4103  0.1139  1.0113
  770TIP3    H223726   5.505   5.477   0.624  0.8328  0.7055 -0.1672
  771TIP3   OH223727   5.122   6.047  14.186  0.0239  0.3765 -0.0502
  771TIP3    H123728   5.141   5.956  14.162 -0.1925 -0.1526  1.6681
  771TIP3    H223729   5.159   6.057  14.274 -1.5102  1.4102  0.5239
  772TIP3   OH223730   1.505   0.761   2.131 -0.2804  0.3032  0.1568
  772TIP3    H123731   1.589   0.721   2.109 -0.5002  0.5128 -1.1893
  772TIP3    H223732   1.447   0.734   2.060 -1.7293 -0.9128  1.7195
  773TIP3   OH223733   5.413   2.641  15.993 -0.5690  0.5301 -0.3130
  773TIP3    H123734   5.332   2.676  15.956 -1.4027  1.9308  2.5645
  773TIP3    H223735   5.428   2.692  16.072  1.9258 -1.2163  0.4772
  774TIP3   OH223736   6.416   1.586  16.369  0.3190  0.1766  0.0925
  774TIP3    H123737   6.484   1.533  16.410  0.1792  0.0257  0.1315
  774TIP3    H223738   6.460   1.635  16.300  0.2654 -0.7244 -0.5989
  775TIP3   OH223739   4.238   5.964  15.828  0.0880 -0.2301 -0.0881
  775TIP3    H123740   4.302   5.918  15.774  2.5127 -0.7037  2.9645
  775TIP3    H223741   4.203   5.897  15.887  0.0764  0.8646  1.1991
  776TIP3   OH223742   3.707   6.097  15.260  0.0443 -0.1803 -0.7406
  776TIP3    H123743   3.693   6.185  15.297 -0.2979 -0.0912 -1.0765
  776TIP3    H223744   3.635   6.045  15.295 -0.2675 -0.1013 -1.2572
  777TIP3   OH223745   0.657   1.001  15.662  0.4860  0.5392  0.5642
  777TIP3    H123746   0.691   1.060  15.729  2.4550  0.5450 -0.3652
  777TIP3    H223747   0.704   1.025  15.583 -1.7949  0.5399 -0.8665
  778TIP3   OH223748   2.410   0.299  12.931 -0.7419  0.2690  0.2888
  778TIP3    H123749   2.432   0.386  12.966 -0.4204  1.0461 -1.7166
  778TIP3    H223750   2.488   0.272  12.882 -1.3720 -0.4989 -0.3187
  779TIP3   OH223751   4.292   1.301   3.083 -0.0292  0.0026 -0.3372
  779TIP3    H123752   4.328   1.330   2.999  0.1075  2.2420  0.4217
  779TIP3    H223753   4.286   1.381   3.135  0.4843 -1.4021  2.0195
  780TIP3   OH223754   2.725   6.122  14.470 -0.0297  0.1424 -0.3070
  780TIP3    H123755   2.788   6.125  14.542 -0.3061  0.6145 -0.0825
  780TIP3    H223756   2.770   6.072  14.401  0.2146 -0.3525  0.2077
  781TIP3   OH223757   0.107   1.637   1.841  0.3393 -0.4408 -0.2898
  781TIP3    H123758   0.148   1.606   1.922  2.0892  0.1530 -0.9046
  781TIP3    H223759   0.059   1.560   1.808  0.6075 -1.0444  0.6830
  782TIP3   OH223760   5.013   2.144   3.522  0.2924  0.0657 -0.0881
  782TIP3    H123761   4.949   2.089   3.568 -0.0955  0.1035 -0.5834
  782TIP3    H223762   5.082   2.160   3.587 -0.3420  0.2723  0.5368
  783TIP3   OH223763   4.035   3.102  16.635  0.1238 -0.1585  0.3977
  783TIP3    H123764   4.088   3.181  16.623  0.0530 -0.3437 -1.4581
  783TIP3    H223765   4.095   3.030  16.620  0.0239 -0.4603  1.3867
  784TIP3   OH223766   0.488   5.096  15.208 -0.2047  0.7405  0.1026
  784TIP3    H123767   0.556   5.106  15.141 -1.7247 -0.2317 -1.6742
  784TIP3    H223768   0.469   5.002  15.210 -2.6005  1.1436 -0.6534
  785TIP3   OH223769   1.864   1.737   1.814 -0.7156  0.3707  0.8051
  785TIP3    H123770   1.949   1.725   1.774 -0.7558  2.3025  0.0150
  785TIP3    H223771   1.827   1.649   1.821  1.3535 -0.5028  1.2595
  786TIP3   OH223772   5.921   0.389   2.480  0.5946  0.0267  0.1570
  786TIP3    H123773   5.904   0.477   2.513  3.2214  0.0389  1.8014
  786TIP3    H223774   5.842   0.365   2.432  0.6409  4.2140 -2.5318
  787TIP3   OH223775   2.613   5.547  12.868  0.0752  0.4887 -0.2780
  787TIP3    H123776   2.644   5.462  12.837 -1.7635 -0.6001  0.6757
  787TIP3    H223777   2.602   5.537  12.963 -0.4715  1.6890 -0.1827
  788TIP3   OH223778   1.806   6.377   1.045 -0.2682  0.1869 -0.2884
  788TIP3    H123779   1.778   6.452   0.993 -0.2238  0.4935  0.1190
  788TIP3    H223780   1.752   6.304   1.014  0.6671  0.0524 -1.6545
  789TIP3   OH223781   6.059   6.227   2.170 -0.4057  0.0629 -0.1688
  789TIP3    H123782   6.117   6.291   2.210  0.2031 -0.5473 -0.0620
  789TIP3    H223783   6.007   6.192   2.242  0.8315 -1.1839  0.1664
  790TIP3   OH223784   5.844   1.556  12.999  0.5287 -0.3024 -0.4710
  790TIP3    H123785   5.864   1.641  13.038  0.3638  0.0472 -1.1344
  790TIP3    H223786   5.879   1.493  13.062  2.7352  0.2612 -1.0387
  791TIP3   OH223787   2.199   0.173   3.527  0.8786 -0.2454  0.1632
  791TIP3    H123788   2.205   0.085   3.566  1.2089  1.0461  3.3840
  791TIP3    H223789   2.134   0.219   3.581  1.1719  1.6749 -1.0285
  792TIP3   OH223790   0.973   5.128   0.923  0.0264 -0.1532  0.0071
  792TIP3    H123791   1.055   5.113   0.876 -0.0254 -1.7529  0.3707
  792TIP3    H223792   0.913   5.063   0.887  0.4217 -2.5847  3.2883
  793TIP3   OH223793   3.289   1.268   2.237 -0.4490 -0.0761  0.1028
  793TIP3    H123794   3.325   1.184   2.210 -2.2542 -1.7650  2.4964
  793TIP3    H223795   3.328   1.285   2.323  0.4972  2.0147 -0.6737
  794TIP3   OH223796   1.155   3.541  12.918  0.5605 -0.1050 -0.0705
  794TIP3    H123797   1.200   3.456  12.920  1.5970  0.3861 -1.4285
  794TIP3    H223798   1.097   3.535  12.843  1.5100  0.7980 -0.9003
  795TIP3   OH223799   5.887   1.146   5.651  0.0049  0.4518  0.4898
  795TIP3    H123800   5.956   1.209   5.669 -0.0638  0.6106  0.2035
  795TIP3    H223801   5.930   1.077   5.600  0.3394 -0.2976  1.7408
  796TIP3   OH223802   6.393   4.332   2.124 -0.0869  0.3546 -0.0807
  796TIP3    H123803   6.469   4.384   2.149  0.7057 -0.9130  0.2642
  796TIP3    H223804   6.421   4.285   2.045 -0.1209 -0.8934  0.6218
  797TIP3   OH223805   0.485   4.941  11.759  0.3019 -0.1491 -0.6427
  797TIP3    H123806   0.533   4.980  11.832 -0.9234  1.0701 -0.4365
  797TIP3    H223807   0.541   4.956  11.682  1.4222 -1.0950 -0.0368
  798TIP3   OH223808   3.618   0.242   4.745 -0.6671  0.0002 -0.1749
  798TIP3    H123809   3.696   0.195   4.715  0.4987  0.5964  1.7163
  798TIP3    H223810   3.569   0.262   4.665 -0.5985 -3.2825 -1.1823
  799TIP3   OH223811   5.194   2.249   1.766 -0.3694 -0.0045 -0.4686
  799TIP3    H123812   5.282   2.214   1.781  0.1374  0.8718 -1.2699
  799TIP3    H223813   5.173   2.296   1.846 -0.3462 -0.6689 -0.0616
  800TIP3   OH223814   6.768   3.950   6.219  0.1020 -0.1659 -0.0432
  800TIP3    H123815   6.676   3.951   6.246 -0.2524 -0.4780 -1.1743
  800TIP3    H223816   6.810   3.890   6.282 -0.6187 -0.6184  0.0261
  801TIP3   OH223817   3.851   3.614  13.389  0.0757  0.4655 -0.8510
  801TIP3    H123818   3.832   3.521  13.382  0.2271  0.4175 -0.6437
  801TIP3    H223819   3.765   3.656  13.400 -0.5622  0.8414 -5.3946
  802TIP3   OH223820   3.806   5.667   5.670  0.3211  0.1032 -0.2421
  802TIP3    H123821   3.861   5.728   5.621 -0.6160  0.3206 -1.0674
  802TIP3    H223822   3.780   5.601   5.605 -0.3587 -0.0120  0.1400
  803TIP3   OH223823   3.145   5.338  15.081  0.2087  0.2671  0.0425
  803TIP3    H123824   3.233   5.310  15.104 -0.0794 -0.3239  0.4589
  803TIP3    H223825   3.152   5.368  14.990  0.9791  0.9009  0.3008
  804TIP3   OH223826   6.156   3.250  12.367  0.1658  0.3236  0.7942
  804TIP3    H123827   6.086   3.290  12.317  0.3414  2.1347  1.9010
  804TIP3    H223828   6.218   3.218  12.301 -1.1642 -0.3381 -0.1612
  805TIP3   OH223829   2.239   5.847  16.645  0.0122 -0.2299 -0.0699
  805TIP3    H123830   2.285   5.838  16.729  1.1681 -1.4361 -0.7954
  805TIP3    H223831   2.149   5.821  16.664  0.2707 -0.5569  0.7798
  806TIP3   OH223832   3.363   6.702   4.050 -0.1155 -0.6563  1.3515
  806TIP3    H123833   3.299   6.636   4.022  0.0105  0.0354 -0.7579
  806TIP3    H223834   3.352   6.774   3.988  1.9785 -0.0772  1.5561
  807TIP3   OH223835   0.882   3.676  13.082  0.0225 -0.3451  0.3959
  807TIP3    H123836   0.878   3.607  13.016 -1.0503 -0.2483  0.3433
  807TIP3    H223837   0.849   3.635  13.162 -1.2667  0.2603  0.2056
  808TIP3   OH223838   1.509   5.766   0.012  0.0844 -0.4176 -0.0133
  808TIP3    H123839   1.575   5.707   0.049 -0.4423 -0.1294  1.4694
  808TIP3    H223840   1.438   5.766   0.076 -0.5080  0.7858 -0.6293
  809TIP3   OH223841   2.067   5.741  13.554  0.5252 -0.3261 -0.5401
  809TIP3    H123842   2.111   5.720  13.472  0.2799 -1.2772 -0.4463
  809TIP3    H223843   2.137   5.745  13.619  0.6802  0.0735 -0.7303
  810TIP3   OH223844   5.993   5.946  10.822 -0.5433  0.0933  0.2538
  810TIP3    H123845   6.041   5.864  10.825 -0.3844  0.1931  0.5049
  810TIP3    H223846   6.036   6.001  10.887 -0.1226  0.6603 -0.4772
  811TIP3   OH223847   1.398   5.355   5.113 -0.2545  0.1013 -0.2237
  811TIP3    H123848   1.315   5.311   5.131  0.0958  0.4552  2.8155
  811TIP3    H223849   1.453   5.287   5.074 -1.7284 -0.2919 -1.7331
  812TIP3   OH223850   6.735   1.257  15.471 -0.0065 -0.0862  0.3997
  812TIP3    H123851   6.693   1.297  15.548  2.5948 -1.6321  2.8397
  812TIP3    H223852   6.663   1.229  15.416 -2.0176  1.3100  2.1511
  813TIP3   OH223853   0.699   6.321  11.465 -0.3540  0.0665  0.6134
  813TIP3    H123854   0.755   6.372  11.406 -2.0698  2.5796  1.0208
  813TIP3    H223855   0.723   6.230  11.446  0.3999  0.8018 -2.7277
  814TIP3   OH223856   4.174   4.379  11.600  0.3369 -0.1387  0.2766
  814TIP3    H123857   4.120   4.300  11.591 -0.0283  0.0950  0.3925
  814TIP3    H223858   4.182   4.392  11.694  1.4922 -0.7738  0.2805
  815TIP3   OH223859   3.812   2.864  12.353 -0.3452 -0.3295  0.2061
  815TIP3    H123860   3.813   2.949  12.308 -0.6457  0.0253  0.8625
  815TIP3    H223861   3.904   2.837  12.354  0.2339  1.3963  2.5989
  816TIP3   OH223862   4.312   6.099   0.097 -0.0579 -0.0099 -0.4969
  816TIP3    H123863   4.400   6.085   0.062  0.6424  2.9381 -0.2182
  816TIP3    H223864   4.296   6.024   0.153  3.3373  0.4434  1.3805
  817TIP3   OH223865   3.055   2.050  11.790  0.2945  0.7388 -0.0065
  817TIP3    H123866   3.067   1.957  11.771  1.0295  1.0314 -1.0354
  817TIP3    H223867   2.961   2.058  11.808  0.1688 -0.1386 -0.2027
  818TIP3   OH223868   1.968   6.560   0.669  0.1225 -0.3279 -0.0205
  818TIP3    H123869   1.940   6.577   0.579 -0.8507  1.3511  0.5561
  818TIP3    H223870   2.050   6.608   0.678  0.9873 -1.6692 -0.3978
  819TIP3   OH223871   1.690   3.661  17.009 -0.2400  0.7966  0.1426
  819TIP3    H123872   1.603   3.667  17.050 -0.7742  1.4694 -1.0258
  819TIP3    H223873   1.693   3.736  16.950  0.6288  0.0470 -0.7926
  820TIP3   OH223874   3.604   4.758   3.050  0.2937  1.5677  0.0921
  820TIP3    H123875   3.523   4.809   3.055 -0.0351  1.0149  0.4592
  820TIP3    H223876   3.606   4.727   2.959 -1.5125 -0.9770  0.8194
  821TIP3   OH223877   4.504   3.232   5.103  0.0693 -0.3665  0.0388
  821TIP3    H123878   4.586   3.197   5.137  1.3125 -0.3761 -2.6893
  821TIP3    H223879   4.499   3.321   5.138  0.5230 -0.8141  1.2998
  822TIP3   OH223880   6.369   5.263  16.304  0.3139 -0.2493  0.0026
  822TIP3    H123881   6.426   5.207  16.252  0.5190 -2.6028  2.5012
  822TIP3    H223882   6.428   5.307  16.366 -0.2901 -0.6098  0.8519
  823TIP3   OH223883   6.757   6.566  17.146 -0.7221  0.0157 -0.2348
  823TIP3    H123884   6.746   6.503  17.075 -1.1453 -0.5347  0.3151
  823TIP3    H223885   6.668   6.595  17.166 -0.7000 -0.5642  0.7304
  824TIP3   OH223886   2.642   0.249  11.409  0.3283 -0.5392  0.2479
  824TIP3    H123887   2.562   0.228  11.457  0.8250  0.2384  1.4526
  824TIP3    H223888   2.698   0.172  11.421  0.1974 -0.6169  0.3603
  825TIP3   OH223889   5.969   2.593  14.180 -0.4905 -0.2899 -0.1117
  825TIP3    H123890   6.046   2.607  14.235 -1.2091  1.1612  0.5825
  825TIP3    H223891   5.907   2.661  14.207 -1.7404 -0.9565 -1.1622
  826TIP3   OH223892   6.247   5.171  11.410  0.3867  0.0533 -0.1783
  826TIP3    H123893   6.290   5.254  11.390  0.7231 -0.3434 -1.1346
  826TIP3    H223894   6.286   5.144  11.494 -1.0929  1.7541  1.1281
  827TIP3   OH223895   3.761   5.038  17.286 -0.3400  0.2886 -0.1200
  827TIP3    H123896   3.820   5.054  17.360 -1.2224  1.5256  0.3551
  827TIP3    H223897   3.727   5.125  17.263 -0.9322 -0.2159 -1.2717
  828TIP3   OH223898   2.441   5.898   2.597 -0.1757  0.1141 -0.9909
  828TIP3    H123899   2.410   5.885   2.686  0.4397  0.5262 -0.7102
  828TIP3    H223900   2.423   5.990   2.578  1.7828  0.6517 -0.4379
  829TIP3   OH223901   2.460   3.790   2.357 -0.0505 -0.2314 -0.7843
  829TIP3    H123902   2.457   3.753   2.446 -0.3558  1.2924 -0.1306
  829TIP3    H223903   2.398   3.863   2.360  0.5995  0.3891 -1.9988
  830TIP3   OH223904   4.026   1.062   4.079  0.0860 -0.1607  0.0439
  830TIP3    H123905   4.057   1.008   4.151 -0.5211 -0.4662  0.0762
  830TIP3    H223906   4.027   1.004   4.003  0.0174 -0.0427 -0.0481
  831TIP3   OH223907   6.176   1.142  14.816 -0.0958 -0.3365  0.0226
  831TIP3    H123908   6.153   1.100  14.734  1.8756  0.4575 -1.0000
  831TIP3    H223909   6.227   1.076  14.864 -0.1622 -0.3639  0.0561
  832TIP3   OH223910   2.775   2.209  15.392  0.3932 -0.3812 -0.3097
  832TIP3    H123911   2.743   2.155  15.320  1.2958 -0.8838 -0.3560
  832TIP3    H223912   2.715   2.284  15.396 -0.6036 -1.1518 -0.5406
  833TIP3   OH223913   3.883   4.967   0.772  0.1283  0.1287  0.3866
  833TIP3    H123914   3.850   5.038   0.827 -2.1712 -1.1976  0.8213
  833TIP3    H223915   3.850   4.887   0.813  1.6658 -1.1537 -0.7388
  834TIP3   OH223916   0.341   3.255  13.473  0.0185  0.2913  0.2721
  834TIP3    H123917   0.382   3.169  13.470  1.2668  0.8086  1.4867
  834TIP3    H223918   0.247   3.236  13.482  0.3475 -0.9723  1.4356
  835TIP3   OH223919   6.395   4.130   5.426 -0.4023 -0.0332  0.6067
  835TIP3    H123920   6.431   4.087   5.503 -1.1168  0.1801  1.0697
  835TIP3    H223921   6.355   4.060   5.375 -0.3887 -0.1015  0.6905
  836TIP3   OH223922   0.389   6.497  11.324 -0.1964 -0.2477  0.1625
  836TIP3    H123923   0.355   6.585  11.304  0.0592  0.0821  1.1274
  836TIP3    H223924   0.456   6.482  11.256 -1.1416 -0.2559 -0.7965
  837TIP3   OH223925   5.915   5.108  11.490 -0.0099 -0.0415  0.5407
  837TIP3    H123926   5.993   5.143  11.534  0.2513 -0.2033  0.2160
  837TIP3    H223927   5.950   5.061  11.414 -0.4355  0.0100  0.3104
  838TIP3   OH223928   4.688   2.527  12.400  0.4934 -0.0590 -0.3692
  838TIP3    H123929   4.731   2.582  12.465  2.2797  0.1586 -1.6680
  838TIP3    H223930   4.614   2.579  12.370  0.4025  0.3623  0.5652
  839TIP3   OH223931   2.913   4.972   4.572 -0.2663  0.2656 -0.1895
  839TIP3    H123932   2.893   5.024   4.650 -2.2408  0.3352 -0.6891
  839TIP3    H223933   2.928   4.884   4.605 -0.3473  0.4462  0.3352
  840TIP3   OH223934   4.227   4.025  13.664 -0.2407  0.1371 -0.1300
  840TIP3    H123935   4.250   4.094  13.602  0.4111 -0.2760 -0.3552
  840TIP3    H223936   4.134   4.007  13.647 -0.2471  0.5216 -0.4979
  841TIP3   OH223937   5.481   4.891   1.730 -0.6316  0.5602  0.4963
  841TIP3    H123938   5.486   4.954   1.658  1.2068  0.6457  0.6568
  841TIP3    H223939   5.474   4.806   1.687  0.3737  0.6176  0.2029
  842TIP3   OH223940   4.683   3.454  16.741 -0.0942  0.2433  0.4350
  842TIP3    H123941   4.614   3.519  16.755  1.5257  1.7614  1.8404
  842TIP3    H223942   4.649   3.375  16.783 -1.2266  0.7772  0.5769
  843TIP3   OH223943   4.932   3.473   1.485  0.4090  0.3298 -0.1037
  843TIP3    H123944   4.909   3.414   1.414 -1.1463  3.0720 -2.0829
  843TIP3    H223945   5.026   3.459   1.498  0.6918 -0.5218 -2.4895
  844TIP3   OH223946   5.371   4.079  13.102 -0.2624  0.4235 -0.0924
  844TIP3    H123947   5.378   4.141  13.175 -1.7974  0.0323  0.4305
  844TIP3    H223948   5.338   3.999  13.141 -0.7198  0.0778 -1.1418
  845TIP3   OH223949   2.112   1.732   0.887 -0.0834 -0.1254 -0.0793
  845TIP3    H123950   2.060   1.743   0.807 -0.3196  1.2819  0.2522
  845TIP3    H223951   2.050   1.746   0.958 -0.0567 -2.1667  0.4096
  846TIP3   OH223952   4.810   4.907   0.598 -0.2186  0.2198  0.6345
  846TIP3    H123953   4.720   4.939   0.606 -0.0276  0.5407  1.6088
  846TIP3    H223954   4.819   4.843   0.669  0.2649  0.0479  0.4242
  847TIP3   OH223955   0.942   1.657   2.896 -0.3516 -0.8115 -0.0253
  847TIP3    H123956   1.007   1.727   2.904 -0.5827 -0.5265 -0.5781
  847TIP3    H223957   0.981   1.584   2.943 -0.0764 -0.3336  0.5091
  848TIP3   OH223958   5.308   1.729   0.259 -0.1354 -0.6789 -0.2205
  848TIP3    H123959   5.311   1.710   0.353  0.0044 -0.3854 -0.1654
  848TIP3    H223960   5.260   1.811   0.252  1.3338  0.2097 -0.2597
  849TIP3   OH223961   2.247   4.450   3.534  0.1095  0.7294  0.0799
  849TIP3    H123962   2.270   4.454   3.627 -0.7041  0.5403  0.3026
  849TIP3    H223963   2.207   4.363   3.523 -1.1817  1.3127 -0.0935
  850TIP3   OH223964   0.080   5.862  16.473 -0.6394  0.5536  0.0090
  850TIP3    H123965   0.024   5.874  16.396  0.2003 -0.7460 -0.8652
  850TIP3    H223966   0.166   5.894  16.445 -0.2932 -0.0695  0.3384
  851TIP3   OH223967   0.028   4.021  12.543  0.0099 -0.2025 -0.3091
  851TIP3    H123968  -0.027   4.088  12.501  0.0772  1.2680  1.7853
  851TIP3    H223969   0.058   3.966  12.471  0.1311  2.1627 -2.1993
  852TIP3   OH223970   4.564   4.390   2.400  0.2556  0.3243 -0.2136
  852TIP3    H123971   4.469   4.382   2.413  0.0272  2.5750 -0.0971
  852TIP3    H223972   4.577   4.483   2.378  2.2712 -0.2645 -1.7850
  853TIP3   OH223973   5.073   2.512   4.736  0.4148  0.0475 -0.6629
  853TIP3    H123974   5.067   2.478   4.647  3.1526 -2.3924 -0.0791
  853TIP3    H223975   5.153   2.566   4.735  0.8102 -0.4960  0.4324
  854TIP3   OH223976   0.500   0.678  15.449  0.1459 -0.4503 -0.1589
  854TIP3    H123977   0.588   0.660  15.485  0.2328 -0.2086 -0.2509
  854TIP3    H223978   0.457   0.729  15.517  0.0288 -0.6832 -0.0564
  855TIP3   OH223979   2.296   1.962  14.226 -0.2285 -0.5333 -0.1029
  855TIP3    H123980   2.238   1.895  14.190  1.0544 -0.3713 -2.7780
  855TIP3    H223981   2.366   1.914  14.270 -0.2533 -0.9050 -0.4671
  856TIP3   OH223982   5.599   1.218   0.264  0.0801  0.5491  0.4028
  856TIP3    H123983   5.543   1.235   0.187  2.3189 -0.1501 -1.4976
  856TIP3    H223984   5.630   1.305   0.290  0.0884  0.7041 -0.1067
  857TIP3   OH223985   3.676   0.502  15.179 -0.7009  0.1004  0.1948
  857TIP3    H123986   3.697   0.413  15.149 -2.5940  0.1208 -1.3803
  857TIP3    H223987   3.583   0.499  15.201 -0.6929  1.6016  0.5657
  858TIP3   OH223988   6.570   3.006  14.303 -0.2276  0.1273  0.4943
  858TIP3    H123989   6.634   3.009  14.231 -1.5547 -0.9498 -0.8176
  858TIP3    H223990   6.594   2.928  14.352 -1.1887 -0.9605 -0.7002
  859TIP3   OH223991   0.080   6.334   5.370  0.1272 -0.0282 -0.1015
  859TIP3    H123992   0.083   6.260   5.430  1.6823  1.1135  1.3299
  859TIP3    H223993   0.150   6.318   5.308 -0.6305 -0.5592 -0.8399
  860TIP3   OH223994   1.133   6.688   5.033 -0.0159 -0.1097 -0.3909
  860TIP3    H123995   1.075   6.749   5.079  1.3578 -1.0872  2.8968
  860TIP3    H223996   1.080   6.609   5.022 -0.6897  0.4748 -1.5529
  861TIP3   OH223997   3.314   0.662  13.870  0.0387  0.3329 -0.4265
  861TIP3    H123998   3.361   0.744  13.888  0.7193  0.1784 -1.4224
  861TIP3    H223999   3.379   0.594  13.889  0.1683  0.1076 -1.6493
  862TIP3   OH224000   4.577   3.612   3.040 -0.0864  0.3468 -0.5878
  862TIP3    H124001   4.543   3.522   3.039 -0.7553  0.5524  0.8839
  862TIP3    H224002   4.652   3.609   2.982  1.3061 -1.7570  1.1450
  863TIP3   OH224003   2.532   3.214  16.141 -0.4569 -0.0574  0.3774
  863TIP3    H124004   2.537   3.295  16.089  0.9667 -0.2172  0.2317
  863TIP3    H224005   2.502   3.243  16.227  2.9467  1.1598  1.3046
  864TIP3   OH224006   5.289   3.081   0.060  0.0767  0.9174  0.2533
  864TIP3    H124007   5.194   3.076   0.052  0.0687 -0.0216  0.8333
  864TIP3    H224008   5.321   3.028  -0.014  0.1418  1.0421  0.1929
  865TIP3   OH224009   0.212   2.940   3.206 -0.8174  0.6289  0.0182
  865TIP3    H124010   0.272   2.884   3.254  0.2734  0.3234 -1.6140
  865TIP3    H224011   0.152   2.879   3.163  0.1988  0.6906 -1.5405
  866TIP3   OH224012   3.181   4.322  13.937 -0.0147 -0.0105 -0.6694
  866TIP3    H124013   3.265   4.322  13.890  0.0275 -0.3929 -0.5944
  866TIP3    H224014   3.194   4.383  14.009 -0.1125  0.6640 -1.2109
  867TIP3   OH224015   3.803   2.032  14.663  0.2750 -0.0716  0.4096
  867TIP3    H124016   3.871   2.099  14.655 -0.5169  0.8645  1.2575
  867TIP3    H224017   3.851   1.951  14.681  1.2182  0.3569 -0.0891
  868TIP3   OH224018   3.919   6.363  12.789 -0.0324  0.9538 -0.0499
  868TIP3    H124019   3.981   6.321  12.730  0.9705  2.3257 -0.0224
  868TIP3    H224020   3.952   6.343  12.877 -0.8506 -0.0810  0.0441
  869TIP3   OH224021   4.786   3.617   3.474 -0.5472  0.1571  0.0258
  869TIP3    H124022   4.704   3.654   3.442 -0.3472 -0.9479 -1.8765
  869TIP3    H224023   4.849   3.634   3.404 -0.2738 -3.0597 -0.6625
  870TIP3   OH224024   6.069   3.343   4.381 -0.2837  0.2191 -0.2116
  870TIP3    H124025   6.069   3.248   4.393  0.5835  0.5346  3.3463
  870TIP3    H224026   6.157   3.370   4.406 -0.9069  2.0687  0.0926
  871TIP3   OH224027   1.243   2.087  13.025  0.4696  0.3379 -0.5468
  871TIP3    H124028   1.234   2.011  13.081 -0.3067  0.1483 -0.9145
  871TIP3    H224029   1.316   2.065  12.967  1.1428  0.4529  0.2389
  872TIP3   OH224030   2.820   6.186  13.415 -0.5075 -0.3618 -0.4731
  872TIP3    H124031   2.909   6.220  13.424 -0.7070  0.1108 -0.2962
  872TIP3    H224032   2.770   6.259  13.379 -0.8613 -0.5758 -0.4167
  873TIP3   OH224033   2.385   4.188   0.895 -0.4431  0.5190  0.3887
  873TIP3    H124034   2.379   4.203   0.989 -0.0865  3.5528  0.0213
  873TIP3    H224035   2.361   4.271   0.855 -2.5951 -1.2185 -2.3528
  874TIP3   OH224036   4.217   1.273   1.878  0.1416  0.0948  0.2421
  874TIP3    H124037   4.293   1.242   1.927 -0.1245  1.5297  1.6295
  874TIP3    H224038   4.237   1.364   1.857 -0.8574  0.2550 -0.0950
  875TIP3   OH224039   1.404   4.616  11.337 -0.0623 -0.1485  0.7304
  875TIP3    H124040   1.336   4.684  11.328 -0.8746 -0.8038  1.7063
  875TIP3    H224041   1.454   4.643  11.413 -0.2754 -0.5431  1.0132
  876TIP3   OH224042   4.543   0.957   4.217 -0.1112 -0.0402  0.9560
  876TIP3    H124043   4.594   0.968   4.298 -0.4101  0.1871  1.1129
  876TIP3    H224044   4.514   0.866   4.219 -0.0521 -0.0569  1.0652
  877TIP3   OH224045   1.786   4.062  16.579  1.2477  0.5443 -0.9133
  877TIP3    H124046   1.803   4.150  16.613  0.4818  0.4202 -0.1636
  877TIP3    H224047   1.743   4.077  16.495 -0.2474  0.9295 -0.1130
  878TIP3   OH224048   6.462   0.428  14.402  0.6603  0.1396  0.7768
  878TIP3    H124049   6.428   0.500  14.349  1.1652  1.1070  1.7187
  878TIP3    H224050   6.505   0.471  14.476  1.0622 -1.1352  1.3170
  879TIP3   OH224051   4.765   6.476   2.571 -0.2989  0.3777 -0.6249
  879TIP3    H124052   4.845   6.462   2.622 -0.3794 -1.8370 -0.9870
  879TIP3    H224053   4.785   6.551   2.516  0.0427  2.4112  2.0769
  880TIP3   OH224054   1.613   0.018   4.479 -0.3387  0.1492 -0.2389
  880TIP3    H124055   1.584   0.053   4.563 -0.1806 -0.8405  0.2366
  880TIP3    H224056   1.685   0.076   4.453  0.2551 -0.1101  0.7781
  881TIP3   OH224057   6.405   2.545   4.303 -0.3041 -0.0952  0.4654
  881TIP3    H124058   6.375   2.455   4.299  1.8766 -0.8206 -2.4276
  881TIP3    H224059   6.363   2.588   4.229  1.2470  0.3402 -0.1955
  882TIP3   OH224060   3.045   5.457   3.826  0.8253  0.7409  0.3186
  882TIP3    H124061   3.096   5.445   3.746  0.9894 -0.3087  0.5622
  882TIP3    H224062   3.109   5.448   3.897  0.7493  2.0479  0.5701
  883TIP3   OH224063   3.039   5.230   1.544 -0.1837  0.3660 -0.0386
  883TIP3    H124064   2.954   5.260   1.574 -0.0422  0.7740 -0.0341
  883TIP3    H224065   3.101   5.293   1.582  0.0558  0.4734 -0.6016
  884TIP3   OH224066   4.080   5.829   2.951  0.5064 -0.2116 -0.0010
  884TIP3    H124067   4.159   5.881   2.933 -0.1016  0.9225  0.5463
  884TIP3    H224068   4.028   5.838   2.871  0.6284 -0.4254 -0.1075
  885TIP3   OH224069   5.759   1.184   3.659 -0.5951 -0.1301 -0.3783
  885TIP3    H124070   5.663   1.176   3.659 -0.6529 -0.0043  1.5886
  885TIP3    H224071   5.780   1.216   3.747  1.3972 -1.7592 -0.1951
  886TIP3   OH224072   0.977   2.758   5.168 -0.3610 -0.0437 -0.2116
  886TIP3    H124073   0.952   2.831   5.225 -0.1893  1.1841 -1.6455
  886TIP3    H224074   1.061   2.727   5.203 -1.0690 -0.4370  1.1935
  887TIP3   OH224075   2.281   3.598   2.664  0.1469  0.2198  0.0808
  887TIP3    H124076   2.280   3.569   2.572  0.5220  0.1407  0.0976
  887TIP3    H224077   2.193   3.629   2.681  0.6197  2.3471 -0.9759
  888TIP3   OH224078   0.756   2.410   4.024  0.3421  0.1458  0.1840
  888TIP3    H124079   0.802   2.357   4.089 -0.1097  1.0172  1.2524
  888TIP3    H224080   0.663   2.391   4.039  0.2673 -1.5773 -1.9326
  889TIP3   OH224081   6.763   1.904  17.131 -0.0478 -0.3411 -0.5379
  889TIP3    H124082   6.705   1.972  17.165 -0.2001 -0.7170 -0.0292
  889TIP3    H224083   6.705   1.833  17.105  0.1762 -0.7344  0.0128
  890TIP3   OH224084   5.823   2.182   2.095  0.6624 -0.0466  0.6167
  890TIP3    H124085   5.826   2.096   2.137  1.0133  0.0186  0.7347
  890TIP3    H224086   5.814   2.244   2.168  1.8920  0.1062  0.6605
  891TIP3   OH224087   1.274   5.575   0.436 -0.2103  0.3148  0.2305
  891TIP3    H124088   1.320   5.581   0.520 -0.5908  0.2128  0.4476
  891TIP3    H224089   1.283   5.662   0.398  0.8529  0.0855 -0.0958
  892TIP3   OH224090   4.962   6.611  14.331  0.1785  0.2017  0.0918
  892TIP3    H124091   4.874   6.595  14.297 -0.0438 -1.4066  1.3165
  892TIP3    H224092   4.947   6.657  14.413  0.5649  1.0581 -0.3046
  893TIP3   OH224093   2.240   0.617  15.382 -0.1326  0.1341 -0.5869
  893TIP3    H124094   2.196   0.644  15.463  0.0328  1.1792 -0.8375
  893TIP3    H224095   2.239   0.695  15.327 -3.0072 -1.3393 -2.8842
  894TIP3   OH224096   3.729   5.679   5.378  0.0381  0.6146 -0.1546
  894TIP3    H124097   3.651   5.669   5.433 -0.3538 -1.6208 -0.9897
  894TIP3    H224098   3.724   5.768   5.345 -1.8466  0.7331  0.3238
  895TIP3   OH224099   1.374   6.663  10.645  0.3401  0.0932 -0.7792
  895TIP3    H124100   1.366   6.604  10.571  1.8135  0.1428 -1.0021
  895TIP3    H224101   1.291   6.711  10.646  1.0052  1.5356 -3.6488
  896TIP3   OH224102   3.211   0.570  16.387  0.1071  0.5496  0.1716
  896TIP3    H124103   3.138   0.560  16.447 -0.2283  2.1554  0.0799
  896TIP3    H224104   3.246   0.658  16.406  2.3167 -0.3335  0.5372
  897TIP3   OH224105   6.326   2.720  13.902  0.0701  0.0995 -0.4258
  897TIP3    H124106   6.231   2.727  13.900  0.0100 -0.6015 -0.2297
  897TIP3    H224107   6.344   2.627  13.894  0.6933  0.1019  0.6891
  898TIP3   OH224108   1.361   2.843   4.905  0.3051  0.1540  0.1886
  898TIP3    H124109   1.290   2.900   4.936 -1.3725 -2.1072  0.7914
  898TIP3    H224110   1.420   2.835   4.980 -0.8598 -0.9419  1.0306
  899TIP3   OH224111   3.658   2.326  13.165  0.0677 -0.5711 -0.4626
  899TIP3    H124112   3.623   2.383  13.234 -0.2703  0.4077 -1.4173
  899TIP3    H224113   3.753   2.335  13.172  0.0980  2.7718 -2.6213
  900TIP3   OH224114   0.883   4.105   1.277  0.0599 -0.6020 -0.0106
  900TIP3    H124115   0.947   4.128   1.209 -0.3325 -1.2605 -0.5989
  900TIP3    H224116   0.803   4.149   1.251  1.0466  3.2571  2.5431
  901TIP3   OH224117   4.649   0.751   0.080  0.5719  0.4859 -0.8869
  901TIP3    H124118   4.661   0.831   0.029  0.5646  1.0266 -0.0666
  901TIP3    H224119   4.599   0.780   0.156  3.0414  0.3252  0.9251
  902TIP3   OH224120   4.635   4.527  16.730 -0.4455 -0.0635  0.8564
  902TIP3    H124121   4.724   4.500  16.708  0.7084  4.0318 -0.3627
  902TIP3    H224122   4.579   4.473  16.674  1.4558 -0.8569 -0.3853
  903TIP3   OH224123   0.092   5.711   5.173  0.1442  0.2027 -0.4553
  903TIP3    H124124   0.124   5.701   5.084  1.5776 -0.7377  0.1376
  903TIP3    H224125   0.038   5.791   5.170 -0.5282 -0.2716 -2.3211
  904TIP3   OH224126   0.945   4.936   1.971  0.1669  0.4279  0.3377
  904TIP3    H124127   1.004   4.998   1.928 -0.4969  0.1406 -1.0588
  904TIP3    H224128   0.860   4.980   1.971 -0.2017 -0.2656 -0.2194
  905TIP3   OH224129   4.875   0.199   2.954  0.2063 -0.6896 -0.2648
  905TIP3    H124130   4.833   0.149   3.024  0.8185 -0.7006  0.1025
  905TIP3    H224131   4.947   0.143   2.925  1.7687  0.5349  1.1038
  906TIP3   OH224132   4.324   4.111  14.983 -0.6526  0.1353 -0.4373
  906TIP3    H124133   4.320   4.189  15.037 -0.4072  0.6511 -1.1531
  906TIP3    H224134   4.313   4.038  15.045  1.5644  0.5942  0.6082
  907TIP3   OH224135   1.031   3.391  17.063  0.6077 -0.3329  0.1169
  907TIP3    H124136   0.993   3.431  16.985 -1.2674 -0.5367  0.8649
  907TIP3    H224137   1.089   3.323  17.030  0.5497  0.1898 -1.1017
  908TIP3   OH224138   0.134   1.929  13.217  0.0904  0.0426  0.4490
  908TIP3    H124139   0.098   1.850  13.258 -0.1998  0.2452  0.5857
  908TIP3    H224140   0.197   1.896  13.153  1.4559 -0.2507  1.8866
  909TIP3   OH224141   1.827   2.470   1.371  0.2511  0.0029  0.4642
  909TIP3    H124142   1.792   2.425   1.448  1.3322  1.0258  1.6085
  909TIP3    H224143   1.766   2.544   1.358 -0.0028 -0.2417  0.2530
  910TIP3   OH224144   4.293   2.704   4.664 -0.3967 -0.2114  0.8122
  910TIP3    H124145   4.224   2.661   4.713  1.1362 -1.2692  2.1352
  910TIP3    H224146   4.351   2.741   4.731  0.1061  1.0223 -0.2587
  911TIP3   OH224147   4.467   2.125   1.799 -0.0429  0.1023 -0.3779
  911TIP3    H124148   4.474   2.039   1.841 -0.5045 -0.1910 -0.8885
  911TIP3    H224149   4.383   2.123   1.754  0.2826  0.5325 -1.0273
  912TIP3   OH224150   5.641   3.448  12.952 -0.7982  0.0971  0.0383
  912TIP3    H124151   5.585   3.380  12.917  0.9803 -0.0032 -2.9324
  912TIP3    H224152   5.600   3.530  12.925  0.1064  0.0273 -1.7354
  913TIP3   OH224153   5.261   4.394  13.780 -0.3623 -0.0165  0.3511
  913TIP3    H124154   5.269   4.309  13.823  3.8346 -1.5114 -2.6769
  913TIP3    H224155   5.341   4.441  13.804 -0.8182  1.5483 -0.9722
  914TIP3   OH224156   2.263   5.557  12.975 -0.2203  0.6589  0.1716
  914TIP3    H124157   2.190   5.523  13.027  1.2819 -0.1390  1.8892
  914TIP3    H224158   2.274   5.647  13.006 -0.6607  0.8862 -0.3204
  915TIP3   OH224159   4.953   3.895   0.772 -0.4659  0.2646 -0.4304
  915TIP3    H124160   4.918   3.981   0.792 -1.4443  1.4209 -5.7277
  915TIP3    H224161   5.033   3.912   0.723  1.1748 -2.0765  1.1835
  916TIP3   OH224162   4.064   5.508  11.424 -0.2868  0.0900 -0.0005
  916TIP3    H124163   4.017   5.438  11.380  2.1103 -2.1225  0.7137
  916TIP3    H224164   4.106   5.557  11.353 -2.2116  1.1055 -0.5194
  917TIP3   OH224165   5.586   2.424  11.841  0.4589  0.2536 -0.1870
  917TIP3    H124166   5.576   2.512  11.878 -0.2675 -0.7996  2.3564
  917TIP3    H224167   5.681   2.412  11.833  0.6252  0.7851  0.7826
  918TIP3   OH224168   3.298   6.218  16.744  0.5223 -0.3989 -0.3933
  918TIP3    H124169   3.288   6.124  16.756  0.3185 -0.1151  2.2415
  918TIP3    H224170   3.388   6.230  16.715  1.2783 -1.3174  1.4307
  919TIP3   OH224171   3.791   3.351  13.364 -0.2353  0.4252  0.4020
  919TIP3    H124172   3.772   3.271  13.315 -0.0121 -0.1477  1.2190
  919TIP3    H224173   3.786   3.323  13.456 -2.4894  1.8403  0.7964
  920TIP3   OH224174   0.080   6.273  15.036 -0.1262 -0.1495  0.1734
  920TIP3    H124175   0.094   6.335  14.963 -3.4639 -0.3605 -0.7959
  920TIP3    H224176   0.064   6.329  15.112 -1.7017  0.2365 -0.4005
  921TIP3   OH224177   5.924   1.851  14.734 -0.8238 -0.3079  0.1244
  921TIP3    H124178   5.941   1.759  14.756  3.5426  0.1698 -0.3423
  921TIP3    H224179   5.967   1.901  14.804  0.3228  1.2824 -1.6022
  922TIP3   OH224180   2.944   3.845   4.821  0.4737 -0.5676  0.2418
  922TIP3    H124181   3.026   3.813   4.859  0.2684  0.2106  1.3741
  922TIP3    H224182   2.928   3.786   4.747  0.9707 -2.0389  1.2410
  923TIP3   OH224183   2.304   5.750  13.676 -0.3441 -0.5046  0.3688
  923TIP3    H124184   2.363   5.824  13.664 -1.7949  0.9180  1.4947
  923TIP3    H224185   2.356   5.685  13.723  0.4522  0.5353  0.9733
  924TIP3   OH224186   0.891   3.895  16.791  0.6558  0.5459  0.2868
  924TIP3    H124187   0.870   3.967  16.731  0.6994 -0.4247 -0.9351
  924TIP3    H224188   0.822   3.898  16.857 -1.8045 -0.7659 -2.0140
  925TIP3   OH224189   0.046   0.767  16.648 -0.0816 -0.4373 -0.2670
  925TIP3    H124190   0.071   0.789  16.738  0.7742 -2.1474 -0.0411
  925TIP3    H224191  -0.042   0.730  16.656 -0.6079  0.7308 -0.3603
  926TIP3   OH224192   5.411   0.920  16.168  1.0089  0.1159 -0.4040
  926TIP3    H124193   5.346   0.896  16.102  1.8707 -0.6616 -1.0007
  926TIP3    H224194   5.490   0.937  16.118  1.3640  0.7049  0.3455
  927TIP3   OH224195   0.683   1.574   2.097  0.5284  0.3824 -0.1853
  927TIP3    H124196   0.705   1.590   2.005  0.0397  1.8912 -0.0611
  927TIP3    H224197   0.719   1.649   2.144  2.0119 -1.0552  1.0774
  928TIP3   OH224198   5.280   5.442  12.634 -0.2981 -0.0014 -0.3201
  928TIP3    H124199   5.320   5.462  12.719  1.4051 -0.1475 -1.0613
  928TIP3    H224200   5.188   5.423  12.655  0.2021 -0.5351  1.5413
  929TIP3   OH224201   6.419   3.790  14.566 -0.0814 -0.1032 -0.4809
  929TIP3    H124202   6.401   3.778  14.659 -1.4892 -0.8012 -0.8251
  929TIP3    H224203   6.503   3.747  14.552 -1.1355 -2.4461 -0.0429
  930TIP3   OH224204   0.575   4.279   1.782  0.4158  0.0791  0.3145
  930TIP3    H124205   0.522   4.346   1.826  0.3673  0.2153  0.0503
  930TIP3    H224206   0.540   4.196   1.814 -0.1760  0.1589 -0.1062
  931TIP3   OH224207   3.906   5.891   4.234  0.3034  0.0017 -0.2866
  931TIP3    H124208   3.829   5.841   4.263  0.0936 -0.3819 -1.4643
  931TIP3    H224209   3.943   5.839   4.163  1.3912  0.4248 -0.0511
  932TIP3   OH224210   0.635   1.240   3.012  0.6442 -0.0518  0.0674
  932TIP3    H124211   0.636   1.155   2.969  2.5837 -0.9577  1.7323
  932TIP3    H224212   0.627   1.303   2.941 -1.4474 -1.5841 -1.1743
  933TIP3   OH224213   5.888   3.431  12.625  0.0143 -0.1640 -0.7393
  933TIP3    H124214   5.956   3.452  12.689  0.0029 -1.1899 -0.3743
  933TIP3    H224215   5.840   3.513  12.613 -1.7052 -0.5248  2.6233
  934TIP3   OH224216   0.890   5.017  13.916 -0.7853  0.3158 -0.1503
  934TIP3    H124217   0.984   5.007  13.935 -0.6487  0.6148 -0.6348
  934TIP3    H224218   0.888   5.070  13.837 -1.2438 -2.2958 -2.0423
  935TIP3   OH224219   0.283   1.341   3.002  0.1385  0.4152  0.3920
  935TIP3    H124220   0.207   1.382   2.962 -0.1845  0.1456  0.7108
  935TIP3    H224221   0.341   1.413   3.025  0.4768  0.5505 -0.8439
  936TIP3   OH224222   6.433   0.058   2.124 -0.1135 -0.0704  0.3324
  936TIP3    H124223   6.445   0.035   2.032 -0.4427 -0.6445  0.4255
  936TIP3    H224224   6.364  -0.002   2.155 -2.7366  2.5111  0.0034
  937TIP3   OH224225   0.059   3.332   6.090 -0.2567  0.1940  0.4995
  937TIP3    H124226  -0.025   3.289   6.102  0.2829 -0.5559  1.7463
  937TIP3    H224227   0.105   3.319   6.173  1.1490  0.4653 -0.2097
  938TIP3   OH224228   6.571   0.733  15.369 -0.3804 -0.0741  0.1838
  938TIP3    H124229   6.548   0.824  15.390 -1.0594  0.1717 -1.4097
  938TIP3    H224230   6.667   0.733  15.365 -0.3824  0.6419 -0.0241
  939TIP3   OH224231   1.359   1.614   5.209  0.3143 -0.1340 -0.5701
  939TIP3    H124232   1.274   1.629   5.250  0.8423  1.8171 -0.0715
  939TIP3    H224233   1.344   1.625   5.116  0.1784  1.2654 -0.4071
  940TIP3   OH224234   5.512   2.784  11.540 -0.5943  0.3040 -0.0623
  940TIP3    H124235   5.432   2.831  11.564  1.2691  2.4624  2.5043
  940TIP3    H224236   5.566   2.850  11.497  0.3109 -0.7889 -0.6385
  941TIP3   OH224237   3.753   2.847   4.577 -0.8760 -0.4863  0.4999
  941TIP3    H124238   3.774   2.823   4.487 -0.2921 -2.1772  1.0629
  941TIP3    H224239   3.825   2.903   4.604 -0.2060 -1.3051  0.4336
  942TIP3   OH224240   0.320   2.406  12.873 -0.3854 -0.1649 -0.1269
  942TIP3    H124241   0.331   2.312  12.883 -1.5318 -0.2583  0.4532
  942TIP3    H224242   0.340   2.442  12.959 -2.2312 -0.1402  0.3359
  943TIP3   OH224243   4.725   0.266  16.112 -0.2860 -0.0629  0.1663
  943TIP3    H124244   4.820   0.253  16.114 -0.1451  0.7998 -0.6400
  943TIP3    H224245   4.713   0.359  16.129 -1.0539 -0.3235  1.1985
  944TIP3   OH224246   5.724   3.313  16.470  0.7317  0.2505  0.1327
  944TIP3    H124247   5.656   3.380  16.466  0.9474  0.5450  1.0564
  944TIP3    H224248   5.730   3.290  16.563 -0.5743 -2.3608 -0.3340
  945TIP3   OH224249   1.199   5.779  16.747  0.0810  0.0469  0.2608
  945TIP3    H124250   1.114   5.811  16.718  0.1366  0.1280  0.1858
  945TIP3    H224251   1.253   5.777  16.668  0.8734  2.2897  0.6692
  946TIP3   OH224252   4.760   1.486  10.649  0.4538 -0.0564 -0.4633
  946TIP3    H124253   4.732   1.563  10.697  0.1261  0.2017 -1.0595
  946TIP3    H224254   4.807   1.432  10.714  1.8963  1.2714 -0.3418
  947TIP3   OH224255   5.964   4.546  12.900 -0.1395 -0.5430  0.0449
  947TIP3    H124256   5.995   4.491  12.828  1.1623  0.9946 -0.6392
  947TIP3    H224257   5.980   4.636  12.870 -2.0867  0.2308  1.1603
  948TIP3   OH224258   5.744   2.679  15.701 -0.3109 -1.1018  0.7622
  948TIP3    H124259   5.660   2.635  15.702  0.0908 -1.8778  1.0302
  948TIP3    H224260   5.780   2.665  15.788 -0.6693  0.7674  1.2684
  949TIP3   OH224261   2.965   2.498  12.950 -0.1137  0.0286 -0.0253
  949TIP3    H124262   2.915   2.505  13.032 -2.4195  0.4780 -1.3769
  949TIP3    H224263   2.986   2.589  12.927  0.4722 -0.0919  0.0119
  950TIP3   OH224264   2.895   3.473   3.498 -0.0074  0.1529 -0.0930
  950TIP3    H124265   2.815   3.430   3.468 -0.0854 -0.1804  0.5684
  950TIP3    H224266   2.964   3.435   3.444  0.0223 -1.3484  0.9351
  951TIP3   OH224267   0.410   5.207   1.196  0.5287  0.5902  0.0921
  951TIP3    H124268   0.372   5.284   1.153 -0.0809  0.7554  0.8911
  951TIP3    H224269   0.335   5.149   1.209  1.3164 -1.2961 -2.7335
  952TIP3   OH224270   6.242   1.916   4.208 -0.0440  1.0289  0.5476
  952TIP3    H124271   6.195   1.993   4.178 -0.5077  0.3550 -0.4959
  952TIP3    H224272   6.302   1.949   4.275 -0.5293  2.2195  0.4130
  953TIP3   OH224273   1.952   0.700  11.415  0.3686  0.1931  0.0974
  953TIP3    H124274   1.945   0.609  11.385  0.5030  0.2792 -0.1981
  953TIP3    H224275   1.891   0.748  11.359  1.7371  0.6078 -1.1045
  954TIP3   OH224276   1.692   0.174   4.994  0.0102  0.0149  0.4910
  954TIP3    H124277   1.619   0.129   5.037 -0.3273 -0.2500 -0.3403
  954TIP3    H224278   1.714   0.246   5.052 -0.3183 -0.4424  1.1929
  955TIP3   OH224279   3.571   3.196   2.317  0.0076  0.1418  0.6090
  955TIP3    H124280   3.593   3.130   2.251 -2.1995 -1.1981  1.1330
  955TIP3    H224281   3.617   3.275   2.287  0.2657 -0.8079 -1.7100
  956TIP3   OH224282   4.258   0.156   5.918  0.0835  0.0113 -0.2727
  956TIP3    H124283   4.191   0.101   5.876  0.8242 -0.2523 -1.1331
  956TIP3    H224284   4.298   0.098   5.983 -0.6643  0.2428  0.4186
  957TIP3   OH224285   4.507   3.693   4.988 -0.0673 -0.0061 -0.3001
  957TIP3    H124286   4.502   3.789   4.984  1.1759  0.0363 -2.5044
  957TIP3    H224287   4.585   3.675   5.041  0.5593  0.2586 -1.1152
  958TIP3   OH224288   6.188   6.190   5.505 -0.2469 -0.0196 -0.9101
  958TIP3    H124289   6.183   6.147   5.590  1.4102  1.2937 -0.0861
  958TIP3    H224290   6.122   6.146   5.452  1.0171 -3.2932 -0.0360
  959TIP3   OH224291   3.767   1.541   1.016 -0.3251 -0.0333 -0.1316
  959TIP3    H124292   3.694   1.480   1.027 -0.3595  0.1643  0.9006
  959TIP3    H224293   3.727   1.628   1.027 -0.0492  0.1064 -0.2224
  960TIP3   OH224294   0.118   3.694  14.808  0.4103  0.2532 -0.1078
  960TIP3    H124295   0.114   3.659  14.719  0.5776 -2.8624  0.9880
  960TIP3    H224296   0.032   3.674  14.845  0.9163 -0.0717  0.9287
  961TIP3   OH224297   2.586   0.641  16.089 -0.0141  0.1152 -0.0050
  961TIP3    H124298   2.525   0.586  16.139  0.8330  0.3239  1.3032
  961TIP3    H224299   2.593   0.596  16.005 -0.8535 -0.7064  0.3336
  962TIP3   OH224300   4.944   1.048  15.322 -0.9095  0.1541  0.2257
  962TIP3    H124301   4.935   1.138  15.352 -1.5451 -0.3999  1.7918
  962TIP3    H224302   4.961   1.056  15.228 -3.1838  1.8461 -0.1409
  963TIP3   OH224303   0.726   3.967  12.083  0.4708  0.2256 -0.2161
  963TIP3    H124304   0.786   3.988  12.012 -0.4322  0.8892 -0.8083
  963TIP3    H224305   0.639   3.974  12.044 -0.0015 -0.8030  0.5943
  964TIP3   OH224306   4.110   2.437   2.328  0.1414  0.3925 -0.2792
  964TIP3    H124307   4.200   2.467   2.315  0.0499  1.1555  0.6791
  964TIP3    H224308   4.059   2.517   2.333 -0.4738 -0.0077 -0.0351
  965TIP3   OH224309   2.357   5.798   4.070 -0.4307 -0.1225 -0.1004
  965TIP3    H124310   2.389   5.750   4.147 -0.9491 -1.2579 -0.5674
  965TIP3    H224311   2.291   5.740   4.032  0.7872 -0.2053 -2.2010
  966TIP3   OH224312   4.980   4.960  14.581 -0.0357  0.6816  0.0330
  966TIP3    H124313   5.069   4.952  14.614  1.0442  2.0201 -2.3741
  966TIP3    H224314   4.958   4.872  14.551 -0.3072 -0.0976  2.3230
  967TIP3   OH224315   2.304   1.568  14.387  0.5469 -0.4083  0.7347
  967TIP3    H124316   2.376   1.566  14.451  0.3357  1.1048  1.0699
  967TIP3    H224317   2.345   1.600  14.307  0.7721 -2.1315  0.1215
  968TIP3   OH224318   0.973   1.196  13.356 -0.0102 -0.1905 -0.4012
  968TIP3    H124319   0.917   1.229  13.285 -1.3741 -0.6794  0.3899
  968TIP3    H224320   1.053   1.168  13.312  0.2101  1.8542 -1.3968
  969TIP3   OH224321   1.296   1.680   0.461 -0.1571 -0.3360 -0.3211
  969TIP3    H124322   1.335   1.679   0.548  0.5830  0.5864 -0.6250
  969TIP3    H224323   1.217   1.733   0.470 -0.7503 -1.2422  0.0349
  970TIP3   OH224324   1.873   3.835  16.892  0.2338 -0.0591 -0.3069
  970TIP3    H124325   1.908   3.826  16.804  2.1142 -0.3149  0.4236
  970TIP3    H224326   1.949   3.830  16.949 -0.8500  0.8943  1.3087
  971TIP3   OH224327   2.589   4.754   2.247  0.3725 -0.2702  0.5843
  971TIP3    H124328   2.632   4.745   2.332  1.1240  1.3958  0.4218
  971TIP3    H224329   2.655   4.793   2.190 -0.2558 -0.9530 -0.6664
  972TIP3   OH224330   6.732   2.653   3.248 -0.5519 -0.6751  0.3837
  972TIP3    H124331   6.757   2.709   3.175 -0.3940 -1.9024 -0.5451
  972TIP3    H224332   6.746   2.706   3.326 -1.4242  0.9181 -0.5079
  973TIP3   OH224333   5.890   6.070  14.681 -0.1736  0.3496 -0.3072
  973TIP3    H124334   5.960   6.122  14.642 -1.0206  0.9482 -1.0662
  973TIP3    H224335   5.896   6.088  14.775 -0.6826  2.1500 -0.5829
  974TIP3   OH224336   2.285   6.604  11.869 -0.5242  0.0636 -0.0998
  974TIP3    H124337   2.209   6.546  11.865 -1.1559  0.9132 -0.9205
  974TIP3    H224338   2.280   6.645  11.955 -1.4005  0.6133 -0.3974
  975TIP3   OH224339   1.175   5.291   5.867  0.1677 -0.7526  0.3490
  975TIP3    H124340   1.247   5.350   5.847  0.0700 -0.7823 -0.1106
  975TIP3    H224341   1.096   5.339   5.842  0.1466 -1.5016 -1.1374
  976TIP3   OH224342   2.706   5.991   2.170 -0.5026  0.8596  0.8035
  976TIP3    H124343   2.627   5.938   2.183  0.0716 -0.0199  0.8088
  976TIP3    H224344   2.768   5.958   2.235  0.1217  1.0222  0.3017
  977TIP3   OH224345   5.319   5.125   5.711  0.1111 -0.7833  0.2840
  977TIP3    H124346   5.243   5.172   5.745  0.4681  1.9199 -2.1925
  977TIP3    H224347   5.383   5.194   5.692  2.3300 -2.7299  0.1722
  978TIP3   OH224348   4.391   4.140  16.410 -0.1390 -0.4190 -0.0250
  978TIP3    H124349   4.423   4.054  16.438  0.4105 -0.2897 -0.2411
  978TIP3    H224350   4.314   4.155  16.464 -1.9202 -2.2815 -1.8546
  979TIP3   OH224351   5.639   3.048  11.487 -0.4976 -0.0791 -0.0843
  979TIP3    H124352   5.606   3.138  11.478 -0.2106  0.1827  1.2740
  979TIP3    H224353   5.712   3.043  11.426  0.3261  1.0597  0.7595
  980TIP3   OH224354   2.826   4.340  12.168 -0.3808  0.1971 -0.4465
  980TIP3    H124355   2.809   4.434  12.162 -0.3908  0.1971 -0.4206
  980TIP3    H224356   2.741   4.299  12.152 -0.3109  0.1844 -0.7806
  981TIP3   OH224357   2.585   0.051   0.947  0.6942  0.2785  0.0114
  981TIP3    H124358   2.584   0.051   1.042  0.9055  1.6946  0.0378
  981TIP3    H224359   2.597  -0.041   0.923 -1.6701 -0.4400  1.2896
  982TIP3   OH224360   2.035   2.244   5.990  0.0084  0.6972 -0.2365
  982TIP3    H124361   1.960   2.297   6.015  0.9265  1.4570  1.0323
  982TIP3    H224362   2.036   2.248   5.894  0.5712  3.8260 -0.2244
  983TIP3   OH224363   4.392   4.995  13.003 -0.3790 -0.1457 -0.3425
  983TIP3    H124364   4.448   4.923  13.032  0.1703  0.2686 -0.3716
  983TIP3    H224365   4.418   5.010  12.912 -0.9025 -0.2950 -0.5226
  984TIP3   OH224366   1.296   4.013   0.885 -0.5582  0.6700 -0.3511
  984TIP3    H124367   1.370   3.985   0.939 -1.3484  0.5914  0.7324
  984TIP3    H224368   1.286   4.106   0.905  0.1539  1.0485 -1.6301
  985TIP3   OH224369   5.122   2.508  16.974 -0.5955  0.2719  0.4819
  985TIP3    H124370   5.081   2.475  17.054  1.7536 -1.3985  1.0832
  985TIP3    H224371   5.056   2.566  16.936 -2.2616  0.1606  2.9697
  986TIP3   OH224372   1.796   5.767  13.561 -0.2053  0.1917 -0.0311
  986TIP3    H124373   1.798   5.859  13.535 -1.8110 -0.2056 -1.6988
  986TIP3    H224374   1.889   5.743  13.569  0.2598  1.6271 -0.7150
  987TIP3   OH224375   5.543   2.737   2.649  0.4364 -0.5909  0.4666
  987TIP3    H124376   5.559   2.729   2.555  1.4392  0.3802  0.5389
  987TIP3    H224377   5.501   2.654   2.674 -0.9457 -0.3925 -1.0455
  988TIP3   OH224378   2.622   1.935  11.331  0.8103  0.1828  0.1300
  988TIP3    H124379   2.623   1.883  11.411  0.2943 -1.5578 -0.9317
  988TIP3    H224380   2.675   1.885  11.268 -0.6347  0.3052 -1.2702
  989TIP3   OH224381   0.637   5.485   5.209 -1.2275 -0.1390  0.4397
  989TIP3    H124382   0.558   5.521   5.249 -0.1857  1.4113  1.2686
  989TIP3    H224383   0.700   5.482   5.282 -0.3439 -0.7174 -0.3285
  990TIP3   OH224384   4.559   2.965   6.341 -0.2291  0.4648 -0.8814
  990TIP3    H124385   4.599   2.949   6.427 -1.9615 -2.0592 -0.4471
  990TIP3    H224386   4.588   2.892   6.287 -0.0417  1.4476 -2.1433
  991TIP3   OH224387   5.112   6.547  11.692  0.0969 -0.5314  0.3000
  991TIP3    H124388   5.176   6.610  11.658  0.4618 -1.0800 -0.0325
  991TIP3    H224389   5.048   6.601  11.738 -0.7687  0.3341 -1.7731
  992TIP3   OH224390   3.431   1.474   0.959 -0.2375  0.1708  0.0149
  992TIP3    H124391   3.437   1.426   1.041  0.5934 -0.2528 -0.2745
  992TIP3    H224392   3.446   1.565   0.983 -0.2897  0.0858  0.3706
  993TIP3   OH224393   4.062   6.086   5.614 -0.6768  0.0861  0.2873
  993TIP3    H124394   4.098   6.085   5.703  2.1523  0.4286 -0.7639
  993TIP3    H224395   4.068   6.178   5.587 -0.2698 -0.2273 -0.7184
  994TIP3   OH224396   1.218   0.026   0.323 -0.4186 -0.1043  0.1210
  994TIP3    H124397   1.264   0.069   0.251  3.1238 -2.8463  0.4901
  994TIP3    H224398   1.157  -0.034   0.281 -0.1647  0.0731 -0.5048
  995TIP3   OH224399   0.146   4.383  16.915  0.8058 -0.1507 -0.3105
  995TIP3    H124400   0.084   4.449  16.947 -1.6712 -1.6315 -1.7875
  995TIP3    H224401   0.222   4.434  16.886  0.0355  1.7983  0.9122
  996TIP3   OH224402   3.077   1.459   4.242  0.3434 -0.6621 -0.1576
  996TIP3    H124403   2.989   1.496   4.245  1.2249  1.5506  0.8012
  996TIP3    H224404   3.073   1.383   4.299 -1.2811 -1.4781 -1.2872
  997TIP3   OH224405   6.153   2.206   5.865  0.4068 -0.4199  0.7961
  997TIP3    H124406   6.193   2.139   5.920 -0.2365 -0.2821  1.4381
  997TIP3    H224407   6.073   2.166   5.832  0.1051 -0.0276  1.0503
  998TIP3   OH224408   5.858   5.599  12.301 -0.0165 -0.1844  0.3353
  998TIP3    H124409   5.790   5.537  12.275  0.4164 -1.0435  1.2264
  998TIP3    H224410   5.859   5.664  12.230 -1.7018 -0.1846  0.2695
  999TIP3   OH224411   6.115   2.914   2.249 -0.4506 -0.6322 -0.3714
  999TIP3    H124412   6.057   2.838   2.244  1.1403 -2.1123  1.7650
  999TIP3    H224413   6.195   2.887   2.203 -0.1180  0.0157 -0.1992
 1000TIP3   OH224414   0.245   4.500   3.928 -0.5647 -0.3515  0.1397
 1000TIP3    H124415   0.231   4.548   3.846 -0.0110 -0.8716 -0.2687
 1000TIP3    H224416   0.195   4.549   3.993 -0.3832  0.5198 -0.3556
 1001TIP3   OH224417   5.255   0.198   4.220  0.1691  0.5900  0.0193
 1001TIP3    H124418   5.347   0.223   4.217  0.2779  0.1047 -0.9150
 1001TIP3    H224419   5.252   0.126   4.283  0.4553  0.5001 -0.0671
 1002TIP3   OH224420   4.607   0.898   1.170  0.3609  0.1058  0.0493
 1002TIP3    H124421   4.589   0.959   1.241  0.8096 -0.6146  0.7924
 1002TIP3    H224422   4.702   0.884   1.174  0.2656 -0.6064 -0.1465
 1003TIP3   OH224423   1.953   1.791   2.175  0.2953  0.0302 -0.7428
 1003TIP3    H124424   1.983   1.831   2.256 -0.8960  1.0461 -0.7837
 1003TIP3    H224425   1.976   1.698   2.184  1.1163  0.3264  0.2925
 1004TIP3   OH224426   2.378   4.976   0.870 -0.5807 -0.0147  0.1163
 1004TIP3    H124427   2.348   5.026   0.945  0.7083 -0.4840  0.9807
 1004TIP3    H224428   2.326   4.895   0.872  0.7769 -0.9072  1.7069
 1005TIP3   OH224429   5.057   6.689  17.212 -0.4425  0.2160  0.5598
 1005TIP3    H124430   5.118   6.701  17.140 -0.2870 -0.0856  0.6394
 1005TIP3    H224431   4.991   6.758  17.200 -1.4211 -0.9352 -0.8987
 1006TIP3   OH224432   5.948   1.803  11.740  0.1081  0.0163  0.2189
 1006TIP3    H124433   5.915   1.754  11.815  2.1723  1.1525  1.9991
 1006TIP3    H224434   5.954   1.739  11.670  0.0801 -1.6213  1.6410
 1007TIP3   OH224435   4.623   6.339  16.547 -0.6316 -0.0256  0.6115
 1007TIP3    H124436   4.530   6.330  16.526 -0.4710  0.0089 -0.1422
 1007TIP3    H224437   4.635   6.432  16.565 -0.3608  0.3347 -1.2672
 1008TIP3   OH224438   0.486   6.436   3.446  0.0142 -0.1187  0.3477
 1008TIP3    H124439   0.396   6.407   3.456  0.2568 -1.0158 -0.0116
 1008TIP3    H224440   0.487   6.484   3.363 -0.0375 -0.4950  0.1294
 1009TIP3   OH224441   6.125   6.739   4.548 -0.2803 -0.4337 -0.5069
 1009TIP3    H124442   6.107   6.809   4.611 -0.7529 -1.5262  0.6123
 1009TIP3    H224443   6.042   6.725   4.503 -0.6488 -1.3715  0.4283
 1010TIP3   OH224444   5.134   0.969   2.908 -0.2806  0.3931 -0.4302
 1010TIP3    H124445   5.132   0.939   2.817 -0.8652 -0.0469 -0.2811
 1010TIP3    H224446   5.145   0.888   2.959  1.2933  0.7493 -0.1556
 1011TIP3   OH224447   2.695   5.560   3.800 -1.0597  0.0291 -0.2986
 1011TIP3    H124448   2.751   5.564   3.877  0.1401  1.7768 -1.1800
 1011TIP3    H224449   2.693   5.468   3.775  4.0202  0.0639 -1.9765
 1012TIP3   OH224450   2.571   1.861   3.750  0.4832  0.4855 -0.1226
 1012TIP3    H124451   2.586   1.955   3.736  2.4742 -0.1107 -2.9995
 1012TIP3    H224452   2.659   1.825   3.763 -0.1951 -1.0849  0.2833
 1013TIP3   OH224453   2.796   3.356  17.270 -0.1649 -0.4790  0.0693
 1013TIP3    H124454   2.833   3.359  17.181  0.3837 -1.2713  0.2614
 1013TIP3    H224455   2.866   3.317  17.323 -0.0688  0.9776  1.0693
 1014TIP3   OH224456   5.799   4.121   0.604 -0.1029  0.3530  0.6439
 1014TIP3    H124457   5.819   4.182   0.675 -0.0516 -0.1184  1.0428
 1014TIP3    H224458   5.870   4.057   0.606  1.0582  1.4846 -1.1916
 1015TIP3   OH224459   2.662   5.392   0.929  0.0526 -0.1701 -0.4620
 1015TIP3    H124460   2.735   5.346   0.888 -1.0300 -0.6493 -1.9628
 1015TIP3    H224461   2.585   5.363   0.879 -0.8400  2.2964 -0.6345
 1016TIP3   OH224462   5.231   2.841  14.923  0.0724  0.6947 -0.7762
 1016TIP3    H124463   5.232   2.923  14.972  1.5114 -0.8903  2.1063
 1016TIP3    H224464   5.299   2.851  14.856  0.3832  1.7642 -0.3090
 1017TIP3   OH224465   6.715   5.509   1.263 -0.5056  0.0989  0.2361
 1017TIP3    H124466   6.752   5.487   1.178 -1.5263  1.4123 -0.5942
 1017TIP3    H224467   6.622   5.486   1.256 -1.2057  2.6553 -0.0334
 1018TIP3   OH224468   6.623   1.642  13.954 -0.1120  0.0886 -0.1479
 1018TIP3    H124469   6.539   1.610  13.923 -0.2630  1.1922 -0.9299
 1018TIP3    H224470   6.602   1.718  14.008  0.2772 -0.7303  1.1961
 1019TIP3   OH224471   6.463   2.092   3.056 -0.8741  0.8671  0.2484
 1019TIP3    H124472   6.535   2.149   3.029 -1.5703  2.3787  1.3941
 1019TIP3    H224473   6.505   2.019   3.100  0.0684  0.2456 -1.6171
 1020TIP3   OH224474   6.317   4.872  15.332 -0.1032 -0.0256  0.7168
 1020TIP3    H124475   6.262   4.801  15.366  0.0174  0.9677  3.1731
 1020TIP3    H224476   6.272   4.952  15.357  1.1311  0.8017  0.4083
 1021TIP3   OH224477   4.659   6.152   0.280 -0.2105  0.3784  0.2210
 1021TIP3    H124478   4.569   6.182   0.295  0.1798  0.5956  2.5834
 1021TIP3    H224479   4.654   6.099   0.201 -2.1806  1.3524 -0.3663
 1022TIP3   OH224480   0.807   4.825   5.005 -0.1809 -0.1755  0.1228
 1022TIP3    H124481   0.856   4.834   4.923  3.3491 -0.0825  2.0756
 1022TIP3    H224482   0.767   4.911   5.018  1.0866  0.5333 -0.4529
 1023TIP3   OH224483   4.233   0.609   5.830 -0.0083  0.4269  0.0762
 1023TIP3    H124484   4.199   0.620   5.918  1.0365  0.0141  0.5468
 1023TIP3    H224485   4.180   0.539   5.792  0.6280 -0.5541  0.9685
 1024TIP3   OH224486   3.778   5.268   3.971  0.0342 -0.0098 -0.3367
 1024TIP3    H124487   3.714   5.269   3.900  0.8092 -0.8246 -1.0561
 1024TIP3    H224488   3.782   5.359   4.000 -0.2929  0.3325 -1.3298
 1025TIP3   OH224489   1.814   3.889   1.908 -0.4480  0.1419  0.3170
 1025TIP3    H124490   1.841   3.879   1.817  0.3215 -2.1144  0.7426
 1025TIP3    H224491   1.808   3.984   1.920  1.1045  0.5597 -1.5972
 1026TIP3   OH224492   2.920   3.539  13.645  0.1194 -0.3130  0.5025
 1026TIP3    H124493   2.891   3.623  13.607  2.2518 -0.2977 -1.3194
 1026TIP3    H224494   2.854   3.519  13.711 -0.7805  2.5151  0.6141
 1027TIP3   OH224495   1.987   3.474   2.301 -0.5586  0.1616  0.0153
 1027TIP3    H124496   1.978   3.511   2.214 -3.6981 -1.1018 -0.3464
 1027TIP3    H224497   1.961   3.544   2.360  0.3071  0.6108 -0.1159
 1028TIP3   OH224498   1.261   3.095   4.700  0.3529 -0.2748  0.4547
 1028TIP3    H124499   1.343   3.064   4.661  0.4593  0.8718 -0.2710
 1028TIP3    H224500   1.287   3.130   4.785  0.8230  1.1219 -0.2367
 1029TIP3   OH224501   2.804   1.180   6.168  0.1187  0.4503 -0.2490
 1029TIP3    H124502   2.891   1.160   6.203 -1.1950 -0.4066  2.9101
 1029TIP3    H224503   2.779   1.262   6.212 -0.4693  0.9837 -1.5409
 1030TIP3   OH224504   6.527   2.226  11.738 -0.0379 -0.0609  0.4505
 1030TIP3    H124505   6.450   2.186  11.779 -0.3973  2.3353  2.3941
 1030TIP3    H224506   6.492   2.300  11.689  0.8961  0.2453  0.2249
 1031TIP3   OH224507   2.824   2.517  12.415  0.1573 -0.2137 -0.1583
 1031TIP3    H124508   2.788   2.604  12.433  1.2330  0.8557 -2.7127
 1031TIP3    H224509   2.854   2.486  12.501  0.7373  2.4146  0.6825
 1032TIP3   OH224510   3.791   0.322  12.566  0.0526 -0.1704  0.9343
 1032TIP3    H124511   3.777   0.306  12.659 -0.0137  0.4037  1.0230
 1032TIP3    H224512   3.712   0.369  12.538  0.6907  0.8982  0.8964
 1033TIP3   OH224513   0.421   1.777  13.337  0.0523  0.2892  0.4368
 1033TIP3    H124514   0.479   1.795  13.410  1.3642 -0.6449 -0.3342
 1033TIP3    H224515   0.462   1.821  13.262 -0.2565 -0.3181 -0.1050
 1034TIP3   OH224516   5.240   3.025  16.238 -0.2270  0.2738 -0.4391
 1034TIP3    H124517   5.191   2.978  16.170 -1.9199 -0.4855  1.2148
 1034TIP3    H224518   5.299   2.960  16.275 -1.1314 -0.0567  0.4848
 1035TIP3   OH224519   3.627   6.229  11.951  0.7194  0.1708 -1.0019
 1035TIP3    H124520   3.625   6.133  11.958  0.1494  0.0614 -2.4064
 1035TIP3    H224521   3.585   6.259  12.031  0.6189 -0.7558 -0.6868
 1036TIP3   OH224522   5.459   0.448   2.313 -0.3352  0.5491 -0.2091
 1036TIP3    H124523   5.391   0.391   2.348 -0.2263  0.6614  0.1930
 1036TIP3    H224524   5.433   0.466   2.223  0.5073 -1.5503 -0.9285
 1037TIP3   OH224525   2.501   5.915  12.408  0.0963  1.1115  0.2866
 1037TIP3    H124526   2.483   5.920  12.314  0.0917 -1.3087  0.0909
 1037TIP3    H224527   2.496   5.822  12.428 -0.6382  1.6264  2.8565
 1038TIP3   OH224528   0.730   4.714   6.410 -0.7061 -0.4160 -0.7495
 1038TIP3    H124529   0.767   4.802   6.419 -1.7137  0.1307 -1.6244
 1038TIP3    H224530   0.793   4.657   6.454  0.5162  0.6043 -1.1050
 1039TIP3   OH224531   0.222   4.222   1.615  0.1773 -0.3275  0.0990
 1039TIP3    H124532   0.146   4.211   1.558 -0.8822  0.1806  1.3675
 1039TIP3    H224533   0.263   4.135   1.617 -2.4357 -1.6182  2.1943
 1040TIP3   OH224534   4.071   6.274   3.795 -0.4409  0.2006  0.3007
 1040TIP3    H124535   4.016   6.330   3.850  1.4434  2.4819 -0.0007
 1040TIP3    H224536   4.064   6.312   3.707  0.0226 -0.7501 -0.1703
 1041TIP3   OH224537   2.942   5.900  11.138 -0.4128 -0.3078 -0.8167
 1041TIP3    H124538   2.940   5.849  11.219 -0.6368  0.9420  0.0044
 1041TIP3    H224539   3.033   5.928  11.129 -0.5164  0.0901 -0.6396
 1042TIP3   OH224540   5.543   5.882   4.822 -0.1921 -0.0493  0.1779
 1042TIP3    H124541   5.575   5.811   4.767  0.4594  0.2998  0.0963
 1042TIP3    H224542   5.528   5.841   4.908 -0.2787 -0.3810  0.0074
 1043TIP3   OH224543   2.515   0.278  14.933 -0.2821  0.3908 -0.3339
 1043TIP3    H124544   2.603   0.313  14.943  0.5647 -0.9748 -2.3722
 1043TIP3    H224545   2.522   0.187  14.962 -0.8129  0.0467 -1.2343
 1044TIP3   OH224546   2.008   4.382  12.519  0.1203 -0.2389  0.0219
 1044TIP3    H124547   1.913   4.369  12.512  0.2419 -0.6388 -0.9689
 1044TIP3    H224548   2.031   4.434  12.442  0.6764  0.0782  0.3930
 1045TIP3   OH224549   1.334   3.377   0.563  0.3166  0.1419 -0.2463
 1045TIP3    H124550   1.294   3.295   0.593  2.6769 -0.5176  1.4210
 1045TIP3    H224551   1.337   3.432   0.641 -0.8934  1.7262 -1.2722
 1046TIP3   OH224552   2.599   4.501   1.755  0.3431  0.2396  0.0454
 1046TIP3    H124553   2.551   4.424   1.722  1.3916 -1.2147  1.7543
 1046TIP3    H224554   2.531   4.564   1.776 -0.5891 -0.4228 -0.8688
 1047TIP3   OH224555   5.771   4.322   5.114  0.0318 -0.3356 -0.1011
 1047TIP3    H124556   5.816   4.368   5.185  0.2203  0.0821 -0.4825
 1047TIP3    H224557   5.813   4.355   5.035  0.6556 -1.6974 -0.3533
 1048TIP3   OH224558   1.458   3.664   3.612 -0.0810 -0.3915  0.7402
 1048TIP3    H124559   1.516   3.598   3.649 -1.1356 -1.1387  1.1067
 1048TIP3    H224560   1.370   3.630   3.626 -0.7753  1.7941  2.3945
 1049TIP3   OH224561   4.719   4.995   1.299 -0.2123  0.0435  0.0138
 1049TIP3    H124562   4.709   4.910   1.256  3.5025 -0.2778 -0.5274
 1049TIP3    H224563   4.742   5.056   1.229  0.2637  0.7969  0.7976
 1050TIP3   OH224564   6.211   4.476   0.862  0.3978 -0.3653  0.3977
 1050TIP3    H124565   6.245   4.565   0.853  1.9086 -0.9692 -0.2883
 1050TIP3    H224566   6.273   4.433   0.922 -1.0558 -0.6199  1.8064
 1051TIP3   OH224567   0.521   6.761   2.188 -0.3702 -0.3500 -0.9050
 1051TIP3    H124568   0.460   6.784   2.118  0.2217  1.3583 -0.9203
 1051TIP3    H224569   0.580   6.698   2.148 -0.3769  0.1910 -1.8046
 1052TIP3   OH224570   2.778   0.759   5.391  0.0956  0.8736  0.1814
 1052TIP3    H124571   2.754   0.774   5.483 -0.4126 -2.4319  0.7115
 1052TIP3    H224572   2.747   0.670   5.372  0.9811  1.1071 -2.9515
 1053TIP3   OH224573   4.412   3.192  16.072  0.1366  0.9220  0.0180
 1053TIP3    H124574   4.380   3.217  16.159 -0.9244  0.7431 -0.3200
 1053TIP3    H224575   4.362   3.246  16.011 -0.0166  0.1377 -0.5535
 1054TIP3   OH224576   6.409   2.382   1.793 -0.5374 -0.4663  0.1797
 1054TIP3    H124577   6.322   2.373   1.756 -0.8291 -0.9041  0.9399
 1054TIP3    H224578   6.439   2.469   1.764 -0.9565 -0.5790 -0.6107
 1055TIP3   OH224579   4.475   2.785  16.892 -0.3048  1.0917  0.3555
 1055TIP3    H124580   4.484   2.696  16.928  0.4758  1.2169  0.4700
 1055TIP3    H224581   4.482   2.773  16.798  1.5836  1.2257  0.4458
 1056TIP3   OH224582   1.361   4.048   1.363  0.0445  0.1690 -0.3103
 1056TIP3    H124583   1.421   4.090   1.301 -1.5542  0.0247 -2.0403
 1056TIP3    H224584   1.387   4.082   1.448  1.3495  1.5757 -1.2176
 1057TIP3   OH224585   6.655   2.842   4.308 -0.6890 -0.3376 -0.5781
 1057TIP3    H124586   6.686   2.751   4.307  0.5320  0.0646 -0.8705
 1057TIP3    H224587   6.734   2.894   4.291 -1.2976  0.7984 -0.0137
 1058TIP3   OH224588   4.871   5.931   5.860  0.1354 -0.3655  0.0483
 1058TIP3    H124589   4.823   5.861   5.905 -0.1550  0.3077  0.8000
 1058TIP3    H224590   4.948   5.947   5.915  1.1123 -1.2486 -1.0068
 1059TIP3   OH224591   0.984   3.441   3.579  0.4179  0.1043  0.2854
 1059TIP3    H124592   0.970   3.348   3.594 -1.2598  0.3186  0.2810
 1059TIP3    H224593   0.949   3.483   3.658  0.7883  0.7559  0.1108
 1060TIP3   OH224594   5.033   3.201  15.971  0.4908 -0.2001  0.0185
 1060TIP3    H124595   5.003   3.286  15.936 -0.0947 -0.2198  0.4586
 1060TIP3    H224596   5.125   3.215  15.990  0.1288  0.7270  1.2090
 1061TIP3   OH224597   4.160   1.956  13.239 -0.0385 -0.0410 -0.0340
 1061TIP3    H124598   4.105   1.883  13.212  0.0680  0.4481 -1.7151
 1061TIP3    H224599   4.236   1.915  13.281 -1.5506 -0.7219  2.2034
 1062TIP3   OH224600   4.765   4.257   3.083 -0.1905  0.0855  0.1178
 1062TIP3    H124601   4.736   4.348   3.079 -0.5621 -0.0647 -1.4421
 1062TIP3    H224602   4.727   4.223   3.164  1.7269  1.8545  1.8959
 1063TIP3   OH224603   0.253   6.142   1.335  0.3769  0.0324 -0.1893
 1063TIP3    H124604   0.267   6.100   1.250  0.3829  0.0891 -0.2164
 1063TIP3    H224605   0.178   6.095   1.373 -1.2323  1.5667 -1.2746
 1064TIP3   OH224606   1.148   6.416  15.293  0.0645  0.1763 -0.5831
 1064TIP3    H124607   1.166   6.483  15.358  1.5107  0.2043 -0.9745
 1064TIP3    H224608   1.162   6.460  15.209  2.7233 -0.9902 -0.8383
 1065TIP3   OH224609   6.091   0.643   2.472 -0.6782 -0.5629  0.7067
 1065TIP3    H124610   6.099   0.588   2.395  1.9178  1.2325 -0.4504
 1065TIP3    H224611   5.997   0.655   2.484 -1.2613  1.4264 -3.9838
 1066TIP3   OH224612   1.620   1.779   3.507  0.1585  0.4866  0.3175
 1066TIP3    H124613   1.540   1.741   3.471  1.2256 -1.0618 -0.5658
 1066TIP3    H224614   1.607   1.874   3.500 -2.3897  0.3519  2.0863
 1067TIP3   OH224615   4.863   1.464   2.068  0.4811 -0.0366 -0.2939
 1067TIP3    H124616   4.878   1.461   1.973  2.4704  0.5635 -0.0423
 1067TIP3    H224617   4.931   1.522   2.101 -0.8942  0.6767  1.4004
 1068TIP3   OH224618   0.949   2.802  15.591  0.1091  0.5238 -0.2885
 1068TIP3    H124619   0.869   2.825  15.638  0.2810 -0.1007  0.3232
 1068TIP3    H224620   1.018   2.853  15.634  0.4232 -0.7809  0.7941
 1069TIP3   OH224621   6.021   0.831  15.801  0.3240  0.1705 -0.1251
 1069TIP3    H124622   5.956   0.761  15.789 -1.0928  1.3412  0.4774
 1069TIP3    H224623   6.039   0.862  15.712 -0.6971  0.4803 -0.2348
 1070TIP3   OH224624   2.092   1.529  16.297  0.2809 -0.3393 -0.0053
 1070TIP3    H124625   2.117   1.492  16.213  1.1785 -0.7056  0.4031
 1070TIP3    H224626   2.004   1.495  16.314 -0.1008  0.1269 -1.0028
 1071TIP3   OH224627   4.927   2.169   5.385 -0.4963  0.0114  0.2016
 1071TIP3    H124628   4.922   2.264   5.374 -1.0861 -0.2056 -1.8405
 1071TIP3    H224629   5.020   2.151   5.396 -0.3808  0.8367  0.6315
 1072TIP3   OH224630   2.978   1.659  12.860 -0.1898  0.1003 -0.5156
 1072TIP3    H124631   3.062   1.638  12.901 -0.6020 -0.1082  0.2426
 1072TIP3    H224632   2.974   1.754  12.860  0.5680  0.1559 -1.6569
 1073TIP3   OH224633   4.793   3.161  14.621 -0.6651 -0.1539  0.7907
 1073TIP3    H124634   4.867   3.162  14.561 -0.3113  1.2184  1.2160
 1073TIP3    H224635   4.830   3.132  14.705 -0.4543  1.0524  1.1440
 1074TIP3   OH224636   4.907   2.243  14.983  0.4692 -0.0982  0.1865
 1074TIP3    H124637   4.894   2.284  15.068 -4.3471  0.8945 -0.7301
 1074TIP3    H224638   4.888   2.150  14.998  2.5304 -0.4844  0.6351
 1075TIP3   OH224639   0.846   4.364   1.798  0.1113 -0.1989  0.1595
 1075TIP3    H124640   0.754   4.339   1.805 -0.3034  1.1081 -0.2530
 1075TIP3    H224641   0.862   4.368   1.704  1.0219 -1.8408  0.2212
 1076TIP3   OH224642   4.954   4.580   1.838 -0.5470 -0.0151  0.3284
 1076TIP3    H124643   5.037   4.547   1.873 -0.2275 -1.1123 -1.3233
 1076TIP3    H224644   4.950   4.544   1.749 -1.3327  2.5441 -0.7720
 1077TIP3   OH224645   0.948   4.145  11.476  0.4766 -0.4715  0.4895
 1077TIP3    H124646   0.897   4.077  11.432 -0.9561 -0.0276  1.3834
 1077TIP3    H224647   0.971   4.207  11.407 -0.3547 -0.5949  0.0907
 1078TIP3   OH224648   0.286   1.378  15.585  0.9229 -0.3244 -0.6724
 1078TIP3    H124649   0.352   1.310  15.568  2.0149  0.4724  0.1851
 1078TIP3    H224650   0.295   1.397  15.678 -0.4601 -0.0945 -0.5646
 1079TIP3   OH224651   0.684   2.299   3.538  0.1722  0.4060  0.0875
 1079TIP3    H124652   0.701   2.216   3.494 -1.6297 -0.0720  0.2386
 1079TIP3    H224653   0.627   2.347   3.478  2.5957  2.3405 -0.8277
 1080TIP3   OH224654   0.435   3.736   1.204  0.0594 -0.0814  0.0393
 1080TIP3    H124655   0.344   3.758   1.183 -0.2545 -1.5971 -0.3392
 1080TIP3    H224656   0.453   3.659   1.150  1.0577 -0.7287  1.2543
 1081TIP3   OH224657   2.822   3.971  16.347  0.5709 -0.6598  0.4665
 1081TIP3    H124658   2.737   4.013  16.365  1.0178  1.2899 -1.5792
 1081TIP3    H224659   2.887   4.035  16.377  1.2890 -0.8408 -0.6500
 1082TIP3   OH224660   0.676   3.842  13.809 -0.2423  0.2089  0.7513
 1082TIP3    H124661   0.599   3.885  13.845  0.0311  2.0451 -0.7448
 1082TIP3    H224662   0.718   3.801  13.885 -1.9870  0.2465  1.7783
 1083TIP3   OH224663   5.012   3.120   4.003  0.3730  0.3897  0.4043
 1083TIP3    H124664   5.034   3.028   4.019  0.0023  0.1799 -0.2828
 1083TIP3    H224665   4.926   3.132   4.044  0.7583  0.6376  1.1629
 1084TIP3   OH224666   3.179   4.197  15.172  0.7851 -0.1178 -0.0823
 1084TIP3    H124667   3.243   4.258  15.209 -0.7761  0.5067  1.7354
 1084TIP3    H224668   3.232   4.122  15.143  2.5423  1.2786 -0.6884
 1085TIP3   OH224669   3.593   6.362   6.011  0.1370  0.4702  0.3359
 1085TIP3    H124670   3.536   6.344   6.085 -0.8025 -0.8437 -0.6570
 1085TIP3    H224671   3.646   6.283   6.002 -0.6269  0.0906 -1.1288
 1086TIP3   OH224672   5.692   1.178  14.992  0.2634 -0.4158 -0.1092
 1086TIP3    H124673   5.612   1.229  14.978  0.5550  0.3471  0.8706
 1086TIP3    H224674   5.737   1.180  14.907 -0.8233 -0.9958 -0.7129
 1087TIP3   OH224675   5.182   2.824  13.944 -0.1650  0.2442  0.8043
 1087TIP3    H124676   5.174   2.756  14.012  1.3187 -0.2986  0.4707
 1087TIP3    H224677   5.255   2.795  13.890 -2.3460 -0.2621 -2.1234
 1088TIP3   OH224678   5.874   0.017  16.960 -0.1477 -0.1183  0.4233
 1088TIP3    H124679   5.869  -0.008  16.868 -1.1976 -0.2469  0.4963
 1088TIP3    H224680   5.954   0.070  16.967  0.7656 -1.3720 -0.2337
 1089TIP3   OH224681   4.467   0.918  13.608  0.1929 -0.3562  0.1048
 1089TIP3    H124682   4.412   0.952  13.680 -2.3701 -1.5794 -1.1550
 1089TIP3    H224683   4.433   0.830  13.592 -0.2582  0.3125 -3.4197
 1090TIP3   OH224684   4.397   4.923  16.957  0.1012  0.3040 -0.1130
 1090TIP3    H124685   4.473   4.982  16.955  0.9536 -0.5107  2.9775
 1090TIP3    H224686   4.435   4.836  16.949 -0.4637 -0.1069  1.3872
 1091TIP3   OH224687   5.906   5.504   5.369 -1.0743  0.2494 -0.2824
 1091TIP3    H124688   5.902   5.421   5.416 -0.3403 -0.0980 -0.8089
 1091TIP3    H224689   5.972   5.555   5.415 -1.1284  0.3239 -0.2877
 1092TIP3   OH224690   3.312   0.364  13.810 -0.3882 -0.0381  0.1049
 1092TIP3    H124691   3.276   0.378  13.723 -0.7640 -0.0138  0.2595
 1092TIP3    H224692   3.239   0.384  13.869  0.5283  2.4642  0.5403
 1093TIP3   OH224693   1.581   2.539   2.534  0.4435 -0.2800  0.5804
 1093TIP3    H124694   1.624   2.621   2.509 -0.5840 -0.3374 -1.5262
 1093TIP3    H224695   1.632   2.471   2.490 -0.4019 -0.5365 -0.0119
 1094TIP3   OH224696   6.125   4.308  14.775  0.1290 -0.2215 -0.3361
 1094TIP3    H124697   6.189   4.338  14.711 -0.3516  0.7854 -0.3678
 1094TIP3    H224698   6.044   4.355  14.751 -0.0707  0.1302  0.9727
 1095TIP3   OH224699   4.608   3.764  15.636 -0.1327  0.0843 -0.4011
 1095TIP3    H124700   4.694   3.726  15.616 -0.0073  1.0152 -1.8265
 1095TIP3    H224701   4.599   3.754  15.731  1.4233 -0.3000 -0.2583
 1096TIP3   OH224702   3.374   5.514  17.015 -0.7221  0.0150  1.0145
 1096TIP3    H124703   3.424   5.476  17.088  0.0078 -0.3860  0.3198
 1096TIP3    H224704   3.420   5.596  16.994  0.7359 -1.1739 -0.7430
 1097TIP3   OH224705   3.820   1.640   1.521 -0.0010  0.4149 -0.5944
 1097TIP3    H124706   3.906   1.675   1.498 -0.3423  2.1754  0.5658
 1097TIP3    H224707   3.829   1.615   1.613  0.0058 -1.9498 -1.1989
 1098TIP3   OH224708   2.552   5.494  10.673  0.2564  0.0161 -0.4460
 1098TIP3    H124709   2.490   5.476  10.743  0.6372 -3.7769 -0.8685
 1098TIP3    H224710   2.638   5.491  10.715  0.4296 -1.2518 -0.8477
 1099TIP3   OH224711   3.226   4.174  11.435 -0.2778 -0.7192  0.1760
 1099TIP3    H124712   3.187   4.152  11.519 -1.5226  0.6751  0.0109
 1099TIP3    H224713   3.204   4.101  11.378  0.6873 -1.7349  1.0746
 1100TIP3   OH224714   2.261   5.749   2.296 -0.0415 -0.4020  0.0293
 1100TIP3    H124715   2.212   5.725   2.375  0.2703  0.3820  0.4814
 1100TIP3    H224716   2.210   5.714   2.224 -0.9590 -0.1044  0.5212
 1101TIP3   OH224717   0.644   2.629   2.675 -0.0010 -0.5305 -0.5075
 1101TIP3    H124718   0.688   2.582   2.604  1.3767  0.7682 -0.5540
 1101TIP3    H224719   0.702   2.621   2.750  1.0307  2.2688 -0.9072
 1102TIP3   OH224720   3.925   2.131   2.860  0.3334 -0.1796 -0.2469
 1102TIP3    H124721   3.970   2.210   2.831 -0.1921  0.7842  1.4053
 1102TIP3    H224722   3.832   2.150   2.846  0.2551 -0.8380 -0.6180
 1103TIP3   OH224723   3.409   4.374   0.143 -0.0564 -0.4914  0.2112
 1103TIP3    H124724   3.440   4.465   0.146  0.0843 -0.5479  0.5045
 1103TIP3    H224725   3.395   4.357   0.050 -0.1594 -0.1438  0.1610
 1104TIP3   OH224726   2.298   4.509   3.091  0.2371 -0.3817 -0.1035
 1104TIP3    H124727   2.233   4.456   3.043  1.4262  0.0906 -2.4004
 1104TIP3    H224728   2.380   4.461   3.081  0.4947 -0.4098  1.8101
 1105TIP3   OH224729   6.171   3.978   4.731  0.2439 -0.2573 -0.4528
 1105TIP3    H124730   6.128   3.893   4.721  0.2045 -0.3659  0.4857
 1105TIP3    H224731   6.262   3.962   4.707  0.1522 -0.4719 -0.6578
 1106TIP3   OH224732   3.854   2.075  13.108  0.0720  0.4284  0.3978
 1106TIP3    H124733   3.817   1.987  13.111 -0.4627  0.6536  0.4672
 1106TIP3    H224734   3.790   2.129  13.153  1.0058  0.6461  1.5229
 1107TIP3   OH224735   4.112   0.687   0.596 -0.6228  0.0377  0.0390
 1107TIP3    H124736   4.175   0.664   0.527 -0.0923 -1.1067  0.8696
 1107TIP3    H224737   4.042   0.733   0.550  0.2820  0.3565 -1.0796
 1108TIP3   OH224738   5.700   3.363   1.903  0.1796  0.7465 -0.6117
 1108TIP3    H124739   5.754   3.313   1.964  0.5625  1.1329 -0.6234
 1108TIP3    H224740   5.657   3.428   1.958  1.5731  1.9819 -0.9105
 1109TIP3   OH224741   1.737   1.849  15.383  0.1169  0.2636  0.1999
 1109TIP3    H124742   1.693   1.765  15.374 -1.2002  1.0207 -0.6649
 1109TIP3    H224743   1.822   1.827  15.421  0.2915 -1.5809 -1.1448
 1110TIP3   OH224744   1.049   3.612  12.672 -0.2326 -0.0603 -0.2070
 1110TIP3    H124745   1.121   3.553  12.650  0.5187  0.9567 -0.5611
 1110TIP3    H224746   1.089   3.681  12.724 -0.0987  2.5112 -3.3496
 1111TIP3   OH224747   4.362   5.909   3.584  0.4270  0.0743  0.1883
 1111TIP3    H124748   4.317   5.897   3.668 -0.2627  0.3262 -0.1316
 1111TIP3    H224749   4.326   5.840   3.528  0.4224  0.2894 -0.0781
 1112TIP3   OH224750   5.384   2.648   1.910 -0.1278  0.3098 -0.3218
 1112TIP3    H124751   5.297   2.645   1.869  0.3367  1.0052 -1.4062
 1112TIP3    H224752   5.380   2.583   1.980 -0.3046 -2.5423 -2.7800
 1113TIP3   OH224753   0.682   6.478  13.645 -0.4613  0.4882 -0.1192
 1113TIP3    H124754   0.614   6.454  13.707  0.2073  1.8908  1.2339
 1113TIP3    H224755   0.741   6.402  13.644 -1.5122 -0.3413 -0.5676
 1114TIP3   OH224756   4.271   3.699   4.825  0.3372  0.1105 -0.5469
 1114TIP3    H124757   4.349   3.700   4.882  0.8989 -1.5146 -1.2498
 1114TIP3    H224758   4.210   3.757   4.870  1.7377  1.0043  0.3213
 1115TIP3   OH224759   2.692   5.309  12.498 -0.0669  0.1101 -0.4933
 1115TIP3    H124760   2.688   5.243  12.428  0.1882 -1.3991  0.8649
 1115TIP3    H224761   2.777   5.352  12.485 -0.3866  0.4484 -1.6022
 1116TIP3   OH224762   6.096   1.541   5.254  0.4915 -0.0162  0.0386
 1116TIP3    H124763   6.080   1.634   5.271  0.2679 -0.4446  2.4825
 1116TIP3    H224764   6.190   1.530   5.266  0.1436 -0.5912  2.7816
 1117TIP3   OH224765   3.966   3.670   5.159  0.4544 -0.0379 -1.2607
 1117TIP3    H124766   4.049   3.698   5.199  0.9035  0.1024 -2.2650
 1117TIP3    H224767   3.922   3.751   5.135  0.8600 -0.1337 -2.3784
 1118TIP3   OH224768   2.184   6.485  10.378  0.1087  0.9488  0.1945
 1118TIP3    H124769   2.200   6.391  10.392  1.4154  1.2117  0.5240
 1118TIP3    H224770   2.265   6.528  10.405 -0.4732  2.1834  0.0335
 1119TIP3   OH224771   3.075   5.745  13.320  0.3013  0.1952 -0.5450
 1119TIP3    H124772   3.160   5.702  13.316  0.4193  0.4954 -1.3769
 1119TIP3    H224773   3.089   5.819  13.379  0.5003 -0.0053 -0.3387
 1120TIP3   OH224774   4.830   5.584   1.847  0.0430  0.5106  0.2191
 1120TIP3    H124775   4.908   5.572   1.794  0.5073 -0.4748  1.1072
 1120TIP3    H224776   4.839   5.673   1.883  0.4142  0.6543 -0.2235
 1121TIP3   OH224777   5.503   5.247   1.311  0.5495  0.8266 -0.2038
 1121TIP3    H124778   5.420   5.267   1.269  0.6333  1.4018 -0.0997
 1121TIP3    H224779   5.561   5.318   1.284  0.4460  1.5301  1.3575
 1122TIP3   OH224780   0.594   6.456  16.622  0.0661  0.2473 -0.0179
 1122TIP3    H124781   0.684   6.445  16.590 -0.0849  1.1602 -0.8051
 1122TIP3    H224782   0.540   6.458  16.543 -0.7415 -0.8873  0.4751
 1123TIP3   OH224783   3.098   4.946   3.112 -0.1032 -0.2137  0.3334
 1123TIP3    H124784   3.189   4.920   3.122  0.1485 -0.8870 -2.6291
 1123TIP3    H224785   3.047   4.875   3.151  0.5894  0.1696  2.0080
 1124TIP3   OH224786   2.277   5.075  11.629  0.0846  0.1310  0.0192
 1124TIP3    H124787   2.201   5.065  11.686  0.5724  2.7852  1.3222
 1124TIP3    H224788   2.258   5.153  11.577  2.2959  1.5847  1.2208
 1125TIP3   OH224789   1.037   0.493   2.990 -0.2055  0.3202  0.1276
 1125TIP3    H124790   1.048   0.404   2.955 -2.0511  0.2388 -0.3207
 1125TIP3    H224791   1.016   0.546   2.913 -2.1848  0.5429  0.7826
 1126TIP3   OH224792   2.924   3.557  12.730 -0.5369  0.6406 -0.6613
 1126TIP3    H124793   3.008   3.602  12.715 -0.3848  0.1171 -1.4211
 1126TIP3    H224794   2.934   3.517  12.816  0.6366 -0.8001 -1.4366
 1127TIP3   OH224795   3.506   1.658  12.567  0.5135  0.3410  0.1059
 1127TIP3    H124796   3.410   1.661  12.570  0.5286  1.6114 -0.0453
 1127TIP3    H224797   3.531   1.742  12.528  1.6717 -0.2001 -0.3575
 1128TIP3   OH224798   1.597   6.607   5.008  0.1547 -0.0327 -0.7422
 1128TIP3    H124799   1.661   6.637   4.944 -0.2336 -0.2449 -1.2334
 1128TIP3    H224800   1.603   6.512   5.006 -0.7360 -0.0924 -1.3872
 1129TIP3   OH224801   0.475   3.581   1.007 -0.4676 -0.2745  0.4673
 1129TIP3    H124802   0.468   3.632   0.926 -0.1394 -0.8021  0.0974
 1129TIP3    H224803   0.492   3.492   0.977 -0.0595 -0.4205  1.1271
 1130TIP3   OH224804   3.415   5.988   2.386  0.6221 -0.1758  0.1170
 1130TIP3    H124805   3.374   5.922   2.329  1.0272  0.4766 -0.9544
 1130TIP3    H224806   3.436   5.940   2.466 -0.5243 -0.9660 -0.0276
 1131TIP3   OH224807   3.143   4.391   3.620  0.3258  0.2791  0.3380
 1131TIP3    H124808   3.161   4.440   3.540 -0.3649  0.5834  0.3589
 1131TIP3    H224809   3.202   4.428   3.685  1.9486 -0.9718 -0.3751
 1132TIP3   OH224810   4.624   0.838  14.696 -0.0133 -0.5741  0.1315
 1132TIP3    H124811   4.708   0.877  14.722 -1.0720  0.4448  2.3002
 1132TIP3    H224812   4.575   0.910  14.657  0.5480 -1.4828 -2.4149
 1133TIP3   OH224813   0.138   6.047  13.618 -0.0424 -0.3374  0.2356
 1133TIP3    H124814   0.080   6.102  13.565  3.0485  1.4285 -1.6571
 1133TIP3    H224815   0.150   6.097  13.699  0.9285  0.7016 -0.5180
 1134TIP3   OH224816   4.567   2.874  11.922  0.2592 -0.1625 -0.3810
 1134TIP3    H124817   4.522   2.925  11.854 -2.1320 -1.2652  0.2759
 1134TIP3    H224818   4.609   2.802  11.875 -0.8214 -0.5438 -0.7893
 1135TIP3   OH224819   0.426   1.314  10.362  0.1364 -0.2457  0.0040
 1135TIP3    H124820   0.483   1.391  10.352  0.7301 -0.6421  0.3563
 1135TIP3    H224821   0.472   1.257  10.422  0.4056 -1.5565 -1.3865
 1136TIP3   OH224822   2.522   1.377  11.584 -0.0491 -0.0921 -0.1923
 1136TIP3    H124823   2.440   1.345  11.547  0.8548 -0.4260 -2.0036
 1136TIP3    H224824   2.499   1.404  11.673 -1.3582 -3.6175  0.6894
 1137TIP3   OH224825   3.646   5.082  16.565  0.1075  0.1975  0.1091
 1137TIP3    H124826   3.617   5.133  16.641  0.8442  1.4399 -0.4135
 1137TIP3    H224827   3.741   5.077  16.574  0.1098 -0.5660 -0.1895
 1138TIP3   OH224828   1.923   6.530  15.612 -0.0927 -0.1771 -0.0644
 1138TIP3    H124829   1.833   6.543  15.580  0.5137  0.6414 -1.5626
 1138TIP3    H224830   1.969   6.492  15.538  1.4054  1.8536 -0.2797
 1139TIP3   OH224831   0.342   2.084  16.627 -0.2924  0.2764 -0.0776
 1139TIP3    H124832   0.345   2.119  16.716 -0.9600  0.0167  0.0514
 1139TIP3    H224833   0.251   2.058  16.615 -0.1057 -0.1004 -0.6787
 1140TIP3   OH224834   4.826   0.292  13.657  0.0576  0.0136 -0.0634
 1140TIP3    H124835   4.843   0.205  13.692  1.0948  0.1163 -0.2781
 1140TIP3    H224836   4.875   0.351  13.714 -3.2012  0.8705  2.1342
 1141TIP3   OH224837   4.480   3.308   0.251 -0.3390  0.5855  0.5872
 1141TIP3    H124838   4.514   3.233   0.300 -0.3312 -1.2929 -2.1013
 1141TIP3    H224839   4.389   3.284   0.233 -1.1024  2.4075  1.7716
 1142TIP3   OH224840   1.443   1.598  11.237  0.3987  0.3546  0.1072
 1142TIP3    H124841   1.357   1.587  11.197  0.8376  3.4928 -2.0016
 1142TIP3    H224842   1.430   1.668  11.301  1.1343 -0.1095  0.7839
 1143TIP3   OH224843   5.758   2.867  16.811 -0.3913  0.4577 -0.3096
 1143TIP3    H124844   5.762   2.777  16.780  0.9010 -0.0809  1.2308
 1143TIP3    H224845   5.682   2.870  16.868  0.2503 -0.0307  0.5997
 1144TIP3   OH224846   1.756   5.530  15.703  0.0599 -0.1848  0.4436
 1144TIP3    H124847   1.663   5.553  15.699  0.2453  0.4574 -0.7229
 1144TIP3    H224848   1.788   5.548  15.614  1.5230  0.5766  1.1008
 1145TIP3   OH224849   0.878   2.931  12.518 -0.1199 -0.2237  0.1576
 1145TIP3    H124850   0.787   2.912  12.544 -0.1131 -0.1205  0.2580
 1145TIP3    H224851   0.927   2.854  12.546 -0.4675 -1.0878 -1.5280
 1146TIP3   OH224852   6.722   0.654  13.236  0.0345  0.0735 -0.3772
 1146TIP3    H124853   6.703   0.748  13.241 -0.9451 -0.1534  0.6457
 1146TIP3    H224854   6.731   0.637  13.142  0.7232  1.2665 -0.5619
 1147TIP3   OH224855   3.737   3.518   2.875 -0.1057 -0.4609 -0.0211
 1147TIP3    H124856   3.647   3.485   2.881 -0.3421  0.3789  1.6512
 1147TIP3    H224857   3.732   3.590   2.813 -0.2164 -1.5164 -1.2716
 1148TIP3   OH224858   4.899   2.576   3.970 -0.3560 -0.7578  0.3965
 1148TIP3    H124859   4.952   2.527   3.907  1.0744 -1.0977  1.8019
 1148TIP3    H224860   4.911   2.530   4.053 -1.3838  0.2569  1.1339
 1149TIP3   OH224861   6.521   4.750  15.068 -0.1357 -0.8134  0.1060
 1149TIP3    H124862   6.477   4.802  15.136 -1.7762 -0.8971 -0.8221
 1149TIP3    H224863   6.587   4.810  15.032  0.3260 -0.5567  1.3190
 1150TIP3   OH224864   5.425   3.454  16.675 -0.2820 -0.5247 -0.7194
 1150TIP3    H124865   5.481   3.460  16.753 -0.7473  2.2869 -0.5128
 1150TIP3    H224866   5.350   3.402  16.705  0.4872 -1.2331  0.0675
 1151TIP3   OH224867   4.806   5.370   2.992  0.8207  0.4469  0.2694
 1151TIP3    H124868   4.793   5.314   3.068  1.3664  1.5462  1.2161
 1151TIP3    H224869   4.759   5.327   2.921  0.5168 -0.7408  1.1709
 1152TIP3   OH224870   0.193   5.911   1.208 -0.2490  0.3242  0.8105
 1152TIP3    H124871   0.162   5.844   1.269 -0.1943 -0.0122  0.4687
 1152TIP3    H224872   0.145   5.894   1.127  0.5742  0.0024  0.3798
 1153TIP3   OH224873   0.651   2.598   5.955  0.3077  0.1457  0.5573
 1153TIP3    H124874   0.587   2.603   6.025 -0.3829 -0.6596  0.0103
 1153TIP3    H224875   0.735   2.593   6.000 -0.0609  0.4893  1.3006
 1154TIP3   OH224876   1.899   5.860   5.863 -0.2346 -0.1772  0.0975
 1154TIP3    H124877   1.885   5.804   5.787 -2.7293  1.1725 -0.5261
 1154TIP3    H224878   1.926   5.799   5.932  0.7339 -1.6207 -1.4628
 1155TIP3   OH224879   4.565   5.957  13.200 -0.4141 -0.7627  0.2582
 1155TIP3    H124880   4.645   6.008  13.192  0.8273 -2.6865 -0.1132
 1155TIP3    H224881   4.514   6.002  13.267  1.1334  0.2984  0.7689
 1156TIP3   OH224882   5.121   5.160  14.465 -0.0489  0.0263 -0.3149
 1156TIP3    H124883   5.129   5.225  14.534 -1.4384  0.3764 -0.4412
 1156TIP3    H224884   5.053   5.100  14.496  0.4742 -0.7581 -0.6633
 1157TIP3   OH224885   4.103   4.495  10.496  0.0905 -0.1336 -0.0005
 1157TIP3    H124886   4.017   4.527  10.467  0.6640  0.7029 -0.8122
 1157TIP3    H224887   4.157   4.495  10.417  0.4957 -1.9073  0.2321
 1158TIP3   OH224888   3.372   3.693  16.901 -0.2010  0.3796 -0.2542
 1158TIP3    H124889   3.383   3.780  16.860 -1.3497 -0.0584 -1.5775
 1158TIP3    H224890   3.287   3.662  16.869  0.0643 -1.1273  0.4177
 1159TIP3   OH224891   3.279   2.011   4.408  0.1407  0.4531  0.6486
 1159TIP3    H124892   3.349   2.063   4.367 -0.5975 -0.3403 -1.7746
 1159TIP3    H224893   3.202   2.028   4.354 -1.3656  0.5604  2.7031
 1160TIP3   OH224894   1.409   1.854   5.543 -0.4033 -0.0870 -0.0357
 1160TIP3    H124895   1.374   1.928   5.593  1.8483  1.1229 -0.1047
 1160TIP3    H224896   1.403   1.780   5.603 -1.2636  0.4837  0.6174
 1161TIP3   OH224897   0.519   5.104   5.290  0.0127 -0.0232  0.0245
 1161TIP3    H124898   0.521   5.090   5.385 -1.1023  0.1758  0.0932
 1161TIP3    H224899   0.611   5.110   5.264  0.3496  2.4099  1.4634
 1162TIP3   OH224900   6.556   0.633  16.667 -0.3556  0.2373  0.1023
 1162TIP3    H124901   6.511   0.681  16.737 -0.0623  3.6491 -1.8558
 1162TIP3    H224902   6.488   0.577  16.629 -1.0645 -0.0061  1.6312
 1163TIP3   OH224903   5.091   1.878   6.293 -0.4129  0.6765  0.1994
 1163TIP3    H124904   5.156   1.946   6.271 -1.0379  0.5598 -2.3903
 1163TIP3    H224905   5.134   1.824   6.359  1.3440  1.7759  0.0248
 1164TIP3   OH224906   3.914   1.184  15.185 -0.1748 -0.1159  0.3599
 1164TIP3    H124907   3.895   1.266  15.140  0.8959 -0.6418 -1.1228
 1164TIP3    H224908   4.000   1.197  15.224  0.0430 -0.5804  0.0296
 1165TIP3   OH224909   5.755   4.526  15.881 -0.1430 -0.1935 -0.0079
 1165TIP3    H124910   5.783   4.490  15.797 -2.4225 -0.2949 -0.8049
 1165TIP3    H224911   5.674   4.574  15.861 -1.2800 -1.0121  2.2617
 1166TIP3   OH224912   5.688   3.415  11.642  0.2986 -0.0566 -0.3695
 1166TIP3    H124913   5.671   3.382  11.554  2.7235 -0.2647 -0.8172
 1166TIP3    H224914   5.602   3.442  11.674 -1.2671 -3.3123 -1.3959
 1167TIP3   OH224915   1.614   0.456   0.242 -0.2694 -0.6945 -0.5004
 1167TIP3    H124916   1.646   0.541   0.273  1.9240 -1.5330 -0.2656
 1167TIP3    H224917   1.573   0.416   0.318  0.7395 -0.7370  0.0441
 1168TIP3   OH224918   3.507   1.604  16.534  0.6431  0.6885 -0.1519
 1168TIP3    H124919   3.522   1.547  16.609 -1.8428 -1.3889 -1.0670
 1168TIP3    H224920   3.484   1.689  16.572 -0.6020 -0.3149  1.4692
 1169TIP3   OH224921   4.709   4.750   2.964 -0.0709  0.3209  0.3652
 1169TIP3    H124922   4.791   4.765   3.010  1.9185 -1.5211 -2.2883
 1169TIP3    H224923   4.701   4.655   2.960 -2.3125  0.4496  0.3903
 1170TIP3   OH224924   0.875   6.587   2.869 -0.5195  0.2727 -0.1562
 1170TIP3    H124925   0.834   6.597   2.955  0.1151 -1.6249  0.4109
 1170TIP3    H224926   0.968   6.573   2.887 -0.3144  0.2214 -1.1714
 1171TIP3   OH224927   1.756   1.730  17.003  0.4453  0.1849 -0.1199
 1171TIP3    H124928   1.726   1.816  16.974 -2.2389 -0.3819  0.7047
 1171TIP3    H224929   1.763   1.679  16.922 -1.2966  0.2533 -0.3468
 1172TIP3   OH224930   6.487   6.672  16.308  0.0292  0.4479 -0.0207
 1172TIP3    H124931   6.394   6.668  16.288  0.0706 -0.4861 -0.0636
 1172TIP3    H224932   6.506   6.591  16.354  0.5828  1.1813  1.1010
 1173TIP3   OH224933   2.558   2.579   3.391  0.6239  0.5593 -0.1311
 1173TIP3    H124934   2.564   2.487   3.368  1.2531 -0.0364  2.1205
 1173TIP3    H224935   2.464   2.595   3.401  0.4152  0.5571 -1.8162
 1174TIP3   OH224936   0.350   2.755  15.420 -0.1130 -0.2598 -0.1602
 1174TIP3    H124937   0.316   2.757  15.509 -1.6682  0.4582 -0.7324
 1174TIP3    H224938   0.273   2.742  15.365  0.1998  3.1108 -1.6406
 1175TIP3   OH224939   6.690   2.538   2.434 -0.1993  0.1063  0.0398
 1175TIP3    H124940   6.669   2.625   2.468  1.0083  0.3817  0.1269
 1175TIP3    H224941   6.647   2.478   2.495 -0.2318  0.6351  0.5477
 1176TIP3   OH224942   4.178   2.198   4.431  0.0602  0.7015 -0.4537
 1176TIP3    H124943   4.223   2.117   4.456 -1.4453 -0.4002 -1.1858
 1176TIP3    H224944   4.225   2.229   4.354  0.7717  0.6692 -0.0497
 1177TIP3   OH224945   1.303   2.141  15.447 -0.4582  0.3883 -0.1773
 1177TIP3    H124946   1.258   2.188  15.517  0.1512 -0.2594  0.6875
 1177TIP3    H224947   1.395   2.165  15.458 -0.0644 -1.3189  0.5852
 1178TIP3   OH224948   4.809   2.708  13.616 -0.0554  0.4375 -0.0182
 1178TIP3    H124949   4.814   2.683  13.524 -0.0729  1.4288 -0.2990
 1178TIP3    H224950   4.895   2.746  13.636  0.0105  0.0748  0.4305
 1179TIP3   OH224951   3.016   6.296  13.638  0.1844  0.3374 -0.0284
 1179TIP3    H124952   3.017   6.368  13.701  0.5448  0.4637 -0.1740
 1179TIP3    H224953   2.931   6.255  13.650 -0.5506  1.5670 -0.8223
 1180TIP3   OH224954   3.319   5.471   1.999  0.9386 -0.3601 -0.2329
 1180TIP3    H124955   3.338   5.378   1.984  0.5756 -0.5196  0.2573
 1180TIP3    H224956   3.274   5.473   2.083  0.8313  0.2501 -0.2991
 1181TIP3   OH224957   4.446   0.029   0.448 -0.1990 -0.4298 -0.1131
 1181TIP3    H124958   4.388  -0.016   0.386 -0.0710 -1.2386  0.3302
 1181TIP3    H224959   4.520   0.058   0.395 -1.2598  1.1418 -0.8020
 1182TIP3   OH224960   6.262   5.104   3.845  0.7497 -0.2304 -0.3055
 1182TIP3    H124961   6.322   5.046   3.892  1.1962  0.6080  0.1678
 1182TIP3    H224962   6.242   5.057   3.764  0.8767 -1.1766  0.1994
 1183TIP3   OH224963   5.679   5.381   4.402 -0.3866 -0.3219  0.5124
 1183TIP3    H124964   5.736   5.343   4.335 -0.0342 -0.9880  1.1811
 1183TIP3    H224965   5.596   5.336   4.391 -0.2748 -0.5615  0.6337
 1184TIP3   OH224966   3.345   2.606   0.699 -0.5036 -0.2757 -0.0188
 1184TIP3    H124967   3.252   2.615   0.680 -0.3578 -1.0592 -1.2279
 1184TIP3    H224968   3.383   2.688   0.669 -0.6708 -0.3707 -0.4993
 1185TIP3   OH224969   4.537   6.717  12.343 -0.4136  0.2530  0.1536
 1185TIP3    H124970   4.456   6.672  12.366  0.2430 -1.9411 -1.5299
 1185TIP3    H224971   4.532   6.729  12.248  1.1116  0.3390  0.0641
 1186TIP3   OH224972   1.782   1.628  12.055 -1.1195 -0.2317  0.2231
 1186TIP3    H124973   1.868   1.589  12.043 -0.3044  1.8386 -1.3475
 1186TIP3    H224974   1.790   1.677  12.137 -0.5663  0.4518 -0.2260
 1187TIP3   OH224975   4.378   3.331  11.120  0.0793  0.4342  0.2004
 1187TIP3    H124976   4.340   3.391  11.184 -0.9538  1.8521 -1.6788
 1187TIP3    H224977   4.388   3.248  11.168 -3.8663  0.4233  1.2935
 1188TIP3   OH224978   1.520   3.133  14.463  0.0478 -0.2214 -0.1080
 1188TIP3    H124979   1.430   3.135  14.496 -0.3639 -1.2708 -1.1157
 1188TIP3    H224980   1.547   3.225  14.463 -0.4519 -0.0219  1.6701
 1189TIP3   OH224981   0.126   5.438   0.771 -0.5228  0.1495  0.0409
 1189TIP3    H124982   0.101   5.410   0.683  0.8300  0.9893 -0.6509
 1189TIP3    H224983   0.186   5.369   0.801  1.2074  1.1916 -0.8514
 1190TIP3   OH224984   0.447   0.440  16.977  0.0841 -0.5659 -0.4008
 1190TIP3    H124985   0.539   0.435  16.953 -0.5712 -0.8180 -3.1397
 1190TIP3    H224986   0.430   0.533  16.991  0.0966 -0.0644 -3.1387
 1191TIP3   OH224987   4.130   5.862  13.551 -0.2425 -0.1724  0.0344
 1191TIP3    H124988   4.112   5.824  13.637 -1.3604  1.0932  0.3984
 1191TIP3    H224989   4.158   5.952  13.569 -1.3161  0.3882 -0.9443
 1192TIP3   OH224990   4.104   5.584   3.263 -0.3413 -0.1459 -0.0850
 1192TIP3    H124991   4.077   5.645   3.332 -2.7036  1.0359 -1.9201
 1192TIP3    H224992   4.024   5.536   3.242  0.4532 -0.8128 -1.6624
 1193TIP3   OH224993   0.046   2.199   3.274 -0.2901 -0.2493 -0.1543
 1193TIP3    H124994   0.080   2.288   3.287 -0.4893 -0.3160  0.9540
 1193TIP3    H224995   0.077   2.151   3.351 -1.2733 -0.8056 -0.0938
 1194TIP3   OH224996   3.358   5.865   2.710  0.4388 -0.3466 -0.3532
 1194TIP3    H124997   3.444   5.863   2.668  0.1248  0.1222 -1.0263
 1194TIP3    H224998   3.314   5.787   2.677  1.0793 -1.3549  1.0552
 1195TIP3   OH224999   6.742   0.974  15.792 -0.4031  0.0243  0.2994
 1195TIP3    H125000   6.691   0.962  15.712 -0.2464  1.4320 -0.0496
 1195TIP3    H225001   6.764   1.067  15.792 -0.0732 -0.0270  1.7903
 1196TIP3   OH225002   0.939   2.447  12.414  0.0629  0.7581 -0.0087
 1196TIP3    H125003   1.023   2.401  12.405  1.0377  2.1425  1.4501
 1196TIP3    H225004   0.878   2.379  12.443  0.9087 -0.0659 -0.0911
 1197TIP3   OH225005   5.439   2.264  15.315  0.5304  0.5139 -0.2577
 1197TIP3    H125006   5.411   2.269  15.224 -1.5197 -1.7064  0.1299
 1197TIP3    H225007   5.474   2.351  15.335  1.2898  0.9689 -3.2010
 1198TIP3   OH225008   2.070   1.598  12.074 -0.0106  0.5186  0.0450
 1198TIP3    H125009   2.149   1.583  12.022 -1.7960 -0.2686 -2.6682
 1198TIP3    H225010   2.076   1.534  12.146  0.9415 -0.8458 -1.1957
 1199TIP3   OH225011   3.861   2.460  16.765 -0.4044  0.4741 -0.2978
 1199TIP3    H125012   3.854   2.556  16.764 -0.2992  0.4806 -0.3191
 1199TIP3    H225013   3.868   2.436  16.673  0.9282  0.5364 -0.2251
 1200TIP3   OH225014   4.372   4.688  15.984 -0.0682 -0.8488 -0.3913
 1200TIP3    H125015   4.363   4.654  15.895  0.0401 -1.4823 -0.1688
 1200TIP3    H225016   4.284   4.681  16.021 -0.1526 -0.4108 -0.5076
 1201TIP3   OH225017   1.231   5.064   5.493 -0.0938  0.0431  0.6287
 1201TIP3    H125018   1.238   5.030   5.582  1.1358 -0.6611  0.2946
 1201TIP3    H225019   1.288   5.141   5.492 -1.1564  0.8518  0.7928
 1202TIP3   OH225020   2.833   2.670   0.150 -0.3936  0.1416  0.0985
 1202TIP3    H125021   2.761   2.658   0.212  1.3364 -1.2726  1.9926
 1202TIP3    H225022   2.858   2.762   0.159 -0.8648  0.2135  0.7209
 1203TIP3   OH225023   0.906   5.138   4.549  0.4956  0.5942 -0.1912
 1203TIP3    H125024   0.899   5.198   4.623  0.6760 -1.5643  1.6957
 1203TIP3    H225025   0.950   5.061   4.585  1.2735 -0.2719 -2.7689
 1204TIP3   OH225026   3.992   0.153  16.418  0.1823 -0.3032 -0.1300
 1204TIP3    H125027   3.958   0.065  16.401 -0.5079 -0.0583 -0.0711
 1204TIP3    H225028   4.087   0.143  16.418  0.1479 -0.8112 -1.3910
 1205TIP3   OH225029   2.963   2.122   2.425 -0.2971  0.3268  0.0042
 1205TIP3    H125030   3.014   2.054   2.381 -2.1687 -0.2406 -1.4186
 1205TIP3    H225031   2.941   2.084   2.510 -1.7650 -1.1108 -0.9722
 1206TIP3   OH225032   5.553   4.124  11.254 -0.2479 -0.4652 -0.6704
 1206TIP3    H125033   5.499   4.051  11.284 -1.4132  0.0928 -1.3081
 1206TIP3    H225034   5.522   4.142  11.165 -0.6553  1.3821 -0.2164
 1207TIP3   OH225035   2.311   0.396   0.518 -0.4697 -0.3205  0.6109
 1207TIP3    H125036   2.394   0.350   0.522 -0.7621 -1.1023 -1.3676
 1207TIP3    H225037   2.329   0.473   0.464 -1.4078 -1.5241 -1.5468
 1208TIP3   OH225038   2.382   4.820   5.718 -0.1808 -0.3628 -0.2384
 1208TIP3    H125039   2.300   4.867   5.699  1.0780  1.2331 -2.1779
 1208TIP3    H225040   2.418   4.865   5.794 -0.3536 -0.0474 -0.3389
 1209TIP3   OH225041   3.093   4.190   5.749 -0.3329  0.8132 -0.1240
 1209TIP3    H125042   3.047   4.254   5.696 -1.7432 -0.2368 -0.2316
 1209TIP3    H225043   3.055   4.199   5.836 -0.1180  0.5374  0.0001
 1210TIP3   OH225044   4.442   5.359  14.029 -0.1286  0.2712 -0.2373
 1210TIP3    H125045   4.440   5.447  13.991 -1.6830  0.2303 -0.3084
 1210TIP3    H225046   4.426   5.374  14.123 -1.4275 -0.0024 -0.4074
 1211TIP3   OH225047   4.521   4.662  16.947  0.4049 -0.3128 -0.1615
 1211TIP3    H125048   4.537   4.600  17.018 -0.3614 -2.0233 -1.4114
 1211TIP3    H225049   4.577   4.631  16.876  0.2960  0.6791 -0.6905
 1212TIP3   OH225050   1.035   1.043  12.692  0.1102  0.6332  0.6100
 1212TIP3    H125051   0.981   1.115  12.660 -0.2683  0.7718  1.5314
 1212TIP3    H225052   0.973   0.984  12.734  0.7828  1.3758  2.7676
 1213TIP3   OH225053   6.185   2.074  15.729 -0.4620 -0.5134  0.4596
 1213TIP3    H125054   6.213   2.071  15.820 -0.4880 -0.6958  0.4622
 1213TIP3    H225055   6.204   1.986  15.695  0.5932 -0.1184 -0.0253
 1214TIP3   OH225056   3.984   5.359  12.619  0.3316 -0.3377  0.1895
 1214TIP3    H125057   3.922   5.388  12.685 -0.8387 -2.4368  0.0839
 1214TIP3    H225058   3.959   5.269  12.599  1.8605 -0.4278 -1.7017
 1215TIP3   OH225059   5.280   5.832   2.604  0.0476 -0.3855  0.2597
 1215TIP3    H125060   5.312   5.917   2.635  0.0377 -0.4280  0.3841
 1215TIP3    H225061   5.199   5.853   2.556  1.0696 -0.0787 -1.4269
 1216TIP3   OH225062   1.672   0.394  12.492 -0.4583 -0.5570  0.1942
 1216TIP3    H125063   1.664   0.376  12.586 -1.9673  2.3810  0.7862
 1216TIP3    H225064   1.594   0.446  12.472  1.3222  1.5203 -1.9538
 1217TIP3   OH225065   6.464   4.712   4.165 -0.8222  0.2747 -0.4658
 1217TIP3    H125066   6.423   4.799   4.167 -1.3911  0.0098  1.2564
 1217TIP3    H225067   6.432   4.672   4.085  0.9378  2.3000 -2.3238
 1218TIP3   OH225068   4.024   3.710   5.506  0.1648 -0.3196 -0.5868
 1218TIP3    H125069   4.014   3.773   5.577 -0.4067 -0.6742 -0.3497
 1218TIP3    H225070   4.116   3.681   5.512  0.1208 -0.3491  0.0082
 1219TIP3   OH225071   0.706   1.069  14.357 -0.0661 -0.5716  0.4829
 1219TIP3    H125072   0.703   0.981  14.319 -0.3692 -0.2158 -0.3380
 1219TIP3    H225073   0.627   1.075  14.410 -0.4606 -0.5162 -0.1049
 1220TIP3   OH225074   1.517   4.788  14.952  0.2497  0.2241 -0.0671
 1220TIP3    H125075   1.558   4.844  14.886 -1.2936 -0.1939 -1.4528
 1220TIP3    H225076   1.582   4.783  15.023  1.7968  1.0336 -1.3493
 1221TIP3   OH225077   1.669   3.648  15.212 -0.2836  0.0704  0.2352
 1221TIP3    H125078   1.606   3.577  15.207 -1.6316  1.1954  0.4716
 1221TIP3    H225079   1.754   3.606  15.207 -1.0400 -1.3483 -2.2747
 1222TIP3   OH225080   2.231   0.866  13.875 -0.3687 -0.2105 -0.4009
 1222TIP3    H125081   2.139   0.890  13.868 -0.5095 -0.8494 -0.7896
 1222TIP3    H225082   2.279   0.941  13.841 -0.6127  1.3233  2.3810
 1223TIP3   OH225083   2.263   1.153   0.764  0.1926  0.1705 -0.2211
 1223TIP3    H125084   2.324   1.223   0.789  0.6632 -0.1630 -0.4371
 1223TIP3    H225085   2.216   1.133   0.845  0.2568  0.5385 -0.0908
 1224TIP3   OH225086   4.563   3.810  12.271  0.4649  0.0639 -0.0584
 1224TIP3    H125087   4.627   3.881  12.262  0.5982 -0.2321 -1.7687
 1224TIP3    H225088   4.497   3.829  12.205 -0.8345 -0.0792  1.1479
 1225TIP3   OH225089   0.123   4.537   0.529  0.6793  0.3859 -0.1696
 1225TIP3    H125090   0.115   4.612   0.470  2.7739  0.0834 -0.9321
 1225TIP3    H225091   0.158   4.574   0.610 -0.6183  0.5503  0.3455
 1226TIP3   OH225092   0.449   0.130  13.932 -0.1668  0.3062  0.2878
 1226TIP3    H125093   0.434   0.075  14.009  0.8141 -0.4008 -0.0085
 1226TIP3    H225094   0.543   0.147  13.931 -0.2810  0.9804 -0.3094
 1227TIP3   OH225095   6.755   3.240   2.113  0.0735 -0.3736  0.0017
 1227TIP3    H125096   6.770   3.167   2.173 -0.1764 -0.2017  0.2720
 1227TIP3    H225097   6.829   3.298   2.127  0.1567 -0.4657 -0.0533
 1228TIP3   OH225098   4.117   1.668   5.172 -0.1980 -0.2526  0.3531
 1228TIP3    H125099   4.058   1.679   5.246  1.1155  0.4423  1.3228
 1228TIP3    H225100   4.203   1.652   5.211  1.0564  2.7659 -0.9099
 1229TIP3   OH225101   0.762   2.195  12.011 -0.0422  0.0442  0.2469
 1229TIP3    H125102   0.831   2.142  11.971 -0.7701  0.8799 -2.3159
 1229TIP3    H225103   0.806   2.277  12.033 -0.2800  0.9378 -2.2437
 1230TIP3   OH225104   6.146   6.353   4.438  0.0125  0.0112 -0.6323
 1230TIP3    H125105   6.084   6.280   4.437  1.0968 -1.0140  1.2105
 1230TIP3    H225106   6.124   6.404   4.360 -2.8219 -0.5434 -0.3056
 1231TIP3   OH225107   5.256   0.159  12.708  0.6936 -0.0003 -0.1502
 1231TIP3    H125108   5.288   0.100  12.639 -1.5104 -0.9833 -0.4151
 1231TIP3    H225109   5.315   0.143  12.782  2.1607 -0.0651 -1.2912
 1232TIP3   OH225110   6.581   2.209   3.777  0.0660 -0.3052 -0.1901
 1232TIP3    H125111   6.563   2.133   3.832 -0.4445 -0.1765 -0.1756
 1232TIP3    H225112   6.653   2.254   3.821  0.4480 -0.8383 -0.2570
 1233TIP3   OH225113   2.748   3.332   4.385  0.0949  0.1061 -0.6482
 1233TIP3    H125114   2.738   3.390   4.310 -2.5714  0.1420 -0.3610
 1233TIP3    H225115   2.780   3.250   4.348  0.7700  0.7353 -1.5103
 1234TIP3   OH225116   4.758   1.344  13.663 -0.4833  0.1071 -0.3237
 1234TIP3    H125117   4.783   1.332  13.571  0.1085  1.3747 -0.3537
 1234TIP3    H225118   4.839   1.329  13.711 -0.4343  0.9042 -0.1431
 1235TIP3   OH225119   1.534   3.423   3.745 -0.1735 -0.3183  0.1863
 1235TIP3    H125120   1.540   3.367   3.822  1.8022 -1.0010 -0.3994
 1235TIP3    H225121   1.539   3.362   3.671  2.0214  0.5628 -0.4706
 1236TIP3   OH225122   1.680   2.145   5.493 -0.3430  0.5025  0.1130
 1236TIP3    H125123   1.743   2.216   5.489 -0.2029  0.4809  1.4553
 1236TIP3    H225124   1.714   2.086   5.561 -1.7652  0.4738  0.8472
 1237TIP3   OH225125   6.339   2.838   3.099  0.1124 -0.2799  0.0835
 1237TIP3    H125126   6.284   2.916   3.090  0.1796 -0.2772 -0.3383
 1237TIP3    H225127   6.339   2.819   3.192  1.3813  1.1592  0.4302
 1238TIP3   OH225128   0.195   3.942   0.497  0.1427  0.0946  0.2864
 1238TIP3    H125129   0.156   3.857   0.518  1.2969 -0.8641 -1.2337
 1238TIP3    H225130   0.138   3.978   0.430 -0.7954  0.9323  1.4846
 1239TIP3   OH225131   1.933   5.754  16.734  0.8108  0.2371 -0.4121
 1239TIP3    H125132   1.982   5.674  16.752 -2.1344 -2.2989 -2.4902
 1239TIP3    H225133   1.861   5.752  16.796 -0.1139  0.4050 -1.4559
 1240TIP3   OH225134   0.654   5.698   2.397  0.1404 -0.0370  0.1042
 1240TIP3    H125135   0.571   5.744   2.410  0.0650 -0.2337  0.3096
 1240TIP3    H225136   0.699   5.705   2.481 -0.0251 -0.6528  0.2480
 1241TIP3   OH225137   4.032   0.828  12.691 -0.5500  0.2198 -0.5543
 1241TIP3    H125138   4.025   0.798  12.782  0.9166 -2.0421 -1.1111
 1241TIP3    H225139   3.956   0.789  12.647 -0.2325 -0.2799 -0.6702
 1242TIP3   OH225140   4.804   5.262  13.199 -0.3728  0.3222  0.1776
 1242TIP3    H125141   4.741   5.334  13.200  0.3291  0.9526  0.6997
 1242TIP3    H225142   4.889   5.305  13.185 -0.1907 -0.6459 -2.1407
 1243TIP3   OH225143   4.811   2.901   5.333  0.2647  0.0466  0.0360
 1243TIP3    H125144   4.898   2.886   5.297  0.6698  1.0666  0.5591
 1243TIP3    H225145   4.777   2.975   5.282 -0.1259 -0.0677  0.1262
 1244TIP3   OH225146   5.849   5.189   5.419  0.5239  0.1755 -0.2138
 1244TIP3    H125147   5.755   5.202   5.427  0.6698  0.7927  0.6505
 1244TIP3    H225148   5.860   5.141   5.337 -0.6023 -0.7356  0.1476
 1245TIP3   OH225149   4.734   5.272  11.429  0.2547  0.0059  0.0450
 1245TIP3    H125150   4.693   5.279  11.515 -1.6049  2.0396 -0.9258
 1245TIP3    H225151   4.811   5.330  11.435  1.2968 -1.4006  0.8960
 1246TIP3   OH225152   3.211   3.812   4.181  0.3885  0.3783  0.0115
 1246TIP3    H125153   3.166   3.790   4.263 -0.8327 -0.7684 -0.9163
 1246TIP3    H225154   3.300   3.780   4.193 -0.0837 -0.8541  0.4908
 1247TIP3   OH225155   2.151   5.975   2.151  0.2951 -0.2949 -0.5460
 1247TIP3    H125156   2.187   5.902   2.100 -0.3170 -1.8700  1.1736
 1247TIP3    H225157   2.189   5.964   2.238  0.2675  1.5363 -0.2713
 1248TIP3   OH225158   3.010   2.706   0.858 -0.6645 -0.3078  0.1139
 1248TIP3    H125159   3.064   2.635   0.823 -2.6190 -2.0197  0.3436
 1248TIP3    H225160   2.941   2.718   0.792  0.2510  2.2962 -0.5128
 1249TIP3   OH225161   2.166   4.574   6.416 -0.6182 -0.1544  0.2302
 1249TIP3    H125162   2.260   4.577   6.399 -0.1550  0.1736  2.4803
 1249TIP3    H225163   2.134   4.503   6.360  0.9469 -0.2445 -0.6136
 1250TIP3   OH225164   3.254   6.035   5.023 -0.2330 -0.5266  0.1135
 1250TIP3    H125165   3.266   6.068   5.112  1.4766  0.2209 -0.3564
 1250TIP3    H225166   3.333   5.985   5.005  0.0521  0.4149 -1.4296
 1251TIP3   OH225167   4.042   1.240   1.659  0.8198 -0.2340 -0.6365
 1251TIP3    H125168   4.100   1.254   1.734 -0.2016  0.8309 -0.0147
 1251TIP3    H225169   4.001   1.156   1.677  0.4241  0.1067  0.1246
 1252TIP3   OH225170   2.669   4.126  10.773 -0.3647 -0.0768 -0.1485
 1252TIP3    H125171   2.615   4.048  10.782  1.5374 -1.3984  0.3893
 1252TIP3    H225172   2.748   4.107  10.823  0.1950  2.1901 -0.0368
 1253TIP3   OH225173   0.299   6.096  14.140  0.4621  0.2128 -0.3939
 1253TIP3    H125174   0.268   6.011  14.173 -1.9794  1.1371 -0.0660
 1253TIP3    H225175   0.392   6.084  14.125  0.2912 -2.3520  0.1980
 1254TIP3   OH225176   1.340   2.613   3.557  0.6175 -0.6127 -0.0580
 1254TIP3    H125177   1.252   2.629   3.593  0.1941  1.8350 -1.9179
 1254TIP3    H225178   1.399   2.640   3.627 -0.1509  0.1465  0.3193
 1255TIP3   OH225179   0.289   5.604   0.624 -0.0219  0.0074  0.5741
 1255TIP3    H125180   0.325   5.536   0.681 -1.3210 -1.0398  0.2008
 1255TIP3    H225181   0.206   5.568   0.594 -0.3700  1.4471 -0.2759
 1256TIP3   OH225182   3.100   2.281  12.298  0.2181 -0.0560 -0.3097
 1256TIP3    H125183   3.025   2.222  12.300 -0.5778  0.9486  0.6637
 1256TIP3    H225184   3.100   2.317  12.209 -2.0844  1.9044  0.3779
 1257TIP3   OH225185   3.070   0.992   5.383 -0.3119  0.0722 -0.6692
 1257TIP3    H125186   3.085   0.963   5.473 -2.8338 -0.5083 -0.3836
 1257TIP3    H225187   3.051   0.912   5.334 -0.2424  0.5230 -1.4494
 1258TIP3   OH225188   0.265   6.238  13.894 -1.3839  0.7241 -0.1005
 1258TIP3    H125189   0.310   6.165  13.937 -2.2153  0.6273  0.6423
 1258TIP3    H225190   0.186   6.251  13.947 -1.4703  1.8677 -0.4930
 1259TIP3   OH225191   5.135   4.689   4.431  0.2412  0.3263 -0.6637
 1259TIP3    H125192   5.136   4.594   4.435 -2.6145  0.2104  2.2257
 1259TIP3    H225193   5.226   4.715   4.444  1.2497 -1.9443 -2.6097
 1260TIP3   OH225194   6.212   0.955   0.174 -0.0125  0.0258 -0.6770
 1260TIP3    H125195   6.145   1.018   0.202  0.1586  0.1208 -0.4734
 1260TIP3    H225196   6.195   0.877   0.226  0.7731  0.4588  0.2752
 1261TIP3   OH225197   1.980   4.962  12.936  0.1176  0.3735 -0.5422
 1261TIP3    H125198   2.042   5.003  12.875 -0.4373  0.0437 -1.3525
 1261TIP3    H225199   1.954   5.033  12.995  0.9580  0.6062 -0.4450
 1262TIP3   OH225200   0.617   5.889   1.405  0.1799  0.0867  0.0287
 1262TIP3    H125201   0.564   5.867   1.328  2.0627 -2.2227 -0.7174
 1262TIP3    H225202   0.637   5.982   1.394  1.6030 -0.4545 -3.1643
 1263TIP3   OH225203   6.424   1.460  12.590 -0.0411 -0.4871  0.0187
 1263TIP3    H125204   6.493   1.497  12.536 -1.6312  2.8801  0.0608
 1263TIP3    H225205   6.460   1.459  12.679  1.1609 -2.3081 -0.4292
 1264TIP3   OH225206   1.575   5.848   2.200 -0.0570 -0.4893 -0.0649
 1264TIP3    H125207   1.554   5.802   2.119 -0.1040  1.0105 -0.9395
 1264TIP3    H225208   1.663   5.883   2.187  0.6200 -1.6186  1.2097
 1265TIP3   OH225209   0.958   1.791  13.348 -0.3115 -0.1011 -0.8958
 1265TIP3    H125210   0.937   1.838  13.428  1.8493  0.6954 -0.7323
 1265TIP3    H225211   0.959   1.699  13.374  1.6437  0.2226  0.3721
 1266TIP3   OH225212   2.845   2.826   6.845 -0.1046 -0.2847  0.6079
 1266TIP3    H125213   2.843   2.897   6.780 -1.4255 -0.5989  0.2658
 1266TIP3    H225214   2.895   2.862   6.918  2.5075 -0.3613 -1.0130
 1267TIP3   OH225215   1.819   5.267   6.112  0.3500  0.0685 -0.4853
 1267TIP3    H125216   1.860   5.343   6.153 -0.6661  1.0419 -1.2077
 1267TIP3    H225217   1.730   5.267   6.146 -0.2158  0.3136 -1.8670
 1268TIP3   OH225218   1.147   2.156  16.599  0.1053  0.4542  0.0845
 1268TIP3    H125219   1.219   2.093  16.597  0.7174  1.1283  0.3455
 1268TIP3    H225220   1.163   2.214  16.525 -0.0277  0.7541  0.2856
 1269TIP3   OH225221   0.474   5.179   3.807  0.1175 -0.0738 -0.0085
 1269TIP3    H125222   0.413   5.190   3.734 -0.5079  0.6709  0.6054
 1269TIP3    H225223   0.555   5.221   3.779 -0.0184 -0.0701 -0.3929
 1270TIP3   OH225224   5.413   0.805  14.815  0.3732 -0.6741  0.2318
 1270TIP3    H125225   5.469   0.877  14.787  2.4611 -1.7040  1.5505
 1270TIP3    H225226   5.415   0.808  14.911 -2.4709 -0.3300  0.3736
 1271TIP3   OH225227   3.886   1.217  10.879  0.2610  0.1928 -0.9101
 1271TIP3    H125228   3.816   1.152  10.876  0.0180  0.4065 -0.2176
 1271TIP3    H225229   3.848   1.291  10.926  0.9466  0.3132 -0.5183
 1272TIP3   OH225230   2.644   4.361  16.350  0.3523 -0.5861  0.5143
 1272TIP3    H125231   2.595   4.352  16.432  0.5239  0.5067  0.7611
 1272TIP3    H225232   2.734   4.338  16.372 -0.1911 -3.9971 -0.2553
 1273TIP3   OH225233   0.247   4.590   3.077  0.0965 -0.0126 -0.2640
 1273TIP3    H125234   0.238   4.629   2.990  0.3787  1.6973  0.4275
 1273TIP3    H225235   0.163   4.610   3.121  1.1902  2.2490  0.9830
 1274TIP3   OH225236   3.470   6.504   4.914  0.3059 -0.5056  0.0573
 1274TIP3    H125237   3.487   6.412   4.893  1.0409 -0.2029 -0.7238
 1274TIP3    H225238   3.458   6.505   5.009  1.5231 -1.2347  0.2315
 1275TIP3   OH225239   1.251   5.173   3.417 -0.5327  0.7470  0.0076
 1275TIP3    H125240   1.289   5.249   3.374  0.5207  1.0675  1.4525
 1275TIP3    H225241   1.325   5.114   3.432 -0.7234  0.9494  1.9705
 1276TIP3   OH225242   2.229   3.104   2.850 -0.5566 -0.0846  0.2956
 1276TIP3    H125243   2.189   3.124   2.934 -0.9207 -0.3453  0.1868
 1276TIP3    H225244   2.310   3.155   2.849 -0.0027 -0.8951  1.2626
 1277TIP3   OH225245   0.541   1.280  16.874  0.0345 -0.5985  0.8711
 1277TIP3    H125246   0.587   1.357  16.907 -0.9180  0.5728 -0.4161
 1277TIP3    H225247   0.591   1.254  16.796 -2.8388  2.5144 -2.4012
 1278TIP3   OH225248   3.914   0.644  15.968 -0.4907 -0.5132 -0.5279
 1278TIP3    H125249   3.831   0.691  15.956 -0.2170  0.2238  0.3242
 1278TIP3    H225250   3.981   0.707  15.939 -0.1407 -0.4976  0.2828
 1279TIP3   OH225251   6.084   5.891   1.008 -0.3405 -0.1600 -0.0955
 1279TIP3    H125252   6.111   5.810   1.052 -0.6616  1.4507  3.4015
 1279TIP3    H225253   5.989   5.883   0.999 -0.1375 -1.0489 -1.8924
 1280TIP3   OH225254   4.505   2.216  15.143  0.8918  0.2672  0.0261
 1280TIP3    H125255   4.538   2.299  15.179  2.7800  0.3076 -1.6013
 1280TIP3    H225256   4.458   2.176  15.215  1.8718  1.7349  1.5630
 1281TIP3   OH225257   6.361   2.067  14.883 -0.3952 -0.2428  0.3620
 1281TIP3    H125258   6.270   2.090  14.901 -0.4916  0.7470 -1.1886
 1281TIP3    H225259   6.363   2.052  14.788  0.8465 -1.2618  0.5289
 1282TIP3   OH225260   1.612   0.303  16.588 -0.3173 -0.2558  0.1296
 1282TIP3    H125261   1.691   0.353  16.610 -1.4960  1.5627  0.4190
 1282TIP3    H225262   1.597   0.246  16.663 -0.1817  0.5836  0.8076
 1283TIP3   OH225263   0.977   4.906   2.465  0.0522  0.2946 -0.1739
 1283TIP3    H125264   1.008   4.893   2.375  0.1373 -0.8278  0.0026
 1283TIP3    H225265   1.017   4.835   2.515 -0.0034  0.9052  0.7563
 1284TIP3   OH225266   4.962   5.493  13.747 -0.1894  0.6655 -0.3907
 1284TIP3    H125267   4.978   5.562  13.811  0.4369  1.3226 -1.2434
 1284TIP3    H225268   4.902   5.433  13.792  2.1202 -0.2104  1.7276
 1285TIP3   OH225269   4.230   0.218   1.811 -0.4310  0.1775  0.8623
 1285TIP3    H125270   4.277   0.212   1.728 -2.4405 -1.8020 -0.2505
 1285TIP3    H225271   4.185   0.302   1.806  1.4375  1.2481  1.1480
 1286TIP3   OH225272   3.783   5.335  14.575 -0.6255  0.3123 -0.1504
 1286TIP3    H125273   3.794   5.322  14.481 -2.0650 -0.5819 -0.2304
 1286TIP3    H225274   3.689   5.350  14.586 -0.3056  1.6612  1.0136
 1287TIP3   OH225275   2.682   1.127  11.141 -0.0244  0.6423  0.1123
 1287TIP3    H125276   2.770   1.136  11.177  0.1439  0.4023 -0.2422
 1287TIP3    H225277   2.627   1.106  11.217  0.3127  0.2403  0.2444
 1288TIP3   OH225278   4.593   2.786  16.325 -0.4497 -0.5770  0.3178
 1288TIP3    H125279   4.605   2.859  16.265  1.0696 -0.0051  1.2693
 1288TIP3    H225280   4.517   2.739  16.290 -2.0951  1.9590  0.1933
 1289TIP3   OH225281   2.585   1.546   6.506 -0.9679  0.0794 -0.4143
 1289TIP3    H125282   2.511   1.576   6.452 -0.1593  0.8539 -1.1213
 1289TIP3    H225283   2.629   1.627   6.534  0.4758 -0.3827 -1.2446
 1290TIP3   OH225284   4.940   6.488  15.261 -0.3782  0.3750 -0.4175
 1290TIP3    H125285   4.977   6.572  15.288 -0.7035  1.0296 -1.9092
 1290TIP3    H225286   4.853   6.510  15.225 -0.5762 -0.6240 -0.5949
 1291TIP3   OH225287   3.313   3.438   4.071 -0.0829 -0.0148  0.0544
 1291TIP3    H125288   3.350   3.472   4.152 -1.3696 -0.7578  0.9849
 1291TIP3    H225289   3.320   3.510   4.009 -1.5141  1.5193  1.5836
 1292TIP3   OH225290   2.580   1.390   0.678  0.2867 -0.3140 -0.2648
 1292TIP3    H125291   2.623   1.472   0.654  0.9271  0.3860  2.8334
 1292TIP3    H225292   2.487   1.412   0.681  0.4381  0.2580  0.3644
 1293TIP3   OH225293   0.147   4.124   2.952 -0.1522  0.1771 -0.1035
 1293TIP3    H125294   0.079   4.102   3.015 -0.0921 -2.5601 -0.8354
 1293TIP3    H225295   0.102   4.120   2.867  0.5144  0.2853 -0.4647
 1294TIP3   OH225296   3.681   4.098  11.628  0.3383 -0.4501  0.4289
 1294TIP3    H125297   3.763   4.124  11.587  0.1935 -1.6730 -0.6968
 1294TIP3    H225298   3.617   4.162  11.596  0.4718 -0.6533 -0.2409
 1295TIP3   OH225299   4.929   4.996   3.698 -0.0061 -0.1744  0.2178
 1295TIP3    H125300   4.963   4.917   3.742 -0.1065  0.6453  1.8382
 1295TIP3    H225301   4.955   5.068   3.755  0.0152  0.9742 -1.2058
 1296TIP3   OH225302   3.644   6.481  16.131  0.1249  0.4179 -0.0846
 1296TIP3    H125303   3.638   6.476  16.226 -0.4450  0.3578 -0.1196
 1296TIP3    H225304   3.729   6.443  16.110  0.3951  0.7354  0.4240
 1297TIP3   OH225305   1.305   4.835   3.578  0.0562 -0.1975  0.1445
 1297TIP3    H125306   1.379   4.777   3.560 -0.1514 -0.8053  1.1642
 1297TIP3    H225307   1.344   4.920   3.598  0.3598  0.0817 -1.4830
 1298TIP3   OH225308   6.118   3.678  12.506 -0.3190  0.1670  0.6000
 1298TIP3    H125309   6.181   3.614  12.539  0.1233  0.5533  0.5196
 1298TIP3    H225310   6.038   3.628  12.491 -0.1422 -0.2538  1.0598
 1299TIP3   OH225311   1.598   2.944  13.891 -0.5191  0.1368  0.3393
 1299TIP3    H125312   1.615   2.854  13.863  0.2848  0.3776  0.0293
 1299TIP3    H225313   1.534   2.977  13.828 -1.3187 -0.4209  0.8422
 1300TIP3   OH225314   4.802   4.457  13.886  0.2800  0.1243 -0.3144
 1300TIP3    H125315   4.766   4.507  13.959 -0.8785  0.1792 -0.9173
 1300TIP3    H225316   4.743   4.474  13.813  0.4095 -1.3697 -0.7873
 1301TIP3   OH225317   2.114   0.935   4.509  0.2394 -0.1419 -0.1971
 1301TIP3    H125318   2.202   0.931   4.546  1.3024  1.1115 -2.3797
 1301TIP3    H225319   2.069   1.000   4.561  1.3496  0.8207 -0.3917
 1302TIP3   OH225320   2.929   4.046   0.520 -0.0007  0.0787  0.2511
 1302TIP3    H125321   2.957   4.114   0.459  0.8299  0.5787  1.1772
 1302TIP3    H225322   2.991   3.974   0.506 -1.8314 -1.2342 -1.9044
 1303TIP3   OH225323   2.828   0.746  11.649  0.1241  0.1082  0.0477
 1303TIP3    H125324   2.792   0.819  11.599  0.5432 -0.1173 -0.5976
 1303TIP3    H225325   2.861   0.685  11.582  1.4116  0.1714  0.6063
 1304TIP3   OH225326   1.237   2.379   1.625 -0.3501 -0.4561  0.2824
 1304TIP3    H125327   1.248   2.284   1.634  1.5041 -0.3244 -0.1435
 1304TIP3    H225328   1.176   2.389   1.552  1.6713 -1.3711 -1.6675
 1305TIP3   OH225329   3.067   6.278   5.521  0.0647 -0.0977 -0.0578
 1305TIP3    H125330   3.059   6.317   5.608 -0.6738 -0.6901  0.1496
 1305TIP3    H225331   3.147   6.226   5.526  0.4186  0.4405  0.0312
 1306TIP3   OH225332   1.494   5.749  16.089 -0.1785  0.1465 -0.8825
 1306TIP3    H125333   1.483   5.661  16.124  0.9928 -0.1266 -1.1483
 1306TIP3    H225334   1.450   5.748  16.005  1.2258 -0.7151 -1.6502
 1307TIP3   OH225335   3.352   3.538  16.601 -0.3744 -0.1932 -1.1305
 1307TIP3    H125336   3.411   3.464  16.612 -0.4120 -0.2450 -1.2787
 1307TIP3    H225337   3.278   3.503  16.551 -1.4536 -0.6133  0.6876
 1308TIP3   OH225338   1.348   3.144   2.203  0.1471  0.2669  0.1819
 1308TIP3    H125339   1.436   3.172   2.228  0.8940 -1.9138  0.2181
 1308TIP3    H225340   1.352   3.133   2.108  0.4384 -1.3263  0.3432
 1309TIP3   OH225341   2.567   3.871   4.531 -0.0706 -0.0818  0.7377
 1309TIP3    H125342   2.592   3.791   4.577 -0.7384  0.3921  1.9718
 1309TIP3    H225343   2.599   3.942   4.587  1.6734  0.5518 -0.9862
 1310TIP3   OH225344   1.703   3.718  15.902 -0.1287  0.8726  0.6319
 1310TIP3    H125345   1.789   3.756  15.882 -0.2471 -0.1038 -2.1480
 1310TIP3    H225346   1.665   3.778  15.966  1.6723  2.6557  0.1318
 1311TIP3   OH225347   2.546   3.582   4.600 -0.6662 -0.1624  0.1634
 1311TIP3    H125348   2.526   3.583   4.693  1.3762  0.5079  0.6492
 1311TIP3    H225349   2.496   3.507   4.565 -0.8879 -0.8673  1.9144
 1312TIP3   OH225350   3.929   2.801   0.320  0.6099 -0.1629  0.6186
 1312TIP3    H125351   3.908   2.854   0.396  2.2119  0.7072  0.4975
 1312TIP3    H225352   3.960   2.864   0.255  0.9634 -1.0830 -0.1240
 1313TIP3   OH225353   3.747   5.992  16.188  0.6241 -0.0005 -0.1360
 1313TIP3    H125354   3.840   6.008  16.170  0.7110  1.2328  1.1740
 1313TIP3    H225355   3.702   6.022  16.110  1.2684  0.5274 -0.3173
 1314TIP3   OH225356   4.699   0.199  16.416 -0.1427 -0.1368 -0.0327
 1314TIP3    H125357   4.689   0.262  16.487 -0.5001  0.3103 -0.4624
 1314TIP3    H225358   4.771   0.234  16.363  0.9647 -1.1367  0.7865
 1315TIP3   OH225359   6.567   0.780   2.050  0.1544  0.2777  0.1099
 1315TIP3    H125360   6.649   0.766   2.097 -0.4039 -2.4046  0.4269
 1315TIP3    H225361   6.582   0.743   1.963 -0.8500 -0.7144  0.3371
 1316TIP3   OH225362   3.528   5.459  13.284 -0.4418 -0.0330  0.9489
 1316TIP3    H125363   3.570   5.440  13.200  0.2230 -2.2516  1.7021
 1316TIP3    H225364   3.577   5.534  13.319  0.3897 -0.1627  0.1139
 1317TIP3   OH225365   0.844   4.793  14.228 -0.2067  0.1135  0.1928
 1317TIP3    H125366   0.797   4.723  14.182 -0.4975 -0.9506  2.0255
 1317TIP3    H225367   0.879   4.751  14.306 -1.0330  2.1790  1.7672
 1318TIP3   OH225368   1.758   6.111  11.704 -0.4451  0.4628  0.2904
 1318TIP3    H125369   1.842   6.070  11.686 -1.8151 -1.1852 -3.2407
 1318TIP3    H225370   1.741   6.166  11.628 -2.7633  0.3920  0.6791
 1319TIP3   OH225371   1.411   4.180  11.054  0.3126  0.6936 -0.4428
 1319TIP3    H125372   1.490   4.209  11.099 -0.0110  0.1864  0.4730
 1319TIP3    H225373   1.425   4.205  10.963  1.1965  1.2885 -0.1558
 1320TIP3   OH225374   2.816   1.588   3.845 -0.2427  0.0094 -0.3781
 1320TIP3    H125375   2.871   1.649   3.795  0.3112 -1.4209 -1.6224
 1320TIP3    H225376   2.733   1.585   3.797 -1.1636  1.5243  1.0224
 1321TIP3   OH225377   0.321   1.814  14.199  0.1772 -0.3200  0.3766
 1321TIP3    H125378   0.394   1.853  14.151 -0.4179  0.5575  0.1553
 1321TIP3    H225379   0.263   1.781  14.130  0.0043 -0.3343  0.5285
 1322TIP3   OH225380   5.717   3.636  12.600 -0.4683 -0.0678  0.1595
 1322TIP3    H125381   5.726   3.712  12.657  0.6372 -0.2890  0.2970
 1322TIP3    H225382   5.624   3.635  12.575 -0.6854  0.7742  0.9075
 1323TIP3   OH225383   4.408   0.698  13.061  0.1206 -0.0013 -0.0165
 1323TIP3    H125384   4.408   0.642  13.138  0.7485  0.2466  0.1710
 1323TIP3    H225385   4.491   0.745  13.066 -0.3868  0.9373 -0.1702
 1324TIP3   OH225386   6.197   3.428   5.703  1.0785 -0.1033  0.0506
 1324TIP3    H125387   6.176   3.391   5.788 -0.4972 -0.1704 -0.3401
 1324TIP3    H225388   6.291   3.446   5.707  1.1011 -0.4593  1.6533
 1325TIP3   OH225389   5.823   3.764   2.822 -0.3566  0.0625 -0.3450
 1325TIP3    H125390   5.739   3.733   2.857  0.8698 -2.2124  0.8116
 1325TIP3    H225391   5.849   3.835   2.881  0.0238 -1.3960  1.3247
 1326TIP3   OH225392   1.928   1.031  15.106  0.2422  0.2897 -0.1274
 1326TIP3    H125393   1.999   1.000  15.049  0.2598 -0.2620  0.1873
 1326TIP3    H225394   1.957   1.118  15.135  1.0366 -0.1405  0.4028
 1327TIP3   OH225395   6.476   5.550  12.255  0.8373 -0.2168 -0.0024
 1327TIP3    H125396   6.399   5.563  12.199  0.5802  0.2233  0.4481
 1327TIP3    H225397   6.513   5.467  12.225 -1.3696 -1.8846  1.5487
 1328TIP3   OH225398   5.118   4.737   5.717 -0.0211  0.4841  0.1058
 1328TIP3    H125399   5.031   4.717   5.681 -0.4126  0.7233  0.9016
 1328TIP3    H225400   5.155   4.651   5.738 -0.6921  0.4485  1.1906
 1329TIP3   OH225401   6.512   5.836   2.771 -0.5276  0.1518  0.1154
 1329TIP3    H125402   6.435   5.876   2.731 -0.3092  0.0735 -0.3916
 1329TIP3    H225403   6.533   5.893   2.846 -1.5637 -0.2816  0.7618
 1330TIP3   OH225404   3.647   2.298  10.746 -0.3758 -0.7839 -0.3825
 1330TIP3    H125405   3.697   2.217  10.735 -0.1500 -0.9231  1.3249
 1330TIP3    H225406   3.564   2.282  10.701 -1.4444 -3.0527  2.1175
 1331TIP3   OH225407   2.042   0.327  14.718 -0.6607 -0.0211 -0.1019
 1331TIP3    H125408   2.031   0.354  14.809  0.1001  2.0497 -0.5757
 1331TIP3    H225409   2.136   0.332  14.702 -0.8723  0.6407 -1.2598
 1332TIP3   OH225410   1.608   2.825   5.575 -0.3556 -0.0476 -0.4340
 1332TIP3    H125411   1.692   2.805   5.615 -1.1311  0.2396  1.4145
 1332TIP3    H225412   1.617   2.795   5.484  2.1293  1.0346 -0.6328
 1333TIP3   OH225413   5.937   4.842  12.239  0.1985  0.1832  0.2571
 1333TIP3    H125414   6.026   4.853  12.205  0.4999  0.9368  1.2119
 1333TIP3    H225415   5.880   4.871  12.168  0.7920  1.4279  0.2660
 1334TIP3   OH225416   2.471   1.545  14.623  0.6143  0.3712 -0.2995
 1334TIP3    H125417   2.414   1.528  14.698  0.9833  1.8334  0.3641
 1334TIP3    H225418   2.559   1.522  14.655  0.6220 -0.2095 -0.7251
 1335TIP3   OH225419   1.049   5.310   2.073 -0.1655 -0.0303  0.2753
 1335TIP3    H125420   1.083   5.262   1.998 -2.7357  0.1756 -1.1376
 1335TIP3    H225421   0.959   5.276   2.084 -0.1746  0.5778  2.7150
 1336TIP3   OH225422   4.385   0.155  14.756 -0.2032 -0.0528  0.3352
 1336TIP3    H125423   4.450   0.182  14.821  3.1771  0.0887 -2.7726
 1336TIP3    H225424   4.383   0.060  14.761 -0.8817 -0.0017  1.3644
 1337TIP3   OH225425   2.246   4.399  16.702 -0.4482  0.2695 -0.5482
 1337TIP3    H125426   2.209   4.474  16.654  1.5792  0.6574 -1.5795
 1337TIP3    H225427   2.190   4.325  16.678  0.1144  0.5844 -3.0671
 1338TIP3   OH225428   2.584   6.464  12.615  0.5155 -0.8979 -0.0437
 1338TIP3    H125429   2.489   6.468  12.606  0.6877 -0.7718 -2.1121
 1338TIP3    H225430   2.603   6.371  12.627  0.0477 -0.7719  2.3321
 1339TIP3   OH225431   6.335   3.967  11.127 -0.2068  0.0472  0.3912
 1339TIP3    H125432   6.319   3.873  11.135 -0.4067  0.1027  0.6568
 1339TIP3    H225433   6.295   4.005  11.205  2.3646  0.0641  1.8144
 1340TIP3   OH225434   1.495   5.364   6.440 -0.2029 -0.2526 -0.1412
 1340TIP3    H125435   1.549   5.443   6.442 -1.1201  0.4058 -0.7459
 1340TIP3    H225436   1.486   5.339   6.532  0.3858  0.1290  0.0282
 1341TIP3   OH225437   3.793   2.445  13.618  0.0947 -0.0297  0.3402
 1341TIP3    H125438   3.882   2.414  13.600 -0.0171 -0.6882  0.8685
 1341TIP3    H225439   3.744   2.424  13.539  0.7557  1.8512 -0.6396
 1342TIP3   OH225440   2.453   5.277   3.290  0.1811 -0.8435  0.2551
 1342TIP3    H125441   2.520   5.282   3.358  1.0116  0.4602 -0.5919
 1342TIP3    H225442   2.482   5.206   3.233  0.4417 -0.7849  0.3127
 1343TIP3   OH225443   5.419   3.761  14.726 -0.3602 -0.0892 -0.0092
 1343TIP3    H125444   5.374   3.836  14.688 -0.0824  0.5863  0.9634
 1343TIP3    H225445   5.368   3.685  14.696 -1.1443  0.5452 -0.3164
 1344TIP3   OH225446   2.578   2.115   0.811  0.1545  0.3353 -0.0881
 1344TIP3    H125447   2.540   2.160   0.886 -0.8618 -1.0878  0.2940
 1344TIP3    H225448   2.530   2.149   0.736 -0.1354  0.3995  0.1226
 1345TIP3   OH225449   0.059   4.451  15.512 -0.1622 -0.1129 -0.0146
 1345TIP3    H125450   0.086   4.503  15.436  0.0860 -0.0400  0.1237
 1345TIP3    H225451  -0.012   4.396  15.479  0.1756 -0.3261 -0.3898
 1346TIP3   OH225452   2.251   1.149   6.259 -0.0102  0.3331 -0.4990
 1346TIP3    H125453   2.333   1.190   6.285 -0.4268  1.6072 -1.0811
 1346TIP3    H225454   2.183   1.200   6.304 -0.5447  0.2710 -1.2143
 1347TIP3   OH225455   5.707   0.356   0.562 -0.4020 -0.2260  0.1530
 1347TIP3    H125456   5.681   0.315   0.645 -0.6656 -0.8401 -0.2287
 1347TIP3    H225457   5.635   0.337   0.502 -0.3085  0.3926 -0.1687
 1348TIP3   OH225458   4.589   6.596  10.739 -0.2248 -0.1643 -0.2200
 1348TIP3    H125459   4.682   6.593  10.718 -0.4149 -0.5909 -1.0763
 1348TIP3    H225460   4.571   6.688  10.758  0.7846 -0.3800  2.0455
 1349TIP3   OH225461   5.184   2.007   0.181  0.5138 -0.0607 -0.0111
 1349TIP3    H125462   5.258   2.051   0.224  0.9438 -1.4130  0.6937
 1349TIP3    H225463   5.207   2.006   0.088 -1.3715  4.7956 -0.8442
 1350TIP3   OH225464   5.737   4.875   1.467 -0.1182  0.0785  0.0131
 1350TIP3    H125465   5.661   4.833   1.508  0.6186 -1.4930 -0.1637
 1350TIP3    H225466   5.738   4.842   1.377  0.7735  0.0615  0.0173
 1351TIP3   OH225467   0.186   3.217  16.841  0.5091 -0.5629  0.1500
 1351TIP3    H125468   0.220   3.290  16.893 -0.8865 -0.3979  0.8870
 1351TIP3    H225469   0.229   3.225  16.756 -0.7855  2.0950 -0.3637
 1352TIP3   OH225470   0.743   4.704  14.525  0.5067  0.8417 -0.1842
 1352TIP3    H125471   0.811   4.759  14.565 -0.5389  2.3096 -0.3158
 1352TIP3    H225472   0.674   4.699  14.591  0.6785 -0.5313 -0.0923
 1353TIP3   OH225473   1.921   2.588   2.219  0.0698 -0.0177  0.1867
 1353TIP3    H125474   1.939   2.497   2.240  1.1575  0.4857  1.5764
 1353TIP3    H225475   2.002   2.635   2.240  0.9972  0.7964 -4.1990
 1354TIP3   OH225476   4.185   2.670  15.614  0.2340 -0.2201 -0.6069
 1354TIP3    H125477   4.105   2.654  15.563 -0.7998 -0.2476  0.9493
 1354TIP3    H225478   4.189   2.597  15.676  1.7601 -0.4779 -0.9557
 1355TIP3   OH225479   5.930   4.110  10.973 -0.1026 -0.5892  0.1369
 1355TIP3    H125480   5.971   4.191  10.944 -0.2579 -0.1996  0.9928
 1355TIP3    H225481   5.844   4.110  10.933 -0.4668  0.1400  0.8944
 1356TIP3   OH225482   3.732   5.126   5.622 -0.2961  0.0129 -0.4637
 1356TIP3    H125483   3.655   5.111   5.567 -0.3478 -0.9432 -0.1505
 1356TIP3    H225484   3.746   5.043   5.666  1.1616  0.0432 -0.8145
 1357TIP3   OH225485   2.212   2.763   1.320  0.5894 -0.1904 -0.4156
 1357TIP3    H125486   2.249   2.801   1.400 -0.6203 -0.5294  0.3236
 1357TIP3    H225487   2.120   2.748   1.341  0.8803 -3.1720 -0.7677
 1358TIP3   OH225488   6.080   5.606  11.445 -0.1193 -0.1965  0.4303
 1358TIP3    H125489   6.086   5.687  11.496 -1.6550 -0.2681  0.7943
 1358TIP3    H225490   6.167   5.568  11.450  0.2831  0.7702  1.3805
 1359TIP3   OH225491   0.033   5.026  16.038  0.3194 -0.4493 -0.1012
 1359TIP3    H125492   0.110   5.001  15.987  0.6373  0.0596  0.1243
 1359TIP3    H225493  -0.035   5.041  15.973  0.6742  0.0250 -0.3692
 1360TIP3   OH225494   5.295   0.864  12.008 -0.2080 -0.3791 -0.5314
 1360TIP3    H125495   5.204   0.861  12.036 -0.6733 -2.0430 -2.0827
 1360TIP3    H225496   5.297   0.818  11.924  1.8453  0.7484 -1.1740
 1361TIP3   OH225497   0.128   0.758   2.709  0.1510  0.5816 -0.1150
 1361TIP3    H125498   0.195   0.815   2.671  0.1046 -0.1119 -1.2576
 1361TIP3    H225499   0.158   0.669   2.693 -1.0850  0.2521 -0.7598
 1362TIP3   OH225500   1.593   6.009  11.933  0.2330 -0.1525  0.0780
 1362TIP3    H125501   1.520   6.066  11.908  1.5151  3.1143  2.8865
 1362TIP3    H225502   1.657   6.020  11.862 -0.5144 -0.0352 -0.5937
 1363TIP3   OH225503   6.243   0.004   0.964 -0.0030  0.1002 -0.1508
 1363TIP3    H125504   6.268   0.007   1.057  0.4586 -0.5855 -0.2445
 1363TIP3    H225505   6.191  -0.076   0.956  0.4994 -0.1811 -0.6122
 1364TIP3   OH225506   1.362   5.366   1.234  0.4457  0.1709  0.2686
 1364TIP3    H125507   1.429   5.310   1.274  1.8525 -2.0061 -4.3714
 1364TIP3    H225508   1.412   5.428   1.181 -1.2224  0.6870 -0.7758
 1365TIP3   OH225509   2.847   1.477  13.978  0.2729 -0.1854  0.0927
 1365TIP3    H125510   2.771   1.456  14.033  0.0515 -2.2787 -0.9443
 1365TIP3    H225511   2.810   1.520  13.901  0.2378 -0.4537 -0.0380
 1366TIP3   OH225512   4.069   5.193  15.630  0.4356 -0.4776  0.7579
 1366TIP3    H125513   4.012   5.257  15.673  1.3684  1.7017 -1.0334
 1366TIP3    H225514   4.129   5.165  15.700 -0.1436  0.4384  1.6626
 1367TIP3   OH225515   2.138   4.245  11.119 -0.0805 -0.0634  0.8852
 1367TIP3    H125516   2.069   4.188  11.085  1.1717 -0.7421 -0.6146
 1367TIP3    H225517   2.096   4.331  11.128 -1.3923 -0.7021  1.0449
 1368TIP3   OH225518   5.394   6.272  16.251  0.4150 -0.2232 -0.0582
 1368TIP3    H125519   5.346   6.193  16.226  0.3118 -0.3154  0.4328
 1368TIP3    H225520   5.485   6.254  16.226  0.1566  0.0681 -1.2650
 1369TIP3   OH225521   1.630   5.617   5.687 -0.1160 -0.0803  0.1100
 1369TIP3    H125522   1.602   5.620   5.596  0.3011 -1.3480 -0.0943
 1369TIP3    H225523   1.681   5.536   5.693  0.9400  0.6313  1.1674
 1370TIP3   OH225524   1.211   4.417   1.893 -0.4851  0.2426 -0.2415
 1370TIP3    H125525   1.199   4.409   1.798 -0.4074  1.7586 -0.3949
 1370TIP3    H225526   1.132   4.379   1.930  0.0400 -1.5706 -0.8410
 1371TIP3   OH225527   0.559   0.022   4.295  0.4032  0.2382  0.1646
 1371TIP3    H125528   0.647   0.039   4.263  0.1254 -0.4956 -1.0567
 1371TIP3    H225529   0.550  -0.073   4.293 -0.7771  0.3361 -0.8539
 1372TIP3   OH225530   0.439   3.706  11.934  0.1205 -0.3427 -0.1998
 1372TIP3    H125531   0.457   3.741  11.847  1.4087 -1.5384 -0.4474
 1372TIP3    H225532   0.469   3.775  11.994 -0.0528  0.1655 -0.6915
 1373TIP3   OH225533   1.458   2.632   6.189 -0.2953 -0.3803 -0.0262
 1373TIP3    H125534   1.545   2.593   6.203 -0.5525 -0.1232  3.0364
 1373TIP3    H225535   1.477   2.724   6.170  0.1438 -0.8452 -1.9743
 1374TIP3   OH225536   3.087   4.473  15.617 -0.0074  0.1201 -0.0241
 1374TIP3    H125537   3.025   4.454  15.688  0.5725  0.7016  0.6551
 1374TIP3    H225538   3.167   4.427  15.642  0.1566  0.2220 -0.3648
 1375TIP3   OH225539   6.129   0.083   2.301  0.3347  0.1609 -0.3826
 1375TIP3    H125540   6.167   0.007   2.257  0.6732  1.0883 -1.7566
 1375TIP3    H225541   6.201   0.145   2.312 -0.4011  1.3047 -1.6107
 1376TIP3   OH225542   2.797   1.568   1.150  0.4200 -0.4212  0.3431
 1376TIP3    H125543   2.823   1.615   1.071  0.3131  0.1770  0.6540
 1376TIP3    H225544   2.821   1.477   1.134 -2.8261 -1.0621 -1.8786
 1377TIP3   OH225545   0.415   5.762   4.960 -0.8570 -0.7326  0.6030
 1377TIP3    H125546   0.508   5.743   4.969 -0.8232 -1.0159 -0.2480
 1377TIP3    H225547   0.386   5.785   5.048  0.0485 -0.4921  0.8450
 1378TIP3   OH225548   1.916   2.788  13.025  0.3226 -0.0917 -0.1188
 1378TIP3    H125549   1.917   2.878  12.992  0.6690  0.0365  0.2386
 1378TIP3    H225550   1.935   2.734  12.949 -1.2028  0.0332 -0.6391
 1379TIP3   OH225551   1.457   4.512   1.903 -0.2052 -0.0043  0.3384
 1379TIP3    H125552   1.466   4.490   1.996 -1.4883  1.0895  0.7613
 1379TIP3    H225553   1.369   4.480   1.880 -0.6948  1.4722  0.0525
 1380TIP3   OH225554   5.834   0.661  16.676  0.1926  0.3278  0.8022
 1380TIP3    H125555   5.763   0.699  16.728  0.2661  1.9081 -0.1705
 1380TIP3    H225556   5.792   0.597  16.620 -0.6299  1.7661 -0.2812
 1381TIP3   OH225557   1.068   4.747   3.222 -0.2371  0.5516 -0.1804
 1381TIP3    H125558   1.013   4.813   3.180 -1.8490  0.2719  1.3776
 1381TIP3    H225559   1.032   4.663   3.192  0.0411  0.3633  0.0009
 1382TIP3   OH225560   5.562   2.182   4.302  0.0864 -0.0333  0.3476
 1382TIP3    H125561   5.483   2.187   4.247  1.4476  2.6351 -1.6094
 1382TIP3    H225562   5.541   2.237   4.377 -0.6911 -1.1903  1.0019
 1383TIP3   OH225563   1.885   2.333  12.164  0.1224 -0.4170  0.8507
 1383TIP3    H125564   1.917   2.243  12.169  1.0039 -0.2530 -0.9838
 1383TIP3    H225565   1.806   2.328  12.110  1.0637  0.0805 -0.6240
 1384TIP3   OH225566   1.091   4.326  14.882  0.4347 -0.8740 -0.0859
 1384TIP3    H125567   1.153   4.326  14.810 -0.2577  1.4173 -0.7829
 1384TIP3    H225568   1.005   4.316  14.841  0.0330  0.3965  0.3857
 1385TIP3   OH225569   6.636   3.442   5.843 -0.6467 -0.1684 -0.4671
 1385TIP3    H125570   6.686   3.460   5.922  0.5348  1.0449 -1.4328
 1385TIP3    H225571   6.687   3.375   5.797 -0.7947 -0.1535 -0.6567
 1386TIP3   OH225572   3.697   0.615   3.267 -0.1626  0.2502  0.3506
 1386TIP3    H125573   3.791   0.593   3.270 -0.0810  0.6110  0.5663
 1386TIP3    H225574   3.676   0.617   3.173 -0.2711 -1.1016  0.3190
 1387TIP3   OH225575   5.632   4.333   4.172 -0.2093  0.2384 -0.5286
 1387TIP3    H125576   5.718   4.362   4.143 -0.3468  1.0205 -0.1912
 1387TIP3    H225577   5.649   4.274   4.245  0.1304 -1.5988 -2.0338
 1388TIP3   OH225578   3.717   6.108   0.337  0.1535  0.5630  0.0225
 1388TIP3    H125579   3.760   6.047   0.278 -2.2654 -2.4895  1.1316
 1388TIP3    H225580   3.628   6.116   0.302 -0.2018  1.8393  1.1156
 1389TIP3   OH225581   2.503   4.198  15.465 -0.2477 -0.4585  0.3817
 1389TIP3    H125582   2.524   4.152  15.384  0.5631  0.6512 -0.0632
 1389TIP3    H225583   2.531   4.288  15.449  1.4354 -0.5351  2.4454
 1390TIP3   OH225584   0.271   6.222  15.272  0.2178  0.1973 -0.6913
 1390TIP3    H125585   0.294   6.300  15.222 -1.1013  1.2018  0.2240
 1390TIP3    H225586   0.261   6.153  15.206  1.5143  0.7332 -1.4936
 1391TIP3   OH225587   3.996   1.814  15.786  0.1037  0.2147  0.4441
 1391TIP3    H125588   4.042   1.891  15.819  1.3607 -0.0478 -0.6374
 1391TIP3    H225589   3.942   1.848  15.713  1.5118 -0.0633 -0.7754
 1392TIP3   OH225590   0.114   4.929   4.444 -0.5306 -0.2651  0.1611
 1392TIP3    H125591   0.028   4.962   4.418  0.4490  1.7084 -0.7675
 1392TIP3    H225592   0.139   4.983   4.518 -0.1730 -0.9788  0.5684
 1393TIP3   OH225593   5.395   4.385   4.101 -0.2530 -0.2529 -0.1624
 1393TIP3    H125594   5.480   4.355   4.133  0.1738  0.4098 -0.6793
 1393TIP3    H225595   5.338   4.309   4.114  0.1250 -0.3243  1.2776
 1394TIP3   OH225596   6.723   4.939  14.458 -0.3609 -0.3457  0.4109
 1394TIP3    H125597   6.793   4.907  14.402 -0.7328 -1.2364  0.4418
 1394TIP3    H225598   6.642   4.911  14.414 -0.7296  0.9929  0.1701
 1395TIP3   OH225599   2.763   1.666   4.101 -0.4090  0.2683 -0.0632
 1395TIP3    H125600   2.675   1.704   4.103 -0.6655 -0.3077 -0.4392
 1395TIP3    H225601   2.781   1.650   4.009 -0.3101 -0.5361  0.0870
 1396TIP3   OH225602   3.304   3.020  13.383 -0.4774 -0.3127  0.1109
 1396TIP3    H125603   3.266   3.046  13.299  0.7999  0.2300 -0.3175
 1396TIP3    H225604   3.367   2.951  13.361 -1.5678 -1.6099  0.8774
 1397TIP3   OH225605   6.625   6.203   2.128 -0.7644  0.5039 -0.0050
 1397TIP3    H125606   6.643   6.238   2.041 -0.6808  1.5672  0.4311
 1397TIP3    H225607   6.705   6.157   2.154 -0.6493  0.5341 -0.3113
 1398TIP3   OH225608   3.670   4.955   3.380 -0.3211 -0.1782  0.0714
 1398TIP3    H125609   3.675   4.872   3.334  0.2773 -0.3809  0.4900
 1398TIP3    H225610   3.732   5.012   3.333  0.5623 -0.4947  0.8372
 1399TIP3   OH225611   0.566   4.185  15.835 -0.7924 -0.0489 -0.8796
 1399TIP3    H125612   0.655   4.149  15.833 -0.7790 -0.1229  0.3254
 1399TIP3    H225613   0.578   4.279  15.823 -0.6007 -0.1073 -1.1794
 1400TIP3   OH225614   1.923   0.481   3.980 -0.8065  0.0605 -0.2663
 1400TIP3    H125615   1.964   0.564   3.958  0.1152 -0.3995 -0.3450
 1400TIP3    H225616   1.843   0.479   3.929 -1.2266  1.2325  0.3149
 1401TIP3   OH225617   6.063   3.283   4.902  0.2062  0.3665  0.1362
 1401TIP3    H125618   6.014   3.210   4.939  1.3896  0.2220  1.5013
 1401TIP3    H225619   6.011   3.361   4.923 -0.9126 -0.0078 -1.0798
 1402TIP3   OH225620   3.858   0.721   2.761 -0.8350 -0.0394 -0.1675
 1402TIP3    H125621   3.766   0.749   2.765 -0.1423  2.6383 -1.0926
 1402TIP3    H225622   3.908   0.802   2.756  1.6069 -1.4349 -0.0757
 1403TIP3   OH225623   0.600   0.757  13.695  0.0007 -0.2155  0.0629
 1403TIP3    H125624   0.688   0.780  13.665  0.1447 -0.1772  0.5123
 1403TIP3    H225625   0.561   0.840  13.722 -0.4399 -0.1274 -0.8218
 1404TIP3   OH225626   0.985   6.537  12.986 -0.5923  0.2585 -0.1268
 1404TIP3    H125627   0.980   6.632  12.999  1.0270  0.1902  1.3898
 1404TIP3    H225628   0.894   6.508  12.982 -1.1171  1.8871 -0.8654
 1405TIP3   OH225629   4.670   6.748   4.319 -0.0825 -0.0682  0.6240
 1405TIP3    H125630   4.761   6.757   4.347  0.0271 -0.3655  0.3767
 1405TIP3    H225631   4.664   6.801   4.240 -0.4100  0.8319  1.2344
 1406TIP3   OH225632   2.659   0.028  11.678  0.4362  0.4598 -0.5352
 1406TIP3    H125633   2.655  -0.046  11.738 -0.2762 -0.4399 -1.6637
 1406TIP3    H225634   2.743   0.020  11.634  1.1457  1.3547  0.5828
 1407TIP3   OH225635   3.498   5.161   0.318 -0.0638  0.4490  0.0181
 1407TIP3    H125636   3.427   5.171   0.381 -0.9472  0.9068 -1.0203
 1407TIP3    H225637   3.577   5.180   0.368 -0.6923  0.2775  1.1127
 1408TIP3   OH225638   2.698   1.024   6.469  0.0005 -0.0477  0.1979
 1408TIP3    H125639   2.642   0.946   6.473  1.4799 -1.1276  0.8987
 1408TIP3    H225640   2.776   0.994   6.423 -0.4366  1.7652 -1.9212
 1409TIP3   OH225641   0.085   5.955   4.395  0.4124  0.0222 -0.2196
 1409TIP3    H125642   0.010   5.927   4.343 -0.1244  0.5465  0.2610
 1409TIP3    H225643   0.077   6.050   4.399  0.4164 -0.0115  0.8598
 1410TIP3   OH225644   1.057   6.410   5.342  0.3439 -0.2778  0.3507
 1410TIP3    H125645   1.152   6.413   5.333  0.4737  0.1054  1.7153
 1410TIP3    H225646   1.042   6.395   5.435 -0.9232 -1.5467 -0.0162
 1411TIP3   OH225647   0.826   4.391  15.175 -0.0103 -0.0620 -0.6769
 1411TIP3    H125648   0.736   4.406  15.203 -0.4935 -2.8271 -0.4723
 1411TIP3    H225649   0.826   4.414  15.082 -1.0139 -0.3241 -0.7543
 1412TIP3   OH225650   1.245   5.404  17.311  0.1863  0.3443  0.6696
 1412TIP3    H125651   1.153   5.379  17.306  0.3214 -0.0958  0.2233
 1412TIP3    H225652   1.292   5.320  17.313  0.6452  0.5497 -0.6263
 1413TIP3   OH225653   6.149   0.710   3.477 -0.2457  0.8052 -0.0392
 1413TIP3    H125654   6.068   0.754   3.500  0.6425  1.4797  2.0858
 1413TIP3    H225655   6.202   0.777   3.434 -0.2745  0.7585 -0.1494
 1414TIP3   OH225656   5.047   0.715   0.112 -0.1020 -0.0125 -0.2672
 1414TIP3    H125657   5.060   0.632   0.066 -1.0416 -0.7579  0.7530
 1414TIP3    H225658   5.013   0.775   0.046 -2.0480 -1.2418 -0.4563
 1415TIP3   OH225659   5.617   6.627   3.390  0.4538  0.0479 -0.2585
 1415TIP3    H125660   5.545   6.578   3.350 -0.8337  1.1312  0.6026
 1415TIP3    H225661   5.622   6.708   3.338  0.8166  0.1338 -0.0927
 1416TIP3   OH225662   6.545   6.196   6.313  0.1305  0.1876 -0.0697
 1416TIP3    H125663   6.487   6.221   6.386 -0.9476  1.1932 -1.2041
 1416TIP3    H225664   6.617   6.259   6.317 -0.1261  0.4855 -0.0946
 1417TIP3   OH225665   1.508   2.102   4.375  0.0327 -0.2520 -0.4107
 1417TIP3    H125666   1.504   2.193   4.406  0.5446  0.0929 -1.3417
 1417TIP3    H225667   1.567   2.104   4.300  0.0865 -1.3697 -0.4129
 1418TIP3   OH225668   6.161   2.900   0.011 -0.7136  0.3280 -0.1767
 1418TIP3    H125669   6.146   2.960  -0.061 -1.0993  0.5722  0.1053
 1418TIP3    H225670   6.137   2.949   0.090 -1.7574 -0.4220  0.0064
 1419TIP3   OH225671   2.664   3.287  16.409 -0.0267 -0.2765  0.3125
 1419TIP3    H125672   2.706   3.271  16.494  1.8097 -0.7287 -0.6370
 1419TIP3    H225673   2.632   3.377  16.416  1.0241  0.0662  1.1285
 1420TIP3   OH225674   2.508   2.464   4.299  0.3167 -0.2816 -0.1271
 1420TIP3    H125675   2.443   2.531   4.322  0.1057 -0.7815  0.7526
 1420TIP3    H225676   2.478   2.385   4.344  0.4516 -1.0347 -1.3249
 1421TIP3   OH225677   4.381   6.768  17.204  0.2091  0.4552  0.2151
 1421TIP3    H125678   4.371   6.710  17.279 -0.4899  1.1227  0.6425
 1421TIP3    H225679   4.297   6.764  17.158  0.5722  0.1799 -0.4519
 1422TIP3   OH225680   1.663   2.272   0.455  0.1625 -0.0508  0.1596
 1422TIP3    H125681   1.643   2.186   0.419 -1.0537 -0.0043  0.6656
 1422TIP3    H225682   1.595   2.329   0.419 -0.3282  0.2496  1.4934
 1423TIP3   OH225683   6.654   2.445  14.079  0.8315  0.0519  0.1982
 1423TIP3    H125684   6.749   2.455  14.077  0.6957  1.4160 -0.3366
 1423TIP3    H225685   6.625   2.506  14.147  0.1431  1.8384 -1.5947
 1424TIP3   OH225686   4.580   1.983   3.045  0.2370  0.1408 -0.0859
 1424TIP3    H125687   4.616   2.006   2.960 -0.8589  0.7768 -0.3913
 1424TIP3    H225688   4.523   2.056   3.069 -1.6173 -1.2223 -0.0712
 1425TIP3   OH225689   2.373   4.664  13.377  0.1560  0.3567 -0.1004
 1425TIP3    H125690   2.285   4.691  13.350  0.2665  0.9523  0.1264
 1425TIP3    H225691   2.364   4.643  13.470  0.2929  0.5915 -0.0334
 1426TIP3   OH225692   0.212   1.092  15.529  0.2916  0.2170  0.3444
 1426TIP3    H125693   0.307   1.107  15.531  0.4857 -0.8853  0.1346
 1426TIP3    H225694   0.175   1.179  15.512  1.2422  0.7240  0.7504
 1427TIP3   OH225695   2.328   5.633   5.064 -0.0958  0.3983  0.1412
 1427TIP3    H125696   2.257   5.583   5.023  0.3814 -0.0034 -0.2055
 1427TIP3    H225697   2.298   5.724   5.059 -0.4059  0.2758 -0.3882
 1428TIP3   OH225698   1.295   3.310  10.573 -0.1802  0.1256  0.2786
 1428TIP3    H125699   1.349   3.298  10.651 -0.1884  0.6753  0.3768
 1428TIP3    H225700   1.236   3.235  10.572 -0.9474  0.6762  1.4405
 1429TIP3   OH225701   0.812   5.752   1.736  0.2460 -0.1264 -0.1742
 1429TIP3    H125702   0.895   5.757   1.782  0.7058  0.9366 -1.0735
 1429TIP3    H225703   0.793   5.842   1.709 -1.7548 -0.1561  0.9415
 1430TIP3   OH225704   0.678   3.987  16.324  0.2250  0.0910  0.4951
 1430TIP3    H125705   0.676   4.024  16.235 -0.2047 -0.9828  0.0409
 1430TIP3    H225706   0.765   3.949  16.332 -0.2024 -1.0011  0.0247
 1431TIP3   OH225707   1.939   0.661   2.723 -0.3278  0.3515 -0.6780
 1431TIP3    H125708   1.867   0.624   2.672 -0.0057  2.6041 -2.9722
 1431TIP3    H225709   1.902   0.677   2.809 -2.3542  0.6629 -1.5416
 1432TIP3   OH225710   1.640   0.432  13.378  0.0491 -0.3995  0.6279
 1432TIP3    H125711   1.723   0.458  13.338 -0.6084  0.6215 -0.1347
 1432TIP3    H225712   1.588   0.512  13.381 -0.3900 -0.7106  2.4337
 1433TIP3   OH225713   0.463   2.077   3.243 -0.6592  0.3142  0.2633
 1433TIP3    H125714   0.486   2.170   3.241  0.0985  0.1291 -0.3360
 1433TIP3    H225715   0.433   2.059   3.154 -0.8888  0.0039  0.4048
 1434TIP3   OH225716   3.301   2.982   4.953  0.2838 -0.0799  0.1887
 1434TIP3    H125717   3.276   3.065   4.912  0.2798 -0.6720 -1.0555
 1434TIP3    H225718   3.364   2.943   4.892 -0.6753 -1.5703  0.0901
 1435TIP3   OH225719   3.775   2.019  16.327 -0.1681  0.4668  0.1947
 1435TIP3    H125720   3.690   1.977  16.320 -1.0714  2.3706 -1.0836
 1435TIP3    H225721   3.779   2.051  16.417  1.2806 -3.5973  1.8061
 1436TIP3   OH225722   2.712   0.493  12.029 -0.3960  0.2850  0.1036
 1436TIP3    H125723   2.785   0.444  12.068 -0.6999  0.6211  1.1457
 1436TIP3    H225724   2.634   0.454  12.069 -0.8412 -0.3687 -1.3325
 1437TIP3   OH225725   1.726   1.255  10.975 -0.0299  0.0228 -0.1387
 1437TIP3    H125726   1.798   1.312  11.002 -0.6777  1.5616 -1.4845
 1437TIP3    H225727   1.763   1.200  10.906  0.3075 -0.4238  0.3932
 1438TIP3   OH225728   4.234   5.525  13.219 -0.2137  0.5078 -0.2181
 1438TIP3    H125729   4.251   5.617  13.199  0.4104  0.0212 -2.1235
 1438TIP3    H225730   4.309   5.478  13.182 -0.9414 -0.8365 -0.0470
 1439TIP3   OH225731   6.111   1.418  15.577  0.2606 -0.7853  0.1163
 1439TIP3    H125732   6.025   1.377  15.570  0.8294 -2.7588  2.9220
 1439TIP3    H225733   6.151   1.377  15.654  2.6768  1.9778  0.5286
 1440TIP3   OH225734   3.297   4.290  12.225 -0.5773  0.0498  0.8875
 1440TIP3    H125735   3.241   4.366  12.207  0.3503  0.5662  0.0466
 1440TIP3    H225736   3.251   4.216  12.185  0.9428  1.0131 -3.0927
 1441TIP3   OH225737   1.989   4.920   5.667 -0.1371  0.3296 -0.8394
 1441TIP3    H125738   2.064   4.969   5.701 -1.6653  1.4560  1.1113
 1441TIP3    H225739   2.027   4.840   5.631  1.9969  0.8252  0.1421
 1442TIP3   OH225740   4.246   6.399   1.100  0.1557 -0.2461 -0.1133
 1442TIP3    H125741   4.272   6.475   1.048 -1.3681  0.3798 -0.0348
 1442TIP3    H225742   4.267   6.324   1.044  2.4836  0.1494  0.1687
 1443TIP3   OH225743   5.400   5.007  13.405  0.7346  0.5253 -0.0859
 1443TIP3    H125744   5.453   4.984  13.481 -0.6285 -0.0724  0.7127
 1443TIP3    H225745   5.367   4.923  13.372  1.6532  0.7271 -1.6215
 1444TIP3   OH225746   2.992   3.370  16.411 -0.2113 -0.1688  0.0220
 1444TIP3    H125747   3.028   3.355  16.499  1.1024  2.0958 -0.0566
 1444TIP3    H225748   2.898   3.383  16.426  0.1769  1.4976  1.3116
 1445TIP3   OH225749   4.991   1.051  15.028  0.5887 -0.4070 -0.2177
 1445TIP3    H125750   5.008   1.007  14.945  0.5418  3.1795 -2.3192
 1445TIP3    H225751   4.898   1.075  15.024  0.4507 -0.6158  1.1408
 1446TIP3   OH225752   2.357   4.838   3.377 -0.0867 -0.1755  0.0164
 1446TIP3    H125753   2.267   4.806   3.384 -0.4289  0.7706  0.1599
 1446TIP3    H225754   2.401   4.803   3.455 -1.0228  1.4313  1.3168
 1447TIP3   OH225755   6.563   0.454  13.423 -0.6920  0.2991 -0.0299
 1447TIP3    H125756   6.476   0.446  13.383 -0.9683  1.0829  0.4025
 1447TIP3    H225757   6.616   0.498  13.357 -1.1519  1.6071  0.4564
 1448TIP3   OH225758   2.287   5.335  10.601  0.8126 -0.5382 -0.0985
 1448TIP3    H125759   2.278   5.420  10.558  3.3205 -0.5092 -0.7480
 1448TIP3    H225760   2.212   5.284  10.571  1.0897  0.3451 -2.4928
 1449TIP3   OH225761   5.833   3.215  10.807 -0.2255 -0.5620  0.2405
 1449TIP3    H125762   5.911   3.175  10.846  0.1494 -1.2131 -1.1188
 1449TIP3    H225763   5.868   3.282  10.748 -0.8290  1.6196  2.1997
 1450TIP3   OH225764   3.182   4.041  16.010  0.0069 -0.4310  0.0934
 1450TIP3    H125765   3.142   3.974  16.065  0.6326 -1.0763 -0.2254
 1450TIP3    H225766   3.126   4.118  16.022  0.3714 -0.3947  1.9849
 1451TIP3   OH225767   3.177   6.023   0.367 -0.1466 -0.0784  0.0583
 1451TIP3    H125768   3.151   5.967   0.294 -3.4835  1.5519 -0.2283
 1451TIP3    H225769   3.185   6.110   0.329 -0.9249  0.6180  1.4106
 1452TIP3   OH225770   3.026   0.069   1.773  0.0507  0.1691  0.6989
 1452TIP3    H125771   3.015   0.160   1.801 -0.3687  0.5033 -0.4757
 1452TIP3    H225772   2.991   0.017   1.845 -2.1989  1.0202  0.3174
 1453TIP3   OH225773   4.888   1.903  13.581  0.1536  0.6535 -0.0527
 1453TIP3    H125774   4.807   1.876  13.539  0.3727 -0.5441  0.2438
 1453TIP3    H225775   4.875   1.884  13.674  0.5145  1.1241  0.1008
 1454TIP3   OH225776   5.468   4.680   2.113 -0.0066 -0.5270  0.4848
 1454TIP3    H125777   5.494   4.751   2.172  0.6418  0.1349 -0.5697
 1454TIP3    H225778   5.547   4.660   2.062 -0.4844 -1.2483 -0.0002
 1455TIP3   OH225779   6.475   2.243   3.517 -0.0716 -0.6403 -0.3858
 1455TIP3    H125780   6.506   2.227   3.606  1.3768  1.2220 -0.4909
 1455TIP3    H225781   6.520   2.323   3.490 -0.4629 -1.1501 -2.8035
 1456TIP3   OH225782   3.679   3.713  14.608  0.1466  0.0237  0.5874
 1456TIP3    H125783   3.730   3.734  14.530 -0.6350  2.2882  0.5909
 1456TIP3    H225784   3.602   3.770  14.602 -1.8988 -2.5161  1.0953
 1457TIP3   OH225785   0.371   1.224  12.209  0.9098 -0.8524 -0.4686
 1457TIP3    H125786   0.296   1.256  12.158  0.1611 -0.4615  0.8319
 1457TIP3    H225787   0.409   1.303  12.248  0.4902 -1.2768  0.8534
 1458TIP3   OH225788   4.731   6.081   4.181 -0.3557  0.8070 -0.4315
 1458TIP3    H125789   4.724   6.174   4.161 -0.6460  1.0891  0.8673
 1458TIP3    H225790   4.693   6.036   4.105 -0.7243  1.7694 -0.8253
 1459TIP3   OH225791   4.193   5.862   2.197 -0.6177  0.6431  0.1465
 1459TIP3    H125792   4.248   5.906   2.133  0.1260 -1.5013 -0.7589
 1459TIP3    H225793   4.209   5.909   2.279  2.0900  0.5216 -0.2288
 1460TIP3   OH225794   2.002   6.225  15.664  0.5382  0.6171 -0.1136
 1460TIP3    H125795   2.045   6.250  15.582 -1.1080 -0.6084 -1.4260
 1460TIP3    H225796   1.908   6.232  15.645  0.0552  2.6439  2.4514
 1461TIP3   OH225797   2.234   4.635  13.612 -0.1681  0.5359 -0.1328
 1461TIP3    H125798   2.213   4.584  13.690  0.4162 -0.6410 -0.7148
 1461TIP3    H225799   2.172   4.707  13.613 -1.6760 -0.7123  0.2347
 1462TIP3   OH225800   4.622   3.753  17.230 -0.3907  0.0554  0.1940
 1462TIP3    H125801   4.623   3.686  17.298 -0.9156 -0.0010  0.1570
 1462TIP3    H225802   4.700   3.805  17.246  0.1703 -0.7231  0.0583
 1463TIP3   OH225803   3.578   4.347  12.257 -0.3310 -0.3474 -0.8429
 1463TIP3    H125804   3.593   4.430  12.212 -0.8783 -0.1201 -0.6046
 1463TIP3    H225805   3.484   4.342  12.269 -0.2930 -0.9670 -0.7804
 1464TIP3   OH225806   2.216   5.049   5.733  0.4135  0.0628 -0.0986
 1464TIP3    H125807   2.192   5.058   5.825  2.2503 -0.1180  0.4502
 1464TIP3    H225808   2.272   5.124   5.715 -0.5528  0.5284 -1.3236
 1465TIP3   OH225809   5.707   3.575  15.687  0.5677 -0.3586  0.5015
 1465TIP3    H125810   5.722   3.618  15.771  1.0648 -0.1425  0.3047
 1465TIP3    H225811   5.701   3.482  15.709 -2.4074 -0.0906  1.1886
 1466TIP3   OH225812   1.988   1.228   6.121  0.4217 -0.4142 -0.6610
 1466TIP3    H125813   1.907   1.177   6.122 -0.3465  0.7631  0.6461
 1466TIP3    H225814   2.004   1.246   6.028  0.0100 -1.8781 -1.0457
 1467TIP3   OH225815   3.284   5.509   5.468  0.3150 -0.1164 -0.2587
 1467TIP3    H125816   3.325   5.458   5.538 -0.2011  1.5220  1.2977
 1467TIP3    H225817   3.190   5.492   5.477  0.2345  0.2111 -0.4511
 1468TIP3   OH225818   3.834   6.179  16.387  0.2471  0.3615  0.3277
 1468TIP3    H125819   3.924   6.146  16.387 -0.0769 -0.6465 -1.1812
 1468TIP3    H225820   3.798   6.148  16.304 -1.3059  1.2880  0.6229
 1469TIP3   OH225821   4.665   5.492  13.271  0.4564 -0.2835 -0.1991
 1469TIP3    H125822   4.637   5.558  13.207 -1.7210  1.4711  2.3401
 1469TIP3    H225823   4.675   5.541  13.352  1.2018 -2.7298  1.2657
 1470TIP3   OH225824   0.026   4.220  12.910 -0.2087  0.3688  0.1191
 1470TIP3    H125825  -0.023   4.299  12.933  2.5311  2.1512  0.3225
 1470TIP3    H225826   0.040   4.228  12.815 -1.3927 -0.8317 -0.1831
 1471TIP3   OH225827   2.353   3.476   0.401 -0.2518 -0.6349 -0.5699
 1471TIP3    H125828   2.435   3.493   0.354 -1.0302  0.4281 -1.5907
 1471TIP3    H225829   2.380   3.461   0.492  0.9438  1.3586 -0.5495
 1472TIP3   OH225830   1.584   2.791   4.085  0.1637  0.1057 -0.1485
 1472TIP3    H125831   1.565   2.780   4.178  2.1242  1.5576  0.4935
 1472TIP3    H225832   1.504   2.763   4.041 -1.5922  1.3029  2.0597
 1473TIP3   OH225833   5.533   3.911   6.356  0.0766 -0.4127  0.3519
 1473TIP3    H125834   5.478   3.982   6.389 -1.5536 -1.3614 -0.2074
 1473TIP3    H225835   5.615   3.920   6.404 -1.4570 -0.5195  3.2219
 1474TIP3   OH225836   4.167   1.868   2.298  0.1710 -0.0069  0.4601
 1474TIP3    H125837   4.208   1.828   2.222 -1.5396  0.8712 -0.9937
 1474TIP3    H225838   4.224   1.940   2.322  0.6200 -0.1723 -0.1068
 1475TIP3   OH225839   6.177   3.618   5.964  0.0796 -0.7762  0.4613
 1475TIP3    H125840   6.131   3.535   5.967  1.2343 -1.4531  0.0357
 1475TIP3    H225841   6.270   3.595   5.972  0.2922  0.6828  3.6280
 1476TIP3   OH225842   5.299   4.077   3.275 -0.6194 -0.7798  0.3413
 1476TIP3    H125843   5.266   4.164   3.255  1.8098 -0.3676 -2.5546
 1476TIP3    H225844   5.337   4.085   3.363 -0.3446  1.1029  0.0907
 1477TIP3   OH225845   2.003   3.533   4.317  0.0284 -0.1799  0.0431
 1477TIP3    H125846   1.978   3.616   4.357 -0.1324 -0.4490  0.5090
 1477TIP3    H225847   2.073   3.556   4.255  0.5972  0.1851  0.8039
 1478TIP3   OH225848   2.441   1.017   1.310  0.1293 -0.5356  1.0498
 1478TIP3    H125849   2.467   0.940   1.361 -0.0543 -1.8253 -0.7062
 1478TIP3    H225850   2.349   1.002   1.289  0.0384  0.2739  0.8269
 1479TIP3   OH225851   5.949   6.133  16.416  0.0067 -0.2070  0.1001
 1479TIP3    H125852   6.021   6.160  16.474 -0.2095 -1.2357  0.8858
 1479TIP3    H225853   5.902   6.213  16.397  2.1340  0.7470 -1.5522
 1480TIP3   OH225854   4.152   3.029  15.286  0.1676  0.8069 -0.2709
 1480TIP3    H125855   4.240   3.017  15.321  0.5569  0.1038 -1.4256
 1480TIP3    H225856   4.097   2.968  15.335  0.9385 -1.1193 -1.6588
 1481TIP3   OH225857   3.195   5.969  11.104  0.0286  0.2643 -0.5653
 1481TIP3    H125858   3.218   6.031  11.173  1.5231 -0.4563 -0.3684
 1481TIP3    H225859   3.278   5.952  11.059 -1.1991  2.3166 -3.9597
 1482TIP3   OH225860   5.209   0.858  15.076 -0.1154  0.9404  0.4689
 1482TIP3    H125861   5.201   0.929  15.013  0.0488 -0.3177 -1.0476
 1482TIP3    H225862   5.237   0.900  15.157  1.4352  2.4085 -0.7652
 1483TIP3   OH225863   1.968   4.068   4.447 -0.3749 -0.0615 -0.1986
 1483TIP3    H125864   1.908   4.141   4.430  1.9260  1.9712 -0.1389
 1483TIP3    H225865   1.974   4.063   4.542  0.6062  0.7322 -0.1987
 1484TIP3   OH225866   1.862   0.795   0.061  0.3202 -0.1499 -0.0187
 1484TIP3    H125867   1.824   0.726   0.008 -1.0085  0.7944 -0.3442
 1484TIP3    H225868   1.955   0.773   0.066  0.0125 -1.6869 -0.4973
 1485TIP3   OH225869   5.486   2.031  13.879 -0.0646  0.3267  0.8030
 1485TIP3    H125870   5.423   1.964  13.853 -0.6388  0.1250  2.5752
 1485TIP3    H225871   5.561   1.981  13.912  0.0951  0.5705  0.8123
 1486TIP3   OH225872   4.867   1.202   5.148  0.1072  0.0455  0.5112
 1486TIP3    H125873   4.854   1.215   5.242  0.5718 -1.5327  0.8204
 1486TIP3    H225874   4.947   1.151   5.141 -0.3958 -0.6311 -0.7041
 1487TIP3   OH225875   3.198   2.563  13.736 -0.7674  0.8672 -0.2478
 1487TIP3    H125876   3.262   2.568  13.807 -0.7059  1.1713 -0.3238
 1487TIP3    H225877   3.116   2.537  13.779 -0.3418 -0.6312 -0.3081
 1488TIP3   OH225878   2.020   1.132   5.028 -0.0496  0.6577  0.6333
 1488TIP3    H125879   1.955   1.064   5.044 -1.6799  1.3001 -2.4246
 1488TIP3    H225880   2.104   1.090   5.047 -1.1816 -1.0588  2.1358
 1489TIP3   OH225881   0.436   3.950  12.069  0.0371 -0.8302  0.0214
 1489TIP3    H125882   0.464   4.016  12.132 -0.6668 -1.6996  1.2772
 1489TIP3    H225883   0.343   3.967  12.055 -0.7623 -2.8945  2.1549
 1490TIP3   OH225884   4.944   1.960  14.694  0.2317  0.6437  0.4934
 1490TIP3    H125885   4.952   1.914  14.777  1.6851  1.6672  0.9725
 1490TIP3    H225886   4.850   1.967  14.679 -0.0433 -0.6552  1.4063
 1491TIP3   OH225887   1.397   6.351   5.681 -0.1198 -0.2463  0.6121
 1491TIP3    H125888   1.320   6.328   5.733  0.7976 -3.7613  0.6313
 1491TIP3    H225889   1.469   6.356   5.744 -0.1100  2.4597  0.5175
 1492TIP3   OH225890   5.356   4.256  10.914 -0.0568 -0.0403 -0.1954
 1492TIP3    H125891   5.329   4.210  10.994 -0.2474 -0.0301 -0.2526
 1492TIP3    H225892   5.409   4.192  10.867  0.6919  0.2071  0.2952
 1493TIP3   OH225893   1.480   5.683  13.085 -0.2958  0.1389 -0.0295
 1493TIP3    H125894   1.560   5.663  13.134 -0.3502  0.6841  0.2937
 1493TIP3    H225895   1.432   5.744  13.142 -1.1851 -0.5770  0.0047
 1494TIP3   OH225896   3.040   3.578   5.530  0.5818  0.2210 -0.3051
 1494TIP3    H125897   3.015   3.489   5.505  2.4652 -1.1440  2.1376
 1494TIP3    H225898   3.125   3.567   5.573  0.5431  3.1180  0.7329
 1495TIP3   OH225899   1.124   5.685   2.177 -0.0021 -0.3987  0.8538
 1495TIP3    H125900   1.103   5.661   2.087 -0.5573 -2.4866  1.4852
 1495TIP3    H225901   1.045   5.730   2.210 -0.5411 -1.3342  0.8625
 1496TIP3   OH225902   2.479   1.841  15.919 -0.0203 -0.6060 -0.0347
 1496TIP3    H125903   2.434   1.829  15.835  0.1783 -2.1734  0.0556
 1496TIP3    H225904   2.416   1.810  15.984  0.0264  0.1149  0.3614
 1497TIP3   OH225905   6.137   5.450   0.820 -0.0687  0.6359 -0.1819
 1497TIP3    H125906   6.092   5.484   0.898  0.2353 -0.1751  0.3508
 1497TIP3    H225907   6.156   5.529   0.769 -3.7041  0.9527 -1.3638
 1498TIP3   OH225908   3.646   5.450  12.231  0.1293  0.2429 -0.1631
 1498TIP3    H125909   3.686   5.437  12.317 -0.4272 -1.3591 -0.1162
 1498TIP3    H225910   3.554   5.428  12.243  0.1258 -0.4312 -1.2610
 1499TIP3   OH225911   2.724   4.154   2.962  0.1956  0.5409  0.0214
 1499TIP3    H125912   2.773   4.072   2.955  0.8991  0.7680  1.8229
 1499TIP3    H225913   2.728   4.177   3.055 -3.5368  0.4589  0.3461
 1500TIP3   OH225914   1.008   2.337  16.105  0.4312  0.1530 -0.0591
 1500TIP3    H125915   1.084   2.279  16.107  0.0287 -0.3890 -0.3394
 1500TIP3    H225916   1.045   2.425  16.120  1.0075 -0.1976  0.6341
 1501TIP3   OH225917   6.591   2.983  14.750  0.4452 -0.0294  0.2108
 1501TIP3    H125918   6.524   2.946  14.808  3.0160 -1.4291  2.4930
 1501TIP3    H225919   6.544   2.997  14.667 -2.3286 -2.2991  1.1838
 1502TIP3   OH225920   5.966   1.856  13.436  0.6366  0.3977  0.1366
 1502TIP3    H125921   6.039   1.886  13.490 -0.2069  2.7082  0.0960
 1502TIP3    H225922   5.964   1.918  13.363 -0.4865 -0.5032 -0.6249
 1503TIP3   OH225923   6.771   6.267  10.924 -0.5545  0.3629  0.0011
 1503TIP3    H125924   6.844   6.207  10.907 -1.0699 -0.2998  0.0897
 1503TIP3    H225925   6.790   6.344  10.870 -0.4194 -0.3105 -0.9328
 1504TIP3   OH225926   0.717   5.812  11.991  0.5329  0.3007  0.3658
 1504TIP3    H125927   0.631   5.849  12.006  1.2512  1.2479  2.5967
 1504TIP3    H225928   0.752   5.859  11.915 -0.2366  1.1541  0.5346
 1505TIP3   OH225929   1.457   2.397  12.455 -0.4307  0.2227  0.0727
 1505TIP3    H125930   1.501   2.481  12.467  1.3578 -0.9601  2.7278
 1505TIP3    H225931   1.521   2.342  12.410 -1.1126 -0.1145 -0.5147
 1506TIP3   OH225932   5.672   2.834  17.343  0.3439 -0.0470 -0.4536
 1506TIP3    H125933   5.761   2.806  17.366 -0.1258 -0.2408  1.2272
 1506TIP3    H225934   5.624   2.753  17.327 -0.1223 -0.0725  0.9841
 1507TIP3   OH225935   1.651   5.575  12.215 -0.2647  0.5967  0.1459
 1507TIP3    H125936   1.636   5.555  12.122 -1.3795  2.5051 -0.1410
 1507TIP3    H225937   1.731   5.628  12.215  0.6348 -0.7038  0.4959
 1508TIP3   OH225938   4.050   4.202  12.686  0.3458  0.2074  0.0065
 1508TIP3    H125939   4.107   4.125  12.688  1.2248  0.8071 -0.8335
 1508TIP3    H225940   3.975   4.175  12.633  0.3518 -0.2610  0.2327
 1509TIP3   OH225941   3.989   2.807   3.799  0.0335 -0.2855 -0.1818
 1509TIP3    H125942   3.955   2.753   3.870  0.1116  1.1339  0.9856
 1509TIP3    H225943   3.911   2.847   3.759 -0.0094 -1.0726 -0.9006
 1510TIP3   OH225944   1.942   1.432   1.432  0.3868 -0.0128  0.7605
 1510TIP3    H125945   1.998   1.363   1.465  1.0882  0.5193  0.7090
 1510TIP3    H225946   1.880   1.450   1.503  0.4408 -0.4322  0.9119
 1511TIP3   OH225947   1.346   3.258   1.658 -0.2628  0.6568 -0.3529
 1511TIP3    H125948   1.255   3.284   1.645 -0.1549  0.2427 -2.1074
 1511TIP3    H225949   1.351   3.168   1.626  0.6227  0.4095  0.4162
 1512TIP3   OH225950   0.646   4.047   5.581  0.3968  0.4911 -0.3380
 1512TIP3    H125951   0.660   3.994   5.502  2.0983  0.7084 -0.2348
 1512TIP3    H225952   0.732   4.087   5.597 -0.6474  2.7036  0.0035
 1513TIP3   OH225953   6.058   1.021  11.168  0.4107 -0.0629 -0.1466
 1513TIP3    H125954   6.069   1.076  11.246  2.4759  1.2429 -1.2539
 1513TIP3    H225955   5.975   1.049  11.130 -0.0246  0.1448  0.9368
 1514TIP3   OH225956   5.672   2.101  14.219 -0.1849  0.0404 -0.2219
 1514TIP3    H125957   5.637   2.015  14.197  0.2209 -0.2391  0.1962
 1514TIP3    H225958   5.744   2.083  14.279 -0.1120  0.6745 -0.1078
 1515TIP3   OH225959   1.490   6.707   0.369 -0.5318  0.3538 -0.3702
 1515TIP3    H125960   1.543   6.656   0.308  1.9416  1.8651  0.3680
 1515TIP3    H225961   1.419   6.743   0.314 -0.3481 -1.0514 -1.5889
 1516TIP3   OH225962   0.209   3.635   3.413  0.4472  0.1549 -0.4835
 1516TIP3    H125963   0.200   3.661   3.321 -0.6574 -0.5737 -0.5997
 1516TIP3    H225964   0.238   3.543   3.408 -0.6379 -0.2176 -0.1215
 1517TIP3   OH225965   3.037   2.891  15.475  0.2693  0.1914 -0.0462
 1517TIP3    H125966   3.044   2.858  15.385 -1.0946  0.0983 -0.1366
 1517TIP3    H225967   3.107   2.845  15.522  0.4250 -0.4385 -0.8581
 1518TIP3   OH225968   0.912   1.258  12.542  0.0604  0.2362 -0.3460
 1518TIP3    H125969   0.956   1.337  12.511  0.3488  0.7775  1.3040
 1518TIP3    H225970   0.858   1.288  12.615 -0.4577 -0.9638 -0.2137
 1519TIP3   OH225971   0.794   1.536  13.531 -0.1205  0.1707  0.1166
 1519TIP3    H125972   0.820   1.493  13.612 -0.8667 -0.9313 -0.1894
 1519TIP3    H225973   0.863   1.513  13.469 -0.6542 -0.8973 -0.1209
 1520TIP3   OH225974   4.881   1.751   0.787 -0.1527 -0.2343  0.3457
 1520TIP3    H125975   4.872   1.674   0.731 -0.4619  1.1573 -1.6230
 1520TIP3    H225976   4.965   1.790   0.763 -2.0174  2.6329 -2.3039
 1521TIP3   OH225977   6.610   0.764  14.452  0.1599  0.0925  0.0706
 1521TIP3    H125978   6.647   0.758  14.364 -0.0430 -1.2653  0.0493
 1521TIP3    H225979   6.522   0.801  14.438 -0.6707 -1.9595 -0.5910
 1522TIP3   OH225980   6.019   5.557  11.995  0.5836  0.2245 -0.2009
 1522TIP3    H125981   6.064   5.497  11.934  0.8284 -0.4628  0.6387
 1522TIP3    H225982   5.939   5.510  12.019  0.8991  0.1173  0.6587
 1523TIP3   OH225983   3.485   2.125   1.477 -0.1493  0.7139 -0.3053
 1523TIP3    H125984   3.390   2.125   1.489 -0.5358  0.7832 -2.7894
 1523TIP3    H225985   3.516   2.051   1.529 -1.5081  0.8445  0.7490
 1524TIP3   OH225986   4.995   0.506  12.968 -0.1588 -0.2175 -0.1029
 1524TIP3    H125987   4.966   0.572  12.906  0.1632  0.0345  0.0104
 1524TIP3    H225988   4.920   0.493  13.027  0.4018  1.4472  1.0444
 1525TIP3   OH225989   3.670   1.714  11.994  0.0631  0.2963  0.1148
 1525TIP3    H125990   3.581   1.694  11.967  0.0518  0.0250  0.3480
 1525TIP3    H225991   3.673   1.692  12.087  0.0481  1.4068  0.3945
 1526TIP3   OH225992   6.180   3.438  16.746  0.0621 -0.0606 -0.5753
 1526TIP3    H125993   6.204   3.401  16.831 -1.4388 -0.4598 -0.3055
 1526TIP3    H225994   6.246   3.403  16.686  2.2736  1.7146  0.6859
 1527TIP3   OH225995   0.623   4.114  14.778 -0.5752 -0.4323 -0.0793
 1527TIP3    H125996   0.614   4.019  14.779 -2.1572 -0.3211 -1.0452
 1527TIP3    H225997   0.536   4.147  14.801  0.1362  0.7972  1.0235
 1528TIP3   OH225998   5.657   6.071  13.341 -0.4507  0.4758  0.7845
 1528TIP3    H125999   5.617   6.153  13.312  1.6550  1.3197  0.0078
 1528TIP3    H226000   5.670   6.082  13.435  1.2826  1.7829  0.4394
 1529TIP3   OH226001   4.798   0.246   0.801  0.4607 -0.6172 -0.5075
 1529TIP3    H126002   4.772   0.159   0.831  0.0146 -0.1700  0.4315
 1529TIP3    H226003   4.799   0.300   0.880 -1.9724  0.9234 -1.3969
 1530TIP3   OH226004   2.530   1.016   4.912 -0.3606 -0.4675 -0.2006
 1530TIP3    H126005   2.521   1.111   4.910 -2.7535 -0.5080  2.2817
 1530TIP3    H226006   2.617   1.001   4.949 -1.1254  0.9388  2.5148
 1531TIP3   OH226007   1.658   3.819   0.765  0.0276  0.5927 -0.4318
 1531TIP3    H126008   1.651   3.887   0.698 -1.3096 -0.6700 -1.6501
 1531TIP3    H226009   1.716   3.754   0.727 -0.2827  0.1312 -0.1297
 1532TIP3   OH226010   6.047   6.088  10.585 -0.6066 -0.2593 -0.0009
 1532TIP3    H126011   6.135   6.051  10.593 -1.7129 -3.2446 -0.1536
 1532TIP3    H226012   5.994   6.036  10.646 -1.6689  4.1242  3.3315
 1533TIP3   OH226013   1.303   0.753  14.302 -0.4764 -0.4610 -0.1121
 1533TIP3    H126014   1.340   0.665  14.307 -0.3072 -0.3565  0.4979
 1533TIP3    H226015   1.290   0.779  14.393 -1.2599 -0.1615 -0.3003
 1534TIP3   OH226016   0.560   6.446   2.442  0.0016  0.1651  0.3617
 1534TIP3    H126017   0.597   6.480   2.523  1.6386  2.6003 -1.2851
 1534TIP3    H226018   0.494   6.510   2.416 -0.7341 -0.7460 -0.1119
 1535TIP3   OH226019   0.687   0.106   0.232  0.5844 -0.1332  0.3662
 1535TIP3    H126020   0.634   0.104   0.153  0.6108 -0.2559  0.3516
 1535TIP3    H226021   0.761   0.162   0.209  1.0693 -0.9078 -0.0002
 1536TIP3   OH226022   5.866   0.504   4.109 -0.1612  0.4792 -0.4484
 1536TIP3    H126023   5.814   0.474   4.034  2.1918 -1.1907 -1.5582
 1536TIP3    H226024   5.873   0.428   4.166  1.6981  0.3609 -0.7614
 1537TIP3   OH226025   3.351   4.751  13.325  0.7623  0.2438 -0.4403
 1537TIP3    H126026   3.270   4.789  13.289  0.6188  1.1503  0.7672
 1537TIP3    H226027   3.343   4.764  13.419  0.6180 -3.0488  0.1000
 1538TIP3   OH226028   0.252   2.039  13.808 -0.8664 -0.1573 -0.6448
 1538TIP3    H126029   0.294   2.004  13.729 -0.9347 -0.4365 -0.5583
 1538TIP3    H226030   0.287   2.128  13.816  0.4639 -0.7164 -0.0211
 1539TIP3   OH226031   0.597   6.742  15.517 -0.1627 -0.1310 -0.1582
 1539TIP3    H126032   0.570   6.831  15.493 -0.9792  0.3873  2.3435
 1539TIP3    H226033   0.520   6.688  15.497 -0.4450  0.1058  0.2697
 1540TIP3   OH226034   2.131   4.463  13.835  0.7065 -0.1320  0.2193
 1540TIP3    H126035   2.053   4.407  13.830  0.2822  0.5305 -2.5865
 1540TIP3    H226036   2.204   4.402  13.847  0.0646 -1.1552 -0.8359
 1541TIP3   OH226037   3.837   5.709  12.568  0.2985 -0.5434 -0.0555
 1541TIP3    H126038   3.789   5.627  12.557  0.1154 -0.5594  0.7980
 1541TIP3    H226039   3.916   5.698  12.515 -0.2206 -0.8543 -0.7756
 1542TIP3   OH226040   3.257   0.741   1.926  0.3405  0.0190  0.7308
 1542TIP3    H126041   3.275   0.740   2.020  0.8693  1.8547  0.6997
 1542TIP3    H226042   3.221   0.828   1.909  1.7343  0.3181 -1.0024
 1543TIP3   OH226043   0.824   6.597   3.226  0.4493  0.1404 -0.3044
 1543TIP3    H126044   0.890   6.596   3.295  3.3029 -0.3752 -2.8479
 1543TIP3    H226045   0.799   6.505   3.215  1.5611 -0.0739 -1.2623
 1544TIP3   OH226046   3.804   0.554   2.039  0.1624 -0.0830  0.2195
 1544TIP3    H126047   3.840   0.466   2.028  0.9521  0.0433  1.6068
 1544TIP3    H226048   3.852   0.607   1.974 -0.0099 -0.5754 -0.3213
 1545TIP3   OH226049   1.803   0.632   5.165 -0.1111 -0.7846 -0.4294
 1545TIP3    H126050   1.874   0.641   5.228  0.2309 -0.7652 -0.8159
 1545TIP3    H226051   1.728   0.602   5.218  0.0513 -0.3521  0.0546
 1546TIP3   OH226052   3.013   2.384   3.416 -0.3501 -0.0163 -0.7515
 1546TIP3    H126053   3.020   2.478   3.397 -0.2000 -0.1174 -1.2040
 1546TIP3    H226054   3.033   2.377   3.509 -0.0011  0.3582 -0.7957
 1547TIP3   OH226055   6.276   3.785   3.276 -0.6197 -0.2045 -0.0027
 1547TIP3    H126056   6.204   3.837   3.241 -0.8224 -0.9807 -0.7451
 1547TIP3    H226057   6.242   3.748   3.357 -0.7459  0.1495  0.1094
 1548TIP3   OH226058   5.503   2.894   0.488  0.6875  0.4725  0.3657
 1548TIP3    H126059   5.441   2.923   0.421  1.1458  0.8656  0.1116
 1548TIP3    H226060   5.477   2.940   0.567  1.1286  1.2310  0.0744
 1549TIP3   OH226061   5.451   2.768  16.249  0.5105 -0.0258  0.4692
 1549TIP3    H126062   5.484   2.837  16.306  1.1513  0.0278  0.0399
 1549TIP3    H226063   5.435   2.694  16.307  2.6743 -0.5146  0.5214
 1550TIP3   OH226064   0.189   5.336  12.569 -0.0816 -0.3176  0.4862
 1550TIP3    H126065   0.214   5.288  12.490  0.3047  0.0268  0.3937
 1550TIP3    H226066   0.096   5.356  12.557 -0.1447 -0.6907  0.3421
 1551TIP3   OH226067   3.035   1.750  13.392 -0.2151  0.1718 -0.0944
 1551TIP3    H126068   3.090   1.715  13.321 -0.6208 -0.1655 -0.2480
 1551TIP3    H226069   3.094   1.807  13.442 -0.3784  1.8525 -1.7419
 1552TIP3   OH226070   2.061   6.002  16.991  0.6876 -0.3669 -0.4460
 1552TIP3    H126071   1.990   5.939  16.999 -0.2110  0.6582  0.0323
 1552TIP3    H226072   2.040   6.052  16.912  0.9543 -0.1573 -0.3860
 1553TIP3   OH226073   2.025   1.665   1.599 -0.3344 -0.6181  0.6001
 1553TIP3    H126074   2.016   1.614   1.518 -0.4517 -0.2282  0.3659
 1553TIP3    H226075   2.082   1.612   1.654  0.1297 -0.6658  0.0786
 1554TIP3   OH226076   5.052   5.611   1.683 -0.5673  0.4531 -0.4309
 1554TIP3    H126077   5.070   5.637   1.592 -1.2727  0.1160 -0.6699
 1554TIP3    H226078   5.112   5.538   1.699  0.5778  1.4173 -0.1449
 1555TIP3   OH226079   0.499   3.659  11.495 -0.3196  0.1211  0.0762
 1555TIP3    H126080   0.429   3.594  11.493  0.0509 -0.2756 -1.2199
 1555TIP3    H226081   0.579   3.607  11.503 -0.0410  0.4203 -0.6586
 1556TIP3   OH226082   0.836   2.177   4.146 -0.3432  0.8475 -0.3618
 1556TIP3    H126083   0.826   2.192   4.240  0.3695  2.1807 -0.4814
 1556TIP3    H226084   0.852   2.083   4.139 -0.5535  0.7046  0.8296
 1557TIP3   OH226085   4.614   2.186   6.735 -0.3487 -0.0376  0.0271
 1557TIP3    H126086   4.553   2.248   6.695 -1.1291 -0.5671  0.3562
 1557TIP3    H226087   4.586   2.100   6.703 -0.3764 -0.3768  0.9094
 1558TIP3   OH226088   1.007   1.428   3.049 -0.1528 -0.4328 -0.7010
 1558TIP3    H126089   0.914   1.412   3.064 -0.0717  0.4173  1.0223
 1558TIP3    H226090   1.027   1.385   2.966 -1.8256 -1.6014 -0.5298
 1559TIP3   OH226091   1.397   6.054   0.656 -0.0791  0.0810  0.7067
 1559TIP3    H126092   1.487   6.043   0.688  0.6270 -2.1318 -1.6762
 1559TIP3    H226093   1.396   6.141   0.617  0.9647  0.2262  0.9731
 1560TIP3   OH226094   2.536   4.494  13.147 -0.1709  0.6812  0.1352
 1560TIP3    H126095   2.502   4.410  13.117  0.2858  0.8784 -1.0029
 1560TIP3    H226096   2.519   4.554  13.074 -0.2271  1.5091  0.8137
 1561TIP3   OH226097   0.784   0.877  13.937 -0.2885 -0.1172 -0.1753
 1561TIP3    H126098   0.763   0.882  13.843 -0.9842 -0.1218 -0.0221
 1561TIP3    H226099   0.814   0.965  13.959 -0.7057  0.0531 -0.2694
 1562TIP3   OH226100   3.878   2.189  16.103 -0.0556 -0.0044  0.5231
 1562TIP3    H126101   3.878   2.127  16.176 -2.0136 -0.3233  0.3073
 1562TIP3    H226102   3.791   2.230  16.106  0.5878  1.5220 -0.3665
 1563TIP3   OH226103   0.667   5.736   3.275 -0.5044  0.0006  0.6195
 1563TIP3    H126104   0.732   5.677   3.237 -1.3849 -0.5006 -0.1757
 1563TIP3    H226105   0.716   5.814   3.300  0.6294 -0.9281  1.3678
 1564TIP3   OH226106   0.721   6.524   4.064  0.8672  0.3464 -0.4631
 1564TIP3    H126107   0.741   6.599   4.119 -1.2262  1.8717 -1.6093
 1564TIP3    H226108   0.791   6.522   3.999  1.7796  0.3179  0.5045
 1565TIP3   OH226109   3.465   1.831   2.164 -0.0921 -0.5558  0.7376
 1565TIP3    H126110   3.454   1.821   2.258  1.7897  0.6500  1.1490
 1565TIP3    H226111   3.494   1.744   2.134 -1.7507 -1.2415  1.0516
 1566TIP3   OH226112   0.490   4.273   5.072 -0.1284  0.1697  0.4934
 1566TIP3    H126113   0.443   4.191   5.082  0.8845 -0.8048 -1.9666
 1566TIP3    H226114   0.507   4.302   5.162 -0.0002 -2.5960  1.4570
 1567TIP3   OH226115   0.787   5.679   0.960  0.1580 -0.5722 -0.5024
 1567TIP3    H126116   0.695   5.669   0.935  0.1492 -0.3839 -0.5494
 1567TIP3    H226117   0.798   5.773   0.972  0.5285 -0.5274 -1.1818
 1568TIP3   OH226118   5.836   3.216   0.884  0.0094  0.5237  0.1779
 1568TIP3    H126119   5.769   3.172   0.832  0.2322  1.3127 -0.7929
 1568TIP3    H226120   5.815   3.192   0.975 -0.2736 -1.0174 -0.2573
 1569TIP3   OH226121   6.411   6.173   4.783  0.2862 -0.7345 -0.4160
 1569TIP3    H126122   6.481   6.118   4.748  0.8770  0.7920 -1.7775
 1569TIP3    H226123   6.337   6.161   4.724  0.8541  0.8532 -1.5317
 1570TIP3   OH226124   3.443   4.508  13.464 -0.1760 -0.2425 -0.2740
 1570TIP3    H126125   3.502   4.565  13.514 -1.0342  1.3312 -1.0063
 1570TIP3    H226126   3.425   4.556  13.383 -2.1839 -0.8156 -0.2263
 1571TIP3   OH226127   4.194   5.462  15.351  0.1027  0.4127 -0.7252
 1571TIP3    H126128   4.138   5.385  15.345  0.7130  0.0380 -2.2549
 1571TIP3    H226129   4.146   5.531  15.303  0.0613  0.6591 -0.3309
 1572TIP3   OH226130   1.474   1.371  10.928 -0.0505 -0.0993 -0.3041
 1572TIP3    H126131   1.432   1.364  11.014 -0.7944  0.8008 -0.5819
 1572TIP3    H226132   1.568   1.367  10.947 -0.0831  2.4536  0.8336
 1573TIP3   OH226133   0.888   6.706   1.815  0.1034 -0.2515 -0.0876
 1573TIP3    H126134   0.856   6.750   1.736 -0.5985  0.7018  0.7152
 1573TIP3    H226135   0.825   6.636   1.830  2.0629 -2.7274 -2.2790
 1574TIP3   OH226136   5.056   5.976   0.078 -0.2155  0.7727 -0.4439
 1574TIP3    H126137   4.967   5.966   0.113  0.1203 -0.3370  0.1425
 1574TIP3    H226138   5.085   5.886   0.061  0.8444  1.1191 -0.4992
 1575TIP3   OH226139   4.536   1.785   0.061  0.1206 -0.2484 -0.5719
 1575TIP3    H126140   4.592   1.738   0.123  0.6707  0.1083 -0.7898
 1575TIP3    H226141   4.449   1.782   0.100 -0.1401 -2.5384 -1.1563
 1576TIP3   OH226142   4.782   6.416  16.993  0.0444 -0.1467 -0.2982
 1576TIP3    H126143   4.719   6.353  16.957 -0.3486 -0.3253  0.6612
 1576TIP3    H226144   4.785   6.395  17.086  0.3150  0.9195 -0.0596
 1577TIP3   OH226145   3.761   0.637  12.326 -0.0845 -0.6728  0.0062
 1577TIP3    H126146   3.709   0.577  12.273 -0.5141 -0.4269  0.1444
 1577TIP3    H226147   3.750   0.722  12.283  1.1299 -0.8132 -0.6349
 1578TIP3   OH226148   2.135   0.133   2.797  0.6253 -0.0703 -0.8308
 1578TIP3    H126149   2.081   0.054   2.807  1.5114 -0.6947 -0.7966
 1578TIP3    H226150   2.076   0.205   2.814 -0.0614 -0.7582 -0.2206
 1579TIP3   OH226151   0.219   3.295   2.915 -0.2009  0.3618 -0.0852
 1579TIP3    H126152   0.200   3.261   2.828 -1.4816  1.8898 -0.4381
 1579TIP3    H226153   0.299   3.345   2.905  0.2111 -0.2906 -0.1391
 1580TIP3   OH226154   6.272   2.104  13.276 -0.2724  0.4105  0.1869
 1580TIP3    H126155   6.289   2.181  13.222  0.0920  1.8606  2.2436
 1580TIP3    H226156   6.305   2.128  13.363 -0.7733 -1.8251  1.0620
 1581TIP3   OH226157   4.935   6.408   0.623 -0.3634 -0.2371  0.0092
 1581TIP3    H126158   4.957   6.477   0.686 -1.0755 -0.4450  0.4950
 1581TIP3    H226159   4.873   6.450   0.563 -0.5647 -0.3721  0.1250
 1582TIP3   OH226160   1.334   1.940  16.534  0.4573  0.2882  0.3365
 1582TIP3    H126161   1.298   1.852  16.537  0.3994  0.2404 -0.9364
 1582TIP3    H226162   1.399   1.937  16.464 -0.4601  1.5562 -0.6337
 1583TIP3   OH226163   6.212   1.574   1.081 -0.3237  0.1492 -0.8099
 1583TIP3    H126164   6.148   1.532   1.139 -0.3209 -0.5061 -1.2711
 1583TIP3    H226165   6.182   1.552   0.993  0.5488 -0.1709 -1.0311
 1584TIP3   OH226166   2.314   1.503   0.711  1.0623  0.2518  0.1874
 1584TIP3    H126167   2.322   1.541   0.798 -1.9186 -0.6126  0.9559
 1584TIP3    H226168   2.288   1.576   0.655  1.1579  0.4736  0.4294
 1585TIP3   OH226169   1.448   2.604   0.645 -0.5303  0.1693 -0.3275
 1585TIP3    H126170   1.513   2.571   0.706 -0.0755 -0.8550 -1.3381
 1585TIP3    H226171   1.383   2.647   0.700  0.8544  1.0048  0.7248
 1586TIP3   OH226172   2.361   6.694   2.195  0.1656 -0.4664  0.5596
 1586TIP3    H126173   2.295   6.638   2.235 -1.6297 -1.0577 -2.8506
 1586TIP3    H226174   2.358   6.775   2.245 -0.8234 -1.6138  2.4613
 1587TIP3   OH226175   6.597   2.975   3.076 -0.1739  0.6268 -0.0638
 1587TIP3    H126176   6.503   2.957   3.084 -0.3543  1.8451  0.7253
 1587TIP3    H226177   6.621   3.018   3.157  0.8681  1.2210 -0.6600
 1588TIP3   OH226178   5.017   3.748   2.885 -0.3469  0.4185  0.4615
 1588TIP3    H126179   4.983   3.830   2.920 -0.9371  0.8369 -1.0207
 1588TIP3    H226180   5.017   3.760   2.790  1.1156 -0.6970  0.2742
 1589TIP3   OH226181   2.782   4.993  12.054  0.2446 -0.8796  0.2816
 1589TIP3    H126182   2.703   4.941  12.039  0.2195  0.0184 -3.7949
 1589TIP3    H226183   2.839   4.973  11.980  2.0949  1.5483  0.9294
 1590TIP3   OH226184   1.249   2.670   0.198 -0.0062  0.0368 -0.0905
 1590TIP3    H126185   1.215   2.756   0.220  0.1316  0.0013  0.2808
 1590TIP3    H226186   1.227   2.616   0.275  0.1568 -0.1870 -0.2007
 1591TIP3   OH226187   0.993   1.341   2.739 -0.3204  0.1198  0.3230
 1591TIP3    H126188   1.067   1.301   2.784 -1.8107 -1.0643  1.8484
 1591TIP3    H226189   1.009   1.322   2.646  1.7506  0.7657  0.4934
 1592TIP3   OH226190   6.105   0.784   0.729 -0.0768  0.3887 -0.4593
 1592TIP3    H126191   6.090   0.871   0.691 -1.4477  0.7281  0.7669
 1592TIP3    H226192   6.135   0.802   0.818 -0.4888 -0.3837 -0.1558
 1593TIP3   OH226193   5.146   1.837   4.385  0.2152 -0.7551 -0.0939
 1593TIP3    H126194   5.237   1.836   4.357 -0.1000 -1.7659 -1.1589
 1593TIP3    H226195   5.096   1.816   4.305 -0.9937  0.4287  0.3086
 1594TIP3   OH226196   5.737   4.963   0.707  0.0364  0.0598 -0.6372
 1594TIP3    H126197   5.690   5.038   0.672 -0.6600 -0.2178 -0.3174
 1594TIP3    H226198   5.820   4.999   0.737 -0.5545  0.8347  0.1247
 1595TIP3   OH226199   4.904   5.658  14.088  0.2014  0.0209 -0.8102
 1595TIP3    H126200   4.846   5.594  14.129 -1.9304  1.5667 -1.2372
 1595TIP3    H226201   4.972   5.606  14.047 -1.1299 -1.9254 -0.6682
 1596TIP3   OH226202   2.257   2.189  13.682 -0.1330  0.2434 -0.4757
 1596TIP3    H126203   2.178   2.193  13.735  0.2383 -0.0608  0.1103
 1596TIP3    H226204   2.245   2.112  13.626 -0.1114  0.0001 -0.1495
 1597TIP3   OH226205   2.553   1.531   3.129 -0.3347  0.3690  0.1643
 1597TIP3    H126206   2.574   1.492   3.214  2.0412 -1.3561 -1.1233
 1597TIP3    H226207   2.479   1.590   3.148 -1.5427 -1.8047  2.9422
 1598TIP3   OH226208   0.408   0.465   3.459  0.1470 -0.0972 -0.6509
 1598TIP3    H126209   0.346   0.457   3.386  0.0950 -0.2022 -0.5952
 1598TIP3    H226210   0.488   0.425   3.426  0.0270 -0.4317 -0.5362
 1599TIP3   OH226211   1.949   6.292  11.050  0.2825  0.0968 -0.1964
 1599TIP3    H126212   2.027   6.328  11.092 -0.4093  0.1283  1.1428
 1599TIP3    H226213   1.895   6.368  11.030 -0.7054 -0.0603  1.6543
 1600TIP3   OH226214   3.894   2.631   4.001  0.5907 -0.4200 -0.0087
 1600TIP3    H126215   3.916   2.599   4.088 -0.1259 -0.0710  0.3128
 1600TIP3    H226216   3.850   2.558   3.959  1.5302 -0.8137 -0.3265
 1601TIP3   OH226217   6.279   5.228  13.879 -0.9621  0.0013  0.2919
 1601TIP3    H126218   6.344   5.158  13.865 -0.6374  0.2134  0.6943
 1601TIP3    H226219   6.225   5.196  13.952 -0.2904  0.5137  1.0426
 1602TIP3   OH226220   5.265   1.566  14.145  0.7223 -0.3714  0.0783
 1602TIP3    H126221   5.348   1.602  14.115  0.7662 -0.1956  0.4114
 1602TIP3    H226222   5.203   1.638  14.135  0.3923 -0.7828 -1.0874
 1603TIP3   OH226223   2.378   0.377  11.024 -0.0255 -0.4904 -0.3655
 1603TIP3    H126224   2.430   0.329  11.089 -1.4353 -1.7470 -0.1158
 1603TIP3    H226225   2.287   0.360  11.048 -0.5888 -0.4493 -2.2888
 1604TIP3   OH226226   3.636   2.309  14.985 -0.4468  0.5784  0.1831
 1604TIP3    H126227   3.575   2.361  15.037 -1.9965 -1.9334  1.0080
 1604TIP3    H226228   3.582   2.264  14.920  1.0681  1.1894 -1.6312
 1605TIP3   OH226229   2.402   0.958  13.026 -0.7752  0.3402 -0.0577
 1605TIP3    H126230   2.360   0.872  13.032 -0.5975  0.3062  1.0725
 1605TIP3    H226231   2.387   0.997  13.113  0.3476  0.8713 -0.0910
 1606TIP3   OH226232   4.604   0.735  17.135 -0.5883 -0.4567  0.0952
 1606TIP3    H126233   4.672   0.778  17.083  0.4666 -0.4589  1.4280
 1606TIP3    H226234   4.619   0.766  17.224 -2.0516 -0.8381  0.4867
 1607TIP3   OH226235   0.629   4.764  17.311  0.6112 -0.6414 -0.1609
 1607TIP3    H126236   0.709   4.806  17.280  0.9450 -0.7039  0.6018
 1607TIP3    H226237   0.566   4.780  17.241  1.1575 -0.1916 -0.5655
 1608TIP3   OH226238   2.538   3.521   3.267  0.3635  0.4582  0.3174
 1608TIP3    H126239   2.464   3.461   3.265 -0.7582  1.7927  0.6771
 1608TIP3    H226240   2.615   3.464   3.276 -0.5802 -0.9567 -0.2259
 1609TIP3   OH226241   3.179   3.442  12.116  0.8034  0.0719 -0.1554
 1609TIP3    H126242   3.226   3.524  12.129  0.8103  0.1213 -0.4832
 1609TIP3    H226243   3.137   3.452  12.031  1.1847 -0.4455 -0.4096
 1610TIP3   OH226244   2.647   4.010   3.802  0.9233  0.2242  0.1146
 1610TIP3    H126245   2.722   3.971   3.756  0.4005 -1.8630  0.9389
 1610TIP3    H226246   2.570   3.976   3.756  0.4327 -0.7704  1.5831
 1611TIP3   OH226247   0.470   1.044  14.915 -0.1211 -0.2264 -0.5141
 1611TIP3    H126248   0.493   1.128  14.873 -0.3303 -0.3557 -0.8907
 1611TIP3    H226249   0.548   0.990  14.902 -0.1293 -0.2163 -0.6102
 1612TIP3   OH226250   3.065   1.754   1.466  0.2792  0.5557  0.1707
 1612TIP3    H126251   3.118   1.750   1.386  0.8392  0.5881  0.5339
 1612TIP3    H226252   3.013   1.675   1.464 -1.4086  1.6164 -1.3769
 1613TIP3   OH226253   0.274   5.152   4.031 -0.4001 -0.0089 -0.6943
 1613TIP3    H126254   0.281   5.068   4.077 -0.8256 -0.4423 -1.3970
 1613TIP3    H226255   0.363   5.171   4.002  0.0868  0.7955  1.1629
 1614TIP3   OH226256   5.686   3.698  11.506  0.1851  0.3902 -0.2301
 1614TIP3    H126257   5.747   3.628  11.485  0.3141 -0.0203  1.3487
 1614TIP3    H226258   5.600   3.656  11.509  0.2458  0.3017  0.5850
 1615TIP3   OH226259   0.617   4.345   1.481  0.3729 -0.1179  0.0144
 1615TIP3    H126260   0.572   4.429   1.491 -0.6727 -0.8201  1.8310
 1615TIP3    H226261   0.620   4.309   1.570  2.1832 -1.3211 -0.4763
 1616TIP3   OH226262   1.194   1.866  14.449  0.1856 -0.1388 -0.2500
 1616TIP3    H126263   1.107   1.827  14.447  0.7272 -1.4042 -0.0949
 1616TIP3    H226264   1.184   1.945  14.501 -1.0925  0.3290 -1.1407
 1617TIP3   OH226265   3.485   0.044   3.212 -0.1514  0.4832 -0.0863
 1617TIP3    H126266   3.506   0.136   3.228  1.5114  0.0429  0.4542
 1617TIP3    H226267   3.401   0.032   3.256 -0.2597  1.6696  0.0783
 1618TIP3   OH226268   4.375   0.561  14.900 -0.4102  0.2804  0.1163
 1618TIP3    H126269   4.344   0.634  14.954  2.4563  1.0109  0.9796
 1618TIP3    H226270   4.378   0.596  14.811 -1.2980  0.4031  0.1232
 1619TIP3   OH226271   0.249   1.043  16.658 -0.1328 -0.0176  0.0984
 1619TIP3    H126272   0.271   0.996  16.738  0.1576 -0.7974 -0.4272
 1619TIP3    H226273   0.154   1.054  16.662 -0.1154 -0.0291  0.5587
 1620TIP3   OH226274   4.103   4.852   0.485  0.1752 -0.1121 -0.2625
 1620TIP3    H126275   4.125   4.938   0.521  0.2912 -0.2856  0.0908
 1620TIP3    H226276   4.056   4.871   0.404  1.3437  0.2718 -0.8711
 1621TIP3   OH226277   4.346   0.646   0.760  0.3191 -0.7927  0.0512
 1621TIP3    H126278   4.362   0.740   0.766  1.6991 -0.7601 -2.4244
 1621TIP3    H226279   4.266   0.639   0.708  0.3317 -0.9955  0.0600
 1622TIP3   OH226280   0.800   2.265   5.379  0.6036  0.3037  0.1490
 1622TIP3    H126281   0.764   2.320   5.448 -2.2189 -1.2042  0.0001
 1622TIP3    H226282   0.795   2.318   5.300  1.3095  1.0637  0.6010
 1623TIP3   OH226283   4.577   5.617   3.300  0.3273 -0.0577 -0.2410
 1623TIP3    H126284   4.636   5.562   3.352 -0.1868  0.8376  1.3563
 1623TIP3    H226285   4.634   5.659   3.235  1.4965  0.8311  1.2855
 1624TIP3   OH226286   2.384   6.464  15.141  0.2241 -0.1852  0.2365
 1624TIP3    H126287   2.339   6.384  15.166 -0.8648  0.0907 -0.7598
 1624TIP3    H226288   2.315   6.527  15.125  1.0394  0.7539  0.3275
 1625TIP3   OH226289   2.430   5.318   2.363 -0.2595  0.2229 -0.1448
 1625TIP3    H126290   2.467   5.238   2.399 -0.2574  0.3742  0.1920
 1625TIP3    H226291   2.336   5.310   2.378 -0.1888  0.6282  0.6025
 1626TIP3   OH226292   5.778   5.725  15.809 -0.7531 -0.5132  0.6241
 1626TIP3    H126293   5.837   5.750  15.881 -1.0178  2.6107 -0.0976
 1626TIP3    H226294   5.818   5.646  15.773  2.1935  0.5765  1.1424
 1627TIP3   OH226295   6.007   5.792   0.423  0.7353 -0.5857  0.5941
 1627TIP3    H126296   6.011   5.885   0.446  0.7339 -0.1460 -1.0553
 1627TIP3    H226297   6.091   5.773   0.381  0.4730 -1.1556  0.3058
 1628TIP3   OH226298   1.898   5.645  15.488 -0.5204  0.2865 -0.1714
 1628TIP3    H126299   1.932   5.580  15.426 -2.0098 -2.7157  1.8857
 1628TIP3    H226300   1.835   5.696  15.437 -0.8375 -1.2944 -1.4469
 1629TIP3   OH226301   5.058   0.720   3.007  0.0012  0.3923  0.8072
 1629TIP3    H126302   5.016   0.699   2.924  0.8638 -1.0301  0.6825
 1629TIP3    H226303   5.028   0.651   3.067  2.5254 -1.0646  0.5459
 1630TIP3   OH226304   3.752   5.492   3.496 -0.1268 -0.2236  0.8212
 1630TIP3    H126305   3.720   5.429   3.431 -0.0564  0.5550  0.0166
 1630TIP3    H226306   3.674   5.537   3.527  0.0990  1.8814 -1.3560
 1631TIP3   OH226307   3.820   2.443   4.884 -0.3337  0.2031 -0.4983
 1631TIP3    H126308   3.831   2.508   4.815  2.3698  0.8661  0.4471
 1631TIP3    H226309   3.908   2.425   4.915 -1.3417 -1.0250  1.9491
 1632TIP3   OH226310   5.686   5.671  16.892  0.3917  0.6807 -0.4907
 1632TIP3    H126311   5.669   5.746  16.836  0.1176  0.3653 -0.8367
 1632TIP3    H226312   5.610   5.613  16.879  0.6548  0.2889 -0.3218
 1633TIP3   OH226313   5.975   1.778   3.455  0.7223 -0.4401  0.0633
 1633TIP3    H126314   5.954   1.709   3.392 -1.9042 -0.3766  0.7702
 1633TIP3    H226315   5.935   1.856   3.419  1.6651  0.2426  0.4453
 1634TIP3   OH226316   5.807   1.712   0.243 -0.2439  0.1458  0.4522
 1634TIP3    H126317   5.885   1.739   0.292  0.7870  1.1748 -1.5958
 1634TIP3    H226318   5.734   1.750   0.291  0.5089 -0.5873  2.2644
 1635TIP3   OH226319   6.365   3.290  15.925 -0.1160  0.3301 -0.1622
 1635TIP3    H126320   6.459   3.307  15.924 -0.2195  0.9915  0.4099
 1635TIP3    H226321   6.346   3.257  15.837  0.9705 -1.6930  0.3129
 1636TIP3   OH226322   3.366   4.267  17.205 -0.5063 -0.2525 -0.0969
 1636TIP3    H126323   3.379   4.173  17.215 -1.0809 -0.1626  1.8828
 1636TIP3    H226324   3.379   4.283  17.112 -1.8430 -2.5323 -0.7630
 1637TIP3   OH226325   4.264   4.339  12.479  0.1153 -0.8194  0.4774
 1637TIP3    H126326   4.309   4.257  12.459  1.3682 -0.3591  1.3014
 1637TIP3    H226327   4.188   4.313  12.531  2.3438 -1.3134  3.7970
 1638TIP3   OH226328   1.466   2.855   1.162 -0.0341  0.0662  0.1045
 1638TIP3    H126329   1.527   2.926   1.181  1.5391 -0.8135 -1.3949
 1638TIP3    H226330   1.390   2.899   1.125  0.8717  1.0115 -0.7183
 1639TIP3   OH226331   6.417   1.064  11.539 -0.3039 -0.0779 -0.0552
 1639TIP3    H126332   6.443   1.154  11.517  3.1043 -0.5875  1.3061
 1639TIP3    H226333   6.488   1.031  11.594 -0.6620 -4.1572 -1.7114
 1640TIP3   OH226334   0.855   5.717  11.102 -0.0557 -0.2017  0.0643
 1640TIP3    H126335   0.880   5.791  11.159  0.0742 -1.0040  1.0867
 1640TIP3    H226336   0.826   5.758  11.021 -1.4427  1.0632  1.1352
 1641TIP3   OH226337   1.550   0.173  15.837 -0.8402 -0.5226  0.3813
 1641TIP3    H126338   1.494   0.097  15.850 -1.9570  0.1884 -0.0761
 1641TIP3    H226339   1.623   0.140  15.784 -2.3654 -0.8944 -1.6400
 1642TIP3   OH226340   6.414   2.123  13.506 -0.1769 -0.0279  0.3666
 1642TIP3    H126341   6.504   2.103  13.480  0.6375  1.2870  1.9397
 1642TIP3    H226342   6.424   2.180  13.583 -2.3671 -0.1419  0.7909
 1643TIP3   OH226343   1.569   3.875  13.929 -0.1329 -0.3930  0.1866
 1643TIP3    H126344   1.651   3.873  13.879 -0.5799  0.4272 -0.5916
 1643TIP3    H226345   1.500   3.863  13.864 -0.6999  0.1943  0.6642
 1644TIP3   OH226346   2.035   3.112   0.404  0.2898  0.1473  0.0163
 1644TIP3    H126347   2.006   3.063   0.327  2.7036 -1.4623  0.0259
 1644TIP3    H226348   2.083   3.187   0.369  0.0265  0.2947 -0.0301
 1645TIP3   OH226349   1.982   1.169  11.482  0.4980 -0.2056  0.2429
 1645TIP3    H126350   2.019   1.151  11.396 -0.5628 -0.4564 -0.1792
 1645TIP3    H226351   1.945   1.257  11.473  0.0632 -0.3769  0.3177
 1646TIP3   OH226352   3.197   5.420   2.269 -0.0514 -0.1420  0.0825
 1646TIP3    H126353   3.235   5.429   2.356  1.9951  0.4608 -0.8119
 1646TIP3    H226354   3.201   5.326   2.251 -0.5525 -0.2756  0.6637
 1647TIP3   OH226355   2.621   0.714  17.141  0.6036  0.4425 -0.0841
 1647TIP3    H126356   2.684   0.686  17.074  1.8326 -0.6667  1.4697
 1647TIP3    H226357   2.538   0.674  17.114  0.8736  0.7083 -1.3729
 1648TIP3   OH226358   6.324   2.369   6.552  0.4398 -0.3966  0.1814
 1648TIP3    H126359   6.236   2.332   6.562 -0.6374  1.4569 -1.5580
 1648TIP3    H226360   6.340   2.416   6.634  0.9426 -2.7370  1.5316
 1649TIP3   OH226361   1.160   3.670   3.582 -0.3192  0.2786 -0.2734
 1649TIP3    H126362   1.133   3.755   3.548  1.3504  0.4569 -1.2571
 1649TIP3    H226363   1.098   3.608   3.543  0.2812  0.7245 -2.0273
 1650TIP3   OH226364   6.268   0.187  15.662  0.0053 -0.7000 -0.2054
 1650TIP3    H126365   6.281   0.165  15.570 -0.0710 -0.1571 -0.3435
 1650TIP3    H226366   6.182   0.228  15.666 -0.3025 -1.3610  0.2201
 1651TIP3   OH226367   4.254   0.549  11.039  0.3556 -0.1638 -0.3415
 1651TIP3    H126368   4.227   0.471  10.989 -1.6080  1.0060 -1.2365
 1651TIP3    H226369   4.349   0.549  11.034  0.3154 -1.3477 -2.1719
 1652TIP3   OH226370   6.330   2.570   2.158  0.5409  0.1238  0.4580
 1652TIP3    H126371   6.263   2.614   2.106 -2.5195 -2.8610  1.5199
 1652TIP3    H226372   6.343   2.628   2.234  0.1445  1.3368 -0.3683
 1653TIP3   OH226373   1.421   0.028   5.051 -0.3432  0.4203  0.0580
 1653TIP3    H126374   1.363   0.011   5.125 -0.3190  0.5324  0.1044
 1653TIP3    H226375   1.468  -0.054   5.038 -1.0565  0.0917 -0.4661
 1654TIP3   OH226376   0.335   1.196   2.198  0.2553 -0.0616  0.4402
 1654TIP3    H126377   0.429   1.182   2.211  0.2350 -0.7517 -0.1060
 1654TIP3    H226378   0.311   1.263   2.263  0.6940 -1.3877  2.0234
 1655TIP3   OH226379   0.741   0.055   3.779 -0.1418 -0.6431 -0.2983
 1655TIP3    H126380   0.821   0.079   3.732  0.6596 -1.8252  0.4235
 1655TIP3    H226381   0.698   0.139   3.797  0.5743 -0.0383 -1.3052
 1656TIP3   OH226382   3.953   2.643  12.166  0.4934 -0.1662 -0.0739
 1656TIP3    H126383   3.979   2.551  12.166 -2.5781 -1.1579  0.6754
 1656TIP3    H226384   3.991   2.679  12.246  0.3214 -1.2589  0.5218
 1657TIP3   OH226385   0.145   3.714   4.587 -0.0933  0.2434 -0.0194
 1657TIP3    H126386   0.113   3.802   4.569 -1.5132 -0.1207  0.5742
 1657TIP3    H226387   0.162   3.676   4.501 -1.0873  0.5321 -0.3555
 1658TIP3   OH226388   4.546   5.459  13.704  0.6716 -0.1594  0.0894
 1658TIP3    H126389   4.576   5.480  13.616 -0.4933  2.4218  0.2274
 1658TIP3    H226390   4.620   5.414  13.744  2.5950  1.7854 -1.0501
 1659TIP3   OH226391   3.710   2.523   3.755 -0.1550  0.1938  0.3782
 1659TIP3    H126392   3.774   2.466   3.797  1.8659  0.6399 -1.9175
 1659TIP3    H226393   3.632   2.468   3.746  0.1331 -0.6350  2.4547
 1660TIP3   OH226394   6.403   6.285   0.835  0.2598 -0.4497  0.4629
 1660TIP3    H126395   6.339   6.356   0.842  1.0369  0.2967  0.2416
 1660TIP3    H226396   6.353   6.205   0.849 -0.6234  0.1521  0.8002
 1661TIP3   OH226397   5.458   1.701   5.049  0.1525 -0.0359  0.0249
 1661TIP3    H126398   5.435   1.729   5.138 -1.1063  0.6834 -0.4976
 1661TIP3    H226399   5.516   1.770   5.017 -1.3290  1.0257 -0.5335
 1662TIP3   OH226400   5.985   6.314   3.517  0.3394  0.0129  0.2912
 1662TIP3    H126401   5.982   6.358   3.432  3.2448 -2.2458 -1.1673
 1662TIP3    H226402   5.893   6.300   3.540 -0.5820  2.5617 -1.3846
 1663TIP3   OH226403   2.927   1.620   5.655 -0.0717  0.1655 -0.6745
 1663TIP3    H126404   2.833   1.633   5.664 -0.1467 -0.9012  0.3815
 1663TIP3    H226405   2.945   1.540   5.704  1.1861 -0.4029 -1.9838
 1664TIP3   OH226406   3.994   1.134  12.717 -0.2265 -0.7613  0.6842
 1664TIP3    H126407   4.001   1.039  12.705  0.1244 -0.5773 -0.6778
 1664TIP3    H226408   4.084   1.166  12.705 -0.2762 -0.2877  1.5174
 1665TIP3   OH226409   0.745   0.482  14.679 -0.3258  0.1401 -0.0418
 1665TIP3    H126410   0.662   0.476  14.727 -0.9434  0.4675 -1.0497
 1665TIP3    H226411   0.725   0.447  14.592  1.1907 -1.9641  0.3816
 1666TIP3   OH226412   6.096   1.166   3.658  0.2970  0.2362 -0.4278
 1666TIP3    H126413   6.031   1.155   3.588  0.1899  2.7715 -0.8340
 1666TIP3    H226414   6.069   1.247   3.701  2.2943  0.4907  0.4119
 1667TIP3   OH226415   6.670   6.594   3.259 -0.3196 -0.1919  0.1087
 1667TIP3    H126416   6.625   6.558   3.335  1.4984 -0.2089  1.2281
 1667TIP3    H226417   6.643   6.537   3.187  0.9809 -2.6877  1.4707
 1668TIP3   OH226418   2.469   3.646  14.098 -0.4452 -0.3478 -0.2626
 1668TIP3    H126419   2.536   3.705  14.133 -1.2003  0.0924  0.4888
 1668TIP3    H226420   2.502   3.558  14.119 -0.4625 -0.1158  0.8155
 1669TIP3   OH226421   2.266   5.749   2.757 -0.2101  0.0988  0.1131
 1669TIP3    H126422   2.291   5.683   2.692  1.3516  0.4882  0.2834
 1669TIP3    H226423   2.171   5.742   2.762 -0.1986 -1.2248 -0.8451
 1670TIP3   OH226424   1.079   5.775   1.055 -0.0625  0.7265  0.3700
 1670TIP3    H126425   1.144   5.810   0.994  1.7287  0.1560  1.8598
 1670TIP3    H226426   1.038   5.853   1.093 -0.5209  1.0889 -0.8250
 1671TIP3   OH226427   2.229   5.116  17.283  0.3622 -0.2495 -0.4920
 1671TIP3    H126428   2.299   5.097  17.346  0.6671 -0.2737 -0.8324
 1671TIP3    H226429   2.270   5.104  17.197 -0.0407 -0.1870 -0.6969
 1672TIP3   OH226430   3.367   3.539   4.300 -0.0657  0.2420  0.4078
 1672TIP3    H126431   3.360   3.624   4.344  1.1834 -0.2138  1.5634
 1672TIP3    H226432   3.416   3.485   4.362  1.0162 -0.6945 -1.2106
 1673TIP3   OH226433   4.605   2.737   5.367  0.0277 -0.5176  0.1951
 1673TIP3    H126434   4.692   2.767   5.341  0.0588 -0.7901 -0.0261
 1673TIP3    H226435   4.549   2.813   5.354  0.2507 -0.3095  0.4374
 1674TIP3   OH226436   0.467   0.174  12.382  0.6047 -0.1169 -0.4404
 1674TIP3    H126437   0.411   0.152  12.308  2.4363 -0.7912 -1.7024
 1674TIP3    H226438   0.520   0.248  12.352  1.0259 -0.0741  0.3664
 1675TIP3   OH226439   2.045   2.296   1.511 -0.3949 -0.1991 -0.5868
 1675TIP3    H126440   1.989   2.354   1.459 -0.2912  0.0026 -0.4763
 1675TIP3    H226441   2.124   2.348   1.526  0.2070 -0.8192 -1.5327
 1676TIP3   OH226442   2.370   1.906   2.727 -0.0726 -0.2807  0.4859
 1676TIP3    H126443   2.452   1.954   2.741  0.5856 -0.9829 -0.8322
 1676TIP3    H226444   2.371   1.882   2.635 -0.6055 -2.4215  0.9937
 1677TIP3   OH226445   4.002   3.865   5.750  0.3417 -0.2814 -0.1223
 1677TIP3    H126446   4.037   3.932   5.809  1.3708 -0.6866 -0.2502
 1677TIP3    H226447   3.914   3.896   5.729  0.9217  1.2437 -0.4870
 1678TIP3   OH226448   6.297   0.337   4.043  0.4365  0.5270 -0.3246
 1678TIP3    H126449   6.224   0.330   3.981  1.1361 -0.3002 -1.0781
 1678TIP3    H226450   6.297   0.252   4.088 -0.8611  1.5432  1.7668
 1679TIP3   OH226451   3.712   5.933  12.040 -0.0236  0.2550  0.3786
 1679TIP3    H126452   3.634   5.958  11.990  0.6432  0.8606 -0.3958
 1679TIP3    H226453   3.690   5.849  12.078 -0.6504 -0.1210 -0.7630
 1680TIP3   OH226454   3.412   1.237  11.594  0.2996 -0.5362 -0.6414
 1680TIP3    H126455   3.339   1.253  11.534  0.7524  1.0694 -0.8127
 1680TIP3    H226456   3.456   1.159  11.559 -1.4618 -1.7263 -0.3643
 1681TIP3   OH226457   0.445   0.914  10.260 -0.5940  0.5705 -0.0144
 1681TIP3    H126458   0.531   0.956  10.267 -1.1135  2.6434 -3.6832
 1681TIP3    H226459   0.457   0.845  10.195 -1.3444 -0.4900  0.9182
 1682TIP3   OH226460   4.773   4.432   5.431  0.5124 -0.3994 -0.2912
 1682TIP3    H126461   4.785   4.388   5.347 -0.7833 -1.4427  0.0460
 1682TIP3    H226462   4.743   4.363   5.490  0.7429  0.4610  0.8644
 1683TIP3   OH226463   6.549   0.976   4.532 -0.3478  0.2397  0.6756
 1683TIP3    H126464   6.483   0.948   4.596 -1.8158 -1.4544 -1.4596
 1683TIP3    H226465   6.604   0.899   4.518 -1.1574 -0.0283 -1.3603
 1684TIP3   OH226466   0.695   3.575  15.784 -0.1563  0.2984 -0.2143
 1684TIP3    H126467   0.780   3.566  15.740 -0.4877  0.8346 -0.9884
 1684TIP3    H226468   0.655   3.652  15.743 -1.0889 -0.0426  0.0302
 1685TIP3   OH226469   2.419   3.697  15.037 -0.5124 -0.4767  0.4576
 1685TIP3    H126470   2.513   3.702  15.022 -0.4929  1.0945  0.8779
 1685TIP3    H226471   2.405   3.746  15.118 -1.7824  0.0546 -0.0496
 1686TIP3   OH226472   3.086   6.002   1.036  0.0074  0.1744 -0.3046
 1686TIP3    H126473   3.083   6.048   1.120 -0.4710 -0.7126  0.1752
 1686TIP3    H226474   3.168   6.031   0.996  0.8832 -0.3858  1.0443
 1687TIP3   OH226475   4.809   6.397  14.062  0.0417  0.3932 -0.2728
 1687TIP3    H126476   4.762   6.458  14.118 -1.7188 -0.1477 -1.0919
 1687TIP3    H226477   4.901   6.422  14.071 -0.2727  0.8789  2.1179
 1688TIP3   OH226478   4.488   2.330  12.202 -0.6097 -0.1392 -0.1784
 1688TIP3    H126479   4.434   2.409  12.195 -0.8201 -0.1738  0.8334
 1688TIP3    H226480   4.490   2.294  12.114 -3.9269 -1.2602  0.0745
 1689TIP3   OH226481   0.770   2.614   3.248  0.2898 -0.1881 -0.1529
 1689TIP3    H126482   0.803   2.667   3.174  0.0552 -1.2275 -1.0305
 1689TIP3    H226483   0.805   2.657   3.326 -0.2822  1.5282 -0.8026
 1690TIP3   OH226484   0.926   1.570  15.103  0.3051 -0.1257  0.0325
 1690TIP3    H126485   0.978   1.644  15.132 -0.4702  0.5364 -0.2292
 1690TIP3    H226486   0.854   1.609  15.053 -0.8528 -0.9517  0.9887
 1691TIP3   OH226487   2.161   4.358   0.687  0.6294 -0.0572 -0.3281
 1691TIP3    H126488   2.249   4.384   0.714 -0.0385 -0.0474  2.1413
 1691TIP3    H226489   2.169   4.265   0.664  1.3393  0.0174 -0.3994
 1692TIP3   OH226490   5.069   1.200  17.016 -0.2381 -0.3647 -0.3312
 1692TIP3    H126491   5.103   1.284  16.985  1.3197 -0.9867 -0.4295
 1692TIP3    H226492   5.099   1.194  17.107 -2.1339  0.0793  0.3643
 1693TIP3   OH226493   5.734   0.567  13.637 -0.4843 -0.4700 -0.1092
 1693TIP3    H126494   5.787   0.630  13.589 -1.5575 -0.0847 -0.8358
 1693TIP3    H226495   5.695   0.618  13.709 -1.4811 -0.2399 -0.7921
 1694TIP3   OH226496   3.152   1.795  11.627 -0.5527  0.0479 -0.4543
 1694TIP3    H126497   3.232   1.843  11.607  0.1418 -0.9084  0.0003
 1694TIP3    H226498   3.181   1.712  11.663 -1.7525 -0.2330 -0.0732
 1695TIP3   OH226499   5.041   1.396   0.289  0.8005 -0.3640  0.0292
 1695TIP3    H126500   5.028   1.487   0.262 -1.3286 -0.5281  0.3469
 1695TIP3    H226501   5.108   1.363   0.229  0.7491  1.0766 -0.8746
 1696TIP3   OH226502   4.801   0.426   5.586  0.2421  0.1229 -0.1332
 1696TIP3    H126503   4.851   0.352   5.551  0.9474 -0.0997  1.2902
 1696TIP3    H226504   4.850   0.455   5.663 -0.7492  1.2053  0.1246
 1697TIP3   OH226505   3.554   3.657  17.114  0.3170 -0.4574 -0.4363
 1697TIP3    H126506   3.514   3.672  17.028 -1.3847 -1.8133  0.0559
 1697TIP3    H226507   3.479   3.646  17.173  1.4397 -1.2033  0.9064
 1698TIP3   OH226508   4.619   5.939  16.364 -0.3274 -0.0292  0.7038
 1698TIP3    H126509   4.638   6.031  16.344 -0.4636 -0.3186 -0.9074
 1698TIP3    H226510   4.670   5.890  16.299 -2.5364 -0.9886 -0.4289
 1699TIP3   OH226511   5.154   5.588  11.601 -0.0868 -0.7307 -0.1169
 1699TIP3    H126512   5.227   5.536  11.636  0.8888 -0.9317 -2.2670
 1699TIP3    H226513   5.136   5.653  11.668  1.7591 -1.0047  0.6987
 1700TIP3   OH226514   5.815   3.255  12.013 -0.3136  0.2763  0.5460
 1700TIP3    H126515   5.782   3.186  12.071 -2.2632  0.0497 -0.7419
 1700TIP3    H226516   5.776   3.236  11.928 -0.1289  2.4370 -0.0837
 1701TIP3   OH226517   6.732   1.151  16.977  0.0308  0.0940 -0.2793
 1701TIP3    H126518   6.821   1.162  17.012 -0.8266  1.6483  1.6201
 1701TIP3    H226519   6.703   1.067  17.010  0.6790 -0.2932 -0.6712
 1702TIP3   OH226520   2.550   3.791   3.119  0.5268  0.4159  0.7270
 1702TIP3    H126521   2.631   3.775   3.071 -0.5645  0.5966 -1.2999
 1702TIP3    H226522   2.524   3.705   3.152  1.1101  0.2139  0.6643
 1703TIP3   OH226523   2.707   6.502  10.807  0.6704  0.7450 -0.1698
 1703TIP3    H126524   2.779   6.566  10.807  1.8776 -0.5678  0.1462
 1703TIP3    H226525   2.734   6.435  10.869 -0.1180 -0.5672 -1.1926
 1704TIP3   OH226526   1.293   3.574   1.446  0.1565 -0.0695  0.1459
 1704TIP3    H126527   1.355   3.643   1.470 -1.7858  1.4253  1.1941
 1704TIP3    H226528   1.292   3.574   1.350 -1.0867  2.6704  0.0808
 1705TIP3   OH226529   5.388   3.006  14.696 -0.2419  0.1074  0.7006
 1705TIP3    H126530   5.390   2.913  14.674  0.4182  0.0686  0.9240
 1705TIP3    H226531   5.326   3.044  14.632  0.0211 -0.3610  0.1559
 1706TIP3   OH226532   6.285   4.900   2.878  0.3770 -0.3103  0.2391
 1706TIP3    H126533   6.239   4.817   2.892 -1.3840  0.4596 -0.6150
 1706TIP3    H226534   6.315   4.895   2.787  0.7190 -0.2304  0.3493
 1707TIP3   OH226535   1.759   2.338  12.400  0.5438 -0.2765  0.0309
 1707TIP3    H126536   1.819   2.390  12.453 -0.2183  2.9090 -1.9540
 1707TIP3    H226537   1.797   2.340  12.312 -1.0147 -0.6405 -0.6769
 1708TIP3   OH226538   5.493   6.352  14.763  0.2992  0.0750  0.3334
 1708TIP3    H126539   5.400   6.332  14.776 -0.0347  2.0266  1.3152
 1708TIP3    H226540   5.503   6.358  14.668 -0.0782 -2.1600  0.0985
 1709TIP3   OH226541   2.687   1.884  14.546  0.3711  0.3680  0.3656
 1709TIP3    H126542   2.675   1.922  14.634 -1.4902 -0.3022  0.4502
 1709TIP3    H226543   2.749   1.812  14.559  0.3549  0.4735  1.0736
 1710TIP3   OH226544   0.188   0.308   1.868 -0.2295  0.4837 -0.1374
 1710TIP3    H126545   0.271   0.263   1.885 -0.5561 -0.2527 -0.4191
 1710TIP3    H226546   0.200   0.396   1.904  0.4919  0.2253  0.2790
 1711TIP3   OH226547   5.841   6.000  16.627 -0.6695 -0.6335  0.0012
 1711TIP3    H126548   5.922   5.964  16.665 -1.2340 -0.8424  1.0417
 1711TIP3    H226549   5.868   6.033  16.541  0.2572 -1.8874 -0.2299
 1712TIP3   OH226550   4.084   6.097   1.977  0.3878 -0.0940  0.0496
 1712TIP3    H126551   4.118   6.008   1.974  1.2665  0.1720  1.3245
 1712TIP3    H226552   4.016   6.095   2.045 -1.1112 -0.2446 -1.3721
 1713TIP3   OH226553   4.437   3.732   5.274 -0.6170  0.4714 -0.2673
 1713TIP3    H126554   4.475   3.720   5.186 -0.0637  0.6431 -0.0574
 1713TIP3    H226555   4.362   3.790   5.260 -2.9180 -2.4743 -1.2124
 1714TIP3   OH226556   3.097   3.180  11.799 -0.5854 -0.4158  0.3447
 1714TIP3    H126557   3.120   3.150  11.887  3.3315  0.0552 -0.3373
 1714TIP3    H226558   3.064   3.102  11.755  1.4342 -1.7526  1.0468
 1715TIP3   OH226559   1.538   0.198   5.822 -0.9433 -0.1662  0.0834
 1715TIP3    H126560   1.601   0.251   5.872 -0.3057 -0.1001 -0.7658
 1715TIP3    H226561   1.525   0.119   5.875 -0.5788  0.0717  0.5335
 1716TIP3   OH226562   2.889   3.054   1.679 -0.4157 -0.3647  0.1596
 1716TIP3    H126563   2.871   3.051   1.585  0.0178 -1.8826  0.1054
 1716TIP3    H226564   2.847   3.135   1.708 -0.6172  0.0974 -1.3214
 1717TIP3   OH226565   4.173   1.946   0.838 -0.3996 -0.5340  0.0060
 1717TIP3    H126566   4.240   1.900   0.888 -0.2014  0.2523  0.4787
 1717TIP3    H226567   4.186   2.038   0.860 -1.7154 -0.3769  0.2037
 1718TIP3   OH226568   2.758   0.143   0.255 -0.3229  0.1270 -0.7017
 1718TIP3    H126569   2.779   0.051   0.241  1.1433  0.2947  0.1316
 1718TIP3    H226570   2.677   0.143   0.306 -0.5510 -0.6805 -1.0590
 1719TIP3   OH226571   3.404   5.024  14.141  0.3289 -0.3845 -0.2189
 1719TIP3    H126572   3.367   5.110  14.164  1.8102  0.0831  0.5446
 1719TIP3    H226573   3.381   5.012  14.049 -0.1618  0.6971 -0.2533
 1720TIP3   OH226574   5.404   0.840   1.310  0.1390  0.6846 -0.3031
 1720TIP3    H126575   5.447   0.781   1.372  1.2750  0.1522 -1.5741
 1720TIP3    H226576   5.442   0.818   1.225 -1.1947  1.5899 -1.1652
 1721TIP3   OH226577   6.585   2.582  14.303 -1.1497 -0.4204 -0.5777
 1721TIP3    H126578   6.506   2.532  14.324 -1.0176 -0.6324 -0.5873
 1721TIP3    H226579   6.589   2.649  14.371 -2.8376  1.3473 -2.0838
 1722TIP3   OH226580   4.679   5.105  15.888 -0.0535 -0.1506  0.0793
 1722TIP3    H126581   4.615   5.056  15.941 -2.0950  0.7416 -1.4298
 1722TIP3    H226582   4.658   5.197  15.905  1.2148  0.1828 -0.0522
 1723TIP3   OH226583   5.920   1.934  13.828  0.2389 -0.8288 -0.2409
 1723TIP3    H126584   5.920   2.024  13.860  1.3568 -1.2405  0.9833
 1723TIP3    H226585   6.013   1.910  13.822  0.0915 -1.1201 -2.9196
 1724TIP3   OH226586   4.042   2.963   1.517  0.1491  0.4985 -0.2484
 1724TIP3    H126587   4.012   3.024   1.586  0.1113  0.7412 -0.4789
 1724TIP3    H226588   3.986   2.983   1.442  0.6776  0.7230 -0.5788
 1725TIP3   OH226589   0.966   1.642   0.994  0.4563  0.4096 -0.0466
 1725TIP3    H126590   1.058   1.650   1.018  0.4530 -1.7668  0.9727
 1725TIP3    H226591   0.962   1.564   0.939 -0.6693  0.9989 -0.8378
 1726TIP3   OH226592   3.886   1.026  11.642 -0.8110 -0.0975  0.4038
 1726TIP3    H126593   3.941   0.982  11.577 -0.9510 -1.6995  1.3247
 1726TIP3    H226594   3.814   1.064  11.591  0.0455  0.2727 -0.5727
 1727TIP3   OH226595   1.861   5.835  12.530 -0.1341  0.8858  0.1422
 1727TIP3    H126596   1.897   5.819  12.618  1.0497 -4.3216 -0.9768
 1727TIP3    H226597   1.768   5.812  12.538 -0.1207  0.8211  0.1098
 1728TIP3   OH226598   6.323   0.503  11.712  0.0506  0.4201  0.5868
 1728TIP3    H126599   6.337   0.522  11.620  0.7998 -0.1617  0.5742
 1728TIP3    H226600   6.411   0.498  11.750 -0.1393 -1.4054  0.8974
 1729TIP3   OH226601   2.248   5.247  11.158 -0.5534 -0.0552  0.3484
 1729TIP3    H126602   2.250   5.335  11.120 -0.9865 -0.5146 -0.7686
 1729TIP3    H226603   2.176   5.202  11.113 -2.7399  0.0799  3.3718
 1730TIP3   OH226604   0.189   3.792  10.463  0.7279 -0.1001 -0.2213
 1730TIP3    H126605   0.217   3.865  10.518  1.0446 -0.8548  0.6538
 1730TIP3    H226606   0.102   3.817  10.432  0.9513  0.7663 -0.1723
 1731TIP3   OH226607   1.990   5.931   1.103  0.2300  0.0836 -0.2188
 1731TIP3    H126608   1.907   5.886   1.086 -0.0496  0.2313  0.7133
 1731TIP3    H226609   1.966   6.007   1.155  0.9251  0.2391 -0.1145
 1732TIP3   OH226610   5.369   2.467  14.719  0.5865 -0.2003  0.2854
 1732TIP3    H126611   5.440   2.427  14.669  0.5222 -1.4362  1.1479
 1732TIP3    H226612   5.290   2.423  14.687  0.4832 -0.5719  1.0443
 1733TIP3   OH226613   5.169   2.464  15.917  0.2288 -0.1713  0.0141
 1733TIP3    H126614   5.086   2.455  15.964 -0.0526  1.4708 -0.0966
 1733TIP3    H226615   5.236   2.440  15.981 -0.2666 -0.0317  0.5951
 1734TIP3   OH226616   2.060   2.498  14.383  0.0593 -0.3724  0.0874
 1734TIP3    H126617   2.044   2.532  14.471 -1.1584 -0.9809  0.1299
 1734TIP3    H226618   2.065   2.576  14.327 -1.0650 -0.0549  0.4155
 1735TIP3   OH226619   1.560   0.358  12.750  0.1246  0.5466 -0.1610
 1735TIP3    H126620   1.555   0.336  12.843  0.5880 -0.8358 -0.4323
 1735TIP3    H226621   1.474   0.395  12.730  0.3524  1.7948  1.0177
 1736TIP3   OH226622   5.773   1.013   1.697 -0.1547  0.0352 -0.1872
 1736TIP3    H126623   5.764   1.013   1.793 -0.7188 -0.3600 -0.2326
 1736TIP3    H226624   5.866   1.029   1.682 -0.0110 -0.1677  0.4361
 1737TIP3   OH226625   3.790   6.110   4.061 -0.5394  0.7782  0.2679
 1737TIP3    H126626   3.870   6.101   4.114  0.2323  0.0370 -0.9701
 1737TIP3    H226627   3.766   6.203   4.069  0.2219  0.9234  0.9710
 1738TIP3   OH226628   4.199   3.338  15.967  0.5935 -0.2808  0.2614
 1738TIP3    H126629   4.145   3.284  16.024 -0.5491  1.1912  0.6087
 1738TIP3    H226630   4.203   3.289  15.884 -0.0653 -1.0756  0.6917
 1739TIP3   OH226631   0.180   1.783   5.187 -0.0099 -0.5761  0.4572
 1739TIP3    H126632   0.232   1.831   5.251  0.2089  0.1483 -0.2420
 1739TIP3    H226633   0.238   1.772   5.112 -1.1918  1.3173 -0.8265
 1740TIP3   OH226634   0.622   4.572   0.726 -0.4514 -0.2869  0.0317
 1740TIP3    H126635   0.565   4.550   0.799 -0.4397  1.9804  0.8037
 1740TIP3    H226636   0.603   4.663   0.706 -0.0351 -0.6516 -2.4594
 1741TIP3   OH226637   2.550   3.003  16.884 -0.7919  0.2345 -0.0679
 1741TIP3    H126638   2.572   2.954  16.805  2.2794  1.3941 -0.0616
 1741TIP3    H226639   2.553   3.094  16.857 -1.1141  0.5957  1.0784
 1742TIP3   OH226640   6.472   5.889   0.312 -0.2231  0.3307 -0.9567
 1742TIP3    H126641   6.383   5.864   0.340  1.4862 -2.5477  2.8156
 1742TIP3    H226642   6.494   5.964   0.368  0.6514 -0.7790  0.2314
 1743TIP3   OH226643   1.990   3.011  17.049 -0.5415 -0.0445  0.4300
 1743TIP3    H126644   2.064   3.059  17.088 -0.8169  2.8617 -2.2820
 1743TIP3    H226645   1.915   3.069  17.061 -1.6856 -1.4053  0.0971
 1744TIP3   OH226646   2.279   2.608  11.834 -0.4374  0.6458 -0.1322
 1744TIP3    H126647   2.224   2.680  11.800  1.0358  0.2243 -3.8902
 1744TIP3    H226648   2.344   2.652  11.889  0.0341  2.1968 -1.8208
 1745TIP3   OH226649   1.971   0.346  16.350  0.0224  0.1089 -0.0508
 1745TIP3    H126650   1.920   0.419  16.386 -1.3434 -0.8382 -0.0039
 1745TIP3    H226651   2.011   0.382  16.270  0.9476  1.4503  0.9660
 1746TIP3   OH226652   0.775   2.657  14.818 -0.1485  0.0037  0.0509
 1746TIP3    H126653   0.789   2.751  14.813  0.6544 -0.1300 -0.5729
 1746TIP3    H226654   0.682   2.645  14.797 -0.3198  0.6672  0.3992
 1747TIP3   OH226655   6.707   5.059  15.282 -0.1256 -0.4222 -0.2735
 1747TIP3    H126656   6.621   5.067  15.241 -0.1923  0.2138 -0.0162
 1747TIP3    H226657   6.740   5.149  15.287  0.2073 -0.5733  0.3689
 1748TIP3   OH226658   2.112   3.855  14.226  0.0198  0.1538  0.3757
 1748TIP3    H126659   2.143   3.912  14.296 -1.3489 -0.1171  1.2461
 1748TIP3    H226660   2.063   3.912  14.168  0.1892  0.1859  0.2655
 1749TIP3   OH226661   0.068   6.570   5.130  0.2491 -0.5491 -0.3348
 1749TIP3    H126662   0.088   6.663   5.129 -4.0939  0.5937 -0.1422
 1749TIP3    H226663   0.066   6.546   5.223 -1.7928  0.1031 -0.1615
 1750TIP3   OH226664   4.709   5.534   2.551 -0.0069 -0.3297 -0.2793
 1750TIP3    H126665   4.733   5.608   2.494 -1.6474  0.5448  0.1113
 1750TIP3    H226666   4.615   5.525   2.540 -0.1033 -1.2124  1.0690
 1751TIP3   OH226667   1.103   3.750  16.985  0.4176  0.4805 -0.3449
 1751TIP3    H126668   1.046   3.699  17.044 -0.8065  2.0684 -0.0789
 1751TIP3    H226669   1.065   3.735  16.898 -0.2829  1.3219 -0.2001
 1752TIP3   OH226670   0.906   0.100  12.742  0.0528  0.0715  0.2978
 1752TIP3    H126671   0.997   0.103  12.773  0.6732  1.8805 -1.5137
 1752TIP3    H226672   0.874   0.015  12.771  2.5472 -0.9127  0.3911
 1753TIP3   OH226673   3.864   3.818  13.995  0.4764 -0.7685  0.4546
 1753TIP3    H126674   3.831   3.904  13.969  3.8967 -0.0591 -2.3798
 1753TIP3    H226675   3.786   3.766  14.011 -1.7669  2.4007  0.7430
 1754TIP3   OH226676   5.490   5.894  12.894  0.3456  0.2837  0.3030
 1754TIP3    H126677   5.490   5.834  12.819 -0.7218  0.0308  0.4757
 1754TIP3    H226678   5.468   5.979  12.857 -1.7258 -0.1097  0.4570
 1755TIP3   OH226679   0.375   1.990   3.741  0.1980  0.3091 -0.5038
 1755TIP3    H126680   0.287   1.977   3.705 -0.8003 -1.1403  2.1455
 1755TIP3    H226681   0.366   1.966   3.833  3.0835  1.4929  0.1847
 1756TIP3   OH226682   0.705   4.923   4.691 -0.6577  0.0122  0.4427
 1756TIP3    H126683   0.626   4.925   4.746 -1.4635  0.4182 -0.6794
 1756TIP3    H226684   0.711   5.011   4.655  0.1700 -0.0942  0.3082
 1757TIP3   OH226685   3.572   6.068   5.845  0.5464  0.2646 -0.0836
 1757TIP3    H126686   3.649   6.010   5.842  0.0971 -0.3305 -2.2146
 1757TIP3    H226687   3.499   6.009   5.862  0.3766  0.5827  0.2828
 1758TIP3   OH226688   3.265   5.860   4.689 -0.1020  0.1532  0.2467
 1758TIP3    H126689   3.209   5.793   4.649 -1.0399  0.0512  1.6580
 1758TIP3    H226690   3.206   5.909   4.746  1.0028  0.8651  0.7989
 1759TIP3   OH226691   1.975   6.307   1.685 -0.4547 -0.2689  0.4246
 1759TIP3    H126692   1.880   6.319   1.683 -0.8406 -2.6686  1.2302
 1759TIP3    H226693   1.992   6.260   1.766  1.7716  2.1213  1.4986
 1760TIP3   OH226694   3.278   2.742  16.357  0.1894  0.0749  0.0220
 1760TIP3    H126695   3.243   2.827  16.331 -1.8365 -0.4775  0.8065
 1760TIP3    H226696   3.359   2.762  16.404 -0.2710  1.5569  0.2013
 1761TIP3   OH226697   5.274   0.285   3.188  0.1280  0.8096 -0.3468
 1761TIP3    H126698   5.331   0.314   3.117 -0.9419  0.5263 -1.3512
 1761TIP3    H226699   5.274   0.358   3.250  1.9331  0.6323 -0.0748
 1762TIP3   OH226700   1.765   6.598   5.419 -0.1396  0.2584 -0.2955
 1762TIP3    H126701   1.716   6.620   5.498  0.3655 -1.1002  0.4221
 1762TIP3    H226702   1.756   6.676   5.363  1.6268  2.3279  2.0866
 1763TIP3   OH226703   6.202   0.597   4.232 -0.6922 -0.4222  0.3250
 1763TIP3    H126704   6.248   0.513   4.238  1.2382  0.4608 -1.2769
 1763TIP3    H226705   6.154   0.592   4.149 -1.3278 -0.2546  0.6695
 1764TIP3   OH226706   3.424   5.267  15.875  0.0002 -0.1570 -0.1688
 1764TIP3    H126707   3.474   5.347  15.860  0.4097 -0.2008  0.9001
 1764TIP3    H226708   3.332   5.293  15.864  0.0728  0.6857  1.1000
 1765TIP3   OH226709   6.266   3.953  11.990  0.1044  0.6564  0.0190
 1765TIP3    H126710   6.200   3.893  11.955 -0.6464  0.0029  2.3371
 1765TIP3    H226711   6.216   4.016  12.042  1.1934  1.0629  0.6111
 1766TIP3   OH226712   3.775   2.431  11.323 -0.2266 -0.0149  0.2657
 1766TIP3    H126713   3.739   2.477  11.399 -2.4420 -2.4310  0.8319
 1766TIP3    H226714   3.837   2.368  11.360 -0.6570 -0.6030  0.0072
 1767TIP3   OH226715   3.616   6.519   2.902  0.2718 -0.1338 -0.3113
 1767TIP3    H126716   3.576   6.519   2.815  0.2077 -0.6009 -0.2810
 1767TIP3    H226717   3.693   6.576   2.893  0.2851 -0.2115 -0.6791
 1768TIP3   OH226718   6.088   0.751  16.695 -0.1183 -0.1706 -0.5359
 1768TIP3    H126719   6.005   0.705  16.703 -0.5964  0.8750  0.8431
 1768TIP3    H226720   6.066   0.832  16.648 -0.5557  1.5255  2.3205
 1769TIP3   OH226721   0.189   4.100   3.445  0.2512  0.1832  0.2766
 1769TIP3    H126722   0.164   4.074   3.356 -2.4277  0.3528  0.8863
 1769TIP3    H226723   0.134   4.176   3.464  2.5618  1.6949  1.2368
 1770TIP3   OH226724   4.942   4.794  16.638 -0.7613  0.0862  0.1395
 1770TIP3    H126725   4.970   4.838  16.718 -2.1467 -1.3712  1.5210
 1770TIP3    H226726   5.011   4.730  16.621 -0.7849 -0.0657  0.5907
 1771TIP3   OH226727   0.975   2.378  15.374 -0.0992 -0.4242  0.1452
 1771TIP3    H126728   0.988   2.323  15.452  1.5108 -0.0987  0.1383
 1771TIP3    H226729   0.898   2.430  15.394 -1.1819 -2.0767  0.4998
 1772TIP3   OH226730   4.120   6.119  14.300 -0.0608  0.2052 -0.2493
 1772TIP3    H126731   4.041   6.145  14.253 -0.1047  1.3871  0.4261
 1772TIP3    H226732   4.190   6.125  14.235  0.0043  2.5593 -0.0775
 1773TIP3   OH226733   5.459   0.035   5.708  0.2942 -0.0396 -0.3053
 1773TIP3    H126734   5.370   0.069   5.709 -0.3886 -1.6692 -1.3371
 1773TIP3    H226735   5.449  -0.059   5.724  2.1351  0.1718  3.1539
 1774TIP3   OH226736   6.293   0.813  15.923 -0.0688  0.4218 -0.0508
 1774TIP3    H126737   6.359   0.801  15.855  1.3687  0.8456  1.2139
 1774TIP3    H226738   6.210   0.816  15.875  0.7476 -0.6990 -1.6386
 1775TIP3   OH226739   3.534   3.909   4.653 -0.6259  0.5606 -0.0814
 1775TIP3    H126740   3.575   3.849   4.591 -0.0960  0.3491  0.4612
 1775TIP3    H226741   3.522   3.990   4.604 -0.5851  0.2717 -0.5749
 1776TIP3   OH226742   1.325   3.178   1.928  0.8611 -0.2430  0.5490
 1776TIP3    H126743   1.355   3.213   1.844 -0.4203 -2.0620 -0.7508
 1776TIP3    H226744   1.241   3.137   1.909  0.7494 -1.1323  2.6350
 1777TIP3   OH226745   2.698   0.515   0.424 -0.0669 -0.4492 -0.3410
 1777TIP3    H126746   2.622   0.475   0.382  0.2266 -0.6797 -0.6590
 1777TIP3    H226747   2.661   0.583   0.480 -0.5618 -1.0454  0.0737
 1778TIP3   OH226748   6.405   3.132  17.197  0.4651  0.1935 -0.3474
 1778TIP3    H126749   6.485   3.124  17.145  0.9046  0.8424  0.2114
 1778TIP3    H226750   6.436   3.132  17.288 -0.2234 -0.1580 -0.1074
 1779TIP3   OH226751   3.577   6.631  15.028  0.0280 -0.5177  0.2654
 1779TIP3    H126752   3.598   6.618  14.935  0.3840 -1.1261  0.4232
 1779TIP3    H226753   3.663   6.640  15.070 -0.1235  2.9696  0.1447
 1780TIP3   OH226754   3.469   2.451   4.212  0.5495 -0.0233  0.2274
 1780TIP3    H126755   3.403   2.518   4.195  2.3644  1.5341 -1.1352
 1780TIP3    H226756   3.530   2.492   4.272 -0.4133 -1.9790  2.7172
 1781TIP3   OH226757   2.648   5.181  13.843  0.4033  0.7884  0.3611
 1781TIP3    H126758   2.665   5.105  13.788  0.0015  0.9567 -0.0026
 1781TIP3    H226759   2.734   5.209  13.874  0.8501  1.7858 -1.6338
 1782TIP3   OH226760   1.049   1.835  12.144  0.1666  0.6671  0.1898
 1782TIP3    H126761   1.138   1.817  12.116 -0.4938 -0.5834 -1.2417
 1782TIP3    H226762   0.998   1.760  12.112 -1.1921  0.6813  2.1131
 1783TIP3   OH226763   6.020   0.096  12.821  0.8135  0.3351  0.1555
 1783TIP3    H126764   5.998   0.061  12.735 -3.1575  1.2669  0.6073
 1783TIP3    H226765   6.038   0.189  12.805 -0.6326  0.6724  0.3347
 1784TIP3   OH226766   1.595   2.026  11.594  0.4828  0.0036 -0.0077
 1784TIP3    H126767   1.608   2.070  11.678 -0.9526  0.1444  0.1749
 1784TIP3    H226768   1.646   2.078  11.532  0.7886  0.4739  0.6214
 1785TIP3   OH226769   1.596   5.233  16.442  0.1591  0.8495  0.1240
 1785TIP3    H126770   1.536   5.307  16.449 -0.6282  0.2443  0.0049
 1785TIP3    H226771   1.546   5.159  16.479  0.7811  0.3059 -0.1097
 1786TIP3   OH226772   3.400   5.262  14.801  0.1242 -0.1323  0.0802
 1786TIP3    H126773   3.479   5.298  14.842  1.8606  1.8163 -4.3451
 1786TIP3    H226774   3.403   5.168  14.823  2.3732  0.2646  1.9318
 1787TIP3   OH226775   1.495   3.072  16.718 -0.1152  0.2483  0.8561
 1787TIP3    H126776   1.532   3.147  16.672 -0.6801 -0.9862 -1.8415
 1787TIP3    H226777   1.405   3.067  16.687 -0.4824 -0.7965  2.0047
 1788TIP3   OH226778   3.294   4.778  14.654  0.4146 -0.3023  0.1421
 1788TIP3    H126779   3.264   4.700  14.608  1.8071  0.6818 -2.6707
 1788TIP3    H226780   3.279   4.849  14.592 -0.3121  1.6459  2.4029
 1789TIP3   OH226781   4.252   2.208  14.486  0.2139  0.3155  0.2542
 1789TIP3    H126782   4.319   2.176  14.425  0.8007  0.3930  0.8487
 1789TIP3    H226783   4.298   2.271  14.541 -0.3409  0.3317  0.7023
 1790TIP3   OH226784   5.063   3.086  13.469 -0.2411  0.1068  0.4663
 1790TIP3    H126785   5.148   3.127  13.453  0.2082 -0.9078  0.1647
 1790TIP3    H226786   5.018   3.091  13.385  0.3457 -1.1859  0.0475
 1791TIP3   OH226787   2.722   6.613  13.691  0.5462 -0.1727 -0.0700
 1791TIP3    H126788   2.739   6.525  13.724 -0.0059  0.2323  1.3495
 1791TIP3    H226789   2.658   6.600  13.621 -0.6545 -0.7884  1.0981
 1792TIP3   OH226790   3.180   2.907   0.516 -0.1477  0.6791 -0.3633
 1792TIP3    H126791   3.188   2.999   0.490  1.2076  0.0433 -2.4368
 1792TIP3    H226792   3.261   2.866   0.485 -0.5595 -1.1627  0.8348
 1793TIP3   OH226793   1.646   4.679  17.202  0.1656 -0.5086 -0.6061
 1793TIP3    H126794   1.586   4.614  17.239 -0.9254  0.3387 -0.8161
 1793TIP3    H226795   1.589   4.740  17.156  1.3109 -0.2935 -1.7839
 1794TIP3   OH226796   6.357   1.642   4.818 -0.0569  0.0459 -0.0870
 1794TIP3    H126797   6.287   1.580   4.796  1.6727 -0.9838 -3.2585
 1794TIP3    H226798   6.342   1.717   4.761 -0.2829  1.2027  1.4348
 1795TIP3   OH226799   4.659   6.074  14.866  0.1555  0.5601 -0.0897
 1795TIP3    H126800   4.564   6.074  14.870  0.1035  0.0485 -1.0196
 1795TIP3    H226801   4.681   6.148  14.809  0.3654  1.2228  0.8293
 1796TIP3   OH226802   0.724   6.587   0.518 -0.0951  0.2008 -0.1468
 1796TIP3    H126803   0.692   6.674   0.495  0.1549  0.2337 -0.3765
 1796TIP3    H226804   0.646   6.539   0.545 -0.3511  0.2675 -0.7407
 1797TIP3   OH226805   1.770   2.915  17.321  0.0958  0.0364  0.3555
 1797TIP3    H126806   1.692   2.968  17.337 -0.9138 -1.7018  1.5271
 1797TIP3    H226807   1.830   2.940  17.391  0.2689  0.7576 -0.0399
 1798TIP3   OH226808   4.586   4.903  14.366  0.3540 -0.1375  0.2814
 1798TIP3    H126809   4.669   4.882  14.322  0.8275  0.2165  0.9879
 1798TIP3    H226810   4.526   4.833  14.338  0.4354  0.4391 -1.4399
 1799TIP3   OH226811   1.658   0.793  17.178  0.4789  0.4557  0.1490
 1799TIP3    H126812   1.714   0.753  17.111 -2.1047 -1.7936 -0.8525
 1799TIP3    H226813   1.643   0.722  17.241 -0.9799  1.0693  0.5230
 1800TIP3   OH226814   4.528   2.392   6.057 -0.1943 -0.2610  0.2081
 1800TIP3    H126815   4.511   2.473   6.007 -1.5560  0.1309  1.2531
 1800TIP3    H226816   4.480   2.325   6.009  1.6153 -0.6736 -1.1431
 1801TIP3   OH226817   4.633   6.035  14.269  0.2310 -0.2873  0.8161
 1801TIP3    H126818   4.673   5.975  14.205 -1.8551  0.2459 -1.1119
 1801TIP3    H226819   4.704   6.095  14.292  0.8754  0.0468 -1.7314
 1802TIP3   OH226820   3.889   4.524   5.785 -0.0316  0.0102  0.6677
 1802TIP3    H126821   3.916   4.451   5.729  0.8007 -0.8164  2.0588
 1802TIP3    H226822   3.879   4.484   5.872 -3.0771  0.8685  0.8010
 1803TIP3   OH226823   3.321   1.694  14.170  0.5012  0.0104 -0.7121
 1803TIP3    H126824   3.288   1.620  14.119 -0.6555  0.1936 -0.2585
 1803TIP3    H226825   3.274   1.770  14.137  0.7480  0.3453 -0.3115
 1804TIP3   OH226826   1.676   6.492  16.491  0.2144 -0.0614  0.6350
 1804TIP3    H126827   1.714   6.404  16.495 -1.3793 -0.8001  0.4998
 1804TIP3    H226828   1.584   6.477  16.469  0.0580  1.6924 -0.0612
 1805TIP3   OH226829   2.782   1.278  16.507 -0.1287 -0.8832 -0.4567
 1805TIP3    H126830   2.716   1.233  16.454 -0.2049 -1.2817 -0.0271
 1805TIP3    H226831   2.862   1.227  16.495  0.1853 -0.2226 -1.2213
 1806TIP3   OH226832   5.154   1.158   5.098  0.4125  0.1600 -0.3123
 1806TIP3    H126833   5.129   1.106   5.174  0.1815 -0.8921 -1.0844
 1806TIP3    H226834   5.250   1.165   5.103  0.5797 -1.3741 -0.8155
 1807TIP3   OH226835   0.276   1.289  11.016 -0.3737 -0.1683 -0.9878
 1807TIP3    H126836   0.323   1.233  10.954  0.9249 -1.1253  0.7614
 1807TIP3    H226837   0.240   1.228  11.080 -2.4378  0.7330 -1.2324
 1808TIP3   OH226838   0.773   6.609  14.075  0.1393 -0.3333  0.8332
 1808TIP3    H126839   0.837   6.654  14.019 -1.4671  1.0858  0.0315
 1808TIP3    H226840   0.812   6.610  14.162  1.9841 -1.1296  0.0629
 1809TIP3   OH226841   5.706   4.156   3.856 -0.3193 -0.0299  0.0162
 1809TIP3    H126842   5.641   4.187   3.920  0.3863  2.1574 -0.2150
 1809TIP3    H226843   5.790   4.186   3.892  0.2741 -0.3542 -1.0563
 1810TIP3   OH226844   6.170   2.330  16.541  0.1634  0.2735  0.2288
 1810TIP3    H126845   6.253   2.312  16.585  0.3150 -1.9613 -0.8470
 1810TIP3    H226846   6.105   2.286  16.595  0.1075 -0.7889 -0.6779
 1811TIP3   OH226847   2.772   6.355  11.066 -0.5613 -0.3520  0.4305
 1811TIP3    H126848   2.771   6.410  11.145 -0.1925  1.3344 -0.6729
 1811TIP3    H226849   2.835   6.286  11.086 -1.6818 -0.9234  2.1943
 1812TIP3   OH226850   2.130   5.105  12.782 -0.4594  0.2047  0.2421
 1812TIP3    H126851   2.121   5.122  12.688  0.6442  4.1417  0.6773
 1812TIP3    H226852   2.221   5.079  12.793  0.7790  4.0112  0.4940
 1813TIP3   OH226853   0.265   2.683  12.864  0.2590  0.1266 -0.7896
 1813TIP3    H126854   0.170   2.681  12.871  0.3780 -1.1427  1.5989
 1813TIP3    H226855   0.288   2.601  12.820  0.2969 -0.2979  0.0072
 1814TIP3   OH226856   2.906   0.557  13.316 -0.0342 -0.2029 -0.6766
 1814TIP3    H126857   2.986   0.572  13.265 -0.8384  2.1973 -1.3625
 1814TIP3    H226858   2.918   0.609  13.396 -0.8104  0.0068 -0.6910
 1815TIP3   OH226859   1.089   0.795   3.377 -0.4127 -0.1427 -0.1869
 1815TIP3    H126860   1.010   0.845   3.399 -0.5279  0.4212 -1.7713
 1815TIP3    H226861   1.138   0.852   3.318  0.4410 -1.0942 -0.4151
 1816TIP3   OH226862   5.278   2.058  10.789  0.0132 -0.0920  0.3107
 1816TIP3    H126863   5.210   2.005  10.832 -0.0441 -0.0701  0.2465
 1816TIP3    H226864   5.252   2.149  10.807 -0.4840 -0.0627 -0.4926
 1817TIP3   OH226865   3.125   2.072  14.403  0.4399  0.2182  0.1573
 1817TIP3    H126866   3.048   2.123  14.381 -0.3548 -0.0500  2.1077
 1817TIP3    H226867   3.191   2.137  14.428  0.3187  0.3878  0.0334
 1818TIP3   OH226868   6.558   5.016  11.840 -0.2231 -0.0721 -0.4390
 1818TIP3    H126869   6.516   5.041  11.923  0.9715  0.0141  0.1625
 1818TIP3    H226870   6.627   4.955  11.866 -0.3198 -0.6481 -1.4654
 1819TIP3   OH226871   3.206   6.435  12.841  0.4093  0.1427 -0.5206
 1819TIP3    H126872   3.139   6.399  12.899 -0.3207 -1.6754 -2.3237
 1819TIP3    H226873   3.160   6.498  12.787  1.0299  1.6496  0.6557
 1820TIP3   OH226874   4.344   1.143  12.445 -0.0390  0.4801 -0.1729
 1820TIP3    H126875   4.438   1.125  12.453 -0.2057  0.1188  1.2031
 1820TIP3    H226876   4.318   1.173  12.532 -0.8650  2.2741 -0.9862
 1821TIP3   OH226877   0.483   6.419   4.094  0.6762 -0.2470 -0.5573
 1821TIP3    H126878   0.578   6.426   4.085  0.8861 -0.4776  1.0512
 1821TIP3    H226879   0.453   6.509   4.107  0.7433 -0.2245 -0.5587
 1822TIP3   OH226880   2.857   3.589  10.848  0.0449  0.0644 -0.0890
 1822TIP3    H126881   2.777   3.642  10.842  0.7000  0.9153 -2.5358
 1822TIP3    H226882   2.839   3.513  10.793  0.7714  0.0666 -0.3422
 1823TIP3   OH226883   6.386   4.471  10.906  0.0985  0.1620 -1.0054
 1823TIP3    H126884   6.339   4.411  10.964 -1.4161  1.9843 -0.2190
 1823TIP3    H226885   6.318   4.505  10.847  0.9339  0.9561 -1.5302
 1824TIP3   OH226886   1.700   0.780  15.726 -0.3482  0.8314  0.2485
 1824TIP3    H126887   1.759   0.722  15.677 -1.2499 -1.9123  2.1775
 1824TIP3    H226888   1.757   0.823  15.789 -0.2813 -2.5855  2.8095
 1825TIP3   OH226889   2.595   4.891  16.918 -0.0487 -0.5159 -0.1638
 1825TIP3    H126890   2.624   4.935  16.838 -0.3809 -1.9707 -1.1023
 1825TIP3    H226891   2.670   4.896  16.976 -0.2557  1.8020  0.0106
 1826TIP3   OH226892   4.958   0.319  16.285 -0.1009  0.1091  0.1745
 1826TIP3    H126893   4.980   0.305  16.192  0.3672  0.1563  0.2754
 1826TIP3    H226894   4.984   0.409  16.302  0.1798 -0.0239  0.4532
 1827TIP3   OH226895   2.656   0.038   1.500 -0.5148 -1.1818  0.3040
 1827TIP3    H126896   2.576   0.003   1.461 -0.6740  0.2129 -0.6966
 1827TIP3    H226897   2.724   0.020   1.435 -0.7089  0.7975 -0.5459
 1828TIP3   OH226898   3.218   3.054  13.120 -0.4096 -0.3827 -0.1311
 1828TIP3    H126899   3.282   3.002  13.071 -1.7496 -1.9015 -0.3688
 1828TIP3    H226900   3.215   3.138  13.074  0.0035 -0.9890 -1.3051
 1829TIP3   OH226901   2.210   1.418  15.418  0.7906 -0.1054  0.0477
 1829TIP3    H126902   2.129   1.390  15.376  2.2121 -2.9621 -1.0732
 1829TIP3    H226903   2.196   1.400  15.511 -0.3045  0.6806  0.0471
 1830TIP3   OH226904   5.814   3.173   1.443  0.3216 -0.2038 -0.0188
 1830TIP3    H126905   5.767   3.212   1.517 -0.0654 -0.2608 -0.2316
 1830TIP3    H226906   5.843   3.088   1.476  0.5562 -0.0350  0.2176
 1831TIP3   OH226907   3.172   0.500  13.243  0.0122 -0.2039  0.1833
 1831TIP3    H126908   3.210   0.499  13.155 -1.2754  2.0233 -0.4840
 1831TIP3    H226909   3.201   0.583  13.280  1.1605 -1.4319  2.2268
 1832TIP3   OH226910   2.528   2.513   2.278 -0.9164  0.4438  0.6620
 1832TIP3    H126911   2.543   2.540   2.369 -1.3808 -0.8907  1.1491
 1832TIP3    H226912   2.616   2.493   2.245 -0.9278 -1.0413  1.4704
 1833TIP3   OH226913   5.887   4.449  16.115 -0.1848 -0.2921  0.1346
 1833TIP3    H126914   5.877   4.535  16.155 -1.3599 -1.2065  1.9668
 1833TIP3    H226915   5.828   4.450  16.040 -0.0424  0.5699  0.0309
 1834TIP3   OH226916   1.601   5.185   6.257 -0.3591  0.4119 -0.1266
 1834TIP3    H126917   1.553   5.256   6.299  0.7189  0.3677  1.2317
 1834TIP3    H226918   1.588   5.110   6.314  1.4298  0.4453  0.3623
 1835TIP3   OH226919   4.159   6.299   5.338  0.4587 -0.0129 -0.2073
 1835TIP3    H126920   4.161   6.320   5.432 -1.0418 -0.8191  0.0421
 1835TIP3    H226921   4.250   6.286   5.315  0.7759 -1.1233  1.4746
 1836TIP3   OH226922   2.751   4.066   6.568 -0.4524 -0.3616  0.1110
 1836TIP3    H126923   2.778   3.976   6.589  0.8615  0.2073  1.0039
 1836TIP3    H226924   2.658   4.070   6.593 -0.8323 -1.7566 -0.9540
 1837TIP3   OH226925   1.761   5.930   4.676 -0.1609  0.2118 -0.2957
 1837TIP3    H126926   1.704   5.855   4.662  1.5904 -1.0816 -0.8285
 1837TIP3    H226927   1.724   5.998   4.619 -1.0677 -0.6344 -0.7589
 1838TIP3   OH226928   3.667   4.585   3.812 -0.5326 -0.1168  0.0984
 1838TIP3    H126929   3.589   4.549   3.768 -0.9528  1.1255 -0.2423
 1838TIP3    H226930   3.738   4.569   3.750 -0.3897 -1.7596  0.6535
 1839TIP3   OH226931   4.687   5.758  15.563 -0.1213  0.5973 -0.7354
 1839TIP3    H126932   4.651   5.676  15.530 -0.1930 -0.2828  1.3806
 1839TIP3    H226933   4.779   5.738  15.581  0.4642  1.6645 -2.2874
 1840TIP3   OH226934   6.415   0.551  12.100  0.0269  1.0284  0.1052
 1840TIP3    H126935   6.500   0.527  12.063 -0.4155 -0.8674  0.2415
 1840TIP3    H226936   6.365   0.583  12.024 -0.2593 -1.0801 -0.6433
 1841TIP3   OH226937   2.318   0.235  16.280 -0.0246  0.3678  0.2752
 1841TIP3    H126938   2.391   0.194  16.233  0.9749  0.3142  1.8017
 1841TIP3    H226939   2.268   0.161  16.314 -0.4234  0.4104 -0.2093
 1842TIP3   OH226940   1.980   0.790   0.704  0.0525 -0.0387 -0.0533
 1842TIP3    H126941   2.060   0.841   0.692 -0.1366  0.6029  1.1908
 1842TIP3    H226942   1.967   0.788   0.799 -0.0430 -2.2820 -0.0514
 1843TIP3   OH226943   1.992   5.963  11.692  0.1508  0.6776 -0.1499
 1843TIP3    H126944   1.981   5.885  11.746 -0.5813  1.0180  0.1951
 1843TIP3    H226945   2.016   5.929  11.606  2.7809  0.1678  0.6866
 1844TIP3   OH226946   2.407   6.439   4.699 -0.1092 -0.0350  0.0636
 1844TIP3    H126947   2.439   6.398   4.779  0.7640  0.9247  0.2338
 1844TIP3    H226948   2.468   6.409   4.631 -1.6960 -2.0165 -0.5643
 1845TIP3   OH226949   1.697   2.675   2.832 -0.1450  0.6734 -0.7333
 1845TIP3    H126950   1.771   2.698   2.887 -0.0089 -1.5930  0.1768
 1845TIP3    H226951   1.732   2.671   2.743  0.6465  0.4276 -0.4184
 1846TIP3   OH226952   5.162   3.701   1.824  0.5845  0.5488  0.3083
 1846TIP3    H126953   5.238   3.710   1.766  0.7006  1.5094  0.5929
 1846TIP3    H226954   5.097   3.655   1.771  1.0439  0.5202 -0.2453
 1847TIP3   OH226955   5.986   4.845  11.404  0.8996 -0.3028  0.3590
 1847TIP3    H126956   5.911   4.862  11.346  0.6870 -0.7820  0.4861
 1847TIP3    H226957   6.062   4.847  11.346  0.5426 -2.4996 -0.2977
 1848TIP3   OH226958   5.911   4.305   4.366  0.3137 -0.2977 -0.0128
 1848TIP3    H126959   5.925   4.308   4.271 -0.2053 -0.8775 -0.1200
 1848TIP3    H226960   5.932   4.215   4.390  0.2212 -0.2132  0.3865
 1849TIP3   OH226961   5.374   0.439  13.788  0.0099  0.2846  0.8205
 1849TIP3    H126962   5.448   0.496  13.809  0.3913 -0.1352  0.6234
 1849TIP3    H226963   5.384   0.422  13.694 -0.8883  1.0182  0.5741
 1850TIP3   OH226964   5.933   6.250  17.303 -0.6053  0.5969  0.3557
 1850TIP3    H126965   5.844   6.285  17.302 -0.1581  1.8164 -0.4952
 1850TIP3    H226966   5.987   6.322  17.337  0.3717  0.8621 -1.5876
 1851TIP3   OH226967   5.415   6.012  11.200 -0.7218 -0.5400 -0.1961
 1851TIP3    H126968   5.327   5.981  11.219 -0.5538 -1.1551 -0.4122
 1851TIP3    H226969   5.401   6.098  11.158 -1.1225  0.3122  1.6051
 1852TIP3   OH226970   1.130   0.387   3.479  0.0024 -0.1731  0.7933
 1852TIP3    H126971   1.167   0.312   3.433  1.9767  0.8336  0.6279
 1852TIP3    H226972   1.069   0.426   3.417  0.3277 -0.6014  0.1923
 1853TIP3   OH226973   4.257   1.045  14.865 -0.5522  0.2430  0.3775
 1853TIP3    H126974   4.259   1.103  14.789 -1.2164 -0.2423 -0.0292
 1853TIP3    H226975   4.175   0.996  14.855  0.3774 -1.3268  0.2849
 1854TIP3   OH226976   3.901   0.578   1.305 -0.6752  0.1336  0.2406
 1854TIP3    H126977   3.981   0.629   1.318  1.3481 -2.4761 -1.0650
 1854TIP3    H226978   3.852   0.626   1.238 -0.4448  1.9465  1.2984
 1855TIP3   OH226979   2.624   0.790  11.920  0.3226  0.4060 -0.6235
 1855TIP3    H126980   2.553   0.851  11.899  0.5052  0.5603 -0.8028
 1855TIP3    H226981   2.690   0.845  11.962  1.1541  0.6516 -2.1640
 1856TIP3   OH226982   1.492   6.039  12.668  0.1632  0.5809 -0.7729
 1856TIP3    H126983   1.570   5.988  12.690  1.0015  1.5773 -1.3366
 1856TIP3    H226984   1.453   5.993  12.594  0.1269 -0.0104 -0.3882
 1857TIP3   OH226985   1.321   1.470   3.587 -0.2825  0.4283  0.0984
 1857TIP3    H126986   1.399   1.419   3.608  0.6411  2.1575  1.1287
 1857TIP3    H226987   1.300   1.516   3.668 -0.3043  2.5835 -1.0504
 1858TIP3   OH226988   1.392   5.364   3.848 -0.3793  1.0039 -0.5225
 1858TIP3    H126989   1.330   5.299   3.882  0.9962  0.5713  1.3925
 1858TIP3    H226990   1.371   5.444   3.896 -0.0228  1.0754 -0.4833
 1859TIP3   OH226991   1.229   0.638  16.222  0.1005  0.1574 -0.6006
 1859TIP3    H126992   1.193   0.585  16.294  0.0470  0.8436 -0.1119
 1859TIP3    H226993   1.306   0.589  16.192  0.7945  0.4123  0.6836
 1860TIP3   OH226994   4.087   0.428   0.409 -0.9672 -0.0309  0.0042
 1860TIP3    H126995   4.149   0.358   0.427 -1.0809 -0.2951 -0.6265
 1860TIP3    H226996   4.013   0.411   0.468 -1.2047 -0.7204 -0.4761
 1861TIP3   OH226997   5.243   2.883   4.798  0.4687  0.1365 -0.5748
 1861TIP3    H126998   5.271   2.792   4.792  0.0455 -0.1163  0.8193
 1861TIP3    H226999   5.318   2.934   4.769  0.9676 -0.6332 -0.6565
 1862TIP3   OH227000   6.562   2.495  15.316  0.0093  0.3344 -0.7951
 1862TIP3    H127001   6.638   2.438  15.328 -0.5739 -0.6463 -1.5674
 1862TIP3    H227002   6.581   2.544  15.236  0.7649  1.6789  0.1759
 1863TIP3   OH227003   1.418   0.736   2.379  0.1580 -0.5540 -0.3744
 1863TIP3    H127004   1.394   0.644   2.371 -1.4080 -0.2778  0.8402
 1863TIP3    H227005   1.460   0.756   2.295  0.1272 -2.2395 -0.8395
 1864TIP3   OH227006   3.811   2.466   1.432  0.3951 -0.5525 -0.1970
 1864TIP3    H127007   3.724   2.445   1.399 -0.6425  2.4613  0.2733
 1864TIP3    H227008   3.797   2.485   1.525  1.4753  0.2528 -0.1767
 1865TIP3   OH227009   6.072   3.593   3.824  0.1571 -0.5068  0.0125
 1865TIP3    H127010   6.107   3.567   3.909  0.5798  1.6121  0.5643
 1865TIP3    H227011   6.109   3.680   3.809 -0.5802 -0.4811 -1.9631
 1866TIP3   OH227012   2.001   3.896   0.294  0.2104  0.7645  0.0848
 1866TIP3    H127013   2.052   3.968   0.257  0.5105 -0.6310 -2.4179
 1866TIP3    H227014   2.012   3.824   0.232 -0.8135 -1.1767  2.0180
 1867TIP3   OH227015   5.318   1.387  10.898  0.0787  0.0051 -0.0430
 1867TIP3    H127016   5.274   1.461  10.856  0.1090  0.2081  0.2760
 1867TIP3    H227017   5.399   1.377  10.848 -0.6631 -0.8607 -1.1137
 1868TIP3   OH227018   1.883   3.967  14.839  0.6049  0.4092 -0.2017
 1868TIP3    H127019   1.968   3.926  14.851 -0.0561 -1.3798 -1.3221
 1868TIP3    H227020   1.820   3.898  14.860 -0.5487  0.9191 -1.8207
 1869TIP3   OH227021   6.632   6.195   0.320 -0.1330 -0.1401  0.7765
 1869TIP3    H127022   6.688   6.117   0.317 -1.6514 -1.2507 -0.7299
 1869TIP3    H227023   6.635   6.224   0.411  2.0361 -0.7516  0.9623
 1870TIP3   OH227024   5.054   0.308   0.682 -0.5826  0.1090 -0.3695
 1870TIP3    H127025   5.085   0.272   0.766 -0.8897  1.4489  0.3465
 1870TIP3    H227026   5.044   0.231   0.626  0.3508 -0.7489  0.5798
 1871TIP3   OH227027   1.323   2.239  13.494 -0.4645  0.2901 -0.6284
 1871TIP3    H127028   1.309   2.191  13.576  0.0477  2.8797  1.1006
 1871TIP3    H227029   1.259   2.203  13.434 -0.5178 -2.0829  0.7163
 1872TIP3   OH227030   5.398   1.226   5.165 -0.1440  0.7190  0.2079
 1872TIP3    H127031   5.357   1.309   5.139 -1.8793  0.1489  0.9565
 1872TIP3    H227032   5.401   1.230   5.261 -0.3900 -0.1282  0.2603
 1873TIP3   OH227033   6.065   2.624   1.630 -0.4322  0.1394 -0.5590
 1873TIP3    H127034   6.005   2.696   1.609 -1.1895  0.1848  1.4386
 1873TIP3    H227035   6.113   2.655   1.707  0.0367 -1.0512 -0.3494
 1874TIP3   OH227036   4.625   6.180  16.840 -0.1209  0.2010 -0.2035
 1874TIP3    H127037   4.582   6.265  16.832  1.6623  1.3129  1.1007
 1874TIP3    H227038   4.667   6.166  16.755 -3.1205 -1.0725 -1.6225
 1875TIP3   OH227039   5.712   1.623  12.776  0.2560  0.0907 -0.1092
 1875TIP3    H127040   5.747   1.601  12.863  0.0959  0.7646  0.1339
 1875TIP3    H227041   5.634   1.568  12.767  0.3236 -0.0484  0.1360
 1876TIP3   OH227042   1.735   0.098   3.546  0.1116 -0.0638  0.1797
 1876TIP3    H127043   1.702   0.055   3.466  0.4981  0.2794 -0.1673
 1876TIP3    H227044   1.657   0.136   3.586 -0.0263  0.1246 -0.2579
 1877TIP3   OH227045   6.458   6.725  15.464 -0.4030  0.0072  0.7722
 1877TIP3    H127046   6.430   6.695  15.377  1.4515  1.9377 -0.5829
 1877TIP3    H227047   6.393   6.791  15.488  0.5174  1.4309 -0.4518
 1878TIP3   OH227048   0.805   4.929   5.841 -0.0431  0.0235  0.1554
 1878TIP3    H127049   0.720   4.892   5.865  1.4385 -2.4349  2.0238
 1878TIP3    H227050   0.813   4.910   5.747 -0.7165 -1.5924  0.3868
 1879TIP3   OH227051   2.584   6.063   6.575 -0.2726  0.0022  0.1105
 1879TIP3    H127052   2.659   6.120   6.596  0.3076  0.1630 -2.1396
 1879TIP3    H227053   2.511   6.123   6.563 -0.2237  0.0585  0.0922
 1880TIP3   OH227054   4.117   3.250   5.312  0.0251 -0.0058 -0.2834
 1880TIP3    H127055   4.040   3.300   5.338 -0.4204 -0.0689 -1.4427
 1880TIP3    H227056   4.083   3.173   5.268  0.7387 -0.6730  0.3035
 1881TIP3   OH227057   5.458   5.383   2.248 -0.3051 -0.4082  0.2302
 1881TIP3    H127058   5.474   5.296   2.284 -1.0183 -0.5288  0.2747
 1881TIP3    H227059   5.367   5.379   2.217  0.1913 -0.2265 -1.3302
 1882TIP3   OH227060   2.206   0.055   1.076 -0.2515 -0.3781 -0.4377
 1882TIP3    H127061   2.221  -0.039   1.087 -0.5583 -0.5684 -1.4942
 1882TIP3    H227062   2.122   0.060   1.029 -0.9408  0.4779  0.8176
 1883TIP3   OH227063   5.534   0.550   6.387  0.0097  0.6305  0.0862
 1883TIP3    H127064   5.584   0.469   6.399 -0.1435  0.7204  1.5754
 1883TIP3    H227065   5.583   0.616   6.436 -1.5748  0.6796  1.7474
 1884TIP3   OH227066   5.915   4.617  14.417  0.4317  0.3443  0.8492
 1884TIP3    H127067   5.839   4.597  14.473 -0.8126 -0.7676 -1.1189
 1884TIP3    H227068   5.925   4.712  14.424 -1.2356  0.5414  1.0641
 1885TIP3   OH227069   4.397   6.720  13.609 -0.4077 -0.2253 -0.2167
 1885TIP3    H127070   4.302   6.722  13.595 -0.4634 -1.6637 -0.2415
 1885TIP3    H227071   4.411   6.774  13.687 -1.0135  1.4689 -1.2161
 1886TIP3   OH227072   0.612   6.424  13.913  0.0042 -0.1776 -0.6198
 1886TIP3    H127073   0.518   6.423  13.925  0.2631 -1.4089  1.9276
 1886TIP3    H227074   0.642   6.503  13.958  0.2263  0.1313 -1.2890
 1887TIP3   OH227075   2.971   3.650  12.420 -0.1544 -0.1334 -0.6552
 1887TIP3    H127076   2.913   3.604  12.480 -1.6393  0.6193 -1.4504
 1887TIP3    H227077   2.955   3.608  12.335  0.6519 -0.0784 -0.8396
 1888TIP3   OH227078   5.997   3.598   0.824 -0.2180  0.0174 -0.5462
 1888TIP3    H127079   6.073   3.656   0.832  0.0839 -0.5488  0.8221
 1888TIP3    H227080   6.029   3.512   0.851 -1.9791  0.2918  2.9914
 1889TIP3   OH227081   6.736   4.071  15.208  0.1865  0.3584  0.3997
 1889TIP3    H127082   6.755   3.995  15.263 -1.1496  0.1920  0.6596
 1889TIP3    H227083   6.706   4.138  15.270  0.4019  0.7660  0.0663
 1890TIP3   OH227084   5.875   0.088   4.903 -0.1221 -0.0687  0.2105
 1890TIP3    H127085   5.801   0.030   4.882  0.4598 -0.5687 -0.4978
 1890TIP3    H227086   5.847   0.134   4.982 -1.4701  0.2518 -0.4293
 1891TIP3   OH227087   5.586   5.168   0.347  0.0669 -0.1719 -0.2514
 1891TIP3    H127088   5.628   5.178   0.433 -1.3371 -3.4798  0.9930
 1891TIP3    H227089   5.642   5.105   0.301  0.5415  1.2186 -1.6424
 1892TIP3   OH227090   3.404   4.499   4.578 -0.0445  0.2488  0.2483
 1892TIP3    H127091   3.386   4.586   4.615 -1.8816 -0.1083  0.3352
 1892TIP3    H227092   3.329   4.482   4.521 -0.6350 -1.9382  1.5309
 1893TIP3   OH227093   5.154   5.133  16.289 -0.2536 -0.1177 -0.1567
 1893TIP3    H127094   5.180   5.139  16.197 -1.4648 -0.2204 -0.5217
 1893TIP3    H227095   5.175   5.219  16.326 -1.1319  0.4323 -0.9063
 1894TIP3   OH227096   1.241   1.783   1.940 -0.3081  0.1619 -0.1499
 1894TIP3    H127097   1.299   1.811   1.869  1.6942  2.1492  2.1084
 1894TIP3    H227098   1.295   1.728   1.996 -1.2139  0.3841  0.9796
 1895TIP3   OH227099   6.638   5.365  15.556  0.1423  0.2386 -0.2029
 1895TIP3    H127100   6.664   5.444  15.603  1.7355 -0.3989  0.0663
 1895TIP3    H227101   6.720   5.332  15.518 -0.4254 -1.4316 -0.0669
 1896TIP3   OH227102   6.322   5.429   4.692 -0.1271  0.0903 -0.3304
 1896TIP3    H127103   6.339   5.339   4.721 -2.5144 -0.2245  0.2805
 1896TIP3    H227104   6.380   5.483   4.746  0.1494 -0.9603  0.4610
 1897TIP3   OH227105   4.861   1.329   6.482  0.0233 -0.1005 -0.1182
 1897TIP3    H127106   4.910   1.338   6.401 -1.2218  0.6309 -0.8214
 1897TIP3    H227107   4.769   1.323   6.454 -0.4961  0.9213  1.2522
 1898TIP3   OH227108   3.020   5.371  14.185  0.2860  0.4312  0.4380
 1898TIP3    H127109   3.078   5.444  14.160  3.5052 -2.4570 -1.4499
 1898TIP3    H227110   3.065   5.329  14.258 -1.9283  0.6106  2.0227
 1899TIP3   OH227111   0.089   0.592   5.596  0.1771  0.4456 -0.0666
 1899TIP3    H127112   0.185   0.589   5.590  0.1706 -1.9136  0.0651
 1899TIP3    H227113   0.059   0.530   5.528 -1.2160  0.5673  0.4146
 1900TIP3   OH227114   3.204   0.699  11.269 -0.6005 -0.3489 -0.3645
 1900TIP3    H127115   3.187   0.655  11.186  0.8387 -2.1433  0.2261
 1900TIP3    H227116   3.234   0.786  11.244  0.3102 -1.0283 -1.7580
 1901TIP3   OH227117   1.990   3.079   3.647 -0.1255  0.0221 -0.1946
 1901TIP3    H127118   1.984   2.999   3.595  0.5285  0.4221 -0.9105
 1901TIP3    H227119   1.981   3.050   3.737  0.3514 -0.8958 -0.4320
 1902TIP3   OH227120   2.562   2.427  12.593 -0.4594  0.1758 -0.6481
 1902TIP3    H127121   2.634   2.475  12.635 -1.3666  0.5142  0.5739
 1902TIP3    H227122   2.550   2.350  12.648 -0.5774 -0.2275 -1.2418
 1903TIP3   OH227123   2.083   4.514   4.969  0.2072 -0.6587 -0.3446
 1903TIP3    H127124   2.102   4.588   5.026  0.7765  0.2509 -1.6463
 1903TIP3    H227125   2.126   4.439   5.010  2.4075  0.3822 -0.6373
 1904TIP3   OH227126   5.763   3.627  16.535 -0.2206  0.7843 -0.3292
 1904TIP3    H127127   5.749   3.688  16.608 -0.2065  0.2796  0.1033
 1904TIP3    H227128   5.856   3.604  16.540 -0.3415  0.3085 -0.1442
 1905TIP3   OH227129   3.630   6.714  17.189 -0.8065 -0.5301 -0.1447
 1905TIP3    H127130   3.679   6.796  17.192  0.3250 -1.2136  1.1880
 1905TIP3    H227131   3.697   6.646  17.188 -1.7205 -1.4758  0.3115
 1906TIP3   OH227132   5.504   1.720  14.047 -0.0391  0.5311 -0.0371
 1906TIP3    H127133   5.576   1.772  14.012 -0.3909 -0.7062 -2.8739
 1906TIP3    H227134   5.426   1.754  14.004 -0.7632  0.0058  0.8257
 1907TIP3   OH227135   0.766   1.172  11.314 -0.5548 -0.5583 -0.0309
 1907TIP3    H127136   0.816   1.169  11.395 -0.6514 -0.8040  0.0209
 1907TIP3    H227137   0.772   1.263  11.285 -1.1971 -0.2716  0.6848
 1908TIP3   OH227138   0.180   2.818  13.692 -0.1871  0.0461 -0.1987
 1908TIP3    H127139   0.156   2.808  13.600  0.7061 -0.9295 -0.3378
 1908TIP3    H227140   0.205   2.730  13.721 -0.0012  0.4246  0.8461
 1909TIP3   OH227141   0.097   2.466   5.010  0.4561 -0.4566  1.1459
 1909TIP3    H127142   0.141   2.549   4.990 -1.0162  0.4409  1.4460
 1909TIP3    H227143   0.049   2.484   5.091 -0.2725 -1.4510  0.9459
 1910TIP3   OH227144   6.282   3.819   4.503  0.1886  0.0895  0.3217
 1910TIP3    H127145   6.373   3.819   4.534  0.2595  1.5226  0.1949
 1910TIP3    H227146   6.250   3.731   4.523  1.1062  0.0619  1.8743
 1911TIP3   OH227147   1.073   3.315   1.663  0.2496 -0.0785 -0.0729
 1911TIP3    H127148   1.003   3.254   1.640 -0.5753  0.6572  0.4397
 1911TIP3    H227149   1.050   3.347   1.750  1.4046 -0.0728  0.2400
 1912TIP3   OH227150   6.746   5.813  16.710 -0.5315  0.1851 -0.0712
 1912TIP3    H127151   6.826   5.773  16.745  1.0299  1.9470 -1.4500
 1912TIP3    H227152   6.771   5.846  16.624 -2.9478  0.2313 -0.8313
 1913TIP3   OH227153   5.951   6.660   2.079  0.0819 -0.0356  0.3065
 1913TIP3    H127154   5.871   6.620   2.047  0.2174 -0.3924  0.4131
 1913TIP3    H227155   6.021   6.604   2.045  0.2438 -0.2218  0.9392
 1914TIP3   OH227156   0.070   1.396   5.019 -0.4363 -0.2386 -0.0941
 1914TIP3    H127157   0.132   1.324   5.008 -0.1539 -0.0477  0.2368
 1914TIP3    H227158  -0.016   1.353   5.023 -0.2867 -0.5407 -0.0990
 1915TIP3   OH227159   1.786   4.556   5.601 -0.1897 -0.0201 -0.2372
 1915TIP3    H127160   1.785   4.644   5.562 -1.5700 -0.2083 -0.6577
 1915TIP3    H227161   1.697   4.524   5.591  0.2541 -1.4158  0.0702
 1916TIP3   OH227162   4.301   3.598   6.509 -0.3797 -0.7115  0.0799
 1916TIP3    H127163   4.233   3.546   6.467 -0.7407 -0.1066 -0.0973
 1916TIP3    H227164   4.287   3.687   6.476 -0.0596 -0.4124  0.7407
 1917TIP3   OH227165   4.492   4.257   1.329  0.0357  0.0774 -0.1938
 1917TIP3    H127166   4.524   4.344   1.306  2.3210 -0.4852  0.5568
 1917TIP3    H227167   4.504   4.251   1.424 -3.4249  0.1532  0.3772
 1918TIP3   OH227168   2.631   1.639  16.914  0.1594  0.4151  0.3545
 1918TIP3    H127169   2.618   1.569  16.978  0.3925 -1.1844 -1.2608
 1918TIP3    H227170   2.547   1.645  16.869 -0.4007  2.3798  1.5477
 1919TIP3   OH227171   1.809   4.414   6.734 -0.3547  0.0315  0.1364
 1919TIP3    H127172   1.776   4.407   6.644 -1.3750  0.7634  0.4404
 1919TIP3    H227173   1.791   4.329   6.773 -1.4774  0.2636  0.1539
 1920TIP3   OH227174   3.260   1.809   3.019  0.5945  0.1675 -0.1105
 1920TIP3    H127175   3.202   1.859   3.078 -0.5173  0.0763 -1.0924
 1920TIP3    H227176   3.343   1.804   3.066  0.0766  1.0849  0.9515
 1921TIP3   OH227177   2.976   6.701  13.649  0.2553 -0.9296 -0.3175
 1921TIP3    H127178   2.894   6.652  13.652 -0.9293  0.6950 -2.9662
 1921TIP3    H227179   2.950   6.793  13.643  2.2614 -0.3445 -0.9207
 1922TIP3   OH227180   3.027   6.531   4.650 -0.1656  1.1918  0.6469
 1922TIP3    H127181   3.028   6.618   4.611  4.6058  0.9816 -0.3378
 1922TIP3    H227182   3.082   6.538   4.728  0.1389 -0.8421  0.6789
 1923TIP3   OH227183   5.972   0.328  13.511 -0.1784  0.6115  0.3165
 1923TIP3    H127184   5.888   0.341  13.468 -0.5589  0.0695  0.8891
 1923TIP3    H227185   6.021   0.271  13.452 -1.3889 -1.7017  1.4171
 1924TIP3   OH227186   0.983   2.036  12.860  0.5242 -0.0117 -0.4771
 1924TIP3    H127187   0.963   2.113  12.805  1.3896  1.1563  0.7844
 1924TIP3    H227188   1.069   2.055  12.897  0.1062 -0.9093  1.0347
 1925TIP3   OH227189   2.955   3.405  16.073  0.0983 -0.3575  0.0834
 1925TIP3    H127190   2.947   3.328  16.130  1.4593 -0.5471  0.0516
 1925TIP3    H227191   2.991   3.370  15.992 -2.7720 -0.2696 -1.3503
 1926TIP3   OH227192   0.843   4.253   4.783 -0.2246  0.1783 -0.6640
 1926TIP3    H127193   0.871   4.263   4.692  0.7135  1.9126 -0.2186
 1926TIP3    H227194   0.751   4.278   4.782 -0.5921 -1.0647 -1.3186
 1927TIP3   OH227195   1.450   2.611   3.820 -0.0206 -0.2889 -0.0527
 1927TIP3    H127196   1.421   2.641   3.906  1.0960  1.6481 -0.2866
 1927TIP3    H227197   1.408   2.526   3.808 -0.4147 -0.4743  2.2807
 1928TIP3   OH227198   2.703   3.360   2.601 -0.4424 -0.1110 -0.6310
 1928TIP3    H127199   2.612   3.385   2.584 -0.9308 -1.1007  0.3759
 1928TIP3    H227200   2.752   3.441   2.595 -1.4186  0.4722 -0.9919
 1929TIP3   OH227201   0.465   1.775  13.760 -0.2184  0.1864 -0.0229
 1929TIP3    H127202   0.509   1.801  13.679  0.1297  0.4682  0.2552
 1929TIP3    H227203   0.533   1.731  13.811 -0.8223 -1.4840 -0.5582
 1930TIP3   OH227204   3.474   6.004   4.586  0.2854 -0.0249 -0.0901
 1930TIP3    H127205   3.394   5.951   4.580 -0.7423  1.5617 -0.8786
 1930TIP3    H227206   3.447   6.083   4.631  1.2223  0.8764 -1.0641
 1931TIP3   OH227207   5.284   0.617   4.866 -0.3240  0.0184 -0.2851
 1931TIP3    H127208   5.209   0.633   4.923 -0.5893 -0.9978 -0.3299
 1931TIP3    H227209   5.360   0.633   4.921 -0.5706 -1.4572  0.5353
 1932TIP3   OH227210   1.661   3.433  12.883 -0.0015  0.4880 -0.5183
 1932TIP3    H127211   1.724   3.488  12.931  1.0535  1.0387 -2.4113
 1932TIP3    H227212   1.591   3.418  12.946  0.9587  1.7421  0.9644
 1933TIP3   OH227213   2.938   5.223   0.922  0.1613 -0.3477 -0.5123
 1933TIP3    H127214   2.957   5.166   0.998  2.4299 -0.2278 -0.9186
 1933TIP3    H227215   2.983   5.180   0.849 -0.7180  0.3611 -1.4889
 1934TIP3   OH227216   0.235   0.005   0.652  0.0877 -0.2776 -0.3295
 1934TIP3    H127217   0.219  -0.048   0.731  1.4576  0.9145  0.7990
 1934TIP3    H227218   0.289  -0.051   0.596 -0.5694 -0.9866 -0.2823
 1935TIP3   OH227219   2.469   4.531  17.305 -0.6391  0.3518 -0.5331
 1935TIP3    H127220   2.515   4.548  17.387 -1.0938  0.7479 -0.3562
 1935TIP3    H227221   2.532   4.483  17.251 -0.9328 -1.5969  0.7433
 1936TIP3   OH227222   0.064   1.400  16.663 -0.5278  0.0704 -0.4550
 1936TIP3    H127223   0.134   1.401  16.728 -1.1158  0.8995  0.1845
 1936TIP3    H227224   0.031   1.310  16.664  0.5631 -0.3543 -0.8306
 1937TIP3   OH227225   6.680   5.513  16.884  0.3397 -0.5064  0.2877
 1937TIP3    H127226   6.666   5.427  16.924 -1.2909 -0.5525 -0.3014
 1937TIP3    H227227   6.659   5.575  16.954  3.7444 -0.4681  1.4712
 1938TIP3   OH227228   3.175   0.823  11.845  0.1638 -0.7057 -0.1053
 1938TIP3    H127229   3.206   0.908  11.813  0.3551 -0.1767  1.3971
 1938TIP3    H227230   3.194   0.762  11.773  1.2775  0.2671 -0.6813
 1939TIP3   OH227231   5.538   1.491  11.759  0.1687  0.4083  0.6144
 1939TIP3    H127232   5.443   1.486  11.751 -0.0295  0.5366  2.4424
 1939TIP3    H227233   5.557   1.584  11.764  0.4844  0.4145 -0.4749
 1940TIP3   OH227234   3.215   5.413   1.653  0.0840  0.5545 -0.2425
 1940TIP3    H127235   3.160   5.491   1.648 -0.4807  0.1977  0.1996
 1940TIP3    H227236   3.266   5.414   1.573 -3.0111 -0.8827 -2.4469
 1941TIP3   OH227237   3.999   1.230  13.506  0.4090  0.1491  0.1700
 1941TIP3    H127238   4.046   1.236  13.589 -0.1825  1.3183  0.4529
 1941TIP3    H227239   4.066   1.211  13.441  0.8781 -0.7660  0.9057
 1942TIP3   OH227240   2.150   3.941   5.149 -0.0892 -0.1670  0.3150
 1942TIP3    H127241   2.189   4.007   5.206  0.1843  0.2136 -0.3010
 1942TIP3    H227242   2.056   3.957   5.154 -0.1247 -0.5852  1.1972
 1943TIP3   OH227243   0.074   1.573   4.464 -0.0140 -0.8602 -0.0833
 1943TIP3    H127244   0.133   1.564   4.539  0.6256  0.2156 -0.4399
 1943TIP3    H227245  -0.013   1.561   4.500  0.1742  1.0248  1.1219
 1944TIP3   OH227246   2.331   5.035  16.752  0.3076 -0.3390 -0.5266
 1944TIP3    H127247   2.252   5.084  16.729  0.8710  0.6848 -0.3561
 1944TIP3    H227248   2.380   5.029  16.670 -1.0103 -3.1198 -1.2353
 1945TIP3   OH227249   4.282   5.572   0.128 -0.3547  0.2094 -0.0981
 1945TIP3    H127250   4.240   5.581   0.042  0.5498 -0.4877 -0.6257
 1945TIP3    H227251   4.322   5.658   0.143 -1.3014  0.6367  0.0669
 1946TIP3   OH227252   3.092   0.307   0.534  0.1618 -0.0939  0.1245
 1946TIP3    H127253   3.051   0.352   0.460 -0.1494 -0.9038 -0.2029
 1946TIP3    H227254   3.036   0.231   0.550  1.0479 -0.7397  0.2311
 1947TIP3   OH227255   6.618   4.593  13.273  0.2050  0.0456 -0.0770
 1947TIP3    H127256   6.615   4.624  13.364  2.9391  1.1656 -0.2724
 1947TIP3    H227257   6.540   4.539  13.264 -0.8292  0.9155  2.5513
 1948TIP3   OH227258   0.986   4.889   1.469 -0.4948 -0.0762  0.2469
 1948TIP3    H127259   1.009   4.894   1.376 -2.4740 -1.1785 -0.3587
 1948TIP3    H227260   0.987   4.980   1.499 -0.4608  0.3688 -1.0263
 1949TIP3   OH227261   4.041   4.054   5.967 -0.0050 -0.0441  0.0501
 1949TIP3    H127262   4.097   4.071   6.043  0.8229  1.0036 -0.7462
 1949TIP3    H227263   3.953   4.076   5.996  0.4657  1.5576  0.3665
 1950TIP3   OH227264   2.760   3.716   5.033 -0.0807 -0.4750 -0.2540
 1950TIP3    H127265   2.832   3.739   4.974  0.3421 -1.4842 -0.1392
 1950TIP3    H227266   2.753   3.621   5.027 -1.3607 -0.3982 -0.2041
 1951TIP3   OH227267   0.792   1.356  14.549  0.3976  0.0698  0.2758
 1951TIP3    H127268   0.710   1.384  14.507  0.5129 -0.2206 -0.1461
 1951TIP3    H227269   0.809   1.269  14.514  0.5989 -0.1021  0.7885
 1952TIP3   OH227270   1.898   4.167   4.880  0.2239  0.1818 -0.4972
 1952TIP3    H127271   1.879   4.088   4.828 -2.0953  0.5337 -0.2690
 1952TIP3    H227272   1.868   4.239   4.825 -0.4390  0.6973  0.5331
 1953TIP3   OH227273   5.358   5.692   4.063 -0.2174  0.3108 -0.0337
 1953TIP3    H127274   5.419   5.656   4.127  0.5093  1.4202 -0.0747
 1953TIP3    H227275   5.284   5.723   4.115  0.8245  2.1729  0.4508
 1954TIP3   OH227276   3.218   4.744   4.560 -0.7102 -0.0031 -0.8271
 1954TIP3    H127277   3.194   4.721   4.471 -0.5678 -2.0466 -0.3953
 1954TIP3    H227278   3.195   4.836   4.569 -1.3630  0.0464 -2.7458
 1955TIP3   OH227279   2.329   2.476  14.475 -0.0268 -0.2835 -0.1202
 1955TIP3    H127280   2.268   2.409  14.504  0.1466 -0.3824  0.0125
 1955TIP3    H227281   2.281   2.523  14.406  0.5667 -1.8016 -1.6154
 1956TIP3   OH227282   5.327   3.828  15.000  0.3946  0.3877  0.0959
 1956TIP3    H127283   5.318   3.908  15.052 -2.4560 -0.7287  1.4956
 1956TIP3    H227284   5.262   3.836  14.931 -1.5538 -1.5695  1.5640
 1957TIP3   OH227285   0.327   1.469   4.241  0.4207 -0.3202 -0.1838
 1957TIP3    H127286   0.250   1.431   4.199  0.6910 -0.9739 -0.0958
 1957TIP3    H227287   0.382   1.500   4.169  0.8931 -1.4565 -0.3373
 1958TIP3   OH227288   1.713   1.851   2.975 -0.2816 -0.3799  0.1039
 1958TIP3    H127289   1.649   1.853   3.046 -0.7203  2.3720 -0.2385
 1958TIP3    H227290   1.793   1.886   3.013 -0.4017  0.7280 -0.6141
 1959TIP3   OH227291   4.091   1.511  13.670  0.1306 -0.0499  0.0131
 1959TIP3    H127292   4.064   1.540  13.757  1.5318  1.9063 -0.1363
 1959TIP3    H227293   4.144   1.433  13.685  1.0155  0.7192  1.0248
 1960TIP3   OH227294   1.922   5.395   3.842 -0.8095 -0.6639  0.7717
 1960TIP3    H127295   1.873   5.449   3.903 -0.5280 -0.0532  0.4697
 1960TIP3    H227296   1.952   5.320   3.894 -1.8329 -0.9129  1.0135
 1961TIP3   OH227297   1.400   2.893  12.585 -0.2129 -0.2909  0.6557
 1961TIP3    H127298   1.326   2.875  12.527  0.2225 -1.9974  0.5782
 1961TIP3    H227299   1.384   2.837  12.661  0.7716 -0.3566  0.8173
 1962TIP3   OH227300   0.549   5.730  12.427  0.4036 -0.6027  0.3317
 1962TIP3    H127301   0.524   5.644  12.391  2.4814 -2.3420  2.6684
 1962TIP3    H227302   0.590   5.709  12.511  2.1732  2.6174  0.4025
 1963TIP3   OH227303   4.847   3.050  12.488  0.2598 -0.1189  0.4006
 1963TIP3    H127304   4.884   3.136  12.505  2.6368 -1.1669  0.9587
 1963TIP3    H227305   4.837   3.046  12.392 -1.1668  1.2296  0.4699
 1964TIP3   OH227306   4.397   1.586  16.644 -0.2667  0.0923  0.1093
 1964TIP3    H127307   4.482   1.542  16.642  0.3158  1.1559  0.4175
 1964TIP3    H227308   4.340   1.527  16.692  0.6197 -0.1035  0.9523
 1965TIP3   OH227309   5.000   1.385   3.201 -0.1556 -0.2615  0.0094
 1965TIP3    H127310   5.030   1.391   3.291 -0.3901  0.7496  0.0300
 1965TIP3    H227311   4.905   1.376   3.207 -0.0505 -1.5316 -0.1061
 1966TIP3   OH227312   4.895   6.321   5.624  0.0020 -0.1821  1.0465
 1966TIP3    H127313   4.979   6.279   5.640 -0.1212  0.0424  2.4567
 1966TIP3    H227314   4.908   6.374   5.546  1.5024  0.6762  1.8456
 1967TIP3   OH227315   2.948   4.556   2.945 -0.2547  0.5341  0.1623
 1967TIP3    H127316   3.031   4.513   2.965 -0.1313  0.2127 -0.9442
 1967TIP3    H227317   2.961   4.591   2.857 -1.0585  1.0825  0.2542
 1968TIP3   OH227318   4.891   2.133  16.452 -0.2070 -0.2148  0.0966
 1968TIP3    H127319   4.878   2.110  16.544 -0.8453  0.7855  0.2658
 1968TIP3    H227320   4.973   2.183  16.451 -1.2704  1.6201  0.4736
 1969TIP3   OH227321   0.274   5.171  12.782 -0.0182 -0.1646 -0.3235
 1969TIP3    H127322   0.216   5.098  12.806 -1.0365  0.3892 -1.0431
 1969TIP3    H227323   0.223   5.223  12.720  0.2693  1.7605  0.9654
 1970TIP3   OH227324   2.520   1.010   0.298  0.3215 -0.2902  0.1869
 1970TIP3    H127325   2.436   0.999   0.342  0.8398  1.5410  1.7545
 1970TIP3    H227326   2.497   1.038   0.209 -0.7026 -1.9936 -0.1294
 1971TIP3   OH227327   4.880   3.138   4.308 -0.1822 -0.1397  0.3394
 1971TIP3    H127328   4.832   3.164   4.229  1.7357 -0.0808 -0.8956
 1971TIP3    H227329   4.842   3.054   4.333  0.1928 -0.9646 -1.6318
 1972TIP3   OH227330   4.544   1.465   3.273 -0.1399  0.4037  0.1661
 1972TIP3    H127331   4.454   1.498   3.273 -0.1008  0.6404  2.0969
 1972TIP3    H227332   4.576   1.482   3.362  1.3154 -1.0340 -0.0316
 1973TIP3   OH227333   6.649   0.269   2.059  0.3988 -0.4456 -0.2765
 1973TIP3    H127334   6.644   0.246   1.966 -0.9235 -0.1746 -0.2792
 1973TIP3    H227335   6.589   0.209   2.102 -1.2559  1.3350  0.0145
 1974TIP3   OH227336   2.901   0.271  15.385  0.0317  0.4157  0.7589
 1974TIP3    H127337   2.847   0.337  15.341  0.9277  2.0120  1.9447
 1974TIP3    H227338   2.844   0.235  15.453 -0.6593 -0.5259 -0.2750
 1975TIP3   OH227339   4.256   1.056  13.234 -0.1164  0.4837 -0.1381
 1975TIP3    H127340   4.244   1.022  13.145  0.4368  0.7102 -0.3092
 1975TIP3    H227341   4.276   0.978  13.286 -1.5228  0.2037  0.0155
 1976TIP3   OH227342   6.254   4.519   4.046  0.2911 -0.8443  0.3614
 1976TIP3    H127343   6.195   4.594   4.040  2.5923  0.9775 -1.4404
 1976TIP3    H227344   6.241   4.485   4.135 -1.0044  1.5129  1.1653
 1977TIP3   OH227345   4.755   2.153  14.306 -0.5467 -0.2375 -0.0408
 1977TIP3    H127346   4.719   2.169  14.393 -1.4039 -2.1489  0.0150
 1977TIP3    H227347   4.822   2.086  14.320 -1.2639 -1.1859 -0.9133
 1978TIP3   OH227348   4.722   4.473   1.270  0.6662  0.0533 -0.2662
 1978TIP3    H127349   4.747   4.526   1.345 -0.2745  1.4224 -0.8776
 1978TIP3    H227350   4.790   4.406   1.264  0.8757  0.0423  1.6545
 1979TIP3   OH227351   0.043   0.243   2.281 -0.1675 -0.0647 -0.2684
 1979TIP3    H127352  -0.029   0.203   2.331  0.0745  1.6317  1.5436
 1979TIP3    H227353   0.004   0.263   2.196 -1.7044  0.3120  0.4883
 1980TIP3   OH227354   2.366   3.368   3.666  0.3371 -0.3046 -0.1488
 1980TIP3    H127355   2.389   3.278   3.645  0.3688 -0.3013 -0.1287
 1980TIP3    H227356   2.405   3.384   3.752 -2.6687 -1.4314  1.5663
 1981TIP3   OH227357   0.524   0.578   1.320 -0.1188 -0.0697 -0.4071
 1981TIP3    H127358   0.595   0.632   1.355 -0.6658  0.4334 -0.0499
 1981TIP3    H227359   0.467   0.640   1.275  0.2242 -0.6117 -1.6569
 1982TIP3   OH227360   4.553   4.321  16.936  0.2939  0.0308  0.5841
 1982TIP3    H127361   4.578   4.400  16.888  2.3377 -1.6336 -1.2875
 1982TIP3    H227362   4.619   4.311  17.004 -0.0452  0.0021  0.9158
 1983TIP3   OH227363   2.978   0.598  11.386  0.8959 -0.3141 -0.3499
 1983TIP3    H127364   2.944   0.562  11.305 -0.2667 -0.4365  0.1658
 1983TIP3    H227365   3.053   0.651  11.360  0.1612  0.1562 -1.5618
 1984TIP3   OH227366   0.956   1.006   1.449  0.0659  0.2947 -0.1103
 1984TIP3    H127367   0.881   0.957   1.418  0.0156  0.9963 -1.1299
 1984TIP3    H227368   0.965   0.980   1.541 -0.3779 -1.0642 -0.4276
 1985TIP3   OH227369   3.524   3.346  16.208 -0.1552 -0.3563  0.2363
 1985TIP3    H127370   3.584   3.352  16.283  1.6872 -0.6596 -1.1244
 1985TIP3    H227371   3.437   3.353  16.246  0.7038 -0.7215  2.4213
 1986TIP3   OH227372   2.323   4.563  14.057 -0.7952  0.5676  0.3475
 1986TIP3    H127373   2.243   4.571  14.006 -0.1147 -0.2453 -0.9170
 1986TIP3    H227374   2.347   4.470  14.049  1.3012  1.1595 -0.9817
 1987TIP3   OH227375   4.802   0.502   0.156  0.4414  0.0393 -0.5282
 1987TIP3    H127376   4.772   0.561   0.087  0.5567 -2.1890 -2.6358
 1987TIP3    H227377   4.723   0.481   0.205 -0.1364 -0.2414 -1.5528
 1988TIP3   OH227378   6.090   5.029  15.503  0.2877  0.0515 -0.1135
 1988TIP3    H127379   6.020   4.999  15.561 -0.4256 -0.1809 -1.0650
 1988TIP3    H227380   6.062   5.116  15.476  1.0014  0.4781  0.4788
 1989TIP3   OH227381   1.484   4.544  10.715  0.3869 -0.3986 -0.0228
 1989TIP3    H127382   1.575   4.553  10.743  0.3551 -2.2663  0.8565
 1989TIP3    H227383   1.433   4.584  10.786  0.4003 -3.3873  1.8587
 1990TIP3   OH227384   0.166   0.040   5.113  0.4449  0.7242 -0.1606
 1990TIP3    H127385   0.221   0.108   5.151  0.5563  0.4460  0.1814
 1990TIP3    H227386   0.077   0.073   5.123  0.2376 -0.3608  2.5840
 1991TIP3   OH227387   4.607   3.391  14.796  0.0882 -0.3607  0.0065
 1991TIP3    H127388   4.524   3.435  14.812  0.8831  1.0456  0.4355
 1991TIP3    H227389   4.583   3.308  14.756 -1.4717  0.8831 -1.8439
 1992TIP3   OH227390   4.775   5.550  12.308  0.4309  0.2264 -0.0058
 1992TIP3    H127391   4.867   5.523  12.303  0.2593 -0.2501 -0.8257
 1992TIP3    H227392   4.728   5.471  12.336 -0.0403 -0.3184 -2.1587
 1993TIP3   OH227393   5.546   0.176  13.997 -0.5904 -0.4173 -0.1254
 1993TIP3    H127394   5.596   0.098  14.021  1.6711  0.5586 -1.4128
 1993TIP3    H227395   5.509   0.207  14.079  1.2223 -0.9898  0.9536
 1994TIP3   OH227396   3.832   5.576  15.426  0.1153 -0.4995 -0.1957
 1994TIP3    H127397   3.815   5.565  15.333  2.3564  1.1591 -0.8924
 1994TIP3    H227398   3.924   5.604  15.431  0.4032 -1.5982  2.5934
 1995TIP3   OH227399   5.261   5.755   2.930 -0.5061 -0.1613  0.3802
 1995TIP3    H127400   5.174   5.754   2.890 -0.1238 -0.8992 -0.4676
 1995TIP3    H227401   5.320   5.778   2.858  0.0211  0.2605  0.9293
 1996TIP3   OH227402   3.489   4.337  12.676  0.3634  0.8080  0.5025
 1996TIP3    H127403   3.563   4.343  12.616  0.6670 -0.1490  0.7660
 1996TIP3    H227404   3.412   4.352  12.620  0.6989  0.9766  0.0746
 1997TIP3   OH227405   4.730   5.657  10.877 -0.3138 -0.5558  0.1919
 1997TIP3    H127406   4.797   5.724  10.867 -0.7158 -0.2086 -0.2467
 1997TIP3    H227407   4.767   5.580  10.832  0.3582 -0.7948  1.1313
 1998TIP3   OH227408   5.724   3.491  14.058 -0.1284  0.6538 -0.1001
 1998TIP3    H127409   5.812   3.500  14.022 -0.1378  1.3035  0.0239
 1998TIP3    H227410   5.730   3.417  14.119 -0.1716 -0.5990 -1.5692
 1999TIP3   OH227411   2.762   2.177   5.265 -0.1139 -0.0788  0.1870
 1999TIP3    H127412   2.792   2.263   5.235 -1.8716  0.3172 -0.5860
 1999TIP3    H227413   2.806   2.164   5.349  0.3798  1.4683  0.1943
 2000TIP3   OH227414   4.907   3.055  14.122 -0.1186 -0.5488  0.0332
 2000TIP3    H127415   4.915   3.051  14.026  0.4317  1.2433 -0.0249
 2000TIP3    H227416   4.908   2.963  14.149 -1.8364 -1.1830 -1.7876
 2001TIP3   OH227417   4.359   4.262   0.666  0.3165  0.2939  0.1194
 2001TIP3    H127418   4.280   4.208   0.656 -0.4765  1.3848  0.3240
 2001TIP3    H227419   4.389   4.244   0.755 -0.9745  1.4861  0.8428
 2002TIP3   OH227420   0.084   4.750   3.583  0.4637 -0.2471 -0.5696
 2002TIP3    H127421   0.018   4.739   3.651  0.9448  0.0590 -0.0480
 2002TIP3    H227422   0.040   4.801   3.515  0.2341  0.1613 -0.1210
 2003TIP3   OH227423   5.581   0.101   3.222 -0.2386 -0.2890 -0.3699
 2003TIP3    H127424   5.646   0.110   3.153  0.4436 -1.0982  0.1446
 2003TIP3    H227425   5.622   0.139   3.299  0.1795 -1.9429  0.2785
 2004TIP3   OH227426   4.365   5.033   3.974  0.3363 -0.4725 -0.1634
 2004TIP3    H127427   4.392   5.022   3.883 -0.2585 -0.4538 -0.3432
 2004TIP3    H227428   4.320   5.117   3.976  1.2531  0.0222  0.3675
 2005TIP3   OH227429   2.829   6.129   4.524 -0.8905  0.0745  0.2239
 2005TIP3    H127430   2.853   6.214   4.486 -0.1664 -0.3520 -0.3038
 2005TIP3    H227431   2.893   6.068   4.487 -2.1217 -0.9161 -0.3285
 2006TIP3   OH227432   4.438   5.248  12.007 -0.1240  0.2095  0.2483
 2006TIP3    H127433   4.366   5.292  12.053 -0.9655 -1.9310  1.1216
 2006TIP3    H227434   4.506   5.236  12.074  0.5775  1.1402 -0.2707
 2007TIP3   OH227435   4.290   4.372  17.201  0.1312  0.1572 -1.0232
 2007TIP3    H127436   4.284   4.278  17.185 -0.9799  0.2658 -1.3818
 2007TIP3    H227437   4.198   4.401  17.204  0.4347  1.0686  0.0233
 2008TIP3   OH227438   4.432   0.785  15.564 -0.0972 -0.0521  0.0122
 2008TIP3    H127439   4.510   0.840  15.555 -1.0451  1.2904 -0.2444
 2008TIP3    H227440   4.400   0.805  15.652  0.2853 -1.2363  0.4471
 2009TIP3   OH227441   3.838   1.836  11.762  0.9096  0.1336 -0.9235
 2009TIP3    H127442   3.860   1.914  11.813  0.8086 -0.4221 -0.0115
 2009TIP3    H227443   3.794   1.778  11.824 -0.2723 -0.0934 -1.9236
 2010TIP3   OH227444   6.032   1.054  14.565  0.2157 -0.0674  0.4337
 2010TIP3    H127445   5.969   1.104  14.513  0.4138  1.4611  1.5807
 2010TIP3    H227446   6.025   0.964  14.532 -0.2983  0.6535 -1.5848
 2011TIP3   OH227447   0.731   1.827   5.876 -0.2646  0.1357 -0.0758
 2011TIP3    H127448   0.708   1.756   5.936  0.3902  0.0556  0.0819
 2011TIP3    H227449   0.682   1.807   5.796 -0.1647 -0.4369  0.0036
 2012TIP3   OH227450   4.318   4.721   1.092 -0.1963 -0.5111  0.2107
 2012TIP3    H127451   4.392   4.684   1.044  0.1177  0.9313 -0.4484
 2012TIP3    H227452   4.240   4.683   1.050  0.1247 -1.4829  0.4561
 2013TIP3   OH227453   2.751   1.653   1.920 -0.6363 -0.3732 -0.1170
 2013TIP3    H127454   2.726   1.655   1.827 -0.5673 -2.2598 -0.2068
 2013TIP3    H227455   2.821   1.588   1.925 -1.2149 -0.9199  1.3995
 2014TIP3   OH227456   1.168   1.444   6.199  0.2340  0.1123 -0.0832
 2014TIP3    H127457   1.150   1.528   6.242 -0.1870 -1.0910  2.2992
 2014TIP3    H227458   1.108   1.383   6.241  0.4315 -1.3785 -1.8569
 2015TIP3   OH227459   4.661   0.091   1.755 -0.1019 -0.2265 -0.1839
 2015TIP3    H127460   4.653   0.127   1.843  0.1359  0.2900 -0.3707
 2015TIP3    H227461   4.702   0.160   1.704  0.3202 -0.7440 -0.5604
 2016TIP3   OH227462   3.589   1.932  10.927  0.7159 -0.1756  0.1954
 2016TIP3    H127463   3.610   1.950  11.019 -2.0799  0.9310  0.7075
 2016TIP3    H227464   3.609   1.839  10.916  1.2385 -0.3002  1.8689
 2017TIP3   OH227465   5.571   2.722  11.825  0.2372  0.0112  0.0860
 2017TIP3    H127466   5.570   2.803  11.877  1.4502  2.0415 -2.7501
 2017TIP3    H227467   5.493   2.728  11.770  0.0717 -1.0130  0.1928
 2018TIP3   OH227468   2.540   3.427  15.467  0.0070 -0.1267 -0.4488
 2018TIP3    H127469   2.454   3.386  15.455 -1.2398  2.4805 -1.1883
 2018TIP3    H227470   2.544   3.447  15.560 -0.1679 -0.2991 -0.4023
 2019TIP3   OH227471   2.779   0.911   0.299  0.4278 -0.0730 -0.4854
 2019TIP3    H127472   2.786   0.924   0.394  2.8593 -0.4563 -0.5563
 2019TIP3    H227473   2.694   0.949   0.276 -0.4825 -0.4780  1.9083
 2020TIP3   OH227474   6.662   2.430  11.082  0.5563 -0.3099 -0.1837
 2020TIP3    H127475   6.729   2.486  11.122  1.1603 -0.4077 -1.0213
 2020TIP3    H227476   6.703   2.344  11.077 -0.4977 -0.9422  1.4203
 2021TIP3   OH227477   2.324   0.009  14.647 -0.6261 -0.2736  0.2550
 2021TIP3    H127478   2.393   0.055  14.599 -0.7281  0.5920  0.9124
 2021TIP3    H227479   2.269  -0.030  14.579  0.2188 -0.5319 -0.2844
 2022TIP3   OH227480   4.358   5.485   1.272 -0.5494  0.7630  0.8297
 2022TIP3    H127481   4.414   5.561   1.255  2.4895 -1.2908  0.8960
 2022TIP3    H227482   4.400   5.440   1.345 -1.6595 -1.5109  0.1621
 2023TIP3   OH227483   5.459   4.919   6.499 -0.5197 -0.3085 -0.2408
 2023TIP3    H127484   5.467   4.919   6.404 -1.3775 -1.9498 -0.3387
 2023TIP3    H227485   5.381   4.972   6.516  0.6563  1.5134 -0.3066
 2024TIP3   OH227486   4.932   1.776  16.698 -0.4858 -0.2300 -0.0276
 2024TIP3    H127487   4.859   1.837  16.683 -0.2856  0.2106  0.7059
 2024TIP3    H227488   4.918   1.706  16.635  0.2223  1.3995 -2.0814
 2025TIP3   OH227489   1.758   0.054  15.722  0.3662  0.1316  0.0691
 2025TIP3    H127490   1.732  -0.039  15.726  0.3213  0.1268 -0.2746
 2025TIP3    H227491   1.821   0.058  15.650 -2.4574  0.9977 -2.6224
 2026TIP3   OH227492   4.986   0.716   5.366  0.1251  0.2554  0.0580
 2026TIP3    H127493   4.894   0.697   5.346  0.4882 -0.6616 -0.8134
 2026TIP3    H227494   4.984   0.755   5.453 -1.1893  1.2343 -0.3864
 2027TIP3   OH227495   1.850   4.905  11.803 -0.3467 -0.0346  0.5073
 2027TIP3    H127496   1.844   4.813  11.828  0.5203 -0.3111 -0.2214
 2027TIP3    H227497   1.817   4.953  11.879  0.3095 -0.9012  1.3690
 2028TIP3   OH227498   2.673   4.642  13.479 -0.2189 -0.2570  0.5127
 2028TIP3    H127499   2.729   4.695  13.536  1.0530 -0.3010 -0.6382
 2028TIP3    H227500   2.680   4.553  13.514  0.0620 -0.1753  0.6681
 2029TIP3   OH227501   0.291   3.712   6.585 -0.9609 -0.1166 -0.0189
 2029TIP3    H127502   0.318   3.793   6.540 -0.2564  0.5678  1.5424
 2029TIP3    H227503   0.352   3.646   6.554 -1.3326  0.0271 -1.0683
 2030TIP3   OH227504   0.334   5.042  10.930 -0.4003  0.3664 -0.0280
 2030TIP3    H127505   0.301   5.132  10.937  1.9971  1.8343 -4.2590
 2030TIP3    H227506   0.270   4.998  10.873  0.6778  0.8054 -1.6243
 2031TIP3   OH227507   1.670   3.824  14.947 -0.1889  0.0168  0.5537
 2031TIP3    H127508   1.625   3.884  15.006  1.2127  1.7981 -0.0889
 2031TIP3    H227509   1.659   3.738  14.987 -3.5944  0.4093  0.7026
 2032TIP3   OH227510   2.519   4.645  14.390 -0.2166 -0.6730 -0.7589
 2032TIP3    H127511   2.592   4.599  14.349  1.1464  0.9352 -0.2766
 2032TIP3    H227512   2.545   4.653  14.482 -1.8579 -1.6340 -0.1679
 2033TIP3   OH227513   6.374   5.062  16.855  0.0256  0.0115  0.7556
 2033TIP3    H127514   6.304   5.007  16.820  0.8410  0.2357 -1.3195
 2033TIP3    H227515   6.349   5.151  16.831  0.0849  0.2925  1.7007
 2034TIP3   OH227516   5.015   0.102   1.282 -0.8569  0.2608  0.3981
 2034TIP3    H127517   4.994   0.169   1.347 -0.4121 -0.2855  1.1031
 2034TIP3    H227518   4.936   0.097   1.227 -1.3735  0.4554  1.1126
 2035TIP3   OH227519   6.341   4.529   2.465 -0.5132  0.5482 -0.6466
 2035TIP3    H127520   6.417   4.587   2.468  0.4202 -0.6804 -0.2169
 2035TIP3    H227521   6.369   4.448   2.507 -1.6260 -0.4277 -1.6716
 2036TIP3   OH227522   0.605   1.287   4.442  0.6812 -0.2262 -0.2065
 2036TIP3    H127523   0.661   1.227   4.491 -1.8818 -2.8487 -0.1920
 2036TIP3    H227524   0.588   1.359   4.503  2.2762 -0.4466  0.5355
 2037TIP3   OH227525   4.177   0.516   4.236  0.4094  0.3803  0.0735
 2037TIP3    H127526   4.231   0.506   4.314 -0.6682 -0.0130  0.7993
 2037TIP3    H227527   4.087   0.502   4.267 -0.1007  0.8686 -1.1164
 2038TIP3   OH227528   0.815   2.717  13.990  0.4082  0.2976  0.0896
 2038TIP3    H127529   0.867   2.733  13.912  1.4292 -1.6546  0.2979
 2038TIP3    H227530   0.739   2.668  13.959  0.3674  0.2892  0.2004
 2039TIP3   OH227531   3.410   1.193   1.783  0.2823 -0.5600 -0.0471
 2039TIP3    H127532   3.460   1.274   1.794 -1.0410  0.3002 -0.1146
 2039TIP3    H227533   3.427   1.143   1.863 -0.3462  0.6288  0.8685
 2040TIP3   OH227534   5.524   0.301   0.359 -0.6170  0.0030  0.1009
 2040TIP3    H127535   5.571   0.248   0.294 -2.1591 -0.4990 -0.6524
 2040TIP3    H227536   5.518   0.388   0.319  1.2793  0.6125  1.0258
 2041TIP3   OH227537   1.094   0.146   3.325 -0.4000 -0.2396 -0.5481
 2041TIP3    H127538   1.123   0.113   3.240 -1.1530 -0.3784 -0.7522
 2041TIP3    H227539   1.004   0.174   3.312 -0.6438 -0.5816  0.2838
 2042TIP3   OH227540   0.004   2.648   0.636 -0.4820 -0.3046  0.3820
 2042TIP3    H127541   0.050   2.590   0.575 -0.2848  0.0001  0.2337
 2042TIP3    H227542  -0.025   2.591   0.707 -0.5516 -0.6316  0.0910
 2043TIP3   OH227543   3.516   5.582  15.380 -0.3135 -0.2859  0.3758
 2043TIP3    H127544   3.552   5.649  15.438 -0.4128 -0.7182  0.9545
 2043TIP3    H227545   3.580   5.510  15.383  0.7003  0.4551 -1.6444
 2044TIP3   OH227546   4.229   5.319   3.003 -0.3861  0.6055  0.0537
 2044TIP3    H127547   4.296   5.361   3.057  0.0475 -0.0886  0.0673
 2044TIP3    H227548   4.167   5.389   2.984 -0.5590  0.8584  1.4637
 2045TIP3   OH227549   1.441   3.508  14.184  0.4079 -0.4323 -0.2848
 2045TIP3    H127550   1.429   3.499  14.278  1.9009 -0.5750 -0.0813
 2045TIP3    H227551   1.490   3.590  14.173  0.5893 -0.6138 -0.8963
 2046TIP3   OH227552   6.750   4.107   3.185 -0.2438  0.2536 -0.4095
 2046TIP3    H127553   6.722   4.110   3.277  0.2537 -1.8709 -0.1394
 2046TIP3    H227554   6.668   4.101   3.136 -0.4846  0.7015 -0.0791
 2047TIP3   OH227555   3.418   0.469   1.153 -0.0611  0.1130 -0.3415
 2047TIP3    H127556   3.421   0.518   1.071  0.9360 -0.1959 -0.5018
 2047TIP3    H227557   3.498   0.417   1.153  1.0268  1.6542  1.8012
 2048TIP3   OH227558   0.672   6.046  12.750  0.2521 -0.7934  0.3814
 2048TIP3    H127559   0.686   6.137  12.722 -0.7380 -0.7637 -0.0507
 2048TIP3    H227560   0.688   5.994  12.671  0.6369 -0.9841  0.5824
 2049TIP3   OH227561   0.879   4.208   3.596  0.3889 -0.6607 -0.5886
 2049TIP3    H127562   0.792   4.240   3.618  0.0138 -0.0802 -2.6329
 2049TIP3    H227563   0.865   4.115   3.576  0.6031 -1.0164  0.8551
 2050TIP3   OH227564   6.603   2.487   2.717 -0.4346  0.2210  0.2401
 2050TIP3    H127565   6.552   2.566   2.734 -0.8442  0.9098 -3.3321
 2050TIP3    H227566   6.539   2.416   2.719 -0.3685  0.1688  1.7300
 2051TIP3   OH227567   2.817   0.634   2.623 -0.0569 -0.2735  0.0404
 2051TIP3    H127568   2.811   0.543   2.593  1.2055  0.2474 -2.0569
 2051TIP3    H227569   2.749   0.680   2.574  0.8360  0.2871 -0.7125
 2052TIP3   OH227570   0.897   0.769  12.393 -0.0621 -0.2982 -0.4676
 2052TIP3    H127571   0.915   0.861  12.412  0.6753 -0.6943  0.9268
 2052TIP3    H227572   0.946   0.720  12.460 -1.9069 -1.6270  0.0192
 2053TIP3   OH227573   4.004   2.275  16.510 -0.1170 -0.3279  0.1953
 2053TIP3    H127574   4.064   2.227  16.566  0.1086 -0.8842 -0.5046
 2053TIP3    H227575   4.058   2.346  16.473  0.0537 -0.6844 -0.2484
 2054TIP3   OH227576   1.897   2.557  12.512  0.0475 -0.2463  0.3218
 2054TIP3    H127577   1.961   2.489  12.490 -2.0297 -2.6816  1.3299
 2054TIP3    H227578   1.902   2.619  12.439  2.2506 -1.2719 -0.4945
 2055TIP3   OH227579   4.943   5.737   4.065 -0.7659 -0.4032  0.2589
 2055TIP3    H127580   4.875   5.670   4.052  2.6859 -4.5709  1.2013
 2055TIP3    H227581   4.980   5.716   4.151  0.9393  2.4433  0.3308
 2056TIP3   OH227582   2.152   1.971  11.896 -0.3767  0.0737  0.5560
 2056TIP3    H127583   2.236   2.011  11.873 -0.7725  1.0779  0.8183
 2056TIP3    H227584   2.168   1.932  11.983  0.0249 -0.3979  0.2771
 2057TIP3   OH227585   5.856   1.385  16.797  0.1711 -0.0865 -0.2993
 2057TIP3    H127586   5.782   1.333  16.766 -0.9318  0.3649  1.4561
 2057TIP3    H227587   5.823   1.474  16.803  0.9045  0.1584  0.3544
 2058TIP3   OH227588   3.241   4.761  15.021  0.0727 -0.6352  0.5691
 2058TIP3    H127589   3.234   4.738  15.114 -0.8806  0.4370  0.7772
 2058TIP3    H227590   3.157   4.735  14.984 -0.0407  0.1113  0.2833
 2059TIP3   OH227591   0.710   0.441  13.018 -0.4809 -0.4359  0.1240
 2059TIP3    H127592   0.637   0.405  12.966 -0.8392  0.0582  0.2805
 2059TIP3    H227593   0.689   0.534  13.028  1.1326  0.1497 -1.4404
 2060TIP3   OH227594   6.067   4.075  12.121  0.2525 -0.7167  0.6214
 2060TIP3    H127595   5.999   4.031  12.174 -0.8428 -0.3240 -0.4086
 2060TIP3    H227596   6.096   4.148  12.175 -0.5946 -0.5288  0.8378
 2061TIP3   OH227597   6.364   3.204  15.656 -0.5535  0.4488 -0.0185
 2061TIP3    H127598   6.294   3.218  15.591 -0.5178 -0.6538 -0.3256
 2061TIP3    H227599   6.443   3.191  15.603 -0.9175 -2.8339  0.0433
 2062TIP3   OH227600   5.195   0.875  10.402 -0.1755 -0.0015  0.1094
 2062TIP3    H127601   5.169   0.807  10.464  0.3398 -1.0087 -0.7404
 2062TIP3    H227602   5.257   0.831  10.343 -1.6999  0.5085 -2.0022
 2063TIP3   OH227603   0.656   5.337  15.276 -0.3787  0.1966  0.1474
 2063TIP3    H127604   0.564   5.360  15.291  0.0055  1.9759  0.0431
 2063TIP3    H227605   0.653   5.259  15.220 -1.8178  0.3650 -0.0424
 2064TIP3   OH227606   3.836   4.702   4.333  0.0717  0.8128  0.4966
 2064TIP3    H127607   3.923   4.681   4.369  0.3293  0.2700 -0.4084
 2064TIP3    H227608   3.799   4.617   4.311 -0.6043  1.0631  0.6525
 2065TIP3   OH227609   1.759   4.255  12.364 -0.1327  0.1340 -0.2664
 2065TIP3    H127610   1.765   4.300  12.280 -0.8022  0.8231  0.0346
 2065TIP3    H227611   1.769   4.163  12.343 -0.9550  0.2386 -1.2033
 2066TIP3   OH227612   0.162   1.258   1.775  0.5120 -0.1504 -0.0309
 2066TIP3    H127613   0.220   1.334   1.784  0.0641  0.5858 -2.5430
 2066TIP3    H227614   0.074   1.295   1.773  0.2093 -0.8614 -0.1775
 2067TIP3   OH227615   4.005   2.826  15.401  0.8004 -0.2259 -0.0701
 2067TIP3    H127616   3.960   2.780  15.330  1.0770 -1.1614  0.3472
 2067TIP3    H227617   3.982   2.776  15.480  1.7711 -0.1379  0.2841
 2068TIP3   OH227618   5.222   3.454  16.914  0.2761 -0.0833  0.6421
 2068TIP3    H127619   5.299   3.476  16.965 -0.7942  0.1130  2.2284
 2068TIP3    H227620   5.171   3.535  16.911 -1.3368 -0.9596  2.3173
 2069TIP3   OH227621   0.555   5.753   4.113  0.5133  0.3817 -0.0384
 2069TIP3    H127622   0.467   5.772   4.082  1.4166 -0.5137 -3.6721
 2069TIP3    H227623   0.565   5.806   4.192 -2.5685  2.0370 -0.6031
 2070TIP3   OH227624   1.317   5.828  13.225  0.0707 -0.0065 -0.1499
 2070TIP3    H127625   1.339   5.916  13.197  0.1897  0.0346  0.0669
 2070TIP3    H227626   1.283   5.839  13.314 -0.4885 -0.1090 -0.3458
 2071TIP3   OH227627   2.014   4.457  13.119 -0.0370 -0.6237  0.1482
 2071TIP3    H127628   2.089   4.512  13.096  0.3556 -0.6949  1.2014
 2071TIP3    H227629   1.938   4.506  13.088  0.4037 -0.2610 -0.3826
 2072TIP3   OH227630   6.472   2.127   0.397  0.4033  0.2041 -0.0732
 2072TIP3    H127631   6.412   2.188   0.354 -1.4973 -2.4710 -1.5915
 2072TIP3    H227632   6.559   2.149   0.363 -0.5610  0.5621 -2.4739
 2073TIP3   OH227633   4.104   3.759  12.839  0.4560  0.0007  0.1474
 2073TIP3    H127634   4.170   3.693  12.860 -0.5897 -0.4115  2.5293
 2073TIP3    H227635   4.038   3.713  12.788  0.9097 -0.1483 -0.3112
 2074TIP3   OH227636   5.699   1.717  12.274 -0.2562 -0.0244  0.6387
 2074TIP3    H127637   5.622   1.753  12.231 -0.6417 -0.7731  0.6931
 2074TIP3    H227638   5.667   1.685  12.358  0.2423  0.2636  0.9425
 2075TIP3   OH227639   4.404   4.192  13.386  0.3105 -0.0048  0.1606
 2075TIP3    H127640   4.441   4.110  13.352  1.3794  0.1366  0.9670
 2075TIP3    H227641   4.309   4.176  13.385  0.3679 -0.4780 -1.6404
 2076TIP3   OH227642   5.658   3.570  10.758 -0.4501  0.0008  0.3846
 2076TIP3    H127643   5.579   3.516  10.753 -0.6249  0.0194  2.2541
 2076TIP3    H227644   5.725   3.511  10.794 -0.0844  0.4689  0.4752
 2077TIP3   OH227645   1.979   5.575  12.768 -0.8812 -0.9517 -0.0057
 2077TIP3    H127646   2.002   5.511  12.836  0.0720 -0.2986  0.3039
 2077TIP3    H227647   2.019   5.541  12.688 -1.3128 -1.2979 -0.0814
 2078TIP3   OH227648   4.020   5.925  17.040 -0.3598 -0.3963 -0.3745
 2078TIP3    H127649   4.020   6.013  17.003 -2.2316  0.8074  2.2226
 2078TIP3    H227650   4.101   5.885  17.007  1.0312  2.5968 -0.8686
 2079TIP3   OH227651   1.997   2.786  16.144  0.0757  0.2683  0.1207
 2079TIP3    H127652   2.067   2.830  16.191 -0.5796 -0.1652  1.5449
 2079TIP3    H227653   1.979   2.844  16.069 -0.6332  2.3860  1.8268
 2080TIP3   OH227654   0.518   4.716   4.492  0.3232  0.2151 -0.4362
 2080TIP3    H127655   0.517   4.812   4.490 -0.5431  0.2298  0.2313
 2080TIP3    H227656   0.468   4.691   4.414 -1.4271  0.3552  0.5847
 2081TIP3   OH227657   1.887   0.539  12.403 -0.3588 -0.1019 -0.2231
 2081TIP3    H127658   1.971   0.511  12.439  0.8958  1.9565 -1.3520
 2081TIP3    H227659   1.824   0.473  12.435  1.7599 -2.1400  0.0388
 2082TIP3   OH227660   2.398   5.811  11.139 -1.1428  0.1006  0.2249
 2082TIP3    H127661   2.477   5.866  11.131 -0.6443 -0.7920 -1.4339
 2082TIP3    H227662   2.366   5.829  11.227  2.4261 -1.4890  2.0984
 2083TIP3   OH227663   5.258   5.880  11.446 -0.2072  0.6029 -0.2361
 2083TIP3    H127664   5.200   5.935  11.393 -2.6955 -0.7408  0.9173
 2083TIP3    H227665   5.206   5.856  11.522  2.2896  0.1548  1.4698
 2084TIP3   OH227666   1.310   2.669   1.977  0.1084 -0.0519  0.3369
 2084TIP3    H127667   1.350   2.657   1.891  1.6031  1.3031  0.7919
 2084TIP3    H227668   1.216   2.672   1.960  0.3827  0.4446 -1.2802
 2085TIP3   OH227669   0.451   5.227  13.012  0.0459  0.2280 -0.9375
 2085TIP3    H127670   0.411   5.211  12.927  0.0340  0.8146 -1.0510
 2085TIP3    H227671   0.379   5.254  13.069  0.1561  0.5424 -0.9395
 2086TIP3   OH227672   2.427   1.848   5.960  0.4429 -0.2561  0.0326
 2086TIP3    H127673   2.363   1.913   5.991  1.4177  1.1201 -0.7086
 2086TIP3    H227674   2.384   1.805   5.886  0.3110  0.5729 -0.3853
 2087TIP3   OH227675   1.132   0.066  11.632 -0.2982  0.2638 -0.2245
 2087TIP3    H127676   1.221   0.034  11.618 -0.1435  0.7418 -0.3666
 2087TIP3    H227677   1.132   0.100  11.721 -0.6156 -0.6256  0.1155
 2088TIP3   OH227678   2.068   6.129   1.899 -0.5104 -0.0437  0.8726
 2088TIP3    H127679   2.070   6.145   1.993 -0.2316 -0.0858  0.8759
 2088TIP3    H227680   2.057   6.035   1.890  1.1164 -0.2746  0.8865
 2089TIP3   OH227681   0.340   3.886   4.814 -0.5014  0.0616  0.3317
 2089TIP3    H127682   0.327   3.906   4.721 -0.8629 -3.5664 -0.5606
 2089TIP3    H227683   0.264   3.922   4.857  0.0260  2.4666 -0.6046
 2090TIP3   OH227684   2.763   1.573  15.232  0.2717  0.0776 -0.5419
 2090TIP3    H127685   2.696   1.540  15.291  1.3553 -1.8254 -0.3050
 2090TIP3    H227686   2.730   1.553  15.144  0.0085  0.1850 -0.4653
 2091TIP3   OH227687   6.237   3.816  14.308 -0.4303  0.2258 -0.3701
 2091TIP3    H127688   6.311   3.876  14.321  0.5343 -1.0060  0.0307
 2091TIP3    H227689   6.170   3.869  14.264 -0.9954  2.5938  3.0033
 2092TIP3   OH227690   0.389   5.301  16.861  0.1404 -0.0652  0.0552
 2092TIP3    H127691   0.296   5.290  16.841  0.0039  0.6707  0.2504
 2092TIP3    H227692   0.432   5.227  16.819 -0.2592  0.7951 -1.9957
 2093TIP3   OH227693   0.681   3.450   4.505  0.2843  0.4431  0.1978
 2093TIP3    H127694   0.633   3.532   4.497  0.7020  0.6025 -0.8454
 2093TIP3    H227695   0.632   3.398   4.569  0.4585  1.8139  1.4898
 2094TIP3   OH227696   3.947   3.279  12.696  0.0758  0.3839 -0.1635
 2094TIP3    H127697   3.943   3.359  12.749  0.7426 -0.1873  0.7605
 2094TIP3    H227698   3.859   3.242  12.703  0.2346  0.1682  0.7815
 2095TIP3   OH227699   5.568   2.532  11.460  0.1166  0.0313 -0.0819
 2095TIP3    H127700   5.553   2.619  11.497 -0.8272  0.1369 -0.6787
 2095TIP3    H227701   5.525   2.473  11.522  0.1940  0.0436 -0.0162
 2096TIP3   OH227702   2.855   1.029   3.291  0.1423  0.0594  0.3983
 2096TIP3    H127703   2.805   1.064   3.217  1.7725 -1.9684 -1.8226
 2096TIP3    H227704   2.926   1.092   3.304 -0.4303  0.6755  0.5778
 2097TIP3   OH227705   1.751   5.040  12.016 -0.3482  0.4522  0.7902
 2097TIP3    H127706   1.787   5.127  12.000 -1.7602  1.1090  1.0849
 2097TIP3    H227707   1.762   5.027  12.111  0.2961  0.0925  0.6740
 2098TIP3   OH227708   1.103   6.041   4.977  0.5494 -0.2539 -0.0822
 2098TIP3    H127709   1.029   5.983   4.996  0.1161 -0.1821 -1.4697
 2098TIP3    H227710   1.179   5.991   5.005  0.1223 -1.2180 -0.5898
 2099TIP3   OH227711   0.301   5.408  14.967  0.0435 -0.3877  0.2275
 2099TIP3    H127712   0.290   5.441  15.056 -0.7535 -1.9851  0.7692
 2099TIP3    H227713   0.238   5.457  14.914 -0.7828 -0.6861  0.9146
 2100TIP3   OH227714   4.640   1.721   5.274  0.4778 -0.1583  0.0316
 2100TIP3    H127715   4.720   1.720   5.327  0.8774 -0.8251 -0.5675
 2100TIP3    H227716   4.657   1.659   5.203 -1.1430 -1.5217  0.7377
 2101TIP3   OH227717   2.927   3.827  13.838 -0.1050  0.1493 -0.0465
 2101TIP3    H127718   2.950   3.763  13.770 -1.5706 -0.6954  0.2309
 2101TIP3    H227719   2.931   3.778  13.920  2.0591  1.2555  0.6054
 2102TIP3   OH227720   3.254   3.622  13.483  1.0837 -0.2168 -0.2475
 2102TIP3    H127721   3.270   3.648  13.392  1.2847  0.5290 -0.0131
 2102TIP3    H227722   3.333   3.650  13.529  0.8269 -0.2610  0.2164
 2103TIP3   OH227723   3.945   1.561  15.914 -0.3306  0.1335 -0.5912
 2103TIP3    H127724   3.958   1.646  15.871 -1.6458  0.0411 -1.2077
 2103TIP3    H227725   3.922   1.584  16.004  3.0577  0.3156  0.3638
 2104TIP3   OH227726   1.947   2.789   4.647  0.3280 -0.0683 -0.0495
 2104TIP3    H127727   1.854   2.805   4.634  0.6552  0.5216 -1.8346
 2104TIP3    H227728   1.968   2.715   4.590  0.9489 -0.2071  0.3421
 2105TIP3   OH227729   1.227   3.356  12.682 -0.3407 -0.2840 -0.3046
 2105TIP3    H127730   1.194   3.270  12.657 -1.8295  0.4164 -0.8336
 2105TIP3    H227731   1.289   3.338  12.753 -1.6484 -1.6803  0.5494
 2106TIP3   OH227732   6.187   4.775  14.215 -0.0155  0.1812 -0.4575
 2106TIP3    H127733   6.218   4.689  14.241  0.2226  0.5079  0.3539
 2106TIP3    H227734   6.151   4.813  14.295 -3.7574 -0.6688 -1.5388
 2107TIP3   OH227735   0.753   2.041   1.756  0.0879 -0.1324  0.3037
 2107TIP3    H127736   0.704   2.018   1.677 -1.8770  0.1314  1.3715
 2107TIP3    H227737   0.753   2.137   1.756 -0.2960 -0.1283  0.8157
 2108TIP3   OH227738   2.765   1.161  14.462 -0.6333 -0.4145 -0.6722
 2108TIP3    H127739   2.829   1.110  14.511  0.0800  0.1078 -1.0413
 2108TIP3    H227740   2.793   1.154  14.371  0.7362  2.2543 -0.5722
 2109TIP3   OH227741   5.539   4.447   0.572  0.2960  0.3672  0.2550
 2109TIP3    H127742   5.591   4.441   0.652  1.3016 -1.2596 -0.4596
 2109TIP3    H227743   5.591   4.503   0.514 -0.3066  1.3335  0.6349
 2110TIP3   OH227744   1.814   3.829  17.247  0.2662  0.7394  0.1534
 2110TIP3    H127745   1.797   3.766  17.178 -1.0911  2.1745 -0.8902
 2110TIP3    H227746   1.790   3.783  17.328  1.8550 -0.9496 -0.2705
 2111TIP3   OH227747   1.408   3.318   0.280  0.0551  0.7540  0.0244
 2111TIP3    H127748   1.331   3.325   0.224 -0.1850  2.4394  0.5322
 2111TIP3    H227749   1.373   3.312   0.369  0.4990  0.3250  0.1797
 2112TIP3   OH227750   6.700   4.174   2.251  0.0718  0.0286 -0.2354
 2112TIP3    H127751   6.735   4.224   2.325 -1.1587 -1.5042  1.4683
 2112TIP3    H227752   6.605   4.178   2.262 -0.3997  2.2246 -3.4962
 2113TIP3   OH227753   3.187   6.007  16.065  0.3629  0.0552  0.1090
 2113TIP3    H127754   3.225   6.091  16.041 -0.3606  0.5381  0.6048
 2113TIP3    H227755   3.124   5.988  15.996  0.3063  0.0784  0.1540
 2114TIP3   OH227756   4.396   5.966  11.550 -0.1249  0.0367  0.3145
 2114TIP3    H127757   4.388   6.046  11.601  0.7484  0.1817  0.2394
 2114TIP3    H227758   4.464   5.985  11.485 -0.3117 -0.5729 -0.0751
 2115TIP3   OH227759   4.730   6.585   2.086 -0.2063 -0.1873  0.3052
 2115TIP3    H127760   4.813   6.558   2.047 -0.4624 -1.9450  0.8872
 2115TIP3    H227761   4.751   6.665   2.134  1.3800 -1.0827  1.1924
 2116TIP3   OH227762   6.751   6.573  11.817  0.4970  0.1772 -0.2677
 2116TIP3    H127763   6.807   6.510  11.770  0.0021 -1.4376  1.2117
 2116TIP3    H227764   6.813   6.630  11.862  0.9804 -0.6605  0.1599
 2117TIP3   OH227765   5.252   0.299  10.975 -0.2567  0.3799 -0.5067
 2117TIP3    H127766   5.169   0.320  10.931 -1.1009 -0.9651  0.3849
 2117TIP3    H227767   5.262   0.205  10.964  1.3037  0.5469 -0.7922
 2118TIP3   OH227768   0.379   1.500  12.718  0.7253  0.1023  0.0057
 2118TIP3    H127769   0.420   1.458  12.642  1.4258  1.4243 -0.3906
 2118TIP3    H227770   0.289   1.469  12.718  0.7822 -0.1086 -1.2439
 2119TIP3   OH227771   2.413   0.315  16.542 -0.5709  0.2379  0.4306
 2119TIP3    H127772   2.483   0.376  16.519  0.8464 -0.4992  2.5143
 2119TIP3    H227773   2.381   0.282  16.457  0.5837  1.6889 -0.6223
 2120TIP3   OH227774   5.098   3.168   0.440 -0.0134  0.0192  0.0861
 2120TIP3    H127775   5.126   3.258   0.424  0.1783  0.0638  0.6483
 2120TIP3    H227776   5.006   3.166   0.412 -0.9087  1.1439  2.5917
 2121TIP3   OH227777   5.203   5.079   1.292  0.7393  0.0676 -0.1372
 2121TIP3    H127778   5.230   5.048   1.206  0.0662 -0.7998 -0.0492
 2121TIP3    H227779   5.144   5.011   1.325 -0.5247  1.2922  0.2109
 2122TIP3   OH227780   6.128   4.419  17.069  0.4364  0.0717  0.8562
 2122TIP3    H127781   6.076   4.484  17.023  1.1608  0.2769  0.3116
 2122TIP3    H227782   6.068   4.381  17.134 -0.3324  0.4099  0.3488
 2123TIP3   OH227783   2.109   1.590   0.079 -0.0045  0.1117  0.0496
 2123TIP3    H127784   2.043   1.639   0.029  0.9764  1.6101  0.1756
 2123TIP3    H227785   2.071   1.503   0.089 -0.9572  0.2520 -1.8814
 2124TIP3   OH227786   2.128   4.259  17.295 -0.1681 -0.1601  0.4076
 2124TIP3    H127787   2.219   4.240  17.318 -0.0364 -0.0750 -0.0376
 2124TIP3    H227788   2.092   4.299  17.374  0.3011  0.2063  0.4446
 2125TIP3   OH227789   6.343   6.651   2.855 -0.7923  0.4078  0.7653
 2125TIP3    H127790   6.344   6.641   2.760  1.9408 -2.6226  0.9329
 2125TIP3    H227791   6.261   6.611   2.882 -0.6876 -0.5435 -0.2408
 2126TIP3   OH227792   4.183   3.920   3.104  0.3142 -0.1627  0.3448
 2126TIP3    H127793   4.117   3.883   3.162 -0.5016 -0.5146 -0.7847
 2126TIP3    H227794   4.139   3.994   3.062  1.1373  0.5596  0.7251
 2127TIP3   OH227795   3.883   6.769   4.232  0.2500 -0.1795 -0.3413
 2127TIP3    H127796   3.928   6.850   4.206  0.9544 -1.4930 -3.8167
 2127TIP3    H227797   3.816   6.757   4.165 -3.4478  0.0648  2.9675
 2128TIP3   OH227798   5.117   3.976  17.006  0.4693  0.2834 -0.5290
 2128TIP3    H127799   5.098   4.047  17.067 -0.0844  0.1910 -0.5926
 2128TIP3    H227800   5.033   3.933  16.991  0.8103 -0.4181 -0.4607
 2129TIP3   OH227801   2.905   1.507   1.463 -0.3469 -0.3395 -0.1377
 2129TIP3    H127802   2.846   1.542   1.395  0.1561 -3.3839 -2.3998
 2129TIP3    H227803   2.852   1.441   1.508 -0.4384  1.1490  2.0442
 2130TIP3   OH227804   3.236   2.391  12.497 -0.2021  0.3866 -0.1668
 2130TIP3    H127805   3.307   2.340  12.534 -0.9350  0.4991  1.4600
 2130TIP3    H227806   3.193   2.331  12.436 -0.2488 -0.5046  0.7277
 2131TIP3   OH227807   5.741   0.400   3.874  0.6084 -0.0825 -0.8649
 2131TIP3    H127808   5.811   0.381   3.811  0.9545 -0.5027 -0.3604
 2131TIP3    H227809   5.722   0.316   3.914  1.8186  0.4978  1.0630
 2132TIP3   OH227810   2.639   6.518   0.864 -0.8713  0.1709 -0.7478
 2132TIP3    H127811   2.645   6.473   0.779 -1.4558  2.1548 -1.8882
 2132TIP3    H227812   2.697   6.467   0.921 -0.2327 -1.0606 -2.3982
 2133TIP3   OH227813   0.262   2.306  12.477  0.4397  0.3720  0.6490
 2133TIP3    H127814   0.279   2.225  12.525 -0.3533  0.1641  0.5839
 2133TIP3    H227815   0.212   2.360  12.538  1.5083  1.0789  0.9272
 2134TIP3   OH227816   2.148   0.925   1.598  0.4160  0.8529 -0.5665
 2134TIP3    H127817   2.093   0.853   1.567 -0.4735  1.8616 -1.3927
 2134TIP3    H227818   2.228   0.918   1.546  0.8966 -0.2959  0.2680
 2135TIP3   OH227819   0.836   3.904  11.023 -0.2292 -0.0348 -0.3093
 2135TIP3    H127820   0.745   3.906  10.995 -0.1095  1.1423 -0.6859
 2135TIP3    H227821   0.877   3.977  10.976  0.3047  1.1702  1.8821
 2136TIP3   OH227822   1.152   2.890  11.674 -0.1913  0.5010  0.0012
 2136TIP3    H127823   1.135   2.971  11.722 -0.5888  0.4757 -0.0956
 2136TIP3    H227824   1.067   2.866  11.636 -0.1255 -0.0640  0.1926
 2137TIP3   OH227825   4.709   0.648   5.843  0.0433 -0.3695 -0.7085
 2137TIP3    H127826   4.636   0.697   5.807 -0.3477 -0.9357 -0.7027
 2137TIP3    H227827   4.668   0.574   5.889  0.5391  0.1737  0.6571
 2138TIP3   OH227828   1.551   4.854   3.093 -0.1871  0.2393  0.2975
 2138TIP3    H127829   1.456   4.867   3.085 -0.5726 -2.3907 -0.2665
 2138TIP3    H227830   1.586   4.885   3.009 -0.8460 -0.8966 -0.4202
 2139TIP3   OH227831   1.533   6.696  12.114 -0.6834  0.1216 -0.8544
 2139TIP3    H127832   1.550   6.787  12.090  1.6779  0.3016  1.0743
 2139TIP3    H227833   1.619   6.654  12.112 -0.9005 -0.8588  2.6151
 2140TIP3   OH227834   1.492   1.038   1.461 -0.0697 -0.7598 -0.5946
 2140TIP3    H127835   1.504   1.060   1.554 -1.0681 -0.7070 -0.4687
 2140TIP3    H227836   1.478   0.944   1.460 -0.5435 -0.6947 -0.6291
 2141TIP3   OH227837   3.681   4.103  13.299  0.1822  0.0049  0.6277
 2141TIP3    H127838   3.756   4.157  13.273  0.0817  0.8690  2.0864
 2141TIP3    H227839   3.709   4.060  13.379 -0.5693 -0.3720  0.6954
 2142TIP3   OH227840   0.708   0.978   4.976 -0.1273  0.5928  0.5934
 2142TIP3    H127841   0.770   0.928   4.923 -0.6980 -1.0266  1.3880
 2142TIP3    H227842   0.759   1.008   5.051  0.2869  1.4968 -0.0298
 2143TIP3   OH227843   6.522   1.626   3.537 -0.1387 -0.2648  0.2256
 2143TIP3    H127844   6.528   1.709   3.490 -0.1259  1.4821  3.1067
 2143TIP3    H227845   6.452   1.579   3.492 -1.0542  1.8489 -0.7140
 2144TIP3   OH227846   4.523   1.095   1.350  0.2106  0.0808  0.2018
 2144TIP3    H127847   4.583   1.140   1.409 -0.2137 -1.8529  2.2377
 2144TIP3    H227848   4.448   1.155   1.342  0.6522  0.7558  0.9231
 2145TIP3   OH227849   3.518   0.540  14.853  0.7253  0.2194  0.0196
 2145TIP3    H127850   3.575   0.464  14.847 -1.6468 -1.5960 -1.2586
 2145TIP3    H227851   3.476   0.532  14.939 -1.1169 -1.2360 -0.9471
 2146TIP3   OH227852   1.542   0.065   0.726 -0.4521 -0.4696 -0.1255
 2146TIP3    H127853   1.467   0.119   0.702  0.1172  0.5101  0.2562
 2146TIP3    H227854   1.604   0.078   0.655  0.2461  0.4981  0.6403
 2147TIP3   OH227855   2.834   2.248   1.718 -0.4998  0.5064 -0.2848
 2147TIP3    H127856   2.759   2.191   1.739  0.4972 -0.8238 -0.2027
 2147TIP3    H227857   2.860   2.284   1.803 -0.9524  0.8602 -0.2922
 2148TIP3   OH227858   1.821   5.852   3.878  0.7736  0.3222  0.1268
 2148TIP3    H127859   1.814   5.813   3.965 -0.1749 -0.2329 -0.1908
 2148TIP3    H227860   1.897   5.911   3.885 -0.7197  2.1978  2.0649
 2149TIP3   OH227861   4.263   0.566   4.645 -0.5550  0.2287  0.1280
 2149TIP3    H127862   4.186   0.531   4.601 -0.0500  0.6996 -1.1715
 2149TIP3    H227863   4.334   0.506   4.621 -0.3046  0.3896  0.4558
 2150TIP3   OH227864   4.719   3.957   4.423  0.1008  0.3755 -0.4777
 2150TIP3    H127865   4.730   3.995   4.336  0.9147  1.9685  0.2729
 2150TIP3    H227866   4.765   4.018   4.482 -1.4432 -0.0003  1.2150
 2151TIP3   OH227867   1.177   6.469  10.719  0.2640 -1.0167 -0.1096
 2151TIP3    H127868   1.220   6.396  10.765  0.3878 -1.2521 -0.5890
 2151TIP3    H227869   1.205   6.547  10.767 -1.4825 -1.3964  1.6746
 2152TIP3   OH227870   2.644   2.871   5.906 -0.2500  0.2043  0.1077
 2152TIP3    H127871   2.629   2.809   5.835 -1.2681 -0.4394  0.8513
 2152TIP3    H227872   2.737   2.891   5.901 -0.2731  0.0217 -1.2761
 2153TIP3   OH227873   0.180   5.069   0.020  0.6314 -0.5802  0.1826
 2153TIP3    H127874   0.247   5.041   0.083  1.5498  1.8544  0.3890
 2153TIP3    H227875   0.153   5.156   0.050  0.0897  0.0693 -1.9965
 2154TIP3   OH227876   2.944   3.171  16.215  0.7757 -0.3431 -0.3823
 2154TIP3    H127877   2.872   3.138  16.269 -0.3732  1.2328 -0.8549
 2154TIP3    H227878   2.997   3.223  16.275  1.7349 -1.7369  0.0308
 2155TIP3   OH227879   2.220   1.243  13.904 -0.1947 -0.1544 -0.2940
 2155TIP3    H127880   2.269   1.250  13.986 -0.5420  2.6293 -0.2439
 2155TIP3    H227881   2.128   1.246  13.930 -0.3936 -1.9029 -0.6526
 2156TIP3   OH227882   3.111   4.267  14.324  0.1330 -0.6630 -0.2242
 2156TIP3    H127883   3.186   4.288  14.268 -0.8079  0.0150 -1.2792
 2156TIP3    H227884   3.110   4.172  14.330  1.9975 -0.6404  1.1248
 2157TIP3   OH227885   0.582   6.193   1.687 -0.4060 -0.4736  0.1037
 2157TIP3    H127886   0.643   6.136   1.734  1.5501  2.5894  1.5365
 2157TIP3    H227887   0.496   6.152   1.700  0.8434 -3.0419  0.9970
 2158TIP3   OH227888   1.640   1.030   2.995  0.3852  0.5351  0.6621
 2158TIP3    H127889   1.602   0.952   3.036  0.4716  0.4723  0.6228
 2158TIP3    H227890   1.652   1.006   2.903  2.2678 -0.1187  1.0331
 2159TIP3   OH227891   3.079   3.349   3.345  0.1028  0.0797 -0.3222
 2159TIP3    H127892   3.170   3.357   3.372  0.4773  0.8057 -1.7220
 2159TIP3    H227893   3.081   3.292   3.268 -0.4580  0.9683 -1.0287
 2160TIP3   OH227894   6.194   1.206  16.052 -0.0324  0.2382 -0.3744
 2160TIP3    H127895   6.229   1.288  16.087 -0.7597  0.0079  0.9800
 2160TIP3    H227896   6.269   1.162  16.012  1.0492  0.1862  1.5882
 2161TIP3   OH227897   2.233   0.246   1.924  0.3349 -0.1246 -0.4187
 2161TIP3    H127898   2.197   0.179   1.983  0.1663 -0.8532 -1.3313
 2161TIP3    H227899   2.211   0.215   1.836 -0.5515  1.5986 -0.8503
 2162TIP3   OH227900   2.201   5.624   5.643 -0.4415  0.4863 -0.6068
 2162TIP3    H127901   2.262   5.668   5.702 -1.1841 -1.1544  1.5146
 2162TIP3    H227902   2.124   5.608   5.697 -0.7187 -2.1344 -1.6621
 2163TIP3   OH227903   2.038   4.292  14.244  0.6296  0.5669 -0.4566
 2163TIP3    H127904   2.113   4.277  14.185  1.3727 -1.3177  0.8748
 2163TIP3    H227905   2.028   4.388  14.245  2.2782  0.8046 -1.5754
 2164TIP3   OH227906   0.136   0.282   4.448 -0.7528 -0.0961  0.3495
 2164TIP3    H127907   0.137   0.199   4.401 -1.3819  0.3223 -0.4261
 2164TIP3    H227908   0.220   0.323   4.427 -0.8738 -0.0810 -0.1103
 2165TIP3   OH227909   1.772   4.402   4.352 -0.5159 -0.3437  0.4095
 2165TIP3    H127910   1.849   4.381   4.404  1.0780 -1.0768 -2.0746
 2165TIP3    H227911   1.732   4.317   4.334  0.0510 -0.3170 -1.0943
 2166TIP3   OH227912   5.036   6.388   4.243 -0.2308  0.0343  0.2119
 2166TIP3    H127913   5.121   6.393   4.199 -0.2549  1.6571  0.3053
 2166TIP3    H227914   5.050   6.431   4.327 -0.3966 -2.3159  1.5291
 2167TIP3   OH227915   6.377   3.567   5.060 -0.4302 -0.5324 -0.0786
 2167TIP3    H127916   6.385   3.525   5.146 -2.2315  0.4499  0.6155
 2167TIP3    H227917   6.283   3.583   5.050 -0.3833 -1.3883 -2.6292
 2168TIP3   OH227918   1.702   0.982   2.308  0.2561  0.4235 -0.6560
 2168TIP3    H127919   1.695   0.896   2.266 -2.6019  0.1641  0.1434
 2168TIP3    H227920   1.732   0.963   2.396  0.3899  0.3157 -0.7250
 2169TIP3   OH227921   3.233   6.436   2.712  0.1213  0.0109 -0.3400
 2169TIP3    H127922   3.162   6.418   2.775 -0.1812  0.1881 -0.6283
 2169TIP3    H227923   3.283   6.355   2.709 -0.3861 -0.2975 -0.5390
 2170TIP3   OH227924   0.016   2.864  13.133 -0.0973 -0.2172  0.6762
 2170TIP3    H127925   0.024   2.772  13.160 -1.2073 -0.4209  0.3673
 2170TIP3    H227926   0.103   2.888  13.103  0.3882 -0.9429  1.4747
 2171TIP3   OH227927   3.653   5.123  16.268  0.3119 -0.4255 -0.1604
 2171TIP3    H127928   3.680   5.163  16.351  1.6831  1.7465 -1.5487
 2171TIP3    H227929   3.716   5.052  16.254  0.3343 -0.5325  0.4576
 2172TIP3   OH227930   6.075   4.517  15.710 -0.3317  0.5640 -0.2634
 2172TIP3    H127931   6.002   4.466  15.675 -0.8548  1.4969 -0.5626
 2172TIP3    H227932   6.114   4.460  15.777  0.8049 -1.3532 -2.4253
 2173TIP3   OH227933   0.774   4.429   5.499  1.3652  0.0855 -0.0640
 2173TIP3    H127934   0.775   4.359   5.564  0.0064 -0.9556 -1.1075
 2173TIP3    H227935   0.713   4.493   5.535  2.3166  0.5933  0.7085
 2174TIP3   OH227936   6.250   5.220  12.006  0.2366  0.4043 -0.0085
 2174TIP3    H127937   6.288   5.308  12.007 -0.7860  0.8887 -0.9924
 2174TIP3    H227938   6.172   5.227  12.061  0.7759 -0.2127  0.8599
 2175TIP3   OH227939   1.944   4.043  16.124 -0.1655  0.6605 -0.1389
 2175TIP3    H127940   2.013   4.071  16.064  0.8513 -0.5864  0.3813
 2175TIP3    H227941   1.991   4.008  16.200 -1.2449 -2.1223 -0.6087
 2176TIP3   OH227942   3.035   3.028   2.263  0.4915  0.6141  0.3761
 2176TIP3    H127943   2.986   3.025   2.182 -2.2673  1.9756  1.8700
 2176TIP3    H227944   3.005   3.107   2.308  3.2235  0.8883  1.9799
 2177TIP3   OH227945   1.418   5.795  16.556 -0.1844  0.2667  0.0338
 2177TIP3    H127946   1.465   5.851  16.618 -1.8681  2.2213 -0.3764
 2177TIP3    H227947   1.468   5.803  16.475  2.1729 -2.4963  1.0293
 2178TIP3   OH227948   5.438   3.913  11.363  0.2233  0.6672  0.3251
 2178TIP3    H127949   5.469   3.834  11.406  0.6233  0.7512  0.2035
 2178TIP3    H227950   5.384   3.957  11.428 -2.7033 -1.2628 -0.6097
 2179TIP3   OH227951   4.463   3.707   2.728 -0.3687  0.4941 -0.1823
 2179TIP3    H127952   4.535   3.718   2.790  0.6391 -1.2454 -0.9397
 2179TIP3    H227953   4.412   3.634   2.763 -0.7356  0.5724 -0.5464
 2180TIP3   OH227954   0.730   1.794   0.251 -0.0835 -0.1151 -0.2938
 2180TIP3    H127955   0.665   1.864   0.254 -0.5365 -0.4287 -1.8701
 2180TIP3    H227956   0.780   1.804   0.331  0.5331  2.6755 -0.9538
 2181TIP3   OH227957   2.655   1.258  13.714  0.1840 -0.1582  0.2090
 2181TIP3    H127958   2.725   1.258  13.649 -1.0563  0.7190 -1.1721
 2181TIP3    H227959   2.623   1.167  13.714 -1.1147  0.2309 -1.9298
 2182TIP3   OH227960   1.296   5.857   1.741 -0.1859  0.9896  0.3231
 2182TIP3    H127961   1.307   5.918   1.668 -0.5376  1.4842  0.6667
 2182TIP3    H227962   1.246   5.908   1.806 -1.6665 -0.0944  0.0891
 2183TIP3   OH227963   0.238   1.788   2.775  0.9592  0.3822 -0.4717
 2183TIP3    H127964   0.161   1.796   2.720  1.9335  4.3781 -1.5865
 2183TIP3    H227965   0.311   1.811   2.718  3.1231 -3.2358  0.5429
 2184TIP3   OH227966   1.526   6.219  17.094 -0.6221  0.1368 -0.2934
 2184TIP3    H127967   1.555   6.235  17.184  1.3947 -0.1861 -0.8423
 2184TIP3    H227968   1.531   6.124  17.085  0.2305  0.2473 -1.0619
 2185TIP3   OH227969   5.310   6.768   4.004  0.2349  0.2228  0.2413
 2185TIP3    H127970   5.263   6.721   3.935 -1.3300  3.5100 -1.1228
 2185TIP3    H227971   5.275   6.731   4.085 -2.5003  0.4273 -0.7425
 2186TIP3   OH227972   2.815   0.765  10.529  0.1219  0.1203 -0.3813
 2186TIP3    H127973   2.902   0.765  10.570  0.9071  2.1166 -1.8669
 2186TIP3    H227974   2.829   0.806  10.443 -2.0312 -0.9201 -1.3103
 2187TIP3   OH227975   1.549   1.309   2.957 -0.1740 -0.2603  0.2701
 2187TIP3    H127976   1.627   1.267   2.993 -0.9977 -1.0657  1.1408
 2187TIP3    H227977   1.553   1.290   2.863  1.0913  0.4064  0.1684
 2188TIP3   OH227978   0.833   2.660  12.269 -0.1380  0.4252  0.0077
 2188TIP3    H127979   0.837   2.577  12.316  1.9186  0.9308  0.8689
 2188TIP3    H227980   0.921   2.673  12.235 -0.8920  1.3933 -1.7193
 2189TIP3   OH227981   6.224   6.519  16.616  0.6286  0.3902 -0.3862
 2189TIP3    H127982   6.259   6.577  16.549 -0.4756  1.2905 -0.2106
 2189TIP3    H227983   6.236   6.566  16.698 -0.1075  0.3063 -0.2223
 2190TIP3   OH227984   2.151   5.721  13.281 -0.4201  0.0626 -0.3185
 2190TIP3    H127985   2.246   5.726  13.292 -0.4306 -0.9912  0.4473
 2190TIP3    H227986   2.133   5.770  13.201  0.5714  1.6824  0.4065
 2191TIP3   OH227987   5.712   2.183   1.854 -0.0434 -0.3734 -0.3780
 2191TIP3    H127988   5.763   2.183   1.935 -0.0107  3.4214 -0.2033
 2191TIP3    H227989   5.764   2.238   1.794 -1.3309 -0.9363 -2.0902
 2192TIP3   OH227990   2.711   0.349   2.608 -0.6188 -0.5890  0.0229
 2192TIP3    H127991   2.722   0.322   2.517  0.1156 -0.3053  0.0262
 2192TIP3    H227992   2.617   0.364   2.617 -0.8647 -1.7473 -0.3624
 2193TIP3   OH227993   6.353   6.516  16.889 -0.3861  0.0981  0.3521
 2193TIP3    H127994   6.392   6.431  16.870  1.0994  0.0967  3.0015
 2193TIP3    H227995   6.426   6.578  16.887 -1.0398  0.9046  0.8069
 2194TIP3   OH227996   0.234   3.205  16.168 -0.0276 -0.2768  0.1328
 2194TIP3    H127997   0.278   3.121  16.154  1.4554  0.6093 -0.9590
 2194TIP3    H227998   0.247   3.252  16.085 -1.9630  0.5419  0.2499
 2195TIP3   OH227999   2.024   4.182   0.986 -0.4448 -0.1306  0.1835
 2195TIP3    H128000   1.948   4.153   1.038  1.0227  0.3028  2.7613
 2195TIP3    H228001   1.997   4.169   0.895 -3.8950  0.7459  0.9259
 2196TIP3   OH228002   2.182   2.162   3.646 -0.2852 -0.4257  0.5968
 2196TIP3    H128003   2.123   2.091   3.672 -0.6114 -0.0719  0.8337
 2196TIP3    H228004   2.153   2.237   3.697  2.2101 -0.9298  3.0313
 2197TIP3   OH228005   1.094   5.670   4.663 -0.1353  0.2076 -0.3501
 2197TIP3    H128006   1.080   5.763   4.682 -2.5402  0.0963 -1.2034
 2197TIP3    H228007   1.047   5.624   4.732  1.0393 -0.4171  0.0645
 2198TIP3   OH228008   6.119   2.460   1.147  0.8655 -0.1311 -0.5314
 2198TIP3    H128009   6.079   2.377   1.171  0.6182 -0.2998 -1.4895
 2198TIP3    H228010   6.145   2.499   1.231 -0.8786 -0.2304  0.1074
 2199TIP3   OH228011   5.124   4.599  16.889 -0.3861  0.3560  0.4972
 2199TIP3    H128012   5.105   4.692  16.895 -1.2336  0.1707  0.7702
 2199TIP3    H228013   5.110   4.577  16.797 -0.0547  0.5196  0.4063
 2200TIP3   OH228014   0.605   3.204  10.742  0.9160 -0.7755 -0.2577
 2200TIP3    H128015   0.539   3.245  10.687  1.3068 -0.0505 -0.1919
 2200TIP3    H228016   0.686   3.250  10.721  1.3180 -1.3617 -0.0151
 2201TIP3   OH228017   0.964   4.052  12.300 -0.5185  0.0715 -0.5708
 2201TIP3    H128018   1.009   3.968  12.291 -0.1151  0.1650  0.3942
 2201TIP3    H228019   0.912   4.061  12.220  1.0966 -0.0897 -1.7036
 2202TIP3   OH228020   1.882   6.609   0.411  0.0752 -0.5784 -0.1567
 2202TIP3    H128021   1.964   6.607   0.362  1.0329 -3.2383  1.3542
 2202TIP3    H228022   1.828   6.542   0.368 -0.2497 -0.7523  0.5203
 2203TIP3   OH228023   6.506   5.044  14.051 -0.3046 -0.2805  0.1234
 2203TIP3    H128024   6.422   5.037  14.095 -0.3537 -0.6250 -0.0220
 2203TIP3    H228025   6.487   5.025  13.959  0.0909 -1.3735  0.2494
 2204TIP3   OH228026   4.993   3.801  14.638 -0.1013  0.1499  0.1394
 2204TIP3    H128027   5.054   3.747  14.586 -0.6090 -0.5061  0.2114
 2204TIP3    H228028   4.928   3.831  14.574  1.2244  2.2890 -0.2872
 2205TIP3   OH228029   6.473   5.941  14.120  0.6227  0.8600 -0.2065
 2205TIP3    H128030   6.562   5.918  14.147 -0.1604 -0.7876  1.2274
 2205TIP3    H228031   6.450   6.017  14.175 -0.0309 -0.8836  2.1232
 2206TIP3   OH228032   2.956   4.865   0.017 -0.2980  0.8056 -0.4454
 2206TIP3    H128033   2.878   4.903   0.057 -0.6941  0.9179 -1.3117
 2206TIP3    H228034   3.016   4.940   0.007 -0.7795  1.0830 -1.4289
 2207TIP3   OH228035   6.053   1.602  14.261  0.4244 -0.0775  0.2160
 2207TIP3    H128036   6.117   1.620  14.330  0.1774  1.0330  0.1711
 2207TIP3    H228037   5.974   1.574  14.307  0.6149 -0.4691  0.3152
 2208TIP3   OH228038   6.164   3.938   6.078 -0.5338  0.2299 -0.7613
 2208TIP3    H128039   6.131   3.933   6.168  0.6553  0.3509 -0.2984
 2208TIP3    H228040   6.175   4.032   6.062  0.0028  0.1690 -0.7493
 2209TIP3   OH228041   4.420   5.830  15.681 -0.3410  0.0948 -0.0479
 2209TIP3    H128042   4.513   5.835  15.660 -0.3574 -1.2560 -0.5254
 2209TIP3    H228043   4.408   5.744  15.721 -1.2584  0.5559  0.7410
 2210TIP3   OH228044   3.754   5.022   1.811 -0.7593  0.1388  0.4678
 2210TIP3    H128045   3.740   4.931   1.837  2.0947 -0.4187  0.4033
 2210TIP3    H228046   3.723   5.026   1.721  0.3936 -1.2040 -0.0284
 2211TIP3   OH228047   4.509   4.760   1.453 -0.3398  0.0816  0.4613
 2211TIP3    H128048   4.596   4.800   1.449 -1.2647  2.1580 -0.3473
 2211TIP3    H228049   4.507   4.715   1.537  1.4135  0.2240  0.6179
 2212TIP3   OH228050   4.345   0.995  13.919 -0.0476 -0.0968  0.1293
 2212TIP3    H128051   4.406   1.067  13.935  0.4060 -0.5804  0.5786
 2212TIP3    H228052   4.332   0.955  14.005 -0.5025 -0.3959 -0.0762
 2213TIP3   OH228053   3.063   2.776  15.168  0.4542 -0.5597 -0.0601
 2213TIP3    H128054   3.063   2.689  15.127 -0.2462 -0.1896 -0.8999
 2213TIP3    H228055   2.978   2.813  15.144  0.6170  0.2318  0.5547
 2214TIP3   OH228056   0.304   6.080  16.611 -0.9229  0.1368 -0.4654
 2214TIP3    H128057   0.244   6.142  16.570 -3.2968 -0.9100  1.1954
 2214TIP3    H228058   0.314   6.010  16.546 -2.8620 -0.4501 -0.1755
 2215TIP3   OH228059   6.089   5.300   2.525  0.3721  0.6163 -1.1081
 2215TIP3    H128060   6.041   5.217   2.522  0.6231  0.4744 -1.2682
 2215TIP3    H228061   6.047   5.350   2.594 -0.7775  0.9607 -2.0263
 2216TIP3   OH228062   0.779   1.346  15.682 -0.6080  0.0497 -0.0008
 2216TIP3    H128063   0.761   1.300  15.764 -0.9990 -1.3849 -0.8500
 2216TIP3    H228064   0.846   1.293  15.639 -1.5157 -0.1057 -1.2888
 2217TIP3   OH228065   5.078   4.610  12.646  0.2768  0.2029  0.1710
 2217TIP3    H128066   4.989   4.640  12.631  0.4752  0.4870 -0.4517
 2217TIP3    H228067   5.109   4.663  12.720  0.0574  0.3692  0.1434
 2218TIP3   OH228068   6.064   5.433  12.382  0.3500  0.0324  0.0051
 2218TIP3    H128069   5.999   5.502  12.385  0.4385  0.0852  0.7292
 2218TIP3    H228070   6.057   5.388  12.466  1.2332  0.0324  0.0897
 2219TIP3   OH228071   1.191   2.735   2.362  0.0249  0.3065 -0.1013
 2219TIP3    H128072   1.234   2.660   2.403 -1.5121 -0.6683 -0.1711
 2219TIP3    H228073   1.240   2.811   2.392  1.5346 -0.7122  0.1028
 2220TIP3   OH228074   3.079   3.914  11.801 -0.3636  0.3575 -0.1048
 2220TIP3    H128075   2.995   3.933  11.842 -0.9574 -0.4937 -0.9047
 2220TIP3    H228076   3.074   3.956  11.716 -0.2859 -0.3358 -0.4581
 2221TIP3   OH228077   1.487   4.755  14.610 -0.0310 -0.0634  0.4632
 2221TIP3    H128078   1.424   4.780  14.542 -0.5019 -0.4743  0.7387
 2221TIP3    H228079   1.519   4.838  14.644  0.4137  0.1519 -0.4399
 2222TIP3   OH228080   6.314   1.726   1.975 -0.3640  0.4219  0.0821
 2222TIP3    H128081   6.339   1.793   2.038 -0.6090 -0.6988  1.3982
 2222TIP3    H228082   6.219   1.724   1.978 -0.4625 -3.2918  3.8320
 2223TIP3   OH228083   0.691   1.846  11.561  0.8081 -0.0323  0.0978
 2223TIP3    H128084   0.625   1.911  11.536 -0.3454 -1.1606  0.0979
 2223TIP3    H228085   0.640   1.774  11.598  1.9772 -1.2872 -0.6570
 2224TIP3   OH228086   0.205   0.054   2.261 -0.1034  0.2618 -0.2422
 2224TIP3    H128087   0.129   0.004   2.232 -0.5186  0.8234 -0.1501
 2224TIP3    H228088   0.171   0.143   2.275 -0.2670 -0.2068  3.1959
 2225TIP3   OH228089   5.790   1.971  10.909 -0.0517 -0.3902 -0.9022
 2225TIP3    H128090   5.706   1.947  10.869  0.3766 -0.2975 -1.9021
 2225TIP3    H228091   5.802   2.063  10.888 -0.0362 -0.2146 -0.1357
 2226TIP3   OH228092   2.116   0.948  11.939 -0.2686  0.5182  0.3906
 2226TIP3    H128093   2.081   0.958  11.850  0.7864 -2.5187 -0.4824
 2226TIP3    H228094   2.038   0.947  11.995 -1.0740  0.6522 -0.6838
 2227TIP3   OH228095   3.910   6.043  13.993 -0.0641  0.0300 -0.3231
 2227TIP3    H128096   3.947   6.117  14.040  0.2888 -0.1177 -0.3699
 2227TIP3    H228097   3.971   5.971  14.008 -0.9691 -0.5724  0.6687
 2228TIP3   OH228098   0.244   2.459  15.473 -0.6511  0.4824  0.6676
 2228TIP3    H128099   0.188   2.536  15.472  1.2664  1.9311 -0.3651
 2228TIP3    H228100   0.311   2.476  15.407 -0.6101 -2.4496 -0.2127
 2229TIP3   OH228101   0.039   2.624   2.827  0.5387 -0.3152  0.6264
 2229TIP3    H128102   0.109   2.568   2.860  2.0255 -0.0400 -1.8494
 2229TIP3    H228103  -0.025   2.562   2.792  1.7990 -0.5664 -1.3633
 2230TIP3   OH228104   1.518   2.119  11.323  0.1628 -0.0946 -0.3133
 2230TIP3    H128105   1.605   2.159  11.316  0.3517 -0.6485 -1.3280
 2230TIP3    H228106   1.507   2.070  11.241 -0.3812 -1.5010  0.5617
 2231TIP3   OH228107   6.473   3.648  16.724  0.2662 -0.1689  0.1289
 2231TIP3    H128108   6.536   3.577  16.721  0.3265 -0.1080 -0.0342
 2231TIP3    H228109   6.521   3.726  16.695 -0.1870 -0.3470 -1.1880
 2232TIP3   OH228110   4.384   4.646   3.659  0.5605 -0.2791  0.2556
 2232TIP3    H128111   4.338   4.569   3.692 -0.2595 -0.0154 -0.2428
 2232TIP3    H228112   4.316   4.713   3.650  0.9521 -0.0141 -0.9244
 2233TIP3   OH228113   0.683   4.078   3.874  0.4007 -0.3332 -0.1845
 2233TIP3    H128114   0.634   4.029   3.808  2.2195 -2.3923 -0.1427
 2233TIP3    H228115   0.709   4.159   3.830  1.5261 -1.6286 -2.0767
 2234TIP3   OH228116   1.374   5.777  12.538 -0.5177 -0.0546 -0.7280
 2234TIP3    H128117   1.397   5.691  12.572  2.3995  0.9094  0.0258
 2234TIP3    H228118   1.391   5.771  12.444  0.0211 -0.2048 -0.6208
 2235TIP3   OH228119   6.400   2.529  16.445 -0.2181  0.9150  0.3139
 2235TIP3    H128120   6.473   2.589  16.458 -0.6697  1.9667 -1.5358
 2235TIP3    H228121   6.327   2.569  16.492 -0.1908  1.1149  0.1861
 2236TIP3   OH228122   1.296   4.187  16.385  0.2111  0.3290  0.0691
 2236TIP3    H128123   1.221   4.194  16.445 -0.3367  1.2109 -0.6934
 2236TIP3    H228124   1.313   4.277  16.357 -0.6210 -0.2044 -2.3644
 2237TIP3   OH228125   3.831   4.166  12.215 -0.0451  0.0609 -0.1618
 2237TIP3    H128126   3.818   4.117  12.133  1.0152  0.7780 -0.7856
 2237TIP3    H228127   3.742   4.188  12.243 -0.4898 -1.2275 -0.4588
 2238TIP3   OH228128   1.419   4.306  13.752  0.0274  0.0856 -0.3005
 2238TIP3    H128129   1.392   4.250  13.825  0.0151 -0.3528 -0.6344
 2238TIP3    H228130   1.502   4.344  13.780  0.7613 -1.2066 -0.6200
 2239TIP3   OH228131   1.717   3.327   2.748 -0.2071 -0.4752  0.1754
 2239TIP3    H128132   1.657   3.398   2.729 -0.3294 -0.4323  0.6892
 2239TIP3    H228133   1.746   3.295   2.663  0.0162  0.3273 -0.0518
 2240TIP3   OH228134   1.079   3.804  11.981 -0.5524 -0.1160  0.0414
 2240TIP3    H128135   1.118   3.784  11.896  2.5566  2.3630  0.7043
 2240TIP3    H228136   1.026   3.882  11.966 -0.1247  0.2339  0.3053
 2241TIP3   OH228137   3.910   2.591  15.554  0.1997  0.0108 -0.4147
 2241TIP3    H128138   3.932   2.512  15.604  0.1489 -0.1352 -0.6231
 2241TIP3    H228139   3.820   2.578  15.525  0.0435  0.3375 -0.0884
 2242TIP3   OH228140   5.170   1.450   3.719  0.3876  0.7067 -0.6126
 2242TIP3    H128141   5.194   1.369   3.765 -1.5486 -0.5508 -1.6909
 2242TIP3    H228142   5.170   1.517   3.787  1.7579 -0.2215  0.3659
 2243TIP3   OH228143   6.681   5.387   2.134 -0.1192 -0.0384 -0.2508
 2243TIP3    H128144   6.707   5.446   2.205  1.0194  1.2887 -1.7011
 2243TIP3    H228145   6.757   5.329   2.123 -0.5703 -0.6994  0.0552
 2244TIP3   OH228146   1.858   1.641  14.583  0.4526  0.5658 -0.1214
 2244TIP3    H128147   1.880   1.678  14.668 -0.7384  0.4950  0.2315
 2244TIP3    H228148   1.863   1.714  14.522  0.8813  0.7028  0.0720
 2245TIP3   OH228149   1.566   3.287   2.267  0.6889  0.4061 -0.1986
 2245TIP3    H128150   1.660   3.270   2.257  0.5723  0.0172 -0.6802
 2245TIP3    H228151   1.546   3.349   2.197  0.8229  1.4636  0.6629
 2246TIP3   OH228152   4.376   0.077   1.081 -0.3563 -0.3905 -0.5014
 2246TIP3    H128153   4.351   0.158   1.126 -1.1399  0.0186 -1.6321
 2246TIP3    H228154   4.295   0.027   1.075  0.2942 -1.7197  1.0232
 2247TIP3   OH228155   5.449   0.505  12.137 -0.0329  0.3672 -0.4920
 2247TIP3    H128156   5.513   0.574  12.118  1.3171 -0.8793 -0.7016
 2247TIP3    H228157   5.502   0.433  12.173 -1.5225 -0.2165  0.6197
 2248TIP3   OH228158   1.595   1.793   2.708 -0.4447  0.6090 -0.0665
 2248TIP3    H128159   1.652   1.754   2.642  1.0247  0.7071  1.1100
 2248TIP3    H228160   1.651   1.808   2.783 -2.2130 -0.1148  1.4794
 2249TIP3   OH228161   0.438   2.569  16.503 -0.4152 -0.2160  0.3619
 2249TIP3    H128162   0.458   2.484  16.462  0.4943  0.0119  0.3182
 2249TIP3    H228163   0.463   2.558  16.594 -0.4311 -0.0334  0.3884
 2250TIP3   OH228164   1.442   0.750   0.922  0.3695 -0.3221  0.6522
 2250TIP3    H128165   1.368   0.811   0.917  0.4634 -0.2955 -0.8467
 2250TIP3    H228166   1.470   0.753   1.013  0.8610  2.5046  0.4971
 2251TIP3   OH228167   4.510   1.443   0.184  0.0002  0.0346 -0.5907
 2251TIP3    H128168   4.589   1.472   0.139  0.0217 -0.4092 -0.8455
 2251TIP3    H228169   4.528   1.458   0.277  0.7932 -1.0188 -0.5559
 2252TIP3   OH228170   2.850   1.030   5.631 -0.1351  0.0046  0.3917
 2252TIP3    H128171   2.922   1.022   5.694 -0.2497 -1.1954  0.3859
 2252TIP3    H228172   2.804   0.946   5.635 -0.7642  0.2811 -0.5538
 2253TIP3   OH228173   1.428   1.353  16.575  0.2340 -0.4724 -0.5462
 2253TIP3    H128174   1.352   1.328  16.627 -0.3572 -1.1636 -1.6928
 2253TIP3    H228175   1.426   1.449  16.573 -1.2938 -0.4979 -1.5104
 2254TIP3   OH228176   1.379   2.554  16.403  0.0286  0.1938 -0.5375
 2254TIP3    H128177   1.453   2.580  16.348 -0.8879  2.5684 -0.7650
 2254TIP3    H228178   1.387   2.459  16.410  2.6283  0.2857 -1.1879
 2255TIP3   OH228179   0.530   3.117  15.699 -0.2023  0.0544  0.3011
 2255TIP3    H128180   0.593   3.049  15.675 -0.0005 -1.2622  3.9316
 2255TIP3    H228181   0.564   3.197  15.660  1.5341 -1.2917 -1.0834
 2256TIP3   OH228182   4.448   1.381   3.585  0.3123 -0.2125 -0.3748
 2256TIP3    H128183   4.356   1.386   3.559  0.1769 -0.6206  0.0188
 2256TIP3    H228184   4.482   1.305   3.536  0.6036  0.3120 -1.0036
 2257TIP3   OH228185   0.214   0.395  12.347  0.3044 -0.9336 -0.4290
 2257TIP3    H128186   0.265   0.362  12.420 -0.7950 -0.8422  0.4043
 2257TIP3    H228187   0.184   0.481  12.375 -1.7751 -1.6912 -0.1301
 2258TIP3   OH228188   3.571   0.607   4.752  0.1278  0.0346  0.3103
 2258TIP3    H128189   3.511   0.575   4.819  0.6565  1.3337  1.4385
 2258TIP3    H228190   3.657   0.573   4.778  0.4748  1.2391  0.7950
 2259TIP3   OH228191   4.301   0.394   4.037  0.6479 -0.5211 -0.4429
 2259TIP3    H128192   4.253   0.440   4.107  0.4215 -1.8421  0.2934
 2259TIP3    H228193   4.248   0.407   3.959  0.3141  0.0160 -0.1357
 2260TIP3   OH228194   6.693   5.767   1.332  0.1604 -0.2942  0.0326
 2260TIP3    H128195   6.598   5.776   1.330  0.1199 -0.1624  1.4972
 2260TIP3    H228196   6.710   5.676   1.309 -0.4734 -0.9354  1.9990
 2261TIP3   OH228197   6.107   0.110   0.390  0.0696  0.3155  0.1502
 2261TIP3    H128198   6.126   0.107   0.484 -0.5828  1.9949  0.3737
 2261TIP3    H228199   6.188   0.081   0.348  0.7420  0.5909  1.2168
 2262TIP3   OH228200   5.010   4.612   3.580 -0.2865  0.4959 -0.0500
 2262TIP3    H128201   5.008   4.518   3.565 -0.4914  0.1877  1.7155
 2262TIP3    H228202   4.921   4.642   3.559 -0.3600  0.2146 -0.1352
 2263TIP3   OH228203   5.172   5.913   6.297  0.2885 -0.5722  0.2232
 2263TIP3    H128204   5.101   5.906   6.361  0.4989  2.0501  0.8769
 2263TIP3    H228205   5.237   5.850   6.326 -0.5783 -1.0224  1.2597
 2264TIP3   OH228206   0.979   3.948  13.554  0.5341  0.4142  0.1905
 2264TIP3    H128207   1.062   3.986  13.526 -0.0596  0.2916 -1.8598
 2264TIP3    H228208   0.967   3.871  13.499  0.1363 -0.9033  2.0357
 2265TIP3   OH228209   4.883   1.125   2.875 -0.4947 -0.6947  0.6009
 2265TIP3    H128210   4.934   1.206   2.876 -0.3547 -0.7729  0.0682
 2265TIP3    H228211   4.948   1.055   2.888 -0.6500 -0.7044  1.3318
 2266TIP3   OH228212   1.336   3.530  15.158  0.0463 -0.1363 -0.0466
 2266TIP3    H128213   1.386   3.538  15.077 -1.0281 -1.0398 -0.8304
 2266TIP3    H228214   1.354   3.611  15.206  1.7158 -0.1426 -0.5878
 2267TIP3   OH228215   5.668   0.760   5.429 -0.6150 -1.1900  0.3768
 2267TIP3    H128216   5.613   0.694   5.386  3.2200 -2.3064 -3.5088
 2267TIP3    H228217   5.724   0.710   5.488  0.3668 -1.0964 -0.4371
 2268TIP3   OH228218   3.049   2.767   1.479 -0.1331 -0.8429 -0.0467
 2268TIP3    H128219   3.079   2.824   1.408 -3.9337 -0.2447 -1.4175
 2268TIP3    H228220   3.088   2.804   1.558  0.9837  1.0045 -1.3720
 2269TIP3   OH228221   6.057   4.980   4.185 -0.5857  0.4745  0.3323
 2269TIP3    H128222   6.069   5.019   4.272 -0.9741  1.1825  0.0781
 2269TIP3    H228223   6.039   5.055   4.128 -1.3039 -0.0778 -0.1779
 2270TIP3   OH228224   1.412   5.367   3.293 -0.5027 -0.1259 -0.3857
 2270TIP3    H128225   1.387   5.442   3.346  0.8620  0.7891 -0.9842
 2270TIP3    H228226   1.487   5.329   3.339  1.5969  1.4886 -2.2349
 2271TIP3   OH228227   0.225   4.980   3.672 -0.3183  0.5719  0.5336
 2271TIP3    H128228   0.249   4.943   3.757 -2.1494 -0.7012  0.5691
 2271TIP3    H228229   0.227   4.905   3.612 -3.3015  0.4436  0.4263
 2272TIP3   OH228230   4.562   3.704  13.329 -0.1862 -0.5425  0.1226
 2272TIP3    H128231   4.652   3.669  13.330  0.0893  0.1659  0.4267
 2272TIP3    H228232   4.536   3.698  13.237 -0.2020 -1.6690  0.1825
 2273TIP3   OH228233   3.879   1.622  12.619 -0.3376 -0.0209  0.3727
 2273TIP3    H128234   3.833   1.624  12.535 -0.8358  2.8115  0.6128
 2273TIP3    H228235   3.823   1.672  12.678  1.2600  0.3089  1.6737
 2274TIP3   OH228236   4.572   3.609  12.769 -0.5848  0.1489 -0.7010
 2274TIP3    H128237   4.598   3.700  12.758 -1.9407  0.3499 -2.8712
 2274TIP3    H228238   4.581   3.571  12.682  0.2197 -1.9155  0.2024
 2275TIP3   OH228239   3.770   6.667   0.123  0.0177 -0.1508  0.5156
 2275TIP3    H128240   3.693   6.679   0.178 -0.1979 -1.4204  0.5230
 2275TIP3    H228241   3.837   6.722   0.164 -0.8629  0.9434  0.5176
 2276TIP3   OH228242   0.561   5.777   1.946  0.0217  0.0000  0.2248
 2276TIP3    H128243   0.641   5.726   1.941 -1.2662 -2.1242 -0.0048
 2276TIP3    H228244   0.541   5.800   1.855  0.1543  0.1712  0.2394
 2277TIP3   OH228245   2.745   4.031  13.652 -0.3927 -0.0211 -0.0430
 2277TIP3    H128246   2.779   4.080  13.578  0.7185 -0.5798  0.0760
 2277TIP3    H228247   2.675   4.086  13.687  1.2543  1.8573  0.5096
 2278TIP3   OH228248   0.978   4.793   0.018 -0.1650  0.3496  0.2252
 2278TIP3    H128249   0.937   4.853   0.081 -0.9924  1.1446 -1.0135
 2278TIP3    H228250   1.068   4.825   0.010 -0.0178  0.1721  1.0707
 2279TIP3   OH228251   0.836   3.076  15.688 -0.0376  0.0843 -0.1263
 2279TIP3    H128252   0.859   3.166  15.712  0.3585 -0.0677  0.0681
 2279TIP3    H228253   0.882   3.022  15.752 -0.1406 -0.2664 -0.3477
 2280TIP3   OH228254   6.486   3.463  12.126 -0.9433  0.0241 -0.0067
 2280TIP3    H128255   6.497   3.546  12.171 -0.6123  0.3827 -0.7322
 2280TIP3    H228256   6.566   3.414  12.146 -0.1097  0.7596 -1.3771
 2281TIP3   OH228257   4.138   0.237  13.702  0.3188 -0.2013 -0.3694
 2281TIP3    H128258   4.150   0.143  13.690  1.0066 -0.6400  2.7746
 2281TIP3    H228259   4.225   0.270  13.722 -0.2511  0.6186  0.9303
 2282TIP3   OH228260   5.282   3.974   1.434  0.0802  0.1513  0.1279
 2282TIP3    H128261   5.194   3.972   1.471  0.2750  0.1991  0.5890
 2282TIP3    H228262   5.272   4.025   1.353 -0.5306 -0.7735 -0.4036
 2283TIP3   OH228263   2.112   2.218  13.924 -0.1875  0.1321 -0.4654
 2283TIP3    H128264   2.125   2.166  14.003 -0.4236  0.6841 -0.0467
 2283TIP3    H228265   2.020   2.247  13.930 -0.7807 -1.3349 -1.8856
 2284TIP3   OH228266   5.074   0.776   4.488  0.7153 -0.6620 -0.2557
 2284TIP3    H128267   5.053   0.820   4.405  0.0939 -1.8762 -0.7668
 2284TIP3    H228268   5.102   0.689   4.462  1.8503 -0.6183  0.7433
 2285TIP3   OH228269   5.558   6.512  16.631 -0.1624  0.3766 -0.6044
 2285TIP3    H128270   5.477   6.478  16.592 -0.4035 -0.3387  0.4591
 2285TIP3    H228271   5.619   6.440  16.627  0.9681  1.3715 -2.7697
 2286TIP3   OH228272   5.348   4.704  12.103 -0.1070  0.3519 -0.4318
 2286TIP3    H128273   5.266   4.750  12.085 -0.2617  0.0187 -0.5836
 2286TIP3    H228274   5.363   4.651  12.025  0.0864  0.1624 -0.2662
 2287TIP3   OH228275   2.223   3.930  11.055  0.3346 -0.3736  0.3416
 2287TIP3    H128276   2.179   3.999  11.005 -1.5821 -0.7774  1.3820
 2287TIP3    H228277   2.291   3.898  10.996  2.0260  3.0788  0.1917
 2288TIP3   OH228278   2.064   3.248  11.377 -0.3340 -0.4528 -0.3347
 2288TIP3    H128279   2.112   3.222  11.298 -0.9496 -1.2601 -0.4581
 2288TIP3    H228280   2.018   3.169  11.404  0.7815 -0.4996  1.5307
 2289TIP3   OH228281   1.849   4.030   6.467  0.1076 -0.4699  0.4325
 2289TIP3    H128282   1.817   3.983   6.544 -1.2887 -1.6625 -0.8204
 2289TIP3    H228283   1.841   3.968   6.395 -0.7469  1.2917 -1.0928
 2290TIP3   OH228284   1.595   0.954  14.590 -0.6529 -0.1612 -0.1838
 2290TIP3    H128285   1.638   0.983  14.510 -0.8752 -2.0818 -1.0566
 2290TIP3    H228286   1.637   0.871  14.612 -3.1887 -1.6798 -0.5823
 2291TIP3   OH228287   1.564   0.110  14.348  0.4540  0.5357  0.0963
 2291TIP3    H128288   1.651   0.142  14.324  0.6720  0.4824  0.7800
 2291TIP3    H228289   1.577   0.067  14.432  0.0760 -0.9590 -0.5823
 2292TIP3   OH228290   5.638   4.799  12.687 -0.8320  0.1371 -0.7037
 2292TIP3    H128291   5.600   4.755  12.611 -2.5465  1.1522 -0.4882
 2292TIP3    H228292   5.575   4.782  12.758  0.9927 -1.2703  0.6976
 2293TIP3   OH228293   4.297   0.907   3.208  0.0700 -0.4265 -0.3510
 2293TIP3    H128294   4.292   0.852   3.130 -2.6102 -1.5920  0.5193
 2293TIP3    H228295   4.373   0.963   3.193 -0.4475 -0.4445 -3.8700
 2294TIP3   OH228296   6.045   0.938   2.467  0.3904  0.3262  0.1835
 2294TIP3    H128297   6.121   0.939   2.408 -0.7297 -1.2396 -1.3828
 2294TIP3    H228298   6.072   0.880   2.538  0.8855  0.2631 -0.0514
 2295TIP3   OH228299   5.865   6.457  16.721 -0.0423 -0.0862  0.2371
 2295TIP3    H128300   5.954   6.459  16.755  0.5224 -1.5059 -1.0026
 2295TIP3    H228301   5.841   6.364  16.721 -1.0370  0.1451 -0.6196
 2296TIP3   OH228302   6.403   1.854  10.802 -0.1378 -0.6356 -0.0581
 2296TIP3    H128303   6.363   1.793  10.739 -1.9766  1.1794 -0.7601
 2296TIP3    H228304   6.347   1.847  10.879 -1.4906  1.3673 -0.7746
 2297TIP3   OH228305   3.098   3.357  14.354  0.0904  0.0096  0.2273
 2297TIP3    H128306   3.103   3.377  14.448  0.4895 -0.8691  0.4126
 2297TIP3    H228307   3.122   3.264  14.349  0.0883  0.0544 -0.7482
 2298TIP3   OH228308   1.917   2.854  14.965  0.0343 -0.1371 -0.1378
 2298TIP3    H128309   2.008   2.826  14.953 -0.6707 -3.1300  0.4807
 2298TIP3    H228310   1.922   2.946  14.989  3.1617 -0.8866  2.8620
 2299TIP3   OH228311   5.056   0.109  11.644 -0.2743  0.0469  0.6525
 2299TIP3    H128312   5.097   0.044  11.587 -0.5450 -2.0804  2.7203
 2299TIP3    H228313   4.989   0.149  11.590  1.4972  0.3819 -1.4311
 2300TIP3   OH228314   0.967   2.377  11.535 -0.1792  0.0323 -0.1868
 2300TIP3    H128315   0.984   2.351  11.625 -0.0116 -0.3083 -0.3151
 2300TIP3    H228316   0.952   2.471  11.540  1.7507  0.3662 -0.0584
 2301TIP3   OH228317   4.479   3.965   4.950 -0.4481  0.1587  0.0668
 2301TIP3    H128318   4.523   3.973   5.035  0.3704 -2.0268 -0.0936
 2301TIP3    H228319   4.533   4.016   4.890  0.9866 -1.1205  0.2128
 2302TIP3   OH228320   2.032   5.647  11.218  0.1246 -0.1163 -0.6420
 2302TIP3    H128321   1.948   5.601  11.215 -0.5674  0.7363  2.2759
 2302TIP3    H228322   2.046   5.676  11.129 -1.7670 -1.8382 -1.6040
 2303TIP3   OH228323   6.077   6.063   6.345  0.2735 -0.3011 -0.2545
 2303TIP3    H128324   6.127   6.069   6.426 -1.7970 -0.2180  1.0924
 2303TIP3    H228325   6.045   5.972   6.343  0.0097 -0.2030 -0.7804
 2304TIP3   OH228326   4.940   3.280  13.629  0.2247 -0.7860 -0.7447
 2304TIP3    H128327   4.859   3.287  13.578  0.3073 -0.2828 -0.8133
 2304TIP3    H228328   4.985   3.204  13.592 -0.3217 -1.2117 -0.5521
 2305TIP3   OH228329   3.191   4.648   6.378 -0.5703 -0.2028 -0.0963
 2305TIP3    H128330   3.170   4.565   6.421 -1.3506  0.3042  0.5287
 2305TIP3    H228331   3.285   4.659   6.389 -0.3497 -1.2935 -0.7199
 2306TIP3   OH228332   4.924   3.344   1.169  0.0310 -0.3600 -0.8941
 2306TIP3    H128333   5.015   3.368   1.151  0.5169 -0.0907  1.5599
 2306TIP3    H228334   4.875   3.380   1.095  1.2810  4.2312  0.1870
 2307TIP3   OH228335   0.028   3.418   1.360  0.0060  0.1656  0.3343
 2307TIP3    H128336  -0.011   3.416   1.448 -2.3159 -4.1570 -0.5476
 2307TIP3    H228337  -0.044   3.441   1.302  1.1909  1.5813 -0.6489
 2308TIP3   OH228338   0.535   4.554   0.116 -0.4530  0.1387  0.4299
 2308TIP3    H128339   0.469   4.517   0.057  0.2642 -0.6256  0.0951
 2308TIP3    H228340   0.571   4.629   0.069  1.1625 -1.3304 -0.7899
 2309TIP3   OH228341   2.345   2.903  13.605 -0.1337  0.4158  0.1791
 2309TIP3    H128342   2.273   2.881  13.665 -2.0314 -0.7681 -2.3635
 2309TIP3    H228343   2.307   2.965  13.543  0.4023 -1.5472 -2.2845
 2310TIP3   OH228344   3.954   4.755  13.084 -0.1309 -0.0764 -0.1356
 2310TIP3    H128345   3.980   4.799  13.165  1.0044 -0.7552 -0.1080
 2310TIP3    H228346   3.996   4.806  13.015  0.8386 -0.8374 -0.1288
 2311TIP3   OH228347   4.867   0.106   6.386  0.1504 -0.0450 -0.4843
 2311TIP3    H128348   4.868   0.011   6.375 -0.0041 -0.1302  0.2105
 2311TIP3    H228349   4.808   0.137   6.317  0.1879 -0.4517 -0.7014
 2312TIP3   OH228350   3.361   5.498   1.116  0.1525 -0.1287  0.0502
 2312TIP3    H128351   3.376   5.507   1.021 -0.6642 -0.9760 -0.1668
 2312TIP3    H228352   3.314   5.415   1.125  2.0018 -1.1046  1.3849
 2313TIP3   OH228353   1.267   0.899  15.706  0.1321 -0.2374  0.7651
 2313TIP3    H128354   1.311   0.821  15.742 -0.1450 -0.4050  0.7462
 2313TIP3    H228355   1.334   0.941  15.652  0.4141 -0.2332  1.1081
 2314TIP3   OH228356   6.166   0.029  14.148 -0.5463  0.6059  0.5185
 2314TIP3    H128357   6.204  -0.055  14.123  0.5231  0.9066  1.0632
 2314TIP3    H228358   6.154   0.022  14.243  2.0539  1.9732  1.0498
 2315TIP3   OH228359   5.900   4.027  16.906  0.0004  0.6299 -0.7156
 2315TIP3    H128360   5.814   4.029  16.864 -0.6172 -1.2352  0.3302
 2315TIP3    H228361   5.881   4.023  17.000  1.3071  2.5027 -0.3239
 2316TIP3   OH228362   0.455   3.965   0.604 -0.1717  0.1060  0.1917
 2316TIP3    H128363   0.475   3.924   0.688  1.2429 -1.6109 -0.9219
 2316TIP3    H228364   0.373   3.923   0.577 -0.2163  0.0906  0.3440
 2317TIP3   OH228365   5.743   5.502   3.191 -0.0109 -0.0187 -0.8315
 2317TIP3    H128366   5.747   5.595   3.213  1.5866 -0.0997 -0.6616
 2317TIP3    H228367   5.671   5.468   3.244 -0.8813  1.1745 -1.1928
 2318TIP3   OH228368   6.507   5.655  16.682 -0.3924  0.3761  0.5085
 2318TIP3    H128369   6.537   5.574  16.722 -2.0127  0.9055  3.0088
 2318TIP3    H228370   6.579   5.717  16.694  0.4480 -0.3627 -0.5115
 2319TIP3   OH228371   1.765   4.152  14.579 -0.2113 -0.4941 -0.5115
 2319TIP3    H128372   1.804   4.107  14.654 -0.2663 -1.4181 -1.0224
 2319TIP3    H228373   1.772   4.089  14.507  0.8317  0.7923 -1.5753
 2320TIP3   OH228374   5.459   0.427  15.817 -0.0351 -0.1068  0.4307
 2320TIP3    H128375   5.527   0.374  15.859 -0.5040 -1.4171 -0.3902
 2320TIP3    H228376   5.383   0.369  15.812 -1.2001  1.2836  1.2069
 2321TIP3   OH228377   5.521   0.850  16.385 -0.0745  0.5823 -0.1058
 2321TIP3    H128378   5.489   0.873  16.298 -0.9857 -0.9432 -0.2170
 2321TIP3    H228379   5.568   0.767  16.373 -2.1300 -0.8759  1.1304
 2322TIP3   OH228380   0.170   2.040   4.329 -0.3613  0.6283 -0.1014
 2322TIP3    H128381   0.171   1.970   4.264  1.0539  1.3343 -0.9076
 2322TIP3    H228382   0.083   2.035   4.369 -0.4179 -1.3290 -0.3857
 2323TIP3   OH228383   6.632   0.818  12.156 -0.1665 -0.2779  0.0106
 2323TIP3    H128384   6.580   0.874  12.215  0.7866  1.1024 -0.4138
 2323TIP3    H228385   6.658   0.876  12.085 -0.2284 -1.6136 -1.1439
 2324TIP3   OH228386   0.777   0.521   5.897 -0.1474 -0.3017  0.0754
 2324TIP3    H128387   0.716   0.587   5.863 -1.5177 -1.1821  0.6993
 2324TIP3    H228388   0.769   0.447   5.836 -0.4548 -0.7909  0.6911
 2325TIP3   OH228389   5.314   0.100   1.760 -0.1634 -0.1860 -0.6158
 2325TIP3    H128390   5.257   0.177   1.766  0.7837  0.4680  0.3993
 2325TIP3    H228391   5.282   0.052   1.684  0.8902  2.6291 -3.0407
 2326TIP3   OH228392   1.631   5.922  11.543  0.4119  0.2986  0.6798
 2326TIP3    H128393   1.620   5.914  11.449 -2.3549  0.3095  0.9209
 2326TIP3    H228394   1.714   5.968  11.554  0.5858  0.6938 -1.7539
 2327TIP3   OH228395   1.912   4.081  12.161  0.1793  0.2655  0.6059
 2327TIP3    H128396   1.819   4.061  12.151  0.1675  0.7809 -0.4853
 2327TIP3    H228397   1.955   4.032  12.091  0.7482 -0.0425  1.1609
 2328TIP3   OH228398   0.757   2.082   3.386  0.2720  0.4080 -0.4464
 2328TIP3    H128399   0.786   2.095   3.296  3.6151 -1.2732  0.1948
 2328TIP3    H228400   0.695   2.009   3.381 -1.0583  1.5416 -1.4925
 2329TIP3   OH228401   4.795   6.381   3.824 -0.0120  0.1452 -0.2975
 2329TIP3    H128402   4.745   6.317   3.774 -0.4757 -0.3837  0.8017
 2329TIP3    H228403   4.796   6.460   3.769  0.9012 -0.8889 -1.8415
 2330TIP3   OH228404   0.207   6.412  11.717 -0.2758  0.3509  0.5123
 2330TIP3    H128405   0.240   6.406  11.806 -0.1964  2.6399  0.6955
 2330TIP3    H228406   0.282   6.390  11.662  0.6005  1.9169  0.9974
 2331TIP3   OH228407   1.514   4.554  12.923 -0.0684  0.7321  0.0177
 2331TIP3    H128408   1.516   4.647  12.902 -1.4265  1.2549  1.9754
 2331TIP3    H228409   1.446   4.545  12.989  1.1806 -1.3904  1.1443
 2332TIP3   OH228410   1.883   5.999  16.568  0.1510 -0.3077  0.4732
 2332TIP3    H128411   1.881   5.919  16.621  1.0482 -0.7373 -0.1132
 2332TIP3    H228412   1.947   5.980  16.499  0.2835  0.8720  0.2540
 2333TIP3   OH228413   3.906   6.387  16.073 -0.7394  0.4883  0.2253
 2333TIP3    H128414   3.989   6.417  16.109 -0.2717 -0.5633  0.0394
 2333TIP3    H228415   3.909   6.292  16.079 -2.5615  0.4538  1.6103
 2334TIP3   OH228416   2.349   3.361   5.956  0.3982 -0.7080 -0.4001
 2334TIP3    H128417   2.344   3.291   5.892 -1.6184  1.6924 -3.1253
 2334TIP3    H228418   2.257   3.384   5.975  0.9014 -1.0130  3.1306
 2335TIP3   OH228419   6.190   3.632  12.083  0.6654  0.6539  0.1913
 2335TIP3    H128420   6.115   3.603  12.133 -0.0642  0.7565 -0.8176
 2335TIP3    H228421   6.249   3.556  12.081 -0.0314  0.1154 -0.1858
 2336TIP3   OH228422   5.744   4.891   4.435 -0.0730 -0.3541 -0.2231
 2336TIP3    H128423   5.806   4.839   4.384 -0.6754 -1.1655 -0.1326
 2336TIP3    H228424   5.693   4.827   4.484 -2.3545  0.1601 -1.7973
 2337TIP3   OH228425   5.577   3.183   1.168 -0.1467 -0.3490  0.4049
 2337TIP3    H128426   5.505   3.140   1.216 -0.8679  1.4182  1.0098
 2337TIP3    H228427   5.654   3.133   1.191 -0.1977  1.0525  4.6031
 2338TIP3   OH228428   5.874   5.138   5.945 -0.2613  0.2944 -0.1094
 2338TIP3    H128429   5.909   5.102   5.863 -2.7948  0.5315 -1.4048
 2338TIP3    H228430   5.832   5.220   5.918 -1.0819  0.4110  1.4506
 2339TIP3   OH228431   0.134   0.475   2.697  0.6252  0.0370 -0.8964
 2339TIP3    H128432   0.144   0.399   2.754  3.5398 -0.7432 -2.2555
 2339TIP3    H228433   0.044   0.468   2.664  0.3092 -1.9276  0.2180
 2340TIP3   OH228434   4.124   4.105  13.964  0.0841 -0.1658 -0.0257
 2340TIP3    H128435   4.206   4.149  13.941  0.6643 -0.1175  1.9061
 2340TIP3    H228436   4.151   4.016  13.986 -0.5745 -0.4936 -0.5344
 2341TIP3   OH228437   6.694   1.565   0.882  0.0846 -0.0115  0.1325
 2341TIP3    H128438   6.639   1.507   0.934 -1.0995  0.9657 -0.0034
 2341TIP3    H228439   6.636   1.636   0.855  1.2870  0.7743 -0.4600
 2342TIP3   OH228440   0.677   1.337  12.276  0.3010 -0.3198  0.1168
 2342TIP3    H128441   0.628   1.360  12.197 -0.6830 -0.4397  0.6657
 2342TIP3    H228442   0.686   1.242  12.272 -2.3855 -0.7352  1.5506
 2343TIP3   OH228443   5.462   3.259   1.466  0.1013  0.5243  0.6866
 2343TIP3    H128444   5.420   3.314   1.532  1.9006  1.9494  0.7184
 2343TIP3    H228445   5.526   3.207   1.514  0.3552  0.4473  0.2717
 2344TIP3   OH228446   4.030   6.589   2.064 -0.5693  0.1923 -0.1275
 2344TIP3    H128447   4.121   6.598   2.094 -0.0318 -1.8493 -0.9853
 2344TIP3    H228448   3.978   6.600   2.144  0.5228 -0.1237  0.6646
 2345TIP3   OH228449   4.008   1.207   5.998  0.0188 -0.1735 -0.1637
 2345TIP3    H128450   4.090   1.257   6.004  0.6312 -1.2134  0.5151
 2345TIP3    H228451   4.022   1.131   6.055 -2.2891  0.8003  1.8938
 2346TIP3   OH228452   4.994   1.373  14.553 -0.5620  0.3061  0.2633
 2346TIP3    H128453   5.028   1.461  14.570 -1.2789  0.8464 -0.8807
 2346TIP3    H228454   5.066   1.327  14.509  0.3232 -0.1942  2.1454
 2347TIP3   OH228455   1.170   3.941  14.221 -0.3628  0.1637  0.0970
 2347TIP3    H128456   1.095   3.984  14.261 -1.5491 -1.6844 -0.0070
 2347TIP3    H228457   1.225   4.012  14.189 -2.5964  1.5648 -0.8149
 2348TIP3   OH228458   2.976   0.677   0.804  0.3940 -0.4699 -0.2203
 2348TIP3    H128459   3.023   0.595   0.789 -2.3074 -2.1781 -0.0700
 2348TIP3    H228460   2.980   0.689   0.899  2.8419  0.9617 -0.4450
 2349TIP3   OH228461   2.181   4.119  13.922  0.2529  0.5458 -0.3772
 2349TIP3    H128462   2.183   4.024  13.911 -1.6727  0.7130 -3.2234
 2349TIP3    H228463   2.229   4.153  13.847 -2.2607  1.7850 -1.5548
 2350TIP3   OH228464   0.988   4.082  14.026  0.2630 -0.4309 -0.0353
 2350TIP3    H128465   0.983   4.026  13.949  2.3907 -1.0658  0.2035
 2350TIP3    H228466   0.991   4.020  14.100  0.4214  0.0647  0.3808
 2351TIP3   OH228467   6.738   3.800   5.574 -0.2394  0.4516 -0.1089
 2351TIP3    H128468   6.671   3.781   5.640  0.7149 -1.5469  0.3680
 2351TIP3    H228469   6.806   3.846   5.622  1.2201 -2.4508  0.8376
 2352TIP3   OH228470   6.124   3.032   5.335 -0.0381  0.2820 -0.3771
 2352TIP3    H128471   6.061   3.010   5.267  0.7304  1.2322 -1.4415
 2352TIP3    H228472   6.101   3.120   5.363 -0.2896 -0.0653  0.5450
 2353TIP3   OH228473   5.143   5.348   1.688  1.1027 -0.2972  0.4547
 2353TIP3    H128474   5.193   5.301   1.622 -1.2870  0.8101 -2.3219
 2353TIP3    H228475   5.063   5.298   1.699 -0.3519  1.6505 -0.6595
 2354TIP3   OH228476   4.687   6.353   4.991 -0.4501  0.2297  0.3324
 2354TIP3    H128477   4.725   6.396   4.914  0.6166 -2.9243 -1.0494
 2354TIP3    H228478   4.761   6.338   5.050 -0.4354 -1.1874 -0.0033
 2355TIP3   OH228479   5.466   5.205  15.957 -0.0049 -0.0690 -0.0220
 2355TIP3    H128480   5.490   5.246  15.874  2.5152 -0.5472  0.3812
 2355TIP3    H228481   5.400   5.139  15.933 -1.1428  1.4441 -1.2347
 2356TIP3   OH228482   4.777   3.059   1.511  0.0239 -0.4514  0.2892
 2356TIP3    H128483   4.768   2.974   1.467  0.7215 -0.0701 -0.6264
 2356TIP3    H228484   4.769   3.123   1.440  0.2316  0.2183  0.8621
 2357TIP3   OH228485   6.586   6.099   5.807  0.0867 -0.8204  0.1239
 2357TIP3    H128486   6.577   6.070   5.716 -3.6946 -0.8876  0.3434
 2357TIP3    H228487   6.588   6.194   5.802 -0.0230 -0.8261 -0.0373
 2358TIP3   OH228488   1.084   1.344  11.162  0.1906 -0.1107  0.5179
 2358TIP3    H128489   0.995   1.350  11.129  0.3144  0.7035  0.2972
 2358TIP3    H228490   1.117   1.434  11.157  1.2275 -0.5027  0.0273
 2359TIP3   OH228491   3.642   6.601   3.191 -0.0916 -0.0754  0.1576
 2359TIP3    H128492   3.654   6.555   3.108 -1.3515 -0.7862  0.3587
 2359TIP3    H228493   3.581   6.672   3.170 -0.6151 -0.4136  0.5215
 2360TIP3   OH228494   2.025   0.466   4.709  0.5362 -0.3032  0.0234
 2360TIP3    H128495   1.965   0.424   4.770  1.4688 -0.2516  1.0136
 2360TIP3    H228496   2.068   0.535   4.761  2.1365 -0.9652 -0.3676
 2361TIP3   OH228497   2.386   6.655   4.173  0.0522 -0.0085 -0.0589
 2361TIP3    H128498   2.431   6.736   4.148  1.0006 -0.6079 -0.3368
 2361TIP3    H228499   2.363   6.614   4.090 -0.3406 -0.0718  0.0821
 2362TIP3   OH228500   6.607   0.947   4.032  0.8960  0.0076 -0.3461
 2362TIP3    H128501   6.530   0.894   4.053 -0.4284  0.9226 -2.5689
 2362TIP3    H228502   6.617   1.005   4.108 -1.1697  0.4669 -0.3772
 2363TIP3   OH228503   0.934   3.650  17.290 -0.1659 -0.2691 -0.0910
 2363TIP3    H128504   1.030   3.652  17.289 -0.0914 -0.8309  1.8275
 2363TIP3    H228505   0.913   3.579  17.350 -1.7764  1.1692  1.1285
 2364TIP3   OH228506   5.618   0.790   3.683 -0.0459 -0.3579  0.1490
 2364TIP3    H128507   5.708   0.800   3.714  0.4732 -0.1462 -1.3733
 2364TIP3    H228508   5.596   0.699   3.704  0.7217 -0.5775  0.0260
 2365TIP3   OH228509   0.016   0.357   1.288  0.7052 -0.2060 -0.4663
 2365TIP3    H128510   0.085   0.397   1.341  1.3425 -1.3720 -0.3892
 2365TIP3    H228511  -0.022   0.290   1.346 -0.7553  0.6708 -0.3738
 2366TIP3   OH228512   0.571   3.520   3.195  0.6271  0.0225 -0.0588
 2366TIP3    H128513   0.486   3.565   3.187 -0.2822 -1.1524  2.0241
 2366TIP3    H228514   0.553   3.431   3.167  1.5430  0.0709 -0.8403
 2367TIP3   OH228515   2.737   1.596  12.277 -0.1094 -0.2561 -0.1099
 2367TIP3    H128516   2.666   1.614  12.339 -0.0954  0.4091 -0.2766
 2367TIP3    H228517   2.716   1.511  12.240  0.7933 -1.5353  2.0935
 2368TIP3   OH228518   5.466   3.114   4.918 -0.1082  0.3786  0.1112
 2368TIP3    H128519   5.379   3.154   4.925  0.8314  2.3358  1.7054
 2368TIP3    H228520   5.498   3.110   5.009  2.3880  1.9340 -0.5975
 2369TIP3   OH228521   3.588   1.097   4.817 -0.3389 -0.4736  0.9223
 2369TIP3    H128522   3.574   1.138   4.732  1.1049 -1.0435  0.3944
 2369TIP3    H228523   3.612   1.170   4.875  0.7550 -0.3561  0.3415
 2370TIP3   OH228524   4.514   0.459   1.699 -0.6059  0.3839  0.5299
 2370TIP3    H128525   4.527   0.535   1.642 -1.9706  0.3497  0.1329
 2370TIP3    H228526   4.425   0.430   1.680  0.0174 -1.5792  0.3492
 2371TIP3   OH228527   3.148   3.443   0.901  0.6712 -0.1826 -0.2115
 2371TIP3    H128528   3.217   3.379   0.919  0.8205  0.3236  1.2154
 2371TIP3    H228529   3.113   3.463   0.988 -1.5305 -0.6901 -0.9318
 2372TIP3   OH228530   2.801   3.800  15.888  0.1902  0.2967  0.0029
 2372TIP3    H128531   2.785   3.849  15.807  3.7452  1.3415 -0.2298
 2372TIP3    H228532   2.743   3.842  15.953 -2.6099 -0.4536 -1.8210
 2373TIP3   OH228533   3.780   1.433   2.001 -0.0105 -0.3895  0.1405
 2373TIP3    H128534   3.706   1.424   2.061 -0.9353  1.4146 -0.6650
 2373TIP3    H228535   3.846   1.481   2.052  0.7780 -2.2592  0.9587
 2374TIP3   OH228536   0.767   5.348  15.919 -0.3918 -0.1012  0.1565
 2374TIP3    H128537   0.791   5.433  15.954  1.6417 -0.3665 -0.4573
 2374TIP3    H228538   0.672   5.351  15.910 -0.4460  1.7313  1.0394
 2375TIP3   OH228539   6.536   6.569   3.588 -0.4185  0.2280 -0.0363
 2375TIP3    H128540   6.594   6.644   3.579 -1.0134  0.6299 -0.5471
 2375TIP3    H228541   6.575   6.517   3.659  1.4768 -0.3387 -1.3934
 2376TIP3   OH228542   1.988   5.530   5.814 -0.3711 -0.1805 -0.2002
 2376TIP3    H128543   2.003   5.449   5.764  0.4801  0.1370 -0.4914
 2376TIP3    H228544   2.026   5.512   5.900 -2.6742 -1.0664  0.7154
 2377TIP3   OH228545   4.366   1.252   4.921 -0.0826 -0.5230 -0.2438
 2377TIP3    H128546   4.459   1.274   4.926 -0.4455  1.2866 -0.7641
 2377TIP3    H228547   4.344   1.224   5.009  0.8002 -0.2283  0.0853
 2378TIP3   OH228548   4.377   5.865  12.247 -0.1251 -0.5771 -0.3682
 2378TIP3    H128549   4.462   5.821  12.241 -0.5597 -1.4048 -0.4896
 2378TIP3    H228550   4.399   5.958  12.248  0.8613 -0.7979  1.0362
 2379TIP3   OH228551   4.431   1.209  11.570  0.3446  0.6871 -0.4873
 2379TIP3    H128552   4.348   1.206  11.616  0.6137 -0.6941 -0.0340
 2379TIP3    H228553   4.487   1.265  11.625  0.6413 -0.8817  0.8886
 2380TIP3   OH228554   5.699   1.705   3.167 -0.1571 -0.0390  0.3550
 2380TIP3    H128555   5.628   1.702   3.103 -0.9034  1.5434  1.0369
 2380TIP3    H228556   5.765   1.762   3.127  0.4145 -0.9250  0.0263
 2381TIP3   OH228557   4.291   4.995  12.067 -0.5996  0.6563 -0.3817
 2381TIP3    H128558   4.269   5.013  12.159 -0.2167  0.6204 -0.2819
 2381TIP3    H228559   4.360   5.059  12.046 -0.7868  0.7588 -0.6860
 2382TIP3   OH228560   0.121   0.132  10.376 -0.2258 -0.1878 -0.5174
 2382TIP3    H128561   0.154   0.184  10.449  0.4097  1.5512 -1.9542
 2382TIP3    H228562   0.149   0.180  10.298 -1.7747 -1.4045 -1.9050
 2383TIP3   OH228563   4.933   2.461   5.612 -0.0408 -0.1750 -0.0966
 2383TIP3    H128564   4.936   2.473   5.707  0.4004 -0.9292 -0.0026
 2383TIP3    H228565   4.862   2.397   5.598 -0.7024  0.6023 -0.3595
 2384TIP3   OH228566   0.134   4.505   2.661  0.4003  0.4449 -0.0140
 2384TIP3    H128567   0.205   4.519   2.724  0.5069  2.1252 -0.4487
 2384TIP3    H228568   0.166   4.435   2.604  0.6514 -0.5204  1.2669
 2385TIP3   OH228569   3.267   4.660   2.044  0.3432 -0.1875 -0.3972
 2385TIP3    H128570   3.195   4.597   2.034  0.0476  0.3852 -2.3144
 2385TIP3    H228571   3.222   4.745   2.052  0.7729 -0.0312  0.3772
 2386TIP3   OH228572   5.500   5.035  17.204  0.1417  0.7255  0.1724
 2386TIP3    H128573   5.424   5.026  17.261  1.0248  1.5925  1.5572
 2386TIP3    H228574   5.569   5.070  17.262  1.7974 -0.6806 -0.8514
 2387TIP3   OH228575   1.645   6.548  16.090  0.0155 -0.4216  0.5278
 2387TIP3    H128576   1.693   6.621  16.051 -1.3810  0.0624 -0.3527
 2387TIP3    H228577   1.606   6.584  16.169  0.3210 -0.5534  0.7392
 2388TIP3   OH228578   0.934   2.948   0.274 -0.1721 -0.3631  0.1786
 2388TIP3    H128579   0.886   2.966   0.193  0.0502 -1.5590 -0.2442
 2388TIP3    H228580   0.881   2.883   0.320  1.5156 -2.6191 -0.8529
 2389TIP3   OH228581   0.023   4.645   4.044 -0.4435 -0.2266  0.2581
 2389TIP3    H128582   0.032   4.669   4.136  1.7120  0.3455 -0.0274
 2389TIP3    H228583   0.018   4.729   3.998  2.4618 -0.2817 -0.3831
 2390TIP3   OH228584   1.452   3.838  12.642 -0.0666  0.2975  0.2632
 2390TIP3    H128585   1.534   3.886  12.637 -0.8428  1.5513 -0.8310
 2390TIP3    H228586   1.390   3.898  12.684 -0.6144 -0.3827  0.4646
 2391TIP3   OH228587   4.535   1.925   2.562  0.2273  0.1241  0.3055
 2391TIP3    H128588   4.556   1.831   2.560 -0.0978  0.0243 -2.0456
 2391TIP3    H228589   4.464   1.932   2.625 -0.2574 -1.3659 -0.0195
 2392TIP3   OH228590   1.686   6.016  12.189  0.5946  0.1693  0.6281
 2392TIP3    H128591   1.650   5.980  12.109 -0.3593 -0.4770  1.3269
 2392TIP3    H228592   1.674   6.111  12.181 -0.0028  0.0624  0.2597
 2393TIP3   OH228593   0.268   3.921  12.713  0.1048 -0.0869  0.0580
 2393TIP3    H128594   0.332   3.877  12.657 -0.4349 -0.6325 -0.1365
 2393TIP3    H228595   0.231   3.989  12.657  2.1099  1.7824  0.8373
 2394TIP3   OH228596   4.808   0.030   1.107  0.0197  0.0203 -0.7134
 2394TIP3    H128597   4.733   0.027   1.048 -0.4803 -1.6765 -0.0558
 2394TIP3    H228598   4.807  -0.055   1.151  0.7009  1.0152  1.3416
 2395TIP3   OH228599   2.596   2.627  12.933 -0.9779 -0.4874 -0.2273
 2395TIP3    H128600   2.580   2.663  13.020 -0.9600  0.1126 -0.4639
 2395TIP3    H228601   2.548   2.545  12.931  0.0567 -1.1428  0.7896
 2396TIP3   OH228602   1.045   5.306   4.307  0.9035  0.1103  0.1132
 2396TIP3    H128603   1.014   5.248   4.376 -0.5119  0.1807 -0.4341
 2396TIP3    H228604   0.998   5.276   4.228  0.0236  2.0794 -0.1546
 2397TIP3   OH228605   3.887   5.463   4.464  0.1279 -0.4062 -0.0622
 2397TIP3    H128606   3.853   5.508   4.541 -0.1321  0.9227 -0.9286
 2397TIP3    H228607   3.918   5.533   4.407  1.9288 -1.4405 -0.4362
 2398TIP3   OH228608   5.274   0.644  11.064 -0.4026 -0.0166  0.7168
 2398TIP3    H128609   5.350   0.585  11.070  0.4548  0.9869  0.1662
 2398TIP3    H228610   5.286   0.689  10.980 -1.1488  0.7817  1.0292
 2399TIP3   OH228611   0.966   0.206  15.545  0.1213 -0.3160 -0.7458
 2399TIP3    H128612   0.962   0.267  15.472 -0.3867  0.6491  0.0639
 2399TIP3    H228613   0.917   0.249  15.615  0.3394 -1.3493  0.0668
 2400TIP3   OH228614   3.927   4.207   1.913  0.0713  0.5742  0.1027
 2400TIP3    H128615   3.860   4.255   1.962  1.2300  1.0159  1.3183
 2400TIP3    H228616   4.002   4.265   1.911  0.8866 -0.4440 -0.0115
 2401TIP3   OH228617   4.032   1.304  13.135  0.2376  0.3588  0.1060
 2401TIP3    H128618   3.955   1.360  13.137  1.5172  2.2080  0.4997
 2401TIP3    H228619   4.087   1.341  13.065 -0.4441 -2.7514 -2.3171
 2402TIP3   OH228620   6.686   2.356  13.041  0.0610  0.4380  0.1072
 2402TIP3    H128621   6.594   2.376  13.054 -0.1085  1.6108 -2.4577
 2402TIP3    H228622   6.689   2.302  12.962  1.5915  0.8066 -0.1285
 2403TIP3   OH228623   2.389   0.756  16.358 -0.2643  0.0101  0.1040
 2403TIP3    H128624   2.321   0.823  16.350  0.0825  0.1377 -2.6718
 2403TIP3    H228625   2.369   0.693  16.289  1.4862 -0.8572  0.3352
 2404TIP3   OH228626   0.441   6.038   3.619 -0.0913 -0.6496 -0.2735
 2404TIP3    H128627   0.441   6.051   3.524 -1.3528 -2.3714 -0.5394
 2404TIP3    H228628   0.359   5.992   3.637  0.3928 -0.8390  1.5972
 2405TIP3   OH228629   0.588   5.017  11.498  0.6013 -0.0588  0.0350
 2405TIP3    H128630   0.677   5.037  11.528 -0.3137  1.6631  1.7933
 2405TIP3    H228631   0.570   5.081  11.430  0.6840 -0.4212 -0.3358
 2406TIP3   OH228632   3.332   1.042   3.162  0.3020 -0.2543  0.0701
 2406TIP3    H128633   3.370   1.130   3.154  0.7092 -0.5039 -0.9042
 2406TIP3    H228634   3.404   0.987   3.192 -0.2506 -0.0624  1.8872
 2407TIP3   OH228635   5.601   1.911  15.831 -0.4741 -0.3328  0.4939
 2407TIP3    H128636   5.697   1.907  15.840 -0.2368  2.2850  0.0937
 2407TIP3    H228637   5.570   1.826  15.862  2.0805 -1.9800 -1.0188
 2408TIP3   OH228638   6.184   4.330   6.553  0.9279 -0.1063 -0.5631
 2408TIP3    H128639   6.200   4.236   6.546 -0.4069 -0.3579 -0.5544
 2408TIP3    H228640   6.265   4.366   6.590  1.2337 -1.3394  0.0168
 2409TIP3   OH228641   2.051   4.273  13.324  0.2558  0.8764  1.0013
 2409TIP3    H128642   2.066   4.334  13.252 -1.2711  0.1789  0.0514
 2409TIP3    H228643   1.957   4.278  13.340  0.0288 -1.4475  0.6792
 2410TIP3   OH228644   1.922   2.234  15.154 -0.6956  0.2917 -0.5705
 2410TIP3    H128645   1.954   2.254  15.066 -0.5090  0.2957 -0.5026
 2410TIP3    H228646   1.891   2.144  15.149  0.4953 -0.1541 -0.3187
 2411TIP3   OH228647   0.583   6.356   5.626  0.0166  0.0743 -0.0346
 2411TIP3    H128648   0.600   6.335   5.718  1.6019 -1.1270 -0.5472
 2411TIP3    H228649   0.521   6.289   5.597  1.8800 -1.5141 -0.5825
 2412TIP3   OH228650   4.317   5.810  17.029  0.6042  0.0876 -0.0684
 2412TIP3    H128651   4.278   5.768  17.105 -2.9887  1.9882 -0.6697
 2412TIP3    H228652   4.360   5.888  17.063 -0.4721  0.6107  0.1111
 2413TIP3   OH228653   0.005   4.420  14.261  0.0392  0.1765 -0.7965
 2413TIP3    H128654   0.014   4.457  14.349 -0.5278 -2.2862  0.4014
 2413TIP3    H228655  -0.089   4.401  14.254  0.6409 -4.4120  0.3258
 2414TIP3   OH228656   0.840   5.188   5.809 -0.1894  0.0726 -0.0015
 2414TIP3    H128657   0.808   5.109   5.852 -2.1907  0.8532  0.0756
 2414TIP3    H228658   0.863   5.161   5.721  0.2225 -0.7879  0.3608
 2415TIP3   OH228659   3.986   2.381   2.746 -0.2454  0.4670  0.2227
 2415TIP3    H128660   4.042   2.423   2.811 -3.2293  0.6216  2.9400
 2415TIP3    H228661   3.927   2.450   2.717  0.2663  0.0981 -1.8463
 2416TIP3   OH228662   6.154   3.212  16.270  0.0879  0.2941  0.3986
 2416TIP3    H128663   6.117   3.229  16.357 -0.3798  0.1850  0.2245
 2416TIP3    H228664   6.247   3.196  16.286 -0.2600 -1.1833  1.0482
 2417TIP3   OH228665   2.055   1.216  10.719  0.1061 -0.1046  0.5784
 2417TIP3    H128666   2.089   1.268  10.647 -1.3357  0.5101  0.2980
 2417TIP3    H228667   2.124   1.153  10.738  0.5099 -0.3001 -1.3483
 2418TIP3   OH228668   0.577   1.955   2.071  0.6818  0.0142 -0.3858
 2418TIP3    H128669   0.504   1.919   2.022  1.6955  0.5793 -2.4384
 2418TIP3    H228670   0.537   2.015   2.135 -0.8342 -2.6048  1.2868
 2419TIP3   OH228671   1.768   2.555  14.982  0.0114 -0.1698 -0.1236
 2419TIP3    H128672   1.799   2.590  15.065  0.2435  1.6181 -0.9236
 2419TIP3    H228673   1.696   2.612  14.956  1.2841  0.6457 -2.1463
 2420TIP3   OH228674   5.980   2.198  16.158  0.0069  0.2623  0.6612
 2420TIP3    H128675   6.055   2.243  16.119  0.0281  0.5906  1.0762
 2420TIP3    H228676   5.923   2.178  16.084  0.7987 -0.5572  0.2585
 2421TIP3   OH228677   4.956   5.093   0.780  0.3216 -0.0180  0.0790
 2421TIP3    H128678   4.943   5.016   0.725 -0.3284  0.1367  0.0090
 2421TIP3    H228679   4.894   5.082   0.852  1.6926 -0.6041  1.2256
 2422TIP3   OH228680   5.116   1.895  16.093 -0.4784 -0.3771  0.3763
 2422TIP3    H128681   5.038   1.887  16.148 -1.1430 -1.5368 -0.6918
 2422TIP3    H228682   5.143   1.986  16.103 -1.1284 -0.3172  1.8727
 2423TIP3   OH228683   3.758   4.389   4.354 -0.4177  0.6594  0.3498
 2423TIP3    H128684   3.736   4.402   4.446 -0.0379  1.0049  0.3969
 2423TIP3    H228685   3.681   4.347   4.316  0.0841 -1.1092  1.1897
 2424TIP3   OH228686   5.945   5.003  16.254 -0.0231 -0.3772  0.3821
 2424TIP3    H128687   6.014   5.069  16.254  1.6310 -2.0309  1.3853
 2424TIP3    H228688   5.942   4.972  16.164  0.3825 -0.1468  0.2859
 2425TIP3   OH228689   0.401   5.045   0.363 -0.5304  0.1839 -0.5837
 2425TIP3    H128690   0.404   5.141   0.362 -0.1183  0.2134  1.0927
 2425TIP3    H228691   0.480   5.019   0.410 -1.0746 -0.9489 -0.2669
 2426TIP3   OH228692   5.801   2.651  13.188  0.2058  0.5756 -0.1018
 2426TIP3    H128693   5.888   2.619  13.166 -0.5449 -0.1068 -2.3142
 2426TIP3    H228694   5.744   2.575  13.175 -0.7228  0.9034  1.6557
 2427TIP3   OH228695   2.173   1.369  10.529  0.5183  0.2557 -0.6568
 2427TIP3    H128696   2.230   1.385  10.605  1.8466 -2.1371 -1.0288
 2427TIP3    H228697   2.198   1.436  10.465  0.7648  1.0950  0.2993
 2428TIP3   OH228698   4.306   2.745  14.294 -0.1757  0.1567 -0.4336
 2428TIP3    H128699   4.323   2.839  14.283 -0.1423  0.1154 -0.7258
 2428TIP3    H228700   4.320   2.707  14.207  0.0061 -0.1504 -0.2724
 2429TIP3   OH228701   3.789   3.643  16.126 -0.5008 -0.9062 -0.1503
 2429TIP3    H128702   3.780   3.555  16.163  0.1332 -0.6337  0.6756
 2429TIP3    H228703   3.740   3.699  16.185 -1.0697 -0.7183 -0.7834
 2430TIP3   OH228704   3.967   3.391  16.345 -0.2044 -0.3819 -0.1410
 2430TIP3    H128705   3.953   3.404  16.252 -2.4000  3.2503  0.4810
 2430TIP3    H228706   3.879   3.380  16.381 -0.0839  3.6869  1.9528
 2431TIP3   OH228707   4.209   5.413  12.044 -0.0926  0.2502 -0.6237
 2431TIP3    H128708   4.278   5.474  12.068  1.3485 -1.7939  0.7527
 2431TIP3    H228709   4.145   5.420  12.115  1.5938 -1.9401  1.2914
 2432TIP3   OH228710   6.740   5.542   3.857 -0.3833 -0.2588 -0.1539
 2432TIP3    H128711   6.741   5.465   3.800  1.8446  0.6883 -1.4614
 2432TIP3    H228712   6.715   5.614   3.801 -0.9726  0.2571  0.7386
 2433TIP3   OH228713   3.698   4.129   2.506 -0.8918  0.2391  0.9273
 2433TIP3    H128714   3.743   4.087   2.580 -0.9155  1.5021  1.6810
 2433TIP3    H228715   3.697   4.062   2.438  0.5721 -0.4053  1.5022
 2434TIP3   OH228716   1.872   2.138   5.195  0.2484  0.0936 -0.5731
 2434TIP3    H128717   1.827   2.088   5.127  0.1063  0.6889 -0.9299
 2434TIP3    H228718   1.831   2.109   5.277 -0.0970 -0.0887 -0.8086
 2435TIP3   OH228719   5.512   5.631   2.961 -0.4606  0.1522 -0.8797
 2435TIP3    H128720   5.461   5.550   2.970  0.8993 -0.5255  3.8698
 2435TIP3    H228721   5.447   5.700   2.952 -2.2632 -0.9383  2.1697
 2436TIP3   OH228722   1.244   3.186  11.941 -0.0154  0.1045 -0.1318
 2436TIP3    H128723   1.329   3.141  11.945 -0.4178 -0.8652 -1.4454
 2436TIP3    H228724   1.253   3.246  11.867 -1.0852 -1.4714 -1.6112
 2437TIP3   OH228725   0.525   2.557   0.778  0.3118 -0.8955 -0.0102
 2437TIP3    H128726   0.434   2.532   0.789 -0.6807  1.3040 -2.2216
 2437TIP3    H228727   0.574   2.475   0.785 -1.9219 -2.2603  0.2823
 2438TIP3   OH228728   0.919   1.093  14.551 -0.4013  0.6174 -0.1527
 2438TIP3    H128729   0.879   1.035  14.487  1.1027 -0.8508  0.1765
 2438TIP3    H228730   0.979   1.147  14.499 -1.3827  1.5305 -0.3744
 2439TIP3   OH228731   1.784   5.080   4.371 -0.2052 -0.0242  0.3594
 2439TIP3    H128732   1.876   5.095   4.348 -0.3878  0.4648 -0.0733
 2439TIP3    H228733   1.743   5.166   4.365 -0.4947 -0.0624  1.5075
 2440TIP3   OH228734   0.442   4.443  12.595 -0.6318 -0.0665 -0.2509
 2440TIP3    H128735   0.407   4.363  12.556 -0.3616 -0.1372 -0.3516
 2440TIP3    H228736   0.393   4.514  12.553 -0.3748 -0.1438 -0.6910
 2441TIP3   OH228737   4.563   0.236  16.862  0.1005 -0.4925  0.5581
 2441TIP3    H128738   4.594   0.321  16.894  0.8731  0.2001 -1.8193
 2441TIP3    H228739   4.597   0.173  16.924  1.7421  0.7381  0.9733
 2442TIP3   OH228740   1.429   6.005  15.472 -0.0815  0.2043  0.2723
 2442TIP3    H128741   1.443   5.935  15.408  1.2648  1.2320 -0.5839
 2442TIP3    H228742   1.397   6.079  15.420  1.1143  1.0785  0.7466
 2443TIP3   OH228743   6.598   3.844   3.068 -0.0435  0.1301 -0.3361
 2443TIP3    H128744   6.503   3.836   3.060  0.1031  0.2339 -3.4179
 2443TIP3    H228745   6.618   3.808   3.155 -2.7328 -1.4179 -0.2388
 2444TIP3   OH228746   0.113   2.938   4.210 -0.5417 -0.2101 -0.0770
 2444TIP3    H128747   0.105   2.849   4.174  1.0450 -0.7699  0.8199
 2444TIP3    H228748   0.208   2.954   4.211 -0.8671  2.2387 -1.8860
 2445TIP3   OH228749   2.062   4.642  16.241  0.0063  0.3261 -0.1474
 2445TIP3    H128750   2.059   4.635  16.145  1.3529  2.2400 -0.3925
 2445TIP3    H228751   1.988   4.698  16.263  0.1991  0.6009 -0.1841
 2446TIP3   OH228752   5.544   6.561   1.436  0.4446 -0.0728 -0.5389
 2446TIP3    H128753   5.464   6.604   1.464  0.5754  0.0407 -0.3377
 2446TIP3    H228754   5.535   6.554   1.341  0.0634 -0.3321 -0.4869
 2447TIP3   OH228755   6.712   0.304  17.130 -0.0713 -0.0422 -0.1476
 2447TIP3    H128756   6.647   0.313  17.060  0.2787  1.0179 -0.3514
 2447TIP3    H228757   6.771   0.379  17.118  1.0827 -0.8748  0.1495
 2448TIP3   OH228758   3.376   0.900   4.783  0.2939 -0.7541  0.1545
 2448TIP3    H128759   3.419   0.820   4.813 -0.0184 -1.0576 -0.2049
 2448TIP3    H228760   3.436   0.970   4.809  1.6026 -1.2496 -1.3442
 2449TIP3   OH228761   1.808   3.328  11.402 -0.0435  0.9646 -0.6760
 2449TIP3    H128762   1.892   3.310  11.361  1.1427  2.6702  0.8624
 2449TIP3    H228763   1.829   3.342  11.494 -2.1903  0.2466 -0.0205
 2450TIP3   OH228764   3.661   6.204  14.114  0.3965  0.0102  0.1477
 2450TIP3    H128765   3.740   6.206  14.060  0.9780  1.9947  0.9603
 2450TIP3    H228766   3.667   6.122  14.163  2.0394  0.1845  0.2916
 2451TIP3   OH228767   4.577   6.319  14.456  0.2123  0.7114 -0.5033
 2451TIP3    H128768   4.512   6.345  14.391  0.9576  1.8175 -0.8284
 2451TIP3    H228769   4.643   6.271  14.407  0.8075  1.6021 -0.5972
 2452TIP3   OH228770   4.553   6.312   4.687  0.2534 -0.0654  0.1073
 2452TIP3    H128771   4.511   6.368   4.752  1.3933  1.7805 -0.6619
 2452TIP3    H228772   4.503   6.328   4.607  0.6194 -0.1151 -0.1317
 2453TIP3   OH228773   2.393   6.320  12.770  0.5178  0.7764  0.3983
 2453TIP3    H128774   2.443   6.242  12.794  0.2235  0.3073 -0.4791
 2453TIP3    H228775   2.348   6.296  12.689 -0.8743  1.3115  0.9905
 2454TIP3   OH228776   3.286   2.841   5.981 -0.1889 -0.2174  0.1991
 2454TIP3    H128777   3.263   2.820   6.071 -0.1016 -0.7837  0.0947
 2454TIP3    H228778   3.274   2.935   5.974 -3.0857 -0.5000  0.0072
 2455TIP3   OH228779   6.744   4.282   0.432 -0.2379 -0.3936 -0.0372
 2455TIP3    H128780   6.695   4.203   0.411 -2.4686  0.8411  0.2135
 2455TIP3    H228781   6.699   4.319   0.508 -0.1515  1.8212 -0.9936
 2456TIP3   OH228782   1.701   6.256  11.178  0.2641 -0.2802 -0.7408
 2456TIP3    H128783   1.765   6.321  11.208 -1.4039  1.5269 -0.8861
 2456TIP3    H228784   1.618   6.303  11.177 -1.5772 -3.0596  1.5962
 2457TIP3   OH228785   5.041   4.110  16.049  0.4234 -0.3453 -0.4556
 2457TIP3    H128786   5.131   4.120  16.080  0.2556 -1.0324  0.2955
 2457TIP3    H228787   5.030   4.016  16.038 -0.7995 -0.4575  1.3724
 2458TIP3   OH228788   2.964   4.670  14.974  0.0714  0.0444 -0.4254
 2458TIP3    H128789   2.884   4.708  14.938 -0.9599 -0.5845  1.1073
 2458TIP3    H228790   2.935   4.587  15.013  1.6501 -0.6534 -0.6825
 2459TIP3   OH228791   1.861   3.842   3.263 -0.7952 -0.3652 -0.1246
 2459TIP3    H128792   1.892   3.932   3.266 -0.8754 -0.3588  0.7484
 2459TIP3    H228793   1.776   3.844   3.308 -1.9504 -0.4508 -2.1252
 2460TIP3   OH228794   4.467   5.282   0.568  0.6791  0.4199 -0.0806
 2460TIP3    H128795   4.508   5.358   0.611  0.7531  1.3041 -1.6062
 2460TIP3    H228796   4.448   5.313   0.479  0.6435 -1.3476 -0.7277
 2461TIP3   OH228797   6.358   1.490   1.547  0.0059 -0.4215  0.7108
 2461TIP3    H128798   6.450   1.486   1.521  0.3382  1.6788  1.4338
 2461TIP3    H228799   6.314   1.433   1.484  1.5877 -0.1985 -0.6785
 2462TIP3   OH228800   0.777   3.517   1.900 -0.4628 -0.1362 -0.5427
 2462TIP3    H128801   0.838   3.585   1.871  0.1038 -0.0830  0.7171
 2462TIP3    H228802   0.691   3.548   1.870  0.0527  0.0222 -1.9107
 2463TIP3   OH228803   3.715   3.309   1.660  0.0683  0.4752 -0.4932
 2463TIP3    H128804   3.725   3.223   1.700 -0.5078  0.6890  0.1273
 2463TIP3    H228805   3.654   3.295   1.588  0.4261  0.2553 -0.7539
 2464TIP3   OH228806   2.501   2.352  13.581 -0.5104  0.4608 -0.2166
 2464TIP3    H128807   2.490   2.444  13.603 -1.2711 -0.0693  1.8682
 2464TIP3    H228808   2.416   2.312  13.598  0.4412 -1.0510  1.4236
 2465TIP3   OH228809   2.432   6.189  15.183 -0.0499  0.2105 -0.5204
 2465TIP3    H128810   2.510   6.164  15.234  0.9833  0.0728 -2.1138
 2465TIP3    H228811   2.361   6.139  15.223  0.5966  0.5246  1.1326
 2466TIP3   OH228812   4.802   6.154   4.705 -0.1321 -0.0247  0.1345
 2466TIP3    H128813   4.732   6.207   4.669 -1.0452 -1.9102 -0.9635
 2466TIP3    H228814   4.761   6.106   4.777  0.7846  0.9730  1.3790
 2467TIP3   OH228815   4.087   5.098   1.323 -0.1286  0.1179  0.0239
 2467TIP3    H128816   4.166   5.137   1.361  0.7018 -1.2561 -0.2272
 2467TIP3    H228817   4.119   5.046   1.249 -1.3110 -0.2054 -0.2814
 2468TIP3   OH228818   0.433   4.354  16.396  0.1096 -0.0211  0.0808
 2468TIP3    H128819   0.346   4.338  16.433  0.2131 -0.6326  0.0764
 2468TIP3    H228820   0.415   4.393  16.310 -0.1647 -0.1102  0.0954
 2469TIP3   OH228821   6.648   2.278  13.349 -0.1193 -0.0982 -0.0236
 2469TIP3    H128822   6.648   2.183  13.358 -1.6134 -0.0084  1.4904
 2469TIP3    H228823   6.580   2.296  13.284 -1.5976  0.0094  1.5032
 2470TIP3   OH228824   1.185   6.310   4.903  0.0688  0.4162  0.1022
 2470TIP3    H128825   1.147   6.226   4.929  0.6813  0.2864  0.6306
 2470TIP3    H228826   1.114   6.373   4.912 -1.2229 -0.4233 -2.9338
 2471TIP3   OH228827   1.754   4.429   0.619 -0.0120  0.4146 -0.0518
 2471TIP3    H128828   1.660   4.438   0.607 -0.3009 -1.2881  0.7025
 2471TIP3    H228829   1.777   4.498   0.682 -0.9216  0.2459  0.4764
 2472TIP3   OH228830   6.750   4.718   2.739 -0.3716  0.6152  0.5389
 2472TIP3    H128831   6.779   4.785   2.677  0.5055  0.4009  0.7018
 2472TIP3    H228832   6.806   4.643   2.721 -0.6578  0.2742  1.0473
 2473TIP3   OH228833   0.368   3.362  15.548  0.3410 -0.1417 -0.2391
 2473TIP3    H128834   0.359   3.389  15.640 -0.4280 -0.5937 -0.1692
 2473TIP3    H228835   0.461   3.373  15.529  0.1209  2.5336 -0.2044
 2474TIP3   OH228836   3.892   3.204  11.619 -0.2970 -0.1159  0.4917
 2474TIP3    H128837   3.883   3.286  11.571 -1.0721 -0.7707 -0.5298
 2474TIP3    H228838   3.935   3.228  11.700  0.2451  1.1719 -0.1511
 2475TIP3   OH228839   3.516   5.135   3.141  0.2138 -0.3775 -0.0309
 2475TIP3    H128840   3.607   5.135   3.111  0.3548 -0.3878  0.3913
 2475TIP3    H228841   3.465   5.142   3.061  0.5697 -1.1651 -0.3385
 2476TIP3   OH228842   5.171   5.826  16.749 -0.3953 -0.3778  0.9812
 2476TIP3    H128843   5.164   5.735  16.721  2.1909 -0.1920 -0.5944
 2476TIP3    H228844   5.257   5.831  16.791  0.8325  1.8252 -1.4831
 2477TIP3   OH228845   6.621   6.457   5.449  0.0235  0.0861 -0.0070
 2477TIP3    H128846   6.555   6.394   5.419  0.4517  0.4394 -1.8131
 2477TIP3    H228847   6.705   6.413   5.436  0.2827  0.7190 -0.5307
 2478TIP3   OH228848   4.404   6.525  16.063  0.2867  0.3804  0.8382
 2478TIP3    H128849   4.456   6.517  16.143 -1.0013 -2.9804  1.5149
 2478TIP3    H228850   4.372   6.615  16.064  1.0843  0.7387  3.6322
 2479TIP3   OH228851   3.280   2.023   1.603  0.1112  0.3086  0.2391
 2479TIP3    H128852   3.274   2.024   1.699 -0.8568  1.2441  0.1802
 2479TIP3    H228853   3.192   2.045   1.573  0.4832  0.3303 -0.8757
 2480TIP3   OH228854   4.504   5.480  12.414  0.2749 -0.2198 -0.5964
 2480TIP3    H128855   4.555   5.399  12.408  3.7877  1.6785  0.7213
 2480TIP3    H228856   4.473   5.482  12.505  1.6130  0.5623 -0.1147
 2481TIP3   OH228857   0.535   2.439   3.338 -0.5466 -0.6683 -0.4255
 2481TIP3    H128858   0.605   2.489   3.299 -0.8413 -0.3378 -0.5352
 2481TIP3    H228859   0.481   2.411   3.264 -0.7682 -0.5564 -0.3066
 2482TIP3   OH228860   1.904   5.981   2.393 -0.3487 -0.1551  0.1178
 2482TIP3    H128861   1.987   6.024   2.415 -0.7233  1.5757 -1.5864
 2482TIP3    H228862   1.923   5.934   2.312 -0.6714 -0.9775  0.5137
 2483TIP3   OH228863   1.397   3.562  16.700  0.0098 -0.4042 -1.0507
 2483TIP3    H128864   1.438   3.565  16.787  1.1026  2.0396 -1.5756
 2483TIP3    H228865   1.470   3.550  16.639 -0.3431  1.0123 -1.8035
 2484TIP3   OH228866   1.919   2.106  11.933 -0.2146  0.3484 -0.3176
 2484TIP3    H128867   1.977   2.032  11.919 -0.4508 -0.2150  1.4495
 2484TIP3    H228868   1.964   2.181  11.894  1.7360 -0.0541  1.0609
 2485TIP3   OH228869   0.231   2.000   0.304 -0.0698  0.1707 -0.5838
 2485TIP3    H128870   0.213   1.984   0.397  1.8466 -1.2914 -0.4065
 2485TIP3    H228871   0.259   2.092   0.302 -1.3746  0.6132  0.0481
 2486TIP3   OH228872   3.084   6.269   4.737  0.4046 -0.0849  0.1034
 2486TIP3    H128873   3.055   6.351   4.696  0.3546 -0.8785 -1.5093
 2486TIP3    H228874   3.143   6.230   4.673  1.4627 -0.7041  1.4132
 2487TIP3   OH228875   5.302   5.455   1.915 -0.2113 -0.1500 -0.1592
 2487TIP3    H128876   5.275   5.376   1.868  0.4333 -2.1727  2.6214
 2487TIP3    H228877   5.263   5.446   2.002  1.7054  1.4960  0.9524
 2488TIP3   OH228878   5.799   4.443   2.163  0.0675  0.3345 -0.6466
 2488TIP3    H128879   5.746   4.517   2.136  0.7040  1.4545  0.9951
 2488TIP3    H228880   5.869   4.437   2.097 -0.5751  0.5068 -1.3550
 2489TIP3   OH228881   0.688   6.573   2.042 -0.5596 -0.2005  0.0721
 2489TIP3    H128882   0.764   6.526   2.076 -0.3344 -0.8775 -1.2746
 2489TIP3    H228883   0.645   6.509   1.984 -0.1036  1.2929 -2.0071
 2490TIP3   OH228884   4.377   2.904   4.469 -0.3178  0.4581  0.4661
 2490TIP3    H128885   4.366   2.837   4.536  0.1947 -0.5525 -0.4322
 2490TIP3    H228886   4.423   2.975   4.513 -1.1607  0.3717  1.5224
 2491TIP3   OH228887   0.246   2.485   0.726 -0.8837 -0.3661 -0.6277
 2491TIP3    H128888   0.222   2.485   0.634 -1.2396 -2.6667 -0.6099
 2491TIP3    H228889   0.165   2.508   0.772 -1.0564 -0.5133 -0.8534
 2492TIP3   OH228890   1.474   3.356  16.925  0.4099  0.1168  0.3384
 2492TIP3    H128891   1.471   3.445  16.959 -1.1336  0.3002 -0.2152
 2492TIP3    H228892   1.405   3.352  16.859  1.5888 -0.9946 -0.9050
 2493TIP3   OH228893   2.642   2.002  15.262  0.0325 -0.3374  0.3551
 2493TIP3    H128894   2.595   1.938  15.315 -1.7514  0.7480  0.1456
 2493TIP3    H228895   2.586   2.018  15.187 -0.9310  3.3988  1.6695
 2494TIP3   OH228896   2.337   2.548  17.079 -0.1896 -0.5263 -0.1444
 2494TIP3    H128897   2.405   2.602  17.038 -1.4295  0.0056 -1.6104
 2494TIP3    H228898   2.275   2.531  17.008 -1.4603 -1.1949  1.0914
 2495TIP3   OH228899   4.409   5.831   2.523 -0.4354 -0.0532 -0.4242
 2495TIP3    H128900   4.419   5.738   2.542  1.3247  0.3121  0.6391
 2495TIP3    H228901   4.409   5.874   2.609  1.8807  1.1517 -0.9490
 2496TIP3   OH228902   5.443   3.601   2.717  0.1784  0.5221 -0.1330
 2496TIP3    H128903   5.394   3.657   2.777 -1.5671 -0.9527 -0.1032
 2496TIP3    H228904   5.498   3.662   2.667  0.7174  1.9043  2.0238
 2497TIP3   OH228905   2.035   0.822  16.459 -0.6590  0.5438 -0.2344
 2497TIP3    H128906   1.970   0.763  16.422 -1.0636  1.0235 -0.2937
 2497TIP3    H228907   2.090   0.848  16.385  1.6200 -2.3112  0.2659
 2498TIP3   OH228908   3.666   2.695   0.442  0.0544 -0.1293 -0.5513
 2498TIP3    H128909   3.690   2.621   0.498 -1.4298 -1.1616 -1.2322
 2498TIP3    H228910   3.733   2.696   0.374 -1.1178 -2.3269 -1.8489
 2499TIP3   OH228911   0.801   2.599   2.905  0.3145 -0.1796 -0.3145
 2499TIP3    H128912   0.873   2.536   2.914 -0.0981 -0.5171  0.8494
 2499TIP3    H228913   0.839   2.682   2.933  0.5695 -0.1191 -0.8319
 2500TIP3   OH228914   1.634   0.986   1.059 -0.1384  0.2963 -0.2657
 2500TIP3    H128915   1.563   1.042   1.028  1.4268  1.4847 -1.9633
 2500TIP3    H228916   1.689   0.973   0.981  2.5975  1.1737  1.3771
 2501TIP3   OH228917   0.558   2.624   3.812  0.4194 -0.2711  0.4960
 2501TIP3    H128918   0.566   2.690   3.881 -0.8357  1.2833 -0.7795
 2501TIP3    H228919   0.640   2.575   3.817  1.5902  1.6518  1.2229
 2502TIP3   OH228920   1.504   5.306   3.602  0.3497  0.3609 -0.1543
 2502TIP3    H128921   1.595   5.305   3.633  0.3298  0.7591 -0.0763
 2502TIP3    H228922   1.453   5.326   3.681  0.2594  0.9222 -0.3556
 2503TIP3   OH228923   0.889   3.760  11.538 -0.5501 -0.0188 -0.5145
 2503TIP3    H128924   0.820   3.693  11.545 -0.3202 -0.2643 -0.6041
 2503TIP3    H228925   0.969   3.710  11.524 -0.1287  0.1851  0.9948
 2504TIP3   OH228926   1.799   6.362   6.433  0.3278  0.0869 -0.1227
 2504TIP3    H128927   1.877   6.391   6.385  1.0830 -0.5274  0.7114
 2504TIP3    H228928   1.758   6.443   6.463  2.5365  0.4161  2.3942
 2505TIP3   OH228929   3.189   4.423   1.620  0.3520 -0.2191 -0.1958
 2505TIP3    H128930   3.221   4.333   1.615  1.9786  0.3679 -1.0892
 2505TIP3    H228931   3.227   4.458   1.701 -0.4315 -0.3572  0.2502
 2506TIP3   OH228932   2.201   4.086   0.229 -0.1994 -0.3023 -0.3271
 2506TIP3    H128933   2.279   4.095   0.174 -0.6703 -0.2273 -0.9898
 2506TIP3    H228934   2.219   4.141   0.305  1.4537 -2.2018  0.7524
 2507TIP3   OH228935   5.202   0.439  14.036  0.9601 -0.2304 -0.3687
 2507TIP3    H128936   5.275   0.492  14.069  0.2802  1.0804 -0.9016
 2507TIP3    H228937   5.207   0.448  13.941  0.2414 -0.3108 -0.4178
 2508TIP3   OH228938   2.126   0.968  12.832 -0.0085 -0.0951  0.4207
 2508TIP3    H128939   2.159   0.894  12.781  0.5016  1.4227 -1.6116
 2508TIP3    H228940   2.093   0.929  12.913  3.5744 -2.1429  1.1451
 2509TIP3   OH228941   4.083   1.209   0.070  0.7011  0.3091 -0.2034
 2509TIP3    H128942   4.055   1.236  -0.017  0.6370 -1.4548 -0.7585
 2509TIP3    H228943   4.119   1.121   0.058  1.5225  0.3868  1.4051
 2510TIP3   OH228944   1.284   1.511   3.874 -0.0116 -0.0592  0.2497
 2510TIP3    H128945   1.367   1.465   3.886 -0.6730 -1.2669  0.3533
 2510TIP3    H228946   1.270   1.557   3.957  0.2529 -0.3488  0.4595
 2511TIP3   OH228947   3.492   6.271   1.462  0.6368 -0.3880  0.3277
 2511TIP3    H128948   3.423   6.282   1.527  2.0048 -1.5526  2.0925
 2511TIP3    H228949   3.466   6.326   1.388 -0.5923  1.6632  2.1853
 2512TIP3   OH228950   6.521   2.734   0.518 -0.3349  0.0502  0.1151
 2512TIP3    H128951   6.480   2.648   0.510  1.3378 -0.7932  0.2565
 2512TIP3    H228952   6.605   2.717   0.559 -0.8749  2.0399  2.2541
 2513TIP3   OH228953   1.799   5.275   0.167  0.4133  0.1396 -0.1628
 2513TIP3    H128954   1.741   5.324   0.225  0.1877  0.0983 -0.3487
 2513TIP3    H228955   1.762   5.289   0.079 -1.0282 -2.2345 -0.0166
 2514TIP3   OH228956   3.158   0.714  14.792 -0.5207  0.1696  0.0287
 2514TIP3    H128957   3.079   0.673  14.757 -0.0054 -1.1766  0.4157
 2514TIP3    H228958   3.164   0.684  14.883  0.6089 -0.0335 -0.0927
 2515TIP3   OH228959   3.170   6.232  12.191  0.2090 -0.5346  0.3372
 2515TIP3    H128960   3.227   6.304  12.164  1.0098  0.0215  3.1783
 2515TIP3    H228961   3.218   6.153  12.167  0.2291 -0.1572 -0.9913
 2516TIP3   OH228962   4.271   5.506   5.282 -0.5089 -0.0978 -0.5736
 2516TIP3    H128963   4.179   5.508   5.308 -0.3693 -0.3921 -0.0514
 2516TIP3    H228964   4.318   5.547   5.354 -0.2264  0.0484 -0.8350
 2517TIP3   OH228965   6.064   1.908   2.244 -0.2356  0.2616  0.3089
 2517TIP3    H128966   6.122   1.833   2.254 -0.4563 -0.1824 -1.4113
 2517TIP3    H228967   6.089   1.947   2.160 -1.1038  1.2436  0.4855
 2518TIP3   OH228968   1.308   2.318   1.919  0.3493  0.0328  0.1829
 2518TIP3    H128969   1.366   2.285   1.850 -1.3961 -0.4064 -1.1469
 2518TIP3    H228970   1.301   2.412   1.901  3.7999  0.9840  2.8277
 2519TIP3   OH228971   3.112   6.308  15.434 -0.3154  0.3717 -0.3847
 2519TIP3    H128972   3.206   6.313  15.454 -0.2387 -2.8058  0.6696
 2519TIP3    H228973   3.104   6.349  15.348  2.2030 -0.0029 -0.8799
 2520TIP3   OH228974   5.204   3.607  14.602  0.0213  0.4696  0.2832
 2520TIP3    H128975   5.258   3.644  14.532 -0.7047  0.2878 -0.3883
 2520TIP3    H228976   5.136   3.559  14.556  1.4219 -2.5269  1.0935
 2521TIP3   OH228977   6.675   6.393   0.927 -0.6384 -0.4077 -0.1505
 2521TIP3    H128978   6.613   6.358   0.863  1.0215 -0.3144 -1.8901
 2521TIP3    H228979   6.740   6.324   0.939  0.0579  0.2639  0.0380
 2522TIP3   OH228980   5.726   4.563  15.411 -0.4939 -0.4264  0.5751
 2522TIP3    H128981   5.726   4.605  15.325  1.2439 -0.0530  0.7326
 2522TIP3    H228982   5.693   4.631  15.471  0.6897  0.1623  0.5711
 2523TIP3   OH228983   2.906   2.402   0.129 -0.6587 -0.4005 -0.0205
 2523TIP3    H128984   2.886   2.494   0.117  2.5607  0.3328 -0.7361
 2523TIP3    H228985   2.841   2.355   0.077 -0.9066  1.5979 -1.5939
 2524TIP3   OH228986   0.697   4.837   1.735 -0.2904  0.2388  0.2825
 2524TIP3    H128987   0.673   4.906   1.797  2.4176  0.1405  1.5834
 2524TIP3    H228988   0.710   4.759   1.790 -2.5631 -1.2301 -1.0680
 2525TIP3   OH228989   0.669   2.012  11.319 -0.0527 -0.0152 -0.4956
 2525TIP3    H128990   0.612   2.088  11.316 -1.5141 -0.9965  0.7623
 2525TIP3    H228991   0.758   2.048  11.318 -0.6941  1.6140 -1.2535
 2526TIP3   OH228992   5.742   6.421  11.407 -0.2440  0.0368 -0.4193
 2526TIP3    H128993   5.669   6.436  11.467  1.5046  0.3615  1.7689
 2526TIP3    H228994   5.737   6.492  11.344 -0.1016  1.8634  1.5297
 2527TIP3   OH228995   1.015   0.609  13.585 -0.4739  0.6721 -0.1940
 2527TIP3    H128996   1.010   0.627  13.678 -2.9568 -0.9607  0.0677
 2527TIP3    H228997   0.972   0.685  13.544 -3.5937 -0.6336  0.3791
 2528TIP3   OH228998   5.766   4.675  11.961  0.4825 -0.1488 -0.4013
 2528TIP3    H128999   5.757   4.751  12.018  0.8954  0.3992 -1.0511
 2528TIP3    H229000   5.708   4.693  11.887  1.8719  0.3641 -1.4084
 2529TIP3   OH229001   2.011   5.188  15.258 -0.1259 -0.1353  0.1539
 2529TIP3    H129002   2.027   5.109  15.310 -1.7953 -0.8884 -0.4310
 2529TIP3    H229003   2.034   5.163  15.169 -2.7156 -0.7069 -0.4143
 2530TIP3   OH229004   2.671   3.188  15.699  0.0730  0.0533  0.0323
 2530TIP3    H129005   2.579   3.171  15.721  0.8320 -1.4106  2.3977
 2530TIP3    H229006   2.719   3.168  15.779  2.4781  0.8939 -1.1096
 2531TIP3   OH229007   4.026   1.309   2.918 -0.2014 -0.0723 -0.5023
 2531TIP3    H129008   3.969   1.346   2.985 -0.8472 -0.0236 -1.0638
 2531TIP3    H229009   4.099   1.270   2.966  0.4117  1.7568  0.1208
 2532TIP3   OH229010   5.551   0.543   4.451 -0.3625 -0.2306 -0.8321
 2532TIP3    H129011   5.642   0.513   4.462 -0.2367  0.9475  2.2278
 2532TIP3    H229012   5.503   0.497   4.519 -1.5624  1.0402 -0.7851
 2533TIP3   OH229013   3.073   6.310   5.022  0.5422  0.9320  0.5878
 2533TIP3    H129014   3.073   6.300   4.926  0.9418 -2.5317  0.8372
 2533TIP3    H229015   3.138   6.247   5.053 -0.8723  0.6320  3.2337
 2534TIP3   OH229016   1.399   0.469  16.127  0.4034 -0.4293 -0.0237
 2534TIP3    H129017   1.396   0.379  16.093  0.7256 -0.1952 -0.7040
 2534TIP3    H229018   1.462   0.466  16.199  1.0853 -0.5716 -0.6175
 2535TIP3   OH229019   3.495   5.764  16.974 -0.2443 -0.4721 -0.2075
 2535TIP3    H129020   3.560   5.802  17.033 -0.7466 -1.2880  0.8968
 2535TIP3    H229021   3.495   5.822  16.898  0.5940  0.4629  0.4816
 2536TIP3   OH229022   3.431   5.902  15.888  0.1671  0.4812  0.2297
 2536TIP3    H129023   3.416   5.959  15.812  0.3302 -0.3544 -0.4459
 2536TIP3    H229024   3.354   5.845  15.891  0.7800 -0.3898 -0.1397
 2537TIP3   OH229025   5.465   2.389   1.622  0.5694 -0.1236  0.0452
 2537TIP3    H129026   5.540   2.349   1.579  1.2772  0.9038  0.2929
 2537TIP3    H229027   5.469   2.357   1.712  2.0401  1.6171  0.6706
 2538TIP3   OH229028   3.821   6.407  11.329 -0.4761  0.2588 -0.3369
 2538TIP3    H129029   3.855   6.329  11.285 -1.2474 -0.6825  0.6742
 2538TIP3    H229030   3.888   6.473  11.316  0.0620 -0.4823 -1.4758
 2539TIP3   OH229031   6.477   3.879   0.844  0.1658  0.2221 -0.6416
 2539TIP3    H129032   6.560   3.897   0.887  0.5614  0.5663 -1.5205
 2539TIP3    H229033   6.415   3.940   0.885  0.7738  1.3019 -1.2698
 2540TIP3   OH229034   4.335   2.144  11.482  0.1030  0.3211  0.0412
 2540TIP3    H129035   4.392   2.101  11.546 -1.4558  1.5593  2.4196
 2540TIP3    H229036   4.362   2.235  11.483 -2.4874  1.2100  2.1408
 2541TIP3   OH229037   1.000   5.410   0.955  0.0471 -0.1611 -0.0890
 2541TIP3    H129038   1.005   5.314   0.961  3.9530 -0.0449  1.5731
 2541TIP3    H229039   1.048   5.431   0.874  0.7932  0.4178  0.4918
 2542TIP3   OH229040   4.841   6.422  16.330  0.5483  0.0720 -0.7784
 2542TIP3    H129041   4.927   6.386  16.311  0.2416 -0.4536 -1.1930
 2542TIP3    H229042   4.826   6.401  16.422  1.6556  1.8299 -0.1473
 2543TIP3   OH229043   1.174   2.739   2.977  0.2244  0.2846 -0.7974
 2543TIP3    H129044   1.257   2.788   2.977  0.2338  0.3314  1.0123
 2543TIP3    H229045   1.114   2.793   2.925  1.1874  0.4779 -1.7366
 2544TIP3   OH229046   2.779   6.389   4.018 -0.0691  0.3073 -0.0153
 2544TIP3    H129047   2.794   6.298   4.042  0.5961  0.9067  2.0840
 2544TIP3    H229048   2.799   6.393   3.925  1.1203 -1.4285  0.1202
 2545TIP3   OH229049   4.565   2.945   2.480 -0.2785  0.3891  0.0236
 2545TIP3    H129050   4.570   2.958   2.385  0.5412  0.6766  0.1058
 2545TIP3    H229051   4.471   2.942   2.498 -0.4553 -1.0346 -0.9798
 2546TIP3   OH229052   4.775   0.621  10.683  0.2484  0.8564  0.1571
 2546TIP3    H129053   4.863   0.592  10.707  0.9636  1.3662 -1.6555
 2546TIP3    H229054   4.789   0.674  10.604 -1.9463 -1.2864 -1.8017
 2547TIP3   OH229055   5.800   0.443  14.325  0.0698  0.1551  0.1305
 2547TIP3    H129056   5.733   0.377  14.345  0.0936 -0.0550 -0.4612
 2547TIP3    H229057   5.846   0.456  14.407 -3.6789  3.7830  1.9765
 2548TIP3   OH229058   6.248   0.870  12.906 -0.2860 -0.7401  0.2292
 2548TIP3    H129059   6.309   0.907  12.970 -1.7119  1.7182  0.3011
 2548TIP3    H229060   6.266   0.776  12.907  0.9717 -0.5645  2.8937
 2549TIP3   OH229061   3.235   5.375   0.620  0.1123 -0.5864  0.1039
 2549TIP3    H129062   3.244   5.430   0.542 -3.5937 -1.4472 -1.1420
 2549TIP3    H229063   3.174   5.422   0.676  0.0286 -1.5772  0.8750
 2550TIP3   OH229064   0.681   3.132   4.178 -0.1410  0.0111 -0.0629
 2550TIP3    H129065   0.609   3.165   4.232 -2.0127 -1.2021 -1.6779
 2550TIP3    H229066   0.733   3.210   4.157 -1.3168  1.0253  0.6708
 2551TIP3   OH229067   6.383   5.010  15.645  0.3575 -0.3892 -0.2455
 2551TIP3    H129068   6.314   4.947  15.624  0.0149  0.2347 -1.0339
 2551TIP3    H229069   6.433   4.967  15.715  1.3310 -2.4238 -2.0749
 2552TIP3   OH229070   6.203   4.059   1.958 -0.0091  0.3884 -0.4270
 2552TIP3    H129071   6.182   3.994   1.891 -1.7855 -0.8269  1.1636
 2552TIP3    H229072   6.146   4.035   2.032  0.5314  2.7491  0.8471
 2553TIP3   OH229073   3.022   5.976  15.845 -0.1491 -0.0716 -0.0279
 2553TIP3    H129074   2.964   6.025  15.787  0.1106 -0.0171 -0.2416
 2553TIP3    H229075   2.971   5.900  15.871 -0.6506  0.4412  0.5126
 2554TIP3   OH229076   4.709   1.754  11.935 -0.2903  0.0475  0.5994
 2554TIP3    H129077   4.669   1.763  12.021  0.4394  0.1619  0.9372
 2554TIP3    H229078   4.715   1.659  11.921  0.1136  0.0205  0.9317
 2555TIP3   OH229079   4.756   3.040  12.186 -0.9122  0.4025 -0.4663
 2555TIP3    H129080   4.705   2.959  12.181 -2.0442  0.9958  0.9001
 2555TIP3    H229081   4.782   3.056  12.095  1.9095 -3.0063 -0.4872
 2556TIP3   OH229082   4.099   1.452  12.500  0.9912  0.2837 -0.3013
 2556TIP3    H129083   4.075   1.378  12.444  0.6443  0.9531 -1.0650
 2556TIP3    H229084   4.023   1.509  12.496  0.7826  0.1368  1.2380
 2557TIP3   OH229085   2.569   3.387  15.052  0.2469  0.3138 -0.6946
 2557TIP3    H129086   2.560   3.446  15.126 -1.5219 -0.2329 -0.4248
 2557TIP3    H229087   2.497   3.325  15.061  1.9062 -1.8264 -1.0564
 2558TIP3   OH229088   3.163   0.381  11.003  0.2142 -0.1338  0.0445
 2558TIP3    H129089   3.214   0.314  11.050  0.8902 -0.4144 -1.0678
 2558TIP3    H229090   3.158   0.349  10.913 -2.5216 -0.4483  0.2223
 2559TIP3   OH229091   4.720   4.170  14.652  0.0828  0.4039  0.2878
 2559TIP3    H129092   4.661   4.166  14.727 -1.6696 -0.5460 -1.0661
 2559TIP3    H229093   4.711   4.260  14.619 -0.2110  0.4139  0.3964
 2560TIP3   OH229094   1.359   3.017   5.665 -0.1577  0.8820  0.2638
 2560TIP3    H129095   1.318   3.099   5.639  0.7796  1.3110  0.0993
 2560TIP3    H229096   1.436   3.044   5.716  1.7929  0.2036 -2.1678
 2561TIP3   OH229097   2.771   0.571   3.486  0.0744  0.3012 -0.6437
 2561TIP3    H129098   2.713   0.608   3.553  0.0876 -2.2330  0.8709
 2561TIP3    H229099   2.844   0.632   3.482  0.6255  0.0201  2.5228
 2562TIP3   OH229100   3.893   0.953  14.491  0.2239 -0.0395  0.0671
 2562TIP3    H129101   3.853   1.036  14.465  1.3339  0.4520 -0.1150
 2562TIP3    H229102   3.838   0.921  14.562 -2.2492 -0.8754 -2.0661
 2563TIP3   OH229103   3.612   3.012   2.035 -0.3876  1.0998  0.3736
 2563TIP3    H129104   3.521   3.032   2.013 -0.7414 -1.8124 -1.3762
 2563TIP3    H229105   3.663   3.059   1.969 -0.7930  0.8194 -0.1477
 2564TIP3   OH229106   6.231   1.262  12.759  0.3846  0.0649 -0.3061
 2564TIP3    H129107   6.181   1.344  12.760 -1.0129 -0.7400 -0.8143
 2564TIP3    H229108   6.184   1.205  12.819  0.7496 -0.6831 -0.7238
 2565TIP3   OH229109   2.663   1.359  14.169  0.8366 -0.1860  0.1568
 2565TIP3    H129110   2.573   1.341  14.198  0.1563 -0.3939 -1.8834
 2565TIP3    H229111   2.704   1.273  14.164  0.8003 -0.1954  0.0267
 2566TIP3   OH229112   0.637   5.699  11.622 -0.2517 -0.2019  0.8183
 2566TIP3    H129113   0.559   5.644  11.628 -0.5506  0.2037  0.6090
 2566TIP3    H229114   0.698   5.660  11.685 -0.6560 -0.4597  1.0520
 2567TIP3   OH229115   2.356   0.840   2.999  0.3695  0.5474  0.2813
 2567TIP3    H129116   2.359   0.745   3.008 -1.8054  0.5269  1.3642
 2567TIP3    H229117   2.295   0.856   2.927  1.1775  1.1414 -0.2999
 2568TIP3   OH229118   0.739   1.070   3.915  0.2603  0.3312 -0.3091
 2568TIP3    H129119   0.752   0.975   3.915 -0.1842  0.2671 -0.9864
 2568TIP3    H229120   0.669   1.085   3.852 -0.5750  0.9959  0.7612
 2569TIP3   OH229121   0.543   3.966  14.286 -0.0978  0.1107 -0.4002
 2569TIP3    H129122   0.581   4.017  14.358  0.3582  0.3606 -0.8113
 2569TIP3    H229123   0.604   3.894  14.273  0.3183  0.5928 -1.1591
 2570TIP3   OH229124   0.326   4.882  12.671 -0.6976 -0.8610 -0.2110
 2570TIP3    H129125   0.375   4.838  12.741  0.5455  1.6006  0.5942
 2570TIP3    H229126   0.249   4.918  12.714 -0.4197 -0.1538 -0.2891
 2571TIP3   OH229127   2.745   6.630   2.804 -0.1251  0.5800 -0.4563
 2571TIP3    H129128   2.683   6.699   2.777  1.5390  1.8461 -1.2247
 2571TIP3    H229129   2.821   6.643   2.748  1.3399 -0.1535  1.2694
 2572TIP3   OH229130   2.472   0.518   1.449 -0.3226  0.2331 -0.5467
 2572TIP3    H129131   2.402   0.495   1.389 -0.0562 -4.6233  0.5883
 2572TIP3    H229132   2.551   0.481   1.410  0.5483  0.4374  0.9296
 2573TIP3   OH229133   2.287   6.070   5.005  0.1225 -0.4041 -0.6263
 2573TIP3    H129134   2.276   6.109   5.092  2.4725  1.2794 -0.9722
 2573TIP3    H229135   2.372   6.028   5.008 -0.7553 -2.3468 -1.4690
 2574TIP3   OH229136   6.304   6.132  11.758  0.0783 -0.3151  0.2272
 2574TIP3    H129137   6.390   6.118  11.796  0.1204 -0.5235  0.0572
 2574TIP3    H229138   6.320   6.188  11.682  0.1312 -0.7754 -0.1047
 2575TIP3   OH229139   6.139   6.492  15.605  0.2876 -0.1719 -0.0717
 2575TIP3    H129140   6.233   6.513  15.604 -0.1406  2.1900 -2.2722
 2575TIP3    H229141   6.133   6.406  15.564  1.5488 -0.9664  1.3201
 2576TIP3   OH229142   0.719   0.315  11.831 -0.0653  0.4643 -0.4715
 2576TIP3    H129143   0.730   0.396  11.781 -0.7564  0.2953 -0.9114
 2576TIP3    H229144   0.663   0.341  11.905  1.7515  0.9380  0.8030
 2577TIP3   OH229145   1.611   4.074  12.201 -0.5096 -0.1043 -0.4836
 2577TIP3    H129146   1.562   3.999  12.168 -2.6766  0.7772  0.5122
 2577TIP3    H229147   1.557   4.108  12.273  1.5892  0.9695  0.6827
 2578TIP3   OH229148   6.754   5.395  17.227  0.3773 -0.3673  0.1901
 2578TIP3    H129149   6.821   5.342  17.183  0.9541  1.3889 -1.1921
 2578TIP3    H229150   6.804   5.456  17.282 -0.2338 -0.7858  1.2226
 2579TIP3   OH229151   4.639   0.465   5.193 -0.2722 -0.3291 -0.7908
 2579TIP3    H129152   4.711   0.402   5.192 -0.9512 -1.1188 -1.1803
 2579TIP3    H229153   4.632   0.496   5.103 -0.0853  0.1544 -0.6459
 2580TIP3   OH229154   2.136   0.655   3.629 -0.6112  0.2189  0.4919
 2580TIP3    H129155   2.058   0.670   3.684 -1.1594 -1.9743  0.4029
 2580TIP3    H229156   2.166   0.568   3.654  1.3578  0.6900 -0.0857
 2581TIP3   OH229157   6.060   2.376  13.976  0.2516 -0.0508 -0.2339
 2581TIP3    H129158   5.985   2.359  13.919 -0.2682 -1.3340  0.7696
 2581TIP3    H229159   6.034   2.451  14.029 -0.9186 -1.2672  1.0089
 2582TIP3   OH229160   3.914   0.704   5.838  0.1423 -0.0968 -0.1736
 2582TIP3    H129161   3.896   0.658   5.920  1.1866  0.7232  0.5413
 2582TIP3    H229162   3.878   0.646   5.770 -1.5395 -0.3789  0.8872
 2583TIP3   OH229163   0.246   4.926  13.997  0.8766  0.1163  0.3445
 2583TIP3    H129164   0.156   4.918  14.028 -0.0881  0.8522 -2.0201
 2583TIP3    H229165   0.279   4.836  13.999 -0.3139 -0.3496  0.1640
 2584TIP3   OH229166   0.743   4.357   2.149 -0.4816  0.1811 -0.2063
 2584TIP3    H129167   0.677   4.424   2.131 -0.6919  0.4682  1.5198
 2584TIP3    H229168   0.698   4.274   2.136 -0.6116  0.3559 -0.9523
 2585TIP3   OH229169   1.642   2.341  12.015 -0.7636  0.0011  0.4626
 2585TIP3    H129170   1.569   2.288  12.048 -1.6295  1.4407  0.9249
 2585TIP3    H229171   1.655   2.310  11.925 -0.0789 -2.1836  1.2380
 2586TIP3   OH229172   4.240   1.263  12.656 -0.0393  0.0079  0.7591
 2586TIP3    H129173   4.203   1.342  12.618 -0.0959  0.1356  1.0707
 2586TIP3    H229174   4.267   1.291  12.744 -1.3319 -0.6689  1.3907
 2587TIP3   OH229175   1.989   2.317   2.250 -0.1822 -0.0150  0.7630
 2587TIP3    H129176   1.999   2.311   2.155  1.4661  1.1576  0.8136
 2587TIP3    H229177   2.074   2.287   2.284 -0.6584 -0.1596  1.8638
 2588TIP3   OH229178   6.773   2.505   5.277  0.1170  0.4864 -0.5875
 2588TIP3    H129179   6.744   2.596   5.288  0.4932  0.6726 -1.0975
 2588TIP3    H229180   6.835   2.491   5.348 -0.9802  0.1787  0.3343
 2589TIP3   OH229181   5.834   1.166  14.424  0.0850 -0.2515  0.6521
 2589TIP3    H129182   5.875   1.230  14.366 -1.1982 -0.1757 -0.1973
 2589TIP3    H229183   5.789   1.105  14.366 -3.1402  1.0987  1.5164
 2590TIP3   OH229184   5.484   5.993  16.071  0.2758  0.5268 -0.1124
 2590TIP3    H129185   5.521   6.073  16.110  1.8714 -1.5122  2.9701
 2590TIP3    H229186   5.393   5.991  16.101  0.1615  1.2611 -0.3912
 2591TIP3   OH229187   2.079   1.533   5.073 -0.0973 -0.3558 -0.0721
 2591TIP3    H129188   2.053   1.482   4.996 -1.7038 -0.9432  0.8204
 2591TIP3    H229189   2.118   1.469   5.132 -1.4715 -0.4733  0.7558
 2592TIP3   OH229190   6.642   2.887   1.558 -0.5741 -0.0357  0.0857
 2592TIP3    H129191   6.639   2.958   1.494 -0.8577  0.1836  0.3419
 2592TIP3    H229192   6.653   2.931   1.643 -2.1822 -0.2110  0.4085
 2593TIP3   OH229193   2.368   4.695  16.827  0.0668 -0.4360  0.2326
 2593TIP3    H129194   2.368   4.599  16.829  1.3589 -0.4666 -0.4260
 2593TIP3    H229195   2.361   4.716  16.734  1.1159  0.0943  0.2680
 2594TIP3   OH229196   5.293   3.184  14.464  0.5347 -0.1481 -0.3621
 2594TIP3    H129197   5.324   3.232  14.541  3.2745 -0.4616 -1.1585
 2594TIP3    H229198   5.262   3.251  14.404  2.7774  0.5989 -0.7960
 2595TIP3   OH229199   0.483   5.465  12.317 -0.5412 -0.2844  0.1144
 2595TIP3    H129200   0.441   5.452  12.402 -0.3337 -0.6162  0.1671
 2595TIP3    H229201   0.413   5.499  12.261 -0.6445  0.0621  0.4507
 2596TIP3   OH229202   5.966   6.171   4.356  0.6205  0.1946  0.0572
 2596TIP3    H129203   5.930   6.196   4.271  0.5149 -1.1772 -0.3265
 2596TIP3    H229204   5.894   6.128   4.401  1.3747 -1.4669 -0.2295
 2597TIP3   OH229205   2.766   3.087   2.456 -0.2451  0.5075 -0.3054
 2597TIP3    H129206   2.762   3.065   2.549  1.1899  1.6362  0.0509
 2597TIP3    H229207   2.795   3.178   2.454  1.0762  0.0915 -1.8824
 2598TIP3   OH229208   0.526   6.322   0.786  0.3096 -0.0848 -0.0147
 2598TIP3    H129209   0.448   6.345   0.836  0.1473 -2.1804  0.8051
 2598TIP3    H229210   0.597   6.371   0.827 -0.2766  0.4002  0.4280
 2599TIP3   OH229211   1.622   5.192   5.112 -0.1493 -0.1480  0.2374
 2599TIP3    H129212   1.712   5.199   5.144  0.3542  1.8389 -1.4021
 2599TIP3    H229213   1.630   5.147   5.028 -0.8087 -0.6763  0.4496
 2600TIP3   OH229214   4.713   0.460  11.047  0.0812  0.0888  0.2641
 2600TIP3    H129215   4.770   0.386  11.024 -0.6251 -1.0977  2.0804
 2600TIP3    H229216   4.628   0.420  11.063 -0.4938  1.3993  0.5680
 2601TIP3   OH229217   1.642   6.224   4.013 -0.1980 -0.1255  0.2264
 2601TIP3    H129218   1.593   6.145   4.035 -0.2768  0.0165  0.5681
 2601TIP3    H229219   1.633   6.233   3.918  0.2081 -0.7890  0.1187
 2602TIP3   OH229220   4.609   5.840  15.030 -0.2533  0.1021  0.0408
 2602TIP3    H129221   4.624   5.916  14.974 -1.7503 -0.2541 -0.8926
 2602TIP3    H229222   4.548   5.872  15.097  0.7456  0.2574  0.8982
 2603TIP3   OH229223   5.753   0.504   2.033 -0.3956 -0.1054  0.0309
 2603TIP3    H129224   5.846   0.478   2.031 -0.3258  0.1463 -1.7323
 2603TIP3    H229225   5.753   0.594   1.999 -1.2915 -0.1012  0.0323
 2604TIP3   OH229226   6.610   4.052   2.499  0.1248  0.3215 -0.8062
 2604TIP3    H129227   6.645   3.996   2.429  1.6067 -2.1152  1.6810
 2604TIP3    H229228   6.525   4.014   2.520  1.1164 -1.1475  0.8601
 2605TIP3   OH229229   4.279   1.476   0.554 -0.2612  0.3423  0.1525
 2605TIP3    H129230   4.372   1.455   0.551 -0.2774  0.4134 -0.9935
 2605TIP3    H229231   4.257   1.504   0.465 -1.8092 -1.4908 -0.0925
 2606TIP3   OH229232   2.199   6.318   4.582  0.8824 -0.0012  0.1698
 2606TIP3    H129233   2.267   6.386   4.584  0.6658  0.2041  0.6145
 2606TIP3    H229234   2.205   6.275   4.667  1.3818 -0.9078 -0.3156
 2607TIP3   OH229235   0.195   5.217   2.159 -0.0076 -0.4236  0.2471
 2607TIP3    H129236   0.193   5.155   2.232  1.3010 -0.7719  0.0105
 2607TIP3    H229237   0.156   5.170   2.086  0.0891 -0.6204  0.3218
 2608TIP3   OH229238   0.105   1.448   2.827 -0.3285  0.1031 -0.4008
 2608TIP3    H129239   0.069   1.375   2.776 -0.1503  0.6409 -1.3139
 2608TIP3    H229240   0.030   1.483   2.874 -0.2914 -1.1047  0.6136
 2609TIP3   OH229241   0.690   0.840  14.196 -0.3944 -0.2429 -0.1923
 2609TIP3    H129242   0.601   0.812  14.174 -0.6533  0.4004  0.0312
 2609TIP3    H229243   0.734   0.849  14.111 -0.9955  0.9122 -0.4056
 2610TIP3   OH229244   0.838   5.355   5.471 -0.2211 -0.2163 -0.1279
 2610TIP3    H129245   0.854   5.261   5.460  0.5946  0.1727 -2.8620
 2610TIP3    H229246   0.925   5.394   5.475 -0.5614  0.5233  0.2693
 2611TIP3   OH229247   6.726   6.463   3.887 -0.1156 -0.0704 -0.2123
 2611TIP3    H129248   6.675   6.535   3.925 -2.8427  0.2901 -4.0249
 2611TIP3    H229249   6.791   6.506   3.831  0.7208 -0.5979  0.3318
 2612TIP3   OH229250   3.163   1.618   5.064 -0.3141 -0.0524 -0.4999
 2612TIP3    H129251   3.100   1.575   5.007 -0.9369 -0.7477  0.6803
 2612TIP3    H229252   3.208   1.547   5.109 -2.7019  0.3796  2.9548
 2613TIP3   OH229253   3.895   5.857   1.133 -0.0471  0.6338 -0.8225
 2613TIP3    H129254   3.875   5.765   1.146  0.3689  0.7551  0.8206
 2613TIP3    H229255   3.816   5.904   1.163  0.1691  0.8534 -0.5923
 2614TIP3   OH229256   3.097   4.438  16.912 -0.5267 -0.1195 -0.1732
 2614TIP3    H129257   3.062   4.527  16.904  0.9475  0.4276 -0.7400
 2614TIP3    H229258   3.144   4.423  16.831 -0.8499 -1.4888 -0.1387
 2615TIP3   OH229259   2.677   1.745  16.633  0.4981  0.1219 -0.1174
 2615TIP3    H129260   2.693   1.673  16.573  0.3043  0.7417 -0.9372
 2615TIP3    H229261   2.757   1.798  16.628 -0.1484  1.0550 -1.1161
 2616TIP3   OH229262   3.307   2.844   4.366 -0.6702  0.5067 -0.0624
 2616TIP3    H129263   3.251   2.767   4.371  1.1214 -0.8805 -0.2219
 2616TIP3    H229264   3.396   2.809   4.367  0.3251  2.6880  2.8280
 2617TIP3   OH229265   5.322   5.023   0.289 -0.0525 -0.0915  0.2551
 2617TIP3    H129266   5.298   5.019   0.197 -2.0314  1.6079  0.6312
 2617TIP3    H229267   5.397   5.082   0.292  0.9486 -1.2679 -0.3601
 2618TIP3   OH229268   4.948   5.490  16.577 -0.1837  0.5626  0.0522
 2618TIP3    H129269   4.903   5.407  16.594 -1.0793  1.4412  2.3483
 2618TIP3    H229270   5.028   5.485  16.629  0.3577  0.6939 -0.7486
 2619TIP3   OH229271   3.892   6.017  12.758 -0.0947 -0.0594  0.3007
 2619TIP3    H129272   3.866   5.925  12.763 -0.9436  0.1299 -0.4253
 2619TIP3    H229273   3.848   6.050  12.680  0.1647  0.9755  0.5827
 2620TIP3   OH229274   1.932   6.577   1.173  0.1534 -0.2048 -0.1662
 2620TIP3    H129275   1.874   6.505   1.148 -0.6020  0.1408  0.5330
 2620TIP3    H229276   1.873   6.652   1.185  0.8177  0.2992  0.0194
 2621TIP3   OH229277   0.823   2.889   0.645 -0.1532 -0.1202  0.1893
 2621TIP3    H129278   0.787   2.937   0.720 -0.0887  0.0656  0.1042
 2621TIP3    H229279   0.777   2.925   0.569  1.0363  0.9829 -0.0497
 2622TIP3   OH229280   2.189   5.301  14.551 -0.2426 -0.2598 -0.2238
 2622TIP3    H129281   2.213   5.374  14.494  1.4229 -1.2562 -0.8857
 2622TIP3    H229282   2.261   5.239  14.542  0.4830 -0.1761  3.5930
 2623TIP3   OH229283   0.796   1.954   4.794  0.1937  0.2091 -0.5960
 2623TIP3    H129284   0.722   2.004   4.762 -0.7222 -0.2549  0.6899
 2623TIP3    H229285   0.870   2.014   4.788 -0.3420  0.7932 -1.5867
 2624TIP3   OH229286   5.938   1.977   3.245  0.3112 -0.4288 -0.2375
 2624TIP3    H129287   5.929   1.928   3.163 -0.5782 -0.6731 -0.0119
 2624TIP3    H229288   6.023   2.020   3.239  1.2484 -2.1835 -0.3639
 2625TIP3   OH229289   5.099   2.600  13.796  0.7777  0.4251  0.5622
 2625TIP3    H129290   5.125   2.527  13.852  4.0097  1.6965  0.9220
 2625TIP3    H229291   5.126   2.678  13.843  1.3211  1.6486 -1.6379
 2626TIP3   OH229292   5.648   5.936  11.307 -0.0911 -0.0244  0.0354
 2626TIP3    H129293   5.554   5.955  11.308  0.1618  1.3802 -0.3805
 2626TIP3    H229294   5.683   5.986  11.382  0.3482 -0.4218  0.1013
 2627TIP3   OH229295   0.871   3.042   2.234  0.1153 -0.0136  0.5525
 2627TIP3    H129296   0.898   2.964   2.186  0.2403  1.5231 -2.0529
 2627TIP3    H229297   0.780   3.026   2.256 -0.3365 -0.2905 -1.3539
 2628TIP3   OH229298   2.013   3.795   4.450  0.4296 -0.4010 -0.5393
 2628TIP3    H129299   1.996   3.884   4.421  1.1059 -0.1693 -0.2491
 2628TIP3    H229300   2.106   3.795   4.475  0.9355 -1.6693 -2.2733
 2629TIP3   OH229301   5.679   4.495   2.721  0.2277 -0.2454 -0.0506
 2629TIP3    H129302   5.685   4.557   2.794 -1.4985 -1.6987  1.4337
 2629TIP3    H229303   5.723   4.416   2.753  2.0987  0.0134 -1.7818
 2630TIP3   OH229304   2.079   4.703   6.640 -0.1383 -0.1062 -0.8843
 2630TIP3    H129305   2.094   4.660   6.556 -0.3291 -1.9807 -0.0175
 2630TIP3    H229306   1.985   4.697   6.653 -0.0699 -0.1288 -0.3858
 2631TIP3   OH229307   5.188   4.202  14.596 -0.0770  0.1120  0.8302
 2631TIP3    H129308   5.133   4.217  14.519  0.1356 -0.6145  0.5338
 2631TIP3    H229309   5.135   4.232  14.670  0.1971  2.0374  0.3139
 2632TIP3   OH229310   5.967   3.517  15.463 -0.1069  0.1785 -0.2497
 2632TIP3    H129311   5.954   3.422  15.468  1.0707  0.0451  0.5204
 2632TIP3    H229312   5.917   3.551  15.537  0.7691  0.0075  0.4309
 2633TIP3   OH229313   3.602   0.774   5.647 -0.1636 -0.0435 -0.4103
 2633TIP3    H129314   3.662   0.702   5.630  1.1988  1.4705 -2.6026
 2633TIP3    H229315   3.594   0.778   5.742  0.2101 -2.6262 -0.2054
 2634TIP3   OH229316   4.384   0.547   5.358  0.5169  0.2257 -0.2682
 2634TIP3    H129317   4.443   0.513   5.425  1.0870  0.0594 -0.8386
 2634TIP3    H229318   4.368   0.473   5.300 -2.1752 -0.4040  1.1456
 2635TIP3   OH229319   2.016   3.662   6.179 -0.2193 -0.1052  0.2303
 2635TIP3    H129320   1.966   3.594   6.224  0.1973 -0.3970  0.2528
 2635TIP3    H229321   2.037   3.623   6.094 -0.9969  0.4378 -0.2246
 2636TIP3   OH229322   3.428   6.369   3.030  0.3090 -0.2977  0.4886
 2636TIP3    H129323   3.482   6.301   2.991 -0.7113 -0.1256 -1.3246
 2636TIP3    H229324   3.470   6.451   3.003 -1.5641 -0.1076 -2.2476
 2637TIP3   OH229325   0.879   0.543   3.523 -0.6947  0.0147  0.4286
 2637TIP3    H129326   0.811   0.498   3.571 -1.3041 -0.4759 -0.8533
 2637TIP3    H229327   0.840   0.563   3.438  0.7766 -0.3513 -0.3694
 2638TIP3   OH229328   2.510   0.190   0.517  0.4418  0.1605 -0.3800
 2638TIP3    H129329   2.549   0.212   0.601  1.0935 -0.4916 -0.4967
 2638TIP3    H229330   2.508   0.094   0.516 -0.2547  0.1712 -0.7938
 2639TIP3   OH229331   2.491   1.014  16.085 -0.2462 -0.4040 -0.7310
 2639TIP3    H129332   2.583   0.990  16.078  0.4756  1.5971  1.1283
 2639TIP3    H229333   2.482   1.094  16.033 -0.2726  0.8928  1.1695
 2640TIP3   OH229334   5.535   0.964  13.274  0.0292 -0.2422  0.6237
 2640TIP3    H129335   5.491   0.881  13.255 -0.8664  0.1272  1.0177
 2640TIP3    H229336   5.568   0.994  13.189  0.8919 -1.2742  0.5659
 2641TIP3   OH229337   2.221   0.334  11.366 -0.2892 -0.2833 -0.2776
 2641TIP3    H129338   2.160   0.350  11.294 -1.4531 -0.6201  0.5953
 2641TIP3    H229339   2.301   0.303  11.324 -0.5453  0.6289 -1.4833
 2642TIP3   OH229340   2.638   6.236  15.655  0.4604  0.1547  0.4241
 2642TIP3    H129341   2.658   6.213  15.746 -0.6454  0.7701  0.8363
 2642TIP3    H229342   2.671   6.162  15.604  0.7197 -0.3923  1.3609
 2643TIP3   OH229343   0.568   5.157  16.547 -0.4647  0.2734  0.5383
 2643TIP3    H129344   0.554   5.080  16.491 -2.1279  0.2448  0.9578
 2643TIP3    H229345   0.645   5.134  16.599 -0.3548 -0.7073 -0.0245
 2644TIP3   OH229346   5.342   1.302  15.413 -0.6945 -0.0289  0.0586
 2644TIP3    H129347   5.363   1.282  15.505  3.5518  0.7353 -0.5232
 2644TIP3    H229348   5.336   1.397  15.411  0.5628  0.0571 -0.6028
 2645TIP3   OH229349   5.486   5.374  12.024  0.0336 -0.6913  0.0154
 2645TIP3    H129350   5.449   5.422  11.950  1.2154 -0.3436 -0.3792
 2645TIP3    H229351   5.473   5.431  12.099 -1.5100 -1.2048  0.1787
 2646TIP3   OH229352   5.419   0.098  12.252 -0.3148  0.2587  0.0425
 2646TIP3    H129353   5.491   0.137  12.202  1.3267  0.6055  2.4976
 2646TIP3    H229354   5.343   0.152  12.230  0.1963  0.1051 -2.3582
 2647TIP3   OH229355   3.844   4.059   1.309  0.0702  0.1663  0.4007
 2647TIP3    H129356   3.823   3.982   1.256 -0.8031  0.8686 -0.3261
 2647TIP3    H229357   3.917   4.032   1.364 -0.1360 -1.1340  0.0694
 2648TIP3   OH229358   1.419   0.073  11.697  0.1911 -0.6874 -0.7548
 2648TIP3    H129359   1.478   0.108  11.764 -1.9651 -0.7886  1.3497
 2648TIP3    H229360   1.434   0.128  11.620  2.6704 -0.4719 -0.1953
 2649TIP3   OH229361   3.100   6.453  16.384 -0.3645  0.3276  0.1591
 2649TIP3    H129362   3.072   6.449  16.292  0.4353 -0.8599 -0.0610
 2649TIP3    H229363   3.108   6.546  16.403 -0.8199  0.5929 -0.8982
 2650TIP3   OH229364   6.147   1.255   5.739 -0.5220  0.7686  0.2409
 2650TIP3    H129365   6.242   1.270   5.733 -0.5084  1.5361  1.9742
 2650TIP3    H229366   6.139   1.178   5.794 -0.8918 -0.7137 -1.7516
 2651TIP3   OH229367   0.110   1.488  15.055 -0.5261 -0.0833 -0.3170
 2651TIP3    H129368   0.161   1.427  15.108 -0.8014  1.3102  1.6965
 2651TIP3    H229369   0.134   1.468  14.965  0.3077 -2.3011  0.3199
 2652TIP3   OH229370   2.148   6.240   4.867 -0.3840  0.2606 -0.1511
 2652TIP3    H129371   2.219   6.183   4.896 -1.6038 -0.8064  0.8595
 2652TIP3    H229372   2.076   6.222   4.928 -0.2223  4.4122  1.6482
 2653TIP3   OH229373   0.756   6.158   1.399  0.0422  0.1463  0.0915
 2653TIP3    H129374   0.670   6.199   1.386  0.0416 -0.2074 -1.1711
 2653TIP3    H229375   0.819   6.228   1.379  0.0387 -0.1765 -1.1108
 2654TIP3   OH229376   1.537   4.236  13.155 -0.2372  0.0513  0.2183
 2654TIP3    H129377   1.503   4.326  13.150  3.4202  1.5844 -0.2176
 2654TIP3    H229378   1.482   4.193  13.220 -2.4272  2.4477  0.1045
 2655TIP3   OH229379   4.449   2.568  11.868  0.1727  0.4036  0.5967
 2655TIP3    H129380   4.502   2.600  11.795  0.2062 -0.1777  0.3663
 2655TIP3    H229381   4.508   2.574  11.944  0.6032 -0.3056  0.3301
 2656TIP3   OH229382   3.676   0.122   3.845 -1.1008  0.9488 -0.4782
 2656TIP3    H129383   3.698   0.210   3.877  1.7122  0.5641 -1.1057
 2656TIP3    H229384   3.694   0.064   3.919 -0.7624  0.6883 -0.7602
 2657TIP3   OH229385   3.434   1.277  14.354 -0.2124 -0.0763  0.4782
 2657TIP3    H129386   3.450   1.349  14.415 -0.9294  1.5388 -1.1608
 2657TIP3    H229387   3.340   1.260  14.361 -0.3910  0.4792 -0.5625
 2658TIP3   OH229388   2.654   0.355   0.695 -0.3094  0.4592  0.5907
 2658TIP3    H129389   2.583   0.407   0.732 -0.6562  0.2147  0.2738
 2658TIP3    H229390   2.661   0.386   0.604  0.2290  0.7331  0.7187
 2659TIP3   OH229391   0.114   2.459  14.894  0.2229 -0.3254 -0.3744
 2659TIP3    H129392   0.191   2.476  14.947  1.3117 -2.8941 -0.9615
 2659TIP3    H229393   0.097   2.365  14.906 -1.2145 -0.3784 -2.3244
 2660TIP3   OH229394   6.081   2.628  11.920  0.0839  0.0227 -0.3254
 2660TIP3    H129395   6.100   2.579  11.841  1.0974 -1.9960  1.0800
 2660TIP3    H229396   5.991   2.661  11.908 -0.0500 -0.8626 -1.9613
 2661TIP3   OH229397   3.991   3.700  11.846 -0.3133 -0.1294  0.7003
 2661TIP3    H129398   4.016   3.792  11.842 -0.2060 -0.1457  0.9487
 2661TIP3    H229399   3.941   3.684  11.766 -0.2933  0.1327  0.6366
 2662TIP3   OH229400   4.396   4.340  13.010 -0.8091 -0.1602 -0.1624
 2662TIP3    H129401   4.433   4.353  12.923 -0.9648 -1.5985 -0.4641
 2662TIP3    H229402   4.353   4.423  13.030 -0.6800  0.2248 -1.4112
 2663TIP3   OH229403   1.381   5.639  11.881  0.2214  0.6348 -0.0835
 2663TIP3    H129404   1.371   5.544  11.888  0.1659  0.7399  2.1369
 2663TIP3    H229405   1.468   5.652  11.842  0.1911 -0.3201 -0.4870
 2664TIP3   OH229406   3.032   1.566  16.928 -0.4007  0.2140 -0.0455
 2664TIP3    H129407   3.103   1.630  16.932  0.2842 -0.4895 -0.6685
 2664TIP3    H229408   2.994   1.576  16.841  1.7713 -2.3116 -1.4470
 2665TIP3   OH229409   4.309   3.850  16.838 -0.5328  0.2675  0.0650
 2665TIP3    H129410   4.267   3.882  16.758 -1.4835 -1.4314 -0.1579
 2665TIP3    H229411   4.253   3.883  16.908 -0.6804  0.3133 -0.0726
 2666TIP3   OH229412   2.970   0.005   0.973 -0.0618  0.5974  0.3115
 2666TIP3    H129413   2.923   0.061   0.912  0.3931 -0.0811 -0.6796
 2666TIP3    H229414   2.903  -0.026   1.034 -0.6267  0.7749 -0.2215
 2667TIP3   OH229415   6.243   4.900   6.141  0.0556 -0.1374 -0.1019
 2667TIP3    H129416   6.192   4.974   6.108 -0.8700 -0.7305 -0.0220
 2667TIP3    H229417   6.191   4.866   6.214  1.5904  0.5629  1.4106
 2668TIP3   OH229418   0.922   5.600  12.812  0.4530 -0.1413  0.1483
 2668TIP3    H129419   1.004   5.647  12.796  0.0131  0.8130  0.6103
 2668TIP3    H229420   0.940   5.510  12.783  2.1518 -0.3336  1.6272
 2669TIP3   OH229421   4.862   4.381   0.131 -0.2909 -0.0088 -0.1667
 2669TIP3    H129422   4.941   4.356   0.179  1.9259  2.3847 -2.2201
 2669TIP3    H229423   4.814   4.299   0.118  1.8641 -1.5745  1.1722
 2670TIP3   OH229424   1.498   1.096  14.245  0.3890 -0.4088  0.1799
 2670TIP3    H129425   1.528   1.187  14.239 -0.3884 -0.2338 -1.4164
 2670TIP3    H229426   1.432   1.097  14.314  1.8840 -0.2200  1.6747
 2671TIP3   OH229427   0.458   2.430   1.617  0.4011 -0.4687  0.3345
 2671TIP3    H129428   0.536   2.393   1.659  1.5709  1.9777  0.5177
 2671TIP3    H229429   0.437   2.507   1.670 -0.2808  0.6493 -1.4907
 2672TIP3   OH229430   3.309   6.617  17.175  0.1948  0.1036  0.2793
 2672TIP3    H129431   3.342   6.705  17.157  0.9087 -0.5025 -1.5781
 2672TIP3    H229432   3.343   6.563  17.104 -3.1931 -0.9866 -0.7279
 2673TIP3   OH229433   3.496   3.523  10.892  0.1818  0.4729 -0.2168
 2673TIP3    H129434   3.589   3.534  10.876  0.0657 -0.0723 -1.4188
 2673TIP3    H229435   3.473   3.441  10.847 -0.3085 -1.0440  2.5621
 2674TIP3   OH229436   6.476   4.518   6.580  0.2877  1.0220 -0.4645
 2674TIP3    H129437   6.568   4.536   6.599  1.0002 -1.0611 -1.6256
 2674TIP3    H229438   6.461   4.557   6.494  0.7248 -0.3876 -1.2146
 2675TIP3   OH229439   0.209   6.032   4.117  0.4045  0.3046 -0.6019
 2675TIP3    H129440   0.249   6.080   4.189 -2.0809  1.8878 -0.1618
 2675TIP3    H229441   0.125   6.002   4.152  0.3095 -1.2264 -2.0282
 2676TIP3   OH229442   5.575   3.937   3.904 -0.5829 -0.7104  0.0236
 2676TIP3    H129443   5.642   3.869   3.918  0.4188  0.5298  1.7197
 2676TIP3    H229444   5.625   4.015   3.880 -1.5324 -0.0663  0.1039
 2677TIP3   OH229445   2.520   1.134   4.497  0.5188  0.1457  0.3886
 2677TIP3    H129446   2.606   1.127   4.539  1.7124  4.0814 -1.0228
 2677TIP3    H229447   2.475   1.203   4.545 -0.3011  0.8458 -1.3139
 2678TIP3   OH229448   2.191   5.281   1.912 -0.0611  0.2623 -0.0689
 2678TIP3    H129449   2.217   5.314   1.826  0.4744 -0.8188 -0.3334
 2678TIP3    H229450   2.096   5.280   1.910 -0.0443 -0.0327 -0.7509
 2679TIP3   OH229451   3.599   4.162   1.859  0.1845 -0.1149 -0.4293
 2679TIP3    H129452   3.651   4.081   1.855  1.2752  0.5779 -0.9846
 2679TIP3    H229453   3.658   4.226   1.898 -0.4803  0.5484 -0.4911
 2680TIP3   OH229454   4.129   2.495   2.990  0.5044  0.3032 -0.1276
 2680TIP3    H129455   4.220   2.523   2.993  0.3469  0.9406 -0.9440
 2680TIP3    H229456   4.081   2.564   3.036  0.0820  1.6284 -2.3734
 2681TIP3   OH229457   6.682   3.385  16.807 -0.2870  0.6170  0.0363
 2681TIP3    H129458   6.663   3.409  16.897 -0.1098  0.5884  0.0821
 2681TIP3    H229459   6.768   3.422  16.789 -0.1251  0.2417  0.0228
 2682TIP3   OH229460   1.412   4.565  12.242 -0.2369 -0.2872 -0.4051
 2682TIP3    H129461   1.397   4.648  12.197  0.9234  0.0710 -0.1575
 2682TIP3    H229462   1.391   4.583  12.333  0.2537 -0.1953 -0.3092
 2683TIP3   OH229463   4.741   3.506  13.108 -0.1899 -0.1187  0.4820
 2683TIP3    H129464   4.765   3.551  13.027 -1.7490  0.1401  0.1314
 2683TIP3    H229465   4.803   3.538  13.173 -0.6483  1.8257  0.0250
 2684TIP3   OH229466   1.935   2.085  11.620  0.5004 -0.4097  0.2021
 2684TIP3    H129467   2.023   2.115  11.642 -0.0367 -0.3521  2.5108
 2684TIP3    H229468   1.937   1.990  11.633 -0.1020 -0.2503  1.6719
 2685TIP3   OH229469   1.235   1.710   4.073 -0.0958 -0.2186  0.0866
 2685TIP3    H129470   1.240   1.803   4.098 -0.8012  0.0604 -0.7484
 2685TIP3    H229471   1.166   1.674   4.128 -0.0425 -0.1771  0.1816
 2686TIP3   OH229472   2.666   2.135   0.255  0.0867 -1.1387  0.7714
 2686TIP3    H129473   2.596   2.072   0.275  1.0386 -2.1342  1.0375
 2686TIP3    H229474   2.657   2.150   0.160 -2.6971  1.4989  1.3090
 2687TIP3   OH229475   4.039   2.029   3.134 -0.0902  0.0015  0.1891
 2687TIP3    H129476   4.066   2.033   3.042  0.9678 -2.2574  0.3523
 2687TIP3    H229477   4.073   2.110   3.172  0.0732  0.6397 -1.2255
 2688TIP3   OH229478   3.286   0.213   2.432  0.3796  0.3343  0.5611
 2688TIP3    H129479   3.251   0.178   2.514 -0.5229  2.9247  1.3995
 2688TIP3    H229480   3.381   0.207   2.442  0.2695 -0.1689  1.4159
 2689TIP3   OH229481   4.769   5.364  12.780 -0.1206  0.2323 -0.0982
 2689TIP3    H129482   4.774   5.436  12.843 -1.1696 -0.5118  0.8732
 2689TIP3    H229483   4.841   5.381  12.719  1.2272  0.7391  1.5565
 2690TIP3   OH229484   5.607   5.462   2.052 -0.3861 -0.2486 -0.3506
 2690TIP3    H129485   5.589   5.411   1.973 -2.3049  0.2197 -0.2651
 2690TIP3    H229486   5.547   5.426   2.118 -1.4313  1.7143 -0.1513
 2691TIP3   OH229487   1.411   1.960  11.134  0.0095 -0.4607  0.3574
 2691TIP3    H129488   1.366   1.933  11.055  1.4622 -0.4578 -0.5067
 2691TIP3    H229489   1.461   1.882  11.161  2.1165  0.4673 -0.6378
 2692TIP3   OH229490   5.907   0.186   1.851 -0.0724 -0.0126 -0.0155
 2692TIP3    H129491   5.917   0.123   1.779  0.9562 -1.0187  0.9826
 2692TIP3    H229492   5.851   0.141   1.914  1.5268 -0.3960  1.1839
 2693TIP3   OH229493   0.102   2.770   3.816  0.0990  0.2399  0.2919
 2693TIP3    H129494   0.195   2.787   3.836  1.1116 -0.7133 -3.0202
 2693TIP3    H229495   0.063   2.857   3.808  1.2398  0.7075 -0.3967
 2694TIP3   OH229496   3.666   5.400   1.137 -0.6172 -0.0898  0.0333
 2694TIP3    H129497   3.691   5.336   1.203  1.8689  2.6393  2.0168
 2694TIP3    H229498   3.576   5.424   1.160 -0.8524 -1.3418  0.4985
 2695TIP3   OH229499   1.908   0.835  13.200  0.0969 -0.1787 -0.0307
 2695TIP3    H129500   1.842   0.885  13.153 -0.7084 -1.1704  0.0148
 2695TIP3    H229501   1.948   0.779  13.133  0.7233  0.2287 -0.0093
 2696TIP3   OH229502   1.163   5.000   0.741  0.1714 -0.0762  0.2248
 2696TIP3    H129503   1.143   5.001   0.647 -2.2722  0.1879  0.6725
 2696TIP3    H229504   1.249   5.041   0.748 -0.1931  1.1750 -1.7728
 2697TIP3   OH229505   5.688   0.755   2.380  0.3302 -0.3705 -0.0699
 2697TIP3    H129506   5.742   0.736   2.456 -1.6435 -1.5421  1.1513
 2697TIP3    H229507   5.605   0.709   2.398 -1.5759  2.3903 -1.1493
 2698TIP3   OH229508   1.686   0.609   3.874 -0.1052 -0.3940  0.2528
 2698TIP3    H129509   1.596   0.583   3.892 -0.1818 -0.8477 -0.7357
 2698TIP3    H229510   1.680   0.664   3.796  0.7662 -3.0848 -1.8692
 2699TIP3   OH229511   3.631   2.150   2.771 -0.6054 -0.1812 -0.8249
 2699TIP3    H129512   3.645   2.055   2.769 -1.1194 -0.2491 -1.2676
 2699TIP3    H229513   3.629   2.175   2.679 -0.6714  0.2354 -0.7091
 2700TIP3   OH229514   6.142   5.446  15.029  0.2117  0.1672 -0.2264
 2700TIP3    H129515   6.112   5.532  15.057  2.0579  0.7041  0.2055
 2700TIP3    H229516   6.179   5.461  14.942  3.0509  0.4301  0.9430
 2701TIP3   OH229517   1.036   4.938   4.671  0.0037  0.1122 -0.0305
 2701TIP3    H129518   1.054   4.920   4.763 -1.3485 -1.8402 -0.0847
 2701TIP3    H229519   1.061   4.858   4.626 -0.8677  0.4456 -1.1417
 2702TIP3   OH229520   3.612   2.773  17.126  0.3528  0.3118  0.1225
 2702TIP3    H129521   3.521   2.754  17.103  0.2363 -0.1023  0.8726
 2702TIP3    H229522   3.654   2.798  17.043  0.4929 -3.1076 -0.9836
 2703TIP3   OH229523   6.511   6.407   1.658 -0.4249  0.7446 -0.3567
 2703TIP3    H129524   6.490   6.318   1.683 -0.8440  0.4293 -1.7238
 2703TIP3    H229525   6.542   6.449   1.739 -0.4005 -0.5687  0.3363
 2704TIP3   OH229526   4.164   6.132  12.236  0.0800  0.1343 -0.3289
 2704TIP3    H129527   4.084   6.158  12.190 -0.8249 -0.4570  0.8544
 2704TIP3    H229528   4.219   6.210  12.233 -0.4531  0.4956 -1.3395
 2705TIP3   OH229529   4.238   0.915   4.973  0.1643 -0.5011  0.1458
 2705TIP3    H129530   4.304   0.977   5.004  0.9911 -2.5244  2.8138
 2705TIP3    H229531   4.229   0.852   5.044 -2.1129 -2.3066 -1.5855
 2706TIP3   OH229532   5.298   5.984  16.518  0.1754 -0.3710  0.3898
 2706TIP3    H129533   5.218   6.003  16.568 -0.4241 -0.2607 -0.5712
 2706TIP3    H229534   5.369   5.999  16.579 -0.3769  2.4111  0.4856
 2707TIP3   OH229535   3.409   3.684   2.222  0.4360 -0.1052  0.0791
 2707TIP3    H129536   3.468   3.623   2.178 -0.9112 -1.3254 -0.1041
 2707TIP3    H229537   3.383   3.746   2.153  0.6078 -0.2450 -0.1132
 2708TIP3   OH229538   1.390   2.004   6.288 -0.1111  0.2637 -0.0709
 2708TIP3    H129539   1.438   2.079   6.324  0.1049  0.3357 -0.4954
 2708TIP3    H229540   1.299   2.033   6.285 -0.0918  0.3494  0.1750
 2709TIP3   OH229541   5.982   1.009  16.022 -0.0069 -0.2174  0.2389
 2709TIP3    H129542   6.007   0.966  15.941  2.1027 -0.9735  1.2047
 2709TIP3    H229543   6.055   1.068  16.042 -0.3719 -0.1878  1.6452
 2710TIP3   OH229544   0.855   6.669  15.033 -0.1286 -0.1381  0.3451
 2710TIP3    H129545   0.929   6.714  15.074  0.4603 -1.0121  0.2761
 2710TIP3    H229546   0.778   6.701  15.080  0.1132  1.9278 -0.5659
 2711TIP3   OH229547   2.822   1.811   1.275 -0.1611  0.4491  0.2930
 2711TIP3    H129548   2.817   1.727   1.230 -1.6377 -0.3708  1.8515
 2711TIP3    H229549   2.912   1.842   1.259  0.2479 -1.1602 -0.7448
 2712TIP3   OH229550   0.391   4.061   5.199  0.1141 -0.2254 -0.1828
 2712TIP3    H129551   0.435   4.007   5.134  0.6089 -1.5019  1.1626
 2712TIP3    H229552   0.390   4.008   5.278  0.0730  1.5061  1.0406
 2713TIP3   OH229553   6.429   0.622   1.267  0.5368  0.3113 -0.1266
 2713TIP3    H129554   6.436   0.626   1.171  1.9289 -0.1617 -0.0645
 2713TIP3    H229555   6.518   0.641   1.298  0.7217 -2.0542  0.9921
 2714TIP3   OH229556   1.923   4.626  11.842 -0.8182 -0.1373  0.4661
 2714TIP3    H129557   2.018   4.623  11.839 -0.8731 -2.4875 -1.4650
 2714TIP3    H229558   1.899   4.570  11.916 -0.7204 -0.7944  0.0031
 2715TIP3   OH229559   5.238   5.436   0.129 -0.0136 -0.0291 -0.2313
 2715TIP3    H129560   5.319   5.440   0.179 -0.0014 -0.4425 -0.2152
 2715TIP3    H229561   5.262   5.463   0.041 -0.0736  0.8881  0.0270
 2716TIP3   OH229562   4.886   3.325   5.072  0.1373  0.7759  0.2383
 2716TIP3    H129563   4.960   3.351   5.127  0.6582 -1.6001  0.7614
 2716TIP3    H229564   4.922   3.322   4.983  0.1741  1.3940  0.2293
 2717TIP3   OH229565   0.940   2.889  15.887  0.5237  0.6949 -0.7798
 2717TIP3    H129566   1.008   2.824  15.907  0.8891  1.1897 -0.4035
 2717TIP3    H229567   0.859   2.838  15.887  0.8646  0.1293 -1.0600
 2718TIP3   OH229568   0.003   2.315   3.947 -0.2009 -0.4095 -0.0679
 2718TIP3    H129569   0.014   2.302   4.041  0.0885  1.0255  0.1263
 2718TIP3    H229570   0.091   2.341   3.916 -0.7845  1.5374 -0.2599
 2719TIP3   OH229571   4.603   4.151  12.195 -0.1160 -0.3798 -0.0707
 2719TIP3    H129572   4.675   4.176  12.137 -0.4059  1.9179  0.4356
 2719TIP3    H229573   4.526   4.194  12.157 -0.6114 -0.2231  1.0781
 2720TIP3   OH229574   4.579   2.529  13.699  0.0284 -0.3115 -0.5768
 2720TIP3    H129575   4.626   2.586  13.639  2.5851 -1.6428  0.0351
 2720TIP3    H229576   4.639   2.515  13.773 -1.1356 -2.4277  0.0745
 2721TIP3   OH229577   0.928   1.983  11.935  0.1294 -0.3450 -0.4028
 2721TIP3    H129578   0.951   1.951  11.848  1.4139 -1.3284  0.2688
 2721TIP3    H229579   0.979   1.930  11.995 -1.8224 -0.6887  1.0706
 2722TIP3   OH229580   0.933   4.292   2.331  0.5224  0.0559 -0.5417
 2722TIP3    H129581   0.847   4.300   2.289  0.0829 -0.5726  0.1956
 2722TIP3    H229582   0.932   4.361   2.398  0.5136 -0.0609 -0.4198
 2723TIP3   OH229583   4.749   3.921  13.497  0.5680  0.7323 -0.2443
 2723TIP3    H129584   4.829   3.971  13.482  0.8977  0.0744 -0.7492
 2723TIP3    H229585   4.709   3.913  13.410 -0.5091  1.8075  0.1312
 2724TIP3   OH229586   6.588   6.020  11.811  0.5580  0.1499  0.6090
 2724TIP3    H129587   6.624   6.085  11.872  1.1168  0.0586  0.3885
 2724TIP3    H229588   6.613   5.936  11.848 -2.1678 -0.0655  2.1339
 2725TIP3   OH229589   4.676   4.818  17.314 -0.1851  0.1717  0.3805
 2725TIP3    H129590   4.717   4.774  17.388 -0.0827 -0.0029  0.2216
 2725TIP3    H229591   4.630   4.748  17.267 -0.1265  0.2549  0.1987
 2726TIP3   OH229592   4.208   1.958   4.583  0.3074 -0.0007 -0.1312
 2726TIP3    H129593   4.144   1.910   4.532  1.3588 -0.8776 -0.6544
 2726TIP3    H229594   4.162   1.982   4.664 -0.0882 -2.4121  0.4195
 2727TIP3   OH229595   1.685   4.671  15.111  0.3082  0.4762  0.4081
 2727TIP3    H129596   1.615   4.629  15.162 -0.5303  2.3753  0.9019
 2727TIP3    H229597   1.765   4.643  15.155 -0.2915  0.3724  1.4870
 2728TIP3   OH229598   2.596   6.625  14.339  0.2230  0.3037 -0.1848
 2728TIP3    H129599   2.535   6.586  14.277 -0.9271  1.0653  0.4281
 2728TIP3    H229600   2.597   6.565  14.413  1.3373 -0.4304 -0.7520
 2729TIP3   OH229601   2.539   2.354  17.156  0.3008  0.3128  0.3871
 2729TIP3    H129602   2.472   2.421  17.171  0.2831 -0.1095  2.6314
 2729TIP3    H229603   2.594   2.391  17.087 -0.3153  2.1790  0.8103
 2730TIP3   OH229604   0.134   1.521  11.060 -0.1559  0.3492  0.7594
 2730TIP3    H129605   0.202   1.588  11.057 -0.4501  0.6926  1.5653
 2730TIP3    H229606   0.182   1.438  11.063  0.2209  0.5864  1.2155
 2731TIP3   OH229607   6.431   2.403  15.760 -0.5089  0.5007  0.1692
 2731TIP3    H129608   6.478   2.407  15.843 -0.2953  0.9242  0.0282
 2731TIP3    H229609   6.422   2.494  15.733 -0.4468  0.3572 -0.3473
 2732TIP3   OH229610   5.416   2.307   3.479 -0.7542  0.7909 -0.3193
 2732TIP3    H129611   5.339   2.363   3.482 -1.0760  0.4367 -1.2938
 2732TIP3    H229612   5.484   2.356   3.524 -1.8518  0.5753  1.7015
 2733TIP3   OH229613   0.788   5.958  12.518  0.1454  0.0925 -0.3039
 2733TIP3    H129614   0.875   5.997  12.522 -0.4201  1.3294  1.0469
 2733TIP3    H229615   0.749   5.992  12.437  1.0090 -0.7524 -1.0987
 2734TIP3   OH229616   2.723   4.771  12.484  0.0403 -0.3175  0.1997
 2734TIP3    H129617   2.734   4.861  12.514 -1.8686  0.1350 -0.3582
 2734TIP3    H229618   2.764   4.718  12.552  2.9440  0.9959 -0.3709
 2735TIP3   OH229619   2.030   2.352   0.622 -0.5587  0.5359  0.2826
 2735TIP3    H129620   2.081   2.414   0.674 -0.0420 -0.3368  0.8218
 2735TIP3    H229621   2.064   2.362   0.533 -0.8791  1.4270  0.2421
 2736TIP3   OH229622   1.666   3.345  17.322  0.5254  0.2256  0.4411
 2736TIP3    H129623   1.706   3.335  17.409  1.3757 -0.2756 -0.0008
 2736TIP3    H229624   1.600   3.413  17.334 -0.7868 -1.2157  1.9676
 2737TIP3   OH229625   1.184   2.027   0.726  0.3259 -0.0386  0.1232
 2737TIP3    H129626   1.164   1.935   0.739  0.8518 -0.1038  0.5013
 2737TIP3    H229627   1.104   2.064   0.689  0.7409 -1.0416 -1.9238
 2738TIP3   OH229628   2.515   1.856  16.318  0.1162 -0.4920  0.1197
 2738TIP3    H129629   2.548   1.945  16.327 -0.8124 -0.3156  2.4755
 2738TIP3    H229630   2.580   1.802  16.363  0.1891 -0.9237 -0.4768
 2739TIP3   OH229631   4.018   1.435  15.656 -0.0732  0.0531 -0.4150
 2739TIP3    H129632   4.088   1.379  15.688 -0.5503 -0.8424 -0.9060
 2739TIP3    H229633   3.996   1.491  15.731  1.1458  0.3404 -0.2633
 2740TIP3   OH229634   3.581   5.738   3.925  0.3608  0.0236 -0.0399
 2740TIP3    H129635   3.549   5.668   3.982 -0.0273 -0.0899 -0.3901
 2740TIP3    H229636   3.577   5.817   3.979  0.1525 -0.1108  0.1451
 2741TIP3   OH229637   5.158   5.141   2.308 -0.3926 -0.3996 -0.6912
 2741TIP3    H129638   5.143   5.059   2.261  2.8993 -0.6700 -1.5068
 2741TIP3    H229639   5.239   5.126   2.357 -1.9633  0.9727  2.6402
 2742TIP3   OH229640   3.284   5.936   2.973 -0.6141 -0.2558 -0.9764
 2742TIP3    H129641   3.277   5.845   3.002  2.3206  0.2688  1.9685
 2742TIP3    H229642   3.338   5.932   2.894 -0.2469 -1.0699 -0.6977
 2743TIP3   OH229643   6.716   6.710   2.288 -0.3773 -0.0641  0.1232
 2743TIP3    H129644   6.737   6.622   2.318 -0.7712 -0.0061  0.5872
 2743TIP3    H229645   6.701   6.760   2.369  1.2451  0.7982 -0.0688
 2744TIP3   OH229646   3.781   1.741  17.273  0.3028  0.0096 -0.5899
 2744TIP3    H129647   3.870   1.710  17.257 -0.1812 -0.8831 -1.7423
 2744TIP3    H229648   3.773   1.746  17.368  1.4813 -0.1764 -0.4724
 2745TIP3   OH229649   2.558   1.836   4.021 -0.7806  0.3553  0.1162
 2745TIP3    H129650   2.553   1.837   3.925 -0.8483  0.8690  0.1198
 2745TIP3    H229651   2.578   1.927   4.044 -1.0029  0.2821  0.6047
 2746TIP3   OH229652   3.262   5.862   5.312 -0.3083  0.0750 -0.1858
 2746TIP3    H129653   3.244   5.955   5.301 -1.7149  0.0261  1.2278
 2746TIP3    H229654   3.197   5.818   5.258 -2.3516 -0.0575  2.1580
 2747TIP3   OH229655   1.126   3.368   4.244 -0.1464  0.2865  0.5596
 2747TIP3    H129656   1.207   3.380   4.293  0.8429  0.0603 -0.9474
 2747TIP3    H229657   1.104   3.455   4.211 -0.4488  0.3205  0.8440
 2748TIP3   OH229658   1.776   1.350  16.133  0.0654  0.1659 -0.2047
 2748TIP3    H129659   1.736   1.307  16.208 -1.1731  0.4794 -0.6671
 2748TIP3    H229660   1.833   1.284  16.094  0.7070 -0.0079  0.9798
 2749TIP3   OH229661   4.424   3.633   0.876  0.8781  0.1115 -0.1187
 2749TIP3    H129662   4.340   3.679   0.883 -0.7987 -2.6971 -0.3729
 2749TIP3    H229663   4.469   3.677   0.803 -1.1007  0.6680 -1.0928
 2750TIP3   OH229664   5.574   2.364  16.007 -0.0283  0.1889  0.1143
 2750TIP3    H129665   5.485   2.399  16.014 -0.4681 -0.5294 -1.3843
 2750TIP3    H229666   5.612   2.376  16.094 -2.2763 -1.2958  1.3904
 2751TIP3   OH229667   2.545   3.115   3.761 -0.6937  0.3237 -0.1385
 2751TIP3    H129668   2.626   3.164   3.749 -0.9654  1.2508  1.5093
 2751TIP3    H229669   2.546   3.088   3.853 -1.0292 -1.9661 -0.7425
 2752TIP3   OH229670   3.552   1.421  17.289  0.4341 -0.1872  0.6348
 2752TIP3    H129671   3.547   1.349  17.352  1.4684 -0.4837  0.4042
 2752TIP3    H229672   3.646   1.436  17.277  0.2380  1.3065  0.7806
 2753TIP3   OH229673   2.141   6.742   1.420 -0.2576 -0.5420 -0.1007
 2753TIP3    H129674   2.064   6.692   1.392 -1.0660  1.0891 -0.9011
 2753TIP3    H229675   2.111   6.793   1.495 -0.2574  0.8157 -0.9980
 2754TIP3   OH229676   6.465   2.795   4.732  0.1015 -0.3319 -0.3357
 2754TIP3    H129677   6.555   2.823   4.750  0.0984  0.3485 -1.3283
 2754TIP3    H229678   6.463   2.782   4.637 -1.6663  2.6976 -0.8395
 2755TIP3   OH229679   6.416   3.212  16.229  0.3286  0.7341 -0.1687
 2755TIP3    H129680   6.479   3.171  16.287 -0.0891  0.0383 -0.1935
 2755TIP3    H229681   6.469   3.258  16.164  0.7991  1.6303  0.8194
 2756TIP3   OH229682   1.452   5.672   3.914  0.2232 -0.6740 -0.5905
 2756TIP3    H129683   1.457   5.767   3.898  0.5923 -0.4999  0.4626
 2756TIP3    H229684   1.358   5.654   3.917  0.1495 -0.3359 -0.7525
 2757TIP3   OH229685   2.394   2.614   1.778 -0.2922  0.1278  0.7331
 2757TIP3    H129686   2.434   2.665   1.708  0.2045 -0.6208  0.4607
 2757TIP3    H229687   2.468   2.580   1.829 -0.6174 -0.1231  1.0477
 2758TIP3   OH229688   1.852   4.408   2.855  0.2085  0.1204 -0.8750
 2758TIP3    H129689   1.842   4.498   2.823 -0.0277  0.4607  0.1164
 2758TIP3    H229690   1.763   4.383   2.883  0.2625 -0.4403 -1.2044
 2759TIP3   OH229691   2.741   3.634  14.712 -0.1766  0.0847  0.6525
 2759TIP3    H129692   2.800   3.583  14.657 -0.4283  0.3767  0.1142
 2759TIP3    H229693   2.656   3.592  14.703 -0.3918  0.6056  0.1857
 2760TIP3   OH229694   3.004   4.857  12.628  0.3222  0.4369  0.4232
 2760TIP3    H129695   2.957   4.774  12.619  2.7723 -0.8346 -1.9558
 2760TIP3    H229696   2.943   4.923  12.597 -0.4829 -0.9410 -1.0607
 2761TIP3   OH229697   1.895   5.337  16.797 -0.3443 -0.5034  0.7042
 2761TIP3    H129698   1.910   5.267  16.733  1.2539 -0.7561  1.2983
 2761TIP3    H229699   1.956   5.406  16.772  0.1492 -0.5140  1.7906
 2762TIP3   OH229700   5.906   3.452   2.281 -0.4542  0.7400  0.1792
 2762TIP3    H129701   5.899   3.537   2.237 -1.7350  1.3307  1.4659
 2762TIP3    H229702   5.995   3.423   2.261  0.1649  2.5789  0.0335
 2763TIP3   OH229703   0.068   1.186   2.384  0.2032 -0.2939 -0.5383
 2763TIP3    H129704   0.102   1.262   2.335 -0.5497  0.3209 -0.1216
 2763TIP3    H229705   0.002   1.148   2.326  1.3371 -1.3053 -1.2149
 2764TIP3   OH229706   2.521   2.965   4.943  0.0666 -0.1533 -0.4274
 2764TIP3    H129707   2.562   2.889   4.902 -0.9465  1.1410 -4.2639
 2764TIP3    H229708   2.595   3.016   4.978  0.9124 -1.7814  0.2932
 2765TIP3   OH229709   5.291   1.177  16.157  0.4259  0.3499 -0.3691
 2765TIP3    H129710   5.330   1.201  16.242 -1.1670  0.8613  0.2732
 2765TIP3    H229711   5.294   1.082  16.155  1.2600  0.3633 -0.1318
 2766TIP3   OH229712   3.150   5.397   4.474  0.4074  0.8811  0.1824
 2766TIP3    H129713   3.125   5.307   4.454  1.3806  0.5199  0.5418
 2766TIP3    H229714   3.067   5.441   4.494 -0.0303 -0.0596  0.4862
 2767TIP3   OH229715   2.021   4.947  14.021 -0.1390  0.0143 -0.3649
 2767TIP3    H129716   2.008   5.000  13.943 -0.0607 -1.3566 -1.3472
 2767TIP3    H229717   2.089   4.993  14.070  0.7241  0.2461 -1.7298
 2768TIP3   OH229718   5.214   2.722  15.784 -0.4356  0.2070 -0.0041
 2768TIP3    H129719   5.175   2.646  15.827 -0.5942  0.0021 -0.4969
 2768TIP3    H229720   5.187   2.714  15.692  0.0616  0.5219 -0.1846
 2769TIP3   OH229721   0.851   4.683  12.600 -0.0674 -0.7199  0.4356
 2769TIP3    H129722   0.828   4.593  12.577 -0.0931 -0.5359 -0.2809
 2769TIP3    H229723   0.767   4.725  12.619 -0.2605 -0.3306 -1.1538
 2770TIP3   OH229724   3.785   3.895  14.793  0.7317  0.0946  0.0682
 2770TIP3    H129725   3.734   3.845  14.729 -0.4736  0.4495  0.7340
 2770TIP3    H229726   3.741   3.881  14.876 -0.0545  2.7683  0.1836
 2771TIP3   OH229727   2.444   3.455   5.360 -0.2457  0.1620  0.2000
 2771TIP3    H129728   2.375   3.481   5.298  0.7451 -0.3948 -1.2052
 2771TIP3    H229729   2.417   3.369   5.391 -1.2130  0.8345  1.2914
 2772TIP3   OH229730   4.055   1.500   4.099  0.0618 -0.3918 -0.0573
 2772TIP3    H129731   3.991   1.493   4.170  0.1719 -0.3492  0.0474
 2772TIP3    H229732   4.096   1.414   4.096 -0.3626 -0.5856 -0.4730
 2773TIP3   OH229733   2.511   0.379   0.292 -0.3408 -0.3614 -0.3678
 2773TIP3    H129734   2.497   0.288   0.318  0.2822 -0.2538  0.3908
 2773TIP3    H229735   2.539   0.374   0.201 -2.2879 -0.7699 -0.9989
 2774TIP3   OH229736   1.979   2.615  16.740  0.6435  0.2925 -0.1766
 2774TIP3    H129737   1.936   2.682  16.687  2.0507  1.8879  0.5956
 2774TIP3    H229738   2.002   2.659  16.822  0.4814 -1.5052  0.9010
 2775TIP3   OH229739   2.015   1.421   3.530 -0.3854  0.2077  0.0213
 2775TIP3    H129740   1.998   1.466   3.448 -0.5497  0.0696 -0.0206
 2775TIP3    H229741   1.944   1.449   3.589 -0.0586  0.5972  0.2323
 2776TIP3   OH229742   4.432   5.236   0.974 -0.0109 -0.1511 -0.2045
 2776TIP3    H129743   4.435   5.145   1.005  0.2006  0.0065  0.2490
 2776TIP3    H229744   4.387   5.231   0.890  0.1318 -0.6972 -0.2543
 2777TIP3   OH229745   2.137   4.000  14.683  0.3168  0.0566 -0.4946
 2777TIP3    H129746   2.136   4.072  14.747  0.7384  0.3764 -0.8400
 2777TIP3    H229747   2.157   3.922  14.735 -2.2736 -0.2068  0.2398
 2778TIP3   OH229748   5.235   1.776  15.086 -0.2863 -0.0947  0.1311
 2778TIP3    H129749   5.314   1.738  15.124 -1.3729 -1.5537  1.0207
 2778TIP3    H229750   5.262   1.865  15.060  1.2143  0.0364  1.8944
 2779TIP3   OH229751   0.765   5.422   1.209  0.5725 -0.1869 -0.0420
 2779TIP3    H129752   0.821   5.346   1.226 -0.7187 -0.9116  1.1788
 2779TIP3    H229753   0.712   5.431   1.288  1.0149  2.3104  0.0609
 2780TIP3   OH229754   1.601   0.451   3.413  0.0557  0.2552 -0.0861
 2780TIP3    H129755   1.539   0.522   3.397 -0.5832 -0.0461  0.9749
 2780TIP3    H229756   1.575   0.415   3.498  0.7949 -0.8114 -0.2974
 2781TIP3   OH229757   4.056   5.099   5.757 -0.3493 -0.5568 -0.3388
 2781TIP3    H129758   4.033   5.014   5.794  0.5410 -1.4233 -1.7347
 2781TIP3    H229759   4.052   5.159   5.832 -2.9157 -1.4084  0.3221
 2782TIP3   OH229760   6.377   6.759  10.866  0.2950 -0.2151  0.3776
 2782TIP3    H129761   6.333   6.685  10.824  0.2820 -0.4435  0.7860
 2782TIP3    H229762   6.315   6.788  10.933  1.1194 -1.1395  1.6150
 2783TIP3   OH229763   4.974   1.726   6.635 -0.6389  0.3315  0.3396
 2783TIP3    H129764   5.058   1.682   6.646 -0.2141  0.9168 -0.4175
 2783TIP3    H229765   4.988   1.814   6.669 -1.5968 -0.1968  2.2080
 2784TIP3   OH229766   1.678   3.212   1.247  0.6097 -0.1391  0.0187
 2784TIP3    H129767   1.733   3.286   1.222  1.1564 -0.5370  0.0325
 2784TIP3    H229768   1.606   3.213   1.184  1.0988 -0.1373 -0.5475
 2785TIP3   OH229769   2.975   1.394  14.607 -0.0843 -0.2233  0.3717
 2785TIP3    H129770   2.929   1.314  14.635  1.3171 -1.4216 -0.5927
 2785TIP3    H229771   3.009   1.373  14.521  0.4113  1.4169  0.1369
 2786TIP3   OH229772   6.232   5.420  12.788 -0.3125 -0.2903 -0.0322
 2786TIP3    H129773   6.249   5.514  12.798 -2.3350  0.1159 -0.0291
 2786TIP3    H229774   6.221   5.388  12.877 -0.6181 -0.3246 -0.0823
 2787TIP3   OH229775   5.137   3.455   5.120 -0.4334 -0.1801  0.4616
 2787TIP3    H129776   5.204   3.452   5.188  1.4554 -0.7111 -1.3051
 2787TIP3    H229777   5.123   3.549   5.104 -1.6448 -0.0198  2.1984
 2788TIP3   OH229778   5.856   5.936   2.013 -0.3164 -0.6375 -0.4003
 2788TIP3    H129779   5.872   5.843   2.026 -1.1166 -0.7624 -0.2212
 2788TIP3    H229780   5.822   5.943   1.924 -0.3860 -0.5397 -0.3667
 2789TIP3   OH229781   5.419   3.006   2.180 -0.2674 -0.6940 -0.3674
 2789TIP3    H129782   5.481   3.040   2.117 -1.7115  0.6873 -1.1093
 2789TIP3    H229783   5.407   2.914   2.155  0.8435 -0.7646 -0.6862
 2790TIP3   OH229784   4.993   1.099  14.062  0.3344 -0.4450  0.2334
 2790TIP3    H129785   4.997   1.058  13.976  2.2675 -0.9168  0.4974
 2790TIP3    H229786   5.018   1.190  14.047 -2.2572  0.3141 -0.0856
 2791TIP3   OH229787   3.312   1.978  13.757 -0.0535  0.1242  0.1784
 2791TIP3    H129788   3.279   1.934  13.835 -0.5585  0.8723  0.3960
 2791TIP3    H229789   3.358   2.055  13.790  1.0435 -0.3547 -0.1809
 2792TIP3   OH229790   6.665   2.652  16.503 -0.3466  0.1258 -0.1413
 2792TIP3    H129791   6.706   2.591  16.563  1.0409  0.5733 -0.5944
 2792TIP3    H229792   6.617   2.714  16.559  0.6912  0.3671  0.4888
 2793TIP3   OH229793   6.300   1.353  16.556 -0.2734 -0.4970  0.3348
 2793TIP3    H129794   6.291   1.438  16.513  1.2954 -0.4492  0.0392
 2793TIP3    H229795   6.242   1.295  16.507 -3.0708  0.7833  1.8459
 2794TIP3   OH229796   5.987   3.740  17.166  0.0969 -0.3159 -0.6982
 2794TIP3    H129797   6.069   3.726  17.213 -0.3260  0.5443  0.3493
 2794TIP3    H229798   5.920   3.703  17.223 -0.5752  1.9560  0.1196
 2795TIP3   OH229799   5.603   3.585   2.131 -0.2141  0.0516  0.1083
 2795TIP3    H129800   5.557   3.540   2.202  0.4992 -1.0840 -0.1246
 2795TIP3    H229801   5.676   3.629   2.175 -0.5448  0.4855  0.2436
 2796TIP3   OH229802   5.125   6.174  15.623  0.4512  0.5611  0.1865
 2796TIP3    H129803   5.094   6.253  15.668 -0.1106  0.0602  0.6900
 2796TIP3    H229804   5.049   6.144  15.573  0.7640  0.5236 -0.2702
 2797TIP3   OH229805   1.299   5.921  12.031  0.1835 -0.4074 -0.3496
 2797TIP3    H129806   1.392   5.909  12.048  0.3927  1.4195 -0.0330
 2797TIP3    H229807   1.283   6.015  12.045 -1.8550 -0.7973  0.3763
 2798TIP3   OH229808   6.300   4.967   5.517  0.6725  0.4474 -0.5177
 2798TIP3    H129809   6.331   4.949   5.428  1.2526  1.4531 -0.5267
 2798TIP3    H229810   6.204   4.961   5.510  0.6763  1.0765 -1.3445
 2799TIP3   OH229811   3.512   0.150   4.993  0.3032 -0.3074 -0.6029
 2799TIP3    H129812   3.424   0.185   4.987  0.2895 -0.3976 -0.9477
 2799TIP3    H229813   3.560   0.192   4.922  0.5999 -0.0841 -0.2747
 2800TIP3   OH229814   0.818   4.777  11.901 -0.1040  0.0703  0.7065
 2800TIP3    H129815   0.907   4.769  11.936  0.5261 -0.5847 -0.9657
 2800TIP3    H229816   0.781   4.853  11.947  1.6400  0.9307  0.7697
 2801TIP3   OH229817   5.711   6.070  17.043 -0.0647  0.4087 -0.2804
 2801TIP3    H129818   5.722   6.157  17.005 -2.3184  1.6212  1.6067
 2801TIP3    H229819   5.729   6.082  17.137 -1.2883 -0.9153  0.1630
 2802TIP3   OH229820   4.126   6.628   4.768  0.6287  0.2289 -0.4031
 2802TIP3    H129821   4.095   6.572   4.697  0.7824  0.0633 -0.3429
 2802TIP3    H229822   4.049   6.643   4.823  0.3866  0.7913 -0.8838
 2803TIP3   OH229823   0.417   3.359  17.134  0.3029 -0.4580  0.3044
 2803TIP3    H129824   0.398   3.279  17.084 -0.5234 -1.4711  2.1554
 2803TIP3    H229825   0.345   3.418  17.112 -0.1712 -0.9700  0.4772
 2804TIP3   OH229826   4.589   2.849   0.292 -0.0549 -0.3189 -0.1735
 2804TIP3    H129827   4.525   2.911   0.326  0.5105  0.5805 -0.7259
 2804TIP3    H229828   4.590   2.778   0.357  0.0711  0.7499  1.0373
 2805TIP3   OH229829   5.452   6.350   2.184  0.0927 -1.0933  0.3540
 2805TIP3    H129830   5.436   6.258   2.205  1.3535 -1.1917  1.0165
 2805TIP3    H229831   5.533   6.371   2.230  0.4327  0.0385 -0.7035
 2806TIP3   OH229832   6.497   6.030   5.551 -0.3541 -0.3366  0.3218
 2806TIP3    H129833   6.583   6.072   5.545 -0.5950  0.1355  0.1670
 2806TIP3    H229834   6.435   6.096   5.521 -0.8891 -0.2948  1.4521
 2807TIP3   OH229835   2.959   3.831   1.100  0.3978 -0.3495 -0.0243
 2807TIP3    H129836   2.980   3.924   1.106 -0.6860 -0.0126 -1.0491
 2807TIP3    H229837   2.923   3.820   1.012 -3.5943 -0.8403  1.4793
 2808TIP3   OH229838   5.399   4.103   2.596 -0.4725 -0.0685 -0.3220
 2808TIP3    H129839   5.420   4.077   2.506 -3.0074 -1.2254 -0.6744
 2808TIP3    H229840   5.427   4.195   2.601  1.4457 -0.5186 -1.6477
 2809TIP3   OH229841   1.590   6.651  11.291  0.3029  0.2413 -0.6502
 2809TIP3    H129842   1.664   6.676  11.235  1.0483  0.5954  0.4501
 2809TIP3    H229843   1.603   6.701  11.371 -0.3571 -0.7586  0.1005
 2810TIP3   OH229844   3.145   0.734   0.415 -0.5143 -0.0053  0.0872
 2810TIP3    H129845   3.154   0.746   0.320  0.8923 -0.3563  0.1426
 2810TIP3    H229846   3.073   0.673   0.425 -1.1411  0.5753 -0.7173
 2811TIP3   OH229847   4.444   6.723  16.782 -0.2417  0.1354 -0.2208
 2811TIP3    H129848   4.404   6.806  16.807  0.1086  0.2182  0.0706
 2811TIP3    H229849   4.452   6.728  16.687 -0.8404  0.1514 -0.2777
 2812TIP3   OH229850   1.486   3.520   0.095  0.8220 -0.0615  0.9745
 2812TIP3    H129851   1.416   3.581   0.117  0.9718 -0.3611  2.3311
 2812TIP3    H229852   1.458   3.436   0.131  0.7977 -0.7505 -0.5414
 2813TIP3   OH229853   5.356   5.689   5.246 -0.2237  0.0159  0.3348
 2813TIP3    H129854   5.360   5.616   5.308  2.3188 -0.8500 -0.7328
 2813TIP3    H229855   5.277   5.673   5.195 -1.9523  0.3193  2.7402
 2814TIP3   OH229856   6.475   6.576  11.598 -0.4231 -0.3699 -0.3131
 2814TIP3    H129857   6.527   6.496  11.590  0.7595  0.4943 -1.7607
 2814TIP3    H229858   6.536   6.647  11.575 -1.9057  0.7960 -0.8318
 2815TIP3   OH229859   3.587   3.506   0.403 -0.1558  0.3221 -0.6227
 2815TIP3    H129860   3.640   3.485   0.327 -0.4480  0.4388 -0.8632
 2815TIP3    H229861   3.507   3.545   0.366 -0.3697  0.2270 -0.2651
 2816TIP3   OH229862   5.846   4.117  11.327  0.1589  0.2506  0.0305
 2816TIP3    H129863   5.861   4.144  11.418  0.8908 -0.0805  0.0174
 2816TIP3    H229864   5.751   4.119  11.317  0.1015  1.0127  0.5782
 2817TIP3   OH229865   5.055   3.042  17.030 -0.5277  0.0430  0.0627
 2817TIP3    H129866   5.076   3.115  17.087 -0.8536 -1.5563  2.3550
 2817TIP3    H229867   4.960   3.033  17.036 -0.6425  0.1577 -1.1913
 2818TIP3   OH229868   5.457   5.315  14.129  0.3967 -0.2809  0.1917
 2818TIP3    H129869   5.371   5.331  14.089 -0.5812 -3.3207  0.8126
 2818TIP3    H229870   5.454   5.362  14.212 -1.0176 -0.9241  0.5353
 2819TIP3   OH229871   4.660   3.091  11.307 -0.2012 -0.1183  0.3206
 2819TIP3    H129872   4.565   3.097  11.310 -0.5079 -1.6332 -2.5603
 2819TIP3    H229873   4.678   3.039  11.229  3.0303  0.4707  0.5381
 2820TIP3   OH229874   2.863   5.889   0.844  0.4359 -0.3142  0.1717
 2820TIP3    H129875   2.947   5.909   0.884  0.3257 -0.0163  0.2528
 2820TIP3    H229876   2.833   5.810   0.889  0.1153  0.2493  0.9755
 2821TIP3   OH229877   1.867   4.417   5.373 -0.0337  1.0553 -0.0241
 2821TIP3    H129878   1.809   4.486   5.338 -1.9070  0.2668  1.3557
 2821TIP3    H229879   1.831   4.397   5.459  2.4910  0.6648  1.0283
 2822TIP3   OH229880   0.788   0.734   0.945 -0.4009 -0.0869 -0.0297
 2822TIP3    H129881   0.757   0.645   0.960 -1.1941  0.2141  0.1889
 2822TIP3    H229882   0.863   0.744   1.004 -2.0743  0.3235  2.1263
 2823TIP3   OH229883   1.139   1.401   1.351 -0.1917 -0.4228  0.0573
 2823TIP3    H129884   1.216   1.345   1.360  1.1792  1.1625 -1.1493
 2823TIP3    H229885   1.093   1.367   1.274 -1.9068 -2.6224  1.9075
 2824TIP3   OH229886   6.397   5.621  14.728 -0.1866  0.2700  0.1753
 2824TIP3    H129887   6.304   5.601  14.727 -0.5508  1.7188  1.3571
 2824TIP3    H229888   6.423   5.624  14.636 -1.1959 -0.5855 -0.1456
 2825TIP3   OH229889   3.817   1.406  15.048  0.1335 -0.4976 -0.2140
 2825TIP3    H129890   3.763   1.450  15.114  1.8494 -1.8964  2.2965
 2825TIP3    H229891   3.900   1.453  15.051 -0.4406  1.0134 -3.3257
 2826TIP3   OH229892   5.402   2.100   3.156  0.1411  0.2157 -0.5304
 2826TIP3    H129893   5.448   2.036   3.101 -0.7019  0.9523 -2.1726
 2826TIP3    H229894   5.317   2.110   3.113 -1.0972 -0.1556  1.6903
 2827TIP3   OH229895   1.294   4.963   3.126  0.4591  0.0068 -0.1856
 2827TIP3    H129896   1.219   5.004   3.084  1.1788 -0.2817 -1.8690
 2827TIP3    H229897   1.269   4.954   3.218 -1.7780 -0.6255 -0.8008
 2828TIP3   OH229898   1.428   1.764   3.032  0.1731  0.0730  0.0274
 2828TIP3    H129899   1.352   1.707   3.041 -1.1750  1.8344  0.1258
 2828TIP3    H229900   1.485   1.717   2.971 -0.1501 -2.0839  1.2797
 2829TIP3   OH229901   4.362   6.180   3.677  0.5128  0.5719  0.2944
 2829TIP3    H129902   4.413   6.113   3.632 -1.0414 -0.1930 -0.4212
 2829TIP3    H229903   4.274   6.142   3.684  0.0456  1.7934  1.5511
 2830TIP3   OH229904   3.592   4.665   3.311 -0.3135 -0.1679 -0.6512
 2830TIP3    H129905   3.652   4.591   3.315 -0.4035 -0.2536 -0.8937
 2830TIP3    H229906   3.566   4.671   3.219  0.5372  0.8427 -0.8582
 2831TIP3   OH229907   3.342   2.080  14.660  0.4859 -0.1039 -0.2412
 2831TIP3    H129908   3.261   2.034  14.638 -0.5523  0.7760  1.5913
 2831TIP3    H229909   3.345   2.154  14.600 -0.4919  0.3077  0.2118
 2832TIP3   OH229910   3.440   2.448   2.645 -0.6080 -0.5509  0.2504
 2832TIP3    H129911   3.419   2.473   2.556  1.9857 -0.1111 -0.3060
 2832TIP3    H229912   3.504   2.377   2.636  3.3524  2.4801  1.5027
 2833TIP3   OH229913   2.969   5.701  17.331  0.4392 -0.4180  0.2082
 2833TIP3    H129914   2.986   5.789  17.296  1.6435 -0.0235  1.6890
 2833TIP3    H229915   2.874   5.697  17.341  0.2175  0.0633 -1.4696
 2834TIP3   OH229916   4.704   3.014  15.320  1.1982 -0.7107  0.2264
 2834TIP3    H129917   4.683   3.107  15.317  0.7806 -0.7228  1.9404
 2834TIP3    H229918   4.790   3.008  15.279  2.3959  0.8454  2.2839
 2835TIP3   OH229919   4.555   0.767  12.023 -0.0730  0.2231 -0.1259
 2835TIP3    H129920   4.586   0.755  11.933  0.8914  2.2877 -0.1138
 2835TIP3    H229921   4.491   0.697  12.035  0.0075 -0.3024 -2.3070
 2836TIP3   OH229922   1.907   5.548  14.306  0.1724 -0.5159  0.6468
 2836TIP3    H129923   1.971   5.539  14.235 -0.1136  0.9391  0.1769
 2836TIP3    H229924   1.825   5.570  14.262 -0.1810 -0.3567  1.3722
 2837TIP3   OH229925   2.997   4.196  16.611 -0.8056 -0.5663 -0.3860
 2837TIP3    H129926   2.957   4.140  16.678 -0.6424 -0.1995  0.0219
 2837TIP3    H229927   3.086   4.211  16.643  0.1777 -2.5293 -1.9615
 2838TIP3   OH229928   5.808   0.877   1.438  0.3174  0.3466 -0.0046
 2838TIP3    H129929   5.898   0.876   1.406  0.3563  0.8552  0.0891
 2838TIP3    H229930   5.815   0.905   1.530  0.2358 -1.3671  0.5684
 2839TIP3   OH229931   0.985   4.505  14.650  0.4280  0.0722  0.5459
 2839TIP3    H129932   0.938   4.422  14.656 -1.4786  1.1257  1.5304
 2839TIP3    H229933   0.998   4.519  14.556 -1.9423  0.0131  0.1366
 2840TIP3   OH229934   0.374   4.698   5.868 -0.7290 -0.1828  0.3141
 2840TIP3    H129935   0.416   4.612   5.875  0.5762  0.4951  0.9939
 2840TIP3    H229936   0.285   4.683   5.899 -0.3910 -1.2018  0.8328
 2841TIP3   OH229937   6.338   5.850  16.959 -0.5731 -0.5078 -0.1201
 2841TIP3    H129938   6.256   5.847  17.009 -1.0227 -0.3889 -0.8291
 2841TIP3    H229939   6.375   5.936  16.980 -0.5279 -0.6451  0.3636
 2842TIP3   OH229940   1.044   1.067   4.957 -0.0139  0.3913  0.0448
 2842TIP3    H129941   1.068   0.974   4.964  0.9922  0.7271  1.7608
 2842TIP3    H229942   1.118   1.113   4.997 -1.5521  1.7718  1.4009
 2843TIP3   OH229943   2.934   5.128  16.762 -0.7238  0.0597 -0.2141
 2843TIP3    H129944   2.956   5.125  16.856 -0.1281 -0.3561 -0.3599
 2843TIP3    H229945   2.951   5.219  16.737 -0.0691 -0.0229 -0.1017
 2844TIP3   OH229946   0.655   6.489   1.757  0.8130  0.2358 -0.8104
 2844TIP3    H129947   0.587   6.539   1.712 -0.6302 -0.1501  0.8240
 2844TIP3    H229948   0.650   6.401   1.718 -1.2958 -0.4555  0.8392
 2845TIP3   OH229949   5.023   4.330   3.600 -0.0795  0.0337 -0.0109
 2845TIP3    H129950   5.048   4.266   3.666  0.9578  2.1320  1.7869
 2845TIP3    H229951   4.949   4.290   3.554 -0.2978 -1.8861  1.8553
 2846TIP3   OH229952   5.533   1.946  10.818  0.0955  0.0840 -0.4218
 2846TIP3    H129953   5.500   1.857  10.827 -0.4158  0.1607 -1.3906
 2846TIP3    H229954   5.465   1.992  10.770 -0.1053  1.2827  0.9348
 2847TIP3   OH229955   1.539   4.139  12.585 -0.1018 -0.2555 -0.2283
 2847TIP3    H129956   1.629   4.107  12.581  0.8458  2.1764 -0.4797
 2847TIP3    H229957   1.539   4.201  12.658 -1.5508 -0.1573 -0.2846
 2848TIP3   OH229958   1.367   5.693   2.322  0.2046 -0.3210 -0.2034
 2848TIP3    H129959   1.284   5.707   2.276 -0.2014 -0.0243  0.5970
 2848TIP3    H229960   1.416   5.773   2.309 -1.2753  1.1936  2.6366
 2849TIP3   OH229961   5.241   1.454   0.750 -0.6732  0.0505 -0.2593
 2849TIP3    H129962   5.193   1.407   0.682 -0.0627 -1.9310  0.5766
 2849TIP3    H229963   5.306   1.390   0.781  0.3465  1.5502  0.8401
 2850TIP3   OH229964   6.374   3.089  12.668 -0.0362 -0.1193  0.5619
 2850TIP3    H129965   6.455   3.052  12.705  0.2361  0.8150  0.9413
 2850TIP3    H229966   6.388   3.089  12.573  0.2203 -0.4035  0.6009
 2851TIP3   OH229967   5.993   2.677  14.992 -0.2669  0.2882 -0.5974
 2851TIP3    H129968   5.920   2.739  14.987  0.3538  1.0131 -0.8439
 2851TIP3    H229969   5.991   2.645  15.082 -2.7028 -1.9796 -1.3012
 2852TIP3   OH229970   0.119   3.332   0.586 -0.2932 -0.0935  0.0638
 2852TIP3    H129971   0.156   3.262   0.532 -0.0376  0.2341 -0.1917
 2852TIP3    H229972   0.034   3.297   0.615 -1.7121  0.6802 -2.7404
 2853TIP3   OH229973   2.943   4.992  12.295 -0.0042  0.0322  0.2008
 2853TIP3    H129974   2.920   5.016  12.205  2.4823  0.8521 -0.3050
 2853TIP3    H229975   2.871   5.025  12.348 -0.3313  1.8828 -1.2633
 2854TIP3   OH229976   1.441   4.829  17.085  0.0179  0.2248 -0.8822
 2854TIP3    H129977   1.396   4.914  17.087 -1.5079 -0.5322 -1.5934
 2854TIP3    H229978   1.426   4.797  16.996  1.9116 -0.1228 -1.1170
 2855TIP3   OH229979   5.151   6.535   4.706  0.2297 -0.6861 -0.2596
 2855TIP3    H129980   5.139   6.536   4.612 -3.8233  0.4919  0.0859
 2855TIP3    H229981   5.130   6.445   4.733  0.5846 -0.8095 -0.3912
 2856TIP3   OH229982   2.724   1.309   2.076  0.0545  0.4178  0.4210
 2856TIP3    H129983   2.736   1.220   2.108 -1.9120 -0.1390 -0.2206
 2856TIP3    H229984   2.659   1.347   2.135  0.3402  1.1919  0.2491
 2857TIP3   OH229985   4.742   3.468  13.863  0.1009  0.1363 -0.1281
 2857TIP3    H129986   4.835   3.483  13.878  0.3002 -0.4515 -0.7572
 2857TIP3    H229987   4.729   3.490  13.771  0.0062 -1.5781 -0.5548
 2858TIP3   OH229988   2.797   0.606  12.861 -0.1266 -0.6610 -0.4314
 2858TIP3    H129989   2.766   0.573  12.776 -1.8724  0.4743 -0.2854
 2858TIP3    H229990   2.732   0.671  12.886  0.6205 -0.6362  1.5760
 2859TIP3   OH229991   6.489   2.098  14.635 -0.3177 -0.2258  0.3715
 2859TIP3    H129992   6.521   2.166  14.577  0.0636  0.4042  1.2918
 2859TIP3    H229993   6.436   2.041  14.580 -0.2304  0.5351 -0.5062
 2860TIP3   OH229994   3.927   0.404  15.810  0.4182 -0.6589  0.3449
 2860TIP3    H129995   3.878   0.333  15.853  1.2742 -0.8023  1.1076
 2860TIP3    H229996   3.898   0.483  15.854  0.1307 -0.6240  0.1010
 2861TIP3   OH229997   2.588   0.194   3.056 -0.1000 -0.0784 -0.1071
 2861TIP3    H129998   2.674   0.184   3.096 -0.2232 -1.1090 -0.0692
 2861TIP3    H229999   2.573   0.288   3.054  0.9956  0.1099 -0.0465
 2862TIP3   OH230000   4.523   3.635   4.051  0.1364  0.4074 -0.1769
 2862TIP3    H130001   4.575   3.676   3.982 -1.8224  0.5545 -1.6675
 2862TIP3    H230002   4.468   3.705   4.084 -1.0592 -0.3092 -0.5864
 2863TIP3   OH230003   0.968   5.410  11.519  0.0666  0.8662  0.0054
 2863TIP3    H130004   0.890   5.396  11.465 -1.1265  0.5836  1.6892
 2863TIP3    H230005   0.974   5.505  11.529  1.6991  1.1151 -2.4618
 2864TIP3   OH230006   4.387   1.122   3.896 -0.5936 -0.2468  0.1937
 2864TIP3    H130007   4.450   1.182   3.857 -0.3940 -0.1381  0.6773
 2864TIP3    H230008   4.333   1.093   3.823  2.0135 -2.8750 -0.8962
 2865TIP3   OH230009   4.614   3.285  14.463  0.2441 -0.7593 -0.1743
 2865TIP3    H130010   4.683   3.270  14.527 -0.6999 -1.4704  0.7138
 2865TIP3    H230011   4.640   3.235  14.386  0.4525 -1.4621  0.3501
 2866TIP3   OH230012   3.587   6.562   2.122  0.1684  0.6718 -0.4130
 2866TIP3    H130013   3.658   6.596   2.178 -0.4032  0.0952  0.7016
 2866TIP3    H230014   3.630   6.539   2.040  1.4856 -0.5726  0.5722
 2867TIP3   OH230015   6.180   5.656  15.668  0.4730 -0.1691 -0.3983
 2867TIP3    H130016   6.100   5.606  15.684  0.1640 -0.1632 -1.7984
 2867TIP3    H230017   6.250   5.590  15.667  0.2233 -0.4281 -1.0604
 2868TIP3   OH230018   2.519   3.733   2.643 -0.3332  0.3949  0.1781
 2868TIP3    H130019   2.437   3.684   2.657 -0.1769 -0.0024 -0.2590
 2868TIP3    H230020   2.517   3.802   2.709 -1.8960  1.5045 -0.9507
 2869TIP3   OH230021   2.795   2.198  16.379 -0.5579  0.0387 -0.3515
 2869TIP3    H130022   2.809   2.109  16.346  0.7545  0.1633 -0.1737
 2869TIP3    H230023   2.870   2.215  16.436 -0.7657  1.2771 -0.4205
 2870TIP3   OH230024   6.761   1.870  15.990 -0.2609  0.5251  0.2892
 2870TIP3    H130025   6.757   1.913  15.905 -0.3341 -0.1020 -0.0346
 2870TIP3    H230026   6.686   1.903  16.038 -0.2483  0.8455  0.0894
 2871TIP3   OH230027   6.343   2.770   2.327  0.3768 -0.0026  0.1386
 2871TIP3    H130028   6.401   2.842   2.304 -0.5477  0.8972  0.5228
 2871TIP3    H230029   6.305   2.795   2.411 -1.2756 -0.0723 -0.5310
 2872TIP3   OH230030   6.149   4.648   0.234 -0.4494 -0.3258  0.3389
 2872TIP3    H130031   6.219   4.600   0.278  0.7787  2.1083  1.2231
 2872TIP3    H230032   6.151   4.735   0.274 -2.8577  0.3564 -0.8473
 2873TIP3   OH230033   5.326   6.274  11.950 -0.7424 -0.4954 -0.2631
 2873TIP3    H130034   5.285   6.304  11.869  0.5862  1.3552 -0.2913
 2873TIP3    H230035   5.337   6.353  12.002 -0.1685 -1.4401  1.1009
 2874TIP3   OH230036   4.170   3.949  12.640  0.1321  0.1287  0.2118
 2874TIP3    H130037   4.213   3.905  12.567  1.5192  0.1477  0.9836
 2874TIP3    H230038   4.152   3.878  12.703 -0.0937  0.2636  0.3008
 2875TIP3   OH230039   4.886   1.034   4.239 -0.2472 -0.0766 -0.4817
 2875TIP3    H130040   4.976   1.046   4.207 -0.1344 -1.5612 -0.8060
 2875TIP3    H230041   4.879   1.092   4.315  0.4672  1.2409 -1.3733
 2876TIP3   OH230042   4.161   0.992  11.477  0.2695 -0.1988  0.5147
 2876TIP3    H130043   4.099   0.951  11.418 -1.4257  0.6410  1.6108
 2876TIP3    H230044   4.232   1.022  11.421  0.1307 -1.9508 -0.6693
 2877TIP3   OH230045   1.409   5.611   5.508  0.5628  0.6181  0.4947
 2877TIP3    H130046   1.358   5.672   5.455  1.2871  0.5523 -0.3158
 2877TIP3    H230047   1.461   5.562   5.443 -0.3991 -1.2478  1.0598
 2878TIP3   OH230048   6.362   0.682  14.151  0.5114  0.1319 -0.7019
 2878TIP3    H130049   6.442   0.668  14.099 -0.2675 -2.2488 -1.3688
 2878TIP3    H230050   6.292   0.689  14.086 -0.0109  0.8601 -0.0761
 2879TIP3   OH230051   3.146   6.435   0.681  0.3833  0.3134  0.4550
 2879TIP3    H130052   3.112   6.518   0.646 -0.6468  1.6754  4.1746
 2879TIP3    H230053   3.069   6.378   0.686  0.4187  0.2972  0.8605
 2880TIP3   OH230054   3.936   5.334   6.081 -0.5966 -0.1728  0.7003
 2880TIP3    H130055   3.969   5.381   6.157  1.2727  1.0233 -0.7471
 2880TIP3    H230056   3.902   5.402   6.023  3.0097 -0.2510 -1.8635
 2881TIP3   OH230057   3.382   2.707   1.789 -0.5008  0.3675 -0.3859
 2881TIP3    H130058   3.409   2.617   1.771  0.0083  0.5566 -0.5973
 2881TIP3    H230059   3.399   2.754   1.708 -1.6186  0.4735 -0.5710
 2882TIP3   OH230060   3.056   0.692   3.040 -0.1713 -0.5724 -0.5727
 2882TIP3    H130061   3.116   0.628   3.001  1.2234  0.3581 -0.0223
 2882TIP3    H230062   2.997   0.716   2.969 -0.0299 -1.6585 -1.0773
 2883TIP3   OH230063   2.321   1.531   2.724 -0.1029 -0.1121 -0.4474
 2883TIP3    H130064   2.308   1.561   2.633 -2.3349  0.3360 -0.0366
 2883TIP3    H230065   2.404   1.483   2.721  1.2591  2.1013 -2.1546
 2884TIP3   OH230066   6.303   2.329   4.554 -0.5855  0.4170 -0.4581
 2884TIP3    H130067   6.326   2.244   4.591 -1.1972  0.6549  0.5004
 2884TIP3    H230068   6.355   2.335   4.474  0.9790  0.0061  0.4792
 2885TIP3   OH230069   6.732   2.235   5.212 -0.3025 -0.2860 -0.1404
 2885TIP3    H130070   6.780   2.318   5.211  0.2293 -0.5627 -1.7098
 2885TIP3    H230071   6.641   2.260   5.228 -0.1210  0.5817 -0.3818
 2886TIP3   OH230072   3.225   3.372   2.007  0.3591 -0.5067 -0.0918
 2886TIP3    H130073   3.254   3.413   1.926 -0.5852  1.0914  0.3233
 2886TIP3    H230074   3.268   3.286   2.008  1.0697 -0.2115 -1.8373
 2887TIP3   OH230075   5.609   5.324  14.732  0.9325 -0.0600  0.1190
 2887TIP3    H130076   5.604   5.420  14.736  0.3091 -0.0955  0.3973
 2887TIP3    H230077   5.521   5.296  14.709  1.1434 -0.5674 -0.0951
 2888TIP3   OH230078   2.781   4.839   2.055 -0.5724  0.3998  0.3179
 2888TIP3    H130079   2.755   4.907   1.993 -0.5857  0.0171 -0.1046
 2888TIP3    H230080   2.787   4.759   2.002 -0.2241  0.1393  0.7389
 2889TIP3   OH230081   0.637   6.337   2.950 -0.1237 -0.0742 -0.0707
 2889TIP3    H130082   0.640   6.432   2.937 -0.2314  0.2263  1.8032
 2889TIP3    H230083   0.655   6.325   3.043 -0.6591 -1.8634 -0.1557
 2890TIP3   OH230084   3.073   3.334   3.891 -0.0607  0.1429 -0.0121
 2890TIP3    H130085   3.079   3.309   3.799 -0.5827  0.3911 -0.1167
 2890TIP3    H230086   2.984   3.368   3.901 -0.9375 -2.2132  1.1621
 2891TIP3   OH230087   5.554   6.114   4.663 -0.1854  0.0928  0.0851
 2891TIP3    H130088   5.472   6.163   4.654  0.1776  0.8310  0.6910
 2891TIP3    H230089   5.529   6.033   4.709 -0.6255  0.1642 -0.0271
 2892TIP3   OH230090   5.361   4.786  11.012  0.5462  0.3386  0.5586
 2892TIP3    H130091   5.402   4.700  11.023  0.8237  0.1426 -1.6914
 2892TIP3    H230092   5.434   4.847  11.005  0.4394  0.3369 -0.8105
 2893TIP3   OH230093   1.538   0.470  11.937  0.1121  0.0873 -0.1121
 2893TIP3    H130094   1.466   0.528  11.914  0.0429  0.1470  0.2449
 2893TIP3    H230095   1.549   0.482  12.032  1.3492  0.9738 -0.3383
 2894TIP3   OH230096   4.382   5.592  13.874  0.5865  0.2893  0.3367
 2894TIP3    H130097   4.291   5.609  13.848  0.2370  0.3793  1.5536
 2894TIP3    H230098   4.418   5.540  13.802 -0.5169 -0.0213 -0.0152
 2895TIP3   OH230099   0.974   2.228   3.901 -0.3674 -0.1394 -0.4832
 2895TIP3    H130100   0.922   2.255   3.977  1.3362 -3.6510  2.2659
 2895TIP3    H230101   1.053   2.281   3.905 -0.7809  0.4860 -0.5283
 2896TIP3   OH230102   1.368   2.017  17.007  0.4813  0.0131 -0.5009
 2896TIP3    H130103   1.298   2.078  16.986  1.5576  1.8814  1.0818
 2896TIP3    H230104   1.346   1.984  17.094  0.8116 -0.5380 -0.6200
 2897TIP3   OH230105   0.848   0.224  17.217  0.2731 -0.6558 -0.4461
 2897TIP3    H130106   0.815   0.314  17.220  0.3940 -0.3618 -3.7590
 2897TIP3    H230107   0.942   0.234  17.199  0.1939 -1.3930 -1.3492
 2898TIP3   OH230108   4.447   4.744   5.227  0.0316  0.5486  0.2904
 2898TIP3    H130109   4.501   4.711   5.154 -1.5143 -1.7078  0.0695
 2898TIP3    H230110   4.418   4.831   5.198  0.2442  0.1022 -1.3563
 2899TIP3   OH230111   3.687   0.716   0.181 -0.5756 -0.6073  0.4466
 2899TIP3    H130112   3.720   0.788   0.128 -0.1066 -0.1163  1.3871
 2899TIP3    H230113   3.604   0.749   0.217 -0.1687 -0.3785  1.1915
 2900TIP3   OH230114   2.655   1.007  17.153 -0.6676  0.1383 -0.0383
 2900TIP3    H130115   2.736   1.057  17.147 -0.5793  0.7496  3.7390
 2900TIP3    H230116   2.682   0.916  17.149 -0.0299  0.3498 -0.5962
 2901TIP3   OH230117   1.259   2.261   6.456  0.0548  0.1560  0.0991
 2901TIP3    H130118   1.256   2.356   6.446  1.1254  0.0409 -1.9815
 2901TIP3    H230119   1.197   2.228   6.391 -0.3513 -0.5685  0.8461
 2902TIP3   OH230120   0.826   2.002  13.512 -0.1235  0.5960  0.4165
 2902TIP3    H130121   0.871   2.086  13.526 -0.8542  0.8636  1.1812
 2902TIP3    H230122   0.745   2.026  13.467  0.7840  0.0427 -1.6591
 2903TIP3   OH230123   3.950   1.563   1.756  0.3738 -0.0851  0.5166
 2903TIP3    H130124   3.947   1.535   1.847 -0.6222 -2.1485 -0.0784
 2903TIP3    H230125   4.041   1.548   1.729 -0.1351 -3.4284  0.1481
 2904TIP3   OH230126   3.004   5.030  13.481  0.1671 -0.2502  0.4197
 2904TIP3    H130127   2.918   5.073  13.483  0.8887  1.2440  1.1378
 2904TIP3    H230128   3.035   5.042  13.392  0.0973  0.2027  0.4529
 2905TIP3   OH230129   1.052   3.060  13.552 -0.3939 -0.2838  0.0395
 2905TIP3    H130130   0.995   3.119  13.503 -0.5927  0.0094  0.6183
 2905TIP3    H230131   1.007   3.046  13.636 -0.1404 -0.9113  0.0806
 2906TIP3   OH230132   1.707   6.690   1.959 -0.2947 -0.0512 -0.0471
 2906TIP3    H130133   1.618   6.717   1.936 -0.1532 -0.0304 -0.5965
 2906TIP3    H230134   1.706   6.681   2.054 -0.2511  2.3066  0.2535
 2907TIP3   OH230135   5.377   5.070  16.744 -0.6734  0.3715  0.1776
 2907TIP3    H130136   5.366   5.131  16.671 -0.1655 -0.2620 -0.4457
 2907TIP3    H230137   5.290   5.032  16.757 -0.4876 -0.5218 -1.0230
 2908TIP3   OH230138   5.324   2.333  16.851 -1.1145  0.1120 -0.0248
 2908TIP3    H130139   5.256   2.385  16.894 -0.6086  1.3829 -0.6977
 2908TIP3    H230140   5.381   2.305  16.922 -1.4976  0.3222  0.3692
 2909TIP3   OH230141   3.941   2.360   3.412 -0.4131 -0.0189  0.3204
 2909TIP3    H130142   4.021   2.313   3.388 -0.3150 -0.0308  0.6602
 2909TIP3    H230143   3.871   2.310   3.370 -0.3821 -0.9797  1.3669
 2910TIP3   OH230144   0.506   6.584  17.036 -0.2410  0.0826 -1.0320
 2910TIP3    H130145   0.419   6.620  17.053 -0.8863 -1.4284 -1.0398
 2910TIP3    H230146   0.566   6.650  17.071 -1.4084  0.1729  0.9226
 2911TIP3   OH230147   6.612   0.725   0.383  0.2614  0.1340 -0.1088
 2911TIP3    H130148   6.543   0.791   0.390  0.0257 -0.0505 -0.6388
 2911TIP3    H230149   6.675   0.763   0.322  0.4780  0.1699  0.1359
 2912TIP3   OH230150   0.069   1.469  12.302  0.2248  0.0490 -0.2588
 2912TIP3    H130151   0.140   1.459  12.365 -0.5085  2.5403  1.0630
 2912TIP3    H230152   0.103   1.428  12.222  2.5558 -0.1190  0.7324
 2913TIP3   OH230153   4.141   3.436   4.505  0.2732 -0.3672 -0.3777
 2913TIP3    H130154   4.228   3.402   4.485  0.8851  0.4207  0.8399
 2913TIP3    H230155   4.134   3.429   4.600  0.7202  3.4204  0.0685
 2914TIP3   OH230156   4.048   0.331   1.276  0.1192  0.0094 -0.2611
 2914TIP3    H130157   4.040   0.317   1.371  0.4400  0.0934 -0.2207
 2914TIP3    H230158   3.983   0.398   1.256  1.0534  1.0582  0.1439
 2915TIP3   OH230159   1.238   0.606  11.292  0.3566 -0.7245 -0.1447
 2915TIP3    H130160   1.224   0.610  11.197 -0.5917  0.3174  0.0115
 2915TIP3    H230161   1.151   0.587  11.328 -0.3296  3.0728  0.7102
 2916TIP3   OH230162   4.483   4.740   3.267 -0.5236 -0.0022 -0.0257
 2916TIP3    H130163   4.487   4.797   3.344  0.7335 -0.8991  0.6003
 2916TIP3    H230164   4.558   4.766   3.214 -0.6177 -0.2791 -0.2966
 2917TIP3   OH230165   6.215   4.727  11.867  0.0897  0.4589  0.2713
 2917TIP3    H130166   6.236   4.662  11.800 -0.4137 -2.0662  2.3720
 2917TIP3    H230167   6.281   4.715  11.935 -0.8263  1.1701  1.3393
 2918TIP3   OH230168   0.874   3.815   1.355 -0.5300 -0.6430  0.0541
 2918TIP3    H130169   0.964   3.846   1.370 -0.3499 -0.6541 -0.9414
 2918TIP3    H230170   0.823   3.896   1.344 -1.0646 -0.5338  2.6141
 2919TIP3   OH230171   1.607   3.538   6.186 -0.6449  0.2466 -0.3043
 2919TIP3    H130172   1.667   3.491   6.244 -0.9381 -1.5402 -1.3729
 2919TIP3    H230173   1.522   3.495   6.199 -1.2650  1.4540 -0.2462
 2920TIP3   OH230174   5.928   4.292  11.884 -0.5594 -0.4290 -0.1103
 2920TIP3    H130175   5.964   4.365  11.934 -0.2066  0.0703 -1.0639
 2920TIP3    H230176   5.958   4.214  11.930  0.6919 -0.0012 -0.1687
 2921TIP3   OH230177   3.992   4.586   2.464  0.0394 -0.0095 -0.2607
 2921TIP3    H130178   3.933   4.616   2.396  0.2091 -1.3011 -1.0186
 2921TIP3    H230179   3.935   4.564   2.538 -0.3248 -0.2402 -0.6078
 2922TIP3   OH230180   3.746   0.507   5.061 -0.0934 -0.1898 -0.0610
 2922TIP3    H130181   3.832   0.549   5.055 -0.0843 -0.2880 -0.6765
 2922TIP3    H230182   3.737   0.484   5.153  0.8292 -0.7841 -0.1059
 2923TIP3   OH230183   5.325   5.682  13.382 -0.3231  0.5043 -0.0453
 2923TIP3    H130184   5.362   5.739  13.315 -0.5465 -0.4943 -1.0542
 2923TIP3    H230185   5.401   5.636  13.418 -0.3182  0.1846 -0.4523
 2924TIP3   OH230186   4.745   6.728  11.646 -0.7731  0.7744  0.2487
 2924TIP3    H130187   4.695   6.647  11.644  2.0370 -1.1185  0.6435
 2924TIP3    H230188   4.731   6.764  11.733 -0.3058 -0.5395  0.8894
 2925TIP3   OH230189   5.966   3.406   4.130  0.0080 -0.0355  0.2557
 2925TIP3    H130190   6.016   3.338   4.085  0.0367 -1.0587  1.7369
 2925TIP3    H230191   6.004   3.407   4.219  0.1532  2.0793  0.2117
 2926TIP3   OH230192   3.410   4.117   5.436 -0.0651  0.0392  0.6480
 2926TIP3    H130193   3.447   4.108   5.524  0.4423 -0.5912  0.3783
 2926TIP3    H230194   3.486   4.116   5.378 -0.4319 -0.0448  0.1661
 2927TIP3   OH230195   2.347   4.775   4.382  0.3520  0.4445  0.0466
 2927TIP3    H130196   2.288   4.806   4.313 -1.8663 -1.8666  0.7481
 2927TIP3    H230197   2.387   4.855   4.416 -0.4523  1.8895 -2.1743
 2928TIP3   OH230198   2.280   4.413   4.731 -0.0038 -0.0593 -0.5999
 2928TIP3    H130199   2.207   4.410   4.792  2.2176 -1.1057  2.2168
 2928TIP3    H230200   2.286   4.505   4.706 -2.2506  0.0421 -0.9779
 2929TIP3   OH230201   1.068   5.801  10.849  0.1409  0.1855 -0.7860
 2929TIP3    H130202   0.994   5.862  10.846 -1.3539 -1.4825  0.4917
 2929TIP3    H230203   1.132   5.845  10.905 -0.1527  1.3242 -1.2978
 2930TIP3   OH230204   6.642   2.839  16.111  0.4286 -0.2894  0.2992
 2930TIP3    H130205   6.549   2.838  16.135  1.2344  0.8776  4.3608
 2930TIP3    H230206   6.671   2.749  16.130  0.4259 -0.2124  0.6865
 2931TIP3   OH230207   3.653   1.457  14.589  0.2480  0.1758  0.0252
 2931TIP3    H130208   3.599   1.384  14.617 -1.0104  1.0327 -0.0753
 2931TIP3    H230209   3.689   1.494  14.670 -0.5247  0.5001  0.2231
 2932TIP3   OH230210   5.404   1.136   3.021  0.0591 -0.0949  0.3268
 2932TIP3    H130211   5.341   1.202   3.049  0.9560  1.1858 -0.5265
 2932TIP3    H230212   5.355   1.080   2.961 -0.5964  0.0583  0.7054
 2933TIP3   OH230213   1.763   4.167   2.004  0.1029  0.4113 -0.5900
 2933TIP3    H130214   1.775   4.222   2.082  0.2041  1.0737 -1.0596
 2933TIP3    H230215   1.827   4.200   1.941  0.6691 -0.7366 -0.6456
 2934TIP3   OH230216   2.126   6.257  13.824  0.1746  0.3506  0.5686
 2934TIP3    H130217   2.197   6.194  13.839 -0.0218  0.3706  1.6023
 2934TIP3    H230218   2.057   6.231  13.885  0.2239  1.7818  1.2699
 2935TIP3   OH230219   0.819   6.759  13.517  0.3189  0.2060  0.3910
 2935TIP3    H130220   0.774   6.680  13.545  0.5748 -0.4092 -0.8411
 2935TIP3    H230221   0.844   6.803  13.598 -1.8507  0.2230  1.1213
 2936TIP3   OH230222   5.507   4.650  15.835 -0.2795  0.2836  0.3725
 2936TIP3    H130223   5.442   4.615  15.774 -0.5670 -0.5421  1.1166
 2936TIP3    H230224   5.469   4.633  15.921  0.3081  1.0500  0.7882
 2937TIP3   OH230225   6.187   1.617   4.127  0.4596 -0.7985  0.2179
 2937TIP3    H130226   6.278   1.588   4.134  2.0911  2.6086 -3.1506
 2937TIP3    H230227   6.186   1.701   4.174 -0.1332  0.4166 -1.8331
 2938TIP3   OH230228   5.753   4.414  12.297  0.4899  0.2895 -0.0255
 2938TIP3    H130229   5.801   4.472  12.238  2.1179 -0.6921  0.2759
 2938TIP3    H230230   5.775   4.446  12.385 -0.7609  0.8428  0.1072
 2939TIP3   OH230231   0.319   3.029  12.432 -0.2846  0.6262  0.0261
 2939TIP3    H130232   0.401   3.036  12.383 -0.2601  1.1935  0.1495
 2939TIP3    H230233   0.335   2.957  12.493 -0.1509  0.2215 -0.4738
 2940TIP3   OH230234   5.438   0.927   5.448  0.2682  0.6443 -0.4628
 2940TIP3    H130235   5.517   0.884   5.480 -0.0007 -0.0550 -0.6992
 2940TIP3    H230236   5.456   1.020   5.455  0.9869  0.4923 -0.2073
 2941TIP3   OH230237   3.641   0.040  15.387 -0.6871  0.0490  0.6447
 2941TIP3    H130238   3.702   0.105  15.353 -0.1455 -0.1029  1.3196
 2941TIP3    H230239   3.693  -0.014  15.446 -1.1399 -0.9848  0.1168
 2942TIP3   OH230240   2.343   5.426   6.174  0.0629  0.8798 -0.3128
 2942TIP3    H130241   2.342   5.494   6.241 -0.3950 -0.0181  0.6055
 2942TIP3    H230242   2.428   5.383   6.185  0.4325  1.4016 -1.0178
 2943TIP3   OH230243   1.200   1.324   2.251  0.2515  0.3235 -0.3456
 2943TIP3    H130244   1.287   1.350   2.221  0.1261  3.3706  1.4610
 2943TIP3    H230245   1.150   1.406   2.253 -1.1487 -0.4219  3.2872
 2944TIP3   OH230246   0.829   4.280  11.042 -0.5629 -0.5373  0.6533
 2944TIP3    H130247   0.867   4.350  10.989 -1.3874 -0.1758  0.5242
 2944TIP3    H230248   0.791   4.219  10.979  0.5723 -1.3652  0.7462
 2945TIP3   OH230249   0.614   1.215  11.625 -0.5091 -0.2676  0.2870
 2945TIP3    H130250   0.576   1.132  11.654 -1.1342 -0.6985 -1.6623
 2945TIP3    H230251   0.707   1.194  11.611 -0.6215 -0.5885 -0.0015
 2946TIP3   OH230252   0.820   2.873   3.064  0.4114  0.1635 -0.3217
 2946TIP3    H130253   0.820   2.917   3.149 -0.9343 -1.1823  0.4101
 2946TIP3    H230254   0.843   2.942   3.001 -1.3818  1.8747  0.8030
 2947TIP3   OH230255   1.288   6.115   1.607  0.4428  0.3551  0.2977
 2947TIP3    H130256   1.378   6.144   1.621  0.1231  1.0841  0.8748
 2947TIP3    H230257   1.234   6.177   1.656 -0.2770 -1.1262  1.4598
 2948TIP3   OH230258   0.576   3.068   2.792 -0.2579 -0.0263  0.3865
 2948TIP3    H130259   0.497   3.018   2.772  0.4684 -1.2266  0.3965
 2948TIP3    H230260   0.638   3.044   2.723  0.9690 -1.1830  1.8086
 2949TIP3   OH230261   3.676   5.886  17.131 -0.0804 -0.3547 -0.2451
 2949TIP3    H130262   3.754   5.852  17.173  0.9730  0.0033 -1.8217
 2949TIP3    H230263   3.626   5.927  17.202  0.1584 -2.3309  1.1332
 2950TIP3   OH230264   6.105   5.943  16.722 -0.3474 -0.0731  0.3097
 2950TIP3    H130265   6.094   5.874  16.787 -3.0367  0.8080  0.9209
 2950TIP3    H230266   6.090   6.024  16.771  0.5377  0.8326 -0.8436
 2951TIP3   OH230267   5.033   6.003   4.662  0.2007 -0.3092  0.1763
 2951TIP3    H130268   5.046   5.989   4.568  0.6609  1.0170  0.0193
 2951TIP3    H230269   4.953   6.054   4.668 -0.1180 -0.8448  0.5527
 2952TIP3   OH230270   0.605   2.045  14.286  0.9369  0.1376 -0.2718
 2952TIP3    H130271   0.667   1.992  14.336 -1.4822 -2.7133  0.0716
 2952TIP3    H230272   0.601   2.003  14.200 -0.3479  0.3033 -0.3260
 2953TIP3   OH230273   2.852   1.093  11.378  0.0008 -0.7430  0.2606
 2953TIP3    H130274   2.897   1.101  11.463  0.3138 -0.8700  0.1088
 2953TIP3    H230275   2.798   1.014  11.388  1.3558 -1.7851 -0.2399
 2954TIP3   OH230276   4.869   5.927  11.540 -0.2816 -0.2966 -0.6094
 2954TIP3    H130277   4.807   6.000  11.551 -0.6882 -0.8252  0.7936
 2954TIP3    H230278   4.857   5.900  11.449 -1.8782 -0.1627 -0.4680
 2955TIP3   OH230279   6.306   6.364  11.581  0.1121 -0.4182 -0.3567
 2955TIP3    H130280   6.340   6.451  11.557 -0.1613 -0.3169 -0.3837
 2955TIP3    H230281   6.250   6.340  11.507 -1.3939  0.2504  0.5121
 2956TIP3   OH230282   3.605   2.297   5.740  0.6157 -0.3126  0.2278
 2956TIP3    H130283   3.639   2.350   5.668 -2.6135  0.8209 -0.6580
 2956TIP3    H230284   3.683   2.263   5.784  2.7495 -0.1642 -3.0928
 2957TIP3   OH230285   0.146   5.469  16.199  0.0840  0.5490 -0.0616
 2957TIP3    H130286   0.112   5.472  16.288 -0.1160  0.2273 -0.1268
 2957TIP3    H230287   0.139   5.559  16.168 -1.4889  0.3551 -0.3643
 2958TIP3   OH230288   0.384   4.708  12.445 -0.6946  0.1085 -0.7782
 2958TIP3    H130289   0.342   4.754  12.518  1.2539 -0.2753  0.6649
 2958TIP3    H230290   0.393   4.774  12.376  0.3056  1.4034  0.5409
 2959TIP3   OH230291   3.486   3.779   4.221 -0.3921  0.1428 -0.0693
 2959TIP3    H130292   3.539   3.802   4.145 -0.0802  0.3429  0.2055
 2959TIP3    H230293   3.538   3.808   4.296 -0.1636 -1.1242  0.2810
 2960TIP3   OH230294   0.999   0.369   6.125  0.1595 -0.3976  0.4723
 2960TIP3    H130295   1.052   0.376   6.205 -0.1017  0.7125  0.5594
 2960TIP3    H230296   0.921   0.322   6.152 -0.0846  0.2775  0.9598
 2961TIP3   OH230297   5.268   6.028  16.225  0.3964 -0.2372 -0.1834
 2961TIP3    H130298   5.280   5.966  16.297  0.9502  0.7279  0.5753
 2961TIP3    H230299   5.173   6.043  16.222  0.1787 -1.6077 -0.8182
 2962TIP3   OH230300   5.374   3.071  16.995  0.3367 -0.1334  0.3544
 2962TIP3    H130301   5.343   3.150  16.949  0.0986 -1.5792 -2.1425
 2962TIP3    H230302   5.294   3.022  17.015  0.6318 -1.1822 -0.9320
 2963TIP3   OH230303   0.293   0.271   5.259  0.7307  0.3438  0.3936
 2963TIP3    H130304   0.359   0.264   5.329  0.0020 -1.6156  0.9505
 2963TIP3    H230305   0.220   0.316   5.301  0.3324 -0.7407  0.9068
 2964TIP3   OH230306   3.442   1.605   3.237 -0.3931  0.0600 -0.5470
 2964TIP3    H130307   3.449   1.697   3.214 -1.5665  0.6370  1.1527
 2964TIP3    H230308   3.494   1.596   3.317  0.2953 -0.9333 -1.0808
 2965TIP3   OH230309   4.663   6.130   2.893 -0.4107 -0.1734  0.4570
 2965TIP3    H130310   4.737   6.110   2.950 -1.1404 -1.0372  1.1353
 2965TIP3    H230311   4.586   6.111   2.946 -1.1459  1.0609 -0.1072
 2966TIP3   OH230312   2.351   0.363  14.102  0.2134 -0.2566  0.3187
 2966TIP3    H130313   2.277   0.315  14.064 -0.4398  0.5325  0.5816
 2966TIP3    H230314   2.315   0.448  14.126  1.1722  0.0771  0.6049
 2967TIP3   OH230315   2.558   4.514  11.881 -0.7366  0.1109  0.2012
 2967TIP3    H130316   2.603   4.440  11.841  1.3629  1.6650 -0.4450
 2967TIP3    H230317   2.570   4.586  11.820 -3.0328  0.9772  0.6435
 2968TIP3   OH230318   3.823   0.502  14.400  0.8078 -0.3213  0.0731
 2968TIP3    H130319   3.737   0.544  14.410  1.0216  0.2591 -0.5021
 2968TIP3    H230320   3.878   0.545  14.466  1.5053  1.6246 -1.6628
 2969TIP3   OH230321   3.277   4.372   1.104 -0.0992  0.3958  0.0715
 2969TIP3    H130322   3.301   4.319   1.180  0.7719  1.3088  0.4463
 2969TIP3    H230323   3.284   4.462   1.134 -1.2841  0.7477 -0.6453
 2970TIP3   OH230324   2.965   4.549  16.001  0.5003 -0.0448 -0.3956
 2970TIP3    H130325   3.030   4.594  16.054  0.3951 -0.2276 -0.1064
 2970TIP3    H230326   2.969   4.591  15.915 -0.8422  1.7394  0.3530
 2971TIP3   OH230327   4.620   3.579  15.266  0.6478  0.1349  0.1442
 2971TIP3    H130328   4.678   3.639  15.314  1.9339 -2.1751  1.6844
 2971TIP3    H230329   4.539   3.580  15.315  0.5929  0.7257  0.0508
 2972TIP3   OH230330   3.251   4.430   2.672 -0.2242 -0.1873  0.0959
 2972TIP3    H130331   3.277   4.351   2.625  1.3881  0.4856 -0.1698
 2972TIP3    H230332   3.160   4.444   2.646 -0.0989 -1.1613 -0.9329
 2973TIP3   OH230333   3.601   5.744   1.785  0.4232  0.1826 -0.2609
 2973TIP3    H130334   3.685   5.789   1.791 -1.1993  3.3573  1.1170
 2973TIP3    H230335   3.591   5.699   1.869  1.0305 -0.8388 -0.7218
 2974TIP3   OH230336   3.362   5.400  17.276  0.4831 -0.4090 -0.1438
 2974TIP3    H130337   3.450   5.428  17.302  0.6938  0.6710 -1.9086
 2974TIP3    H230338   3.303   5.458  17.323  0.6696 -1.1959  1.1199
 2975TIP3   OH230339   1.249   1.155  16.402 -0.0798 -0.3562 -0.0623
 2975TIP3    H130340   1.285   1.079  16.447 -1.6201 -0.2325  1.5121
 2975TIP3    H230341   1.192   1.118  16.335  0.2693 -0.5759 -0.2420
 2976TIP3   OH230342   5.337   3.971  16.435 -0.0784 -0.0830  0.0725
 2976TIP3    H130343   5.310   3.887  16.398  1.3271 -1.4626  1.9797
 2976TIP3    H230344   5.429   3.958  16.461  0.3157  2.1917  0.0437
 2977TIP3   OH230345   2.527   3.791   5.170 -0.0051 -0.8605 -0.0049
 2977TIP3    H130346   2.540   3.793   5.265 -1.7750 -0.5694  0.2598
 2977TIP3    H230347   2.616   3.795   5.134  0.6290  1.5236  1.5958
 2978TIP3   OH230348   4.274   0.467   1.549 -0.2991 -0.3125 -0.3204
 2978TIP3    H130349   4.208   0.503   1.609 -0.4094  0.4061 -0.8536
 2978TIP3    H230350   4.282   0.533   1.481  0.1661 -0.9080 -0.8535
 2979TIP3   OH230351   3.972   1.841   5.985  0.3095 -0.1790 -0.3668
 2979TIP3    H130352   3.880   1.840   5.960  0.0197 -1.1719  0.6419
 2979TIP3    H230353   3.974   1.890   6.068  0.5652 -0.7958  0.0026
 2980TIP3   OH230354   0.306   6.124  11.579 -0.1932 -1.4496 -0.2238
 2980TIP3    H130355   0.394   6.097  11.604 -0.5613 -1.5069  1.0579
 2980TIP3    H230356   0.269   6.048  11.534 -0.0713 -1.9140  0.4575
 2981TIP3   OH230357   2.319   1.073   0.502 -0.5611 -0.3853  0.4398
 2981TIP3    H130358   2.339   1.094   0.593 -1.7671  0.1300  0.6067
 2981TIP3    H230359   2.265   1.146   0.472  0.5014 -0.1218 -0.9603
 2982TIP3   OH230360   1.306   3.617   6.069 -0.1105 -0.7014  0.1907
 2982TIP3    H130361   1.312   3.699   6.117  2.1235 -1.4410  1.3177
 2982TIP3    H230362   1.339   3.551   6.129  1.9461 -1.8207 -1.9792
 2983TIP3   OH230363   1.328   1.431  16.052  0.2011 -0.7927  0.3600
 2983TIP3    H130364   1.329   1.425  15.957  0.8022  1.9019  0.1161
 2983TIP3    H230365   1.391   1.364  16.081  0.9206 -0.8432 -1.2072
 2984TIP3   OH230366   5.517   3.081   6.611  0.2538 -0.4795 -0.1887
 2984TIP3    H130367   5.549   3.038   6.532  1.0740 -0.4539  0.1171
 2984TIP3    H230368   5.441   3.030   6.637 -1.0670  0.4916 -1.9239
 2985TIP3   OH230369   0.812   6.109   0.963 -0.1320 -0.5091 -0.1265
 2985TIP3    H130370   0.733   6.154   0.993 -0.3387  0.6735 -2.2575
 2985TIP3    H230371   0.877   6.125   1.032 -0.8751  1.1455  0.2447
 2986TIP3   OH230372   6.104   4.215  15.560  0.2944  0.2190  0.6495
 2986TIP3    H130373   6.183   4.254  15.524  0.0513  1.0177  0.9571
 2986TIP3    H230374   6.033   4.266  15.522 -0.1698 -1.2096 -0.5467
 2987TIP3   OH230375   6.544   1.410  13.232 -0.3504  0.2853 -0.3212
 2987TIP3    H130376   6.638   1.408  13.214 -0.2407  0.7355  0.1530
 2987TIP3    H230377   6.537   1.448  13.320 -0.8840 -1.3805  0.3946
 2988TIP3   OH230378   2.604   0.763   2.505 -0.2094 -0.5723 -0.5551
 2988TIP3    H130379   2.608   0.858   2.499  1.0341 -0.6767 -1.6188
 2988TIP3    H230380   2.520   0.746   2.549  0.0066  1.0245  0.5603
 2989TIP3   OH230381   3.018   3.713   1.749 -0.2999 -0.3296  0.2261
 2989TIP3    H130382   3.109   3.715   1.778 -0.7349 -0.5563  1.6524
 2989TIP3    H230383   3.007   3.794   1.700  1.0566 -0.9670 -1.2454
 2990TIP3   OH230384   6.000   2.731   2.523  0.0578 -0.0878  0.2070
 2990TIP3    H130385   6.049   2.672   2.467  2.2550  1.1460  0.6788
 2990TIP3    H230386   6.035   2.715   2.611 -2.7241 -1.4033  1.2032
 2991TIP3   OH230387   5.671   5.752  13.863 -0.1787  0.0026  0.5588
 2991TIP3    H130388   5.728   5.707  13.925  1.4872 -0.0614 -0.9366
 2991TIP3    H230389   5.729   5.811  13.815 -1.5377  0.5725 -0.4705
 2992TIP3   OH230390   1.115   5.803   3.133  0.2838 -0.4266 -0.5545
 2992TIP3    H130391   1.151   5.812   3.222  0.9664  2.1142 -1.0058
 2992TIP3    H230392   1.192   5.807   3.076 -0.2358 -1.0422 -1.3121
 2993TIP3   OH230393   3.154   4.878  15.826 -0.1883  0.5883  0.0011
 2993TIP3    H130394   3.124   4.967  15.807  0.1304  0.5857 -0.5347
 2993TIP3    H230395   3.234   4.869  15.774  0.6131  0.5184  1.2069
 2994TIP3   OH230396   1.041   3.491   4.883  0.5727  0.1301 -0.2635
 2994TIP3    H130397   1.034   3.556   4.814  1.1704  0.9368  0.4193
 2994TIP3    H230398   0.986   3.418   4.853 -0.9783  1.3606 -0.5513
 2995TIP3   OH230399   2.253   4.117  15.042 -0.6419  0.7229  0.6353
 2995TIP3    H130400   2.344   4.144  15.028  0.4859 -2.9554 -0.1361
 2995TIP3    H230401   2.208   4.142  14.961 -0.7768  3.7847  1.5330
 2996TIP3   OH230402   2.460   6.329   5.179 -0.2245  0.7680  0.1556
 2996TIP3    H130403   2.386   6.364   5.229 -1.5104 -2.5166  0.8136
 2996TIP3    H230404   2.510   6.277   5.243  3.1194  3.2547 -0.1385
 2997TIP3   OH230405   2.316   0.069   5.196  0.2972 -0.2987  0.5302
 2997TIP3    H130406   2.320  -0.018   5.157  0.8253  0.1138 -0.3663
 2997TIP3    H230407   2.285   0.126   5.126 -2.0359 -0.0502  1.6691
 2998TIP3   OH230408   0.255   3.941  13.545  0.5414  0.4251  0.1424
 2998TIP3    H130409   0.256   3.860  13.494  1.3941  1.4332 -1.5205
 2998TIP3    H230410   0.344   3.976  13.538  0.7187  0.5791  2.4428
 2999TIP3   OH230411   2.366   4.308  10.968 -0.6169 -0.1487  0.1267
 2999TIP3    H130412   2.380   4.221  10.931  1.2625 -0.2014  0.8571
 2999TIP3    H230413   2.296   4.296  11.033  0.3487 -1.3481  0.9679
 3000TIP3   OH230414   2.601   2.331   1.544 -0.4724 -0.1332 -0.2045
 3000TIP3    H130415   2.580   2.321   1.637 -2.1383 -1.0832 -0.6324
 3000TIP3    H230416   2.630   2.422   1.535 -0.7329  0.1037  1.1579
 3001TIP3   OH230417   2.042   5.301   0.241 -0.0265 -0.1043  0.0048
 3001TIP3    H130418   1.961   5.251   0.228 -0.8593  0.7606  1.5124
 3001TIP3    H230419   2.098   5.243   0.292 -0.2880 -0.1702  0.2203
 3002TIP3   OH230420   0.657   4.480  15.375  0.0539 -0.0517  0.1298
 3002TIP3    H130421   0.652   4.454  15.467  0.2990  0.1474  0.2009
 3002TIP3    H230422   0.587   4.545  15.364 -0.4913 -0.6611 -0.0222
 3003TIP3   OH230423   4.573   3.008   2.195  0.3747  0.7256  0.1054
 3003TIP3    H130424   4.635   2.981   2.128 -0.6503 -0.4268 -0.4328
 3003TIP3    H230425   4.567   3.103   2.186  0.6828  0.6485 -1.0631
 3004TIP3   OH230426   4.164   4.816  10.945  0.6142  0.7425 -0.3994
 3004TIP3    H130427   4.102   4.818  10.873  0.6688 -1.4158 -0.5600
 3004TIP3    H230428   4.246   4.847  10.907  0.2437  1.2457 -0.8036
 3005TIP3   OH230429   6.036   2.954   1.001  0.3665  0.5524 -0.3817
 3005TIP3    H130430   6.086   2.875   1.022  1.4970  1.3884  0.1484
 3005TIP3    H230431   6.095   3.026   1.023 -1.4235  1.6109  1.1820
 3006TIP3   OH230432   4.839   2.362  13.678 -0.1776  0.1068 -0.6944
 3006TIP3    H130433   4.905   2.405  13.624  0.1877 -0.5750 -0.8069
 3006TIP3    H230434   4.772   2.335  13.615 -0.1843  0.1040 -0.6864
 3007TIP3   OH230435   3.457   1.361   0.361 -0.5020 -0.5956  0.5645
 3007TIP3    H130436   3.544   1.382   0.329 -0.9645  0.9034  0.2055
 3007TIP3    H230437   3.405   1.346   0.282 -1.1052  0.8631  0.6559
 3008TIP3   OH230438   5.381   5.677  13.698  0.2883 -0.3746  0.8479
 3008TIP3    H130439   5.333   5.620  13.638  1.2666 -1.4419  1.0373
 3008TIP3    H230440   5.388   5.761  13.653 -0.5526 -0.6213  0.2463
 3009TIP3   OH230441   0.286   4.743   2.857  0.0444  0.2046 -0.7055
 3009TIP3    H130442   0.271   4.834   2.831  2.6442  0.5641 -1.1911
 3009TIP3    H230443   0.357   4.713   2.800  0.7742 -1.4145  0.9710
 3010TIP3   OH230444   5.708   3.405   4.010  0.2786 -0.4415  0.5162
 3010TIP3    H130445   5.655   3.333   4.044 -0.3521  0.9753  2.7584
 3010TIP3    H230446   5.799   3.377   4.024  0.0735 -0.0119  3.5672
 3011TIP3   OH230447   0.498   4.872   3.073  0.2739 -0.1740 -0.1779
 3011TIP3    H130448   0.417   4.863   3.022  0.6042  0.9408 -0.9363
 3011TIP3    H230449   0.516   4.783   3.104 -1.3594 -0.3991  0.2080
 3012TIP3   OH230450   6.751   6.072  14.548 -0.5551  0.4332 -0.1653
 3012TIP3    H130451   6.807   5.997  14.567 -1.4236 -0.4218 -0.8787
 3012TIP3    H230452   6.787   6.111  14.469 -1.0747 -0.2536 -0.7548
 3013TIP3   OH230453   1.278   4.842  14.439 -0.5541 -0.0614  0.1703
 3013TIP3    H130454   1.265   4.813  14.348  0.3303  0.7449 -0.2301
 3013TIP3    H230455   1.190   4.850  14.474 -0.8950 -0.8401 -0.4731
 3014TIP3   OH230456   5.363   3.825   5.447  0.3090  0.4997  0.1879
 3014TIP3    H130457   5.418   3.810   5.370  1.1309 -0.9840  1.0119
 3014TIP3    H230458   5.400   3.904   5.487  0.4024  0.8068 -0.4884
 3015TIP3   OH230459   5.472   1.106  17.150 -0.2690 -0.1997  0.3649
 3015TIP3    H130460   5.392   1.137  17.193 -1.2563  2.3688 -2.8963
 3015TIP3    H230461   5.531   1.182  17.151  0.0294 -0.3246 -1.7537
 3016TIP3   OH230462   1.147   0.325  15.188  0.4530 -0.0148  0.1320
 3016TIP3    H130463   1.146   0.397  15.126 -0.5566 -0.3940 -0.3224
 3016TIP3    H230464   1.236   0.323  15.222  0.6688  1.0242 -0.3297
 3017TIP3   OH230465   0.750   6.092  13.937  0.5017  0.2912 -0.2834
 3017TIP3    H130466   0.799   6.062  14.014  0.1662 -0.7121 -0.4467
 3017TIP3    H230467   0.800   6.166  13.904  1.7923 -0.5711 -0.3249
 3018TIP3   OH230468   2.356   5.650   1.639 -0.0485  0.1697  0.0076
 3018TIP3    H130469   2.405   5.578   1.598 -1.4142 -1.0377  0.4010
 3018TIP3    H230470   2.419   5.690   1.699  0.7951 -0.6063 -0.3236
 3019TIP3   OH230471   4.731   1.445   2.645 -0.2824 -0.0336 -0.0015
 3019TIP3    H130472   4.826   1.450   2.636 -0.1771 -1.0987  0.3615
 3019TIP3    H230473   4.717   1.410   2.733 -1.0342  0.7930  0.2176
 3020TIP3   OH230474   6.315   1.784   5.067 -0.3404 -0.0188  0.4746
 3020TIP3    H130475   6.388   1.844   5.058  1.0216 -1.3455  2.0039
 3020TIP3    H230476   6.322   1.726   4.992 -2.1988  2.1339 -1.5198
 3021TIP3   OH230477   3.592   2.064  14.406 -0.4556 -0.0939 -0.4011
 3021TIP3    H130478   3.641   2.046  14.486 -2.2255 -0.4225  0.6502
 3021TIP3    H230479   3.540   1.985  14.392 -2.0550  0.9352 -0.4375
 3022TIP3   OH230480   3.342   6.018   0.909 -0.0836 -0.5113  0.2757
 3022TIP3    H130481   3.363   6.069   0.830 -0.1303  0.1200  0.6701
 3022TIP3    H230482   3.425   6.013   0.957 -0.8359  2.5649  2.1764
 3023TIP3   OH230483   2.787   3.355  10.693 -0.4700 -0.1094 -0.2319
 3023TIP3    H130484   2.771   3.351  10.598 -1.3982  0.3733 -0.1140
 3023TIP3    H230485   2.735   3.283  10.729 -1.2574  0.5768  0.0317
 3024TIP3   OH230486   0.746   5.037   1.242  0.2354 -0.4300 -0.0495
 3024TIP3    H130487   0.740   4.970   1.174  2.2045 -0.5516 -0.1580
 3024TIP3    H230488   0.711   4.994   1.321 -1.5320 -0.4683 -0.8135
 3025TIP3   OH230489   1.935   3.576  15.169 -0.0875  0.2529 -0.2821
 3025TIP3    H130490   1.992   3.500  15.178  0.6742  0.9322  0.7935
 3025TIP3    H230491   1.952   3.610  15.081 -0.3338 -0.7152 -0.7175
 3026TIP3   OH230492   5.423   4.141   6.472 -0.3062  0.2343 -0.3576
 3026TIP3    H130493   5.461   4.155   6.559 -0.3281  0.6247 -0.4121
 3026TIP3    H230494   5.349   4.200   6.467  1.1450  2.0736 -1.5665
 3027TIP3   OH230495   3.493   3.178  15.989 -0.1309  0.6631 -0.2581
 3027TIP3    H130496   3.430   3.124  16.038 -1.2032  0.5817 -1.6690
 3027TIP3    H230497   3.524   3.242  16.054 -0.2212 -0.4859  0.9610
 3028TIP3   OH230498   4.264   6.611   2.222  0.6088 -0.7039  0.2320
 3028TIP3    H130499   4.233   6.584   2.308  0.6298 -1.1900  0.0881
 3028TIP3    H230500   4.334   6.674   2.241 -1.0914  1.1959  0.5585
 3029TIP3   OH230501   4.422   0.522  16.253 -0.4514  0.0219 -0.5455
 3029TIP3    H130502   4.440   0.428  16.244 -1.2628 -0.2177  0.2321
 3029TIP3    H230503   4.337   0.534  16.211 -0.5868  0.3139 -0.1887
 3030TIP3   OH230504   5.933   1.289  12.865 -0.2102 -0.1215 -0.6115
 3030TIP3    H130505   5.989   1.367  12.868 -0.2529 -0.0325  3.6654
 3030TIP3    H230506   5.844   1.324  12.864 -0.2727  0.1055  2.6416
 3031TIP3   OH230507   5.044   4.211   6.557 -0.8064 -0.0361 -0.0423
 3031TIP3    H130508   5.131   4.244   6.535 -0.2008 -0.0519  2.1058
 3031TIP3    H230509   5.020   4.156   6.483  0.3002  1.2247 -1.4113
 3032TIP3   OH230510   4.821   3.403   5.895 -0.2762 -0.0298  0.0410
 3032TIP3    H130511   4.844   3.485   5.851  1.0681 -0.1683  0.4377
 3032TIP3    H230512   4.806   3.428   5.986 -0.1099 -0.1827  0.1112
 3033TIP3   OH230513   5.965   0.382   0.470 -0.1508 -0.2666 -0.4159
 3033TIP3    H130514   5.870   0.379   0.465 -0.1067 -0.7779 -1.1052
 3033TIP3    H230515   5.992   0.290   0.474  0.2692 -0.1032  0.8532
 3034TIP3   OH230516   6.389   3.543   2.324  0.0729 -0.3260 -0.2160
 3034TIP3    H130517   6.388   3.450   2.349 -1.2636  0.2881  2.3438
 3034TIP3    H230518   6.456   3.582   2.380  1.5984  0.1112 -2.2271
 3035TIP3   OH230519   2.310   0.936   4.708  0.1359 -0.4775  0.1661
 3035TIP3    H130520   2.349   0.865   4.656 -0.3497 -0.7473  0.1720
 3035TIP3    H230521   2.366   0.941   4.786 -0.4167 -1.5318  0.6508
 3036TIP3   OH230522   3.420   4.166  16.945 -0.2835  0.1144  0.5493
 3036TIP3    H130523   3.457   4.090  16.990 -1.1036  0.4065  1.7509
 3036TIP3    H230524   3.494   4.227  16.935  0.6011 -1.1513 -1.2360
 3037TIP3   OH230525   2.401   6.460  17.255 -0.5350  0.8480  0.2038
 3037TIP3    H130526   2.452   6.461  17.174 -0.2815  0.8525  0.3632
 3037TIP3    H230527   2.391   6.367  17.275  0.1346  0.8584  0.6241
 3038TIP3   OH230528   5.371   2.444  14.149  0.0796  0.0988 -0.1092
 3038TIP3    H130529   5.285   2.425  14.112 -0.2021 -0.1234  0.6521
 3038TIP3    H230530   5.420   2.482  14.076  0.2433 -2.3063 -1.3415
 3039TIP3   OH230531   0.692   6.751   4.976 -0.7491  0.8429 -0.0849
 3039TIP3    H130532   0.627   6.748   4.906 -3.4158  3.6244  2.0189
 3039TIP3    H230533   0.674   6.833   5.022  3.0749  0.8178  1.8505
 3040TIP3   OH230534   6.243   1.031  12.056  0.2002 -1.0748 -0.3542
 3040TIP3    H130535   6.230   1.032  11.961 -0.2274 -3.3412 -0.3632
 3040TIP3    H230536   6.166   0.986  12.091  0.0628  0.2248  1.1577
 3041TIP3   OH230537   1.073   3.907  14.930  0.0133 -0.0885 -0.8756
 3041TIP3    H130538   1.082   3.960  14.851  1.7315  0.9279 -0.0443
 3041TIP3    H230539   1.123   3.828  14.911  0.6303  0.2629 -0.7215
 3042TIP3   OH230540   2.607   6.705  10.593  0.6221 -0.1051  0.5082
 3042TIP3    H130541   2.680   6.762  10.566  1.2393 -0.9985  0.2547
 3042TIP3    H230542   2.647   6.643  10.654 -0.2084  0.1872  1.3712
 3043TIP3   OH230543   6.268   3.123  15.153 -0.4431 -0.1315  0.3922
 3043TIP3    H130544   6.257   3.178  15.075 -0.3039 -0.7616 -0.0841
 3043TIP3    H230545   6.214   3.046  15.135 -0.0778 -0.4720  0.7394
 3044TIP3   OH230546   5.353   3.865  13.797 -0.1475 -0.0749  0.1978
 3044TIP3    H130547   5.435   3.824  13.769 -0.6513 -0.0643 -1.4157
 3044TIP3    H230548   5.308   3.798  13.847  0.1835 -0.6041 -0.2067
 3045TIP3   OH230549   0.825   2.220   4.404 -0.2182  0.1704  0.4099
 3045TIP3    H130550   0.796   2.298   4.450  1.5109  0.4338  1.1357
 3045TIP3    H230551   0.788   2.147   4.454 -1.1046  0.4907  0.2443
 3046TIP3   OH230552   3.688   0.904  16.417  0.1438  0.3679  0.1368
 3046TIP3    H130553   3.674   0.821  16.371 -1.5032 -0.4405  1.9752
 3046TIP3    H230554   3.600   0.939  16.432  0.6998  1.3036  1.4130
 3047TIP3   OH230555   6.702   1.685  16.679 -0.0253  0.1974  0.4949
 3047TIP3    H130556   6.795   1.680  16.702  0.2536 -0.2720 -0.6188
 3047TIP3    H230557   6.695   1.631  16.600 -0.9268  1.5900 -0.4173
 3048TIP3   OH230558   2.295   2.877   1.580  0.5553  0.1141 -0.6115
 3048TIP3    H130559   2.342   2.893   1.661  1.0947 -3.8996  0.0657
 3048TIP3    H230560   2.350   2.914   1.512  1.9992  0.2417  0.5832
 3049TIP3   OH230561   1.295   1.246   4.829 -0.2760  0.2822 -0.4997
 3049TIP3    H130562   1.342   1.329   4.841  0.5495 -0.3401  0.7275
 3049TIP3    H230563   1.288   1.209   4.917  1.2232 -1.9477 -1.2392
 3050TIP3   OH230564   1.648   0.409  11.174  0.1944  0.0927 -0.8204
 3050TIP3    H130565   1.613   0.323  11.152 -1.2991  0.7701 -1.2175
 3050TIP3    H230566   1.588   0.443  11.241  0.0224  1.3211 -1.5689
 3051TIP3   OH230567   3.800   4.880  12.843  0.7721 -0.3034  0.4986
 3051TIP3    H130568   3.828   4.910  12.930  2.0590  1.3162 -0.4095
 3051TIP3    H230569   3.881   4.880  12.791  0.1864 -2.1065 -0.4967
 3052TIP3   OH230570   3.970   1.626   3.877 -0.0463 -0.3906  0.1003
 3052TIP3    H130571   3.914   1.690   3.920  0.5112 -0.2108  0.5805
 3052TIP3    H230572   4.006   1.573   3.949  1.0934  0.0778 -0.1010
 3053TIP3   OH230573   0.164   3.885  15.594 -0.7084  0.2061 -0.4984
 3053TIP3    H130574   0.234   3.940  15.630  0.7623  0.2870 -3.1755
 3053TIP3    H230575   0.103   3.946  15.554 -1.3061  0.0390  0.1357
 3054TIP3   OH230576   0.352   6.172  12.491  0.2888 -0.0599  0.1094
 3054TIP3    H130577   0.262   6.203  12.478 -0.1217 -1.6035 -1.0688
 3054TIP3    H230578   0.407   6.241  12.454 -0.4059  0.7631  0.5706
 3055TIP3   OH230579   5.194   4.220  16.378 -0.4763 -0.3881 -0.2351
 3055TIP3    H130580   5.249   4.141  16.381  0.8057  0.4848  2.3999
 3055TIP3    H230581   5.233   4.274  16.309  0.6559 -0.7230  0.1205
 3056TIP3   OH230582   4.451   1.638  13.155 -0.1097  0.1147  0.4181
 3056TIP3    H130583   4.473   1.727  13.130  0.3059  0.1651  0.9556
 3056TIP3    H230584   4.531   1.603  13.195 -0.2801 -0.4826  0.2457
 3057TIP3   OH230585   1.862   4.530  15.268 -0.2007 -0.5962 -0.2827
 3057TIP3    H130586   1.920   4.454  15.263  0.1333 -0.2943 -1.4749
 3057TIP3    H230587   1.773   4.493  15.264 -0.0347 -0.9138 -1.4375
 3058TIP3   OH230588   2.589   6.109  14.090 -0.4093  0.0024  0.2156
 3058TIP3    H130589   2.608   6.047  14.161 -0.8037  0.0621  0.3739
 3058TIP3    H230590   2.599   6.195  14.131 -0.3339  0.0392  0.1192
 3059TIP3   OH230591   1.465   2.181   1.757 -0.1447 -0.1913 -0.3408
 3059TIP3    H130592   1.529   2.156   1.691 -0.1186 -1.5230  0.1730
 3059TIP3    H230593   1.447   2.101   1.806 -0.0771  0.7733  1.3531
 3060TIP3   OH230594   2.946   4.432   4.373  0.3720  0.2696 -0.1248
 3060TIP3    H130595   2.984   4.378   4.443 -2.6778 -2.6617 -0.4919
 3060TIP3    H230596   2.878   4.483   4.416 -0.1620 -0.0173 -0.6209
 3061TIP3   OH230597   1.534   3.271   2.967 -0.0343  0.6713 -0.5504
 3061TIP3    H130598   1.453   3.269   2.917 -0.6950 -0.5151  0.5242
 3061TIP3    H230599   1.603   3.275   2.900 -0.9174  0.0384 -1.5313
 3062TIP3   OH230600   4.184   4.072   5.635  0.1099  0.3026  0.5056
 3062TIP3    H130601   4.234   4.115   5.703  1.7417 -1.2627  0.3715
 3062TIP3    H230602   4.197   3.979   5.650 -2.0962 -0.1645 -0.0716
 3063TIP3   OH230603   4.246   5.041   2.338 -0.1052 -0.3650  0.1237
 3063TIP3    H130604   4.276   5.130   2.320 -0.1796 -0.3591  0.0282
 3063TIP3    H230605   4.166   5.053   2.390 -0.0334 -0.3784  0.2389
 3064TIP3   OH230606   4.002   3.667  14.696  0.1391 -0.4388  0.4703
 3064TIP3    H130607   3.932   3.706  14.643 -0.5234 -1.2069  0.7557
 3064TIP3    H230608   4.073   3.731  14.693 -0.9283  0.8349  0.9616
 3065TIP3   OH230609   6.385   0.403  14.875  0.6006  0.1964 -0.5955
 3065TIP3    H130610   6.479   0.396  14.887  0.3750 -0.2015  1.2123
 3065TIP3    H230611   6.371   0.494  14.847  1.4694  0.4893 -0.1246
 3066TIP3   OH230612   4.205   1.268   4.173 -0.7361  0.4633 -0.1699
 3066TIP3    H130613   4.151   1.192   4.152 -0.5097  0.5377 -1.0581
 3066TIP3    H230614   4.194   1.280   4.267 -2.4508  0.6213 -0.3515
 3067TIP3   OH230615   4.890   6.240   2.778 -0.3069  0.1636  0.4087
 3067TIP3    H130616   4.945   6.164   2.798 -0.0728  0.0760 -0.5053
 3067TIP3    H230617   4.804   6.218   2.813  0.0614  0.0144  1.2551
 3068TIP3   OH230618   1.955   2.923   1.102  0.1111  0.1746  0.4244
 3068TIP3    H130619   2.037   2.920   1.152  0.8110  0.3209 -0.6809
 3068TIP3    H230620   1.951   3.012   1.069 -1.2425  0.6019  1.6386
 3069TIP3   OH230621   4.502   6.445  16.851  0.0946 -0.2166 -0.1201
 3069TIP3    H130622   4.411   6.464  16.831  0.6525  1.1758 -1.4677
 3069TIP3    H230623   4.541   6.530  16.870  1.9796 -0.2074 -3.3446
 3070TIP3   OH230624   4.925   5.733  15.704 -0.4701  0.2770  0.4904
 3070TIP3    H130625   4.851   5.773  15.750 -2.3000 -1.0934 -1.0779
 3070TIP3    H230626   4.951   5.660  15.759 -3.8117 -2.4774 -1.1371
 3071TIP3   OH230627   3.141   2.408   2.630 -0.4400 -0.1850  0.3658
 3071TIP3    H130628   3.195   2.330   2.638 -1.0162 -0.7618 -1.0771
 3071TIP3    H230629   3.161   2.443   2.544  0.2992  1.6697  1.2293
 3072TIP3   OH230630   5.806   6.407  12.185 -0.2590  0.7509 -0.7018
 3072TIP3    H130631   5.729   6.419  12.240  0.0355 -2.1654  0.5899
 3072TIP3    H230632   5.774   6.361  12.108  0.0533  0.0937 -0.4517
 3073TIP3   OH230633   1.601   5.884  16.334  0.2295  0.4425 -0.1687
 3073TIP3    H130634   1.664   5.935  16.282  0.3393 -1.1470 -1.6819
 3073TIP3    H230635   1.557   5.828  16.270 -1.5860  0.3523  1.1056
 3074TIP3   OH230636   4.130   5.840   5.038  0.7182 -0.8360  0.1182
 3074TIP3    H130637   4.225   5.852   5.033  0.7705 -0.1790  2.0010
 3074TIP3    H230638   4.119   5.745   5.045  1.3919 -0.8346  1.6998
 3075TIP3   OH230639   3.402   2.148  10.970 -0.1174 -0.3427 -0.2665
 3075TIP3    H130640   3.419   2.207  10.896 -0.4575 -0.9048 -0.8050
 3075TIP3    H230641   3.471   2.081  10.964  0.3498  0.0573  0.4229
 3076TIP3   OH230642   5.162   2.917  11.351  0.2761  0.2578  0.0672
 3076TIP3    H130643   5.159   3.007  11.318 -1.1293 -0.0798 -0.8160
 3076TIP3    H230644   5.180   2.927  11.445 -3.4508  1.7337  0.8106
 3077TIP3   OH230645   1.983   3.826  15.907  0.5980  0.4985  0.8123
 3077TIP3    H130646   2.066   3.871  15.901  0.8466  0.0736  1.0108
 3077TIP3    H230647   1.919   3.886  15.868  0.9266  1.0028  1.0584
 3078TIP3   OH230648   1.318   1.623  13.403 -0.2771 -0.7002 -0.0482
 3078TIP3    H130649   1.299   1.548  13.460  2.7235 -1.7346 -0.1871
 3078TIP3    H230650   1.386   1.590  13.343  1.9146  2.3284  0.5333
 3079TIP3   OH230651   3.171   3.116  16.472 -0.5074 -0.0800 -0.5027
 3079TIP3    H130652   3.140   3.199  16.508  0.6789  0.6865 -1.1690
 3079TIP3    H230653   3.152   3.051  16.540 -1.9208  0.6350 -0.1883
 3080TIP3   OH230654   1.484   1.291  16.287  0.5637  0.0136 -0.5872
 3080TIP3    H130655   1.434   1.210  16.279 -0.7369  0.8799 -1.5540
 3080TIP3    H230656   1.495   1.303  16.382  0.7902 -1.2689 -0.4279
 3081TIP3   OH230657   5.300   6.038  17.202  0.4352  0.3485 -0.4352
 3081TIP3    H130658   5.370   5.978  17.230  0.5680  0.4377 -0.5694
 3081TIP3    H230659   5.276   6.086  17.281  1.2288  1.0280 -0.5864
 3082TIP3   OH230660   0.105   5.483  11.669  0.3720  0.3568  0.2601
 3082TIP3    H130661   0.019   5.518  11.693 -0.3187 -1.8123  1.1848
 3082TIP3    H230662   0.148   5.465  11.752  0.7957 -0.7284 -0.1770
 3083TIP3   OH230663   1.002   5.670  11.559 -0.1874 -0.3705 -0.3645
 3083TIP3    H130664   1.037   5.722  11.487 -1.3564  1.6647  0.4398
 3083TIP3    H230665   0.974   5.736  11.623 -1.5809 -2.0391  0.8018
 3084TIP3   OH230666   1.699   6.330   1.719  0.6063 -0.1678  0.1272
 3084TIP3    H130667   1.678   6.317   1.811 -2.6785  1.3174 -0.2793
 3084TIP3    H230668   1.706   6.425   1.708  1.0143 -0.3199 -1.1554
 3085TIP3   OH230669   5.677   4.966  11.571 -0.6715  0.0445  0.1203
 3085TIP3    H130670   5.758   5.013  11.589 -0.7549  0.2067  0.0730
 3085TIP3    H230671   5.668   4.905  11.644  0.5471 -1.4101 -0.8652
 3086TIP3   OH230672   0.314   0.989   4.332  0.4123  0.0497  0.1142
 3086TIP3    H130673   0.260   0.914   4.310  1.4682 -0.1245 -2.1735
 3086TIP3    H230674   0.252   1.059   4.352 -0.6618 -0.4611 -1.2986
 3087TIP3   OH230675   4.147   0.809   0.964 -1.1278 -0.0018  0.0587
 3087TIP3    H130676   4.110   0.895   0.945  0.1106  0.4469 -0.4293
 3087TIP3    H230677   4.110   0.751   0.898 -0.4171  0.5902 -0.8819
 3088TIP3   OH230678   0.132   1.208   0.533 -0.2708  0.4710 -0.0048
 3088TIP3    H130679   0.097   1.212   0.444  0.4731  0.5985 -0.2987
 3088TIP3    H230680   0.199   1.139   0.529  0.5528  1.2483  0.1705
 3089TIP3   OH230681   1.890   0.225  14.982 -0.0998 -0.6018 -0.0816
 3089TIP3    H130682   1.972   0.270  14.960  0.3545 -0.5945  1.4819
 3089TIP3    H230683   1.853   0.200  14.898  3.1029 -3.4755 -0.8412
 3090TIP3   OH230684   6.395   4.288   5.969  0.4218  0.6067  0.3724
 3090TIP3    H130685   6.471   4.285   5.912  0.8325 -1.1114  0.9423
 3090TIP3    H230686   6.341   4.213   5.942 -0.9064  1.5865  0.2072
 3091TIP3   OH230687   1.460   2.658  17.331 -0.1868  0.4722 -0.6554
 3091TIP3    H130688   1.443   2.751  17.318  0.7271  0.7742  0.1774
 3091TIP3    H230689   1.386   2.628  17.385 -1.7293  0.1551 -2.8332
 3092TIP3   OH230690   4.363   1.117  11.295 -0.1075  0.0314  0.7889
 3092TIP3    H130691   4.382   1.181  11.364  0.1964  1.6861 -0.7423
 3092TIP3    H230692   4.397   1.158  11.216 -0.2900 -1.8872 -0.3298
 3093TIP3   OH230693   3.105   5.510  12.213  0.3065 -0.2462 -0.2706
 3093TIP3    H130694   3.110   5.599  12.179 -0.0947  0.0521  0.4244
 3093TIP3    H230695   3.039   5.467  12.159 -0.3547  0.2316  0.1358
 3094TIP3   OH230696   2.271   2.665  15.953  0.0220  0.3055  0.0643
 3094TIP3    H130697   2.300   2.736  16.009  1.2560 -0.4066  0.3687
 3094TIP3    H230698   2.220   2.608  16.010  1.5508 -0.5905  0.5950
 3095TIP3   OH230699   0.060   6.715  13.523  0.2843  0.1006  0.4712
 3095TIP3    H130700   0.145   6.751  13.499  0.6718  0.7634  2.6748
 3095TIP3    H230701   0.060   6.714  13.619 -2.2625  0.3289  0.5389
 3096TIP3   OH230702   5.614   0.075  17.013  0.2888 -1.0428  0.1536
 3096TIP3    H130703   5.572   0.084  16.927 -0.0210 -0.5142  0.3495
 3096TIP3    H230704   5.706   0.059  16.994  0.2528 -0.7421 -0.2749
 3097TIP3   OH230705   4.786   1.503  11.841  0.6453 -0.1817 -0.1695
 3097TIP3    H130706   4.814   1.445  11.912 -0.0829  0.3132  0.5404
 3097TIP3    H230707   4.862   1.558  11.824  1.6809 -1.8908 -1.4856
 3098TIP3   OH230708   5.072   1.821   1.096 -0.5140  0.4439 -0.5693
 3098TIP3    H130709   4.981   1.836   1.071 -0.8245 -1.4649 -0.7638
 3098TIP3    H230710   5.090   1.731   1.067  0.4965 -0.2975  2.0894
 3099TIP3   OH230711   3.361   1.339   4.179  0.0390  0.0153 -0.7024
 3099TIP3    H130712   3.335   1.308   4.265 -1.4570  1.9928 -0.3518
 3099TIP3    H230713   3.295   1.305   4.120 -1.3047  1.8971 -0.3925
 3100TIP3   OH230714   0.638   2.237  16.642  0.0603  0.2737  0.1526
 3100TIP3    H130715   0.565   2.245  16.580  0.3002  1.7880  0.0355
 3100TIP3    H230716   0.713   2.211  16.588 -0.1727 -0.4210  0.1440
 3101TIP3   OH230717   2.852   3.483  14.481 -0.3081 -0.6798  0.3518
 3101TIP3    H130718   2.944   3.505  14.497 -0.2675 -1.3578  1.0753
 3101TIP3    H230719   2.850   3.388  14.477 -1.2293 -0.7867  2.0825
 3102TIP3   OH230720   0.633   0.064   3.303 -0.5011 -0.2641  0.3828
 3102TIP3    H130721   0.713   0.017   3.279  0.3392  1.8896 -1.4498
 3102TIP3    H230722   0.562   0.016   3.259 -0.0082 -1.2594  0.6704
 3103TIP3   OH230723   3.184   0.465  11.998  0.2305  0.3519 -0.0237
 3103TIP3    H130724   3.268   0.473  11.952 -0.3845 -0.0289 -1.2364
 3103TIP3    H230725   3.118   0.464  11.929 -0.8099  0.9038  0.9291
 3104TIP3   OH230726   3.548   5.624   2.074 -0.0162 -0.1543  0.7087
 3104TIP3    H130727   3.478   5.570   2.036  1.3843 -1.3057 -0.3539
 3104TIP3    H230728   3.525   5.631   2.166 -1.7454 -0.1564  0.3060
 3105TIP3   OH230729   0.064   3.211  15.811  0.1735  0.3661 -0.2176
 3105TIP3    H130730   0.159   3.199  15.810  0.2090  0.5447 -1.9584
 3105TIP3    H230731   0.048   3.266  15.888  1.5090  0.5411 -0.0373
 3106TIP3   OH230732   0.463   1.417   2.016  0.3949 -0.3205 -0.1419
 3106TIP3    H130733   0.514   1.401   1.937 -1.5332  1.1116 -1.7980
 3106TIP3    H230734   0.521   1.464   2.075  1.9032 -1.5019 -0.6374
 3107TIP3   OH230735   1.040   2.850  15.241 -0.5294  0.4797 -0.4610
 3107TIP3    H130736   1.080   2.799  15.311  1.6861  3.0863  0.3427
 3107TIP3    H230737   1.066   2.806  15.160  1.6652  0.5124  0.1786
 3108TIP3   OH230738   6.266   3.382   2.550 -0.0883 -0.2266 -0.5268
 3108TIP3    H130739   6.174   3.404   2.540 -0.1903 -0.1986  0.3784
 3108TIP3    H230740   6.307   3.462   2.583  0.4081 -0.0107 -1.6203
 3109TIP3   OH230741   0.619   5.385  11.681 -0.3187  0.4811 -0.1622
 3109TIP3    H130742   0.575   5.371  11.596 -1.5015  0.7506  0.3805
 3109TIP3    H230743   0.561   5.445  11.728 -1.2507 -1.9366  1.9815
 3110TIP3   OH230744   6.711   1.300  16.276  0.2326  0.5977 -0.0149
 3110TIP3    H130745   6.762   1.273  16.200  0.5699  1.0891  0.0325
 3110TIP3    H230746   6.645   1.231  16.287  2.0111 -1.0413  1.0516
 3111TIP3   OH230747   1.781   1.356   3.751  0.7565 -0.0116  0.3087
 3111TIP3    H130748   1.691   1.330   3.771  0.7344 -0.2915 -0.1307
 3111TIP3    H230749   1.834   1.315   3.820  0.4836  0.7329  0.9781
 3112TIP3   OH230750   1.384   3.747   2.223  0.3640 -0.0352  0.1318
 3112TIP3    H130751   1.439   3.670   2.210 -0.4258 -0.7790  1.0055
 3112TIP3    H230752   1.326   3.747   2.147 -0.4365 -1.0426  0.6993
 3113TIP3   OH230753   1.114   1.313   0.147  0.1275 -0.0053  0.0248
 3113TIP3    H130754   1.185   1.359   0.192  1.4465 -2.8622  1.0427
 3113TIP3    H230755   1.158   1.247   0.094 -1.7387 -1.3605  0.0810
 3114TIP3   OH230756   5.740   6.444  14.260  0.2447 -0.3747 -0.0349
 3114TIP3    H130757   5.811   6.488  14.307  1.8567 -1.3097 -1.4577
 3114TIP3    H230758   5.705   6.511  14.201 -0.2725  0.1618  0.8475
 3115TIP3   OH230759   0.193   4.439  15.928 -0.2326 -0.2258  0.0340
 3115TIP3    H130760   0.168   4.384  15.853 -0.9503  0.6602 -0.3859
 3115TIP3    H230761   0.111   4.451  15.977  0.0705 -0.1204  0.5171
 3116TIP3   OH230762   4.736   1.540  11.574  0.0658  0.2129  0.7055
 3116TIP3    H130763   4.644   1.516  11.561 -0.0509  1.7209 -1.9090
 3116TIP3    H230764   4.749   1.532  11.669 -2.4468 -1.0092  1.0452
 3117TIP3   OH230765   6.257   1.672  17.085 -0.2761  0.0915  0.1834
 3117TIP3    H130766   6.183   1.688  17.027  0.5477  2.6741 -0.2549
 3117TIP3    H230767   6.310   1.606  17.039 -0.0499  1.4919 -1.6644
 3118TIP3   OH230768   3.549   6.320  12.205 -0.4090 -0.0600  0.9115
 3118TIP3    H130769   3.627   6.343  12.256 -0.3183 -1.0121  1.2212
 3118TIP3    H230770   3.475   6.338  12.262 -0.4165  0.7998  0.6351
 3119TIP3   OH230771   2.764   5.920   3.548 -0.4148  0.1325  0.3725
 3119TIP3    H130772   2.803   5.991   3.599 -2.9987  2.6384 -0.8460
 3119TIP3    H230773   2.809   5.923   3.464  0.3912 -0.6423  0.7554
 3120TIP3   OH230774   5.284   4.300  14.126 -0.1214  0.1251  0.1246
 3120TIP3    H130775   5.265   4.208  14.109 -1.6568  0.4966 -0.3339
 3120TIP3    H230776   5.209   4.347  14.090 -0.2918  1.4356  2.0332
 3121TIP3   OH230777   4.734   6.026  12.843  0.6894  0.5237  0.1871
 3121TIP3    H130778   4.808   5.998  12.896  0.1629  0.2379  0.7842
 3121TIP3    H230779   4.731   5.963  12.771  1.1443  0.6596  0.0448
 3122TIP3   OH230780   3.263   3.824   5.534  0.0952  0.0129 -0.0827
 3122TIP3    H130781   3.185   3.876   5.517  1.0084  2.1209  1.7387
 3122TIP3    H230782   3.316   3.834   5.454 -1.2997 -1.2155 -1.2212
 3123TIP3   OH230783   3.562   1.210   2.638  0.0277 -0.0402  0.4958
 3123TIP3    H130784   3.638   1.267   2.628  0.1984 -0.3619 -0.0702
 3123TIP3    H230785   3.599   1.123   2.654 -0.2220 -0.1776  0.3297
 3124TIP3   OH230786   3.270   2.138   2.655 -0.1097  0.0483 -0.3776
 3124TIP3    H130787   3.356   2.166   2.685 -0.8791  2.1129  0.0593
 3124TIP3    H230788   3.242   2.074   2.721 -0.4179  2.1303  1.6306
 3125TIP3   OH230789   1.597   5.373  17.080  0.1978 -0.1206 -0.4659
 3125TIP3    H130790   1.529   5.427  17.120  0.8169  0.4115 -0.1175
 3125TIP3    H230791   1.584   5.384  16.986 -0.6720 -0.6337 -0.4185
 3126TIP3   OH230792   6.018   6.358   4.718  0.2653  0.3153  0.0836
 3126TIP3    H130793   6.047   6.406   4.796  1.5369 -1.8163  0.9995
 3126TIP3    H230794   6.058   6.405   4.645  2.0810  0.2737  0.9951
 3127TIP3   OH230795   1.395   4.289   3.037  0.0612  0.0808  0.7737
 3127TIP3    H130796   1.413   4.267   3.129 -1.5641  1.0239  1.3652
 3127TIP3    H230797   1.301   4.301   3.034  0.4101  3.6972 -0.1486
 3128TIP3   OH230798   1.022   2.456   4.502 -0.2575 -0.5332  0.4456
 3128TIP3    H130799   0.930   2.468   4.527 -0.1708 -0.4274  0.7153
 3128TIP3    H230800   1.019   2.396   4.427 -0.4966 -1.2270  1.0019
 3129TIP3   OH230801   6.407   5.767  15.857 -0.5561 -0.1350 -0.2687
 3129TIP3    H130802   6.457   5.718  15.921 -2.1866 -0.8720  0.5038
 3129TIP3    H230803   6.333   5.710  15.836 -0.7248  0.6097 -1.8959
 3130TIP3   OH230804   5.584   1.063   3.874  0.4287  0.2051 -0.1387
 3130TIP3    H130805   5.526   1.000   3.918 -0.5432 -0.2731 -2.0018
 3130TIP3    H230806   5.653   1.009   3.835  0.5873  0.4843 -0.2471
 3131TIP3   OH230807   4.069   1.303   4.895  0.5944  0.4962 -0.2758
 3131TIP3    H130808   4.036   1.238   4.956  0.1070  2.0444  1.1721
 3131TIP3    H230809   4.164   1.296   4.901  0.5546 -0.1998 -0.3159
 3132TIP3   OH230810   3.020   3.957   4.565  0.1808 -0.3690  0.1265
 3132TIP3    H130811   2.954   4.021   4.536 -0.8996 -1.3082  0.4317
 3132TIP3    H230812   3.010   3.954   4.660  2.1664  1.0460  0.4301
 3133TIP3   OH230813   1.928   1.244  15.441 -0.0356 -0.3733  0.0597
 3133TIP3    H130814   1.843   1.287  15.454 -0.5288 -2.0354  3.2493
 3133TIP3    H230815   1.949   1.261  15.349 -2.7858  1.8713 -0.3057
 3134TIP3   OH230816   1.733   6.765  13.281  0.4598 -0.5874  0.2203
 3134TIP3    H130817   1.711   6.853  13.249  0.3418 -0.2991  1.0685
 3134TIP3    H230818   1.829   6.762  13.277  0.5976  0.2683  1.8761
 3135TIP3   OH230819   2.689   1.794  13.088 -0.0477 -0.0494 -0.0644
 3135TIP3    H130820   2.702   1.704  13.118 -1.6553 -1.0496 -2.1955
 3135TIP3    H230821   2.752   1.845  13.140  1.7496 -2.5245  0.3554
 3136TIP3   OH230822   5.498   5.450  16.985  0.1328 -0.0963 -0.0424
 3136TIP3    H130823   5.549   5.461  17.065 -0.2157  0.8107  0.0732
 3136TIP3    H230824   5.528   5.367  16.948 -0.3631 -0.9995  1.5103
 3137TIP3   OH230825   6.316   4.570  13.004 -0.1188  0.1315  0.2074
 3137TIP3    H130826   6.245   4.597  13.063  0.3644  1.8167  0.0672
 3137TIP3    H230827   6.394   4.570  13.058  0.0472 -0.1049 -0.0296
 3138TIP3   OH230828   3.230   4.225  16.728 -0.4122  0.6975  0.1904
 3138TIP3    H130829   3.291   4.191  16.793 -0.3587 -0.3247 -0.3629
 3138TIP3    H230830   3.283   4.283  16.673 -0.1780  0.6164  0.3300
 3139TIP3   OH230831   3.754   4.128   6.857  0.4471  0.1677 -0.0463
 3139TIP3    H130832   3.706   4.131   6.774  1.5505  1.0796 -0.6816
 3139TIP3    H230833   3.835   4.083   6.836 -0.2764 -1.8332  1.1380
 3140TIP3   OH230834   2.734   4.598   1.966 -0.0032  0.2797 -0.0347
 3140TIP3    H130835   2.688   4.538   2.025  1.0468 -0.2327  0.2917
 3140TIP3    H230836   2.719   4.561   1.878  0.3539 -0.2697  0.1325
 3141TIP3   OH230837   4.219   3.710  17.120 -0.1294 -0.6326  0.2846
 3141TIP3    H130838   4.294   3.651  17.113 -0.5322 -1.0005 -1.0972
 3141TIP3    H230839   4.156   3.677  17.057 -0.8466  0.5830  0.3371
 3142TIP3   OH230840   0.691   4.031  15.153  0.6041 -0.9977  0.2554
 3142TIP3    H130841   0.763   4.006  15.211  0.3431 -0.6124  0.7551
 3142TIP3    H230842   0.612   4.004  15.201  0.1845  2.2349  1.6406
 3143TIP3   OH230843   0.618   1.519   1.358  0.1617 -0.1453  0.3169
 3143TIP3    H130844   0.557   1.445   1.360 -1.6345  1.2542 -0.4213
 3143TIP3    H230845   0.698   1.484   1.397 -0.8173 -2.2985  0.5591
 3144TIP3   OH230846   5.676   0.958  11.418  0.2357 -0.2984 -0.3138
 3144TIP3    H130847   5.647   1.048  11.402 -0.5327 -0.3543  0.6447
 3144TIP3    H230848   5.722   0.962  11.502  0.1830 -0.7971 -0.2577
 3145TIP3   OH230849   0.555   1.519   3.487  0.3175 -0.4183  1.0129
 3145TIP3    H130850   0.536   1.483   3.401 -1.5752  0.4230  1.0419
 3145TIP3    H230851   0.495   1.593   3.497  0.5563 -0.4351  3.0107
 3146TIP3   OH230852   2.658   1.784   6.602  0.3624 -0.4027  0.3999
 3146TIP3    H130853   2.573   1.797   6.645  0.0935  0.8020 -0.4466
 3146TIP3    H230854   2.719   1.837   6.653  0.5683 -1.0536  0.8448
 3147TIP3   OH230855   5.082   4.880  17.220 -0.7503 -0.2524 -0.4047
 3147TIP3    H130856   5.074   4.906  17.129  0.6468 -0.6620 -0.6693
 3147TIP3    H230857   5.017   4.933  17.266  0.5154  2.1499 -1.2254
 3148TIP3   OH230858   6.017   0.299   3.851 -0.5968 -0.1729  0.6031
 3148TIP3    H130859   5.993   0.245   3.927  1.3425 -0.4193  1.1145
 3148TIP3    H230860   6.093   0.254   3.813  0.7135  1.8406  0.6877
 3149TIP3   OH230861   5.924   6.199   2.412  0.1350  0.0963  0.2532
 3149TIP3    H130862   5.859   6.130   2.421  0.6963 -0.7323 -1.5777
 3149TIP3    H230863   5.887   6.274   2.458 -0.9866 -1.0769  1.3355
 3150TIP3   OH230864   1.274   5.705  16.331  0.2357  0.7031 -0.1286
 3150TIP3    H130865   1.211   5.637  16.354  1.2954 -0.2983 -0.0733
 3150TIP3    H230866   1.330   5.713  16.408  0.3366  1.3978 -0.2690
 3151TIP3   OH230867   0.258   4.795   5.245  0.3553 -0.1150  0.5922
 3151TIP3    H130868   0.242   4.708   5.282  0.9410 -0.2930  0.4398
 3151TIP3    H230869   0.351   4.811   5.260  0.0586  0.9005  1.4870
 3152TIP3   OH230870   2.780   4.233   4.100 -0.1448 -0.7331 -0.1514
 3152TIP3    H130871   2.721   4.306   4.082  0.1413 -0.2743  0.6691
 3152TIP3    H230872   2.843   4.235   4.028  0.6412  0.6850  0.5113
 3153TIP3   OH230873   2.112   0.034  15.603  0.3972 -0.5937  0.3238
 3153TIP3    H130874   2.089  -0.013  15.683 -0.1600 -1.6526 -0.4376
 3153TIP3    H230875   2.029   0.070  15.573  0.9222  1.6213  1.3110
 3154TIP3   OH230876   3.768   3.711   2.336 -0.0138 -0.5542  0.1680
 3154TIP3    H130877   3.762   3.637   2.397  1.1360 -1.9059 -1.2526
 3154TIP3    H230878   3.836   3.768   2.373 -0.1687 -0.7468  0.7549
 3155TIP3   OH230879   2.929   6.430   2.306  0.1463  0.0597  0.0553
 3155TIP3    H130880   2.917   6.392   2.394  0.3012  0.9278  0.4569
 3155TIP3    H230881   2.916   6.524   2.318 -2.5526 -0.0278 -1.3467
 3156TIP3   OH230882   2.195   6.689  12.182  0.0753 -0.4506  0.1944
 3156TIP3    H130883   2.138   6.729  12.116 -0.0401  1.7757  1.5504
 3156TIP3    H230884   2.141   6.681  12.260  0.7655 -1.2245  0.6229
 3157TIP3   OH230885   4.727   0.137  11.154 -0.7433 -0.8784 -0.2476
 3157TIP3    H130886   4.642   0.157  11.113 -0.0307  1.5577 -0.7090
 3157TIP3    H230887   4.791   0.146  11.084  0.1230 -0.4699  0.5640
 3158TIP3   OH230888   2.012   3.835   5.646  0.1260 -0.1011 -0.3198
 3158TIP3    H130889   1.944   3.879   5.595  0.8084  0.8992 -0.3910
 3158TIP3    H230890   2.088   3.835   5.589  0.8448  0.8519  0.6023
 3159TIP3   OH230891   5.762   1.630   5.415 -0.1821  0.2939  0.3650
 3159TIP3    H130892   5.740   1.605   5.325 -0.8085 -0.0450  0.6023
 3159TIP3    H230893   5.852   1.599   5.428 -0.8507 -1.7336  0.5851
 3160TIP3   OH230894   2.442   0.027   3.469  0.0498 -0.3483 -0.5378
 3160TIP3    H130895   2.406   0.054   3.553  1.2761 -0.8021  0.1626
 3160TIP3    H230896   2.391   0.076   3.404 -0.9230  0.0030  0.4560
 3161TIP3   OH230897   1.193   2.638  11.778 -0.0652 -0.0927  0.3483
 3161TIP3    H130898   1.189   2.720  11.728 -0.5341  0.5504  1.3995
 3161TIP3    H230899   1.105   2.626  11.812  0.1705 -0.6780  0.7622
 3162TIP3   OH230900   0.776   1.536  11.782 -0.4380 -0.5001  0.1841
 3162TIP3    H130901   0.692   1.583  11.784  1.4061  3.1308  1.6439
 3162TIP3    H230902   0.823   1.573  11.708  0.7502 -0.7404  0.7869
 3163TIP3   OH230903   5.429   5.567  16.288 -1.1061 -0.2643  0.2354
 3163TIP3    H130904   5.467   5.587  16.203 -1.5587 -1.3289 -0.2415
 3163TIP3    H230905   5.446   5.644  16.342 -0.1148  0.0957 -0.5809
 3164TIP3   OH230906   1.374   5.182   4.747  0.1886  0.0306  0.5113
 3164TIP3    H130907   1.367   5.277   4.748 -0.5938  0.0623 -1.9503
 3164TIP3    H230908   1.321   5.154   4.672  3.4114 -2.0385 -1.2605
 3165TIP3   OH230909   3.733   1.071  12.622  0.0123  0.7160  0.3658
 3165TIP3    H130910   3.735   0.975  12.627 -0.5977  0.7528  2.0000
 3165TIP3    H230911   3.820   1.098  12.652 -0.1893  0.6782  1.0113
 3166TIP3   OH230912   3.272   1.509   1.483 -0.0870  0.4158 -0.0162
 3166TIP3    H130913   3.321   1.429   1.497 -1.7608 -0.8245 -0.8089
 3166TIP3    H230914   3.228   1.525   1.566  0.8508  0.9593  0.3812
 3167TIP3   OH230915   1.510   2.863  16.000  0.2531 -0.2390  0.2176
 3167TIP3    H130916   1.481   2.954  16.002 -1.4345 -0.7508  0.3838
 3167TIP3    H230917   1.527   2.841  16.092  0.9728  0.0005  0.1408
 3168TIP3   OH230918   4.353   1.349  16.062  0.3206 -0.5132 -0.0766
 3168TIP3    H130919   4.334   1.347  15.968 -0.8229  1.4661  0.0482
 3168TIP3    H230920   4.369   1.442  16.081 -0.9726 -0.6467  1.9221
 3169TIP3   OH230921   5.788   0.218  15.622  0.0308 -0.8284  0.4179
 3169TIP3    H130922   5.736   0.298  15.632  1.9626  1.0196 -2.5639
 3169TIP3    H230923   5.814   0.195  15.711 -2.8502  0.1885  1.6474
 3170TIP3   OH230924   0.242   3.258  14.174  0.6631 -0.1532 -0.0662
 3170TIP3    H130925   0.278   3.240  14.087 -1.0763 -0.5897 -0.7365
 3170TIP3    H230926   0.215   3.172  14.207  0.9459  0.0602  0.7519
 3171TIP3   OH230927   0.004   5.007  15.619  0.1919 -0.4033  0.6033
 3171TIP3    H130928  -0.027   4.917  15.624 -0.2790 -0.1836  2.8952
 3171TIP3    H230929  -0.005   5.032  15.527 -1.7405 -1.9694  0.3187
 3172TIP3   OH230930   6.679   4.894   3.416 -0.3068  0.4985  0.4409
 3172TIP3    H130931   6.639   4.966   3.465 -0.2937  0.0841  1.0707
 3172TIP3    H230932   6.614   4.873   3.349  0.7683  2.7900 -1.4476
 3173TIP3   OH230933   5.889   4.407   4.094 -0.4641  0.2594  0.1903
 3173TIP3    H130934   5.924   4.496   4.092 -0.3181  0.3197  2.6055
 3173TIP3    H230935   5.929   4.363   4.019  0.9759  1.6961  0.0755
 3174TIP3   OH230936   6.698   4.085   1.865  0.2677  0.5188 -0.0059
 3174TIP3    H130937   6.737   4.002   1.837 -0.1388  0.8496 -1.6330
 3174TIP3    H230938   6.768   4.129   1.913  0.5200 -0.7024  0.8007
 3175TIP3   OH230939   2.050   3.302  11.835 -0.1429 -0.2215  0.0041
 3175TIP3    H130940   2.081   3.391  11.819  2.0948 -0.7271  1.0452
 3175TIP3    H230941   2.090   3.278  11.919 -0.6949 -2.1902 -0.2471
 3176TIP3   OH230942   2.170   0.582  14.459 -0.1755  0.2685 -0.0143
 3176TIP3    H130943   2.208   0.495  14.453 -1.0974 -0.1662  0.2838
 3176TIP3    H230944   2.163   0.599  14.554 -1.1364  0.1404 -0.0488
 3177TIP3   OH230945   2.276   5.195   3.732  0.4383  0.0010 -0.2401
 3177TIP3    H130946   2.290   5.285   3.700  0.3253  0.0947 -0.0277
 3177TIP3    H230947   2.232   5.151   3.660  0.9932 -0.0380 -0.5626
 3178TIP3   OH230948   0.503   5.224   1.752 -0.3896  0.1125  0.0265
 3178TIP3    H130949   0.423   5.273   1.769 -0.9417 -0.6519 -0.3279
 3178TIP3    H230950   0.474   5.146   1.706  0.1744 -1.7774  2.6792
 3179TIP3   OH230951   0.982   1.477  10.616 -0.8722 -0.4448  0.1009
 3179TIP3    H130952   0.951   1.560  10.581 -0.9953  0.0418  1.3394
 3179TIP3    H230953   0.903   1.423  10.622 -1.0103 -0.1928  0.5527
 3180TIP3   OH230954   4.213   3.737  16.087  0.3565 -0.1692  0.4070
 3180TIP3    H130955   4.200   3.711  16.178  0.2143  1.9209  1.0383
 3180TIP3    H230956   4.132   3.781  16.063  0.4727 -0.5266 -0.6781
 3181TIP3   OH230957   0.712   3.671   3.028  0.3499  0.4633  0.0204
 3181TIP3    H130958   0.800   3.638   3.041  0.2371  0.1820  0.0902
 3181TIP3    H230959   0.661   3.632   3.099  0.2374  0.8881  0.1761
 3182TIP3   OH230960   3.310   0.153  11.969 -0.0698 -0.0057 -0.1911
 3182TIP3    H130961   3.383   0.194  12.015  1.4901 -2.6032 -0.1746
 3182TIP3    H230962   3.241   0.146  12.035  1.6534 -2.4442  1.5394
 3183TIP3   OH230963   3.035   1.162   2.170  0.0864 -0.3362 -0.1658
 3183TIP3    H130964   3.020   1.139   2.079 -0.0958  0.2951 -0.2980
 3183TIP3    H230965   3.118   1.210   2.169  0.1067 -0.3678  0.0048
 3184TIP3   OH230966   5.104   1.286   1.459  0.3639  0.3864 -0.5751
 3184TIP3    H130967   5.043   1.218   1.432  0.4831 -0.3662  0.9642
 3184TIP3    H230968   5.140   1.255   1.542  0.0013  2.5578  0.4775
 3185TIP3   OH230969   1.195   5.630  12.163  0.1109  0.6552 -0.6800
 3185TIP3    H130970   1.142   5.688  12.217  0.3331 -0.7344  1.1216
 3185TIP3    H230971   1.168   5.542  12.188  1.8602 -0.0687 -1.1746
 3186TIP3   OH230972   4.416   3.431  15.706 -0.6238  0.3566 -0.0282
 3186TIP3    H130973   4.338   3.377  15.692 -0.2679 -0.4928  1.1624
 3186TIP3    H230974   4.391   3.518  15.673 -2.4016  0.3438  1.1312
 3187TIP3   OH230975   2.819   4.424   2.264  0.1294  0.5285  0.1571
 3187TIP3    H130976   2.795   4.495   2.323  1.0317 -0.4839  1.7969
 3187TIP3    H230977   2.766   4.350   2.293 -0.0289  0.2184 -0.8697
 3188TIP3   OH230978   1.745   5.870  15.660 -0.4084  0.1184 -0.7868
 3188TIP3    H130979   1.770   5.785  15.696  0.1922  1.2782  1.7567
 3188TIP3    H230980   1.695   5.849  15.581 -0.6931 -2.5898  0.0198
 3189TIP3   OH230981   3.951   2.865   1.076  1.0385  0.0913 -0.0185
 3189TIP3    H130982   3.867   2.898   1.108  0.7973  0.2466 -0.7969
 3189TIP3    H230983   3.965   2.784   1.126  0.7095  0.3661  0.5299
 3190TIP3   OH230984   0.902   6.733   0.660  0.0082 -0.0282  0.1929
 3190TIP3    H130985   0.980   6.683   0.683  0.5464  0.9668  0.5829
 3190TIP3    H230986   0.838   6.667   0.633  1.0289 -0.8465 -0.2825
 3191TIP3   OH230987   3.667   3.348  16.446 -0.1830  0.2881  0.0324
 3191TIP3    H130988   3.717   3.390  16.516 -0.7149 -0.9181  1.1857
 3191TIP3    H230989   3.584   3.322  16.488 -1.0842  0.7518 -1.4031
 3192TIP3   OH230990   2.802   4.489   0.745 -0.2364 -0.0364 -0.3338
 3192TIP3    H130991   2.773   4.419   0.803  0.3236  0.8133  1.0376
 3192TIP3    H230992   2.896   4.473   0.732 -0.0409  0.6054  0.2282
 3193TIP3   OH230993   5.235   2.114   2.522 -0.1279 -0.3672 -0.1593
 3193TIP3    H130994   5.296   2.054   2.479  1.5367 -0.0170  1.5869
 3193TIP3    H230995   5.288   2.190   2.545 -0.9962 -0.3767  2.1381
 3194TIP3   OH230996   2.218   4.601   1.914  0.7420 -1.0173  0.3502
 3194TIP3    H130997   2.273   4.658   1.968 -0.8189 -0.2945  1.2244
 3194TIP3    H230998   2.177   4.541   1.976  0.7863 -1.7695 -0.3336
 3195TIP3   OH230999   4.144   2.493  14.303  0.5024 -0.3133  0.4564
 3195TIP3    H131000   4.106   2.575  14.334  4.0739  0.6938  2.7398
 3195TIP3    H231001   4.213   2.520  14.242 -0.5464 -1.9170 -1.5936
 3196TIP3   OH231002   3.552   1.306  16.680  0.7020  0.5349  0.0290
 3196TIP3    H131003   3.585   1.358  16.754 -0.5511 -0.6696  1.5050
 3196TIP3    H231004   3.626   1.301  16.620  2.2094  0.4850  1.7975
 3197TIP3   OH231005   1.850   3.080   0.606  0.1593  0.1837  0.1271
 3197TIP3    H131006   1.906   3.086   0.529  1.4859  0.5657  1.0806
 3197TIP3    H231007   1.843   3.170   0.638 -0.0375 -0.0207  0.6679
 3198TIP3   OH231008   0.891   3.961  15.333  0.5355 -0.0010 -0.1816
 3198TIP3    H131009   0.957   3.892  15.321  1.7848  0.9214  1.1021
 3198TIP3    H231010   0.830   3.926  15.397  1.6719  0.3694  1.1595
 3199TIP3   OH231011   4.833   5.459   6.168  0.0609  0.7705 -0.1737
 3199TIP3    H131012   4.745   5.492   6.151  0.1728  1.1217 -0.0906
 3199TIP3    H231013   4.819   5.378   6.216 -0.2317  0.3481 -0.9641
 3200TIP3   OH231014   6.127   4.653   2.954  0.4077 -0.1721 -0.1998
 3200TIP3    H131015   6.204   4.602   2.983 -0.7981 -2.4358 -0.7415
 3200TIP3    H231016   6.086   4.598   2.888 -1.8697  0.8365  0.2975
 3201TIP3   OH231017   5.318   6.755  15.467  0.7689  0.2777 -0.0953
 3201TIP3    H131018   5.398   6.713  15.497  1.3985  2.6289  1.8349
 3201TIP3    H231019   5.345   6.843  15.441 -1.0542  0.8366 -0.2503
 3202TIP3   OH231020   6.084   6.311  11.431 -0.0811  0.0821  0.0980
 3202TIP3    H131021   6.062   6.402  11.409  2.1510  0.7044  0.1756
 3202TIP3    H231022   6.101   6.269  11.346 -1.3352 -0.3532  0.0471
 3203TIP3   OH231023   4.320   3.027  17.149  0.0133 -0.3504 -0.3387
 3203TIP3    H131024   4.395   3.067  17.192  1.6652 -2.6283 -0.8736
 3203TIP3    H231025   4.294   3.089  17.081  2.2490 -0.0063 -0.9465
 3204TIP3   OH231026   2.445   3.558   4.868 -0.2464  0.1502 -0.4925
 3204TIP3    H131027   2.380   3.494   4.838 -1.1267  0.8838 -0.2004
 3204TIP3    H231028   2.405   3.598   4.945  0.9414  0.0062  0.2129
 3205TIP3   OH231029   3.153   0.381  16.188 -0.4928 -0.2522  0.1749
 3205TIP3    H131030   3.198   0.444  16.243 -1.5333 -0.0141  0.7728
 3205TIP3    H231031   3.161   0.298  16.235 -0.9763 -0.1397  0.4626
 3206TIP3   OH231032   1.194   6.721   2.887  0.7888 -0.3137  0.8045
 3206TIP3    H131033   1.146   6.755   2.962  0.4324  0.5022  0.2259
 3206TIP3    H231034   1.254   6.656   2.924 -0.5900 -1.2151  1.5803
 3207TIP3   OH231035   5.602   2.753   2.375  0.3427 -0.0894  0.4350
 3207TIP3    H131036   5.642   2.706   2.302  0.5349  0.4496  0.1873
 3207TIP3    H231037   5.523   2.793   2.339  0.4129  0.1407  0.5268
 3208TIP3   OH231038   1.377   6.125   1.306  0.6035 -0.0659 -0.0675
 3208TIP3    H131039   1.365   6.044   1.257 -1.5600  0.0772  0.1328
 3208TIP3    H231040   1.380   6.097   1.398 -0.1022  0.0498 -0.0008
 3209TIP3   OH231041   1.156   4.202   3.218 -0.3586 -0.7102 -0.3327
 3209TIP3    H131042   1.087   4.141   3.244 -0.6934 -1.0961 -2.0058
 3209TIP3    H231043   1.218   4.148   3.168  0.3634 -0.0697 -0.1433
 3210TIP3   OH231044   3.650   4.327  14.499  0.2171  0.0354  0.0041
 3210TIP3    H131045   3.685   4.261  14.559  1.7594  0.2832 -0.5879
 3210TIP3    H231046   3.637   4.279  14.417 -4.0801 -0.9059  0.9855
 3211TIP3   OH231047   6.106   4.032   0.386  0.3885  0.0529  0.4054
 3211TIP3    H131048   6.089   3.984   0.305  3.3046  1.6806 -1.3538
 3211TIP3    H231049   6.077   4.121   0.368  0.4151  0.2902  1.4564
 3212TIP3   OH231050   1.973   0.448  11.278 -0.2875  0.1551  0.1993
 3212TIP3    H131051   1.911   0.379  11.300 -0.8007  0.2726 -0.8108
 3212TIP3    H231052   2.014   0.419  11.197 -0.2933  0.8886 -0.0772
 3213TIP3   OH231053   2.070   4.134  12.372 -0.2263  0.2912 -0.3994
 3213TIP3    H131054   2.031   4.206  12.422  1.5817  1.9621 -1.2526
 3213TIP3    H231055   2.040   4.147  12.282  0.3322  0.1542 -0.6114
 3214TIP3   OH231056   2.067   0.224   3.195 -0.1427 -0.3316 -0.5479
 3214TIP3    H131057   2.152   0.265   3.176 -0.5334  2.2812  2.4548
 3214TIP3    H231058   2.088   0.133   3.217  1.3692 -0.6971 -3.1465
 3215TIP3   OH231059   3.049   2.987   3.098 -1.0533  0.0361 -0.1596
 3215TIP3    H131060   3.035   3.023   3.011 -0.8958  1.9262  0.5311
 3215TIP3    H231061   2.971   2.934   3.115 -2.0175  1.2284 -0.7116
 3216TIP3   OH231062   0.763   5.660  17.023  0.0503 -0.6124  0.1654
 3216TIP3    H131063   0.828   5.640  16.955  0.0826 -0.2544  0.0897
 3216TIP3    H231064   0.795   5.740  17.065  0.0808 -0.8844  0.6710
 3217TIP3   OH231065   0.885   4.466   1.498 -0.4863 -0.0779  0.5334
 3217TIP3    H131066   0.868   4.505   1.413  1.8272  1.8479  0.8490
 3217TIP3    H231067   0.842   4.380   1.494 -0.6654  0.0440 -2.4509
 3218TIP3   OH231068   6.150   2.303  11.169 -0.4289  0.1885  0.4800
 3218TIP3    H131069   6.129   2.284  11.077  1.2406 -1.5649  0.3811
 3218TIP3    H231070   6.065   2.310  11.212 -1.2471  1.0454 -1.1796
 3219TIP3   OH231071   1.233   4.512  16.122  0.2864 -0.0447 -0.1291
 3219TIP3    H131072   1.226   4.599  16.163  0.6917  0.6985 -1.5857
 3219TIP3    H231073   1.185   4.520  16.040  0.3896 -1.1917 -0.3169
 3220TIP3   OH231074   3.021   1.573  14.307  0.3775 -0.1038 -0.0353
 3220TIP3    H131075   3.069   1.593  14.226  0.1954 -1.0349 -0.3955
 3220TIP3    H231076   2.970   1.651  14.325  1.6743  0.7432  0.1005
 3221TIP3   OH231077   1.079   4.589  12.467 -0.0594  0.3648 -0.5985
 3221TIP3    H131078   1.136   4.539  12.525  0.3024  3.1037  1.6337
 3221TIP3    H231079   1.009   4.621  12.524 -0.2040  2.4578 -1.8254
 3222TIP3   OH231080   2.515   6.319   4.923  0.3699 -0.8211 -0.4241
 3222TIP3    H131081   2.492   6.307   5.015  2.8036  0.4326  0.4150
 3222TIP3    H231082   2.515   6.230   4.887  1.2558 -1.5586  1.2881
 3223TIP3   OH231083   1.046   1.752   4.480  0.1678  0.2195  0.2574
 3223TIP3    H131084   1.043   1.847   4.468  1.7506  0.0956 -1.6298
 3223TIP3    H231085   1.139   1.729   4.470 -0.2676 -1.5899 -0.0138
 3224TIP3   OH231086   1.307   6.215   2.998  0.1840 -0.3798  0.0233
 3224TIP3    H131087   1.239   6.269   2.957  0.5690 -1.9577 -2.9949
 3224TIP3    H231088   1.360   6.277   3.048 -1.5684  1.3960 -0.1871
 3225TIP3   OH231089   3.764   2.428  14.580 -0.1782  0.1009  0.3992
 3225TIP3    H131090   3.847   2.406  14.622  1.0385  2.0052 -0.8627
 3225TIP3    H231091   3.786   2.438  14.487 -1.6050  1.6766  0.1896
 3226TIP3   OH231092   5.151   2.389   4.426  0.0746 -0.1256  0.3038
 3226TIP3    H131093   5.063   2.369   4.396 -0.6247  0.7037  1.7327
 3226TIP3    H231094   5.173   2.318   4.486  0.4931 -0.4524 -0.2194
 3227TIP3   OH231095   0.888   0.213   1.372 -0.1693  0.4097  0.0797
 3227TIP3    H131096   0.891   0.225   1.277 -1.3856  0.0062 -0.0308
 3227TIP3    H231097   0.831   0.283   1.403 -1.6847 -0.8440  0.2219
 3228TIP3   OH231098   0.703   4.699   6.022  0.0519  0.0672  0.0165
 3228TIP3    H131099   0.678   4.615   6.060 -1.8813  0.4220 -0.4009
 3228TIP3    H231100   0.762   4.738   6.088 -0.4499 -0.8411  1.0293
 3229TIP3   OH231101   3.632   0.294  14.481  0.4981  0.5785  0.3469
 3229TIP3    H131102   3.693   0.366  14.469  0.5122  0.4538 -0.3915
 3229TIP3    H231103   3.688   0.218  14.499  0.5891  0.3993 -0.6482
 3230TIP3   OH231104   6.154   0.719   0.286  0.2917 -0.0826  0.4743
 3230TIP3    H131105   6.232   0.667   0.309  0.5208  0.6373  1.3999
 3230TIP3    H231106   6.106   0.728   0.368 -0.8053 -0.5430 -0.0966
 3231TIP3   OH231107   4.527   3.558  12.135 -0.1115  0.2771  0.1259
 3231TIP3    H131108   4.464   3.505  12.184 -1.9304  0.2459 -2.1088
 3231TIP3    H231109   4.500   3.649  12.152 -0.8669  0.2620 -0.8872
 3232TIP3   OH231110   4.558   6.263  14.044  0.3621  0.3849 -0.0057
 3232TIP3    H131111   4.644   6.304  14.059 -0.3404  1.3856  1.4989
 3232TIP3    H231112   4.530   6.299  13.960  0.7752  1.2566  0.2072
 3233TIP3   OH231113   6.125   4.647  17.299 -0.0111  0.1235 -0.1170
 3233TIP3    H131114   6.190   4.589  17.259  0.2305 -0.2208  0.7596
 3233TIP3    H231115   6.155   4.659  17.389 -0.0805  1.5896 -0.2609
 3234TIP3   OH231116   1.081   5.137  11.576 -0.7434 -0.2879  0.1745
 3234TIP3    H131117   1.078   5.124  11.481 -3.5396  0.0428  0.1345
 3234TIP3    H231118   1.011   5.200  11.594 -1.2068 -1.3732  2.5896
 3235TIP3   OH231119   0.740   4.428  12.619  0.2574 -0.2192 -0.3213
 3235TIP3    H131120   0.769   4.362  12.556  2.6329  0.3034  0.1250
 3235TIP3    H231121   0.646   4.437  12.603  0.4991 -1.2074 -2.7383
 3236TIP3   OH231122   4.442   2.311  13.949  0.1054  0.0626 -0.3125
 3236TIP3    H131123   4.492   2.307  13.868 -0.9863  1.0136 -1.0605
 3236TIP3    H231124   4.486   2.249  14.007  1.6843  0.3099 -1.1765
 3237TIP3   OH231125   1.627   5.779  11.264 -0.4375 -0.3612 -0.6712
 3237TIP3    H131126   1.703   5.723  11.249  0.1292  0.3037 -0.3532
 3237TIP3    H231127   1.551   5.724  11.242  0.1310 -1.0347 -0.9764
 3238TIP3   OH231128   0.706   1.141   5.867 -0.6680  0.6601  1.1366
 3238TIP3    H131129   0.695   1.120   5.774  0.4979 -1.4019  1.4080
 3238TIP3    H231130   0.631   1.100   5.910  0.8677 -2.0106  1.4979
 3239TIP3   OH231131   1.626   4.905   4.874  0.0899 -0.3375 -0.5367
 3239TIP3    H131132   1.652   4.913   4.782 -1.0409 -0.3621 -0.8748
 3239TIP3    H231133   1.654   4.818   4.899  1.6173  0.1544 -0.4437
 3240TIP3   OH231134   1.396   4.288   2.662 -0.0263  0.1034  0.1103
 3240TIP3    H131135   1.319   4.237   2.688  0.3001  0.2648  1.4913
 3240TIP3    H231136   1.435   4.238   2.591 -0.1706 -1.1662  0.8863
 3241TIP3   OH231137   0.587   6.101   0.071  0.2646  0.1761 -0.2218
 3241TIP3    H131138   0.510   6.044   0.071 -0.6984  1.4168 -0.1029
 3241TIP3    H231139   0.647   6.062   0.134 -0.1185 -1.0072 -0.5699
 3242TIP3   OH231140   4.942   6.653  11.870  0.0534 -0.2155  0.2518
 3242TIP3    H131141   4.916   6.743  11.852  0.5394 -0.2279 -0.5501
 3242TIP3    H231142   4.860   6.603  11.861  0.1818 -0.1761 -1.6852
 3243TIP3   OH231143   6.576   5.984  16.899 -0.2301 -0.0298 -0.0181
 3243TIP3    H131144   6.634   5.923  16.853 -0.7662  0.4954 -1.4407
 3243TIP3    H231145   6.626   6.010  16.977  0.6612 -1.0381 -0.2301
 3244TIP3   OH231146   3.102   3.643  11.748  0.1902 -0.0068 -0.1068
 3244TIP3    H131147   3.158   3.720  11.743  0.7818 -0.4470 -0.4016
 3244TIP3    H231148   3.019   3.671  11.709 -1.1143  1.7576  3.4988
 3245TIP3   OH231149   1.025   1.301   4.469 -0.0400 -0.0876 -0.0934
 3245TIP3    H131150   0.957   1.334   4.527  1.0139 -0.3207  1.3441
 3245TIP3    H231151   0.991   1.314   4.381 -1.9779 -0.3118  0.5864
 3246TIP3   OH231152   4.117   4.092   2.297 -0.5879 -0.3849  0.1097
 3246TIP3    H131153   4.213   4.094   2.303 -0.5719 -0.3476 -0.1551
 3246TIP3    H231154   4.094   4.171   2.247 -0.6611 -1.1504 -1.0915
 3247TIP3   OH231155   4.450   5.529   5.492 -0.1020  1.0733  0.4793
 3247TIP3    H131156   4.433   5.496   5.580 -0.7279  2.3925  0.8758
 3247TIP3    H231157   4.543   5.555   5.494  0.0438  0.5531  0.5599
 3248TIP3   OH231158   5.726   4.150   2.216 -0.2912 -0.1635 -0.1862
 3248TIP3    H131159   5.755   4.238   2.190 -0.2219  0.3852  1.5704
 3248TIP3    H231160   5.807   4.101   2.230 -0.2196  0.3130  1.3217
 3249TIP3   OH231161   2.873   3.427   5.192 -0.1006  0.0898  1.1848
 3249TIP3    H131162   2.813   3.448   5.121  2.1216 -0.5868 -1.0176
 3249TIP3    H231163   2.880   3.508   5.242  0.6331  1.6233 -1.2389
 3250TIP3   OH231164   3.053   6.174   1.236  0.0636 -0.6768 -0.4753
 3250TIP3    H131165   3.095   6.198   1.319  0.3349 -2.2568 -0.1051
 3250TIP3    H231166   2.963   6.205   1.245 -0.0761 -1.3251  0.6871
 3251TIP3   OH231167   4.797   1.187  15.979  0.8311 -0.4726  0.3124
 3251TIP3    H131168   4.796   1.201  15.884 -0.2908  0.9030  0.4939
 3251TIP3    H231169   4.885   1.214  16.006  0.7097  0.4474 -0.1706
 3252TIP3   OH231170   1.966   0.697  12.977  0.3797 -0.6298  0.3901
 3252TIP3    H131171   2.022   0.684  12.901  0.2962 -0.8673  0.3676
 3252TIP3    H231172   1.877   0.702  12.941  0.4146  0.1371  0.3834
 3253TIP3   OH231173   5.875   1.429   0.243 -0.1477 -0.3489 -0.0804
 3253TIP3    H131174   5.882   1.521   0.219  1.4309 -0.5759 -0.6417
 3253TIP3    H231175   5.902   1.382   0.164 -1.2519 -1.3177  0.0874
 3254TIP3   OH231176   2.563   5.338   5.373 -0.1573 -0.1187  0.2959
 3254TIP3    H131177   2.564   5.357   5.279  1.8086  0.9937  0.4877
 3254TIP3    H231178   2.493   5.394   5.407  0.6404  1.2428 -0.2179
 3255TIP3   OH231179   2.023   4.750  11.483 -0.2003  0.4398 -0.5916
 3255TIP3    H131180   2.024   4.659  11.453  0.6607  0.9068 -2.0838
 3255TIP3    H231181   2.093   4.755  11.548  1.5910  0.5881 -2.4233
 3256TIP3   OH231182   6.520   5.177  13.749  0.0215  0.4144  0.1668
 3256TIP3    H131183   6.527   5.081  13.748 -0.2484  0.3897  0.4730
 3256TIP3    H231184   6.604   5.207  13.714  1.6493  0.1312  3.5093
 3257TIP3   OH231185   5.627   3.230   4.318 -0.2358  0.2745  0.1896
 3257TIP3    H131186   5.558   3.245   4.383  0.3047 -0.3106  0.9138
 3257TIP3    H231187   5.584   3.243   4.234 -1.1547  0.2157  0.6407
 3258TIP3   OH231188   5.913   0.122  14.163 -0.5409 -0.7353  0.2766
 3258TIP3    H131189   6.008   0.119  14.174 -0.4982 -1.0976 -0.1589
 3258TIP3    H231190   5.899   0.169  14.081 -0.7349 -0.7323  0.3084
 3259TIP3   OH231191   6.499   1.491   2.138 -0.4477  0.3662  0.1023
 3259TIP3    H131192   6.469   1.580   2.157  2.2991  1.8859 -1.9850
 3259TIP3    H231193   6.439   1.460   2.070 -0.3938  1.3187 -0.3895
 3260TIP3   OH231194   6.583   4.795   6.448  0.2211 -0.3375  0.2389
 3260TIP3    H131195   6.657   4.847   6.418  0.5193  0.5440  2.3017
 3260TIP3    H231196   6.569   4.730   6.379  2.9128 -0.5375 -0.2162
 3261TIP3   OH231197   1.472   3.496   1.019 -0.2073 -0.0049 -0.0747
 3261TIP3    H131198   1.554   3.542   1.037 -0.2428 -0.1227  0.3989
 3261TIP3    H231199   1.418   3.560   0.972  0.0418  0.1736 -0.1156
 3262TIP3   OH231200   3.762   3.230  14.480 -0.3094 -0.1709  0.0388
 3262TIP3    H131201   3.754   3.192  14.392 -0.7375 -2.2070  0.8886
 3262TIP3    H231202   3.814   3.166  14.529  1.0814  1.5761  0.9476
 3263TIP3   OH231203   1.645   6.104  16.865  0.1487  0.2591 -0.2804
 3263TIP3    H131204   1.691   6.139  16.789 -0.7778 -0.0752 -1.0163
 3263TIP3    H231205   1.682   6.151  16.940  4.0784 -2.2783 -0.3787
 3264TIP3   OH231206   2.304   1.800  16.158  0.1329  0.5143 -0.3872
 3264TIP3    H131207   2.286   1.708  16.175  0.0848  0.5105 -0.4591
 3264TIP3    H231208   2.378   1.821  16.216 -0.0733  0.5183 -0.1256
 3265TIP3   OH231209   6.409   4.680  12.055  0.0547  0.0319 -0.6268
 3265TIP3    H131210   6.499   4.711  12.060 -0.4784  1.5161  0.5986
 3265TIP3    H231211   6.368   4.713  12.135 -2.0205  0.9579 -1.9807
 3266TIP3   OH231212   3.614   5.507  15.736  0.3466  0.1884 -0.6638
 3266TIP3    H131213   3.677   5.449  15.694 -1.1015 -2.3171  0.4146
 3266TIP3    H231214   3.645   5.515  15.826 -2.4839 -4.0796  1.0022
 3267TIP3   OH231215   4.767   5.040  12.713  0.0073  0.7088  0.3514
 3267TIP3    H131216   4.833   4.991  12.763 -1.0078 -0.6563  0.3947
 3267TIP3    H231217   4.803   5.128  12.707  2.2164 -0.1702 -0.2932
 3268TIP3   OH231218   2.716   5.614  14.848 -0.4136 -0.1950 -0.1702
 3268TIP3    H131219   2.667   5.649  14.774  0.5463 -1.6389 -1.5559
 3268TIP3    H231220   2.804   5.652  14.839 -0.7432  1.0599  1.3310
 3269TIP3   OH231221   4.555   2.347   2.606  0.3085 -0.3198  0.5351
 3269TIP3    H131222   4.598   2.424   2.644  0.8925 -0.5390  0.3135
 3269TIP3    H231223   4.462   2.372   2.602  0.4442  0.2436  0.7806
 3270TIP3   OH231224   6.326   2.233   5.576 -0.7501  0.0196 -0.0125
 3270TIP3    H131225   6.327   2.231   5.671 -1.0996 -1.5198 -0.0105
 3270TIP3    H231226   6.237   2.208   5.551 -0.1665 -1.5774 -0.7075
 3271TIP3   OH231227   0.580   4.715   1.253  0.2624 -0.3575  0.2961
 3271TIP3    H131228   0.611   4.756   1.334 -0.7339  0.7449  0.1544
 3271TIP3    H231229   0.522   4.645   1.283 -1.1317  0.8573  0.5949
 3272TIP3   OH231230   0.044   0.127   2.777  0.1245  0.5590  0.8438
 3272TIP3    H131231  -0.019   0.196   2.760 -0.0517  0.0340 -0.7497
 3272TIP3    H231232   0.109   0.168   2.835  0.7156  2.4524 -1.0537
 3273TIP3   OH231233   4.569   2.512   1.695 -0.1728 -0.0609 -0.2595
 3273TIP3    H131234   4.516   2.512   1.615  1.2932 -2.0562 -1.3170
 3273TIP3    H231235   4.659   2.503   1.664  0.3016 -3.5564  1.5858
 3274TIP3   OH231236   6.257   4.634   1.908 -0.1587  0.4713  0.4318
 3274TIP3    H131237   6.242   4.565   1.843 -2.2170  0.8217  0.4589
 3274TIP3    H231238   6.228   4.595   1.990  1.6606  0.3149  1.0447
 3275TIP3   OH231239   4.994   3.905  16.691 -0.5399 -0.5431  0.6118
 3275TIP3    H131240   4.993   3.814  16.661 -0.4926 -0.3481  0.0062
 3275TIP3    H231241   4.926   3.948  16.638  0.6033  0.1557 -0.3474
 3276TIP3   OH231242   1.331   2.402   5.300  0.1717 -0.2426  0.1944
 3276TIP3    H131243   1.322   2.311   5.329  0.6206 -0.2084  0.4371
 3276TIP3    H231244   1.417   2.406   5.259 -0.4772 -0.3109 -1.2521
 3277TIP3   OH231245   3.057   1.907   3.186 -0.1856  0.1804 -0.2067
 3277TIP3    H131246   2.969   1.877   3.163 -1.1617  2.3114  0.4915
 3277TIP3    H231247   3.052   1.931   3.278  1.2600 -0.0346 -0.0383
 3278TIP3   OH231248   6.714   1.769   5.360  0.1482  0.3618  0.1554
 3278TIP3    H131249   6.802   1.755   5.324  0.2031 -0.8933  0.7130
 3278TIP3    H231250   6.699   1.863   5.352  1.6534  0.6362  0.2985
 3279TIP3   OH231251   2.913   5.352  12.061 -0.3925  0.0865  0.4209
 3279TIP3    H131252   2.867   5.324  11.982  0.6170  1.4904 -0.7328
 3279TIP3    H231253   2.844   5.388  12.117 -0.8117  1.9153 -1.1589
 3280TIP3   OH231254   0.228   6.566   6.383 -0.5867 -0.2360 -0.0624
 3280TIP3    H131255   0.217   6.648   6.335 -2.6485 -0.1440  0.4820
 3280TIP3    H231256   0.160   6.509   6.350 -0.8942 -0.7947  1.4403
 3281TIP3   OH231257   3.371   6.445  12.459 -0.2999 -0.1110 -0.4266
 3281TIP3    H131258   3.359   6.355  12.432 -0.0667  0.6329 -3.3808
 3281TIP3    H231259   3.456   6.446  12.503 -0.4475 -1.3568 -0.0981
 3282TIP3   OH231260   6.547   3.170  15.425  0.3219  0.6895  0.3365
 3282TIP3    H131261   6.549   3.096  15.364  0.9999  1.1811 -0.2593
 3282TIP3    H231262   6.566   3.246  15.370 -0.2338  1.2900  0.9686
 3283TIP3   OH231263   0.117   5.811  15.783 -0.0440  0.4725 -0.2618
 3283TIP3    H131264   0.103   5.869  15.858 -1.0411 -0.0963  0.0102
 3283TIP3    H231265   0.209   5.823  15.761  0.1587  0.9839  0.7773
 3284TIP3   OH231266   3.745   4.401   2.506  0.2738  0.4722 -0.1435
 3284TIP3    H131267   3.685   4.327   2.518  2.2701 -1.2904 -0.4344
 3284TIP3    H231268   3.711   4.447   2.429 -0.7253 -0.4316 -0.2682
 3285TIP3   OH231269   0.183   4.413  14.698 -0.3124 -0.1981 -0.0798
 3285TIP3    H131270   0.126   4.353  14.652  0.4370  0.4759 -1.9932
 3285TIP3    H231271   0.190   4.489  14.640  0.5229  0.7922  1.2476
 3286TIP3   OH231272   1.313   4.244  15.447 -0.9711  0.1652  0.0949
 3286TIP3    H131273   1.264   4.309  15.396 -0.3615  0.8843  0.4236
 3286TIP3    H231274   1.287   4.260  15.537  0.1069  0.7621  0.3061
 3287TIP3   OH231275   4.668   2.443   3.787 -0.3949  0.1330  0.1069
 3287TIP3    H131276   4.694   2.423   3.697 -0.4773  1.8908 -0.3425
 3287TIP3    H231277   4.744   2.416   3.840 -0.1132 -0.3683 -0.5351
 3288TIP3   OH231278   3.084   3.306   3.641  0.6379  0.3783 -0.4027
 3288TIP3    H131279   3.174   3.318   3.611  1.0517  0.6216  0.8729
 3288TIP3    H231280   3.035   3.376   3.597  1.4408  1.4412  0.3228
 3289TIP3   OH231281   0.971   2.560  13.398  0.3128 -0.4629  0.1383
 3289TIP3    H131282   1.016   2.521  13.323  0.8352 -2.8007  1.5518
 3289TIP3    H231283   1.042   2.593  13.454  0.2178 -2.0662  1.2805
 3290TIP3   OH231284   6.237   1.375  14.394 -0.1107  0.0663  0.2784
 3290TIP3    H131285   6.277   1.456  14.425  0.3891  0.4112 -1.1850
 3290TIP3    H231286   6.145   1.381  14.420  0.0906  0.7611  0.8323
 3291TIP3   OH231287   6.056   2.126  17.237  1.0194  0.6175  0.1040
 3291TIP3    H131288   6.133   2.128  17.181  1.8184 -0.1992  1.1206
 3291TIP3    H231289   6.091   2.134  17.326  0.3391 -3.1151  0.8940
 3292TIP3   OH231290   3.028   0.278  13.342  0.2600 -0.1221 -0.3123
 3292TIP3    H131291   3.082   0.220  13.288  0.6981  0.5487 -0.5967
 3292TIP3    H231292   3.067   0.364  13.332 -0.9708  0.4230 -0.6769
 3293TIP3   OH231293   6.671   3.341  12.262  0.9297  0.4376  0.1206
 3293TIP3    H131294   6.602   3.362  12.325 -0.5526  0.3672 -1.3996
 3293TIP3    H231295   6.719   3.269  12.302 -0.7011 -0.3790  0.7059
 3294TIP3   OH231296   5.700   0.696  14.184  0.0799  0.2214  0.4140
 3294TIP3    H131297   5.759   0.623  14.201 -0.1718 -0.3348 -0.9688
 3294TIP3    H231298   5.721   0.760  14.252  0.0806 -1.2373  1.8486
 3295TIP3   OH231299   2.313   0.686  10.558  0.0757 -0.2508 -0.0456
 3295TIP3    H131300   2.246   0.733  10.509  0.5107 -1.4503 -1.8925
 3295TIP3    H231301   2.268   0.612  10.597 -0.2022  0.5111  1.1105
 3296TIP3   OH231302   3.059   2.511   0.673  0.7940 -0.1418  0.0805
 3296TIP3    H131303   3.082   2.426   0.634 -0.3990 -0.9063  0.9900
 3296TIP3    H231304   2.981   2.539   0.625  0.2526 -0.3360  0.8220
 3297TIP3   OH231305   1.795   1.853  11.860 -0.4391  0.2913  0.5334
 3297TIP3    H131306   1.815   1.769  11.901  0.2115  0.3028  0.2452
 3297TIP3    H231307   1.854   1.859  11.785 -0.2504  1.1513  0.7378
 3298TIP3   OH231308   3.724   2.965  15.710  0.0734 -0.3060  0.1491
 3298TIP3    H131309   3.805   2.921  15.682 -0.3994 -1.3025  0.3093
 3298TIP3    H231310   3.705   2.927  15.796  0.0208  0.7308  0.6173
 3299TIP3   OH231311   0.432   1.691  14.935  0.0826 -0.3969  0.2861
 3299TIP3    H131312   0.453   1.609  14.891  0.5029  0.8820 -2.0281
 3299TIP3    H231313   0.337   1.689  14.947  0.1997 -1.6574  1.3041
 3300TIP3   OH231314   0.418   4.998   2.654 -0.0094  0.1687  0.3823
 3300TIP3    H131315   0.413   5.052   2.733  0.8487  0.6390  0.1327
 3300TIP3    H231316   0.463   4.918   2.682 -0.0345  0.1772  0.4477
 3301TIP3   OH231317   5.432   1.347   6.180  0.4613  0.7763  0.3961
 3301TIP3    H131318   5.491   1.337   6.255 -0.7194  1.2856  1.4521
 3301TIP3    H231319   5.357   1.291   6.201 -0.0552  1.2148 -0.2199
 3302TIP3   OH231320   3.244   4.730  14.122  0.1069 -0.6210 -0.3503
 3302TIP3    H131321   3.154   4.760  14.106  0.6089  0.9255 -0.4770
 3302TIP3    H231322   3.293   4.811  14.139  1.4474 -1.4525 -0.1307
 3303TIP3   OH231323   5.281   1.302  12.556 -0.3130  0.2082  0.6788
 3303TIP3    H131324   5.373   1.326  12.549 -1.0229  2.7949 -2.1723
 3303TIP3    H231325   5.257   1.274  12.468 -2.5840  1.1234  0.9380
 3304TIP3   OH231326   4.027   0.854   2.249 -0.6302  0.4266  0.5071
 3304TIP3    H131327   4.091   0.907   2.202 -0.3549 -0.2054  0.1586
 3304TIP3    H231328   3.949   0.855   2.194 -0.4497  0.0398  0.2407
 3305TIP3   OH231329   5.706   2.599   2.162  0.0021  0.3480 -0.6885
 3305TIP3    H131330   5.684   2.599   2.069  0.3429 -0.3872 -0.7734
 3305TIP3    H231331   5.733   2.509   2.181 -1.2637  0.1712  0.4222
 3306TIP3   OH231332   5.562   3.034   0.226  0.6533 -0.3784 -0.6130
 3306TIP3    H131333   5.575   3.091   0.151  1.1822  0.5230  0.1409
 3306TIP3    H231334   5.530   2.952   0.189 -2.6556  1.1560 -1.5574
 3307TIP3   OH231335   5.827   2.496  13.923  0.1821  0.3012  0.0391
 3307TIP3    H131336   5.797   2.439  13.994  1.2886 -1.1025 -0.5669
 3307TIP3    H231337   5.858   2.575  13.967 -1.6396  0.5780  0.8857
 3308TIP3   OH231338   4.239   0.057  13.260 -0.2873 -0.1188  0.4202
 3308TIP3    H131339   4.260  -0.034  13.280  0.7114  0.1686  0.7464
 3308TIP3    H231340   4.166   0.052  13.198 -0.1805 -1.1408  0.3605
 3309TIP3   OH231341   4.123   6.326  14.479  0.0723  0.4907  0.5828
 3309TIP3    H131342   4.146   6.251  14.425 -0.6520 -0.0504  1.0123
 3309TIP3    H231343   4.146   6.300  14.569 -0.0387  0.8416  0.7166
 3310TIP3   OH231344   4.341   2.807  10.309 -0.2417  0.1112  0.2035
 3310TIP3    H131345   4.276   2.764  10.365  0.4725 -0.7848  0.3624
 3310TIP3    H231346   4.366   2.886  10.356 -2.3407  1.3138 -0.5707
 3311TIP3   OH231347   2.597   4.927   0.422  0.4420 -0.5814 -0.5929
 3311TIP3    H131348   2.516   4.880   0.442  0.2225 -0.3750 -0.9763
 3311TIP3    H231349   2.649   4.922   0.502 -1.3920  2.2859  0.9629
 3312TIP3   OH231350   5.910   2.310   6.020 -0.0931  0.6532 -0.8947
 3312TIP3    H131351   5.975   2.308   6.091 -0.6904 -1.3393 -0.3296
 3312TIP3    H231352   5.919   2.225   5.977 -1.3299  0.9158 -1.7295
 3313TIP3   OH231353   2.466   0.301   5.829  0.3708 -0.0299 -0.6430
 3313TIP3    H131354   2.449   0.265   5.915  2.1242 -1.9746 -1.0431
 3313TIP3    H231355   2.493   0.392   5.846  3.0528 -1.0350  1.1555
 3314TIP3   OH231356   2.185   1.475  11.499  0.0230 -0.0795  0.7296
 3314TIP3    H131357   2.200   1.439  11.412 -0.8440  0.9408  0.1456
 3314TIP3    H231358   2.194   1.399  11.558 -0.5521 -1.0089 -0.3479
 3315TIP3   OH231359   1.284   1.161   5.084 -0.2606  0.5649  0.3333
 3315TIP3    H131360   1.222   1.173   5.156  0.6484  4.1486  0.7569
 3315TIP3    H231361   1.370   1.159   5.127  0.1203 -1.2408 -0.4394
 3316TIP3   OH231362   2.769   0.537   5.586 -0.5258  0.1041 -0.1279
 3316TIP3    H131363   2.863   0.559   5.586 -0.3086 -0.7798 -0.1736
 3316TIP3    H231364   2.748   0.519   5.677 -0.9447  1.4436  0.0576
 3317TIP3   OH231365   1.064   2.215  13.877  0.1830 -0.2649  0.2441
 3317TIP3    H131366   1.014   2.198  13.956 -0.5760 -0.1332 -0.1957
 3317TIP3    H231367   1.103   2.302  13.891 -0.2087 -0.1050  0.3418
 3318TIP3   OH231368   3.258   3.407  16.318 -0.5331 -0.5295  0.4606
 3318TIP3    H131369   3.171   3.375  16.344 -1.0446  0.9377  0.6395
 3318TIP3    H231370   3.240   3.488  16.270  0.6461 -1.1671 -1.1249
 3319TIP3   OH231371   6.210   2.943   2.509 -0.3008 -0.8842  0.7122
 3319TIP3    H131372   6.143   2.932   2.441  1.3183 -2.1806 -0.7695
 3319TIP3    H231373   6.281   2.988   2.465 -0.0292  0.1902  2.1784
 3320TIP3   OH231374   2.429   2.949  13.027 -0.6616  0.0787 -0.4384
 3320TIP3    H131375   2.523   2.955  13.044 -0.7910  1.6926 -0.2036
 3320TIP3    H231376   2.394   2.901  13.102 -0.0295 -0.6327 -0.5815
 3321TIP3   OH231377   2.970   1.312   3.476  0.4398  0.3064 -0.1094
 3321TIP3    H131378   2.989   1.399   3.441  0.9798  0.0612 -0.4334
 3321TIP3    H231379   3.037   1.255   3.438  0.9964  0.0104  1.2426
 3322TIP3   OH231380   0.097   4.645   1.863  0.3067 -0.3584  0.1990
 3322TIP3    H131381   0.133   4.714   1.919 -1.4933  1.1011 -0.3312
 3322TIP3    H231382   0.003   4.664   1.858  0.3804 -0.1373 -3.5839
 3323TIP3   OH231383   3.071   4.534  16.336 -0.2832 -0.1923 -0.3758
 3323TIP3    H131384   3.117   4.566  16.259 -1.5803  0.6880 -0.8308
 3323TIP3    H231385   3.071   4.609  16.396 -0.2053 -0.5246  0.0337
 3324TIP3   OH231386   4.015   1.627   0.060  0.2556  0.5457 -0.0124
 3324TIP3    H131387   3.978   1.678   0.131  0.3837 -0.1512  0.5616
 3324TIP3    H231388   4.106   1.610   0.087  0.0587 -0.4455  0.0695
 3325TIP3   OH231389   4.444   0.576   2.533  0.0863 -0.0276 -0.2295
 3325TIP3    H131390   4.484   0.496   2.501  1.9147  0.8573 -0.2562
 3325TIP3    H231391   4.426   0.627   2.454  0.9435  0.4823 -0.1120
 3326TIP3   OH231392   0.453   5.449   6.411  0.0099  0.3158 -0.0617
 3326TIP3    H131393   0.454   5.534   6.456  0.5098  1.0521 -1.4197
 3326TIP3    H231394   0.542   5.415   6.423  0.3007  0.7558 -0.9192
 3327TIP3   OH231395   2.391   2.674   4.535  0.0347  0.1577 -0.2402
 3327TIP3    H131396   2.311   2.632   4.566  0.0445  0.9872  0.9343
 3327TIP3    H231397   2.462   2.627   4.579  0.0833  0.8477  0.4325
 3328TIP3   OH231398   4.497   3.957  13.886  0.0531  0.3040  0.7020
 3328TIP3    H131399   4.448   4.035  13.911 -0.2754 -0.5000  2.7069
 3328TIP3    H231400   4.576   3.991  13.843 -1.2019  1.6491 -0.6519
 3329TIP3   OH231401   4.155   4.733  11.657  0.0791 -0.0150 -0.1093
 3329TIP3    H131402   4.239   4.687  11.662  0.2238  0.1222 -0.9558
 3329TIP3    H231403   4.108   4.690  11.586  0.3284  1.2790 -1.1134
 3330TIP3   OH231404   5.817   4.004  13.466 -0.2777  0.1801  0.6432
 3330TIP3    H131405   5.891   4.052  13.502  1.3259 -0.8753 -1.1058
 3330TIP3    H231406   5.747   4.068  13.460  0.9581  1.5937  0.8872
 3331TIP3   OH231407   5.024   2.532  10.764  0.1833  0.3912 -0.4034
 3331TIP3    H131408   5.101   2.539  10.707  1.1903  0.3282  0.8976
 3331TIP3    H231409   4.981   2.617  10.755  0.7694  0.6717 -0.6345
 3332TIP3   OH231410   1.606   2.527  12.206 -0.5477  0.0568 -0.1261
 3332TIP3    H131411   1.699   2.545  12.222 -0.0531 -0.2450 -2.2975
 3332TIP3    H231412   1.607   2.457  12.141 -2.3166 -0.0137 -0.1051
 3333TIP3   OH231413   6.702   5.710  11.879  0.0641 -0.3467  0.0470
 3333TIP3    H131414   6.723   5.677  11.966 -2.2403 -0.6599  0.5598
 3333TIP3    H231415   6.786   5.738  11.842  1.3058 -1.6762  1.7327
 3334TIP3   OH231416   1.531   0.540  12.215  0.1037  0.3941 -0.0299
 3334TIP3    H131417   1.467   0.611  12.225 -0.2620  0.1843 -0.8181
 3334TIP3    H231418   1.564   0.526  12.304 -0.9924  0.4659  0.4167
 3335TIP3   OH231419   6.474   6.558  17.249 -0.0860  0.4035  0.5746
 3335TIP3    H131420   6.416   6.524  17.317 -1.7309 -1.6148 -1.6790
 3335TIP3    H231421   6.507   6.480  17.204  0.7791  1.6483 -1.0746
 3336TIP3   OH231422   3.514   1.232  14.677 -0.0971  0.6796 -0.0222
 3336TIP3    H131423   3.570   1.156  14.662  1.0501  1.4088  0.4145
 3336TIP3    H231424   3.528   1.254  14.769 -3.2406 -0.7509  0.9226
 3337TIP3   OH231425   5.880   1.500   3.025 -0.3895 -0.0884 -0.4302
 3337TIP3    H131426   5.801   1.553   3.035 -2.1208 -2.7368  1.2146
 3337TIP3    H231427   5.894   1.495   2.930 -1.5867  1.2578 -0.7091
 3338TIP3   OH231428   0.889   6.695  15.438  0.8293  0.1297 -0.2887
 3338TIP3    H131429   0.904   6.759  15.368 -0.1530 -1.5023 -2.0941
 3338TIP3    H231430   0.804   6.720  15.475  1.5588  1.2680  0.6759
 3339TIP3   OH231431   1.346   3.482  13.218  0.5148  0.1648 -0.5797
 3339TIP3    H131432   1.349   3.468  13.312 -0.5067  0.0168 -0.5605
 3339TIP3    H231433   1.276   3.546  13.205  0.7344  0.2826 -1.2286
 3340TIP3   OH231434   4.084   5.413  15.841 -0.2748  0.0384  0.2375
 3340TIP3    H131435   4.117   5.480  15.782  0.9202  0.7143  1.6276
 3340TIP3    H231436   3.989   5.426  15.842 -0.2612  0.3538 -1.0873
 3341TIP3   OH231437   1.034   6.634   3.399  0.1341  0.1007 -0.3862
 3341TIP3    H131438   1.125   6.609   3.387  0.4456  0.1841  1.4850
 3341TIP3    H231439   1.035   6.694   3.474 -1.5458 -0.6279  0.2752
 3342TIP3   OH231440   0.955   3.634  12.205 -0.3449  0.0809 -0.0727
 3342TIP3    H131441   0.976   3.651  12.113 -1.5824  2.0090 -0.0575
 3342TIP3    H231442   1.015   3.690  12.255  0.3826 -1.0214  0.3462
 3343TIP3   OH231443   3.028   5.200   6.038 -0.5366  0.0641 -0.4057
 3343TIP3    H131444   2.954   5.258   6.056  0.4501  0.5392  2.6487
 3343TIP3    H231445   2.991   5.112   6.044 -1.1540  0.3117 -0.4776
 3344TIP3   OH231446   4.581   3.340   2.564 -0.5165 -0.7687 -0.0793
 3344TIP3    H131447   4.569   3.378   2.477  1.0194  0.6835  0.3025
 3344TIP3    H231448   4.642   3.268   2.549  0.0164 -0.3054 -0.1640
 3345TIP3   OH231449   5.422   2.242  11.991  0.2560  0.0857 -0.4721
 3345TIP3    H131450   5.480   2.209  12.060  0.9246 -0.6658 -1.3764
 3345TIP3    H231451   5.478   2.299  11.938  0.1864 -0.6817 -1.3805
 3346TIP3   OH231452   2.734   2.836   2.127  0.3430 -0.0167 -0.6045
 3346TIP3    H131453   2.685   2.915   2.148  2.1359  0.7726  0.9022
 3346TIP3    H231454   2.797   2.863   2.060 -0.4273 -0.7423 -1.6713
 3347TIP3   OH231455   6.174   0.227  12.484 -0.1316  0.5733  0.0161
 3347TIP3    H131456   6.102   0.211  12.424  0.0864  1.1216 -0.4018
 3347TIP3    H231457   6.211   0.141  12.501  0.5380  0.5182 -1.5781
 3348TIP3   OH231458   3.720   6.270  12.578  0.1096 -0.1336  0.6684
 3348TIP3    H131459   3.796   6.298  12.630  0.2810  0.8205 -0.0572
 3348TIP3    H231460   3.751   6.274  12.487 -0.2565 -1.5428  0.4636
 3349TIP3   OH231461   2.025   2.131  16.281 -0.0619  0.2550  0.0134
 3349TIP3    H131462   1.965   2.063  16.312  0.2921 -0.3945 -0.6951
 3349TIP3    H231463   2.064   2.167  16.361 -0.3370 -0.2995  0.4040
 3350TIP3   OH231464   0.246   6.478   1.548  0.7278 -0.0868 -0.1911
 3350TIP3    H131465   0.188   6.495   1.622  1.6422 -0.7232  0.6984
 3350TIP3    H231466   0.187   6.464   1.474 -0.1648  1.7890  0.1181
 3351TIP3   OH231467   0.102   4.744  15.539  0.5863 -0.3718  0.2167
 3351TIP3    H131468   0.064   4.661  15.567  0.4148  0.0109  1.1282
 3351TIP3    H231469   0.105   4.737  15.443  2.7224 -2.3756  0.3114
 3352TIP3   OH231470   2.072   2.323  11.813 -0.1052  0.6638 -0.0821
 3352TIP3    H131471   2.057   2.406  11.859 -1.3191  1.0391 -1.1140
 3352TIP3    H231472   2.138   2.344  11.747  0.7338  0.4142  0.6534
 3353TIP3   OH231473   3.525   3.900  15.616  0.1374  0.1283 -0.1487
 3353TIP3    H131474   3.578   3.974  15.644  0.3271  0.1305 -0.5083
 3353TIP3    H231475   3.487   3.866  15.697 -1.5708  1.8272 -0.1589
 3354TIP3   OH231476   6.308   5.167  12.639  0.0957 -0.3591 -0.5554
 3354TIP3    H131477   6.269   5.244  12.680  1.0516  0.7199 -1.5907
 3354TIP3    H231478   6.276   5.094  12.691  2.0975  0.9574  2.8240
 3355TIP3   OH231479   3.256   3.927   3.603 -0.1746  0.1547  0.6843
 3355TIP3    H131480   3.191   3.868   3.566 -0.0847  1.2751 -1.3528
 3355TIP3    H231481   3.339   3.879   3.596 -0.5506 -0.7713  2.1408
 3356TIP3   OH231482   5.285   3.725  16.740 -0.2056 -0.0284  0.6771
 3356TIP3    H131483   5.215   3.702  16.679  1.0627 -0.6889 -0.5908
 3356TIP3    H231484   5.361   3.678  16.708  0.8024  0.5479  2.1129
 3357TIP3   OH231485   5.583   4.172   4.375 -0.2331 -0.4956 -0.6447
 3357TIP3    H131486   5.621   4.116   4.443  0.6947  1.3641  0.4471
 3357TIP3    H231487   5.493   4.142   4.366  0.1759 -2.0008  0.0492
 3358TIP3   OH231488   4.511   6.326  12.004  0.1303  0.6349 -0.0760
 3358TIP3    H131489   4.580   6.333  12.070 -0.4725 -0.0487  0.6368
 3358TIP3    H231490   4.441   6.384  12.036  0.4952  1.6267 -0.9865
 3359TIP3   OH231491   6.549   6.290  17.222 -0.3409 -0.4554  0.3357
 3359TIP3    H131492   6.561   6.199  17.197 -0.3461 -0.3542 -0.0448
 3359TIP3    H231493   6.462   6.293  17.263  0.2519 -0.8918  1.6799
 3360TIP3   OH231494   3.052   6.301   0.364  0.1585  0.3174  0.3307
 3360TIP3    H131495   3.030   6.314   0.457 -1.2798 -1.1960  0.2475
 3360TIP3    H231496   2.986   6.352   0.317  1.6136  2.0913  0.0813
 3361TIP3   OH231497   5.943   4.721   1.697  0.3472 -0.4954  0.2873
 3361TIP3    H131498   5.904   4.639   1.667 -0.7877 -0.5296  1.7486
 3361TIP3    H231499   5.938   4.717   1.792  0.7164  1.0666  0.4024
 3362TIP3   OH231500   6.424   6.127   1.667  0.4601  0.7630  0.5592
 3362TIP3    H131501   6.515   6.117   1.696  0.5154 -0.2466  0.0854
 3362TIP3    H231502   6.431   6.149   1.574  0.2455  2.2904  0.8844
 3363TIP3   OH231503   5.906   1.120   4.316 -0.4869  0.2971 -0.4643
 3363TIP3    H131504   5.961   1.198   4.326 -2.2716  1.4179  1.6037
 3363TIP3    H231505   5.856   1.136   4.236  1.1586 -0.1077 -1.6115
 3364TIP3   OH231506   1.689   6.071   4.459  0.0295 -0.6754  0.1721
 3364TIP3    H131507   1.602   6.031   4.449 -0.1038 -0.2282 -0.6365
 3364TIP3    H231508   1.749   6.008   4.421 -0.1496 -0.2672 -0.8452
 3365TIP3   OH231509   1.684   0.906   0.495 -0.1138 -0.0067 -0.0494
 3365TIP3    H131510   1.591   0.886   0.503  0.1558 -0.6145  2.3335
 3365TIP3    H231511   1.687   1.001   0.482 -1.0814 -0.1506 -1.4760
 3366TIP3   OH231512   2.917   1.025  14.908  0.4480  0.4204 -0.4267
 3366TIP3    H131513   2.981   1.002  14.976  0.1310 -0.2099 -0.3395
 3366TIP3    H231514   2.963   1.009  14.826  0.5208  0.2902 -0.3618
 3367TIP3   OH231515   1.454   6.284   4.491  0.4770  0.5676  0.4803
 3367TIP3    H131516   1.433   6.192   4.508 -0.5766  0.8118  0.5238
 3367TIP3    H231517   1.398   6.334   4.550  2.0196  1.2257  1.4430
 3368TIP3   OH231518   5.589   3.906  16.189 -0.0424 -0.1527 -0.2302
 3368TIP3    H131519   5.635   3.967  16.246  0.3519 -1.0405  0.4338
 3368TIP3    H231520   5.657   3.847  16.156 -0.6799 -1.7548  1.1153
 3369TIP3   OH231521   5.580   2.410   0.747 -0.0456 -0.3541  0.6057
 3369TIP3    H131522   5.486   2.417   0.728  0.2821  3.7685 -0.5185
 3369TIP3    H231523   5.587   2.424   0.841 -0.5569 -0.4327  0.6571
 3370TIP3   OH231524   1.274   3.798  16.508  0.0870  0.3602  0.0340
 3370TIP3    H131525   1.237   3.772  16.593 -0.1137  0.3169 -0.0642
 3370TIP3    H231526   1.219   3.753  16.444  0.3063  0.3069 -0.1162
 3371TIP3   OH231527   3.998   4.970  16.307  0.2343 -0.2116  0.2044
 3371TIP3    H131528   3.910   4.939  16.287  0.5658 -0.3478 -1.1534
 3371TIP3    H231529   4.050   4.890  16.317  0.2410 -0.1306  0.8635
 3372TIP3   OH231530   5.713   6.210  16.744 -0.7471 -0.5010 -0.1810
 3372TIP3    H131531   5.622   6.189  16.764 -0.8934 -0.1656 -0.4915
 3372TIP3    H231532   5.743   6.138  16.689 -1.3277  0.2212 -1.4647
 3373TIP3   OH231533   5.141   0.432  14.915 -0.1671  0.1115  0.0256
 3373TIP3    H131534   5.221   0.455  14.868 -1.2980  1.8413 -1.1597
 3373TIP3    H231535   5.149   0.479  14.998  0.1210  0.1395 -0.0156
 3374TIP3   OH231536   3.661   6.705   4.863 -0.5230 -0.4055  0.1934
 3374TIP3    H131537   3.613   6.771   4.813 -0.3306  0.1839  0.7723
 3374TIP3    H231538   3.597   6.636   4.879 -0.4906 -0.7839 -1.1642
 3375TIP3   OH231539   0.581   2.769  15.308 -0.0113  0.3708 -0.1665
 3375TIP3    H131540   0.488   2.760  15.326 -0.2106  0.0906 -1.2674
 3375TIP3    H231541   0.609   2.842  15.363 -0.8946  0.5147  0.1079
 3376TIP3   OH231542   2.051   3.895  15.059 -0.0281 -0.0817 -0.5417
 3376TIP3    H131543   2.026   3.883  15.150 -1.8167  0.6153 -0.8987
 3376TIP3    H231544   2.125   3.957  15.062  0.2818 -0.4775  0.4402
 3377TIP3   OH231545   2.379   2.760  15.226 -1.1535  0.2405  0.3260
 3377TIP3    H131546   2.471   2.787  15.227 -0.9995 -0.2932  0.5504
 3377TIP3    H231547   2.352   2.770  15.135 -0.4542 -1.0088 -0.0344
 3378TIP3   OH231548   4.319   1.058   5.650  0.5206 -0.0194 -0.3464
 3378TIP3    H131549   4.307   1.149   5.677  3.2231 -0.0725  1.3310
 3378TIP3    H231550   4.259   1.009   5.706 -0.5647  0.6227 -0.8930
 3379TIP3   OH231551   6.046   2.294   2.009 -0.2687 -0.6957 -0.1177
 3379TIP3    H131552   6.042   2.291   1.913  2.0375  2.5580 -0.4932
 3379TIP3    H231553   5.964   2.254   2.038 -1.3964 -1.1261 -3.4526
 3380TIP3   OH231554   1.440   4.427  16.283  0.2015  0.6423 -0.4562
 3380TIP3    H131555   1.512   4.491  16.283 -0.2494  1.2302  1.5413
 3380TIP3    H231556   1.387   4.451  16.207  0.8901  1.6534 -0.6416
 3381TIP3   OH231557   5.500   1.342  12.013 -0.5620  0.0263  0.2014
 3381TIP3    H131558   5.411   1.306  12.014 -0.9010  0.8494  0.8247
 3381TIP3    H231559   5.508   1.383  11.926 -1.8235  2.3563  1.0857
 3382TIP3   OH231560   5.016   0.014  13.658  0.1205 -0.5109  0.0588
 3382TIP3    H131561   5.059   0.006  13.744 -0.8547 -0.3916  0.5746
 3382TIP3    H231562   4.927  -0.017  13.673 -0.5536  1.0563 -0.5181
 3383TIP3   OH231563   4.687   0.578   2.661 -0.8440  0.1871  0.5165
 3383TIP3    H131564   4.694   0.493   2.705  1.3592  0.7607  1.4116
 3383TIP3    H231565   4.604   0.574   2.614 -2.9042 -0.8220  3.9228
 3384TIP3   OH231566   5.612   6.162   2.348 -0.5227  0.0651 -0.2618
 3384TIP3    H131567   5.553   6.087   2.358 -0.1317 -0.0823  1.0401
 3384TIP3    H231568   5.667   6.139   2.272 -0.2190 -1.0969  0.2905
 3385TIP3   OH231569   6.105   2.574   6.087 -0.1673  0.2210 -0.8090
 3385TIP3    H131570   6.050   2.511   6.134  0.5719 -0.1300 -0.3935
 3385TIP3    H231571   6.084   2.658   6.126  1.7214 -0.2642  1.4847
 3386TIP3   OH231572   2.520   2.778  15.803  0.3662  0.7609  0.4871
 3386TIP3    H131573   2.559   2.808  15.885  0.0518 -1.2303  1.4178
 3386TIP3    H231574   2.434   2.743  15.828  0.1984  0.2724 -0.6987
 3387TIP3   OH231575   4.256   5.396  11.754 -0.2892 -0.3892 -0.1762
 3387TIP3    H131576   4.259   5.382  11.849 -0.5218 -0.8311 -0.2270
 3387TIP3    H231577   4.335   5.354  11.721 -0.3427 -0.4747 -0.1989
 3388TIP3   OH231578   4.732   4.551  11.605 -0.2596 -0.6380  0.2555
 3388TIP3    H131579   4.771   4.481  11.658 -1.3416 -0.5203  1.2408
 3388TIP3    H231580   4.778   4.630  11.631  0.2843 -0.8200 -0.1359
 3389TIP3   OH231581   3.217   6.692   3.134  0.5282  0.2819  0.3627
 3389TIP3    H131582   3.250   6.602   3.139 -0.0951  0.0799  1.0279
 3389TIP3    H231583   3.127   6.682   3.103  0.8468  0.7760 -0.7678
 3390TIP3   OH231584   2.194   5.697  12.498  0.2708 -0.3172 -0.3472
 3390TIP3    H131585   2.231   5.711  12.585  0.3975  1.2702 -0.6375
 3390TIP3    H231586   2.180   5.602  12.493  0.2633 -0.4323  1.3894
 3391TIP3   OH231587   6.567   3.284   6.224  0.0790  0.1497  0.3014
 3391TIP3    H131588   6.519   3.223   6.280  0.5950 -0.7086 -0.1627
 3391TIP3    H231589   6.527   3.274   6.137 -0.8959  1.6650  0.5342
 3392TIP3   OH231590   1.341   1.853   3.848  0.7209  0.1948 -0.2033
 3392TIP3    H131591   1.348   1.760   3.869 -3.5168  0.0188  1.3680
 3392TIP3    H231592   1.366   1.897   3.929 -0.7995  0.1815  0.3078
 3393TIP3   OH231593   1.402   1.990   2.069  0.7652  0.2422 -0.3370
 3393TIP3    H131594   1.483   1.955   2.031 -0.0592 -0.0386 -1.8882
 3393TIP3    H231595   1.333   1.936   2.032 -0.1332  0.3149  1.1853
 3394TIP3   OH231596   6.253   3.782  16.216 -0.2621 -0.3339 -0.0466
 3394TIP3    H131597   6.297   3.836  16.151 -0.8366  0.5948  0.3148
 3394TIP3    H231598   6.184   3.737  16.168 -0.5962  0.2434 -0.1254
 3395TIP3   OH231599   4.710   5.336   1.900 -0.4000  0.1468  0.3733
 3395TIP3    H131600   4.783   5.297   1.948  0.3371 -1.2020 -1.7259
 3395TIP3    H231601   4.727   5.431   1.905  1.1262 -0.1031  0.4815
 3396TIP3   OH231602   0.629   4.415   4.089  0.3306 -0.0169  0.2250
 3396TIP3    H131603   0.592   4.499   4.061  0.4746 -0.0478 -0.0560
 3396TIP3    H231604   0.556   4.354   4.086  0.4940 -0.1760 -0.7459
 3397TIP3   OH231605   1.818   6.490   3.908  0.0062 -0.8071  0.4860
 3397TIP3    H131606   1.812   6.542   3.989  1.5546 -1.1946  0.8757
 3397TIP3    H231607   1.788   6.549   3.839 -1.6356 -0.5622  1.3588
 3398TIP3   OH231608   2.780   3.754   3.452  0.4830  0.2195  0.0318
 3398TIP3    H131609   2.753   3.673   3.497  0.8699 -1.7051 -2.9296
 3398TIP3    H231610   2.799   3.815   3.523 -2.2178 -1.4271  2.3973
 3399TIP3   OH231611   5.619   5.434  17.215 -0.0152 -0.3598 -0.1894
 3399TIP3    H131612   5.626   5.345  17.250 -1.0949 -0.2757  0.2699
 3399TIP3    H231613   5.598   5.488  17.291 -2.3268 -0.1613 -0.9059
 3400TIP3   OH231614   5.177   1.679  13.193 -0.2417  0.8167  0.4158
 3400TIP3    H131615   5.218   1.663  13.278 -1.6377 -0.7144  0.8594
 3400TIP3    H231616   5.147   1.770  13.197 -1.2657  0.4344  2.0163
 3401TIP3   OH231617   1.369   3.409  16.032  0.8620 -0.6850 -0.1384
 3401TIP3    H131618   1.413   3.335  15.989  1.1390 -0.2476 -0.6274
 3401TIP3    H231619   1.295   3.370  16.078 -1.2337 -0.9232 -3.3606
 3402TIP3   OH231620   5.266   6.417  12.309 -0.8043 -0.3764 -1.3975
 3402TIP3    H131621   5.215   6.342  12.340 -2.5935  0.4934 -2.0955
 3402TIP3    H231622   5.246   6.488  12.370 -0.8805  0.1354 -2.0058
 3403TIP3   OH231623   5.091   1.458   1.079 -0.0611 -0.3738 -0.2667
 3403TIP3    H131624   5.169   1.467   1.024  1.3851 -2.9316  1.1631
 3403TIP3    H231625   5.056   1.372   1.058 -1.8223  0.2468 -0.0055
 3404TIP3   OH231626   3.305   0.075  15.571 -0.0709 -0.1430  0.4451
 3404TIP3    H131627   3.267   0.018  15.638 -0.4827  0.1160  0.4304
 3404TIP3    H231628   3.291   0.164  15.604  2.3331 -0.0628  1.4391
 3405TIP3   OH231629   6.702   3.136   1.192  0.0991 -0.3013 -0.0699
 3405TIP3    H131630   6.715   3.168   1.103 -1.4578 -0.0983 -0.2540
 3405TIP3    H231631   6.753   3.055   1.195 -0.9340 -1.0715 -1.6325
 3406TIP3   OH231632   0.170   1.554  14.510  0.0249  0.6531 -0.1526
 3406TIP3    H131633   0.143   1.480  14.455  0.7513  2.0330 -2.5078
 3406TIP3    H231634   0.089   1.601  14.528 -0.4442 -0.6326  1.3608
 3407TIP3   OH231635   2.563   5.262  15.376 -0.2712 -0.2034  0.7410
 3407TIP3    H131636   2.626   5.308  15.431 -1.0617  0.4299  1.1525
 3407TIP3    H231637   2.616   5.211  15.315  0.6418 -1.1243  2.2328
 3408TIP3   OH231638   0.246   6.637  17.047  0.2364  0.3387 -0.1800
 3408TIP3    H131639   0.164   6.619  17.092  0.5852 -0.2172  0.2349
 3408TIP3    H231640   0.233   6.724  17.008 -0.4023  0.4229  0.2060
 3409TIP3   OH231641   3.642   5.892  12.633  0.0122 -0.6012  0.3911
 3409TIP3    H131642   3.699   5.817  12.618  1.3176 -0.0357  2.1722
 3409TIP3    H231643   3.575   5.860  12.694  2.5571  0.3613  4.0424
 3410TIP3   OH231644   2.231   2.036  11.573 -0.4513 -0.6288  0.1558
 3410TIP3    H131645   2.234   1.944  11.547  2.3772 -0.1410 -1.6472
 3410TIP3    H231646   2.312   2.050  11.622 -0.3454  1.1106 -0.4468
 3411TIP3   OH231647   1.775   4.920  14.464 -0.3039  0.1918 -0.1201
 3411TIP3    H131648   1.751   4.923  14.556 -0.4901  0.2020 -0.1690
 3411TIP3    H231649   1.695   4.895  14.419 -0.1889  0.0947 -0.2705
 3412TIP3   OH231650   6.389   0.721   2.253 -0.1995  0.4207  0.0106
 3412TIP3    H131651   6.442   0.736   2.174 -0.3139 -0.0192 -0.1495
 3412TIP3    H231652   6.398   0.628   2.271 -0.5736  0.4260  0.2313
 3413TIP3   OH231653   1.191   2.688   4.408 -0.5339  0.3393 -0.1462
 3413TIP3    H131654   1.182   2.776   4.446 -1.0122  0.0416  0.4531
 3413TIP3    H231655   1.119   2.638   4.448  0.5189 -0.6675  0.5345
 3414TIP3   OH231656   4.938   0.291   0.285 -0.3280 -0.7789 -0.1783
 3414TIP3    H131657   4.902   0.365   0.236  0.4490  0.0330  0.4511
 3414TIP3    H231658   5.019   0.325   0.324  0.5445 -2.2500 -0.6652
 3415TIP3   OH231659   5.443   2.170   1.869 -0.0620 -0.2386  0.0572
 3415TIP3    H131660   5.421   2.148   1.959  0.7403  0.6650  0.4911
 3415TIP3    H231661   5.539   2.161   1.864  0.0998  1.3609 -0.2140
 3416TIP3   OH231662   5.635   2.954  11.924  0.3901  0.0416  0.0102
 3416TIP3    H131663   5.673   2.975  12.010 -1.1555 -0.7668  0.9446
 3416TIP3    H231664   5.541   2.962  11.937  0.0638 -1.1407 -1.3218
 3417TIP3   OH231665   6.575   0.941   1.533 -0.5739  0.0658 -0.3500
 3417TIP3    H131666   6.652   0.889   1.509 -1.0156 -0.8573  0.1745
 3417TIP3    H231667   6.610   1.011   1.589 -0.1735 -0.6728  0.3466
 3418TIP3   OH231668   3.858   6.645  11.553  0.1890  0.6289 -0.1054
 3418TIP3    H131669   3.916   6.616  11.483  1.0923  1.7324  0.1457
 3418TIP3    H231670   3.872   6.582  11.624  0.0819  0.1261 -0.5296
 3419TIP3   OH231671   6.713   2.583   4.350 -0.0400 -0.2438  0.0837
 3419TIP3    H131672   6.708   2.589   4.445 -0.5312  0.5979  0.0082
 3419TIP3    H231673   6.656   2.509   4.327  0.6488 -0.9187  0.4861
 3420TIP3   OH231674   0.505   0.168   3.023  0.3531  0.7237  0.1736
 3420TIP3    H131675   0.470   0.125   3.101  1.4509 -0.6950 -0.0582
 3420TIP3    H231676   0.513   0.097   2.959  0.2116  1.7134 -0.9707
 3421TIP3   OH231677   4.392   6.512   6.567 -0.0906  0.1505  0.2143
 3421TIP3    H131678   4.332   6.439   6.553  0.2531 -0.2187  0.6528
 3421TIP3    H231679   4.421   6.502   6.658  0.2259  0.6331  0.1665
 3422TIP3   OH231680   0.988   5.472  11.059 -0.1120  0.2815 -0.5319
 3422TIP3    H131681   1.045   5.476  11.136  0.7857 -1.1981 -1.0881
 3422TIP3    H231682   0.948   5.559  11.055 -0.2040  0.3816  1.6056
 3423TIP3   OH231683   6.353   6.185  16.298  0.0045 -0.5121  0.9150
 3423TIP3    H131684   6.366   6.137  16.217 -0.0572 -0.3136  0.7869
 3423TIP3    H231685   6.262   6.214  16.295  0.2129  0.1407  0.7024
 3424TIP3   OH231686   3.025   0.625   5.596 -0.1491 -0.2375  0.4685
 3424TIP3    H131687   3.054   0.589   5.680  0.6131  0.8824  0.7073
 3424TIP3    H231688   3.055   0.716   5.597  1.7234 -0.7264 -1.8487
 3425TIP3   OH231689   0.763   1.140   4.576  0.3167  0.0716 -0.0158
 3425TIP3    H131690   0.717   1.179   4.650 -1.6675 -2.8697  0.5152
 3425TIP3    H231691   0.836   1.093   4.615 -0.5439 -1.2129  0.1327
 3426TIP3   OH231692   0.148   2.152   0.956  0.2235 -0.1191 -0.3089
 3426TIP3    H131693   0.105   2.182   1.036 -0.8419 -0.5566 -0.6985
 3426TIP3    H231694   0.228   2.206   0.950 -0.0698  0.4436  0.6346
 3427TIP3   OH231695   1.475   2.668  13.811  0.3770 -0.4214  0.7608
 3427TIP3    H131696   1.472   2.574  13.826 -1.2125 -0.8267 -1.5254
 3427TIP3    H231697   1.400   2.685  13.753  1.9104  1.8686 -0.7107
 3428TIP3   OH231698   3.416   0.580   3.225  0.0932 -0.2073 -0.4069
 3428TIP3    H131699   3.463   0.500   3.202  0.7577 -1.3865  4.1780
 3428TIP3    H231700   3.485   0.646   3.236 -0.4470  1.2343 -4.1459
 3429TIP3   OH231701   3.019   1.486  13.618  0.7856 -0.4595  0.7603
 3429TIP3    H131702   3.077   1.461  13.690  0.0527  2.4623  2.5432
 3429TIP3    H231703   2.983   1.571  13.644 -2.1137 -0.7876 -1.5594
 3430TIP3   OH231704   2.374   6.701   0.303 -0.0334 -0.2354 -0.3832
 3430TIP3    H131705   2.285   6.671   0.288 -0.9560  2.3784 -0.7122
 3430TIP3    H231706   2.420   6.686   0.221 -0.1861 -1.4496 -0.2601
 3431TIP3   OH231707   1.563   3.088  17.296 -0.5051 -0.4067 -0.3426
 3431TIP3    H131708   1.583   3.182  17.292  1.0019 -0.6049  1.2437
 3431TIP3    H231709   1.530   3.067  17.209 -0.1183  1.4296 -0.9884
 3432TIP3   OH231710   5.942   0.698  16.366  0.9406  0.4098  0.0500
 3432TIP3    H131711   5.899   0.781  16.346 -0.5418  0.5796  3.4142
 3432TIP3    H231712   6.003   0.719  16.437 -0.6003 -1.5780  2.0725
 3433TIP3   OH231713   5.756   2.799  15.436 -0.0046 -0.1108  0.1715
 3433TIP3    H131714   5.746   2.760  15.522 -2.4298  3.1487  1.5829
 3433TIP3    H231715   5.668   2.802  15.400  0.8576 -0.7036 -2.1625
 3434TIP3   OH231716   2.686   4.652   0.522  0.6129  0.0955 -0.0658
 3434TIP3    H131717   2.697   4.735   0.567 -0.3974  0.7676 -1.0224
 3434TIP3    H231718   2.707   4.586   0.588 -0.1875  1.0690  1.2055
 3435TIP3   OH231719   5.356   5.658  13.969 -0.1258  0.1296  0.8682
 3435TIP3    H131720   5.373   5.650  13.875  0.0718 -0.7007  0.9700
 3435TIP3    H231721   5.442   5.646  14.010 -0.2178  0.4515  1.1641
 3436TIP3   OH231722   3.287   2.209   2.338 -0.1070 -0.5012  0.1904
 3436TIP3    H131723   3.302   2.176   2.426  0.1765 -1.1348 -0.0877
 3436TIP3    H231724   3.242   2.138   2.292  1.3192 -0.9058 -0.6787
 3437TIP3   OH231725   1.930   1.577  12.493 -0.4985 -0.7302  0.0644
 3437TIP3    H131726   1.912   1.625  12.412  0.6464  0.0315  0.2281
 3437TIP3    H231727   1.967   1.494  12.464  0.6641 -0.1434 -0.2279
 3438TIP3   OH231728   1.053   5.975   0.493 -0.2377 -0.2301  0.5707
 3438TIP3    H131729   0.995   5.974   0.569  0.1120  1.2025  0.8908
 3438TIP3    H231730   1.096   6.060   0.497  1.7610 -1.1563  0.2554
 3439TIP3   OH231731   0.878   4.570   0.511  0.1879  0.3477 -0.0312
 3439TIP3    H131732   0.915   4.643   0.561 -3.0699  1.7876  0.5215
 3439TIP3    H231733   0.866   4.501   0.576 -0.5306  0.8406  0.3693
 3440TIP3   OH231734   3.448   6.729  14.505  0.1070 -0.6449  0.4026
 3440TIP3    H131735   3.363   6.685  14.498 -0.2630 -0.1815  1.7350
 3440TIP3    H231736   3.427   6.816  14.538  0.9261  0.2194 -1.2330
 3441TIP3   OH231737   3.912   5.678   2.503 -0.7468 -0.5510 -0.1209
 3441TIP3    H131738   3.897   5.584   2.495  0.6445 -0.6947 -1.4791
 3441TIP3    H231739   3.886   5.714   2.418  0.5286  0.0104 -0.3043
 3442TIP3   OH231740   6.751   5.074  17.135  0.0163  0.6617  0.2247
 3442TIP3    H131741   6.692   5.000  17.121  4.4980 -2.9348 -2.6497
 3442TIP3    H231742   6.800   5.052  17.214  0.7606  1.0317 -0.1209
 3443TIP3   OH231743   4.880   5.147  15.335  0.2977  0.3253 -0.4323
 3443TIP3    H131744   4.858   5.132  15.427  1.2897  0.0293 -0.2281
 3443TIP3    H231745   4.805   5.195  15.300  0.1792  1.0039  0.6893
 3444TIP3   OH231746   5.032   3.371   3.856 -0.1101 -0.0581 -0.3196
 3444TIP3    H131747   5.009   3.281   3.879 -1.0150  0.3737  0.5552
 3444TIP3    H231748   5.102   3.394   3.918 -0.6677  0.2019  0.2294
 3445TIP3   OH231749   4.768   0.541   3.141  0.1422 -0.9711 -0.0655
 3445TIP3    H131750   4.682   0.503   3.126 -0.1016 -0.8250  0.8604
 3445TIP3    H231751   4.827   0.493   3.084 -0.6695 -0.5576 -1.2747
 3446TIP3   OH231752   5.639   5.273  15.606 -0.0431 -0.9926 -0.6728
 3446TIP3    H131753   5.569   5.208  15.612 -1.0697  0.1651  0.4734
 3446TIP3    H231754   5.658   5.297  15.697 -0.1306  0.7497 -1.0680
 3447TIP3   OH231755   1.343   5.152   2.205 -0.3597 -0.1800  0.2951
 3447TIP3    H131756   1.262   5.190   2.172 -0.2840 -0.5445 -0.3263
 3447TIP3    H231757   1.341   5.169   2.299 -1.1305 -0.1327  0.2764
 3448TIP3   OH231758   0.515   5.164   3.220  0.0427 -0.6432  0.0374
 3448TIP3    H131759   0.530   5.130   3.132 -0.0389 -1.1383  0.2109
 3448TIP3    H231760   0.598   5.152   3.265  0.5353  0.9072 -0.3725
 3449TIP3   OH231761   5.633   2.236   1.443  0.0054  0.1896  0.4781
 3449TIP3    H131762   5.727   2.245   1.432  0.4293 -0.9774  2.6301
 3449TIP3    H231763   5.622   2.156   1.494 -2.1424  0.4120  0.4713
 3450TIP3   OH231764   4.227   2.607   2.606  0.0584  0.0759  0.2726
 3450TIP3    H131765   4.132   2.613   2.612 -0.0978 -2.1300  0.5732
 3450TIP3    H231766   4.247   2.515   2.622  2.2343  0.4392 -0.0437
 3451TIP3   OH231767   1.788   5.563  11.181 -0.0007 -0.7543  0.4007
 3451TIP3    H131768   1.782   5.470  11.162 -0.3454 -0.4483 -1.1719
 3451TIP3    H231769   1.755   5.606  11.102  3.4392  0.7711 -0.4034
 3452TIP3   OH231770   1.787   0.684   2.976 -0.0116 -0.2995  0.4761
 3452TIP3    H131771   1.755   0.606   3.021 -1.2748 -0.5266 -0.7405
 3452TIP3    H231772   1.720   0.750   2.993  2.0036  1.2879  3.2635
 3453TIP3   OH231773   5.396   0.688   6.121  0.2876  0.0209  0.0635
 3453TIP3    H131774   5.386   0.782   6.132  0.3395 -0.0459  0.7189
 3453TIP3    H231775   5.489   0.672   6.138  0.0416 -0.3039  1.1461
 3454TIP3   OH231776   2.789   3.017   5.557 -0.8843 -0.3057 -0.0705
 3454TIP3    H131777   2.810   3.003   5.649 -1.2501 -1.1511 -0.1051
 3454TIP3    H231778   2.777   3.112   5.548 -0.3079 -0.1634  0.6297
 3455TIP3   OH231779   1.931   4.654  13.719  0.3636 -0.0681 -0.4921
 3455TIP3    H131780   1.994   4.590  13.752  0.2930 -0.1515 -0.5198
 3455TIP3    H231781   1.907   4.620  13.632  1.9865  1.1172 -1.4620
 3456TIP3   OH231782   0.225   5.820  14.268 -0.2418 -0.3029  0.4592
 3456TIP3    H131783   0.138   5.814  14.306 -0.3203  0.3501  0.3965
 3456TIP3    H231784   0.227   5.752  14.200 -0.3982 -0.8914  1.0399
 3457TIP3   OH231785   5.726   3.790  16.768 -0.1004 -0.1204  0.2098
 3457TIP3    H131786   5.818   3.765  16.778  0.1568  1.0277  0.8427
 3457TIP3    H231787   5.699   3.818  16.855 -1.0345 -0.3853  0.0088
 3458TIP3   OH231788   1.248   5.848  17.211 -0.4990 -0.0437  0.1342
 3458TIP3    H131789   1.228   5.892  17.294 -0.2062 -0.0609  0.2147
 3458TIP3    H231790   1.191   5.771  17.210  0.9509 -1.1973  1.2917
 3459TIP3   OH231791   5.919   0.733  13.848  0.3383 -0.2653 -0.1116
 3459TIP3    H131792   5.880   0.674  13.911 -1.5387  0.1707 -0.8171
 3459TIP3    H231793   5.941   0.677  13.773  3.0554 -0.8813  1.0315
 3460TIP3   OH231794   0.063   2.983   2.045 -0.3968  0.1692 -0.1874
 3460TIP3    H131795  -0.008   3.019   1.991  1.0937  1.8938 -1.1205
 3460TIP3    H231796   0.136   3.044   2.032  1.4416 -1.8152  0.3232
 3461TIP3   OH231797   2.302   4.030  17.117 -0.0105  0.1961  0.2485
 3461TIP3    H131798   2.386   3.990  17.138  0.5044  0.6630 -0.8380
 3461TIP3    H231799   2.302   4.113  17.166 -0.3431 -0.3240  1.1462
 3462TIP3   OH231800   3.239   0.855   3.562 -0.0281 -0.1026 -0.0223
 3462TIP3    H131801   3.191   0.860   3.479 -1.2308 -0.3660  0.6278
 3462TIP3    H231802   3.274   0.766   3.564 -1.4439 -0.6705  0.4989
 3463TIP3   OH231803   2.482   6.242   6.279  0.4437  0.0747  0.2460
 3463TIP3    H131804   2.390   6.270   6.276  0.9931  1.9452 -0.8459
 3463TIP3    H231805   2.515   6.277   6.362  0.4370  0.3796  0.1228
 3464TIP3   OH231806   3.410   5.226   1.936 -0.1989  0.1830 -0.7009
 3464TIP3    H131807   3.383   5.135   1.918 -0.0910  0.0787 -0.3453
 3464TIP3    H231808   3.500   5.218   1.967  0.0350  0.4761 -1.3025
 3465TIP3   OH231809   5.820   0.845   3.032 -0.0435  0.0259  0.0408
 3465TIP3    H131810   5.783   0.764   3.065 -0.3916 -0.0450 -0.5018
 3465TIP3    H231811   5.744   0.893   2.996  0.4031 -0.2105 -1.2735
 3466TIP3   OH231812   0.227   1.910   3.020  0.0008 -0.1032  0.5708
 3466TIP3    H131813   0.215   1.870   2.934  1.8687  0.1274  0.1760
 3466TIP3    H231814   0.301   1.969   3.010  0.0876  0.1436  2.2759
 3467TIP3   OH231815   5.122   3.703  14.300  0.5986  0.3314  0.7818
 3467TIP3    H131816   5.205   3.667  14.331  0.7868 -3.1150 -2.9748
 3467TIP3    H231817   5.056   3.638  14.325 -0.7388  2.0022  1.8474
 3468TIP3   OH231818   4.794   6.688  14.585 -0.1498  0.2702 -0.2009
 3468TIP3    H131819   4.773   6.720  14.673  0.0809 -0.3660  0.0943
 3468TIP3    H231820   4.712   6.652  14.552 -0.7861  2.4221 -1.1141
 3469TIP3   OH231821   3.045   6.390  13.355  0.2707  0.1951  0.3701
 3469TIP3    H131822   3.041   6.358  13.445 -0.1919 -0.9655 -0.0373
 3469TIP3    H231823   3.095   6.324  13.308  0.5858  0.8352 -0.2108
 3470TIP3   OH231824   6.227   2.929   5.732  0.1612  0.8176 -0.0787
 3470TIP3    H131825   6.218   2.878   5.652  1.2181  0.9989 -0.3264
 3470TIP3    H231826   6.160   2.997   5.725  0.5296  1.0915 -1.0084
 3471TIP3   OH231827   4.930   2.167   5.666  0.4611  0.2516  0.0883
 3471TIP3    H131828   4.852   2.161   5.721  1.1391  0.6618  1.1117
 3471TIP3    H231829   4.897   2.154   5.577 -1.1236  2.4818  0.2565
 3472TIP3   OH231830   1.176   4.644  17.012 -0.4670 -0.0664  0.0751
 3472TIP3    H131831   1.207   4.554  17.003  1.2355  0.4776  0.3037
 3472TIP3    H231832   1.080   4.637  17.005 -0.3287 -1.8165 -0.4289
 3473TIP3   OH231833   1.479   5.083  16.118  0.1168  0.2124  0.1767
 3473TIP3    H131834   1.520   5.151  16.171  1.8559 -0.3075 -0.4406
 3473TIP3    H231835   1.407   5.128  16.074  1.3781  1.7321 -0.4171
 3474TIP3   OH231836   0.537   5.788   5.240  0.6269 -0.2954 -0.3175
 3474TIP3    H131837   0.537   5.702   5.281 -0.8644 -0.1171  0.1212
 3474TIP3    H231838   0.483   5.842   5.298  1.9112  1.0743 -0.3338
 3475TIP3   OH231839   5.964   2.966  16.601  0.6002  0.0190 -0.6180
 3475TIP3    H131840   5.931   3.056  16.603  0.7773  0.1045 -1.2848
 3475TIP3    H231841   5.903   2.917  16.657 -0.2365  0.3082 -1.2550
 3476TIP3   OH231842   6.547   2.630   6.473 -0.1145  0.5813 -0.0350
 3476TIP3    H131843   6.480   2.663   6.532  0.3048  0.2570  0.6345
 3476TIP3    H231844   6.627   2.629   6.525 -0.0353 -1.1351 -0.1374
 3477TIP3   OH231845   1.530   0.744  13.008  0.0486 -0.9477  0.3183
 3477TIP3    H131846   1.474   0.694  12.948 -0.3178 -1.7505  1.3068
 3477TIP3    H231847   1.615   0.745  12.965 -0.3413 -1.0212 -0.4849
 3478TIP3   OH231848   6.337   3.402  17.149 -0.1086  0.2708  0.1416
 3478TIP3    H131849   6.395   3.326  17.158 -0.6114 -0.4713 -2.3575
 3478TIP3    H231850   6.360   3.457  17.224  2.4843 -0.8729  0.3146
 3479TIP3   OH231851   6.376   4.801   5.724 -0.6891  0.0803 -0.1647
 3479TIP3    H131852   6.320   4.724   5.711  0.2875 -0.3901 -1.9090
 3479TIP3    H231853   6.354   4.859   5.650 -0.2248  0.7367  0.2010
 3480TIP3   OH231854   1.882   3.981  15.690  0.1401  0.5139  0.4628
 3480TIP3    H131855   1.803   3.985  15.636  0.1386  1.9037  0.5201
 3480TIP3    H231856   1.940   3.922  15.643 -0.7682 -0.1997  0.1982
 3481TIP3   OH231857   4.639   2.296  13.171 -0.7865 -0.4345 -0.0998
 3481TIP3    H131858   4.625   2.288  13.265 -0.0868 -0.9013 -0.0261
 3481TIP3    H231859   4.657   2.206  13.142 -0.7540 -0.2592 -0.6355
 3482TIP3   OH231860   1.660   2.875  15.196 -0.5664 -0.1490 -0.4303
 3482TIP3    H131861   1.666   2.927  15.115 -1.6116  1.1811  0.2931
 3482TIP3    H231862   1.569   2.845  15.197 -0.4942 -0.3505  0.1366
 3483TIP3   OH231863   2.140   1.841  12.127 -0.7018  0.2626  0.0763
 3483TIP3    H131864   2.181   1.833  12.214  0.1105 -0.2655 -0.3393
 3483TIP3    H231865   2.100   1.755  12.111  0.9959 -0.3934 -0.9486
 3484TIP3   OH231866   5.848   4.867  10.903  0.3650  0.6648 -0.6683
 3484TIP3    H131867   5.910   4.799  10.879  0.3776  1.3518 -2.7977
 3484TIP3    H231868   5.796   4.881  10.824 -2.0118  0.6825  0.7695
 3485TIP3   OH231869   1.596   6.721   5.612  0.6407 -0.1056  0.0039
 3485TIP3    H131870   1.618   6.693   5.701 -0.7093 -2.2028 -0.2413
 3485TIP3    H231871   1.518   6.776   5.624  2.1728  2.1645  0.3040
 3486TIP3   OH231872   2.202   1.810   2.478  0.4669  0.1784 -0.6423
 3486TIP3    H131873   2.148   1.888   2.489  1.2264  0.5481  0.7478
 3486TIP3    H231874   2.142   1.736   2.489 -0.0847  0.5651 -1.0205
 3487TIP3   OH231875   6.679   1.146  12.267  0.1260  0.3451  0.1829
 3487TIP3    H131876   6.590   1.165  12.237 -0.4864 -1.8094  0.4649
 3487TIP3    H231877   6.692   1.205  12.341 -0.0474  2.5104 -1.4114
 3488TIP3   OH231878   5.512   0.932  12.421  0.1027  0.3994  0.2283
 3488TIP3    H131879   5.476   0.897  12.339 -0.5212  1.0346  0.2211
 3488TIP3    H231880   5.575   0.998  12.392  0.4158  0.1147  0.2554
 3489TIP3   OH231881   2.835   4.131  11.799  0.1575  0.4413 -0.3041
 3489TIP3    H131882   2.896   4.095  11.735  1.3479 -0.2074  1.1301
 3489TIP3    H231883   2.822   4.060  11.862 -1.6811  0.7547 -0.2710
 3490TIP3   OH231884   2.432   1.112  17.027  0.2746 -0.8708  0.2255
 3490TIP3    H131885   2.493   1.074  17.090 -2.5151 -0.2984  3.6554
 3490TIP3    H231886   2.354   1.057  17.034 -1.4320  1.4045  0.1080
 3491TIP3   OH231887   0.774   3.955  11.303  0.2442  0.6031  0.0395
 3491TIP3    H131888   0.775   3.929  11.211  0.0677  1.3892 -0.1996
 3491TIP3    H231889   0.811   3.881  11.350  2.9371  1.2433 -0.9352
 3492TIP3   OH231890   0.674   6.506  14.587 -0.0107 -0.4935 -0.4466
 3492TIP3    H131891   0.752   6.500  14.642  0.2635  1.5794 -0.5283
 3492TIP3    H231892   0.649   6.415  14.570  1.9888 -1.1983  0.1312
 3493TIP3   OH231893   4.344   0.781  15.250  0.5333  0.2604  0.5948
 3493TIP3    H131894   4.422   0.834  15.232 -0.7385  1.1061 -3.7997
 3493TIP3    H231895   4.273   0.844  15.250 -0.5354 -0.9088  0.1256
 3494TIP3   OH231896   2.732   5.287  12.783 -0.7813  0.4611 -0.6551
 3494TIP3    H131897   2.823   5.306  12.760 -0.0820 -0.2966  1.2441
 3494TIP3    H231898   2.684   5.296  12.701  0.9967  0.8938 -1.7059
 3495TIP3   OH231899   4.720   0.586   4.090  0.6506  0.1489  0.3181
 3495TIP3    H131900   4.637   0.612   4.131 -0.5472 -0.9699 -1.2569
 3495TIP3    H231901   4.694   0.546   4.007  2.7971 -0.1765 -0.2587
 3496TIP3   OH231902   1.185   0.073  16.950 -0.2433 -0.1851  0.2074
 3496TIP3    H131903   1.260   0.016  16.931  0.0049 -0.4166  1.7455
 3496TIP3    H231904   1.213   0.125  17.025 -1.2949  0.4036  0.2102
 3497TIP3   OH231905   6.671   6.107  12.882  0.7140 -0.4213 -0.4110
 3497TIP3    H131906   6.684   6.055  12.962 -0.2200  0.4216  0.3101
 3497TIP3    H231907   6.751   6.091  12.831  1.4174 -0.8364  0.7658
 3498TIP3   OH231908   4.018   4.077   3.778  0.1592 -0.5921  0.3452
 3498TIP3    H131909   3.947   4.054   3.837 -0.9765  0.1133 -0.7124
 3498TIP3    H231910   3.997   4.033   3.696  1.4574 -1.1609  0.2872
 3499TIP3   OH231911   4.263   4.163   0.312 -0.1512 -0.3223 -0.0492
 3499TIP3    H131912   4.248   4.207   0.228  0.4954 -0.9731 -0.5230
 3499TIP3    H231913   4.358   4.153   0.317 -0.2616 -1.4251  0.1528
 3500TIP3   OH231914   4.208   6.022  13.925  0.1602 -0.3252  0.3384
 3500TIP3    H131915   4.146   6.093  13.943  0.2186  0.0104 -0.7261
 3500TIP3    H231916   4.281   6.037  13.986  0.7538  1.2804 -0.7153
 3501TIP3   OH231917   2.334   2.093  16.927  0.3448  0.3131  0.4057
 3501TIP3    H131918   2.417   2.047  16.917 -0.6081 -1.3787  0.0372
 3501TIP3    H231919   2.359   2.186  16.926  2.1244 -0.1185 -0.5869
 3502TIP3   OH231920   3.152   2.491  16.877 -0.7071  0.1252 -1.0511
 3502TIP3    H131921   3.120   2.429  16.812 -0.5637 -0.6820 -0.3703
 3502TIP3    H231922   3.115   2.459  16.960  3.7736 -2.4692  0.2907
 3503TIP3   OH231923   0.892   6.353  13.894  0.1194 -0.4481  0.0065
 3503TIP3    H131924   0.915   6.330  13.804 -0.5212 -0.7425 -0.0898
 3503TIP3    H231925   0.807   6.396  13.887  0.6264  0.6504  0.3476
 3504TIP3   OH231926   4.899   4.652   3.990  0.0560 -0.2845  0.0820
 3504TIP3    H131927   4.930   4.626   4.076 -3.4380  0.5833  1.7896
 3504TIP3    H231928   4.806   4.628   3.990 -0.4761  1.3276 -2.7773
 3505TIP3   OH231929   1.037   2.146  15.225 -0.2114  0.0662  0.0608
 3505TIP3    H131930   1.009   2.063  15.264  0.0836 -0.1698 -0.2256
 3505TIP3    H231931   1.004   2.213  15.285 -1.5657 -0.1825 -0.3825
 3506TIP3   OH231932   3.568   1.337  12.193 -0.0390  0.0454 -0.0440
 3506TIP3    H131933   3.577   1.311  12.285 -0.4078 -2.0381 -0.5609
 3506TIP3    H231934   3.548   1.431  12.197 -0.5618 -0.1031  2.0291
 3507TIP3   OH231935   4.995   5.351  12.566 -0.1668 -0.4375  0.4853
 3507TIP3    H131936   5.013   5.259  12.589 -0.1815 -0.6510 -0.3269
 3507TIP3    H231937   5.005   5.354  12.471 -1.1345  0.1914  0.3924
 3508TIP3   OH231938   4.805   1.761   1.569 -0.0889  0.5404  0.0085
 3508TIP3    H131939   4.787   1.829   1.634 -0.6484  0.4960 -0.0953
 3508TIP3    H231940   4.851   1.693   1.618 -0.6424  0.4392  0.3992
 3509TIP3   OH231941   3.354   4.471   1.825  0.0058 -0.0058 -0.0665
 3509TIP3    H131942   3.365   4.506   1.913  0.1674 -0.1935 -0.0118
 3509TIP3    H231943   3.375   4.378   1.833  0.9474  0.1556 -0.4824
 3510TIP3   OH231944   4.904   2.569   0.544  0.3461  0.1872 -0.3668
 3510TIP3    H131945   4.960   2.492   0.549 -0.4640 -0.4136 -0.1858
 3510TIP3    H231946   4.958   2.636   0.503  1.3086 -0.2557  0.1374
 3511TIP3   OH231947   0.879   0.307   4.257  0.6406  0.0524  1.0885
 3511TIP3    H131948   0.958   0.361   4.253  1.6922 -1.4705  0.5969
 3511TIP3    H231949   0.846   0.307   4.167  0.1940  0.5259  1.2528
 3512TIP3   OH231950   2.695   4.021   2.566 -0.0535 -0.6849  0.2460
 3512TIP3    H131951   2.666   3.967   2.493 -0.0757 -0.0446 -0.2295
 3512TIP3    H231952   2.637   3.997   2.638 -1.6685  0.4287 -0.6357
 3513TIP3   OH231953   0.255   5.153  14.857 -0.7885 -1.2536 -0.0033
 3513TIP3    H131954   0.163   5.164  14.883 -1.0368 -2.7096 -0.1654
 3513TIP3    H231955   0.298   5.233  14.887 -2.3022 -0.0409 -0.8744
 3514TIP3   OH231956   5.875   1.311  15.203 -0.3552  0.9552 -0.3616
 3514TIP3    H131957   5.956   1.264  15.183 -0.9448 -0.6925  0.8174
 3514TIP3    H231958   5.812   1.278  15.138 -0.9382 -0.4901  0.8579
 3515TIP3   OH231959   4.680   3.829  16.281 -0.3240  0.3914  0.0924
 3515TIP3    H131960   4.623   3.815  16.357 -0.3175 -2.2211 -0.2756
 3515TIP3    H231961   4.621   3.858  16.212 -0.9156 -0.4207  0.2331
 3516TIP3   OH231962   0.332   6.434  15.117  0.0495  0.2768 -0.5115
 3516TIP3    H131963   0.248   6.464  15.082  0.5437 -0.5475 -2.5859
 3516TIP3    H231964   0.396   6.464  15.052  1.0406 -1.3903 -0.3542
 3517TIP3   OH231965   4.869   4.633  11.339 -0.5623  0.5993  0.1519
 3517TIP3    H131966   4.865   4.537  11.333  3.2032  0.0948  2.6622
 3517TIP3    H231967   4.811   4.655  11.412 -2.0586  0.3976 -0.9324
 3518TIP3   OH231968   6.361   0.521  11.135 -0.1856  0.2399  0.1930
 3518TIP3    H131969   6.322   0.436  11.152  0.9180 -0.4915 -0.8074
 3518TIP3    H231970   6.446   0.518  11.181  0.6400  0.0951 -1.2791
 3519TIP3   OH231971   5.085   6.466  14.038  0.0302  0.0048  0.3398
 3519TIP3    H131972   5.168   6.429  14.008 -0.9613 -1.4607 -0.7253
 3519TIP3    H231973   5.107   6.555  14.065  1.9972 -0.4467  0.4050
 3520TIP3   OH231974   1.183   5.997  11.026 -0.3865 -0.4605  0.0802
 3520TIP3    H131975   1.269   5.962  11.004  0.6974  1.6071  0.8943
 3520TIP3    H231976   1.190   6.091  11.014 -2.0004 -0.0344  1.8706
 3521TIP3   OH231977   6.436   4.053   3.255  0.2804 -0.4279  0.0690
 3521TIP3    H131978   6.418   3.960   3.248 -2.3000  0.1130 -2.9831
 3521TIP3    H231979   6.357   4.091   3.294  0.2465  0.6870 -1.0069
 3522TIP3   OH231980   5.892   3.262  15.617 -0.7201 -0.1163 -0.0373
 3522TIP3    H131981   5.955   3.193  15.638 -0.9119 -0.8613 -1.7849
 3522TIP3    H231982   5.814   3.241  15.670  0.1705  0.3901  1.5575
 3523TIP3   OH231983   1.294   5.046  17.127  0.4720  0.0085  0.2118
 3523TIP3    H131984   1.228   5.047  17.057  0.7396  0.7525 -0.0424
 3523TIP3    H231985   1.252   4.998  17.199  0.3837 -1.2319 -0.6314
 3524TIP3   OH231986   2.518   4.296  10.643  0.5217  0.2253  0.3146
 3524TIP3    H131987   2.576   4.223  10.665  1.2963  0.7638  0.1032
 3524TIP3    H231988   2.575   4.359  10.599 -0.4639  0.2920 -0.8977
 3525TIP3   OH231989   0.943   4.220   5.069  0.7209  0.0870 -0.1630
 3525TIP3    H131990   0.954   4.244   4.977  1.3232 -1.1970 -0.4492
 3525TIP3    H231991   0.937   4.124   5.068  2.7068 -0.1177  1.3015
 3526TIP3   OH231992   0.316   5.307   0.331  0.1023  0.3618 -0.1693
 3526TIP3    H131993   0.272   5.308   0.246  0.3526  1.1452 -0.3014
 3526TIP3    H231994   0.255   5.351   0.390  0.0640  0.1021 -0.0142
 3527TIP3   OH231995   2.948   6.642  11.103 -0.3133 -0.0206  0.6303
 3527TIP3    H131996   3.018   6.626  11.167  0.2362 -1.0601 -0.1861
 3527TIP3    H231997   2.868   6.647  11.155 -0.3020 -3.6081  1.3000
 3528TIP3   OH231998   0.937   0.848   0.515  0.3216  0.2921 -0.3223
 3528TIP3    H131999   0.912   0.897   0.436 -1.7179 -1.3804 -0.7905
 3528TIP3    H232000   0.866   0.865   0.577  0.9436  0.0304  0.4822
 3529TIP3   OH232001   3.825   6.443  17.334 -0.1307 -0.2395  0.1687
 3529TIP3    H132002   3.797   6.520  17.384 -1.8874 -0.5831 -0.2223
 3529TIP3    H232003   3.862   6.384  17.399 -0.9857 -0.0514  0.8458
 3530TIP3   OH232004   3.093   0.649   5.035 -0.3502 -0.3275  0.9933
 3530TIP3    H132005   3.076   0.666   5.128 -2.9213  0.2245  0.5067
 3530TIP3    H232006   3.188   0.663   5.025  0.0584 -0.7604  3.5701
 3531TIP3   OH232007   6.228   6.763  13.429  0.5293 -0.1397  0.0774
 3531TIP3    H132008   6.222   6.761  13.525 -0.9195 -0.9447  0.0061
 3531TIP3    H232009   6.271   6.681  13.406  0.6320 -0.0727  0.0312
 3532TIP3   OH232010   4.379   1.648  11.843 -0.6096  0.2542  0.0719
 3532TIP3    H132011   4.342   1.567  11.876 -2.0831  1.0867  0.5210
 3532TIP3    H232012   4.362   1.713  11.912 -0.1124  1.1128 -0.5877
 3533TIP3   OH232013   5.154   5.527  16.778 -0.2531  0.5858 -0.3478
 3533TIP3    H132014   5.127   5.532  16.870  0.7300  0.4403 -0.0427
 3533TIP3    H232015   5.185   5.437  16.766  1.1211  1.0327 -0.3703
 3534TIP3   OH232016   3.834   1.507   4.843 -0.2508 -0.2569 -0.1352
 3534TIP3    H132017   3.866   1.578   4.898 -0.2613  1.0196 -1.7151
 3534TIP3    H232018   3.911   1.450   4.831  0.2838  0.5118 -0.4206
 3535TIP3   OH232019   2.587   2.906  11.506  0.3063 -0.2164  0.0228
 3535TIP3    H132020   2.619   2.933  11.592  0.2324  1.5311 -0.4667
 3535TIP3    H232021   2.561   2.815  11.518 -2.0147  0.6363  2.5086
 3536TIP3   OH232022   4.351   6.734  12.892 -0.7589 -0.4412  0.0221
 3536TIP3    H132023   4.319   6.661  12.840 -0.7750 -1.1909  1.0380
 3536TIP3    H232024   4.346   6.703  12.983 -0.3946  0.6780  0.4497
 3537TIP3   OH232025   3.160   1.915   2.786 -0.8644 -0.1523  0.3210
 3537TIP3    H132026   3.225   1.873   2.843 -0.5590 -2.2089 -1.4199
 3537TIP3    H232027   3.081   1.863   2.796 -1.3704  0.5702  0.2136
 3538TIP3   OH232028   1.870   6.748  11.759 -0.3756  0.3177  0.2200
 3538TIP3    H132029   1.835   6.660  11.743 -0.3550  0.4651 -0.7308
 3538TIP3    H232030   1.964   6.739  11.746 -0.4561  0.6290 -0.6920
 3539TIP3   OH232031   4.822   3.699  11.133  0.2321 -0.2182 -0.0190
 3539TIP3    H132032   4.803   3.690  11.039 -1.0944 -2.1412  0.3822
 3539TIP3    H232033   4.862   3.786  11.141 -1.5157  0.8752 -2.0733
 3540TIP3   OH232034   6.104   6.349   3.188  0.4062  0.8459  0.0562
 3540TIP3    H132035   6.102   6.263   3.231  1.5505  0.6969 -0.1501
 3540TIP3    H232036   6.067   6.333   3.101 -0.4798  0.8215  0.4297
 3541TIP3   OH232037   5.194   1.680   3.078 -0.2779  0.1647  0.1817
 3541TIP3    H132038   5.243   1.703   3.157  0.0640 -0.7226  0.2315
 3541TIP3    H232039   5.103   1.679   3.106 -0.2459  0.8018  0.3322
 3542TIP3   OH232040   1.661   5.678  10.899 -0.7823  0.2399 -0.2277
 3542TIP3    H132041   1.578   5.723  10.886 -1.5151 -0.0917  2.7311
 3542TIP3    H232042   1.727   5.741  10.870 -1.9471  1.7494  0.2886
 3543TIP3   OH232043   3.706   4.373  12.523 -0.3306 -0.8180 -0.2927
 3543TIP3    H132044   3.770   4.302  12.527  1.4253  0.6447 -0.9809
 3543TIP3    H232045   3.727   4.419  12.442  1.2887  2.8316  1.9164
 3544TIP3   OH232046   0.289   0.083  13.432  0.8247 -0.0369  0.4721
 3544TIP3    H132047   0.364   0.033  13.400  0.5542 -0.7197  0.9049
 3544TIP3    H232048   0.297   0.083  13.527 -0.1343 -0.7751  0.5706
 3545TIP3   OH232049   1.968   0.153   0.961 -0.4494  0.1119  0.8495
 3545TIP3    H132050   1.878   0.135   0.987 -0.6193 -0.0217  0.1641
 3545TIP3    H232051   1.965   0.164   0.866  0.6295 -2.3339  0.4536
 3546TIP3   OH232052   0.341   3.085   3.659  0.0189 -0.1698  0.6529
 3546TIP3    H132053   0.295   3.088   3.575  1.3135 -0.0748 -0.0718
 3546TIP3    H232054   0.418   3.030   3.643  0.9347  0.8444  1.4436
 3547TIP3   OH232055   1.880   2.352   5.433 -0.5497 -0.2473  0.0777
 3547TIP3    H132056   1.881   2.373   5.340  2.8557 -1.7317 -0.3658
 3547TIP3    H232057   1.901   2.434   5.476  2.6122 -0.3979 -0.9164
 3548TIP3   OH232058   4.000   1.354  14.293  0.3311  0.6175  0.1126
 3548TIP3    H132059   3.906   1.338  14.291  0.5625 -1.1407  0.7911
 3548TIP3    H232060   4.014   1.405  14.373  0.0915 -0.4224  0.8405
 3549TIP3   OH232061   6.028   2.673  12.715 -0.2185 -0.3520  0.3425
 3549TIP3    H132062   6.020   2.760  12.755 -1.4408 -0.9036  1.3854
 3549TIP3    H232063   5.999   2.684  12.625 -2.4543 -0.0440  1.0348
 3550TIP3   OH232064   3.824   2.693  13.784  0.6714  0.3110 -0.1439
 3550TIP3    H132065   3.893   2.657  13.840  2.0580  1.2937 -1.1728
 3550TIP3    H232066   3.836   2.650  13.700 -1.1228 -0.8181  0.1226
 3551TIP3   OH232067   6.024   1.591  11.578 -0.5738  0.3024 -0.0939
 3551TIP3    H132068   6.016   1.663  11.515 -2.8176 -0.3106 -0.5946
 3551TIP3    H232069   6.070   1.522  11.529 -0.2831  0.6328 -0.2952
 3552TIP3   OH232070   3.970   5.944  15.180 -0.0432 -0.4661  0.3931
 3552TIP3    H132071   3.928   5.923  15.096  0.1144 -0.3076  0.2732
 3552TIP3    H232072   3.900   5.985  15.232  0.2887  1.0790 -0.3063
 3553TIP3   OH232073   3.578   5.626   4.449 -0.2409  0.1984 -0.2033
 3553TIP3    H132074   3.540   5.598   4.533  0.5835  1.1958  0.5287
 3553TIP3    H232075   3.619   5.711   4.469  0.8321 -0.0271 -1.3844
 3554TIP3   OH232076   5.497   2.630  13.512 -0.2554  0.1887  0.0290
 3554TIP3    H132077   5.536   2.585  13.587  0.1362 -0.0777 -0.3348
 3554TIP3    H232078   5.449   2.561  13.465 -0.6793  0.3964  0.1466
 3555TIP3   OH232079   6.516   4.296  13.438  0.2837  0.1745  0.2995
 3555TIP3    H132080   6.432   4.339  13.421 -0.3474 -1.1613 -0.0935
 3555TIP3    H232081   6.555   4.347  13.509 -0.7057  1.0279  0.2479
 3556TIP3   OH232082   4.464   5.722  15.417  0.1201 -0.1371  0.4783
 3556TIP3    H132083   4.413   5.691  15.342  4.4055 -4.3571 -1.2413
 3556TIP3    H232084   4.504   5.804  15.387  0.3766 -0.8548 -1.2713
 3557TIP3   OH232085   5.459   5.822  13.170 -0.5598 -0.0360  0.1536
 3557TIP3    H132086   5.444   5.916  13.180  0.2890 -0.0964  2.9123
 3557TIP3    H232087   5.482   5.810  13.078 -1.5510  2.3052 -0.4495
 3558TIP3   OH232088   5.527   4.403  12.119 -0.6507 -0.0367 -0.2125
 3558TIP3    H132089   5.579   4.403  12.200 -0.2751  0.6219 -0.4493
 3558TIP3    H232090   5.578   4.349  12.059 -1.6283 -1.7261  0.4126
 3559TIP3   OH232091   0.867   4.564  17.259  0.0116 -0.2474 -0.3021
 3559TIP3    H132092   0.902   4.636  17.311 -0.0513 -0.9368  0.7209
 3559TIP3    H232093   0.826   4.607  17.183  2.3993  0.6212 -1.1945
 3560TIP3   OH232094   5.663   0.194   2.489 -0.0807  0.1640 -0.0509
 3560TIP3    H132095   5.677   0.101   2.471 -0.1964  0.1721 -0.1855
 3560TIP3    H232096   5.625   0.229   2.408  0.5773  0.4720 -0.2337
 3561TIP3   OH232097   3.818   6.296  12.328 -0.2840 -0.2476 -0.4741
 3561TIP3    H132098   3.851   6.211  12.298  2.4297  0.4231  0.3399
 3561TIP3    H232099   3.847   6.357  12.261 -0.7614  0.2519 -0.2268
 3562TIP3   OH232100   5.586   5.126   3.520 -0.1173 -0.0054 -0.4412
 3562TIP3    H132101   5.609   5.040   3.556 -1.8246 -1.4691 -2.5339
 3562TIP3    H232102   5.661   5.150   3.467  0.9256  0.4731  1.1993
 3563TIP3   OH232103   1.030   6.700  12.085  0.5106  0.0096 -0.2713
 3563TIP3    H132104   1.060   6.715  12.175  0.5639 -0.7711 -0.1497
 3563TIP3    H232105   1.078   6.765  12.033 -0.5106  1.3709  0.4211
 3564TIP3   OH232106   1.685   4.953  14.084  0.4802  0.4131  0.2248
 3564TIP3    H132107   1.774   4.938  14.055 -0.0074  2.5599 -2.8318
 3564TIP3    H232108   1.695   5.002  14.166  2.0895  0.0489  0.2765
 3565TIP3   OH232109   1.846   4.467  17.339  0.0089 -0.0628  0.0503
 3565TIP3    H132110   1.882   4.524  17.270 -1.7280  0.4666 -0.4785
 3565TIP3    H232111   1.912   4.468  17.408  1.0951  0.6648 -0.9625
 3566TIP3   OH232112   6.005   2.369   0.373 -0.3669  0.0837  0.2724
 3566TIP3    H132113   5.939   2.412   0.427  0.5397 -0.1773  1.6463
 3566TIP3    H232114   6.031   2.292   0.424  1.3942  0.4861  0.0250
 3567TIP3   OH232115   1.524   3.146  16.036  0.6070 -0.1481 -0.2958
 3567TIP3    H132116   1.613   3.110  16.032  0.2392 -1.2687  0.8924
 3567TIP3    H232117   1.522   3.196  16.117 -0.3864 -1.7362  0.7068
 3568TIP3   OH232118   6.202   5.931  15.280 -0.4688 -0.3483  1.0787
 3568TIP3    H132119   6.230   5.929  15.189  0.6310  0.5457  1.3626
 3568TIP3    H232120   6.200   5.840  15.307  0.5240 -0.5539  0.5236
 3569TIP3   OH232121   4.430   3.878  12.055 -0.7123  0.3511 -0.0870
 3569TIP3    H132122   4.464   3.829  11.980 -1.4685  0.9356 -0.8323
 3569TIP3    H232123   4.335   3.871  12.046 -0.8093  0.7908  0.5759
 3570TIP3   OH232124   3.268   1.230   2.646  0.1990  0.2406  0.2806
 3570TIP3    H132125   3.247   1.174   2.572 -0.3080  1.7252 -0.7529
 3570TIP3    H232126   3.360   1.214   2.664  0.0739 -0.8667 -0.0104
 3571TIP3   OH232127   0.866   4.259  12.979  0.1802  0.0255 -0.1507
 3571TIP3    H132128   0.820   4.263  13.063  1.0895  1.3631  0.3064
 3571TIP3    H232129   0.827   4.184  12.935 -0.6653 -0.4119  1.2600
 3572TIP3   OH232130   1.867   0.949   5.469 -0.0990  0.2023 -0.0419
 3572TIP3    H132131   1.798   0.910   5.416  1.7162 -2.2390 -0.8343
 3572TIP3    H232132   1.938   0.965   5.407  1.6324 -1.5677  1.3516
 3573TIP3   OH232133   4.032   1.792   0.615 -1.0129  0.3585 -0.1425
 3573TIP3    H132134   4.072   1.855   0.675 -2.0876 -0.9339  2.0561
 3573TIP3    H232135   4.064   1.818   0.529  2.3499  1.0351  1.1305
 3574TIP3   OH232136   0.660   4.225  11.229 -0.3532  0.1135  0.2843
 3574TIP3    H132137   0.646   4.136  11.196  0.4643  0.0615  0.0556
 3574TIP3    H232138   0.706   4.269  11.159  1.1950  0.0785  1.2328
 3575TIP3   OH232139   5.007   3.761   4.973 -0.4837 -0.1681  0.3095
 3575TIP3    H132140   5.001   3.710   4.892 -1.8712 -1.9291  1.4310
 3575TIP3    H232141   5.091   3.807   4.966  0.7356 -2.3745 -0.9502
 3576TIP3   OH232142   4.523   6.546   0.594 -0.5543  0.6922 -0.1482
 3576TIP3    H132143   4.459   6.552   0.524 -0.2388 -0.9943 -0.6443
 3576TIP3    H232144   4.591   6.487   0.560  0.0708  0.5477  1.2294
 3577TIP3   OH232145   6.337   5.465   1.584 -0.5537  0.2844  0.4476
 3577TIP3    H132146   6.269   5.516   1.627 -1.5366  0.3368 -1.1057
 3577TIP3    H232147   6.398   5.531   1.549 -0.2726  0.2734  0.9055
 3578TIP3   OH232148   2.006   4.062   3.291 -0.5903 -0.3738  0.3531
 3578TIP3    H132149   1.999   4.155   3.268 -2.9334 -0.2540  1.2954
 3578TIP3    H232150   2.100   4.046   3.296 -0.1043  2.2688  1.3815
 3579TIP3   OH232151   0.113   4.000  13.767  0.3671  0.3231  0.2601
 3579TIP3    H132152   0.089   4.092  13.755 -2.3208 -0.3117  0.1365
 3579TIP3    H232153   0.158   3.977  13.686  1.1681  1.5355  0.3339
 3580TIP3   OH232154   0.838   3.711   2.589  0.0816 -0.3503  0.1649
 3580TIP3    H132155   0.848   3.795   2.543 -0.6147 -0.3885 -0.0577
 3580TIP3    H232156   0.745   3.706   2.610  0.7496  1.4334  4.8905
 3581TIP3   OH232157   4.960   2.209  11.486  0.3175  0.3630 -0.0572
 3581TIP3    H132158   4.892   2.227  11.420 -0.1182 -1.1169 -0.0725
 3581TIP3    H232159   5.030   2.167  11.436  0.8676  1.0693  0.1110
 3582TIP3   OH232160   2.842   2.714  16.029 -0.4080  0.1944 -0.6714
 3582TIP3    H132161   2.767   2.751  15.983 -0.2144  2.4219  0.6213
 3582TIP3    H232162   2.917   2.762  15.994 -0.0911  0.8711  0.8424
 3583TIP3   OH232163   4.685   5.359  15.274 -0.4950  0.4428 -0.0390
 3583TIP3    H132164   4.699   5.423  15.204  0.9345 -1.0253 -1.1561
 3583TIP3    H232165   4.640   5.286  15.232  0.3448 -0.4533  0.5705
 3584TIP3   OH232166   6.237   4.825  13.602 -0.4302 -0.1683  0.2119
 3584TIP3    H132167   6.263   4.897  13.544  0.5251 -0.2478  0.5127
 3584TIP3    H232168   6.165   4.783  13.557 -0.7791  0.7675 -0.1384
 3585TIP3   OH232169   2.618   3.945   6.174  0.1183  0.0641 -0.2811
 3585TIP3    H132170   2.586   3.904   6.253 -0.6233  1.8029  0.3722
 3585TIP3    H232171   2.704   3.980   6.198  0.9315 -1.3932 -0.9510
 3586TIP3   OH232172   2.669   1.412  17.225  0.5137  0.4693  0.0905
 3586TIP3    H132173   2.637   1.496  17.257 -0.4134 -0.1661  0.8932
 3586TIP3    H232174   2.649   1.350  17.295  1.0471 -0.4517 -0.5421
 3587TIP3   OH232175   6.670   6.661   0.835  0.2581  0.3480  0.7888
 3587TIP3    H132176   6.659   6.567   0.848 -0.2044  0.6199  2.8049
 3587TIP3    H232177   6.650   6.699   0.921  1.4013  2.2129  0.2876
 3588TIP3   OH232178   6.480   3.299   2.428 -0.2931 -0.1904 -0.5550
 3588TIP3    H132179   6.425   3.313   2.504 -1.1012  0.5474 -1.2537
 3588TIP3    H232180   6.569   3.315   2.459 -0.6122  0.0658  0.2379
 3589TIP3   OH232181   5.262   5.291   5.062 -0.2419 -0.0210 -0.3942
 3589TIP3    H132182   5.188   5.254   5.110 -0.3708  2.2174  1.3119
 3589TIP3    H232183   5.326   5.311   5.130  0.8135  0.5580 -1.5370
 3590TIP3   OH232184   5.636   0.667  17.102  0.2135  0.0517  0.1241
 3590TIP3    H132185   5.680   0.636  17.023 -0.1795 -0.4683  0.1028
 3590TIP3    H232186   5.705   0.674  17.167  1.0290  2.9079 -0.9066
 3591TIP3   OH232187   5.918   2.082  15.897  0.2866 -0.3345  0.0588
 3591TIP3    H132188   6.004   2.099  15.860 -0.5609 -1.3160 -2.6241
 3591TIP3    H232189   5.859   2.139  15.847 -0.9084 -1.4922  0.0858
 3592TIP3   OH232190   4.821   4.832   4.880 -0.1918 -1.0174  0.2057
 3592TIP3    H132191   4.773   4.856   4.959  0.1976 -0.9791  0.4286
 3592TIP3    H232192   4.913   4.835   4.905  0.1414  1.8160 -0.9767
 3593TIP3   OH232193   2.665   2.076  14.801 -0.1887  0.3472 -0.1566
 3593TIP3    H132194   2.613   2.033  14.869  0.2249 -0.0512 -0.0839
 3593TIP3    H232195   2.750   2.030  14.803 -0.5876 -0.5470 -1.8086
 3594TIP3   OH232196   5.799   5.854  14.143  0.6931 -0.0845 -0.2239
 3594TIP3    H132197   5.892   5.872  14.134  0.7729 -1.0957 -1.6991
 3594TIP3    H232198   5.759   5.897  14.067  0.4603 -2.7512 -1.7573
 3595TIP3   OH232199   0.150   5.833  13.803  0.3836  0.4457  0.3379
 3595TIP3    H132200   0.084   5.782  13.756 -2.1989  0.1648  3.8023
 3595TIP3    H232201   0.149   5.919  13.761 -0.1338 -0.3672 -1.4008
 3596TIP3   OH232202   0.454   5.869  14.424  0.2803  0.7000 -0.0312
 3596TIP3    H132203   0.378   5.860  14.366  0.2756  1.3722 -0.1281
 3596TIP3    H232204   0.450   5.791  14.480 -0.1502  0.4370 -0.4202
 3597TIP3   OH232205   5.571   2.399  16.292  1.0396 -0.4258 -0.2775
 3597TIP3    H132206   5.664   2.408  16.312  1.1790 -1.2031 -0.5550
 3597TIP3    H232207   5.530   2.382  16.377  0.9316  1.3801  0.0767
 3598TIP3   OH232208   4.859   3.872   6.030 -1.1447  0.1398  0.3172
 3598TIP3    H132209   4.774   3.837   6.058 -0.8895 -0.8995 -0.1792
 3598TIP3    H232210   4.922   3.837   6.093 -1.0827  0.9844  0.7396
 3599TIP3   OH232211   2.979   6.096  10.836 -0.4043 -0.0843 -0.2890
 3599TIP3    H132212   2.979   6.030  10.766 -1.1126 -1.9777  1.4055
 3599TIP3    H232213   3.003   6.047  10.915 -2.2183  1.4190  1.2780
 3600TIP3   OH232214   5.992   5.545   4.729  0.0481  0.2433 -0.1671
 3600TIP3    H132215   5.952   5.627   4.758 -0.7043 -0.1203 -0.1578
 3600TIP3    H232216   6.009   5.497   4.810 -4.2860 -1.8383 -0.1912
 3601TIP3   OH232217   3.199   5.085   4.084 -0.7134  0.2046  0.1837
 3601TIP3    H132218   3.207   5.014   4.021  0.1719 -0.2993  0.8503
 3601TIP3    H232219   3.204   5.165   4.031 -0.5727 -0.2124 -0.4383
 3602TIP3   OH232220   5.477   2.036  12.455 -0.2995  0.5453  0.1352
 3602TIP3    H132221   5.439   2.110  12.501 -1.5779 -0.0843  0.1251
 3602TIP3    H232222   5.501   1.974  12.525 -0.9473  0.1831  0.0381
 3603TIP3   OH232223   5.249   4.786  10.752 -0.3217 -0.0830 -0.0217
 3603TIP3    H132224   5.278   4.783  10.843  0.8100 -0.6375 -0.3887
 3603TIP3    H232225   5.161   4.747  10.755 -1.0012  1.4414  1.0708
 3604TIP3   OH232226   3.410   0.223  16.259  0.7547  0.6123 -0.4456
 3604TIP3    H132227   3.429   0.235  16.166  0.0751 -0.4823 -0.7364
 3604TIP3    H232228   3.352   0.147  16.263 -1.7834  2.4370  0.5884
 3605TIP3   OH232229   6.038   0.816   4.979  0.6664 -0.3018 -0.5961
 3605TIP3    H132230   6.002   0.882   5.037  0.9954 -0.4912 -0.1734
 3605TIP3    H232231   5.988   0.826   4.898  0.7244  0.4732 -0.5452
 3606TIP3   OH232232   5.045   1.714   3.557 -0.3627  0.2411  0.0255
 3606TIP3    H132233   5.019   1.761   3.636 -3.2633  0.3617 -0.8988
 3606TIP3    H232234   5.082   1.782   3.500  0.2966  0.4214  0.6484
 3607TIP3   OH232235   4.102   6.587  14.684  0.5350  0.5430  0.4232
 3607TIP3    H132236   4.115   6.494  14.667 -0.0422  0.3825  0.8567
 3607TIP3    H232237   4.040   6.590  14.756  1.7017  1.2480  1.4326
 3608TIP3   OH232238   0.723   1.168  15.892 -0.0748 -0.5821  0.0210
 3608TIP3    H132239   0.658   1.200  15.954  0.9541 -0.7305  1.2150
 3608TIP3    H232240   0.754   1.086  15.929 -0.3787 -1.3705 -1.3837
 3609TIP3   OH232241   4.114   1.634  11.396  0.0626 -0.1394 -0.0707
 3609TIP3    H132242   4.139   1.612  11.486 -0.6995 -0.2685  0.1141
 3609TIP3    H232243   4.048   1.703  11.405 -1.2455 -1.3059 -0.4502
 3610TIP3   OH232244   3.595   1.311  10.751  0.7972  0.8302 -0.5779
 3610TIP3    H132245   3.515   1.348  10.789 -0.5243 -0.1352 -2.2793
 3610TIP3    H232246   3.622   1.243  10.813 -0.6681  0.0435 -0.7604
 3611TIP3   OH232247   3.340   5.174  13.544  0.9486 -0.0021 -0.2781
 3611TIP3    H132248   3.346   5.078  13.544  3.0127  0.0746  1.1996
 3611TIP3    H232249   3.326   5.197  13.636 -1.2076  1.0998 -0.8089
 3612TIP3   OH232250   2.055   2.513  15.803  0.0459 -0.1118 -0.6967
 3612TIP3    H132251   2.093   2.517  15.891 -0.7894 -0.9158 -0.2820
 3612TIP3    H232252   1.977   2.568  15.808  0.1024 -0.0043 -0.9900
 3613TIP3   OH232253   3.915   1.025   0.573  0.1834 -0.2604  0.5661
 3613TIP3    H132254   3.956   1.109   0.592 -0.4227  0.0709  0.4452
 3613TIP3    H232255   3.969   0.986   0.505 -0.3401  0.6885 -0.4284
 3614TIP3   OH232256   3.490   6.431  10.867 -0.3465  0.1758  0.1439
 3614TIP3    H132257   3.507   6.343  10.833 -0.3994  0.3533 -0.3534
 3614TIP3    H232258   3.563   6.484  10.835 -0.7445  0.4919 -0.2647
 3615TIP3   OH232259   6.225   2.917   5.993 -0.1888  0.4683 -0.8525
 3615TIP3    H132260   6.216   3.012   5.980 -1.7190  0.4159 -0.3736
 3615TIP3    H232261   6.243   2.883   5.905  0.5309  1.2017 -1.0075
 3616TIP3   OH232262   3.834   1.690   6.800  0.5093  0.6136 -0.6161
 3616TIP3    H132263   3.807   1.598   6.804 -2.1183  1.3249 -0.3856
 3616TIP3    H232264   3.918   1.688   6.753  1.0381 -1.9619  0.2402
 3617TIP3   OH232265   1.685   6.563  11.585 -0.3377 -0.2181  0.4364
 3617TIP3    H132266   1.718   6.613  11.510  3.0071 -2.4543  0.1822
 3617TIP3    H232267   1.597   6.537  11.560 -0.1846  1.0455 -1.6643
 3618TIP3   OH232268   4.369   1.196  12.920  0.4258 -0.0257 -0.0763
 3618TIP3    H132269   4.339   1.258  12.986  0.2541 -0.3586  0.1642
 3618TIP3    H232270   4.330   1.112  12.946  1.9683 -0.5916  0.5486
 3619TIP3   OH232271   3.701   3.988   0.791  0.0628  0.0712  0.4239
 3619TIP3    H132272   3.766   3.998   0.860  1.1183  1.6260 -0.7434
 3619TIP3    H232273   3.626   4.041   0.820  0.0487 -0.1891  0.8764
 3620TIP3   OH232274   4.983   3.974  11.702 -0.0920  0.0041 -0.3658
 3620TIP3    H132275   4.945   3.983  11.789 -0.0745 -2.8371  0.0049
 3620TIP3    H232276   5.073   3.944  11.718  0.6136  1.4321 -1.3699
 3621TIP3   OH232277   1.476   0.488  11.362  0.3591 -0.2097 -0.4015
 3621TIP3    H132278   1.505   0.537  11.439  2.7252  0.0479 -1.3480
 3621TIP3    H232279   1.388   0.521  11.344 -0.3765 -0.4698  2.2956
 3622TIP3   OH232280   2.488   3.706   4.309 -0.6817 -0.3244 -0.0031
 3622TIP3    H132281   2.484   3.768   4.382  0.4690 -0.0852 -0.1343
 3622TIP3    H232282   2.441   3.750   4.238 -0.8134 -0.0701  0.2399
 3623TIP3   OH232283   0.303   6.116  12.236 -0.2539 -0.0974 -0.0059
 3623TIP3    H132284   0.369   6.159  12.290 -0.2776  0.1618 -0.1875
 3623TIP3    H232285   0.226   6.110  12.293 -0.5437  0.9185 -0.2857
 3624TIP3   OH232286   2.247   3.424   1.224 -0.4207  0.8372 -0.5345
 3624TIP3    H132287   2.324   3.457   1.270 -0.7862  0.4575  0.3878
 3624TIP3    H232288   2.174   3.448   1.282 -0.6788 -1.9390  0.4238
 3625TIP3   OH232289   2.378   4.791   2.057 -0.0419 -0.3146 -0.0591
 3625TIP3    H132290   2.334   4.857   2.111 -0.6810 -1.5397  0.9832
 3625TIP3    H232291   2.457   4.769   2.106  0.3324 -0.1012 -0.5616
 3626TIP3   OH232292   0.466   1.834  11.235  0.0623 -0.1048  0.4413
 3626TIP3    H132293   0.452   1.866  11.146 -1.3512  0.4705  0.8350
 3626TIP3    H232294   0.541   1.883  11.267 -0.4466  0.9126  0.1181
 3627TIP3   OH232295   2.808   4.313   0.037  0.1061  0.0498  0.6084
 3627TIP3    H132296   2.783   4.393  -0.010 -0.9848 -1.7003 -2.0383
 3627TIP3    H232297   2.746   4.308   0.109 -0.4126  1.1246  0.2717
 3628TIP3   OH232298   3.035   6.543  11.892  0.1336  0.5944  0.4902
 3628TIP3    H132299   2.957   6.572  11.939  0.0375 -0.4985  1.0543
 3628TIP3    H232300   3.081   6.487  11.956 -0.0928 -1.0874 -0.7594
 3629TIP3   OH232301   0.143   0.746  12.882  0.3200  0.0835 -0.6269
 3629TIP3    H132302   0.137   0.820  12.943 -0.7308 -0.3765 -0.1507
 3629TIP3    H232303   0.183   0.783  12.804  2.0217  0.6276  0.4332
 3630TIP3   OH232304   3.619   3.951   2.290  0.2534 -0.2586 -0.3739
 3630TIP3    H132305   3.565   3.974   2.215 -0.1409  0.3564  0.0927
 3630TIP3    H232306   3.662   3.869   2.264  1.3005  0.7167 -1.8593
 3631TIP3   OH232307   4.250   2.061   1.593  0.6610  0.0894 -0.6064
 3631TIP3    H132308   4.234   2.112   1.514 -1.2095 -2.1892 -1.8135
 3631TIP3    H232309   4.163   2.046   1.630  1.3675 -0.2892  0.9839
 3632TIP3   OH232310   5.247   0.162  13.819 -0.3416 -0.2252 -0.2774
 3632TIP3    H132311   5.295   0.240  13.792 -0.3929 -0.8774 -2.4352
 3632TIP3    H232312   5.234   0.174  13.913  3.4638  0.2845  0.3708
 3633TIP3   OH232313   3.317   4.900   3.904  0.2311 -0.2261 -0.2788
 3633TIP3    H132314   3.354   4.903   3.816  1.1006  0.1145  0.0970
 3633TIP3    H232315   3.331   4.810   3.933 -1.1276 -0.6824 -0.9254
 3634TIP3   OH232316   5.447   2.827   4.571 -0.2381 -0.2514  0.2092
 3634TIP3    H132317   5.506   2.755   4.549 -0.8776 -1.7353  2.9029
 3634TIP3    H232318   5.360   2.787   4.574 -0.7920  0.9170  0.5379
 3635TIP3   OH232319   4.238   6.508  15.777  0.2596 -0.2939 -0.0347
 3635TIP3    H132320   4.301   6.439  15.753  1.4290  0.8663 -0.4384
 3635TIP3    H232321   4.266   6.537  15.864 -1.5245 -1.7318  1.0856
 3636TIP3   OH232322   1.735   0.732   3.286 -0.5961  0.1138  0.2692
 3636TIP3    H132323   1.690   0.688   3.213 -1.1742  1.1530 -0.0224
 3636TIP3    H232324   1.710   0.824   3.277 -0.2591  0.3356  1.4898
 3637TIP3   OH232325   3.304   0.999  15.387  0.1403  0.0647 -0.0287
 3637TIP3    H132326   3.396   1.006  15.415 -0.0534  0.6784  0.4972
 3637TIP3    H232327   3.255   1.040  15.458 -0.4662  0.6067 -0.7489
 3638TIP3   OH232328   1.038   4.818  12.809 -0.1487 -0.0416 -0.4767
 3638TIP3    H132329   0.960   4.804  12.755 -0.2277 -0.8552 -0.1722
 3638TIP3    H232330   1.003   4.846  12.894  0.0084  2.1625 -1.0768
 3639TIP3   OH232331   4.924   0.020   0.378 -0.3150  0.0876 -0.1664
 3639TIP3    H132332   5.006  -0.028   0.372 -0.2779  0.0582  0.5123
 3639TIP3    H232333   4.943   0.105   0.339  0.6393  0.8367  1.8093
 3640TIP3   OH232334   3.412   3.521   4.890  0.0554  0.6031  0.3291
 3640TIP3    H132335   3.501   3.552   4.871  0.1235  0.1852 -0.0426
 3640TIP3    H232336   3.399   3.448   4.830 -1.7180  2.5813 -1.8572
 3641TIP3   OH232337   1.403   2.918   3.667  0.0791  0.1495 -0.6456
 3641TIP3    H132338   1.476   2.856   3.674  1.1123  1.3192 -0.6705
 3641TIP3    H232339   1.389   2.949   3.756  1.5523  2.0360 -1.0104
 3642TIP3   OH232340   1.534   0.342   0.474  0.0190 -0.2097  0.4154
 3642TIP3    H132341   1.480   0.270   0.508 -0.5993 -0.5216 -1.1772
 3642TIP3    H232342   1.485   0.421   0.497 -0.6984 -0.4473 -0.2336
 3643TIP3   OH232343   3.268   1.202  16.676 -0.4492 -0.4976  0.0254
 3643TIP3    H132344   3.230   1.174  16.760 -0.6995 -1.1824 -0.3094
 3643TIP3    H232345   3.360   1.219  16.695 -0.4227 -1.0129  0.3611
 3644TIP3   OH232346   5.036   0.757  16.084 -0.4553 -0.1383 -0.4131
 3644TIP3    H132347   5.079   0.836  16.052  0.7839  0.3148  2.1221
 3644TIP3    H232348   4.943   0.780  16.089 -0.5230  0.1586 -2.3435
 3645TIP3   OH232349   5.028   2.485  12.017 -0.2691 -0.0839  0.0918
 3645TIP3    H132350   5.023   2.508  12.109  0.6100 -2.1502  0.7113
 3645TIP3    H232351   5.116   2.513  11.990 -0.7255  1.0336 -0.3133
 3646TIP3   OH232352   4.314   3.087   1.429 -0.1052  0.6361 -0.0631
 3646TIP3    H132353   4.263   3.045   1.499  0.0820 -2.5421 -1.6481
 3646TIP3    H232354   4.376   3.143   1.475 -0.8792 -0.2632  2.2328
 3647TIP3   OH232355   1.281   4.792   0.908 -0.3375 -0.2896  0.0131
 3647TIP3    H132356   1.237   4.842   0.838  0.0153  0.7903  0.5443
 3647TIP3    H232357   1.227   4.807   0.985 -1.0393 -1.9447 -0.1243
 3648TIP3   OH232358   3.215   3.819   1.500  0.1136  0.1648 -1.1060
 3648TIP3    H132359   3.250   3.735   1.528  0.5387  0.8169  0.4497
 3648TIP3    H232360   3.276   3.849   1.432  0.5221 -0.3331 -0.9652
 3649TIP3   OH232361   2.509   3.662  13.804 -0.9964  0.4966 -0.5325
 3649TIP3    H132362   2.562   3.705  13.737 -2.2302  1.8314 -0.6837
 3649TIP3    H232363   2.510   3.722  13.878  1.4188 -1.5051  1.2676
 3650TIP3   OH232364   6.031   1.748   0.384 -0.0053  0.5818  0.2667
 3650TIP3    H132365   6.094   1.819   0.395 -0.3650  1.9073 -4.2764
 3650TIP3    H232366   6.085   1.670   0.368  0.3791  0.5869  1.4183
 3651TIP3   OH232367   6.231   1.136   3.882  0.1084 -0.3330 -0.2290
 3651TIP3    H132368   6.258   1.048   3.910  0.7587 -0.0001  0.2214
 3651TIP3    H232369   6.190   1.122   3.796 -1.8409 -1.3645  0.7970
 3652TIP3   OH232370   4.927   0.793   2.127  0.2097  0.3649  0.0590
 3652TIP3    H132371   4.846   0.842   2.141  0.0235  0.7862 -2.2007
 3652TIP3    H232372   4.946   0.804   2.034  2.0745 -0.9607  0.2379
 3653TIP3   OH232373   1.079   5.574  11.828 -0.0222 -0.3006  0.2372
 3653TIP3    H132374   1.001   5.539  11.870  0.9173 -1.0765  1.3791
 3653TIP3    H232375   1.054   5.581  11.735 -1.7807  0.4730  0.7156
 3654TIP3   OH232376   1.234   1.092   6.271 -0.3321  0.8524  0.1098
 3654TIP3    H132377   1.214   1.096   6.177  1.1886  1.3413 -0.2254
 3654TIP3    H232378   1.185   1.016   6.303 -0.8023  0.6273 -1.0981
 3655TIP3   OH232379   1.517   3.266  16.295 -0.1943 -0.2362  0.5786
 3655TIP3    H132380   1.430   3.304  16.288  0.5003  1.4993  0.8390
 3655TIP3    H232381   1.528   3.247  16.388  0.2622  1.0222  0.8035
 3656TIP3   OH232382   0.469   6.730   4.799 -0.1971  0.6550 -0.1711
 3656TIP3    H132383   0.472   6.796   4.730 -0.6433 -2.3634 -3.3818
 3656TIP3    H232384   0.376   6.706   4.805  0.1418 -0.8209 -0.3912
 3657TIP3   OH232385   3.734   3.665  12.944 -0.9233  0.1823 -0.3403
 3657TIP3    H132386   3.750   3.726  12.872 -3.5724  1.4200 -0.0055
 3657TIP3    H232387   3.760   3.714  13.023  2.5362 -1.3753 -0.3095
 3658TIP3   OH232388   6.481   2.832  12.158 -0.1876 -0.3094 -0.1849
 3658TIP3    H132389   6.541   2.899  12.125 -1.0226  0.2394 -0.6341
 3658TIP3    H232390   6.536   2.755  12.171  0.6838  0.2971 -0.2055
 3659TIP3   OH232391   2.860   2.495   2.584  0.6834  0.6947  1.2759
 3659TIP3    H132392   2.935   2.439   2.606  0.5570  0.7768  1.9283
 3659TIP3    H232393   2.854   2.557   2.656  0.7475  1.4883  0.6084
 3660TIP3   OH232394   4.531   1.514   4.819 -1.1109 -0.6147 -0.3931
 3660TIP3    H132395   4.547   1.419   4.823 -1.3754 -0.6314  0.4573
 3660TIP3    H232396   4.589   1.545   4.749 -2.5847 -1.7058 -2.2182
 3661TIP3   OH232397   4.728   5.000  13.392  0.0433  0.1402  0.1913
 3661TIP3    H132398   4.763   4.971  13.477  2.0150  0.5865 -0.4177
 3661TIP3    H232399   4.711   5.093  13.404 -0.7520 -0.0299  0.4193
 3662TIP3   OH232400   4.454   4.900   4.914  0.3154  0.1039  0.1973
 3662TIP3    H132401   4.361   4.898   4.889  0.8070 -2.7565 -1.9179
 3662TIP3    H232402   4.499   4.932   4.837  1.1439  1.7955  1.3264
 3663TIP3   OH232403   3.207   5.403   6.079  0.1367 -0.4025 -0.3382
 3663TIP3    H132404   3.253   5.400   6.163  0.8358  1.0109 -0.6377
 3663TIP3    H232405   3.147   5.329   6.082  1.2667 -1.3113  0.7475
 3664TIP3   OH232406   4.118   3.256   2.707  0.0468  0.1515 -0.0268
 3664TIP3    H132407   4.052   3.321   2.685 -1.6629 -1.0761  1.2152
 3664TIP3    H232408   4.173   3.299   2.773 -1.2814  0.2623  1.0514
 3665TIP3   OH232409   2.873   6.775  16.090 -0.6305 -0.4806  0.0054
 3665TIP3    H132410   2.958   6.789  16.048  1.9148 -2.2568  3.9122
 3665TIP3    H232411   2.846   6.688  16.059  0.4651 -1.1315  0.7956
 3666TIP3   OH232412   4.267   1.532  12.740 -1.1049 -0.4507  0.1462
 3666TIP3    H132413   4.241   1.622  12.759 -1.4350 -0.1711 -1.4513
 3666TIP3    H232414   4.184   1.483  12.741 -1.1340 -0.4294 -0.4519
 3667TIP3   OH232415   4.994   5.050   4.097 -0.1695 -0.2405 -0.0913
 3667TIP3    H132416   4.910   5.041   4.053 -0.5925 -1.5752  0.9290
 3667TIP3    H232417   5.008   4.966   4.141  0.9880  0.4734  0.9856
 3668TIP3   OH232418   1.843   1.124   4.303  0.3709  0.0615 -0.3796
 3668TIP3    H132419   1.788   1.088   4.233  1.6562 -2.2381 -0.3283
 3668TIP3    H232420   1.801   1.094   4.384  1.0021 -0.7008 -0.3152
 3669TIP3   OH232421   0.125   0.749  13.712  0.2715  0.1776  0.4726
 3669TIP3    H132422   0.046   0.734  13.661 -1.6277  1.8278  2.7306
 3669TIP3    H232423   0.109   0.703  13.795  1.6743  0.5774  0.9899
 3670TIP3   OH232424   3.612   6.613  13.263 -0.2951  0.4836 -0.4377
 3670TIP3    H132425   3.624   6.655  13.178 -2.2810  0.0443 -0.9995
 3670TIP3    H232426   3.535   6.655  13.300 -0.5286 -0.5769  0.3321
 3671TIP3   OH232427   6.672   6.137   5.128  0.3599  0.2231  0.3752
 3671TIP3    H132428   6.743   6.193   5.095  0.1343  0.4299  0.2331
 3671TIP3    H232429   6.647   6.085   5.052 -0.0485  0.5823  0.2581
 3672TIP3   OH232430   0.903   2.697  16.245  0.2341  0.1210  0.1027
 3672TIP3    H132431   0.863   2.765  16.299 -0.6083 -0.4272  0.1939
 3672TIP3    H232432   0.873   2.615  16.284 -0.2340 -0.2928 -1.0722
 3673TIP3   OH232433   3.482   2.095  11.977  0.0885  0.0253 -0.1491
 3673TIP3    H132434   3.555   2.045  12.013 -0.0493 -0.4908 -0.5643
 3673TIP3    H232435   3.423   2.028  11.940  0.5201  0.5286 -1.8695
 3674TIP3   OH232436   5.856   5.417  16.091  0.5870 -0.8463  0.7511
 3674TIP3    H132437   5.833   5.367  16.169  1.7282 -1.2812  0.8172
 3674TIP3    H232438   5.951   5.423  16.092  0.7051 -1.6785 -1.0968
 3675TIP3   OH232439   1.311   1.751  16.035 -0.4347  0.2390 -0.1532
 3675TIP3    H132440   1.363   1.802  15.973 -1.6370  0.6437 -0.8643
 3675TIP3    H232441   1.308   1.663  15.996  0.1200  0.0763  0.1516
 3676TIP3   OH232442   6.121   3.086   1.504  0.2063  0.0184  0.5058
 3676TIP3    H132443   6.171   3.122   1.578  0.7638 -0.5891  0.4385
 3676TIP3    H232444   6.188   3.065   1.439 -0.0407 -1.5228  0.7082
 3677TIP3   OH232445   4.686   5.066   2.303  0.1815  0.1600 -0.1122
 3677TIP3    H132446   4.650   5.155   2.308  0.9486  0.4432  0.6093
 3677TIP3    H232447   4.639   5.025   2.230 -1.7696  0.4374  0.9104
 3678TIP3   OH232448   5.542   2.928  16.470  0.6011  0.1282  0.0024
 3678TIP3    H132449   5.529   2.990  16.541  1.8373  1.7987 -1.1233
 3678TIP3    H232450   5.580   2.850  16.511  0.1225  0.5656  1.2960
 3679TIP3   OH232451   4.873   1.698  13.244  0.4875 -0.2581 -0.2624
 3679TIP3    H132452   4.807   1.635  13.213  0.2096  0.5234 -1.3297
 3679TIP3    H232453   4.873   1.767  13.177  0.8728  0.8165  0.8172
 3680TIP3   OH232454   4.101   1.340   0.311  0.2171 -0.4051  0.2461
 3680TIP3    H132455   4.016   1.356   0.352  0.2053  2.0555 -0.5564
 3680TIP3    H232456   4.082   1.277   0.241 -0.5096 -1.5015  1.3899
 3681TIP3   OH232457   6.305   4.496  11.712 -0.3249  0.6094  0.1822
 3681TIP3    H132458   6.303   4.402  11.729 -0.4439  0.5072 -0.3763
 3681TIP3    H232459   6.338   4.504  11.622 -0.4445  1.0904  0.1753
 3682TIP3   OH232460   5.485   6.139   4.358  0.1447 -0.0333 -0.4770
 3682TIP3    H132461   5.442   6.164   4.440  0.0211 -0.5379 -0.3883
 3682TIP3    H232462   5.435   6.064   4.326  0.4681 -0.1204 -0.7853
 3683TIP3   OH232463   6.040   6.774   3.548  0.3906  0.5496 -0.0170
 3683TIP3    H132464   6.053   6.692   3.500  1.3081  0.8407 -0.2962
 3683TIP3    H232465   6.111   6.775   3.612  0.1958  0.9725  0.1943
 3684TIP3   OH232466   6.513   3.424   3.169  0.7180 -0.4584  0.2111
 3684TIP3    H132467   6.451   3.471   3.114 -0.4294 -0.4824  1.4399
 3684TIP3    H232468   6.591   3.414   3.114  1.6708  4.1452  0.2848
 3685TIP3   OH232469   3.829   5.318   6.495 -0.2859 -0.2639  0.3511
 3685TIP3    H132470   3.748   5.324   6.444 -1.4643  0.3149  2.1998
 3685TIP3    H232471   3.807   5.354   6.580  1.3754 -1.8890  1.5641
 3686TIP3   OH232472   0.026   6.272  15.908  0.0581 -0.5463 -0.6543
 3686TIP3    H132473   0.088   6.346  15.904  0.4496 -0.8603 -0.4899
 3686TIP3    H232474   0.079   6.199  15.942 -0.4646 -0.7593 -0.2953
 3687TIP3   OH232475   0.896   3.256  12.528 -0.3647 -0.3669 -0.2478
 3687TIP3    H132476   0.912   3.350  12.521 -0.6666 -0.2179  0.7915
 3687TIP3    H232477   0.860   3.230  12.443 -1.5465  0.7270 -0.1102
 3688TIP3   OH232478   0.209   5.390   5.500  0.1496  0.5573 -0.5340
 3688TIP3    H132479   0.126   5.399   5.546 -0.2237  2.3389 -1.4414
 3688TIP3    H232480   0.274   5.424   5.561 -0.2804  2.4534 -1.0518
 3689TIP3   OH232481   2.895   3.404  11.070  0.4272  0.0946  0.4558
 3689TIP3    H132482   2.884   3.485  11.020 -0.0619  0.1432  0.6323
 3689TIP3    H232483   2.953   3.350  11.016  0.4476  0.4120  0.1576
 3690TIP3   OH232484   5.237   5.245   3.470  0.2889  0.3172 -0.0473
 3690TIP3    H132485   5.263   5.311   3.534  0.7110  0.0815  0.0301
 3690TIP3    H232486   5.191   5.293   3.402  1.5759  0.8592 -0.5626
 3691TIP3   OH232487   4.902   2.389  11.001 -0.1410  0.0206  0.6141
 3691TIP3    H132488   4.965   2.414  10.933 -1.1511  1.2764  0.0891
 3691TIP3    H232489   4.817   2.413  10.965 -1.0897 -2.5769  0.8601
 3692TIP3   OH232490   4.961   4.134  14.892 -0.2603 -0.4010 -0.1688
 3692TIP3    H132491   4.925   4.200  14.833 -0.8298  0.0173  0.6267
 3692TIP3    H232492   4.901   4.133  14.967  0.5429 -0.7835  0.4859
 3693TIP3   OH232493   5.322   2.204  15.570 -0.4277  0.3011  0.1251
 3693TIP3    H132494   5.372   2.245  15.499 -1.0881  0.9480  0.0227
 3693TIP3    H232495   5.247   2.261  15.583  0.8064  1.4981  2.8989
 3694TIP3   OH232496   0.538   0.389  12.076 -0.5905 -0.3343  0.1122
 3694TIP3    H132497   0.479   0.315  12.060 -2.5784  1.1458  0.1575
 3694TIP3    H232498   0.530   0.408  12.169 -2.0427  1.4056 -0.3037
 3695TIP3   OH232499   0.352   4.292  15.296  0.2958  0.6538  0.2926
 3695TIP3    H132500   0.358   4.386  15.308 -0.1281  0.9486 -1.5158
 3695TIP3    H232501   0.325   4.281  15.205  0.8312 -1.2274  0.3172
 3696TIP3   OH232502   2.190   0.416  15.203  0.0069 -0.2105 -0.7827
 3696TIP3    H132503   2.243   0.339  15.222 -0.7973 -1.3592 -2.8683
 3696TIP3    H232504   2.207   0.476  15.276  0.5236 -2.3966  0.9826
 3697TIP3   OH232505   5.856   2.378   4.070 -0.6298  0.4319 -0.4763
 3697TIP3    H132506   5.935   2.411   4.027 -0.3026  0.0857 -0.1451
 3697TIP3    H232507   5.873   2.285   4.083 -0.3180  0.6990  1.2799
 3698TIP3   OH232508   5.110   1.101   3.178 -0.8104 -0.0933  0.2358
 3698TIP3    H132509   5.130   1.194   3.168 -1.0275  0.1109  1.4840
 3698TIP3    H232510   5.082   1.073   3.091 -1.1310  1.1073 -0.0716
 3699TIP3   OH232511   0.684   5.721   5.019  0.0123 -0.3623 -0.1235
 3699TIP3    H132512   0.708   5.637   5.058  1.8150  0.4355  0.5787
 3699TIP3    H232513   0.658   5.776   5.092  0.8873  0.3323 -0.3161
 3700TIP3   OH232514   5.440   4.299  11.785  0.3007  0.0132  0.4595
 3700TIP3    H132515   5.519   4.280  11.735  0.2113  0.4005  0.1651
 3700TIP3    H232516   5.459   4.267  11.873  0.4947 -0.5876  0.2037
 3701TIP3   OH232517   0.408   1.990  11.005 -0.2750  0.1413  0.2434
 3701TIP3    H132518   0.435   2.079  10.982 -0.8661 -0.1922 -1.9156
 3701TIP3    H232519   0.313   1.992  11.003 -0.2934 -0.5295  0.2764
 3702TIP3   OH232520   1.086   6.098  12.236  0.1465  0.1211 -0.3750
 3702TIP3    H132521   1.165   6.101  12.183 -0.6153 -0.0079 -1.5452
 3702TIP3    H232522   1.108   6.041  12.310  0.9948 -0.2609 -0.9160
 3703TIP3   OH232523   4.736   1.968   2.775  0.0837 -0.0231 -0.0981
 3703TIP3    H132524   4.754   1.874   2.766 -1.1319 -0.3246  0.4703
 3703TIP3    H232525   4.735   2.001   2.685  1.3249 -0.3850 -0.2596
 3704TIP3   OH232526   4.180   2.001   5.169 -0.5893  0.7084  0.2113
 3704TIP3    H132527   4.220   2.088   5.170 -0.2879  0.7044 -2.7637
 3704TIP3    H232528   4.253   1.941   5.161 -0.9173  0.3154  0.1215
 3705TIP3   OH232529   4.384   4.567  10.779 -0.0209 -0.5389 -0.5167
 3705TIP3    H132530   4.370   4.574  10.685 -0.9518 -2.3899 -0.5678
 3705TIP3    H232531   4.463   4.515  10.789  0.1284 -0.2700 -0.2763
 3706TIP3   OH232532   2.977   0.000   2.941 -0.3304 -0.7930  0.2738
 3706TIP3    H132533   2.936   0.084   2.918  0.7640 -0.2940  0.0583
 3706TIP3    H232534   3.043  -0.013   2.872  0.8882 -0.8199  1.4092
 3707TIP3   OH232535   3.880   5.990   3.355  0.9093  0.1418 -0.0867
 3707TIP3    H132536   3.855   5.946   3.274 -0.9395  0.7206  0.1256
 3707TIP3    H232537   3.818   5.958   3.420  1.5827  0.6278  0.8254
 3708TIP3   OH232538   3.711   4.929   4.426  0.1259  0.1383  0.3013
 3708TIP3    H132539   3.764   4.866   4.377  1.0089  0.6390  0.5871
 3708TIP3    H232540   3.750   4.930   4.513 -0.5569  0.2902  0.6089
 3709TIP3   OH232541   2.925   1.479   3.209 -0.0755  0.1598 -0.2014
 3709TIP3    H132542   2.870   1.418   3.160 -1.3874  1.7529 -0.8092
 3709TIP3    H232543   2.989   1.510   3.145 -0.1744  0.3196 -0.2242
 3710TIP3   OH232544   1.089   1.844  16.178 -0.0420  0.1159  0.3639
 3710TIP3    H132545   1.019   1.789  16.142 -2.0361  2.3686  0.5127
 3710TIP3    H232546   1.167   1.818  16.130 -1.3096 -1.3462 -1.0565
 3711TIP3   OH232547   4.747   6.120   0.611  0.1983 -0.1907 -0.4289
 3711TIP3    H132548   4.767   6.062   0.538 -1.8433  0.7637 -1.8672
 3711TIP3    H232549   4.816   6.187   0.608  1.3130 -1.2902 -0.1245
 3712TIP3   OH232550   1.387   1.668   3.411 -0.6249 -0.2339  0.0093
 3712TIP3    H132551   1.349   1.647   3.326 -1.8821  1.4058  0.1091
 3712TIP3    H232552   1.360   1.596   3.468 -1.4397 -0.3820 -0.5390
 3713TIP3   OH232553   1.854   1.306  11.893 -0.1875  0.1173  0.2358
 3713TIP3    H132554   1.919   1.339  11.830 -1.2265 -2.7415 -2.6246
 3713TIP3    H232555   1.799   1.382  11.912  1.0843  1.4681 -1.1125
 3714TIP3   OH232556   5.959   6.320   1.056 -0.5486 -0.0162  0.0943
 3714TIP3    H132557   6.042   6.355   1.088 -0.2595  0.5032 -1.1832
 3714TIP3    H232558   5.982   6.277   0.973 -1.4025 -0.6814  0.1904
 3715TIP3   OH232559   4.954   5.892  16.983  0.0678 -0.5506  0.1025
 3715TIP3    H132560   4.990   5.849  17.060  0.4847  1.8208  1.3468
 3715TIP3    H232561   5.006   5.858  16.910  2.6921  0.3073  1.4364
 3716TIP3   OH232562   2.865   4.084  10.974 -1.1147 -0.1895  0.0679
 3716TIP3    H132563   2.802   4.021  11.010  0.4082 -1.1271  1.2375
 3716TIP3    H232564   2.860   4.159  11.034 -0.7649 -0.4915  0.4889
 3717TIP3   OH232565   0.524   3.296   1.928 -0.0539  0.4335  0.1262
 3717TIP3    H132566   0.540   3.316   2.021  2.4739  1.4754 -0.4400
 3717TIP3    H232567   0.562   3.371   1.881 -1.2605 -0.0810 -1.7733
 3718TIP3   OH232568   4.897   6.243  11.852 -0.3043 -0.5507  0.5924
 3718TIP3    H132569   4.917   6.202  11.936  1.1283 -1.2479 -0.0608
 3718TIP3    H232570   4.975   6.294  11.830 -0.3578 -0.9622 -0.6602
 3719TIP3   OH232571   0.489   0.524  12.840 -0.0790 -0.3219  0.0441
 3719TIP3    H132572   0.421   0.537  12.906 -2.0700 -0.1338 -1.9164
 3719TIP3    H232573   0.558   0.586  12.865 -1.5211  0.9941  0.9961
 3720TIP3   OH232574   2.720   4.855   0.691 -0.1177 -0.4283  0.6430
 3720TIP3    H132575   2.747   4.946   0.683 -0.6195 -0.2585  0.8487
 3720TIP3    H232576   2.764   4.824   0.770  1.2453 -0.8066 -0.2297
 3721TIP3   OH232577   2.040   6.053  13.409  0.1060  0.4117 -0.9798
 3721TIP3    H132578   1.975   6.122  13.401  0.3391  0.6882 -0.5211
 3721TIP3    H232579   1.989   5.972  13.414 -0.3626  0.7912  1.9775
 3722TIP3   OH232580   6.639   3.971   0.332 -0.4560  0.6236  0.4608
 3722TIP3    H132581   6.619   3.882   0.361  0.0359  0.3261 -0.0863
 3722TIP3    H232582   6.557   4.020   0.343 -0.4713  0.3538  1.6800
 3723TIP3   OH232583   2.937   4.951   3.904  0.3386  0.1368  0.1334
 3723TIP3    H132584   3.004   4.980   3.842 -0.7865  0.8458 -0.8103
 3723TIP3    H232585   2.962   4.861   3.926  1.2018  0.1393 -0.7570
 3724TIP3   OH232586   0.299   6.453   5.824 -0.1481  0.0858  0.2593
 3724TIP3    H132587   0.279   6.363   5.849  0.4761 -0.0162  0.4191
 3724TIP3    H232588   0.393   6.452   5.803 -0.2397  0.5929 -0.2076
 3725TIP3   OH232589   4.165   4.324   1.596  0.1103  0.4100  0.0609
 3725TIP3    H132590   4.186   4.313   1.689  0.5191  1.3705  0.0930
 3725TIP3    H232591   4.248   4.345   1.554 -0.0828  0.0496 -0.5188
 3726TIP3   OH232592   6.225   5.581  12.184  0.2882  0.2885  0.6167
 3726TIP3    H132593   6.207   5.542  12.270  1.0164 -1.3225  0.0901
 3726TIP3    H232594   6.141   5.574  12.137 -0.4083  2.1196  1.4874
 3727TIP3   OH232595   2.918   0.972  16.427 -0.7006  0.1217 -0.5575
 3727TIP3    H132596   2.854   0.902  16.417  0.6767 -1.5457  1.4383
 3727TIP3    H232597   2.900   1.032  16.355 -2.2826 -1.9919 -2.0243
 3728TIP3   OH232598   5.408   2.722   2.163 -0.2446  0.3985  0.3444
 3728TIP3    H132599   5.393   2.728   2.069  1.2127  0.4545  0.0954
 3728TIP3    H232600   5.439   2.632   2.177  1.0933  0.8640  0.5137
 3729TIP3   OH232601   1.413   2.920  13.529 -0.9747 -0.1342 -0.0283
 3729TIP3    H132602   1.406   2.903  13.435 -1.6050 -2.5612  0.3800
 3729TIP3    H232603   1.507   2.922  13.547 -0.8512 -1.0522 -0.5225
 3730TIP3   OH232604   1.612   6.216  15.123  0.5027  0.1529 -0.5382
 3730TIP3    H132605   1.600   6.133  15.076 -0.7550  0.3049 -0.5013
 3730TIP3    H232606   1.680   6.196  15.188 -0.9666 -1.3723  0.6391
 3731TIP3   OH232607   3.568   2.965  16.185 -0.0581 -0.1576  0.0875
 3731TIP3    H132608   3.484   2.922  16.202 -0.2217  0.4000  0.7154
 3731TIP3    H232609   3.598   2.927  16.103 -2.4781  2.0123 -1.9483
 3732TIP3   OH232610   4.045   2.151   2.243 -0.0273 -0.2228  0.2780
 3732TIP3    H132611   3.955   2.176   2.223 -0.4454 -1.6656  0.2358
 3732TIP3    H232612   4.085   2.231   2.277 -1.2042  0.5413 -0.0674
 3733TIP3   OH232613   1.828   3.926  13.844 -0.1127 -0.1153 -0.0588
 3733TIP3    H132614   1.873   4.008  13.866 -0.6514  0.7512 -1.9938
 3733TIP3    H232615   1.803   3.937  13.753  0.0933 -2.6028 -0.4581
 3734TIP3   OH232616   2.373   1.079  13.743 -0.0300  0.3626 -0.1166
 3734TIP3    H132617   2.339   1.155  13.791 -0.8765  0.0264 -0.1614
 3734TIP3    H232618   2.456   1.059  13.786  0.5986  1.7929 -0.6239
 3735TIP3   OH232619   6.260   1.935  11.473 -0.3472 -1.0316 -0.1340
 3735TIP3    H132620   6.233   1.989  11.547  1.4984 -2.3396  1.6019
 3735TIP3    H232621   6.182   1.885  11.449 -1.1129 -0.1686  0.5422
 3736TIP3   OH232622   1.524   6.017  16.000 -0.1223 -0.3159 -0.1877
 3736TIP3    H132623   1.465   5.943  16.013 -0.3202 -0.1884 -0.3627
 3736TIP3    H232624   1.528   6.029  15.905  0.5783 -0.6433 -0.2050
 3737TIP3   OH232625   4.659   0.915  14.271 -0.3294  0.5901  0.4152
 3737TIP3    H132626   4.574   0.874  14.255 -0.6557 -0.0280  3.1670
 3737TIP3    H232627   4.721   0.842  14.275 -0.2353  0.7159  1.4844
 3738TIP3   OH232628   1.899   1.610  15.135  0.6502 -0.2100 -0.1583
 3738TIP3    H132629   1.938   1.668  15.200  0.5950 -2.1972  1.7431
 3738TIP3    H232630   1.927   1.522  15.161 -4.5651 -1.8499  1.1985
 3739TIP3   OH232631   5.247   2.074  12.306  0.2455 -0.7710 -0.6576
 3739TIP3    H132632   5.335   2.083  12.343  0.0703  1.1946 -0.6117
 3739TIP3    H232633   5.191   2.056  12.382  0.0505  2.1641  0.0127
 3740TIP3   OH232634   1.417   6.565  15.555  1.0869  0.0864 -0.1411
 3740TIP3    H132635   1.454   6.556  15.642  0.4864 -0.1168  0.0981
 3740TIP3    H232636   1.326   6.539  15.565  1.5506 -2.1844 -1.2938
 3741TIP3   OH232637   4.710   2.819   3.847  0.4739 -0.1778  0.4902
 3741TIP3    H132638   4.643   2.885   3.829  1.0864  0.3361  0.1003
 3741TIP3    H232639   4.662   2.749   3.893 -0.7680 -0.7432 -1.5496
 3742TIP3   OH232640   5.237   4.301   5.372 -0.0037  0.1959  0.4473
 3742TIP3    H132641   5.316   4.288   5.424  1.9245  0.5057 -2.2041
 3742TIP3    H232642   5.217   4.395   5.382 -0.0367  0.1243  1.0948
 3743TIP3   OH232643   4.162   3.925  12.104 -0.1674 -0.4373  0.3516
 3743TIP3    H132644   4.072   3.904  12.079 -0.5315 -1.1147  2.0771
 3743TIP3    H232645   4.169   3.895  12.194  1.6573  0.0534  0.4071
 3744TIP3   OH232646   3.526   0.774   3.804 -0.2408  0.0701  0.3547
 3744TIP3    H132647   3.603   0.766   3.860  0.7805 -1.4725 -1.1875
 3744TIP3    H232648   3.554   0.739   3.719 -2.4977 -0.0765 -0.3936
 3745TIP3   OH232649   4.163   0.860   5.764 -0.0208  0.0580  0.0653
 3745TIP3    H132650   4.087   0.910   5.793  1.0018  0.6942  1.7947
 3745TIP3    H232651   4.180   0.799   5.835  0.7027 -0.5367 -0.6010
 3746TIP3   OH232652   0.262   1.596   3.966 -0.6105  0.1375 -0.1602
 3746TIP3    H132653   0.207   1.599   3.888  0.9206  0.6292 -1.2664
 3746TIP3    H232654   0.349   1.571   3.934 -0.1780 -0.7087  1.5424
 3747TIP3   OH232655   2.336   0.531   4.652  0.4071 -0.5833  0.0057
 3747TIP3    H132656   2.340   0.612   4.600  1.3168 -0.8130 -0.2852
 3747TIP3    H232657   2.361   0.558   4.740  1.3746 -0.6691 -0.2385
 3748TIP3   OH232658   4.174   2.893   0.002  0.0682 -0.2647  0.5408
 3748TIP3    H132659   4.233   2.829   0.041  0.1591 -1.3212 -1.2282
 3748TIP3    H232660   4.222   2.928  -0.073 -0.7052  0.4823  0.3718
 3749TIP3   OH232661   2.795   4.182  14.101  0.3173  0.2794  0.2057
 3749TIP3    H132662   2.801   4.186  14.197 -1.8285  1.4047  0.3590
 3749TIP3    H232663   2.701   4.168  14.084  0.5557  0.8459 -1.7492
 3750TIP3   OH232664   1.612   4.295   4.054 -0.6020  0.8370  0.4123
 3750TIP3    H132665   1.623   4.279   4.147  0.4274 -1.5392 -0.0355
 3750TIP3    H232666   1.533   4.246   4.030  1.3514 -2.0705 -0.6019
 3751TIP3   OH232667   2.975   2.915  16.977 -0.0771 -0.2918 -0.2107
 3751TIP3    H132668   2.929   2.831  16.976 -0.8142  0.0651  1.0796
 3751TIP3    H232669   2.944   2.958  17.056 -0.0921  1.4118 -1.0973
 3752TIP3   OH232670   4.343   0.757  10.776 -0.2645 -0.2408 -0.2023
 3752TIP3    H132671   4.405   0.688  10.800 -2.1274 -2.2761 -0.9621
 3752TIP3    H232672   4.276   0.713  10.725 -1.5777  2.1618 -0.7150
 3753TIP3   OH232673   4.097   2.787   1.724 -0.5500 -0.0637 -0.6085
 3753TIP3    H132674   4.064   2.840   1.652 -0.3395  1.2190  0.2182
 3753TIP3    H232675   4.178   2.748   1.691 -1.7074 -1.4880 -1.8950
 3754TIP3   OH232676   1.058   0.787   4.375 -0.0089  0.6093 -0.1214
 3754TIP3    H132677   1.095   0.774   4.463 -0.5004 -0.7032 -0.0854
 3754TIP3    H232678   0.969   0.819   4.391  0.5125  2.1541 -0.1861
 3755TIP3   OH232679   4.255   2.186   1.297  0.0911 -0.0451  0.6281
 3755TIP3    H132680   4.205   2.111   1.262  1.4017  0.1451 -1.8583
 3755TIP3    H232681   4.188   2.250   1.320 -0.9309 -0.6387 -0.5594
 3756TIP3   OH232682   0.288   5.697  13.486  0.0284 -0.0630  0.7770
 3756TIP3    H132683   0.314   5.621  13.538  0.5388 -0.2615  0.2329
 3756TIP3    H232684   0.264   5.763  13.552  1.6530  0.0378  1.3152
 3757TIP3   OH232685   5.066   4.224   5.111 -0.1188 -0.3851  0.0842
 3757TIP3    H132686   5.016   4.276   5.174  0.6639  1.4081 -0.7088
 3757TIP3    H232687   5.146   4.200   5.159 -0.7031 -1.3345  0.6151
 3758TIP3   OH232688   1.746   2.004  12.175 -0.2188  0.0550 -0.2653
 3758TIP3    H132689   1.652   2.020  12.170  0.1453  3.1633  0.6652
 3758TIP3    H232690   1.776   2.006  12.084 -0.8761  0.5498 -0.4821
 3759TIP3   OH232691   0.553   2.157   4.754  0.1423  0.0850 -0.1268
 3759TIP3    H132692   0.486   2.104   4.798  0.3525 -0.6311 -0.6490
 3759TIP3    H232693   0.504   2.215   4.696 -0.1184  0.7950  0.7737
 3760TIP3   OH232694   6.693   5.213  16.672 -0.3081 -0.4072  0.0006
 3760TIP3    H132695   6.630   5.157  16.716 -0.0993  1.1561  2.5495
 3760TIP3    H232696   6.764   5.223  16.736  2.3284 -1.5987 -2.4816
 3761TIP3   OH232697   5.747   3.915  11.698  0.2703  0.4562  0.3321
 3761TIP3    H132698   5.809   3.882  11.763 -0.9950 -1.9431  0.4742
 3761TIP3    H232699   5.737   3.842  11.636 -1.2779  1.3087 -0.4833
 3762TIP3   OH232700   4.563   2.836  17.187 -0.1803 -0.2928  0.7746
 3762TIP3    H132701   4.579   2.926  17.216  1.1567  0.4931 -2.0436
 3762TIP3    H232702   4.471   2.836  17.160 -0.5768 -0.2057  2.0414
 3763TIP3   OH232703   2.481   5.305  16.523 -0.0673  0.2896 -0.0031
 3763TIP3    H132704   2.547   5.335  16.460  1.0382  0.8770  1.3841
 3763TIP3    H232705   2.489   5.210  16.522  0.1158  0.3056 -0.5558
 3764TIP3   OH232706   1.889   5.138  13.142 -0.6686  0.1528 -0.2808
 3764TIP3    H132707   1.816   5.200  13.134 -1.5395 -0.8882 -0.7702
 3764TIP3    H232708   1.883   5.105  13.231 -0.0841  0.9160  0.0409
 3765TIP3   OH232709   0.176   3.143   1.747  0.5783  0.8921 -0.4817
 3765TIP3    H132710   0.084   3.129   1.766  1.2839 -1.9866  1.4202
 3765TIP3    H232711   0.190   3.099   1.663  0.2995  1.1202 -0.6506
 3766TIP3   OH232712   4.852   0.784  10.477  0.3250  0.0198  0.3810
 3766TIP3    H132713   4.831   0.872  10.444  0.2275 -0.2037 -0.1757
 3766TIP3    H232714   4.891   0.739  10.402  0.3397 -0.4249  0.6492
 3767TIP3   OH232715   1.753   2.951   1.281  0.3138  0.1483  0.4094
 3767TIP3    H132716   1.736   3.045   1.277 -0.1220  0.0407 -0.2796
 3767TIP3    H232717   1.815   2.935   1.210 -2.5689 -0.7021 -2.0934
 3768TIP3   OH232718   1.717   1.865   1.273 -0.4880  0.2585  0.6586
 3768TIP3    H132719   1.679   1.953   1.268  2.7672  1.7595 -0.3050
 3768TIP3    H232720   1.788   1.872   1.337  0.9226 -1.1468 -0.6355
 3769TIP3   OH232721   0.798   0.927  15.952  0.0922 -0.3973 -0.0636
 3769TIP3    H132722   0.877   0.911  15.900  0.3637 -0.9052  0.4869
 3769TIP3    H232723   0.811   0.874  16.032 -0.5563 -0.0583  0.2737
 3770TIP3   OH232724   5.617   4.508   2.449 -0.1307 -0.7387 -0.0827
 3770TIP3    H132725   5.687   4.547   2.397  0.5040 -2.6606 -0.7667
 3770TIP3    H232726   5.652   4.500   2.537  0.1089 -0.7109 -0.1769
 3771TIP3   OH232727   6.772   0.986   6.328 -0.3117 -0.2553 -0.2462
 3771TIP3    H132728   6.732   1.058   6.279  2.7599 -0.5497 -3.6056
 3771TIP3    H232729   6.740   0.907   6.284  0.5419 -0.6492 -0.1768
 3772TIP3   OH232730   0.038   4.553  15.256  0.5780  0.1130 -0.0967
 3772TIP3    H132731   0.018   4.555  15.162  0.9168 -1.5124 -0.2329
 3772TIP3    H232732  -0.015   4.623  15.293  0.1074  0.5022 -1.4445
 3773TIP3   OH232733   0.537   5.634  14.896  0.0177 -0.5513 -0.1450
 3773TIP3    H132734   0.511   5.551  14.936 -0.2944 -0.8778 -1.0120
 3773TIP3    H232735   0.455   5.679  14.878  0.1853  0.7084  1.8071
 3774TIP3   OH232736   6.139   5.512  16.095  0.3745  0.2974 -0.2750
 3774TIP3    H132737   6.223   5.544  16.127  0.6083  0.4232 -0.9964
 3774TIP3    H232738   6.085   5.590  16.084 -0.6464  0.0473  2.3662
 3775TIP3   OH232739   6.381   5.643  14.031  0.0639 -0.2981 -0.0049
 3775TIP3    H132740   6.405   5.735  14.030 -2.8102  0.5569 -1.1750
 3775TIP3    H232741   6.441   5.601  13.970  1.5426  0.7206  0.7085
 3776TIP3   OH232742   5.118   3.149  12.211 -0.0420 -0.2346 -0.4661
 3776TIP3    H132743   5.211   3.157  12.232  0.2623 -1.7765 -1.0928
 3776TIP3    H232744   5.115   3.156  12.115 -0.5124 -0.6381 -0.4859
 3777TIP3   OH232745   4.592   4.966  13.825  0.5499  0.1093 -0.0740
 3777TIP3    H132746   4.641   4.981  13.906 -0.1507  1.0114  0.2002
 3777TIP3    H232747   4.521   5.030  13.828  0.8287  0.5332 -1.6698
 3778TIP3   OH232748   2.670   5.651  12.607 -0.2101 -0.0364 -0.3802
 3778TIP3    H132749   2.661   5.623  12.698  0.7986 -3.3670 -1.1818
 3778TIP3    H232750   2.613   5.592  12.558 -0.2451  1.2854 -2.0069
 3779TIP3   OH232751   6.590   3.274  11.028 -0.1049 -0.0440  0.4572
 3779TIP3    H132752   6.593   3.346  11.091  0.6383 -0.3625  0.7968
 3779TIP3    H232753   6.542   3.310  10.953  3.8630  2.4043 -1.2808
 3780TIP3   OH232754   5.915   0.979   5.139 -0.4093  0.4745  0.1432
 3780TIP3    H132755   5.894   1.064   5.178 -0.3131  0.9990 -0.9209
 3780TIP3    H232756   5.857   0.972   5.064  0.4359  0.1543 -0.4978
 3781TIP3   OH232757   0.426   3.451   4.145  0.2502  0.5225 -0.0046
 3781TIP3    H132758   0.338   3.416   4.129 -0.0595  0.2486  1.9498
 3781TIP3    H232759   0.479   3.374   4.164  1.4573  0.4880 -3.0318
 3782TIP3   OH232760   2.128   2.082   5.103  0.3166 -0.1574  0.4135
 3782TIP3    H132761   2.038   2.115   5.111 -0.0362 -0.6621 -1.1909
 3782TIP3    H232762   2.117   1.989   5.085  1.2365 -0.6120  2.0399
 3783TIP3   OH232763   0.297   3.482   4.665 -0.0439 -0.8934  0.1257
 3783TIP3    H132764   0.239   3.556   4.647 -1.0827 -1.3028  1.5878
 3783TIP3    H232765   0.239   3.416   4.704  1.3238 -1.4840  1.2138
 3784TIP3   OH232766   2.967   5.727   3.837 -0.0670 -0.1451 -0.1567
 3784TIP3    H132767   3.047   5.685   3.871  1.2318  1.2655 -1.3482
 3784TIP3    H232768   2.954   5.689   3.751  0.8075  1.4285 -1.0197
 3785TIP3   OH232769   3.245   5.144  15.545 -0.3401  0.3743  0.4023
 3785TIP3    H132770   3.288   5.060  15.561  0.0178  0.2372 -1.0776
 3785TIP3    H232771   3.307   5.210  15.577  0.5338  0.1405 -0.7509
 3786TIP3   OH232772   4.348   4.776  14.452 -0.5056  0.3645  0.0369
 3786TIP3    H132773   4.406   4.742  14.520 -0.0706 -1.0817 -1.0215
 3786TIP3    H232774   4.261   4.746  14.478 -0.5595  1.0632  0.7081
 3787TIP3   OH232775   5.658   2.019   3.961  0.2732  0.1565  0.0772
 3787TIP3    H132776   5.747   2.010   3.996  0.4599  1.2051 -0.0998
 3787TIP3    H232777   5.601   2.003   4.036  0.5742 -1.3073  0.0268
 3788TIP3   OH232778   2.731   2.363   6.555  0.5940 -0.0641  0.0728
 3788TIP3    H132779   2.726   2.270   6.578 -0.9106  0.2003  0.9085
 3788TIP3    H232780   2.824   2.378   6.536  0.9480 -1.5986  0.4740
 3789TIP3   OH232781   6.753   1.986   3.085  0.2710 -0.0160 -0.1525
 3789TIP3    H132782   6.825   1.931   3.053 -0.6084 -1.1029 -0.3388
 3789TIP3    H232783   6.796   2.050   3.142  1.2693 -1.3412  0.6546
 3790TIP3   OH232784   3.582   3.188  13.223 -0.5759  0.7240  0.0428
 3790TIP3    H132785   3.505   3.234  13.258 -0.1220 -0.7088  3.2444
 3790TIP3    H232786   3.592   3.111  13.279  1.4667 -0.7709 -2.1801
 3791TIP3   OH232787   3.426   2.102  15.815 -0.0553 -0.0516  0.1851
 3791TIP3    H132788   3.483   2.057  15.877  1.2559 -1.0438 -1.6143
 3791TIP3    H232789   3.404   2.035  15.750 -0.4668  1.1773 -0.9981
 3792TIP3   OH232790   2.537   5.806   4.862 -0.5575 -0.3848 -0.7520
 3792TIP3    H132791   2.562   5.839   4.776 -2.3063 -3.7645 -2.7681
 3792TIP3    H232792   2.445   5.780   4.852 -0.4623 -2.0107  1.7371
 3793TIP3   OH232793   2.104   3.290  14.583 -0.5137 -0.2852 -0.0938
 3793TIP3    H132794   2.181   3.323  14.629 -2.1224  1.3724  1.6052
 3793TIP3    H232795   2.131   3.282  14.492  1.9380 -0.7761  0.6140
 3794TIP3   OH232796   0.281   5.587  13.214  0.3008 -0.2457 -0.1603
 3794TIP3    H132797   0.300   5.634  13.296  0.4940 -2.3131  1.0682
 3794TIP3    H232798   0.236   5.651  13.159 -1.5520  0.7224  2.2888
 3795TIP3   OH232799   3.394   5.548   0.809 -0.2407 -0.0525  0.1780
 3795TIP3    H132800   3.355   5.552   0.721 -0.5774  0.1516  0.3339
 3795TIP3    H232801   3.355   5.622   0.856 -0.6371 -0.5919  0.7270
 3796TIP3   OH232802   3.727   6.616   5.488 -0.2278  0.4546  0.3206
 3796TIP3    H132803   3.735   6.681   5.558 -0.9813  2.2021 -1.1339
 3796TIP3    H232804   3.635   6.589   5.492 -0.1760  0.2733  0.2582
 3797TIP3   OH232805   3.787   0.108  11.455  0.2393 -0.5659  0.3634
 3797TIP3    H132806   3.819   0.023  11.485 -2.2043 -0.7902  2.7858
 3797TIP3    H232807   3.716   0.087  11.394  0.9339 -0.1906 -0.5941
 3798TIP3   OH232808   2.412   6.306  11.818  0.4710  0.5429  0.1081
 3798TIP3    H132809   2.399   6.245  11.745 -0.1695  1.0549 -0.2114
 3798TIP3    H232810   2.375   6.389  11.787  0.0749  0.7328  1.0693
 3799TIP3   OH232811   3.617   5.405  13.002 -0.2394 -0.0962 -0.0523
 3799TIP3    H132812   3.666   5.368  12.929 -1.3533  0.9085 -1.3521
 3799TIP3    H232813   3.528   5.370  12.992  0.0829 -1.8224  2.2085
 3800TIP3   OH232814   0.467   3.004  13.392  0.1505  0.5233  0.4100
 3800TIP3    H132815   0.450   2.915  13.424  0.7096  0.3884  0.3430
 3800TIP3    H232816   0.562   3.008  13.381  0.0940  1.0066  0.0460
 3801TIP3   OH232817   2.581   1.867  14.041 -0.0770 -0.4628 -0.6107
 3801TIP3    H132818   2.495   1.899  14.011 -0.8673 -1.9530 -0.0209
 3801TIP3    H232819   2.591   1.905  14.128 -1.1653 -2.0042  0.2252
 3802TIP3   OH232820   5.200   5.159  11.351  0.0676  0.1552 -0.2451
 3802TIP3    H132821   5.114   5.146  11.311 -0.1009 -1.8802  0.6546
 3802TIP3    H232822   5.262   5.121  11.289 -0.0083 -1.2314  0.5000
 3803TIP3   OH232823   1.572   0.613   5.312  0.0214  0.0984 -0.0826
 3803TIP3    H132824   1.533   0.554   5.376 -0.3402  1.0325  0.5726
 3803TIP3    H232825   1.515   0.690   5.312 -0.5630 -0.2521 -2.2464
 3804TIP3   OH232826   5.112   2.636  14.123  0.1272  0.2088 -1.1667
 3804TIP3    H132827   5.098   2.542  14.136  0.0685 -0.0107 -2.6135
 3804TIP3    H232828   5.037   2.678  14.165 -1.2004 -0.5503 -2.6818
 3805TIP3   OH232829   6.255   6.539   4.868 -0.0582 -1.2107  0.2015
 3805TIP3    H132830   6.215   6.618   4.903 -1.4865 -1.5444 -0.5925
 3805TIP3    H232831   6.311   6.570   4.797 -0.5697 -0.8971 -0.0705
 3806TIP3   OH232832   6.069   1.376  14.900  0.2115 -0.0523 -0.1913
 3806TIP3    H132833   5.978   1.362  14.928 -0.2782  1.8770 -0.6563
 3806TIP3    H232834   6.096   1.292  14.864 -2.0116 -0.2501 -1.6617
 3807TIP3   OH232835   4.336   0.950  12.663  0.2509 -0.1404 -0.1577
 3807TIP3    H132836   4.300   0.947  12.752  0.3621  1.1032 -0.0566
 3807TIP3    H232837   4.424   0.987  12.673  1.0389 -1.8050 -0.5765
 3808TIP3   OH232838   0.106   2.697  15.314 -0.2169 -0.6730  0.1091
 3808TIP3    H132839   0.099   2.619  15.258  1.8403  0.5030 -2.0121
 3808TIP3    H232840   0.017   2.733  15.316 -0.5721 -1.3182 -1.6594
 3809TIP3   OH232841   0.042   2.469  13.470 -0.0577 -0.7029 -0.8380
 3809TIP3    H132842   0.013   2.551  13.430 -0.0930 -0.6558 -0.7184
 3809TIP3    H232843  -0.021   2.404  13.441 -0.9056 -0.4045  0.2625
 3810TIP3   OH232844   4.236   2.545   2.024  0.0513 -0.1526 -0.4734
 3810TIP3    H132845   4.291   2.571   2.098 -0.2091  1.2149 -0.7325
 3810TIP3    H232846   4.282   2.471   1.985 -0.8963 -2.4031  2.3338
 3811TIP3   OH232847   2.116   3.385  16.881 -0.3666 -0.3672  0.4155
 3811TIP3    H132848   2.185   3.446  16.905  0.6118 -0.6485 -1.4930
 3811TIP3    H232849   2.037   3.439  16.874  0.5270  0.7969 -1.4595
 3812TIP3   OH232850   6.290   2.542  12.901 -0.4088  0.1563  0.9066
 3812TIP3    H132851   6.232   2.609  12.937  0.9796  0.8031  2.0358
 3812TIP3    H232852   6.317   2.491  12.977  2.9762  1.8468  0.9999
 3813TIP3   OH232853   1.808   2.369   5.745 -0.5417 -0.3627  0.0421
 3813TIP3    H132854   1.831   2.280   5.718 -1.3548 -0.7929  0.7181
 3813TIP3    H232855   1.859   2.425   5.687 -0.9808 -1.2565 -1.2679
 3814TIP3   OH232856   2.636   3.618  14.401 -0.5780  0.4411 -0.2072
 3814TIP3    H132857   2.611   3.570  14.322 -1.5901  0.2861  0.1846
 3814TIP3    H232858   2.697   3.561  14.446  0.3270  0.7040 -1.0643
 3815TIP3   OH232859   0.375   4.838   0.155 -0.1217 -0.5578  0.3815
 3815TIP3    H132860   0.368   4.898   0.228 -2.0987  0.5860 -0.6543
 3815TIP3    H232861   0.289   4.795   0.151  0.1420 -1.0211 -0.8916
 3816TIP3   OH232862   4.766   3.664   4.742 -0.0071  0.2962  0.4829
 3816TIP3    H132863   4.764   3.568   4.742  0.8972  0.2723 -0.0318
 3816TIP3    H232864   4.834   3.687   4.679 -0.6631  1.2948  0.1156
 3817TIP3   OH232865   5.424   3.505  13.647  0.2064 -0.0764 -0.1602
 3817TIP3    H132866   5.426   3.560  13.725 -0.0364  0.4959 -0.5408
 3817TIP3    H232867   5.508   3.460  13.647  0.9982  1.3256 -0.5353
 3818TIP3   OH232868   4.975   4.389  11.203 -0.1998 -0.0101 -0.2397
 3818TIP3    H132869   4.998   4.320  11.141  0.6270  0.6268 -0.6597
 3818TIP3    H232870   4.882   4.375  11.221 -0.0087 -1.3610 -0.1500
 3819TIP3   OH232871   6.756   5.808   4.159  0.1688 -0.8455 -0.1340
 3819TIP3    H132872   6.822   5.784   4.094  1.9577  1.2875  0.7671
 3819TIP3    H232873   6.696   5.866   4.112  1.4880  0.7388  0.0253
 3820TIP3   OH232874   4.600   2.708   6.169 -0.2140 -0.2459 -0.1166
 3820TIP3    H132875   4.622   2.689   6.078 -0.8556 -1.0876 -0.1126
 3820TIP3    H232876   4.638   2.636   6.219  2.0146  1.3117  0.5715
 3821TIP3   OH232877   0.449   0.745   1.580 -0.2805  0.2350  0.1036
 3821TIP3    H132878   0.377   0.794   1.541  0.4342  1.3849  0.2010
 3821TIP3    H232879   0.508   0.727   1.508 -0.0232  0.4429  0.2629
 3822TIP3   OH232880   0.075   1.016   0.222  0.0560 -0.4634  0.8126
 3822TIP3    H132881   0.152   1.022   0.277  1.1249  0.0699 -0.6683
 3822TIP3    H232882   0.090   1.081   0.153 -2.0051  0.0989  0.8220
 3823TIP3   OH232883   4.359   1.722  12.106  0.5127 -0.1478  0.3743
 3823TIP3    H132884   4.448   1.689  12.117  0.7795 -0.5039 -2.2717
 3823TIP3    H232885   4.305   1.662  12.158  1.6778 -0.6190  1.0816
 3824TIP3   OH232886   4.706   3.702   3.844  0.3894 -0.4698  0.4294
 3824TIP3    H132887   4.731   3.755   3.768 -0.8731 -0.5971 -0.0927
 3824TIP3    H232888   4.699   3.613   3.810  1.0088 -0.7279  0.9680
 3825TIP3   OH232889   6.555   2.834  11.301  0.0699 -0.6815 -0.3370
 3825TIP3    H132890   6.647   2.834  11.328 -0.0822  0.8800  0.2882
 3825TIP3    H232891   6.552   2.890  11.224 -0.2085 -1.6340 -1.0456
 3826TIP3   OH232892   6.065   4.111  15.808 -0.0423  0.5773 -0.1949
 3826TIP3    H132893   6.097   4.134  15.721  0.1757  1.1032  0.0166
 3826TIP3    H232894   6.082   4.190  15.861  0.5384  0.0030  0.5056
 3827TIP3   OH232895   4.453   5.777  12.522 -0.1802  0.7556 -0.0319
 3827TIP3    H132896   4.483   5.721  12.450  1.1031  0.4337  0.7216
 3827TIP3    H232897   4.358   5.783  12.510 -0.7481 -3.3021  0.9905
 3828TIP3   OH232898   5.434   5.748  16.533 -0.8257  0.1156  1.0808
 3828TIP3    H132899   5.384   5.829  16.527  1.3024  1.3680 -1.4484
 3828TIP3    H232900   5.523   5.776  16.554 -0.0455 -1.5520  0.1966
 3829TIP3   OH232901   6.546   0.968   3.513 -0.1761 -0.3017  0.3053
 3829TIP3    H132902   6.468   1.023   3.519 -0.6037 -0.9122  0.4032
 3829TIP3    H232903   6.526   0.892   3.568 -0.5190 -1.6633 -1.6148
 3830TIP3   OH232904   3.548   1.874  15.066 -0.4067 -0.3035 -0.5199
 3830TIP3    H132905   3.547   1.887  14.972 -0.8998  2.6030 -0.2189
 3830TIP3    H232906   3.635   1.901  15.094 -0.4657 -0.5512 -0.0730
 3831TIP3   OH232907   0.523   1.305  15.105  0.4832  0.2700  0.2960
 3831TIP3    H132908   0.513   1.321  15.011  0.9035  0.7545  0.3308
 3831TIP3    H232909   0.434   1.289  15.136  0.1257  1.7197  0.1034
 3832TIP3   OH232910   2.483   4.782  14.749 -0.1493  0.5476 -0.0925
 3832TIP3    H132911   2.403   4.745  14.713 -0.3265  0.9815 -0.1505
 3832TIP3    H232912   2.534   4.809  14.673  0.1375  0.1105 -0.0627
 3833TIP3   OH232913   3.945   6.610   1.443 -0.8533  0.3266 -0.2499
 3833TIP3    H132914   3.887   6.554   1.495 -1.4753 -0.0462 -1.2966
 3833TIP3    H232915   4.012   6.640   1.504 -0.7779 -1.1934  0.4543
 3834TIP3   OH232916   6.187   6.293  13.138 -0.0309 -0.2813 -0.5265
 3834TIP3    H132917   6.245   6.228  13.178 -1.9114 -2.0677 -0.5507
 3834TIP3    H232918   6.163   6.351  13.210  0.7701 -0.2791 -0.2519
 3835TIP3   OH232919   6.194   5.097   1.622 -0.2477  0.2058  0.5662
 3835TIP3    H132920   6.123   5.099   1.559 -1.0548 -0.5471  1.4094
 3835TIP3    H232921   6.218   5.004   1.627  1.6434  0.5845 -0.6038
 3836TIP3   OH232922   6.279   6.359  16.034 -0.2804 -0.5515 -0.5956
 3836TIP3    H132923   6.301   6.438  16.084  3.5115 -1.3185 -0.7818
 3836TIP3    H232924   6.198   6.327  16.075  0.0333  1.4580  1.8456
 3837TIP3   OH232925   0.826   2.370   2.261  0.4492  0.0774  0.2613
 3837TIP3    H132926   0.783   2.438   2.210  0.8476 -0.2714 -0.5637
 3837TIP3    H232927   0.918   2.376   2.235  0.6102 -0.2856  0.7404
 3838TIP3   OH232928   3.945   0.896   3.053 -0.1225  0.4254 -0.3074
 3838TIP3    H132929   3.979   0.978   3.087  0.2072  0.5786 -0.9955
 3838TIP3    H232930   3.854   0.916   3.028  0.1623  0.7716 -1.1042
 3839TIP3   OH232931   5.424   1.394   6.486 -0.4814 -0.8393 -0.2764
 3839TIP3    H132932   5.517   1.372   6.495 -0.5701 -0.5534  1.9130
 3839TIP3    H232933   5.385   1.317   6.445  0.9262 -0.3451 -2.7670
 3840TIP3   OH232934   0.050   1.931   1.216  0.3699 -0.4507 -0.6106
 3840TIP3    H132935   0.042   2.004   1.277  2.5501 -0.9124  0.3111
 3840TIP3    H232936  -0.010   1.865   1.250 -1.8445  0.9236 -1.6180
 3841TIP3   OH232937   3.308   0.835   5.260 -0.0373  0.2057  0.1209
 3841TIP3    H132938   3.359   0.802   5.334 -0.3086  0.5757  0.4738
 3841TIP3    H232939   3.218   0.809   5.279 -0.2892  1.3005  0.5017
 3842TIP3   OH232940   0.169   1.316  11.514  0.3893 -0.1542 -0.1127
 3842TIP3    H132941   0.086   1.281  11.484  0.7070 -0.9255 -0.1242
 3842TIP3    H232942   0.230   1.242  11.509  0.2825 -0.6238  3.1978
 3843TIP3   OH232943   2.312   6.731   1.925 -0.2282  0.2902 -0.5029
 3843TIP3    H132944   2.252   6.673   1.972  1.3920 -1.3569 -0.3572
 3843TIP3    H232945   2.256   6.777   1.862 -1.7755 -0.5085  0.2306
 3844TIP3   OH232946   0.735   0.583   4.257 -0.2315  0.5977 -0.4253
 3844TIP3    H132947   0.784   0.501   4.245 -3.1219 -1.1484 -1.1735
 3844TIP3    H232948   0.711   0.610   4.169  1.0593  2.5898 -0.2232
 3845TIP3   OH232949   3.074   0.818  14.462  0.3650 -0.6278 -0.3793
 3845TIP3    H132950   3.169   0.822  14.471  0.3186 -2.6625  1.8595
 3845TIP3    H232951   3.059   0.746  14.400  0.2948 -1.3179  0.4196
 3846TIP3   OH232952   5.352   2.334  17.310  0.1912  1.0013  0.2653
 3846TIP3    H132953   5.313   2.272  17.248 -0.0216 -0.4468  1.7440
 3846TIP3    H232954   5.442   2.304  17.321  0.5929  1.9961 -0.2544
 3847TIP3   OH232955   2.770   1.720  16.243 -0.2522  0.4617  0.0897
 3847TIP3    H132956   2.819   1.639  16.242 -0.4912  0.3060  0.7572
 3847TIP3    H232957   2.730   1.725  16.156  0.3720  0.2491 -0.2138
 3848TIP3   OH232958   4.647   2.942  14.890  0.2259 -0.6458  0.0736
 3848TIP3    H132959   4.641   2.929  14.985 -0.6462 -2.1471 -0.1635
 3848TIP3    H232960   4.739   2.964  14.875  0.6191 -1.4807  1.1486
 3849TIP3   OH232961   6.410   0.504   3.721  0.2153  0.5925 -0.1320
 3849TIP3    H132962   6.361   0.442   3.775 -0.5576  1.3016 -0.0005
 3849TIP3    H232963   6.493   0.516   3.767 -0.2269  0.7883  0.6287
 3850TIP3   OH232964   0.413   3.198   2.355 -0.4506  0.3461 -0.8878
 3850TIP3    H132965   0.351   3.134   2.390  0.3725  0.2051  0.4045
 3850TIP3    H232966   0.430   3.257   2.429  1.3292  0.0623 -1.0199
 3851TIP3   OH232967   0.757   3.581   4.842  0.6823 -0.3019 -0.2428
 3851TIP3    H132968   0.734   3.603   4.932 -0.1671 -0.0387 -0.5190
 3851TIP3    H232969   0.710   3.646   4.789 -1.3999 -2.3479 -1.0479
 3852TIP3   OH232970   5.315   3.430   3.793 -0.2200 -0.1533  0.1818
 3852TIP3    H132971   5.319   3.387   3.879  0.6668 -1.6159 -0.5453
 3852TIP3    H232972   5.405   3.459   3.777 -0.6709  1.4228  0.3499
 3853TIP3   OH232973   6.320   3.656  11.109  0.1461 -0.8017 -0.3565
 3853TIP3    H132974   6.290   3.615  11.028  5.3890 -1.4840 -2.2773
 3853TIP3    H232975   6.403   3.614  11.129  0.8337  1.8222  3.4652
 3854TIP3   OH232976   0.819   3.953   2.468  0.3758 -0.2665 -0.5724
 3854TIP3    H132977   0.757   4.020   2.497 -1.1726 -2.8966  2.8822
 3854TIP3    H232978   0.782   3.919   2.386 -2.1029 -0.7837  0.6746
 3855TIP3   OH232979   2.890   3.322  12.109 -0.4587 -0.1545 -0.0311
 3855TIP3    H132980   2.980   3.298  12.130 -1.0771 -1.4635  1.3101
 3855TIP3    H232981   2.898   3.382  12.036  1.5307  0.1278  0.3555
 3856TIP3   OH232982   1.571   5.775   4.621  0.9768  0.0583  0.2676
 3856TIP3    H132983   1.493   5.822   4.653  0.6918  0.5725 -1.1363
 3856TIP3    H232984   1.536   5.702   4.570  1.4159  0.2398 -0.2999
 3857TIP3   OH232985   1.359   0.883  11.272 -0.3809 -0.1186  0.0306
 3857TIP3    H132986   1.306   0.961  11.260 -1.3339 -0.6537  0.6196
 3857TIP3    H232987   1.429   0.910  11.333 -1.5600 -0.0767  1.4237
 3858TIP3   OH232988   1.553   6.700  12.958 -0.2595 -0.2283  0.2194
 3858TIP3    H132989   1.600   6.619  12.979  0.3410  0.1480  0.3645
 3858TIP3    H232990   1.555   6.704  12.863 -2.0263 -1.3801  0.1002
 3859TIP3   OH232991   3.385   0.558   4.938  0.0262 -0.6204 -0.3451
 3859TIP3    H132992   3.421   0.644   4.957  1.0362 -0.8540 -1.1359
 3859TIP3    H232993   3.376   0.517   5.024 -1.2760  0.5585  0.1159
 3860TIP3   OH232994   0.626   0.350   1.616  0.6929 -0.0113 -0.7219
 3860TIP3    H132995   0.671   0.324   1.696 -0.0864 -0.6684 -0.4935
 3860TIP3    H232996   0.537   0.316   1.625 -0.0551  1.7389 -0.9063
 3861TIP3   OH232997   0.164   3.087   5.431 -0.6992  0.1419  0.2374
 3861TIP3    H132998   0.177   3.084   5.336 -2.0874 -1.6063  0.0472
 3861TIP3    H232999   0.184   3.177   5.455 -0.3671  0.6346 -1.7254
 3862TIP3   OH233000   0.800   3.188  12.255 -0.3469 -0.5921 -0.3281
 3862TIP3    H133001   0.846   3.254  12.203  1.0269 -1.0102  0.3251
 3862TIP3    H233002   0.845   3.106  12.234 -2.1653 -1.3923 -1.2933
 3863TIP3   OH233003   6.070   3.775   0.554  0.2979  0.5255  0.1825
 3863TIP3    H133004   6.129   3.752   0.626  1.1850 -0.5306 -0.8498
 3863TIP3    H233005   6.038   3.862   0.577 -0.2120 -0.1674  2.3402
 3864TIP3   OH233006   5.619   3.156  17.339 -0.4974  0.0744 -0.0881
 3864TIP3    H133007   5.713   3.173  17.345 -0.5251 -0.0994  1.0789
 3864TIP3    H233008   5.612   3.065  17.312 -0.3437  0.5063 -1.6487
 3865TIP3   OH233009   2.702   6.052  11.587  0.1327 -0.0280  0.1060
 3865TIP3    H133010   2.610   6.040  11.608  0.7349 -0.4739  2.8648
 3865TIP3    H233011   2.745   5.972  11.619  1.2729 -0.8255 -3.0543
 3866TIP3   OH233012   2.973   3.490   4.152 -0.3238 -0.1314  0.6732
 3866TIP3    H133013   3.037   3.423   4.175 -0.7110 -0.7501 -0.0088
 3866TIP3    H233014   3.017   3.544   4.086 -0.7135 -0.9550 -0.2877
 3867TIP3   OH233015   3.141   3.555  10.497 -0.1370 -0.4902 -0.1463
 3867TIP3    H133016   3.049   3.541  10.519 -0.4110  0.6209 -0.5494
 3867TIP3    H233017   3.167   3.630  10.551  0.8515 -1.4703  0.7856
 3868TIP3   OH233018   5.286   4.912  12.454  0.2082  0.5068  0.3245
 3868TIP3    H133019   5.299   4.954  12.539 -2.7794  0.9775  0.6558
 3868TIP3    H233020   5.279   4.985  12.392 -0.0036  0.2779  0.0736
 3869TIP3   OH233021   0.856   4.064  17.319 -0.2037  0.6390 -0.1738
 3869TIP3    H133022   0.939   4.081  17.364  0.4349  1.6888 -1.6738
 3869TIP3    H233023   0.875   4.081  17.227 -2.0705  0.7946 -0.5639
 3870TIP3   OH233024   2.185   5.951  17.279  0.5996  0.1814  0.2685
 3870TIP3    H133025   2.204   5.857  17.272 -1.1245 -0.1776 -0.0800
 3870TIP3    H233026   2.159   5.977  17.191  1.2501  1.0450  0.3225
 3871TIP3   OH233027   5.333   0.793   6.551 -0.1566 -0.4573  0.2366
 3871TIP3    H133028   5.322   0.878   6.509  0.7136 -1.3905 -2.0166
 3871TIP3    H233029   5.287   0.731   6.493  0.8694 -1.7792  0.7724
 3872TIP3   OH233030   2.202   5.670   3.875 -0.1591 -0.2654  1.3829
 3872TIP3    H133031   2.151   5.635   3.802 -0.4995  1.9469  0.4839
 3872TIP3    H233032   2.160   5.634   3.953 -0.1450 -2.2203  0.5303
 3873TIP3   OH233033   1.628   1.140  11.659 -0.0617  0.3983 -0.0404
 3873TIP3    H133034   1.571   1.066  11.638 -0.6976  1.1802 -1.1387
 3873TIP3    H233035   1.717   1.104  11.653 -0.3372 -0.1267 -1.1967
 3874TIP3   OH233036   3.935   1.868  14.823 -0.4937 -0.0056 -0.0696
 3874TIP3    H133037   3.952   1.827  14.908 -0.2098 -0.9219 -0.5471
 3874TIP3    H233038   3.987   1.948  14.824 -2.2045  1.1399  1.4591
 3875TIP3   OH233039   3.592   1.299  14.931  0.1036 -0.1322  0.6879
 3875TIP3    H133040   3.675   1.339  14.956 -0.1286 -0.3411  1.8445
 3875TIP3    H233041   3.597   1.210  14.965 -0.4137 -0.2844  0.3763
 3876TIP3   OH233042   1.947   4.088  11.768  0.0830 -0.3910 -0.3015
 3876TIP3    H133043   1.975   4.081  11.677 -1.2277 -0.8361 -0.6831
 3876TIP3    H233044   1.852   4.096  11.764  0.1967  3.1980  0.8358
 3877TIP3   OH233045   0.417   3.863   5.389  0.1442 -0.3305 -0.2904
 3877TIP3    H133046   0.474   3.788   5.371 -0.8097 -1.3211  0.6535
 3877TIP3    H233047   0.405   3.861   5.484  0.4632  1.3087 -0.2007
 3878TIP3   OH233048   1.880   3.361  12.685 -0.1097  0.1081  0.1659
 3878TIP3    H133049   1.820   3.369  12.759 -0.7128  1.0865 -0.4027
 3878TIP3    H233050   1.939   3.290  12.709 -1.2677 -0.6380  0.9061
 3879TIP3   OH233051   6.631   0.495  15.849  0.4422 -0.3392 -0.5580
 3879TIP3    H133052   6.606   0.484  15.757  0.0636  4.1062 -1.1934
 3879TIP3    H233053   6.551   0.525  15.891  0.9587 -1.0527  0.9935
 3880TIP3   OH233054   4.242   6.404  16.864 -0.4565  0.2211 -0.4784
 3880TIP3    H133055   4.185   6.456  16.921 -1.8291 -1.0801 -0.6055
 3880TIP3    H233056   4.250   6.455  16.784  0.8706  1.7151  0.5369
 3881TIP3   OH233057   0.359   3.918   2.961  0.1767  0.2337  0.4045
 3881TIP3    H133058   0.356   3.961   3.046  0.0937  2.3258 -0.5826
 3881TIP3    H233059   0.412   3.978   2.906  0.6491 -1.2911 -0.8812
 3882TIP3   OH233060   2.308   3.753   5.011  0.0159  0.0093 -0.4475
 3882TIP3    H133061   2.382   3.765   5.071 -0.2811  3.1124 -0.4978
 3882TIP3    H233062   2.239   3.809   5.046 -0.8104  0.4983 -2.6561
 3883TIP3   OH233063   0.065   4.483  13.204 -0.2883 -0.0089 -0.9602
 3883TIP3    H133064   0.141   4.537  13.224 -0.5492 -0.2315  0.7599
 3883TIP3    H233065  -0.010   4.542  13.213 -0.5049 -0.4174  0.0505
 3884TIP3   OH233066   3.468   0.227  13.049 -0.0260  0.3303 -0.1977
 3884TIP3    H133067   3.407   0.282  13.000 -0.2015  0.2344 -0.0863
 3884TIP3    H233068   3.479   0.149  12.994  1.1194  0.9615 -0.9180
 3885TIP3   OH233069   3.721   2.077   1.810 -0.5521  0.5033 -0.5507
 3885TIP3    H133070   3.745   1.998   1.859  0.1881  1.0160 -0.0733
 3885TIP3    H233071   3.629   2.063   1.785 -0.7224 -0.0815  0.3610
 3886TIP3   OH233072   4.598   0.933  15.245  0.2541 -0.1526 -0.1984
 3886TIP3    H133073   4.576   0.992  15.318 -1.1572 -0.3630 -0.4270
 3886TIP3    H233074   4.636   0.990  15.178  0.3742  0.2401  0.2001
 3887TIP3   OH233075   0.014   3.321  13.749 -0.3527  0.5924 -0.4662
 3887TIP3    H133076   0.052   3.239  13.718 -0.7832  0.5739 -0.9578
 3887TIP3    H233077  -0.030   3.358  13.673 -0.5460  1.0587 -0.1338
 3888TIP3   OH233078   0.286   6.549  14.306 -0.1733 -0.3768 -0.3099
 3888TIP3    H133079   0.298   6.512  14.219 -1.5168  1.4026 -1.3203
 3888TIP3    H233080   0.192   6.540  14.324 -0.3548  1.4555 -0.1439
 3889TIP3   OH233081   3.602   5.988  11.387 -0.5864  0.0112 -0.0406
 3889TIP3    H133082   3.516   5.983  11.427 -0.7846  0.4168 -0.4179
 3889TIP3    H233083   3.592   5.943  11.303 -0.5391  0.4165 -0.2667
 3890TIP3   OH233084   3.468   3.901   1.991  0.3321 -0.6484 -0.1393
 3890TIP3    H133085   3.473   3.952   1.910 -2.3757  0.9089  0.5422
 3890TIP3    H233086   3.410   3.828   1.968  1.0918 -1.2776 -0.0805
 3891TIP3   OH233087   1.926   5.513   0.376  0.5324 -0.0230  0.4623
 3891TIP3    H133088   1.958   5.582   0.317  1.8866 -0.2823  0.8467
 3891TIP3    H233089   1.940   5.432   0.327 -4.4621 -0.0138 -1.5783
 3892TIP3   OH233090   0.818   4.011  16.041 -0.0745 -0.0318 -0.0674
 3892TIP3    H133091   0.847   4.009  15.950  1.9049  1.3263  0.4534
 3892TIP3    H233092   0.846   4.097  16.073 -0.7028 -0.4828  1.8169
 3893TIP3   OH233093   4.451   3.627  14.797  0.2823  0.0468 -0.3006
 3893TIP3    H133094   4.413   3.619  14.884 -1.4744  0.3977 -0.9924
 3893TIP3    H233095   4.538   3.666  14.812  0.1392 -0.1899  1.2928
 3894TIP3   OH233096   1.983   1.436   1.010 -0.2268 -0.1557  0.1930
 3894TIP3    H133097   1.962   1.518   1.054 -1.2856 -0.5218  0.4114
 3894TIP3    H233098   1.935   1.369   1.060  1.1730 -1.0087  0.4523
 3895TIP3   OH233099   0.798   6.140  16.122 -0.7618 -0.1146  0.0527
 3895TIP3    H133100   0.884   6.138  16.164 -0.5522 -2.5614 -0.3381
 3895TIP3    H233101   0.791   6.056  16.076 -3.2072  0.1615 -0.2533
 3896TIP3   OH233102   1.056   6.593   0.210 -0.1195  0.0960  0.4807
 3896TIP3    H133103   1.014   6.660   0.157 -0.4234  0.3343  1.0146
 3896TIP3    H233104   0.989   6.526   0.221  0.0929 -0.1715  0.1850
 3897TIP3   OH233105   3.725   6.214   5.675  0.0293  0.0871 -0.4799
 3897TIP3    H133106   3.670   6.192   5.750 -0.4568  1.3450 -0.4411
 3897TIP3    H233107   3.696   6.156   5.605 -0.5566 -0.0423 -0.1311
 3898TIP3   OH233108   4.241   3.684   2.239  0.6024 -0.1915  0.6014
 3898TIP3    H133109   4.264   3.708   2.149  0.0047 -0.7947  0.2735
 3898TIP3    H233110   4.320   3.701   2.290  0.8912  0.3148 -0.0117
 3899TIP3   OH233111   2.909   6.583  14.019 -0.4662 -0.7668 -0.3764
 3899TIP3    H133112   2.860   6.512  14.060 -0.0667 -0.3730  0.8425
 3899TIP3    H233113   2.887   6.660  14.071 -0.2071 -0.1772 -1.1307
 3900TIP3   OH233114   0.543   6.704   6.013 -0.4866  0.0131  0.6879
 3900TIP3    H133115   0.485   6.629   6.023 -0.5716  0.2303  2.0441
 3900TIP3    H233116   0.484   6.777   5.993 -0.8352  0.3735  2.7294
 3901TIP3   OH233117   1.486   5.119  16.925 -0.3592  0.2150 -0.4491
 3901TIP3    H133118   1.454   5.117  17.015  0.2593  0.7639 -0.2055
 3901TIP3    H233119   1.562   5.177  16.928  1.5513 -2.1094 -0.7031
 3902TIP3   OH233120   0.783   2.112  15.426 -0.0089 -0.2063  0.6719
 3902TIP3    H133121   0.836   2.148  15.498  1.4410  1.0262 -0.9253
 3902TIP3    H233122   0.740   2.189  15.388 -1.5329 -0.9699  0.7927
 3903TIP3   OH233123   1.956   0.019   1.620  0.1990 -0.0482  0.0800
 3903TIP3    H133124   1.934   0.069   1.698  0.0338  0.8010 -0.4947
 3903TIP3    H233125   1.893  -0.054   1.620  1.5785 -1.3203  1.8731
 3904TIP3   OH233126   6.300   5.952   3.761  0.4942 -0.4212 -0.1147
 3904TIP3    H133127   6.387   5.976   3.729  0.1880  0.1667 -0.5246
 3904TIP3    H233128   6.240   5.998   3.703 -0.0838  1.5672  1.9669
 3905TIP3   OH233129   6.618   4.225   1.138 -0.9585 -0.9878 -0.0261
 3905TIP3    H133130   6.582   4.222   1.227  0.0919 -0.2939  0.4404
 3905TIP3    H233131   6.568   4.294   1.095 -0.4293 -0.2531  0.5146
 3906TIP3   OH233132   4.484   1.666  14.689 -0.3056  0.2909  0.1086
 3906TIP3    H133133   4.468   1.742  14.634 -0.0799 -0.0755 -0.4674
 3906TIP3    H233134   4.425   1.598  14.654  0.6762 -0.2999 -0.4359
 3907TIP3   OH233135   3.488   4.696   3.554  0.4243  0.6662  0.3728
 3907TIP3    H133136   3.510   4.608   3.586 -0.4369  0.0853 -0.5458
 3907TIP3    H233137   3.516   4.695   3.463 -1.3908  0.6170 -0.2311
 3908TIP3   OH233138   4.751   4.120   0.136 -0.3863  0.4980 -0.2586
 3908TIP3    H133139   4.800   4.059   0.192 -1.5514 -1.1317 -0.9469
 3908TIP3    H233140   4.676   4.069   0.105 -0.6799  1.8788 -1.9578
 3909TIP3   OH233141   0.748   4.812   1.063 -0.2126  0.3928  0.2038
 3909TIP3    H133142   0.712   4.849   0.982  0.5888 -0.5400 -0.6095
 3909TIP3    H233143   0.677   4.757   1.097  0.1751 -0.9346 -1.0474
 3910TIP3   OH233144   3.881   4.117   4.814 -0.1623 -0.0278 -0.1551
 3910TIP3    H133145   3.894   4.095   4.722 -0.1485 -0.6774  0.0012
 3910TIP3    H233146   3.789   4.096   4.830  0.2408 -1.4585  0.3980
 3911TIP3   OH233147   1.320   3.005   0.782 -0.0659 -0.0210 -0.0803
 3911TIP3    H133148   1.313   3.097   0.756  0.1471  0.2116  0.6634
 3911TIP3    H233149   1.243   2.989   0.836  0.0756 -0.1858  0.0736
 3912TIP3   OH233150   2.230   6.382   0.350  0.5894 -0.2066  0.0713
 3912TIP3    H133151   2.222   6.289   0.375 -0.2251 -0.1269  0.1461
 3912TIP3    H233152   2.323   6.394   0.332  0.8970 -0.7704  1.1485
 3913TIP3   OH233153   1.563   2.786  16.536  0.1308  0.6490  0.3984
 3913TIP3    H133154   1.472   2.812  16.524 -0.6137 -2.5397 -2.5805
 3913TIP3    H233155   1.566   2.746  16.623 -1.7042 -0.3542  0.0436
 3914TIP3   OH233156   2.374   0.083  13.104  0.4606  0.1448  0.2390
 3914TIP3    H133157   2.396   0.170  13.071  0.7623 -0.2262 -0.5513
 3914TIP3    H233158   2.321   0.043  13.035  0.2185 -0.2550  0.6486
 3915TIP3   OH233159   1.498   4.513   4.572 -0.0987 -0.4159 -0.3827
 3915TIP3    H133160   1.567   4.575   4.550 -0.4819  0.2173  0.1834
 3915TIP3    H233161   1.545   4.435   4.602  0.3787  0.1518  0.3935
 3916TIP3   OH233162   1.390   3.625  16.990  0.2758 -0.2710 -0.2801
 3916TIP3    H133163   1.319   3.685  16.970  0.5112  0.1489  0.1455
 3916TIP3    H233164   1.439   3.667  17.061  0.4531 -0.9475  0.0083
 3917TIP3   OH233165   4.633   2.432   4.089 -0.0462  0.0169  0.0062
 3917TIP3    H133166   4.647   2.495   4.159 -2.6743  0.6646  0.0726
 3917TIP3    H233167   4.598   2.484   4.017 -1.2188 -1.1860 -0.3365
 3918TIP3   OH233168   1.223   5.133   5.200 -0.8417  1.0362 -0.3077
 3918TIP3    H133169   1.282   5.094   5.135  0.1229  1.2286  0.4343
 3918TIP3    H233170   1.250   5.095   5.283 -1.7526  1.1587  0.0555
 3919TIP3   OH233171   1.981   0.749  15.235  0.0655 -0.5151  0.4219
 3919TIP3    H133172   1.939   0.809  15.175 -2.0857 -1.8240  0.5026
 3919TIP3    H233173   2.048   0.704  15.183  0.3749  0.5609 -0.1205
 3920TIP3   OH233174   5.990   5.631   3.280  0.0640  0.3808  0.0493
 3920TIP3    H133175   6.071   5.582   3.293 -0.1488 -0.7838 -2.4700
 3920TIP3    H233176   5.981   5.683   3.360  3.6824  1.1532  0.1341
 3921TIP3   OH233177   4.338   5.684  15.183  0.6529  0.2965 -0.3583
 3921TIP3    H133178   4.290   5.762  15.210  0.4914 -0.5285  1.9908
 3921TIP3    H233179   4.271   5.616  15.177  0.8104  0.2745 -2.2452
 3922TIP3   OH233180   4.930   6.494  11.421  0.0464  0.4541 -0.2407
 3922TIP3    H133181   4.857   6.487  11.483  0.6092 -0.9107  0.2976
 3922TIP3    H233182   4.994   6.548  11.467 -0.4310  1.3008 -0.5448
 3923TIP3   OH233183   5.883   6.432   2.543 -0.2476  0.1764 -0.1651
 3923TIP3    H133184   5.866   6.521   2.514 -0.0761  0.1733 -0.2720
 3923TIP3    H233185   5.937   6.441   2.622  1.2044  0.1298 -1.1202
 3924TIP3   OH233186   4.302   4.960   3.004  0.1995 -0.0843 -0.0635
 3924TIP3    H133187   4.214   4.932   2.978 -0.1232 -0.4125  1.2933
 3924TIP3    H233188   4.358   4.933   2.931 -0.7999  0.0492 -0.9092
 3925TIP3   OH233189   3.489   2.365   0.330 -0.3789 -0.4076 -0.1668
 3925TIP3    H133190   3.457   2.278   0.353 -1.0271  0.0924  0.8606
 3925TIP3    H233191   3.498   2.411   0.413 -3.8069  1.8048 -0.8173
 3926TIP3   OH233192   0.366   1.494   5.336 -0.2503 -0.9937  0.3219
 3926TIP3    H133193   0.410   1.409   5.331 -2.7079 -2.2994 -0.6050
 3926TIP3    H233194   0.419   1.551   5.280  0.6265 -2.3104 -0.2491
 3927TIP3   OH233195   2.784   2.430   2.277 -0.3844  0.6883 -0.7799
 3927TIP3    H133196   2.876   2.446   2.300 -1.2530 -0.5866  5.1822
 3927TIP3    H233197   2.785   2.343   2.238  1.0280  1.8181 -3.5831
 3928TIP3   OH233198   2.805   5.211   3.998  0.1575  0.5120  0.4465
 3928TIP3    H133199   2.846   5.130   3.967  1.5347  1.3316  0.0758
 3928TIP3    H233200   2.717   5.183   4.025  0.2596 -0.9355 -0.5469
 3929TIP3   OH233201   5.844   2.030   0.534  0.4645  0.4781  0.0222
 3929TIP3    H133202   5.785   2.076   0.473  0.1206  0.1753  0.1258
 3929TIP3    H233203   5.819   2.064   0.620 -0.1498 -0.2834  0.1540
 3930TIP3   OH233204   0.509   4.622   3.953 -0.0987 -0.1051  0.7590
 3930TIP3    H133205   0.422   4.584   3.935 -0.0554 -0.0614  0.4468
 3930TIP3    H233206   0.493   4.716   3.957 -0.0917 -0.1083  0.8519
 3931TIP3   OH233207   2.230   1.886  16.409  0.0368  0.2375  0.4798
 3931TIP3    H133208   2.245   1.841  16.326  1.0299  0.9662  0.2479
 3931TIP3    H233209   2.303   1.948  16.417 -0.9628  1.3870  1.0800
 3932TIP3   OH233210   6.535   2.216   1.191 -0.3714  0.7868  0.4409
 3932TIP3    H133211   6.467   2.149   1.203 -1.5398  1.8257 -0.2080
 3932TIP3    H233212   6.487   2.295   1.166  1.0498  1.6755  0.4265
 3933TIP3   OH233213   3.223   6.605   4.838 -0.1173 -0.4282  0.5902
 3933TIP3    H133214   3.274   6.684   4.819 -1.9618  0.3992 -1.4005
 3933TIP3    H233215   3.281   6.532   4.813  0.3094  0.4501 -1.1833
 3934TIP3   OH233216   1.577   6.418  16.857 -0.5726 -0.4130  0.2815
 3934TIP3    H133217   1.617   6.479  16.919 -2.7122 -0.4677  1.8437
 3934TIP3    H233218   1.651   6.377  16.813  0.9831  1.3701  1.0857
 3935TIP3   OH233219   3.360   2.027   5.498 -0.6072 -0.1714  0.3644
 3935TIP3    H133220   3.276   2.059   5.464 -1.3294 -1.4125  0.9283
 3935TIP3    H233221   3.363   2.059   5.589 -0.3671  0.0502  0.2801
 3936TIP3   OH233222   6.293   6.350  13.630 -0.3037  0.7508  0.0601
 3936TIP3    H133223   6.266   6.324  13.542  1.3857 -1.0255 -0.0001
 3936TIP3    H233224   6.262   6.279  13.687  1.3243  0.3019  0.4257
 3937TIP3   OH233225   0.926   4.616   1.221 -0.4153 -0.3259 -0.0728
 3937TIP3    H133226   0.918   4.537   1.167  0.4168  0.8592 -2.0157
 3937TIP3    H233227   0.861   4.676   1.185  0.9732  0.9204 -0.6165
 3938TIP3   OH233228   1.036   1.420   4.740  0.1278 -0.2922 -1.2056
 3938TIP3    H133229   1.064   1.349   4.798 -0.5014  1.4073  1.3350
 3938TIP3    H233230   1.115   1.471   4.725  0.2829 -0.7118 -1.8689
 3939TIP3   OH233231   6.378   5.014   0.712  0.8390  0.0227  0.0705
 3939TIP3    H133232   6.330   5.090   0.681  0.2988  0.3534  1.6557
 3939TIP3    H233233   6.461   5.049   0.745  0.5462 -0.0413  0.8997
 3940TIP3   OH233234   5.157   4.537  13.275 -0.4426 -0.6409 -0.0194
 3940TIP3    H133235   5.065   4.555  13.256 -0.9587 -3.9425 -1.3839
 3940TIP3    H233236   5.160   4.521  13.369 -1.2170 -0.2861  0.0685
 3941TIP3   OH233237   6.050   6.192  12.236 -0.4288 -0.3994  0.2103
 3941TIP3    H133238   6.027   6.199  12.144 -2.2451  5.2341  0.6938
 3941TIP3    H233239   5.972   6.154  12.277  0.1821 -2.4076 -0.3665
 3942TIP3   OH233240   6.284   3.974   1.236  0.2857  0.3577  0.7180
 3942TIP3    H133241   6.341   4.038   1.278  0.3833  0.7665 -0.0300
 3942TIP3    H233242   6.266   3.910   1.305  0.6515  0.8768  1.3087
 3943TIP3   OH233243   2.815   3.638  11.633 -0.0625 -0.0886  0.1239
 3943TIP3    H133244   2.820   3.701  11.562  1.4963 -1.1169 -0.7437
 3943TIP3    H233245   2.829   3.553  11.591 -2.2269 -1.0802  1.2285
 3944TIP3   OH233246   1.711   0.755  14.733  0.0921  0.1049  0.3075
 3944TIP3    H133247   1.780   0.735  14.670 -2.1435 -1.1799 -1.9069
 3944TIP3    H233248   1.724   0.692  14.804  2.0768  0.9396  0.7556
 3945TIP3   OH233249   1.796   3.016  13.687  0.1128  0.3745  0.3636
 3945TIP3    H133250   1.748   2.959  13.747 -0.7264 -0.4230 -1.0100
 3945TIP3    H233251   1.774   3.105  13.714  3.0195  0.2644  3.8662
 3946TIP3   OH233252   6.755   5.647   3.561  0.4844 -0.0467 -0.3713
 3946TIP3    H133253   6.815   5.716   3.532  1.9930 -1.0284  0.2858
 3946TIP3    H233254   6.765   5.578   3.494  0.3936 -0.3751 -0.0488
 3947TIP3   OH233255   0.246   4.324   6.384 -0.0558  0.5138 -0.2587
 3947TIP3    H133256   0.232   4.293   6.473  3.5472 -1.0767 -0.0383
 3947TIP3    H233257   0.277   4.414   6.394  1.7205 -0.1177  0.3130
 3948TIP3   OH233258   0.258   1.396   0.229  0.4004  0.1770 -0.2790
 3948TIP3    H133259   0.308   1.330   0.182 -1.7532 -0.5323 -1.7200
 3948TIP3    H233260   0.220   1.451   0.161  0.6600  1.8192  0.8311
 3949TIP3   OH233261   1.919   5.057   3.815  0.0523  1.1595  0.0717
 3949TIP3    H133262   1.955   5.024   3.734  0.4232  1.7465 -0.0133
 3949TIP3    H233263   1.995   5.090   3.863  0.1392 -1.0234  1.5790
 3950TIP3   OH233264   0.323   3.128  12.920  0.0696 -0.1917 -0.0782
 3950TIP3    H133265   0.398   3.077  12.889 -1.4829 -1.8787 -1.2933
 3950TIP3    H233266   0.362   3.206  12.959  2.4908 -1.4540  0.2444
 3951TIP3   OH233267   4.486   3.480  16.089  0.2353  0.2349 -0.4925
 3951TIP3    H133268   4.455   3.395  16.121  1.3768 -0.2270 -0.5680
 3951TIP3    H233269   4.470   3.540  16.162  0.4629 -0.2780 -0.0112
 3952TIP3   OH233270   1.540   3.128  12.525 -0.1119 -0.0378  1.3411
 3952TIP3    H133271   1.536   3.161  12.435  1.2735  0.2666  1.3581
 3952TIP3    H233272   1.472   3.061  12.530  1.9504 -2.5838 -1.0534
 3953TIP3   OH233273   1.970   0.200   0.355  0.7529 -0.1052 -0.2539
 3953TIP3    H133274   2.055   0.185   0.398  0.4674 -0.5596  0.1714
 3953TIP3    H233275   1.972   0.292   0.330  1.1475  0.0368  0.2662
 3954TIP3   OH233276   4.952   0.207  17.200 -0.7243 -0.2247 -0.3059
 3954TIP3    H133277   4.995   0.195  17.284 -0.4023 -1.3055 -0.6023
 3954TIP3    H233278   4.870   0.251  17.220 -0.4029  0.0149  0.5032
 3955TIP3   OH233279   5.349   2.300   5.293  0.0265 -0.2606 -0.1163
 3955TIP3    H133280   5.294   2.355   5.350  1.0510  1.0523 -0.3471
 3955TIP3    H233281   5.290   2.230   5.264 -1.3692  0.7760  0.0821
 3956TIP3   OH233282   0.889   2.735   0.928 -0.2194  0.0004  0.0384
 3956TIP3    H133283   0.795   2.749   0.920 -0.6202 -2.0287  0.7148
 3956TIP3    H233284   0.902   2.642   0.909  1.6106  0.1546  0.2932
 3957TIP3   OH233285   4.420   3.045  15.392  0.3464  0.2978  0.2512
 3957TIP3    H133286   4.434   3.139  15.395  1.2610  0.1888 -0.2807
 3957TIP3    H233287   4.502   3.009  15.357  0.1210 -0.7194  0.7245
 3958TIP3   OH233288   5.859   4.378  16.402  0.4856 -0.2563 -0.2585
 3958TIP3    H133289   5.764   4.371  16.395  0.3341  1.3287 -0.2760
 3958TIP3    H233290   5.892   4.353  16.316 -0.0204  0.3448 -0.6415
 3959TIP3   OH233291   5.969   3.208  14.525 -0.3928 -0.1433  0.3172
 3959TIP3    H133292   5.971   3.212  14.429 -0.2481 -1.2709  0.2682
 3959TIP3    H233293   5.988   3.117  14.546 -1.5977 -0.1673  1.3858
 3960TIP3   OH233294   5.990   3.043  12.417 -0.3428  0.0281  0.1603
 3960TIP3    H133295   6.036   3.015  12.338 -0.0414 -1.3574  0.7936
 3960TIP3    H233296   6.030   3.126  12.441 -0.6704  0.6326 -1.3241
 3961TIP3   OH233297   1.777   3.532  14.584  0.5156  0.0246 -0.3767
 3961TIP3    H133298   1.727   3.585  14.646 -0.8509 -0.2587 -1.2017
 3961TIP3    H233299   1.768   3.578  14.501  2.2606  0.3541 -0.4318
 3962TIP3   OH233300   2.719   6.276   2.228  0.0555 -0.7388  0.0087
 3962TIP3    H133301   2.723   6.188   2.191  0.0505 -0.9073  0.4024
 3962TIP3    H233302   2.809   6.298   2.249  0.3434  0.1373 -1.8643
 3963TIP3   OH233303   0.040   0.834   4.244 -0.3334  0.1671  0.2075
 3963TIP3    H133304   0.017   0.904   4.183 -0.0328  1.1997  1.2278
 3963TIP3    H233305   0.023   0.753   4.196  0.4981  0.9321 -1.4679
 3964TIP3   OH233306   5.119   2.366   2.052  0.4671  0.2915  0.2499
 3964TIP3    H133307   5.081   2.325   2.130 -1.9760  1.4407 -0.2353
 3964TIP3    H233308   5.093   2.458   2.057 -3.0322 -0.1570 -3.5513
 3965TIP3   OH233309   2.591   2.743   6.137 -0.2103  0.2301 -0.0972
 3965TIP3    H133310   2.644   2.811   6.096  2.5251 -0.6519  1.7234
 3965TIP3    H233311   2.514   2.791   6.170  0.5107  2.0126 -0.8449
 3966TIP3   OH233312   4.010   5.243   3.368  0.6366  0.6062  0.3604
 3966TIP3    H133313   4.063   5.169   3.338 -2.7682 -2.2738  0.6460
 3966TIP3    H233314   4.000   5.299   3.291  1.0858 -0.7352 -0.7214
 3967TIP3   OH233315   2.684   3.593   0.012 -0.0734 -0.0302 -0.2392
 3967TIP3    H133316   2.695   3.501  -0.012 -0.4366  0.4391 -2.4985
 3967TIP3    H233317   2.637   3.631  -0.063  0.2409  2.0340  0.5581
 3968TIP3   OH233318   4.882   4.287  12.124  0.0574 -0.0823  0.0641
 3968TIP3    H133319   4.916   4.372  12.153  0.4526 -0.0184 -0.5636
 3968TIP3    H233320   4.925   4.272  12.040  0.2984 -1.1081  0.3614
 3969TIP3   OH233321   1.458   5.050  13.618 -0.3201 -0.4471  0.0290
 3969TIP3    H133322   1.441   5.010  13.704  1.6342 -0.3039  0.5438
 3969TIP3    H233323   1.524   5.117  13.636  0.1692 -0.4564 -1.6022
 3970TIP3   OH233324   5.531   4.361  14.926 -0.2591  0.1668  0.2874
 3970TIP3    H133325   5.526   4.441  14.978 -0.4149 -0.1827  0.8174
 3970TIP3    H233326   5.467   4.302  14.966 -3.1116  1.1019 -2.4744
 3971TIP3   OH233327   3.437   3.317   5.926 -0.1328  0.3076  0.3617
 3971TIP3    H133328   3.528   3.344   5.918 -0.0782  0.4139  1.3418
 3971TIP3    H233329   3.387   3.392   5.893  0.1125  0.3741  0.1329
 3972TIP3   OH233330   0.056   2.341   0.532  0.0923  0.0062  0.2539
 3972TIP3    H133331   0.137   2.355   0.482  1.1873 -0.2445  1.9003
 3972TIP3    H233332  -0.012   2.342   0.465  1.4780 -0.2042 -1.2494
 3973TIP3   OH233333   1.248   6.339   3.320 -0.4485 -0.1891 -0.1066
 3973TIP3    H133334   1.182   6.338   3.251  0.2268 -2.5982 -0.8227
 3973TIP3    H233335   1.225   6.264   3.376 -0.4363  1.1452  1.7998
 3974TIP3   OH233336   3.207   5.505   4.854 -0.3680 -0.3521 -0.1278
 3974TIP3    H133337   3.269   5.473   4.919 -0.3273 -0.3219 -0.1516
 3974TIP3    H233338   3.177   5.427   4.809  0.1750 -0.3030 -0.5801
 3975TIP3   OH233339   1.128   4.855   3.926  0.1211 -0.4661 -0.3222
 3975TIP3    H133340   1.082   4.814   3.999  3.2147  0.0164  2.1293
 3975TIP3    H233341   1.126   4.789   3.856 -1.7467 -1.5079  0.6300
 3976TIP3   OH233342   6.218   4.210  10.904 -0.8170 -0.0798  0.1422
 3976TIP3    H133343   6.219   4.239  10.995  0.1090  0.5057 -0.0404
 3976TIP3    H233344   6.181   4.284  10.856  0.0343  0.1719 -0.1287
 3977TIP3   OH233345   0.022   1.761   0.651  0.3112  0.3226 -0.1413
 3977TIP3    H133346  -0.046   1.828   0.643  2.2396  2.1118 -4.4866
 3977TIP3    H233347   0.001   1.697   0.583  0.3461 -1.9345  1.7949
 3978TIP3   OH233348   2.051   2.193  11.185 -0.1671 -0.0941 -0.4342
 3978TIP3    H133349   2.087   2.223  11.268  0.4253 -1.7964 -0.0362
 3978TIP3    H233350   2.047   2.098  11.193 -0.6485 -0.2608 -2.1417
 3979TIP3   OH233351   4.428   6.079  13.393  0.0879 -0.2230  0.3929
 3979TIP3    H133352   4.394   6.167  13.381  1.2289  0.2445  0.4311
 3979TIP3    H233353   4.495   6.088  13.461 -1.5927 -1.5996  2.3603
 3980TIP3   OH233354   2.381   5.548  10.900  0.1184 -0.5700  0.6452
 3980TIP3    H133355   2.291   5.518  10.916  0.1574 -2.2914 -1.8587
 3980TIP3    H233356   2.372   5.642  10.884 -1.1727 -0.6386  0.8065
 3981TIP3   OH233357   0.575   1.030   1.936  0.0579  0.4270  0.0266
 3981TIP3    H133358   0.486   1.064   1.936 -0.6689 -1.1653  2.5249
 3981TIP3    H233359   0.571   0.951   1.881 -0.4170 -0.3027  1.0756
 3982TIP3   OH233360   1.653   2.811  17.083  0.1445  0.1746  0.3672
 3982TIP3    H133361   1.674   2.815  17.176  0.4478  1.5340  0.2695
 3982TIP3    H233362   1.698   2.733  17.050 -0.1591 -0.4420  1.4012
 3983TIP3   OH233363   1.311   1.744  14.036 -0.0743  0.0659 -0.6177
 3983TIP3    H133364   1.348   1.676  13.980  1.5129  0.1123  0.3230
 3983TIP3    H233365   1.348   1.825  14.003  1.0090  0.0790  0.5572
 3984TIP3   OH233366   3.321   2.104  13.032  0.2195  0.3344 -0.1496
 3984TIP3    H133367   3.382   2.143  12.970 -2.6893  1.6452 -2.3876
 3984TIP3    H233368   3.299   2.175  13.092  0.2582  0.0914  0.1559
 3985TIP3   OH233369   0.288   5.334  16.488  0.3834 -0.1570  0.4640
 3985TIP3    H133370   0.195   5.354  16.478  0.2260 -0.2303  1.6452
 3985TIP3    H233371   0.327   5.415  16.520  0.1682 -0.9314  2.9031
 3986TIP3   OH233372   5.970   0.273   5.410  0.0542  0.2929 -0.1193
 3986TIP3    H133373   5.959   0.353   5.460  2.4776  0.9960 -0.5959
 3986TIP3    H233374   6.001   0.302   5.324 -0.5899 -1.0893 -0.8589
 3987TIP3   OH233375   5.684   1.101   0.797 -0.2379 -0.0898 -0.7098
 3987TIP3    H133376   5.692   1.108   0.892 -2.3195  0.9563 -0.5458
 3987TIP3    H233377   5.639   1.181   0.771 -1.5166 -1.2589 -2.3036
 3988TIP3   OH233378   2.907   6.120   3.689  0.1822  0.6905  0.1434
 3988TIP3    H133379   2.884   6.182   3.619 -0.2481  1.6176  1.0759
 3988TIP3    H233380   2.999   6.137   3.706  0.2977  0.4348 -0.2313
 3989TIP3   OH233381   1.389   1.756   4.966 -0.5595  0.7132 -0.3226
 3989TIP3    H133382   1.346   1.810   4.900 -0.0225  0.6944 -0.6935
 3989TIP3    H233383   1.358   1.791   5.050  0.2175  1.9763 -0.5322
 3990TIP3   OH233384   2.762   4.439  13.678  0.3084  0.3524  0.1565
 3990TIP3    H133385   2.803   4.524  13.691  1.0378 -0.0433  0.4680
 3990TIP3    H233386   2.808   4.380  13.738 -1.6086  0.1709  1.5408
 3991TIP3   OH233387   0.062   5.003  13.162  0.6723 -0.1898 -0.6779
 3991TIP3    H133388  -0.010   5.064  13.145 -0.4445 -1.6695 -1.4423
 3991TIP3    H233389   0.106   5.039  13.239 -1.7346  0.0290  0.6996
 3992TIP3   OH233390   5.014   4.543  15.116 -0.1910 -0.5687  0.0320
 3992TIP3    H133391   5.101   4.582  15.108 -0.5665  0.5853  1.1553
 3992TIP3    H233392   5.031   4.451  15.135  0.7962 -0.2840  0.6151
 3993TIP3   OH233393   4.737   4.738  11.953 -0.7895  0.4312  0.1329
 3993TIP3    H133394   4.784   4.727  11.870  0.8691 -0.7204  1.1827
 3993TIP3    H233395   4.729   4.650  11.988 -1.2109  0.9378  1.3658
 3994TIP3   OH233396   4.809   2.298  13.925 -0.3639  0.1123  0.5296
 3994TIP3    H133397   4.838   2.335  13.841  0.4792 -0.9831  0.3091
 3994TIP3    H233398   4.810   2.203  13.910 -1.3029 -0.0522  1.4426
 3995TIP3   OH233399   3.387   4.737  12.500 -0.0442 -0.5990 -0.8261
 3995TIP3    H133400   3.319   4.680  12.463 -1.8373  1.0693 -0.2793
 3995TIP3    H233401   3.461   4.678  12.517 -0.7953 -2.2492 -2.7620
 3996TIP3   OH233402   4.940   1.126   1.241  0.1406  0.5907 -0.1284
 3996TIP3    H133403   4.869   1.188   1.258  0.6251  1.1207 -0.0177
 3996TIP3    H233404   4.946   1.122   1.145 -0.4626  0.0484 -0.1502
 3997TIP3   OH233405   0.139   0.968  13.062 -0.4894 -0.2496 -0.0470
 3997TIP3    H133406   0.121   1.061  13.053 -1.2130 -0.3108  0.6399
 3997TIP3    H233407   0.126   0.949  13.155 -0.4099 -1.0454 -0.1846
 3998TIP3   OH233408   3.726   2.078  13.923 -0.7771  0.8065  0.2621
 3998TIP3    H133409   3.800   2.033  13.964  1.6153  3.0361 -1.2808
 3998TIP3    H233410   3.727   2.048  13.832  0.6632  3.5311 -0.7102
 3999TIP3   OH233411   3.674   3.756   0.659  0.2555  0.0219 -0.5330
 3999TIP3    H133412   3.638   3.780   0.574  1.8251 -0.1287 -1.2621
 3999TIP3    H233413   3.676   3.838   0.709  2.0629  0.7320 -1.6875
 4000TIP3   OH233414   0.234   4.610   1.388 -0.0807  0.4643 -0.2680
 4000TIP3    H133415   0.156   4.661   1.407 -0.1147 -0.0088  0.9317
 4000TIP3    H233416   0.307   4.665   1.418 -0.0667  0.1901  0.2159
 4001TIP3   OH233417   3.930   0.394   4.852  0.1864  0.1073 -0.1304
 4001TIP3    H133418   3.856   0.372   4.910 -0.3173  2.5528  0.2986
 4001TIP3    H233419   3.888   0.428   4.773  0.8470  0.6184 -0.2657
 4002TIP3   OH233420   4.686   3.703   1.190  0.1319  0.9165  1.1208
 4002TIP3    H133421   4.651   3.700   1.101 -1.5850 -0.2589  1.7926
 4002TIP3    H233422   4.777   3.674   1.181 -0.8466 -2.2228  0.0923
 4003TIP3   OH233423   6.392   4.509   5.674 -0.4430  0.3791 -0.1433
 4003TIP3    H133424   6.437   4.425   5.681 -1.7969 -0.3316  0.4979
 4003TIP3    H233425   6.395   4.530   5.581  2.4098  1.0942  0.0166
 4004TIP3   OH233426   3.837   3.233   2.084  0.1166  0.5454  0.2335
 4004TIP3    H133427   3.856   3.144   2.055 -0.2306  0.7701 -0.7290
 4004TIP3    H233428   3.778   3.268   2.017  0.1676  1.4599  0.6486
 4005TIP3   OH233429   0.740   0.853  10.740 -0.0316 -0.1954  0.5903
 4005TIP3    H133430   0.720   0.821  10.652 -0.4276  0.2954  0.5000
 4005TIP3    H233431   0.752   0.947  10.729 -1.2164  0.0536  1.2350
 4006TIP3   OH233432   3.612   0.913   5.429  0.3236  0.1174 -0.2442
 4006TIP3    H133433   3.618   1.001   5.466  1.2182 -0.2820  0.5879
 4006TIP3    H233434   3.620   0.854   5.504 -1.1689 -0.6872 -0.6735
 4007TIP3   OH233435   5.339   4.851  11.668  0.2853 -0.1004  0.1163
 4007TIP3    H133436   5.365   4.835  11.577  0.1460  1.1368 -0.1496
 4007TIP3    H233437   5.263   4.909  11.661  1.4793  1.6377  1.0616
 4008TIP3   OH233438   3.641   6.153  16.747 -0.5429  0.5084  0.4813
 4008TIP3    H133439   3.643   6.057  16.755 -2.0297  0.4163  0.0880
 4008TIP3    H233440   3.622   6.169  16.654  1.3608  1.2415  0.1825
 4009TIP3   OH233441   0.108   1.198  16.078 -0.4627  0.6546 -0.3459
 4009TIP3    H133442   0.081   1.210  15.986 -2.1988 -1.8728 -0.2905
 4009TIP3    H233443   0.147   1.110  16.079 -0.8629  0.4792  1.4069
 4010TIP3   OH233444   1.303   1.678  11.495 -0.0785  0.5650  0.5568
 4010TIP3    H133445   1.381   1.732  11.501  0.6184 -0.2130 -1.0147
 4010TIP3    H233446   1.240   1.733  11.449  0.0491  0.6337  0.4642
 4011TIP3   OH233447   4.684   3.285  12.291  0.4866 -0.2062  0.3825
 4011TIP3    H133448   4.694   3.199  12.250  2.3319 -0.5481  1.4603
 4011TIP3    H233449   4.773   3.311  12.314 -0.1796  1.4204  1.2320
 4012TIP3   OH233450   1.696   5.263   2.077 -0.4762 -0.4680 -0.1633
 4012TIP3    H133451   1.637   5.337   2.087  0.1830  0.1273 -0.5319
 4012TIP3    H233452   1.641   5.186   2.090 -1.1864  0.0808  0.1683
 4013TIP3   OH233453   6.497   1.770  15.674 -0.2111  0.0403 -0.3159
 4013TIP3    H133454   6.539   1.748  15.757 -2.1414 -2.7825  0.0785
 4013TIP3    H233455   6.569   1.799  15.618  1.5700 -0.4658  1.5544
 4014TIP3   OH233456   0.335   0.113   0.145  0.2687  0.2945 -0.2903
 4014TIP3    H133457   0.340   0.190   0.089  1.5829 -0.7442 -1.7090
 4014TIP3    H233458   0.301   0.044   0.088  2.6589 -1.0642 -0.2308
 4015TIP3   OH233459   2.226   2.173   2.337  0.0852 -0.2724 -0.2126
 4015TIP3    H133460   2.243   2.212   2.422 -1.5711 -0.0367  0.0345
 4015TIP3    H233461   2.311   2.137   2.309  0.6129 -0.4737  1.5730
 4016TIP3   OH233462   2.681   3.561   5.342 -0.4344 -0.2669  0.1572
 4016TIP3    H133463   2.693   3.467   5.355  0.0578 -0.1474  0.6265
 4016TIP3    H233464   2.587   3.575   5.348 -0.5152 -0.7331  0.0311
 4017TIP3   OH233465   1.237   5.429   2.716  0.4281 -0.0272 -0.2145
 4017TIP3    H133466   1.332   5.418   2.712  0.4962  0.7229 -0.8912
 4017TIP3    H233467   1.215   5.476   2.635 -0.9530 -3.1087 -1.7835
 4018TIP3   OH233468   4.896   0.665  11.790 -0.1220 -0.0930 -0.5713
 4018TIP3    H133469   4.982   0.630  11.764 -0.4352  0.4496 -2.5460
 4018TIP3    H233470   4.916   0.727  11.860  0.6589 -2.5830  1.5986
 4019TIP3   OH233471   6.464   3.140   0.101 -0.1280 -0.4214  0.8596
 4019TIP3    H133472   6.413   3.202   0.153  1.3263  0.7053  1.0231
 4019TIP3    H233473   6.462   3.059   0.152 -0.8137 -0.0694  1.4085
 4020TIP3   OH233474   3.810   4.079   4.003  0.3853 -0.1639 -0.1361
 4020TIP3    H133475   3.880   4.121   4.052 -0.9374  0.3039  1.4603
 4020TIP3    H233476   3.768   4.150   3.954  0.4500 -0.2877 -0.3753
 4021TIP3   OH233477   3.420   2.564   2.203 -0.5234  0.5367 -0.4281
 4021TIP3    H133478   3.393   2.652   2.176  0.7009  0.7938 -0.8370
 4021TIP3    H233479   3.493   2.541   2.146  0.1316 -0.1542  0.6418
 4022TIP3   OH233480   3.460   1.093  16.507  0.3209  0.5258  0.2904
 4022TIP3    H133481   3.374   1.118  16.541  0.7807  0.8373  1.2805
 4022TIP3    H233482   3.522   1.144  16.560  1.0839  1.1188 -1.1255
 4023TIP3   OH233483   4.132   2.473   1.062 -0.1972 -0.1645  0.5795
 4023TIP3    H133484   4.120   2.568   1.063 -0.4797 -0.2026  1.1174
 4023TIP3    H233485   4.226   2.460   1.075 -0.2473  0.0298  1.1727
 4024TIP3   OH233486   1.218   3.657   4.312  0.0898 -0.2408 -0.3264
 4024TIP3    H133487   1.307   3.626   4.327  0.5433  0.6128 -1.1737
 4024TIP3    H233488   1.228   3.751   4.295 -0.9312 -0.2204 -0.8609
 4025TIP3   OH233489   2.206   1.912  13.622  0.6032 -0.1718  0.2494
 4025TIP3    H133490   2.116   1.892  13.651  0.4520  0.0079 -0.0906
 4025TIP3    H233491   2.261   1.890  13.697  0.1604  0.9035  0.9029
 4026TIP3   OH233492   3.647   5.488  17.152 -0.0089 -0.3030 -0.4498
 4026TIP3    H133493   3.664   5.439  17.232 -0.8901 -0.7879 -0.5390
 4026TIP3    H233494   3.682   5.575  17.169 -1.8231  0.1737  1.2049
 4027TIP3   OH233495   4.438   2.916  13.250 -0.1944  0.6324 -0.3233
 4027TIP3    H133496   4.417   2.968  13.328 -0.2916  1.0680 -0.6382
 4027TIP3    H233497   4.409   2.970  13.177 -2.1441 -0.6893 -0.5996
 4028TIP3   OH233498   3.401   1.409  13.548  0.6998 -0.1564  0.8966
 4028TIP3    H133499   3.439   1.493  13.521 -2.1693  2.3444  3.8023
 4028TIP3    H233500   3.320   1.402  13.498  0.0550 -0.2509  1.9247
 4029TIP3   OH233501   0.375   2.337   1.002 -0.0332  0.5355 -0.1967
 4029TIP3    H133502   0.368   2.347   1.097 -0.4901 -1.2445 -0.0188
 4029TIP3    H233503   0.372   2.427   0.969  1.6451  1.2936  1.5376
 4030TIP3   OH233504   0.918   1.019   2.883  0.3273 -0.7965 -0.0787
 4030TIP3    H133505   0.927   0.925   2.867 -1.5244 -1.5662  2.6265
 4030TIP3    H233506   0.901   1.025   2.977  0.1147  2.2405 -0.2406
 4031TIP3   OH233507   2.877   3.797   3.207 -0.1745  0.0838 -0.2308
 4031TIP3    H133508   2.968   3.781   3.231 -0.2884  0.3298  0.3887
 4031TIP3    H233509   2.827   3.763   3.281 -0.7275 -2.2537 -1.5864
 4032TIP3   OH233510   5.495   3.355  11.103  0.1178 -0.1284 -0.6171
 4032TIP3    H133511   5.546   3.308  11.037  1.7146 -0.0204  0.4610
 4032TIP3    H233512   5.465   3.287  11.163  0.7238 -0.0002 -0.1565
 4033TIP3   OH233513   6.142   6.533  15.876  0.2566 -0.1969 -0.2638
 4033TIP3    H133514   6.154   6.521  15.782  0.5336  0.8037 -0.3593
 4033TIP3    H233515   6.180   6.454  15.915 -0.5572 -0.9846 -1.0237
 4034TIP3   OH233516   4.987   3.699   3.294 -0.3406 -0.4329 -0.7113
 4034TIP3    H133517   4.975   3.793   3.301  0.2248 -0.2844 -1.5632
 4034TIP3    H233518   5.030   3.686   3.210  1.2064 -1.2944  0.1671
 4035TIP3   OH233519   2.744   6.512  16.499 -0.1382 -0.2882  0.1923
 4035TIP3    H133520   2.800   6.588  16.486 -0.3064 -0.1678  0.1763
 4035TIP3    H233521   2.660   6.537  16.462 -0.9594  0.4606  2.3846
 4036TIP3   OH233522   6.154   3.355  13.520 -0.3791  0.0678 -0.0126
 4036TIP3    H133523   6.194   3.310  13.595 -0.5147  0.8446  0.5405
 4036TIP3    H233524   6.221   3.416  13.491 -0.3660 -0.1634 -0.4699
 4037TIP3   OH233525   4.169   5.227   5.284 -0.4940  0.0929  0.1493
 4037TIP3    H133526   4.208   5.314   5.282  1.2202 -0.5793  1.5522
 4037TIP3    H233527   4.141   5.215   5.375  0.5467 -1.3037  0.3208
 4038TIP3   OH233528   1.705   0.959  12.133 -0.2956 -0.0048 -0.1105
 4038TIP3    H133529   1.670   1.021  12.070  0.9773  0.4790 -0.3752
 4038TIP3    H233530   1.785   1.000  12.165  0.0952 -1.1126  0.3828
 4039TIP3   OH233531   1.617   5.139   4.055  0.3493 -0.1877 -0.0237
 4039TIP3    H133532   1.658   5.063   4.013  0.4414 -0.1436 -0.0140
 4039TIP3    H233533   1.616   5.206   3.986 -0.0795 -0.3197 -0.1489
 4040TIP3   OH233534   3.055   5.451  11.011  0.7713  0.2359  0.2851
 4040TIP3    H133535   3.033   5.459  10.918  1.1972 -1.0534  0.0422
 4040TIP3    H233536   3.127   5.512  11.024  0.1392  1.0555 -0.0263
 4041TIP3   OH233537   2.553   1.298   6.646 -0.2961  0.2674  0.2876
 4041TIP3    H133538   2.462   1.296   6.618 -0.5073  3.2900  0.4238
 4041TIP3    H233539   2.593   1.369   6.596  2.1722 -1.3026 -0.1595
 4042TIP3   OH233540   0.999   1.726  11.798 -0.1379  0.4833 -0.4514
 4042TIP3    H133541   1.041   1.672  11.731 -3.4639 -0.2154 -2.2122
 4042TIP3    H233542   0.956   1.662  11.856  0.5449  1.1622  0.8421
 4043TIP3   OH233543   4.677   4.411  11.365 -0.1695  0.1129 -0.0804
 4043TIP3    H133544   4.672   4.435  11.457 -0.2190 -1.5610  0.3772
 4043TIP3    H233545   4.606   4.348  11.353 -1.4696  1.7533 -1.7662
 4044TIP3   OH233546   1.274   5.985   3.755 -0.0568  0.2133 -0.0698
 4044TIP3    H133547   1.189   5.955   3.787  1.0219 -0.0483  2.8239
 4044TIP3    H233548   1.257   6.073   3.721 -1.3347  0.5397  1.3181
 4045TIP3   OH233549   1.120   5.969  15.293  0.3294 -0.5692  0.3263
 4045TIP3    H133550   1.159   6.056  15.309  2.2951 -1.3115 -0.1226
 4045TIP3    H233551   1.185   5.924  15.239 -2.0881 -1.2527 -2.2133
 4046TIP3   OH233552   1.343   5.805   2.667 -0.3797 -0.2885  0.3954
 4046TIP3    H133553   1.294   5.881   2.700 -2.4306 -1.5510  0.3986
 4046TIP3    H233554   1.377   5.834   2.583 -1.8004  0.4020  0.0275
 4047TIP3   OH233555   3.285   3.007  16.248 -0.1326 -0.7949 -0.3475
 4047TIP3    H133556   3.242   3.045  16.172 -2.8932 -0.6976  1.1484
 4047TIP3    H233557   3.249   3.055  16.322  1.2777 -1.9467  1.1350
 4048TIP3   OH233558   0.691   1.269  16.635 -0.4510  0.5751  0.2048
 4048TIP3    H133559   0.607   1.271  16.590 -0.6680 -0.5263  0.5425
 4048TIP3    H233560   0.737   1.194  16.598 -0.7637 -0.5806  2.0021
 4049TIP3   OH233561   1.366   1.675  15.157  0.0570  0.0296  0.2136
 4049TIP3    H133562   1.322   1.760  15.165 -2.5374 -1.0904 -1.1153
 4049TIP3    H233563   1.305   1.613  15.196  1.1359 -1.4384 -0.3650
 4050TIP3   OH233564   3.928   2.405  14.104 -0.2944  0.1186 -0.0705
 4050TIP3    H133565   3.862   2.435  14.168 -0.4530  0.9531 -0.6082
 4050TIP3    H233566   3.909   2.312  14.091 -0.3947 -0.0127  0.9360
 4051TIP3   OH233567   1.441   2.269  17.143 -0.0651 -0.2028 -0.4099
 4051TIP3    H133568   1.376   2.301  17.079 -0.4915  1.5475  0.8317
 4051TIP3    H233569   1.520   2.319  17.123 -0.0065 -0.1228  0.0290
 4052TIP3   OH233570   0.900   6.493  17.228  0.3571 -0.3896 -0.4125
 4052TIP3    H133571   0.957   6.542  17.169  2.5752  0.2432  2.0780
 4052TIP3    H233572   0.847   6.559  17.271 -0.6407 -0.7723 -1.0050
 4053TIP3   OH233573   2.576   1.468   4.372 -0.3737 -0.3295 -0.2458
 4053TIP3    H133574   2.485   1.494   4.388 -0.9105 -2.8636  1.5450
 4053TIP3    H233575   2.621   1.550   4.349 -2.4475  1.5980  1.9768
 4054TIP3   OH233576   3.479   3.242  12.971  0.0245  0.6929 -0.3188
 4054TIP3    H133577   3.528   3.210  13.046 -0.6351 -0.5125 -0.3811
 4054TIP3    H233578   3.395   3.272  13.007 -0.7801 -1.0010 -0.6740
 4055TIP3   OH233579   5.745   2.833   3.674  0.2763 -0.1502  0.8006
 4055TIP3    H133580   5.745   2.896   3.746 -1.4118 -1.2682  1.8504
 4055TIP3    H233581   5.709   2.881   3.600  2.6715  1.2198  0.4224
 4056TIP3   OH233582   5.618   6.353   2.581  0.4032  0.4380  0.1903
 4056TIP3    H133583   5.708   6.360   2.548  0.4783  0.0654  0.3150
 4056TIP3    H233584   5.576   6.291   2.521  0.2627  0.5209  0.2037
 4057TIP3   OH233585   0.970   6.754   3.649  0.0400 -0.3192 -0.1924
 4057TIP3    H133586   1.049   6.720   3.691 -0.2307  0.5752  1.0823
 4057TIP3    H233587   0.901   6.694   3.675 -0.0193 -0.0932  0.1844
 4058TIP3   OH233588   5.163   2.442   3.052 -0.8105 -0.0628  0.1610
 4058TIP3    H133589   5.238   2.500   3.033 -1.0816 -0.1355 -1.2515
 4058TIP3    H233590   5.109   2.492   3.113 -1.5360  1.6603 -1.7686
 4059TIP3   OH233591   2.908   2.443  11.493  0.4178  0.3977 -0.4509
 4059TIP3    H133592   2.987   2.408  11.535 -0.0093  0.1032  0.1271
 4059TIP3    H233593   2.839   2.383  11.520  0.2511 -0.2749 -2.2252
 4060TIP3   OH233594   1.167   3.789   5.729 -0.2314 -0.1206  0.8316
 4060TIP3    H133595   1.090   3.847   5.732  1.0827  1.8381 -0.7758
 4060TIP3    H233596   1.145   3.718   5.788 -3.7189 -0.1867 -0.3116
 4061TIP3   OH233597   6.136   0.433   0.904 -0.7046 -0.5917 -0.1841
 4061TIP3    H133598   6.058   0.445   0.850  0.0492  1.7123 -0.8823
 4061TIP3    H233599   6.103   0.409   0.990 -2.0598 -1.6858 -0.9634
 4062TIP3   OH233600   2.827   6.003   0.157 -0.5339 -0.4030  0.0949
 4062TIP3    H133601   2.843   5.924   0.210  1.4516  0.4043  0.7892
 4062TIP3    H233602   2.914   6.033   0.132 -1.2761  1.3063 -0.5676
 4063TIP3   OH233603   4.060   5.204   4.998  0.6985  0.2970  0.5977
 4063TIP3    H133604   3.984   5.244   5.040  0.7152  0.1231  0.7992
 4063TIP3    H233605   4.131   5.215   5.062  1.3318  2.1517 -0.3636
 4064TIP3   OH233606   1.450   5.013  16.554  0.6713  0.2179 -0.0931
 4064TIP3    H133607   1.382   5.080  16.542 -0.1215 -0.8772 -2.3914
 4064TIP3    H233608   1.425   4.968  16.634 -1.8333 -0.6248 -1.2282
 4065TIP3   OH233609   5.680   1.260   2.702 -0.2474  0.1725  0.2354
 4065TIP3    H133610   5.599   1.215   2.677  0.1231 -0.3919  0.0251
 4065TIP3    H233611   5.653   1.322   2.770 -0.7047 -0.7057  0.8818
 4066TIP3   OH233612   1.211   3.281  16.535  0.5560  0.9551 -0.3442
 4066TIP3    H133613   1.238   3.194  16.563 -0.2204  0.3510 -1.4028
 4066TIP3    H233614   1.131   3.266  16.485  1.2033  2.1196 -1.7956
 4067TIP3   OH233615   0.724   5.244  16.257 -0.3455  0.0352 -0.0113
 4067TIP3    H133616   0.718   5.333  16.221 -0.3071  0.1597  0.2797
 4067TIP3    H233617   0.653   5.241  16.322 -0.4463 -0.2003 -0.1334
 4068TIP3   OH233618   3.722   4.100  15.667  0.6801 -0.4208  0.5636
 4068TIP3    H133619   3.707   4.172  15.728  0.5037  0.4865 -0.5196
 4068TIP3    H233620   3.814   4.077  15.679  1.5918  1.9872 -1.1117
 4069TIP3   OH233621   2.594   0.082  16.465 -0.1752 -0.3750  0.4960
 4069TIP3    H133622   2.569   0.013  16.526 -1.1322  0.5430  1.1701
 4069TIP3    H233623   2.560   0.162  16.504 -0.2739  0.3132 -0.9492
 4070TIP3   OH233624   2.789   0.257  16.174  0.6201  0.1540  0.1977
 4070TIP3    H133625   2.844   0.188  16.137  0.4427  0.1500 -0.0536
 4070TIP3    H233626   2.729   0.281  16.104 -0.6091 -0.7844  0.8955
 4071TIP3   OH233627   1.680   6.646  16.981  0.3280  0.2948  0.6217
 4071TIP3    H133628   1.747   6.681  16.922  2.4957 -1.3982  1.9238
 4071TIP3    H233629   1.727   6.631  17.063 -1.3581 -2.0772  1.2416
 4072TIP3   OH233630   0.561   4.724  16.052  0.3834  0.8883 -0.1713
 4072TIP3    H133631   0.532   4.638  16.021  1.0972  0.4269  0.4060
 4072TIP3    H233632   0.536   4.725  16.145  2.1058  0.4998  0.3321
 4073TIP3   OH233633   1.365   3.985  16.209  0.1090  0.2180 -0.7558
 4073TIP3    H133634   1.334   4.048  16.273 -0.6877 -0.5045 -0.4095
 4073TIP3    H233635   1.405   3.915  16.261 -0.1812 -0.1827 -1.0704
 4074TIP3   OH233636   3.525   4.423   3.640  0.1252  0.1120  0.3930
 4074TIP3    H133637   3.590   4.407   3.571  2.8209  0.6231  2.6612
 4074TIP3    H233638   3.480   4.340   3.650 -0.6398  0.1333 -2.1948
 4075TIP3   OH233639   2.528   5.691   2.055 -0.2770 -0.0087 -0.5009
 4075TIP3    H133640   2.543   5.598   2.069 -0.0330 -0.0422 -0.9594
 4075TIP3    H233641   2.530   5.730   2.143 -0.0880 -0.3890 -0.3375
 4076TIP3   OH233642   1.954   2.121   0.988  0.2210  0.3541  0.0747
 4076TIP3    H133643   1.962   2.109   0.894  0.7090 -2.4033  0.3830
 4076TIP3    H233644   2.042   2.142   1.018 -0.0694  1.9715 -0.1209
 4077TIP3   OH233645   4.458   0.516  13.273 -0.4241  0.3174 -0.4565
 4077TIP3    H133646   4.414   0.525  13.357  0.0890  3.0970 -0.3933
 4077TIP3    H233647   4.487   0.425  13.271  0.5784  0.4187  2.9015
 4078TIP3   OH233648   2.904   2.595  13.674  0.0197 -0.3446  0.3097
 4078TIP3    H133649   2.820   2.639  13.661 -0.5438 -1.4038  0.2950
 4078TIP3    H233650   2.882   2.514  13.719  0.8275 -1.4764 -1.2363
 4079TIP3   OH233651   1.295   5.971   5.845 -0.2328  0.1088 -0.1842
 4079TIP3    H133652   1.336   6.023   5.914  0.3093  0.9640 -1.1308
 4079TIP3    H233653   1.341   5.887   5.848  2.3200  1.3120 -1.7837
 4080TIP3   OH233654   1.704   6.607   1.701  0.1496  0.2207 -0.1459
 4080TIP3    H133655   1.623   6.651   1.673 -0.4824  0.2658  1.6288
 4080TIP3    H233656   1.712   6.629   1.793  1.4461 -0.9593  0.0481
 4081TIP3   OH233657   5.659   3.566  14.328  0.2579 -0.3216 -0.3046
 4081TIP3    H133658   5.666   3.554  14.234  1.3444 -0.5301 -0.2171
 4081TIP3    H233659   5.750   3.574  14.358 -0.0905  0.3400  0.6471
 4082TIP3   OH233660   4.112   4.412   5.954  0.2667  0.3638 -0.4676
 4082TIP3    H133661   4.121   4.475   5.883  0.4013 -0.9591 -1.6634
 4082TIP3    H233662   4.135   4.462   6.033 -0.1019  1.9215 -1.3006
 4083TIP3   OH233663   0.423   1.646  16.643 -0.3586 -0.0871 -0.1492
 4083TIP3    H133664   0.463   1.582  16.701  0.2281 -0.2003 -0.6695
 4083TIP3    H233665   0.492   1.710  16.627 -1.2088  1.2266  1.1277
 4084TIP3   OH233666   4.412   4.601   4.548  0.5045 -0.2225 -0.6111
 4084TIP3    H133667   4.354   4.525   4.543  1.9637 -1.3883 -0.4378
 4084TIP3    H233668   4.358   4.670   4.586 -1.0059 -1.0047 -1.2488
 4085TIP3   OH233669   6.169   3.688  13.972 -0.0321 -0.3184 -0.6280
 4085TIP3    H133670   6.128   3.643  14.046  1.9835 -0.3167  0.5678
 4085TIP3    H233671   6.247   3.637  13.954  1.9744  2.2164  0.3099
 4086TIP3   OH233672   0.512   1.599   3.858 -0.0611 -0.1189 -0.1330
 4086TIP3    H133673   0.574   1.656   3.812 -0.3704  0.5325  0.2408
 4086TIP3    H233674   0.536   1.511   3.830  1.7803  0.0119  0.8562
 4087TIP3   OH233675   2.695   3.453   4.992  0.2449 -0.6694 -0.0132
 4087TIP3    H133676   2.619   3.500   4.959 -0.8094 -1.0048  1.8301
 4087TIP3    H233677   2.665   3.363   5.005  0.8993 -0.7769  0.8824
 4088TIP3   OH233678   2.132   3.438   5.520 -0.0202  0.3574  0.4439
 4088TIP3    H133679   2.183   3.440   5.601  0.0274  1.0308  0.4078
 4088TIP3    H233680   2.174   3.505   5.464  2.9003 -3.0687 -1.9567
 4089TIP3   OH233681   0.611   5.242   0.993 -0.4493  0.2879  0.1796
 4089TIP3    H133682   0.583   5.210   1.079 -1.0815 -1.0223 -0.4813
 4089TIP3    H233683   0.680   5.182   0.967  2.2936  2.7331  1.2263
 4090TIP3   OH233684   1.279   2.467  13.648 -0.1867  0.0080 -0.2428
 4090TIP3    H133685   1.263   2.535  13.582  1.1714  0.4925 -0.0859
 4090TIP3    H233686   1.278   2.385  13.597  3.3170  0.5341 -1.3931
 4091TIP3   OH233687   1.324   1.111  14.447 -0.2563  0.2495  0.3174
 4091TIP3    H133688   1.268   1.047  14.491  1.9901 -1.2046  1.2382
 4091TIP3    H233689   1.386   1.140  14.514  0.6277  1.1596 -0.8321
 4092TIP3   OH233690   1.407   3.921   5.549  0.2977 -0.5093 -0.4659
 4092TIP3    H133691   1.413   3.966   5.464  0.5213  1.2606  0.4515
 4092TIP3    H233692   1.340   3.854   5.536  0.0859 -0.0461 -1.9415
 4093TIP3   OH233693   5.630   4.026  12.905  0.5313  0.0658  0.5714
 4093TIP3    H133694   5.591   4.015  12.992 -1.9547  0.9223 -0.3353
 4093TIP3    H233695   5.557   4.054  12.850  2.4027  1.3111 -1.4258
 4094TIP3   OH233696   3.823   6.624  12.703 -0.1963 -0.0768 -0.0895
 4094TIP3    H133697   3.825   6.560  12.774  0.4056 -1.4564 -1.3004
 4094TIP3    H233698   3.733   6.657  12.703 -0.2739 -0.2521  1.1276
 4095TIP3   OH233699   0.263   0.498   0.650  0.3446  0.7847  0.3026
 4095TIP3    H133700   0.213   0.417   0.663  0.4343  0.3712 -1.5866
 4095TIP3    H233701   0.216   0.544   0.580  1.5981  1.2414 -0.2715
 4096TIP3   OH233702   3.608   3.784  13.773 -0.3331 -0.1710  0.7606
 4096TIP3    H133703   3.575   3.727  13.842 -2.8494  0.6222  0.3331
 4096TIP3    H233704   3.589   3.872  13.804  1.2532  0.3401  0.3399
 4097TIP3   OH233705   1.069   0.495   0.971 -0.3162 -0.2950 -0.2913
 4097TIP3    H133706   1.018   0.552   0.914  0.2981  1.9135  1.2115
 4097TIP3    H233707   1.148   0.475   0.921 -0.6954 -0.0837 -0.9809
 4098TIP3   OH233708   3.748   5.687   6.643  0.3889  0.5354  0.3324
 4098TIP3    H133709   3.746   5.608   6.697  1.1007 -0.1821 -0.6317
 4098TIP3    H233710   3.661   5.691   6.603  0.9003 -0.8713 -1.0645
 4099TIP3   OH233711   1.181   2.850  16.929 -0.3222  0.1062  0.1360
 4099TIP3    H133712   1.121   2.859  16.855  0.3335 -2.4218 -0.8098
 4099TIP3    H233713   1.124   2.837  17.005 -0.9901  2.3458  0.1051
 4100TIP3   OH233714   6.577   1.473  13.500  0.6392  0.5919 -0.5464
 4100TIP3    H133715   6.597   1.534  13.571  0.6508 -0.9628  0.8425
 4100TIP3    H233716   6.530   1.402  13.542  3.0284 -1.7579 -1.5665
 4101TIP3   OH233717   4.069   4.729  16.119  0.1692 -0.3760 -0.1305
 4101TIP3    H133718   4.099   4.727  16.210  2.6446  0.1671 -0.8484
 4101TIP3    H233719   4.033   4.641  16.103 -0.8663 -0.2833  1.5054
 4102TIP3   OH233720   4.981   0.232  12.733  0.5457 -0.3932  1.0169
 4102TIP3    H133721   4.941   0.190  12.809  2.9699 -1.2747  1.9050
 4102TIP3    H233722   5.073   0.208  12.738  1.8684  3.8179  0.7011
 4103TIP3   OH233723   5.337   2.428   5.017 -0.2556  0.2377  0.1126
 4103TIP3    H133724   5.378   2.348   4.982  0.3997  0.1588  1.0339
 4103TIP3    H233725   5.301   2.401   5.101 -0.2259  0.8706  0.3277
 4104TIP3   OH233726   1.135   0.576  17.080  0.2952 -0.3177  0.6548
 4104TIP3    H133727   1.097   0.548  17.163 -0.7764 -0.0849  0.2625
 4104TIP3    H233728   1.081   0.533  17.013  2.2548 -1.9609  0.0479
 4105TIP3   OH233729   3.324   0.668   0.651  0.7054  0.5513  0.0162
 4105TIP3    H133730   3.255   0.679   0.586  1.0451  1.7064 -0.1619
 4105TIP3    H233731   3.360   0.755   0.663  2.8082 -0.1550 -0.6399
 4106TIP3   OH233732   6.724   4.468  16.068 -0.2263 -0.5380  0.0616
 4106TIP3    H133733   6.704   4.440  16.157  1.8028 -1.0134  0.4225
 4106TIP3    H233734   6.724   4.564  16.073 -0.3070 -0.5591  0.5458
 4107TIP3   OH233735   0.206   6.139  13.146  0.4509  0.1940 -0.3270
 4107TIP3    H133736   0.225   6.092  13.227  0.4929 -1.9028 -1.4853
 4107TIP3    H233737   0.112   6.125  13.131  0.1580  1.6432 -0.0343
 4108TIP3   OH233738   3.620   3.004   2.520  0.2313  0.4847  0.4493
 4108TIP3    H133739   3.585   3.068   2.459 -0.2225  0.5499  0.7683
 4108TIP3    H233740   3.628   3.051   2.603 -0.1977  0.1131  0.7106
 4109TIP3   OH233741   4.682   5.790   4.244  0.7801 -0.4696  0.1799
 4109TIP3    H133742   4.747   5.859   4.251  0.3798 -0.1821  1.1962
 4109TIP3    H233743   4.729   5.710   4.268  1.0510 -0.4435 -0.2571
 4110TIP3   OH233744   4.507   4.606   6.262  0.1762 -0.0151  0.1442
 4110TIP3    H133745   4.466   4.608   6.348  0.8151 -1.8876  0.5327
 4110TIP3    H233746   4.446   4.653   6.205 -1.9247 -1.6280  0.9297
 4111TIP3   OH233747   2.822   4.748   0.924 -0.0873  0.6674  0.0514
 4111TIP3    H133748   2.842   4.659   0.892 -0.4041  0.3239  0.7934
 4111TIP3    H233749   2.886   4.764   0.992 -0.5265  0.6893  0.4655
 4112TIP3   OH233750   1.763   6.230  14.398 -0.4025 -0.2303 -0.2674
 4112TIP3    H133751   1.850   6.265  14.382  0.4778 -0.4516  3.2043
 4112TIP3    H233752   1.774   6.135  14.399 -0.6499 -0.2589  0.2714
 4113TIP3   OH233753   4.442   1.665  16.940  0.0865 -0.3069  0.0547
 4113TIP3    H133754   4.431   1.731  17.008  2.1510  1.9600 -1.6363
 4113TIP3    H233755   4.382   1.691  16.870 -0.8347 -1.6776  0.2866
 4114TIP3   OH233756   0.595   1.032  15.239  0.6306 -0.1469  0.5234
 4114TIP3    H133757   0.619   1.090  15.168 -0.2048 -0.5040 -0.0635
 4114TIP3    H233758   0.500   1.039  15.245  0.6238 -0.6557  1.1396
 4115TIP3   OH233759   5.842   2.395  16.319  0.4729 -0.4830 -0.0218
 4115TIP3    H133760   5.903   2.373  16.249 -1.4927 -2.1990 -1.3300
 4115TIP3    H233761   5.869   2.342  16.394  0.5932 -1.2035 -0.5723
 4116TIP3   OH233762   5.903   3.065  16.124 -0.2572  0.1835  0.3989
 4116TIP3    H133763   5.837   3.057  16.193  0.8397  0.4634  1.5353
 4116TIP3    H233764   5.979   3.102  16.169  1.1562 -1.4625 -0.5445
 4117TIP3   OH233765   0.823   1.682  14.525 -0.0009 -0.2649 -0.6219
 4117TIP3    H133766   0.836   1.611  14.463  2.5838  0.5836 -1.1713
 4117TIP3    H233767   0.852   1.761  14.478 -1.9726  1.0728  0.2454
 4118TIP3   OH233768   0.781   4.285   3.046  0.2342  0.1588  0.2153
 4118TIP3    H133769   0.697   4.238   3.048  0.5709 -0.4296  1.2924
 4118TIP3    H233770   0.780   4.331   2.962 -1.1858  0.2015  0.2264
 4119TIP3   OH233771   5.059   3.025   3.104  0.1563  0.2338 -0.8415
 4119TIP3    H133772   4.973   3.002   3.067  0.6762  0.3249 -2.1421
 4119TIP3    H233773   5.039   3.057   3.192 -1.2089  0.8507 -1.3522
 4120TIP3   OH233774   3.789   0.703   1.101  0.0570 -0.0828  0.2876
 4120TIP3    H133775   3.787   0.627   1.043 -0.0066 -0.8516  1.2769
 4120TIP3    H233776   3.726   0.764   1.063 -1.0727 -1.1685  0.3522
 4121TIP3   OH233777   5.512   0.766   1.920 -0.1388  0.0968 -0.6706
 4121TIP3    H133778   5.595   0.746   1.877  0.5464 -0.5493  0.9058
 4121TIP3    H233779   5.517   0.860   1.937 -0.1662  0.2483 -1.4306
 4122TIP3   OH233780   4.441   2.105  12.368 -0.8929 -0.1687  0.3304
 4122TIP3    H133781   4.481   2.149  12.443 -1.8034  1.2532  0.0244
 4122TIP3    H233782   4.433   2.173  12.302  0.2398 -1.4836 -1.2359
 4123TIP3   OH233783   1.375   5.931   1.122 -0.1003  0.3332 -0.2232
 4123TIP3    H133784   1.364   5.842   1.089  0.8536 -0.0089  0.3364
 4123TIP3    H233785   1.470   5.944   1.124 -0.2360  1.6210 -0.9492
 4124TIP3   OH233786   6.714   6.340   1.929  0.1372  0.3585 -0.3589
 4124TIP3    H133787   6.698   6.406   1.996 -2.2392  0.5051 -0.9820
 4124TIP3    H233788   6.810   6.330   1.927  0.4846  2.7765  0.6690
 4125TIP3   OH233789   1.468   1.195   2.718  0.2686 -0.0729  0.1063
 4125TIP3    H133790   1.473   1.114   2.667 -0.7006 -0.6862  0.9527
 4125TIP3    H233791   1.389   1.238   2.687 -0.1683 -0.3114  0.8670
 4126TIP3   OH233792   4.451   2.393  11.526 -0.2294 -0.6866  0.8612
 4126TIP3    H133793   4.545   2.408  11.523 -0.3670  0.0972 -0.0345
 4126TIP3    H233794   4.417   2.465  11.579 -0.5478  0.4545 -0.7869
 4127TIP3   OH233795   2.983   6.091   2.248 -0.5461  0.5110  0.3003
 4127TIP3    H133796   2.911   6.116   2.191 -1.1336 -1.5600  0.0504
 4127TIP3    H233797   3.039   6.035   2.194  1.0952  1.7766  0.5976
 4128TIP3   OH233798   0.147   6.530   5.561  0.2500  0.2107  0.6744
 4128TIP3    H133799   0.117   6.454   5.511  0.0024  0.6792  0.0998
 4128TIP3    H233800   0.187   6.492   5.639 -0.2693 -0.4941  0.6142
 4129TIP3   OH233801   6.535   6.733  12.872  0.7900  0.4400  0.5013
 4129TIP3    H133802   6.535   6.638  12.872 -0.8877  0.3232 -1.8361
 4129TIP3    H233803   6.479   6.757  12.945 -1.8445 -0.6062 -1.0218
 4130TIP3   OH233804   0.369   4.964  17.169 -0.2983  0.6615  0.1253
 4130TIP3    H133805   0.303   5.006  17.225  0.3772  0.6783  0.9374
 4130TIP3    H233806   0.397   5.033  17.109 -0.5460  0.8409  0.2153
 4131TIP3   OH233807   2.541   0.085  16.175 -0.6656 -0.1795 -0.0372
 4131TIP3    H133808   2.563   0.085  16.269  0.0597 -0.6023 -0.1956
 4131TIP3    H233809   2.615   0.131  16.134 -1.0578  0.1395 -0.3914
 4132TIP3   OH233810   6.214   0.734  14.754  0.2737  0.2000  0.2674
 4132TIP3    H133811   6.127   0.711  14.785  0.0112  1.0215  0.1611
 4132TIP3    H233812   6.236   0.666  14.690  0.2096 -0.6728  1.1453
 4133TIP3   OH233813   3.206   5.261   5.189  0.4961 -0.7419  0.4744
 4133TIP3    H133814   3.247   5.178   5.163 -0.6893 -0.5754 -2.2036
 4133TIP3    H233815   3.272   5.327   5.169  0.9156 -0.8923  1.3068
 4134TIP3   OH233816   2.057   3.652  14.525 -0.3350  0.1361 -0.0716
 4134TIP3    H133817   1.977   3.630  14.476 -0.1086 -0.2598 -0.2640
 4134TIP3    H233818   2.031   3.644  14.617 -1.0707  1.9493 -0.0804
 4135TIP3   OH233819   1.836   6.243  17.011  0.3412  0.2340  0.0939
 4135TIP3    H133820   1.899   6.204  16.949  1.3377 -1.4363  2.0102
 4135TIP3    H233821   1.891   6.282  17.079 -0.7252  1.0478  0.5176
 4136TIP3   OH233822   3.147   4.974   1.633  0.2131  0.0404  0.1366
 4136TIP3    H133823   3.100   5.056   1.618  0.5711  0.0307 -1.1904
 4136TIP3    H233824   3.088   4.922   1.688  0.4768  1.6092  2.0240
 4137TIP3   OH233825   4.744   2.429   2.032 -0.6083 -0.0124  0.1616
 4137TIP3    H133826   4.651   2.439   2.011 -0.4866  1.3436  0.1867
 4137TIP3    H233827   4.745   2.385   2.117 -1.2707  1.0487  0.7473
 4138TIP3   OH233828   5.898   4.718  13.377  0.0772  0.2327 -0.8213
 4138TIP3    H133829   5.818   4.757  13.413  0.3420  0.5826 -0.6097
 4138TIP3    H233830   5.866   4.647  13.321 -0.3828  0.3772 -0.7501
 4139TIP3   OH233831   1.929   6.203  14.785 -0.0835 -0.1353 -0.2912
 4139TIP3    H133832   1.927   6.172  14.876 -1.1419 -1.4169 -0.7131
 4139TIP3    H233833   1.994   6.273  14.785  0.4994 -0.6226  1.2930
 4140TIP3   OH233834   0.153   2.752  16.275 -0.0120  0.4156  0.1141
 4140TIP3    H133835   0.165   2.658  16.260  0.5494  0.7295 -1.6887
 4140TIP3    H233836   0.226   2.793  16.229  0.0596  1.7368  1.3403
 4141TIP3   OH233837   4.071   5.609  14.503  0.0453 -0.2549  0.2067
 4141TIP3    H133838   4.027   5.668  14.442 -2.7326 -0.4334  1.9121
 4141TIP3    H233839   4.125   5.666  14.557 -0.2832  0.3335 -0.0795
 4142TIP3   OH233840   6.715   3.109  12.953 -0.3009 -0.5730  0.1035
 4142TIP3    H133841   6.677   3.086  13.038 -0.8478 -0.3868 -0.0873
 4142TIP3    H233842   6.714   3.205  12.952  0.3942 -0.5585  0.1921
 4143TIP3   OH233843   1.141   6.691  16.519 -0.1779 -0.1138  0.0837
 4143TIP3    H133844   1.092   6.762  16.479 -2.4322 -2.1426 -1.0340
 4143TIP3    H233845   1.115   6.613  16.470  2.4461 -1.6903  0.9875
 4144TIP3   OH233846   5.506   3.049  13.710 -0.0858  0.1615  0.1602
 4144TIP3    H133847   5.576   2.986  13.723 -0.7940 -0.2418  2.5844
 4144TIP3    H233848   5.549   3.124  13.669  1.6813 -0.2590  1.1321
 4145TIP3   OH233849   4.519   4.209  13.642  0.0276 -0.2534 -0.0641
 4145TIP3    H133850   4.490   4.188  13.553  2.7740 -1.2225 -0.8347
 4145TIP3    H233851   4.596   4.153  13.656  0.7915  1.2305  2.2075
 4146TIP3   OH233852   0.434   1.826  17.157 -0.2598 -0.3039  0.0830
 4146TIP3    H133853   0.365   1.825  17.224 -1.1347 -2.0079 -0.7746
 4146TIP3    H233854   0.397   1.777  17.084  1.2523  0.2042 -1.0702
 4147TIP3   OH233855   5.510   0.826  15.290  0.4360  0.2829 -0.2994
 4147TIP3    H133856   5.447   0.831  15.363 -1.2212  0.0119 -1.6448
 4147TIP3    H233857   5.549   0.913  15.287 -1.9263  1.4066 -1.1232
 4148TIP3   OH233858   4.455   6.768   4.704  0.2388 -0.7465  0.4168
 4148TIP3    H133859   4.424   6.856   4.726 -0.3322 -0.8610  0.0893
 4148TIP3    H233860   4.425   6.753   4.615  3.8034  0.2881 -1.1417
 4149TIP3   OH233861   5.666   4.649   5.532 -0.4252  0.1130  1.2174
 4149TIP3    H133862   5.580   4.664   5.571  0.4411  1.4941  2.7089
 4149TIP3    H233863   5.714   4.599   5.598 -0.1857 -1.0352  0.2137
 4150TIP3   OH233864   3.117   4.694   0.375 -0.2229  0.4386  0.7286
 4150TIP3    H133865   3.195   4.748   0.389 -0.2820  0.3349  1.5261
 4150TIP3    H233866   3.044   4.754   0.391 -0.2898  0.2293  1.2437
 4151TIP3   OH233867   4.423   4.072  14.276 -0.2413 -0.7666 -0.5659
 4151TIP3    H133868   4.385   4.152  14.314 -0.8017 -0.6018 -1.4546
 4151TIP3    H233869   4.432   4.013  14.350 -0.2714 -0.0528  0.0236
 4152TIP3   OH233870   6.193   5.952  15.621  0.5121  0.0109 -0.4160
 4152TIP3    H133871   6.251   5.988  15.554  0.4475  0.1135 -0.4179
 4152TIP3    H233872   6.193   5.858  15.606 -1.3027  0.2248 -1.9895
 4153TIP3   OH233873   3.841   5.144   5.333  0.5217 -0.0160  0.6886
 4153TIP3    H133874   3.882   5.205   5.394 -0.1266  1.3297 -0.1622
 4153TIP3    H233875   3.906   5.075   5.321  2.6047  1.9747 -0.5369
 4154TIP3   OH233876   6.303   2.583  15.356  0.9905  0.1498 -1.0086
 4154TIP3    H133877   6.395   2.558  15.365  1.4453  1.5533 -1.6450
 4154TIP3    H233878   6.257   2.499  15.351  2.0677 -0.6072  0.5990
 4155TIP3   OH233879   3.494   3.394   6.705 -0.1738 -0.2868 -0.2441
 4155TIP3    H133880   3.548   3.315   6.703  0.0346 -0.1308 -1.1117
 4155TIP3    H233881   3.556   3.466   6.690 -0.3771  0.0368  0.4371
 4156TIP3   OH233882   4.818   3.842   1.782  0.0834 -0.4516  0.0260
 4156TIP3    H133883   4.732   3.843   1.824 -0.2880  0.5034 -0.7139
 4156TIP3    H233884   4.807   3.783   1.707 -0.5275  1.1363 -1.1985
 4157TIP3   OH233885   2.081   6.171   3.474  0.4212 -0.5572 -0.1022
 4157TIP3    H133886   2.058   6.248   3.525 -1.1125 -0.8341 -0.3247
 4157TIP3    H233887   2.041   6.187   3.388  0.6937 -1.2719 -0.3661
 4158TIP3   OH233888   2.152   0.897  14.412  0.0400  0.4312  0.6456
 4158TIP3    H133889   2.165   0.802  14.419  2.1890  0.5940 -0.4982
 4158TIP3    H233890   2.142   0.913  14.319  0.8446  1.4596  0.7249
 4159TIP3   OH233891   4.226   5.945  12.902 -0.1459  0.0103 -0.5055
 4159TIP3    H133892   4.194   5.970  12.989 -0.7923 -1.5730 -0.2616
 4159TIP3    H233893   4.319   5.929  12.915 -0.2416 -0.2319 -0.0922
 4160TIP3   OH233894   3.016   5.344  13.274  0.0639 -0.1583 -0.0293
 4160TIP3    H133895   2.984   5.409  13.335  1.2298  1.3575 -0.9539
 4160TIP3    H233896   3.106   5.326  13.303 -0.3874 -1.7415  0.4928
 4161TIP3   OH233897   1.753   2.539  15.424 -0.7768 -0.0733  0.3068
 4161TIP3    H133898   1.782   2.606  15.362  0.9919  0.6393  1.8191
 4161TIP3    H233899   1.685   2.582  15.476  1.7775  1.4562  2.6881
 4162TIP3   OH233900   3.847   5.211   3.580 -0.3655  0.1807  0.7642
 4162TIP3    H133901   3.812   5.290   3.621 -0.9200 -0.4992  1.6458
 4162TIP3    H233902   3.879   5.241   3.495 -2.1067  1.0634  0.3538
 4163TIP3   OH233903   5.937   2.734   1.251  0.1532  0.0479  0.1651
 4163TIP3    H133904   5.967   2.646   1.232  0.1201  0.2060 -0.6284
 4163TIP3    H233905   5.849   2.739   1.214  0.7439  0.9022 -1.1903
 4164TIP3   OH233906   3.708   4.301   3.876 -0.0835  0.2732  0.0371
 4164TIP3    H133907   3.771   4.373   3.878  1.2853 -0.7892 -1.8376
 4164TIP3    H233908   3.626   4.340   3.905  1.2987  1.8071  2.2134
 4165TIP3   OH233909   3.360   5.176   2.910  0.3580 -0.3172  0.2019
 4165TIP3    H133910   3.267   5.187   2.889  0.3007  0.0520  0.6113
 4165TIP3    H233911   3.406   5.215   2.836  0.2546 -2.6872 -1.2093
 4166TIP3   OH233912   3.909   2.033  13.391  0.2715  0.8418  0.2017
 4166TIP3    H133913   3.924   2.016  13.298 -0.2338  0.3065  0.2131
 4166TIP3    H233914   3.814   2.043  13.399  0.2138  0.0374  0.7823
 4167TIP3   OH233915   5.623   4.709   2.925 -0.4343 -0.4011  0.0912
 4167TIP3    H133916   5.551   4.672   2.976  0.8495 -0.1704  2.1815
 4167TIP3    H233917   5.681   4.747   2.990  0.6584  1.1017 -1.6771
 4168TIP3   OH233918   6.057   4.004  11.198 -0.1479  0.2169 -0.8144
 4168TIP3    H133919   5.977   4.046  11.230  0.0503  0.8063 -1.0699
 4168TIP3    H233920   6.071   4.041  11.111  1.4078  1.5663 -0.0594
 4169TIP3   OH233921   2.690   4.446   2.944 -0.3990  0.5530  0.6610
 4169TIP3    H133922   2.711   4.354   2.926 -2.2853 -0.3174  2.4958
 4169TIP3    H233923   2.776   4.489   2.949  0.6154 -1.3544  0.9221
 4170TIP3   OH233924   1.836   1.962  14.540  0.5657  0.1411 -0.5081
 4170TIP3    H133925   1.751   1.946  14.499  0.4638  1.0227 -0.6746
 4170TIP3    H233926   1.888   2.002  14.470  0.8638  0.3065 -0.1932
 4171TIP3   OH233927   3.286   2.757  11.388 -0.2733  0.2387  0.5580
 4171TIP3    H133928   3.237   2.696  11.333 -0.3806 -2.0548  3.0120
 4171TIP3    H233929   3.377   2.744  11.364 -0.4956  2.0789 -1.6476
 4172TIP3   OH233930   0.198   4.543   5.361  0.2306  0.0644  0.5947
 4172TIP3    H133931   0.150   4.537   5.443 -0.8457 -1.7488 -0.1136
 4172TIP3    H233932   0.205   4.453   5.330  0.6103  0.6994 -1.3018
 4173TIP3   OH233933   0.871   5.819  13.618  0.4621  0.0979  0.0849
 4173TIP3    H133934   0.792   5.857  13.581  0.2932 -0.7795 -0.4882
 4173TIP3    H233935   0.904   5.760  13.549  1.3717  0.1266  0.4769
 4174TIP3   OH233936   3.242   0.400   1.523  0.2634 -0.1805 -0.0683
 4174TIP3    H133937   3.211   0.396   1.614 -0.8703  3.5818 -0.1324
 4174TIP3    H233938   3.331   0.435   1.530  0.9770 -1.8508 -0.3729
 4175TIP3   OH233939   3.559   5.821   0.496  0.0489  0.2084  0.3895
 4175TIP3    H133940   3.604   5.823   0.580 -0.5946  0.2226  0.7424
 4175TIP3    H233941   3.479   5.872   0.510 -2.6164 -3.7778  1.3042
 4176TIP3   OH233942   4.856   3.024   3.611  0.3128  0.5684 -0.1321
 4176TIP3    H133943   4.868   2.976   3.693  0.9565 -0.0958 -0.6045
 4176TIP3    H233944   4.761   3.032   3.601  0.2266  1.3915  1.0871
 4177TIP3   OH233945   5.696   4.666   3.740  0.6308  0.0399  0.5636
 4177TIP3    H133946   5.784   4.628   3.740  1.4048  1.7372  0.9453
 4177TIP3    H233947   5.651   4.622   3.812  1.7137  0.2636  1.4131
 4178TIP3   OH233948   0.249   0.381   3.254  0.2284  0.4637 -0.4580
 4178TIP3    H133949   0.235   0.457   3.198  1.7987  0.8208 -0.3982
 4178TIP3    H233950   0.166   0.332   3.249 -1.6563  3.1924  1.2032
 4179TIP3   OH233951   5.167   0.534   1.189  0.0347 -0.3510 -0.0955
 4179TIP3    H133952   5.076   0.550   1.215 -0.5147 -0.8421 -1.5537
 4179TIP3    H233953   5.214   0.523   1.271 -0.8954  1.5282  0.7621
 4180TIP3   OH233954   2.229   1.269  11.300 -0.4737 -0.4214 -0.6095
 4180TIP3    H133955   2.311   1.287  11.253  0.5391 -0.6838  0.9787
 4180TIP3    H233956   2.246   1.188  11.347 -2.0585 -1.0656 -1.0980
 4181TIP3   OH233957   1.864   5.854   2.153  0.2773  0.1947  0.2361
 4181TIP3    H133958   1.859   5.758   2.152  2.2715 -0.0160  1.9551
 4181TIP3    H233959   1.897   5.877   2.066  0.4937 -0.7572  0.0535
 4182TIP3   OH233960   3.074   3.164   4.497  0.0768  0.4238 -0.4626
 4182TIP3    H133961   3.001   3.134   4.441  0.7105  0.0709 -1.1242
 4182TIP3    H233962   3.112   3.083   4.531  0.0542  0.6153  0.0163
 4183TIP3   OH233963   0.260   4.070   5.539  0.6847 -0.8045  0.0100
 4183TIP3    H133964   0.311   3.998   5.577  0.2176 -1.0014  0.2667
 4183TIP3    H233965   0.282   4.068   5.446  0.8064 -1.1706  0.0461
 4184TIP3   OH233966   5.643   2.578   2.893 -0.1299  0.6877  0.3923
 4184TIP3    H133967   5.683   2.645   2.949  1.0758  1.0112 -0.8361
 4184TIP3    H233968   5.715   2.541   2.842 -1.1195  0.0140 -0.5751
 4185TIP3   OH233969   1.843   0.679   1.299  0.0791 -0.1626 -0.0506
 4185TIP3    H133970   1.882   0.766   1.287 -0.0037 -0.3346 -1.7699
 4185TIP3    H233971   1.805   0.658   1.214 -0.3522 -1.6745  0.4890
 4186TIP3   OH233972   2.659   5.086  14.850  0.5705  0.1633  0.2898
 4186TIP3    H133973   2.596   5.058  14.916  0.9280 -1.4043  0.0057
 4186TIP3    H233974   2.627   5.171  14.820  0.5330  1.0408  2.6260
 4187TIP3   OH233975   4.502   3.880   3.489  0.2972  0.0390  0.6693
 4187TIP3    H133976   4.505   3.795   3.445 -0.2980  1.1847 -1.7446
 4187TIP3    H233977   4.409   3.891   3.511  0.4556 -0.1355  1.4547
 4188TIP3   OH233978   6.234   1.247   4.581 -0.2608 -0.6184  0.1285
 4188TIP3    H133979   6.260   1.251   4.489 -2.2106  1.9617 -0.4380
 4188TIP3    H233980   6.148   1.206   4.581  0.0632 -1.3375  0.9391
 4189TIP3   OH233981   5.314   6.612  13.757  0.2276 -0.4481  0.3629
 4189TIP3    H133982   5.284   6.695  13.792 -0.1041 -0.8166  0.9643
 4189TIP3    H233983   5.347   6.564  13.833 -0.7294 -1.3541  0.2292
 4190TIP3   OH233984   0.267   5.030  11.939  0.1264  0.1891 -0.3821
 4190TIP3    H133985   0.313   5.000  12.018  1.2196  0.8522 -0.7562
 4190TIP3    H233986   0.311   4.986  11.867 -0.8041 -0.3298 -0.6575
 4191TIP3   OH233987   3.561   4.783  14.401 -0.0418  0.2414 -0.0892
 4191TIP3    H133988   3.584   4.780  14.308 -1.0952 -0.5959 -0.3488
 4191TIP3    H233989   3.474   4.823  14.402 -0.6006 -0.9241  0.3926
 4192TIP3   OH233990   4.717   5.591   5.538  0.0697  0.0781 -0.4432
 4192TIP3    H133991   4.769   5.518   5.505  0.7401  1.3246 -2.2928
 4192TIP3    H233992   4.770   5.628   5.608  0.0576 -0.7449  0.0154
 4193TIP3   OH233993   3.952   4.733  12.590  0.2355 -0.4988 -0.2541
 4193TIP3    H133994   3.950   4.653  12.642  0.8669 -0.8296 -0.7213
 4193TIP3    H233995   3.868   4.775  12.607  0.8214 -0.0431  1.8575
 4194TIP3   OH233996   3.316   3.300   0.148  0.4165  0.2223  0.0863
 4194TIP3    H133997   3.234   3.276   0.104 -0.2363 -1.6568  2.1183
 4194TIP3    H233998   3.384   3.259   0.095 -0.3856 -2.3829  0.9047
 4195TIP3   OH233999   1.599   1.634  15.286  0.5491  0.4390 -0.0112
 4195TIP3    H134000   1.630   1.563  15.230 -1.8191 -0.2132 -0.6293
 4195TIP3    H234001   1.517   1.663  15.245  0.4152  2.1628  1.3462
 4196TIP3   OH234002   6.499   5.668  12.703 -0.1012 -0.1843 -0.2603
 4196TIP3    H134003   6.588   5.675  12.670  0.2966 -0.0384  0.8262
 4196TIP3    H234004   6.445   5.710  12.636  0.6982  0.2282 -0.6521
 4197TIP3   OH234005   1.904   5.444   1.307 -0.0360  0.0620 -0.0076
 4197TIP3    H134006   1.874   5.410   1.391 -0.8455  0.2608 -0.2039
 4197TIP3    H234007   1.922   5.537   1.323  0.0089  0.0520 -0.0014
 4198TIP3   OH234008   4.281   6.532   0.422 -0.4047 -0.3849  0.4047
 4198TIP3    H134009   4.316   6.446   0.397  1.0885  0.1995  0.3675
 4198TIP3    H234010   4.189   6.515   0.442 -0.7255 -1.5838 -1.7297
 4199TIP3   OH234011   3.671   3.638  12.020  0.1435  0.1881  0.3342
 4199TIP3    H134012   3.766   3.643  12.027  0.0276  0.1581  2.8440
 4199TIP3    H234013   3.643   3.598  12.102 -2.1376  1.6431  0.3588
 4200TIP3   OH234014   5.994   1.381  17.279  0.1714 -0.0771  0.2487
 4200TIP3    H134015   5.993   1.290  17.251 -1.3075  0.1032 -0.3798
 4200TIP3    H234016   5.959   1.430  17.204 -0.3900  0.8375  1.0767
 4201TIP3   OH234017   3.879   2.623   2.299 -0.3910 -0.1891 -0.1187
 4201TIP3    H134018   3.944   2.691   2.316 -1.0177 -0.0686  2.2228
 4201TIP3    H234019   3.839   2.647   2.216 -0.1753  1.9694  0.3457
 4202TIP3   OH234020   6.713   5.876  16.228 -0.0947 -0.0523  0.3975
 4202TIP3    H134021   6.681   5.890  16.139  0.8300 -3.0020 -0.5090
 4202TIP3    H234022   6.633   5.869  16.281 -0.8621 -1.9593 -0.8965
 4203TIP3   OH234023   0.811   3.311   4.886  0.4841 -0.9239 -0.2109
 4203TIP3    H134024   0.735   3.273   4.930  0.4199 -0.3876  0.1435
 4203TIP3    H234025   0.787   3.402   4.870  2.0044 -0.0041  2.2394
 4204TIP3   OH234026   1.718   2.987   2.017  0.2824 -0.4412 -0.6760
 4204TIP3    H134027   1.802   2.944   2.033  0.6711 -0.3764 -2.3605
 4204TIP3    H234028   1.652   2.919   2.033  0.6798 -0.6797 -0.0081
 4205TIP3   OH234029   1.285   0.342  14.741  0.0014 -0.0901  0.3318
 4205TIP3    H134030   1.272   0.250  14.716 -0.8668 -0.5178  2.1491
 4205TIP3    H234031   1.375   0.346  14.771 -0.2828 -0.6498  1.3060
 4206TIP3   OH234032   4.303   6.745   5.431 -0.3744  0.3010  0.3970
 4206TIP3    H134033   4.320   6.798   5.509 -0.3149 -0.2587  0.7678
 4206TIP3    H234034   4.231   6.687   5.456 -0.3914  0.1562  0.0179
 4207TIP3   OH234035   5.135   2.022  15.290  0.3512  0.5387  0.2111
 4207TIP3    H134036   5.193   2.013  15.214  1.9138  0.7028  1.3334
 4207TIP3    H234037   5.145   2.114  15.317 -0.9513  0.7466  0.0423
 4208TIP3   OH234038   3.499   3.186  13.528 -0.2163  0.3037 -0.3054
 4208TIP3    H134039   3.425   3.130  13.504  0.1034 -0.6715  0.8667
 4208TIP3    H234040   3.503   3.251  13.458 -0.0466 -1.6473 -2.2376
 4209TIP3   OH234041   3.489   4.042  17.289 -0.2212  0.2737 -0.0047
 4209TIP3    H134042   3.526   3.955  17.304 -0.8575  0.1880  1.2019
 4209TIP3    H234043   3.497   4.086  17.373 -0.0825  1.3186 -0.5573
 4210TIP3   OH234044   4.275   4.750  15.554  0.0921 -1.0401  0.0641
 4210TIP3    H134045   4.201   4.712  15.507 -0.3780  0.8636 -0.8240
 4210TIP3    H234046   4.349   4.743  15.494 -0.2207  0.2621 -0.5046
 4211TIP3   OH234047   1.306   3.657  12.209 -0.0552 -0.2445  0.5683
 4211TIP3    H134048   1.233   3.627  12.153  1.8531 -0.4833 -1.9711
 4211TIP3    H234049   1.344   3.576  12.243 -0.1103 -0.2108  0.7080
 4212TIP3   OH234050   4.875   0.128   2.026 -0.2980 -1.0195  0.2917
 4212TIP3    H134051   4.901   0.109   2.116  0.4432  2.0721  0.8264
 4212TIP3    H234052   4.781   0.147   2.032  0.4926  3.7697  1.4762
 4213TIP3   OH234053   4.338   0.024   3.953 -0.3663 -0.0922  0.1923
 4213TIP3    H134054   4.362   0.107   3.995  0.9591 -0.9417  1.2250
 4213TIP3    H234055   4.417  -0.030   3.961 -0.7346 -0.9768 -1.7238
 4214TIP3   OH234056   4.975   6.094   1.621 -0.0311  0.2353 -0.5087
 4214TIP3    H134057   5.028   6.162   1.580  0.0114  0.2485 -0.4317
 4214TIP3    H234058   4.962   6.029   1.552  2.9487 -1.4790  0.3673
 4215TIP3   OH234059   6.410   5.594   2.270  0.2024  0.4188  0.2590
 4215TIP3    H134060   6.458   5.512   2.258  1.4522  1.1194  0.3172
 4215TIP3    H234061   6.352   5.577   2.345  0.3221 -0.4635  0.1617
 4216TIP3   OH234062   3.605   0.280   1.123  0.1252  0.2422 -0.2078
 4216TIP3    H134063   3.541   0.220   1.084 -1.9504  1.9804  0.3804
 4216TIP3    H234064   3.680   0.277   1.063 -0.5829 -1.6201 -1.0822
 4217TIP3   OH234065   0.386   4.415   3.432 -0.0894  0.0002  0.0038
 4217TIP3    H134066   0.295   4.387   3.422  0.2885 -2.0654  1.7543
 4217TIP3    H234067   0.437   4.334   3.433  1.8559  1.1207 -1.2444
 4218TIP3   OH234068   0.015   4.146  17.342 -0.1211  0.0685  0.4397
 4218TIP3    H134069  -0.079   4.129  17.334 -0.2894  1.1486 -0.1146
 4218TIP3    H234070   0.042   4.173  17.254  0.8161 -0.6766  0.4750
 4219TIP3   OH234071   3.160   4.382   6.470 -0.4289 -0.2010  0.0994
 4219TIP3    H134072   3.189   4.310   6.528 -0.4090 -0.9231 -0.7881
 4219TIP3    H234073   3.093   4.342   6.415 -0.9273  0.6665  0.0710
 4220TIP3   OH234074   4.205   5.172   4.790  0.2201 -0.3577  0.4773
 4220TIP3    H134075   4.147   5.161   4.715  0.7757  0.1971 -0.0463
 4220TIP3    H234076   4.147   5.197   4.862 -0.2438 -0.2656  0.0737
 4221TIP3   OH234077   1.991   2.759  11.342  0.0665 -0.2673  0.0253
 4221TIP3    H134078   2.058   2.744  11.409 -0.4637 -1.4574  0.3177
 4221TIP3    H234079   1.949   2.841  11.368  0.9592  0.1344  0.2175
 4222TIP3   OH234080   3.259   1.908   0.815 -0.6242  0.1065 -0.6072
 4222TIP3    H134081   3.313   1.941   0.887  0.2134  0.4749 -1.3905
 4222TIP3    H234082   3.258   1.978   0.751 -2.7307  0.4416 -0.2968
 4223TIP3   OH234083   5.060   3.187   6.684  0.5598 -0.1202  0.6499
 4223TIP3    H134084   5.001   3.234   6.744 -0.1244 -0.5680  0.3444
 4223TIP3    H234085   5.001   3.144   6.622  1.2556  1.3099 -1.1075
 4224TIP3   OH234086   2.059   6.723  16.116  0.0798 -0.0098 -0.0181
 4224TIP3    H134087   2.062   6.633  16.084 -2.0443 -0.2791  0.3861
 4224TIP3    H234088   2.147   6.739  16.151  0.8891 -1.4540 -1.2839
 4225TIP3   OH234089   2.962   1.857   4.478 -0.9669 -0.9552  1.0215
 4225TIP3    H134090   2.893   1.921   4.499 -1.2706  0.3360 -2.9592
 4225TIP3    H234091   3.041   1.893   4.518 -1.3268  1.5521 -0.2937
 4226TIP3   OH234092   1.480   4.778  16.386 -0.2592 -0.4490 -1.0639
 4226TIP3    H134093   1.456   4.867  16.409 -0.8926 -0.3602 -2.0401
 4226TIP3    H234094   1.529   4.746  16.462  0.4589  0.9109 -0.9257
 4227TIP3   OH234095   0.604   6.722  11.491  0.0360 -0.0188 -0.3375
 4227TIP3    H134096   0.553   6.786  11.541  1.3938  1.4136 -0.6929
 4227TIP3    H234097   0.680   6.704  11.546  1.2745  1.1573 -1.5773
 4228TIP3   OH234098   1.830   6.263   6.132  0.1538  0.0566  0.2378
 4228TIP3    H134099   1.848   6.357   6.120  0.9646  0.0842  1.4842
 4228TIP3    H234100   1.735   6.256   6.122  0.3434  0.5296 -2.6605
 4229TIP3   OH234101   2.925   1.822  14.328 -0.4566 -0.3713 -0.3707
 4229TIP3    H134102   2.862   1.883  14.366 -0.7294  0.6674 -2.3740
 4229TIP3    H234103   3.004   1.874  14.314 -0.6976 -0.4416 -2.1334
 4230TIP3   OH234104   0.153   0.849  14.680  0.2759  0.4200  0.1046
 4230TIP3    H134105   0.206   0.929  14.683  2.1934 -0.7621 -0.3178
 4230TIP3    H234106   0.215   0.780  14.654 -1.1304 -1.3554  1.2103
 4231TIP3   OH234107   3.242   6.619  13.552 -0.4925  0.2543  0.5939
 4231TIP3    H134108   3.152   6.622  13.521 -0.6449 -0.0592  1.0041
 4231TIP3    H234109   3.257   6.706  13.589  0.4732  1.5531 -2.4533
 4232TIP3   OH234110   0.063   2.912   5.191  0.2555  0.1489 -0.4619
 4232TIP3    H134111  -0.010   2.853   5.209 -0.4406  0.5980 -1.6823
 4232TIP3    H234112   0.133   2.883   5.249 -0.9368 -0.1993  0.8399
 4233TIP3   OH234113   1.144   5.991   2.787  0.3377 -0.2305 -0.1332
 4233TIP3    H134114   1.200   5.994   2.865  0.1018 -0.6991  0.0597
 4233TIP3    H234115   1.057   5.969   2.821 -0.0380  0.8036 -0.3967
 4234TIP3   OH234116   6.491   5.671   6.028 -0.3149  0.4057  0.0871
 4234TIP3    H134117   6.467   5.586   5.990  2.6966 -1.2738  1.5406
 4234TIP3    H234118   6.497   5.654   6.122  1.0095  2.0233  0.3369
 4235TIP3   OH234119   3.129   2.629   4.421  0.1323  0.0243  0.0893
 4235TIP3    H134120   3.159   2.596   4.506  2.0200  0.6416 -0.2913
 4235TIP3    H234121   3.118   2.551   4.367  0.5920 -0.2553  0.3971
 4236TIP3   OH234122   5.595   5.618  14.118 -0.0147 -0.3186  0.8163
 4236TIP3    H134123   5.643   5.535  14.127  2.3094  0.7356 -0.7844
 4236TIP3    H234124   5.655   5.684  14.152 -0.8571  0.9396 -0.0683
 4237TIP3   OH234125   6.072   3.603  15.780  0.3655 -0.0463 -0.0852
 4237TIP3    H134126   6.021   3.581  15.858 -0.3231  0.7637 -0.3016
 4237TIP3    H234127   6.100   3.694  15.794  0.7142 -0.0795 -0.5295
 4238TIP3   OH234128   3.780   5.168   2.440  0.0270  0.0875  0.0710
 4238TIP3    H134129   3.725   5.090   2.433 -0.7484  0.5606  0.7697
 4238TIP3    H234130   3.870   5.135   2.431 -0.3707 -0.5310 -2.4047
 4239TIP3   OH234131   0.220   3.503   5.322 -0.0772  1.0840  0.1042
 4239TIP3    H134132   0.248   3.454   5.245  1.4438  1.3830  0.4367
 4239TIP3    H234133   0.163   3.572   5.287  0.8017  1.3810 -0.8036
 4240TIP3   OH234134   3.962   6.304   5.806  0.3253 -0.4069 -0.1317
 4240TIP3    H134135   3.950   6.227   5.862  2.8233 -1.9290 -1.4950
 4240TIP3    H234136   3.909   6.285   5.728  2.0184 -1.5296 -1.0822
 4241TIP3   OH234137   6.552   3.790   4.559 -0.0992 -0.1904  0.1366
 4241TIP3    H134138   6.625   3.845   4.531  0.0203 -0.1079  0.5960
 4241TIP3    H234139   6.561   3.710   4.508  0.7479 -0.4797  0.7075
 4242TIP3   OH234140   1.697   4.072  15.514  0.0551  0.4602  0.4879
 4242TIP3    H134141   1.742   4.155  15.500 -0.8121  0.7217 -0.9217
 4242TIP3    H234142   1.677   4.040  15.426 -1.6653 -0.1014  1.0487
 4243TIP3   OH234143   3.132   1.935  13.573 -0.2255 -0.1602  0.3887
 4243TIP3    H134144   3.202   1.926  13.637  1.2619 -1.3494 -1.3083
 4243TIP3    H234145   3.159   2.007  13.516  0.2324 -1.3481 -0.9525
 4244TIP3   OH234146   6.567   3.236   4.072 -0.2549 -0.3705  0.2543
 4244TIP3    H134147   6.603   3.325   4.075 -0.0359 -0.4512  0.0499
 4244TIP3    H234148   6.578   3.209   3.980 -0.0126 -0.7321  0.3873
 4245TIP3   OH234149   1.386   2.484  16.706  0.0880  0.0848 -0.2902
 4245TIP3    H134150   1.370   2.489  16.612  0.7232  1.1881 -0.3541
 4245TIP3    H234151   1.304   2.515  16.746  0.2383  0.7732 -0.5103
 4246TIP3   OH234152   3.137   0.224   2.030 -0.2921  0.2520  0.2003
 4246TIP3    H134153   3.229   0.232   2.055 -0.0434  0.6949 -0.7868
 4246TIP3    H234154   3.114   0.134   2.050  0.7925 -0.3042 -0.8747
 4247TIP3   OH234155   0.561   1.225   2.471 -0.7204 -0.1526 -0.1860
 4247TIP3    H134156   0.626   1.170   2.426 -0.2069 -0.0066  0.3837
 4247TIP3    H234157   0.576   1.313   2.438 -1.7465 -0.3688 -1.3362
 4248TIP3   OH234158   5.099   3.906   3.608 -0.1921 -0.3166  0.2872
 4248TIP3    H134159   5.166   3.935   3.670  1.1587  3.1043 -2.4986
 4248TIP3    H234160   5.141   3.911   3.522 -3.3128 -0.4123 -1.3814
 4249TIP3   OH234161   1.758   6.652   4.149 -0.3730 -0.0329  0.0149
 4249TIP3    H134162   1.692   6.651   4.218  1.5354  0.5127  1.9786
 4249TIP3    H234163   1.758   6.742   4.117 -0.3275  0.0658  0.2859
 4250TIP3   OH234164   3.008   6.750   0.211  0.9338  0.3934 -0.4239
 4250TIP3    H134165   3.050   6.826   0.252  1.5048  0.1991 -0.6386
 4250TIP3    H234166   3.081   6.691   0.189  0.3720 -2.0987  3.3345
 4251TIP3   OH234167   2.547   1.036   2.941  0.2059  0.3047 -0.0719
 4251TIP3    H134168   2.620   0.997   2.894 -0.1224 -1.4677  0.8352
 4251TIP3    H234169   2.499   0.962   2.978 -1.3422  1.4868  0.4048
 4252TIP3   OH234170   4.107   0.002  11.667  0.2617  0.2943 -0.2925
 4252TIP3    H134171   4.088  -0.091  11.658  0.5387  0.1059  0.8551
 4252TIP3    H234172   4.143   0.011  11.755  1.3091  1.3192 -0.7971
 4253TIP3   OH234173   5.060   4.881   5.041  0.7114 -0.0852  0.3106
 4253TIP3    H134174   5.126   4.881   4.972  0.9085 -0.8855  0.4833
 4253TIP3    H234175   5.046   4.973   5.061 -0.1160  0.2454 -1.5313
 4254TIP3   OH234176   6.076   2.927   3.921  0.3003  0.1187  0.0672
 4254TIP3    H134177   6.097   2.938   3.828  0.5123 -0.9150 -0.0102
 4254TIP3    H234178   6.001   2.868   3.922 -0.0914  0.6040  0.5408
 4255TIP3   OH234179   2.676   2.708  13.665 -0.0544  0.0621  0.4091
 4255TIP3    H134180   2.600   2.656  13.638  1.2039 -1.5562 -0.1701
 4255TIP3    H234181   2.701   2.757  13.586 -0.1915  0.1967  0.4494
 4256TIP3   OH234182   2.548   1.169  16.317  0.2582  0.1500  0.0307
 4256TIP3    H134183   2.497   1.250  16.326 -2.3900 -1.4422  0.2220
 4256TIP3    H234184   2.538   1.145  16.225 -1.1100 -1.1885  0.4732
 4257TIP3   OH234185   3.695   3.747  15.268  0.3243  0.0288 -0.6164
 4257TIP3    H134186   3.677   3.767  15.360 -0.6591 -1.8326 -0.3586
 4257TIP3    H234187   3.721   3.655  15.268  1.0935  0.2118 -2.1224
 4258TIP3   OH234188   2.553   0.042   5.478  0.5795  0.1400 -0.2432
 4258TIP3    H134189   2.627  -0.016   5.460  0.7014  0.1180  0.2978
 4258TIP3    H234190   2.584   0.129   5.452  1.2411  0.3267  1.0429
 4259TIP3   OH234191   1.986   0.169   0.668  0.2297 -0.4915 -0.3263
 4259TIP3    H134192   1.909   0.149   0.615  1.4314  0.3924 -2.5746
 4259TIP3    H234193   2.012   0.257   0.639  0.9514  0.0727  1.8317
 4260TIP3   OH234194   4.965   5.917  16.310  0.6164  0.3810 -0.3033
 4260TIP3    H134195   4.972   5.839  16.255  1.5858  0.0504  0.2713
 4260TIP3    H234196   4.922   5.885  16.390  1.8320  0.2279  0.3002
 4261TIP3   OH234197   6.740   1.368  12.961  0.2034  0.2487  0.3913
 4261TIP3    H134198   6.770   1.386  13.050  2.0505  0.7073 -0.2783
 4261TIP3    H234199   6.798   1.299  12.930 -1.3245 -0.8994 -0.0076
 4262TIP3   OH234200   3.045   1.626   2.996  0.4319 -0.0154 -0.0545
 4262TIP3    H134201   3.089   1.706   3.024 -0.5936 -0.0840  1.9295
 4262TIP3    H234202   3.113   1.559   2.998  1.1415  0.6530 -1.0536
 4263TIP3   OH234203   5.172   1.521  10.730 -0.0129 -0.8982 -0.1811
 4263TIP3    H134204   5.156   1.592  10.668 -1.9037 -1.3295 -0.2426
 4263TIP3    H234205   5.130   1.444  10.690  2.6130 -2.2853 -0.4770
 4264TIP3   OH234206   5.965   3.089  14.843  0.3127  0.4308 -0.8588
 4264TIP3    H134207   5.941   3.093  14.936  1.2747 -1.2771 -0.4953
 4264TIP3    H234208   5.904   3.149  14.800 -1.4544 -0.2046  0.6241
 4265TIP3   OH234209   4.225   3.578  14.028  0.1151  0.6647 -0.0195
 4265TIP3    H134210   4.156   3.529  13.983  2.1650 -1.6102 -0.9273
 4265TIP3    H234211   4.262   3.634  13.960  0.6792  0.1012 -0.1904
 4266TIP3   OH234212   4.535   0.503   2.080 -0.8447  0.2839  0.0187
 4266TIP3    H134213   4.443   0.507   2.056 -2.2451  1.6812  4.5612
 4266TIP3    H234214   4.558   0.592   2.104  1.4200 -0.2299  0.0463
 4267TIP3   OH234215   1.851   4.127  15.096  0.6582 -0.3357 -0.2742
 4267TIP3    H134216   1.863   4.119  15.002 -0.2015 -0.4741 -0.3778
 4267TIP3    H234217   1.813   4.044  15.123  1.0670 -0.3665  0.2316
 4268TIP3   OH234218   4.603   1.497  15.846 -0.4147  0.0627 -0.1438
 4268TIP3    H134219   4.691   1.487  15.812 -0.8426 -0.9313 -1.0204
 4268TIP3    H234220   4.561   1.559  15.786 -0.6491 -0.3731 -0.4433
 4269TIP3   OH234221   0.939   5.242   3.031  0.3291 -0.4083  0.4268
 4269TIP3    H134222   0.953   5.147   3.038 -0.2249 -0.7291 -2.0731
 4269TIP3    H234223   0.982   5.267   2.949  0.3270  1.4909  0.9559
 4270TIP3   OH234224   1.042   0.919  17.185 -0.0372 -0.6525 -0.9882
 4270TIP3    H134225   1.019   0.973  17.110 -2.0100  0.6194  0.4293
 4270TIP3    H234226   0.995   0.837  17.172  0.3691 -0.8021 -1.5593
 4271TIP3   OH234227   0.217   1.025  12.025 -0.4810 -0.0923  0.1026
 4271TIP3    H134228   0.288   0.975  12.065 -0.5304  0.6910  1.2112
 4271TIP3    H234229   0.142   1.011  12.083 -0.3760  1.6129  0.7041
 4272TIP3   OH234230   5.924   4.029   1.574  0.7634 -0.2301  0.5700
 4272TIP3    H134231   5.903   3.964   1.507 -1.5757 -0.4418  1.4402
 4272TIP3    H234232   5.949   4.107   1.524  0.2754 -0.7491 -0.5225
 4273TIP3   OH234233   5.854   2.943  15.887 -0.4210  0.1459  0.1558
 4273TIP3    H134234   5.878   3.010  15.951  1.9676 -0.3505 -0.1180
 4273TIP3    H234235   5.875   2.860  15.930 -2.2193 -0.4265  0.0372
 4274TIP3   OH234236   2.374   5.519   3.621 -0.2013 -0.4581  0.1763
 4274TIP3    H134237   2.279   5.531   3.624 -0.1372  3.1993 -3.6881
 4274TIP3    H234238   2.409   5.608   3.626  2.6970 -1.2591 -2.7309
 4275TIP3   OH234239   0.746   0.642   3.278 -0.1610 -0.0267 -0.6019
 4275TIP3    H134240   0.684   0.704   3.239 -1.3470 -0.2519  0.8510
 4275TIP3    H234241   0.831   0.666   3.240 -0.9482  1.0251 -1.7713
 4276TIP3   OH234242   5.657   1.205   5.779  0.0812  0.4441 -0.4051
 4276TIP3    H134243   5.720   1.216   5.708 -0.4798 -0.8852 -1.1346
 4276TIP3    H234244   5.598   1.136   5.749 -1.6437  1.5173  0.3066
 4277TIP3   OH234245   6.115   3.565   1.370  0.0641  0.4416 -0.9586
 4277TIP3    H134246   6.076   3.511   1.439 -0.0593 -0.3660 -1.6484
 4277TIP3    H234247   6.045   3.576   1.305 -0.5932  3.1127  0.0325
 4278TIP3   OH234248   5.024   3.063  16.695  0.2227 -0.2592 -0.1590
 4278TIP3    H134249   4.977   3.047  16.777 -0.9861 -0.6083 -0.8873
 4278TIP3    H234250   4.972   3.018  16.629  1.2560 -0.1045 -1.1065
 4279TIP3   OH234251   4.421   2.663  12.396 -0.0790 -0.1536  0.0815
 4279TIP3    H134252   4.354   2.599  12.374 -1.7454  0.9577  1.6317
 4279TIP3    H234253   4.418   2.726  12.324 -0.6822 -0.1385  0.1158
 4280TIP3   OH234254   0.232   5.496  12.185 -0.5733  0.2272 -0.2197
 4280TIP3    H134255   0.145   5.538  12.185 -0.6018  0.1806  0.4480
 4280TIP3    H234256   0.269   5.518  12.099 -1.2817  0.1699 -0.5495
 4281TIP3   OH234257   2.926   1.150  16.228 -0.0840  0.3509  0.0873
 4281TIP3    H134258   3.013   1.110  16.229 -0.0907  0.2530 -1.2564
 4281TIP3    H234259   2.894   1.136  16.139 -1.6246  0.0857  0.6457
 4282TIP3   OH234260   5.362   6.540  16.236 -0.0757  0.3530  0.2723
 4282TIP3    H134261   5.371   6.451  16.270 -1.4904  0.5676  1.2769
 4282TIP3    H234262   5.373   6.531  16.141  0.2988 -0.8027  0.4153
 4283TIP3   OH234263   3.235   3.996  17.148  0.4024  0.2103  0.4140
 4283TIP3    H134264   3.175   3.922  17.161  0.9649 -0.5367 -0.9196
 4283TIP3    H234265   3.309   3.977  17.206  2.0108 -2.0450 -2.1312
 4284TIP3   OH234266   5.245   3.673  13.992 -0.1432 -0.3332  0.2215
 4284TIP3    H134267   5.324   3.623  13.975 -0.8207 -1.8196  1.2578
 4284TIP3    H234268   5.231   3.665  14.087 -1.1748  0.4551  0.1585
 4285TIP3   OH234269   3.493   4.290  11.488  0.2813  0.2060  0.0383
 4285TIP3    H134270   3.424   4.225  11.501  0.3480 -0.0202 -0.6966
 4285TIP3    H234271   3.506   4.293  11.393  2.1230 -0.6357  0.2293
 4286TIP3   OH234272   0.991   1.852  14.917 -0.0144  0.0452  0.1230
 4286TIP3    H134273   1.026   1.786  14.975  0.8148  0.2552 -0.1317
 4286TIP3    H234274   1.035   1.933  14.943  0.2581  0.1706 -0.6854
 4287TIP3   OH234275   2.830   2.610  11.750 -0.5701 -0.1940 -0.0297
 4287TIP3    H134276   2.783   2.528  11.766  0.7280 -0.8539  0.4644
 4287TIP3    H234277   2.837   2.615  11.655 -0.2373 -0.8917 -0.0444
 4288TIP3   OH234278   3.629   1.015  14.976  0.0207  0.0996  0.2432
 4288TIP3    H134279   3.555   0.958  14.998 -0.8554  0.6795 -1.0614
 4288TIP3    H234280   3.699   0.988  15.036 -1.0241 -0.9286  1.0456
 4289TIP3   OH234281   4.652   4.154   4.845  0.1752  0.2098 -0.0831
 4289TIP3    H134282   4.672   4.243   4.814  0.0190 -0.5651 -2.7190
 4289TIP3    H234283   4.712   4.098   4.795 -2.2243 -1.4279 -1.3072
 4290TIP3   OH234284   6.592   0.266   5.599  0.2324 -0.2920  0.1733
 4290TIP3    H134285   6.530   0.287   5.530  0.5230  1.1757  0.3279
 4290TIP3    H234286   6.538   0.232   5.671 -0.2400 -0.2677 -0.1675
 4291TIP3   OH234287   1.078   2.997   5.925  0.0488  0.0428 -0.3307
 4291TIP3    H134288   1.171   2.986   5.944  0.4347  0.2395 -2.0204
 4291TIP3    H234289   1.034   2.972   6.007  1.5975  0.6764  0.7457
 4292TIP3   OH234290   5.017   3.067   1.635 -0.6956  0.6411  0.4990
 4292TIP3    H134291   4.923   3.079   1.623 -0.9128 -2.1213 -1.5297
 4292TIP3    H234292   5.054   3.068   1.547  0.8244 -0.4709  1.0627
 4293TIP3   OH234293   3.256   0.782  16.121  0.1313 -0.8643  0.1267
 4293TIP3    H134294   3.281   0.757  16.033 -1.3419 -0.0335 -0.5623
 4293TIP3    H234295   3.170   0.743  16.134 -0.0914 -0.1783  0.8179
 4294TIP3   OH234296   4.670   2.998   1.748  0.4372 -0.2987  0.7078
 4294TIP3    H134297   4.718   3.022   1.669  0.1704 -0.4284  0.5033
 4294TIP3    H234298   4.624   3.078   1.773  0.6889 -0.2001  0.8504
 4295TIP3   OH234299   5.274   2.081   0.891  0.1734 -0.2227  0.2380
 4295TIP3    H134300   5.194   2.102   0.939 -0.0702 -1.8265  0.5596
 4295TIP3    H234301   5.345   2.105   0.951 -0.1040 -0.7852  0.7941
 4296TIP3   OH234302   1.111   4.162   5.931  0.4573 -0.0171  0.1478
 4296TIP3    H134303   1.180   4.138   5.994  0.9653 -1.7286 -0.9955
 4296TIP3    H234304   1.055   4.222   5.980  2.4683  1.0474  1.2816
 4297TIP3   OH234305   1.553   0.370  14.815  0.2354 -0.2167  0.0458
 4297TIP3    H134306   1.541   0.450  14.765  0.8000 -0.5058 -0.5810
 4297TIP3    H234307   1.606   0.396  14.890 -0.8100  0.2659  0.6382
 4298TIP3   OH234308   0.105   1.124  11.168  0.6811 -0.0933 -0.5821
 4298TIP3    H134309   0.033   1.065  11.145  0.1226  0.5733 -0.5858
 4298TIP3    H234310   0.165   1.070  11.219  0.4075 -0.7801 -0.9771
 4299TIP3   OH234311   0.190   2.252   4.860 -0.1432  0.2126  0.0487
 4299TIP3    H134312   0.252   2.325   4.861 -0.5794  0.5865  0.7038
 4299TIP3    H234313   0.143   2.260   4.943 -1.6132  0.4148 -0.7739
 4300TIP3   OH234314   2.032   0.217  12.656 -0.6850  0.9636  0.3991
 4300TIP3    H134315   2.087   0.171  12.593 -0.0157  0.2250  1.4929
 4300TIP3    H234316   1.958   0.158  12.672 -1.2543  1.4840 -0.2535
 4301TIP3   OH234317   4.026   1.473  11.182  0.0721 -0.0346  1.0581
 4301TIP3    H134318   4.065   1.541  11.237 -0.6398  0.4056  1.0364
 4301TIP3    H234319   4.099   1.436  11.133  0.6111  0.0410  1.7946
 4302TIP3   OH234320   3.039   5.828  14.243  0.4393  0.0655  0.2671
 4302TIP3    H134321   3.008   5.907  14.199 -1.1391 -0.7415 -0.1686
 4302TIP3    H234322   3.067   5.771  14.171 -0.1017 -0.4294  0.4393
 4303TIP3   OH234323   4.656   4.340   6.321 -0.0417 -0.2085  0.2402
 4303TIP3    H134324   4.601   4.406   6.364 -0.1238 -0.2072  0.1325
 4303TIP3    H234325   4.706   4.301   6.393 -1.3801 -1.3609  0.6126
 4304TIP3   OH234326   6.705   1.687  14.493 -0.1149  0.7957  0.6349
 4304TIP3    H134327   6.635   1.654  14.437 -0.2860 -0.8140  1.7210
 4304TIP3    H234328   6.660   1.736  14.562 -0.1068  0.4759  0.8663
 4305TIP3   OH234329   3.595   2.070   2.288 -0.2054  0.6032  0.4595
 4305TIP3    H134330   3.575   2.016   2.211 -0.2910  0.3699  0.6459
 4305TIP3    H234331   3.671   2.121   2.261 -0.2932  0.5932  0.1832
 4306TIP3   OH234332   0.249   0.588   3.047 -0.2405 -0.0256 -0.3698
 4306TIP3    H134333   0.265   0.679   3.023 -0.7284 -0.6107 -3.2777
 4306TIP3    H234334   0.336   0.548   3.045 -0.2878 -0.1074 -1.5559
 4307TIP3   OH234335   0.017   4.446  17.251  0.2239 -0.1573 -0.7408
 4307TIP3    H134336  -0.048   4.410  17.191  0.4371 -2.3020  0.2272
 4307TIP3    H234337   0.070   4.505  17.197 -1.6385  0.5856 -1.8562
 4308TIP3   OH234338   1.836   4.815   5.416  0.4493  0.0550  0.2599
 4308TIP3    H134339   1.826   4.752   5.345  0.3214  1.8481 -1.3893
 4308TIP3    H234340   1.914   4.865   5.393 -0.4260  1.6264  0.5712
 4309TIP3   OH234341   2.654   1.575  14.316  0.5321  0.2993 -0.0884
 4309TIP3    H134342   2.641   1.501  14.257 -0.5543  0.3244  0.1093
 4309TIP3    H234343   2.720   1.544  14.379 -0.4310 -0.7822  0.4326
 4310TIP3   OH234344   4.227   3.491   0.178 -0.7032  0.0161 -0.3430
 4310TIP3    H134345   4.226   3.395   0.178 -0.1432 -0.0492  2.4361
 4310TIP3    H234346   4.222   3.515   0.270  2.5494  2.5991 -0.6648
 4311TIP3   OH234347   4.387   2.618   2.284  0.1076 -0.3540 -0.3562
 4311TIP3    H134348   4.477   2.630   2.312  0.2326 -1.1149 -0.4070
 4311TIP3    H234349   4.352   2.707   2.276  0.3744 -0.0978  1.1625
 4312TIP3   OH234350   4.586   2.244   2.905 -0.1238  0.3579  0.2443
 4312TIP3    H134351   4.616   2.241   2.814  0.4398 -0.5130  0.4409
 4312TIP3    H234352   4.667   2.255   2.955 -0.4196  0.6996  0.6426
 4313TIP3   OH234353   3.721   1.825  13.099  0.0953 -0.0619  0.2427
 4313TIP3    H134354   3.638   1.856  13.134 -0.0185  0.4566 -0.4561
 4313TIP3    H234355   3.704   1.734  13.075 -0.9239  0.5810 -1.7810
 4314TIP3   OH234356   1.330   0.496  11.664  0.1157 -0.2727  0.5033
 4314TIP3    H134357   1.292   0.429  11.608 -2.1067 -1.6323  3.3638
 4314TIP3    H234358   1.304   0.579  11.623 -0.0221 -1.1401 -1.2569
 4315TIP3   OH234359   0.369   1.032  14.395  0.1856  0.1104 -0.4882
 4315TIP3    H134360   0.352   1.061  14.306 -2.2559  1.6878  0.3815
 4315TIP3    H234361   0.304   0.964  14.412  1.0379 -0.6321 -0.0901
 4316TIP3   OH234362   3.751   1.591   2.381  0.1471  0.2537  0.3249
 4316TIP3    H134363   3.731   1.629   2.295 -1.5379  3.2684  1.8842
 4316TIP3    H234364   3.845   1.608   2.393 -0.0233  1.6635 -0.1257
 4317TIP3   OH234365   3.920   4.935   2.081 -0.3118 -0.1775 -0.0419
 4317TIP3    H134366   3.969   4.874   2.137  0.5151 -0.0856 -0.6605
 4317TIP3    H234367   3.975   4.948   2.005 -0.9632  0.5329 -0.4064
 4318TIP3   OH234368   3.295   2.683   3.735  0.0550 -0.0406 -0.2619
 4318TIP3    H134369   3.286   2.715   3.645 -0.8401  1.2797  0.2645
 4318TIP3    H234370   3.329   2.593   3.725  2.2850  0.8704 -1.8213
 4319TIP3   OH234371   2.163   5.943   3.584 -0.0513 -0.0156 -0.3238
 4319TIP3    H134372   2.215   5.967   3.660  2.1768 -1.4564 -1.2905
 4319TIP3    H234373   2.146   6.025   3.539  0.8638  0.5544  0.3511
 4320TIP3   OH234374   4.509   5.207  17.171  0.2584  0.3047  0.2563
 4320TIP3    H134375   4.518   5.178  17.080 -0.9963 -0.1517  0.2589
 4320TIP3    H234376   4.526   5.128  17.223  0.4707  0.4452  0.4022
 4321TIP3   OH234377   4.964   2.452   5.903  0.2386 -0.3636  0.4166
 4321TIP3    H134378   5.057   2.448   5.883 -0.1050 -0.7057 -1.2875
 4321TIP3    H234379   4.940   2.363   5.926  0.4575 -0.1425  1.5282
 4322TIP3   OH234380   6.413   0.882  16.757  0.2417 -0.3050  0.4057
 4322TIP3    H134381   6.414   0.978  16.748 -1.7322 -0.0582  2.0913
 4322TIP3    H234382   6.355   0.853  16.686  1.1316 -0.3143 -0.3362
 4323TIP3   OH234383   4.340   5.929   2.840  0.2849 -0.8083  0.0568
 4323TIP3    H134384   4.394   5.949   2.916 -0.6412  0.2845  0.4485
 4323TIP3    H234385   4.324   6.013   2.798  2.6151 -1.5581 -2.7134
 4324TIP3   OH234386   0.070   0.074   3.942 -0.3136  0.8949 -0.7400
 4324TIP3    H134387   0.020  -0.005   3.964  1.3852  0.2907  1.2123
 4324TIP3    H234388   0.003   0.143   3.935 -1.5434 -0.0430  0.9629
 4325TIP3   OH234389   5.161   4.965   0.494  0.3386 -0.3126  0.0286
 4325TIP3    H134390   5.247   4.970   0.454 -0.3888  1.7812 -1.4799
 4325TIP3    H234391   5.100   4.977   0.421 -1.1105  1.1359  1.3880
 4326TIP3   OH234392   4.631   2.522   4.354  0.2132  0.2506  0.1117
 4326TIP3    H134393   4.549   2.480   4.379  1.2961 -1.1461  1.5772
 4326TIP3    H234394   4.654   2.576   4.430  1.3535 -0.5138  0.3227
 4327TIP3   OH234395   1.420   2.113   2.927 -0.2852 -1.0407  0.4305
 4327TIP3    H134396   1.375   2.128   2.843 -0.9463 -0.9485  0.7895
 4327TIP3    H234397   1.504   2.158   2.918 -1.1881  0.7958  0.5507
 4328TIP3   OH234398   3.552   6.141   2.922 -0.2011 -0.6708  0.4491
 4328TIP3    H134399   3.510   6.146   2.836 -0.6783 -1.4967  0.6220
 4328TIP3    H234400   3.590   6.053   2.925  1.4373  0.0182  0.3602
 4329TIP3   OH234401   2.860   3.177   1.034 -0.3523  0.1832  0.2653
 4329TIP3    H134402   2.842   3.091   0.996 -2.7016  0.6982  0.0673
 4329TIP3    H234403   2.784   3.195   1.089  0.6289  1.6690  1.2090
 4330TIP3   OH234404   5.360   3.137   1.828 -0.1946  0.0857  0.6255
 4330TIP3    H134405   5.387   3.085   1.753  0.0940  0.0937  0.7227
 4330TIP3    H234406   5.339   3.073   1.895 -0.9690  0.0609  0.3692
 4331TIP3   OH234407   4.394   2.306   5.831  0.1979 -0.1520 -0.0118
 4331TIP3    H134408   4.341   2.240   5.788  1.7433 -0.9523 -0.7460
 4331TIP3    H234409   4.395   2.380   5.770 -1.6728  0.6825  0.8845
 4332TIP3   OH234410   2.130   1.298   3.260  0.4016 -0.0841 -0.0165
 4332TIP3    H134411   2.127   1.254   3.175 -1.4060  0.6529 -0.3912
 4332TIP3    H234412   2.089   1.383   3.245 -0.3702 -0.1101  1.6674
 4333TIP3   OH234413   3.511   3.540  14.397 -0.1860  0.1041  0.0728
 4333TIP3    H134414   3.598   3.577  14.380  0.3224  0.4182  2.8017
 4333TIP3    H234415   3.510   3.524  14.491 -2.7945 -0.7410 -0.0116
 4334TIP3   OH234416   1.414   1.240   5.536 -0.0275  0.0002  0.0130
 4334TIP3    H134417   1.429   1.329   5.503  0.7883 -0.3392 -0.5629
 4334TIP3    H234418   1.408   1.250   5.631 -1.2427  0.8391 -0.1246
 4335TIP3   OH234419   2.753   0.042   3.455  0.4372  0.0565  0.0657
 4335TIP3    H134420   2.659   0.035   3.474  0.3824  0.6163  0.0060
 4335TIP3    H234421   2.775   0.132   3.477  1.1886 -0.3556  1.0809
 4336TIP3   OH234422   2.911   1.430  16.002 -0.9353  0.0760  0.1265
 4336TIP3    H134423   2.936   1.436  16.094 -2.3928  0.9447  0.4992
 4336TIP3    H234424   2.876   1.517  15.981  1.5808  0.7057 -1.9627
 4337TIP3   OH234425   0.565   1.338  13.554  0.7954 -0.0608  0.2795
 4337TIP3    H134426   0.614   1.412  13.519 -0.2099  0.1735 -0.6725
 4337TIP3    H234427   0.474   1.368  13.557  0.0283 -1.8801 -2.0391
 4338TIP3   OH234428   3.654   2.300   1.594  0.3563  0.1679 -0.1229
 4338TIP3    H134429   3.589   2.249   1.546 -1.6115  0.9765  1.5256
 4338TIP3    H234430   3.720   2.235   1.621 -0.7356 -1.0455 -0.2614
 4339TIP3   OH234431   6.182   4.886   1.081  0.6303  0.0647 -0.9753
 4339TIP3    H134432   6.245   4.955   1.059 -0.1516  0.3881 -2.3192
 4339TIP3    H234433   6.096   4.927   1.067  0.1036 -0.3965  0.7163
 4340TIP3   OH234434   1.217   3.584  10.599  0.2593 -0.2438  0.5898
 4340TIP3    H134435   1.232   3.494  10.570 -1.6879 -0.3903 -0.0819
 4340TIP3    H234436   1.291   3.603  10.657  0.7721 -2.2207  0.6464
 4341TIP3   OH234437   1.654   3.000   2.337  0.2287  0.2054  0.0594
 4341TIP3    H134438   1.631   3.042   2.255 -1.0520  0.7101  0.6361
 4341TIP3    H234439   1.736   3.041   2.364  1.0735 -0.5249 -1.3289
 4342TIP3   OH234440   6.128   2.137   0.147 -0.6941  0.3299 -0.0654
 4342TIP3    H134441   6.119   2.181   0.231 -1.0173  1.8636 -0.8690
 4342TIP3    H234442   6.214   2.095   0.150 -1.3147 -0.9044  1.5798
 4343TIP3   OH234443   0.329   1.605  15.365 -0.9337  0.4035 -0.0465
 4343TIP3    H134444   0.318   1.638  15.454 -0.7606  1.0243 -0.2558
 4343TIP3    H234445   0.253   1.548  15.351 -0.3033 -0.7315  0.9581
 4344TIP3   OH234446   2.388   0.756   0.076  0.1557  0.1089 -0.4051
 4344TIP3    H134447   2.394   0.852   0.081 -0.2233  0.1171 -0.0075
 4344TIP3    H234448   2.471   0.729   0.036  0.4924  0.5687 -0.0394
 4345TIP3   OH234449   5.882   2.978   5.588  0.0869  0.2696  0.2463
 4345TIP3    H134450   5.939   3.052   5.605 -0.5430  0.4976  1.5662
 4345TIP3    H234451   5.917   2.908   5.644 -0.5648  0.2377  0.6250
 4346TIP3   OH234452   6.314   5.224  14.612 -0.6455 -0.0088 -0.2365
 4346TIP3    H134453   6.356   5.138  14.618 -0.2966  0.1570 -0.3185
 4346TIP3    H234454   6.296   5.248  14.703 -0.1423  0.1310 -0.1753
 4347TIP3   OH234455   6.384   0.892  14.438 -0.0086 -0.3339 -0.4110
 4347TIP3    H134456   6.374   0.961  14.503  0.8063 -1.0125  0.4750
 4347TIP3    H234457   6.342   0.926  14.359  2.2626  2.1293 -0.7083
 4348TIP3   OH234458   3.531   6.018   0.125  0.0720  0.0367 -0.5549
 4348TIP3    H134459   3.438   5.996   0.125  0.6353 -2.7327 -0.6111
 4348TIP3    H234460   3.575   5.935   0.143  2.5251  1.4206  0.2867
 4349TIP3   OH234461   5.300   5.382  15.307  0.3325 -0.2991 -0.0259
 4349TIP3    H134462   5.393   5.368  15.294  0.3909  0.3338 -0.2995
 4349TIP3    H234463   5.259   5.345  15.229  0.5661  1.9797 -1.3144
 4350TIP3   OH234464   1.231   5.289  14.390 -0.1246  0.3499  0.4246
 4350TIP3    H134465   1.279   5.337  14.323  1.3651 -0.1092  1.1298
 4350TIP3    H234466   1.149   5.263  14.347  1.2657 -0.9436 -1.5929
 4351TIP3   OH234467   0.000   4.003  13.434 -0.8882  0.5574  0.7490
 4351TIP3    H134468   0.000   4.081  13.377 -2.2360  1.0238  1.3587
 4351TIP3    H234469   0.092   3.993  13.460 -0.1884  0.2777 -1.5470
 4352TIP3   OH234470   3.573   1.013  15.517  0.6311 -0.1585 -0.1913
 4352TIP3    H134471   3.642   1.070  15.482 -1.0319  0.1751 -3.3249
 4352TIP3    H234472   3.546   1.055  15.598  2.2732  1.1978 -0.2831
 4353TIP3   OH234473   1.116   1.075  14.787  0.1663 -0.5606 -0.1761
 4353TIP3    H134474   1.085   1.090  14.697  0.3560  0.2673 -0.1190
 4353TIP3    H234475   1.042   1.099  14.842 -0.0345 -1.3109 -0.1125
 4354TIP3   OH234476   5.025   4.817  13.435  0.1188  0.2892 -0.1634
 4354TIP3    H134477   4.939   4.775  13.436  0.5622 -0.6786 -0.6966
 4354TIP3    H234478   5.016   4.890  13.375  0.3953 -1.5357 -2.5902
 4355TIP3   OH234479   0.970   1.874  15.386  0.6012 -0.2314 -0.2693
 4355TIP3    H134480   0.881   1.882  15.420 -0.2627 -2.1800 -1.8697
 4355TIP3    H234481   1.016   1.819  15.450 -0.2824 -1.7890 -0.9282
 4356TIP3   OH234482   2.309   4.361  12.696 -0.0625 -0.6633 -0.0653
 4356TIP3    H134483   2.368   4.420  12.650  0.1311 -0.3520  0.5804
 4356TIP3    H234484   2.241   4.418  12.732 -0.0541 -0.8751  0.2854
 4357TIP3   OH234485   0.869   3.203  13.387  0.2292 -0.2355 -0.5746
 4357TIP3    H134486   0.839   3.230  13.300 -0.7836 -0.9142 -0.4488
 4357TIP3    H234487   0.833   3.269  13.446 -0.6031 -0.7614 -0.4816
 4358TIP3   OH234488   4.378   0.112   3.584  0.2942  0.2358  0.3450
 4358TIP3    H134489   4.445   0.063   3.631  0.8944 -1.5185 -2.0988
 4358TIP3    H234490   4.321   0.044   3.547 -0.3022  1.4750 -1.1318
 4359TIP3   OH234491   1.549   6.005   2.496 -0.6517  0.0383  0.3670
 4359TIP3    H134492   1.470   6.040   2.456  0.2149  0.0911 -1.4009
 4359TIP3    H234493   1.583   6.078   2.548 -1.0610  0.4708  0.0376
 4360TIP3   OH234494   6.759   3.827  15.362  0.3752 -0.2933 -0.0324
 4360TIP3    H134495   6.810   3.781  15.429 -0.5815 -0.4392  0.6140
 4360TIP3    H234496   6.667   3.810  15.385 -0.0012  1.3273 -0.2072
 4361TIP3   OH234497   5.007   0.278  14.184  0.6909  0.4175 -0.0437
 4361TIP3    H134498   5.051   0.336  14.122 -1.2286  0.6598 -1.2367
 4361TIP3    H234499   5.079   0.229  14.225  2.0905  0.9427 -1.7367
 4362TIP3   OH234500   1.225   2.044  11.356 -0.4315 -0.1700  0.3105
 4362TIP3    H134501   1.306   2.061  11.307 -0.6188 -0.0576  0.0369
 4362TIP3    H234502   1.198   1.956  11.328 -0.8864  0.1543 -0.2811
 4363TIP3   OH234503   2.239   3.085  13.448 -0.3723  0.7008 -0.3804
 4363TIP3    H134504   2.266   3.176  13.439 -0.0099  0.4584 -2.0799
 4363TIP3    H234505   2.175   3.086  13.518 -0.5131  2.2963 -0.4960
 4364TIP3   OH234506   5.465   3.585  12.537  0.2999 -0.4461 -0.3600
 4364TIP3    H134507   5.443   3.518  12.603  5.2357  0.6500  2.9509
 4364TIP3    H234508   5.418   3.663  12.567 -1.2843 -1.0663 -1.1164
 4365TIP3   OH234509   3.072   1.954  12.257 -0.1683 -0.6117 -0.4035
 4365TIP3    H134510   3.060   1.874  12.207 -4.4264  1.3914 -3.1251
 4365TIP3    H234511   3.102   2.018  12.193 -2.5950  1.2718  0.1989
 4366TIP3   OH234512   5.007   4.282   5.700  0.0149  0.1718  0.7635
 4366TIP3    H134513   5.042   4.208   5.749 -1.6749 -2.1452 -1.2530
 4366TIP3    H234514   4.914   4.283   5.722 -0.2895  0.6458 -0.4659
 4367TIP3   OH234515   4.152   4.820   0.161  0.4347  0.2615 -0.1811
 4367TIP3    H134516   4.137   4.726   0.167  0.6499  0.3188  3.3279
 4367TIP3    H234517   4.243   4.829   0.133  0.3006 -0.5459 -0.8991
 4368TIP3   OH234518   1.058   4.990   3.011  0.5126 -0.3790  0.1738
 4368TIP3    H134519   1.080   5.034   2.929 -1.3078  0.3526  0.0326
 4368TIP3    H234520   0.973   4.948   2.994  1.7863 -3.3332  0.5716
 4369TIP3   OH234521   2.120   1.954  16.865  0.1157  0.2472 -0.0953
 4369TIP3    H134522   2.163   1.890  16.807 -0.4667  1.2951 -1.7539
 4369TIP3    H234523   2.191   2.009  16.897  0.2430  1.0648 -1.6637
 4370TIP3   OH234524   0.330   0.440  15.698  0.5115 -0.4569  0.2792
 4370TIP3    H134525   0.252   0.456  15.751 -0.1405 -0.7025 -0.5956
 4370TIP3    H234526   0.308   0.365  15.644  1.0669 -0.0524 -0.5363
 4371TIP3   OH234527   5.127   4.485   2.312 -0.0579  0.3518  0.0339
 4371TIP3    H134528   5.052   4.512   2.365 -1.4553 -2.0675 -0.5605
 4371TIP3    H234529   5.162   4.408   2.357 -1.6636 -2.1656 -2.6673
 4372TIP3   OH234530   0.088   0.525  15.269  0.1435  0.5608 -0.0484
 4372TIP3    H134531   0.064   0.570  15.188  0.8839 -0.5360 -0.9032
 4372TIP3    H234532   0.114   0.595  15.329 -1.1767  1.4497 -0.4625
 4373TIP3   OH234533   0.170   4.447   5.700 -0.2543  0.4267 -0.9008
 4373TIP3    H134534   0.208   4.484   5.779 -0.3704 -0.7186 -0.2975
 4373TIP3    H234535   0.098   4.507   5.678 -0.2312  0.7400 -0.1405
 4374TIP3   OH234536   4.270   2.433   5.337  0.2481  0.3710 -0.2640
 4374TIP3    H134537   4.223   2.363   5.292 -0.6869  0.7215  0.1456
 4374TIP3    H234538   4.334   2.464   5.273  0.9569 -1.1170 -0.3107
 4375TIP3   OH234539   4.595   3.835   1.417 -0.2562 -0.3786  0.8626
 4375TIP3    H134540   4.608   3.773   1.346 -1.2505 -0.7902  1.0294
 4375TIP3    H234541   4.622   3.788   1.495  3.8814  1.0669  0.5460
 4376TIP3   OH234542   1.263   4.286   0.907  0.2639  0.6931  0.1538
 4376TIP3    H134543   1.211   4.349   0.858 -1.1926  1.1688  2.1845
 4376TIP3    H234544   1.342   4.333   0.931 -0.4765  1.5354  1.0154
 4377TIP3   OH234545   5.015   4.571  12.164  0.2746 -0.0941 -0.6206
 4377TIP3    H134546   5.015   4.665  12.144  0.3524 -0.2901 -1.5947
 4377TIP3    H234547   5.071   4.563  12.242  0.1048  0.6901 -0.4107
 4378TIP3   OH234548   6.627   2.624  15.868 -0.0894 -0.2032  0.4652
 4378TIP3    H134549   6.702   2.682  15.859  0.8458 -1.4829 -0.4082
 4378TIP3    H234550   6.578   2.658  15.943 -0.6547  2.8374 -1.1259
 4379TIP3   OH234551   6.198   5.498  13.627 -0.1257 -0.9029  0.1380
 4379TIP3    H134552   6.134   5.426  13.631 -0.7553 -0.3190  2.6311
 4379TIP3    H234553   6.148   5.576  13.651  1.2554 -0.2365  1.0201
 4380TIP3   OH234554   3.948   6.618  16.299  0.0208 -0.1313 -0.6449
 4380TIP3    H134555   4.029   6.587  16.260 -0.2070  0.7417 -1.8637
 4380TIP3    H234556   3.931   6.557  16.371  1.3994 -0.7057 -0.7846
 4381TIP3   OH234557   1.113   3.420  15.027 -0.2370  0.1668 -0.0340
 4381TIP3    H134558   1.164   3.478  15.084 -0.2970  0.6119 -0.4243
 4381TIP3    H234559   1.113   3.464  14.942 -1.4934  0.3088  0.0211
 4382TIP3   OH234560   2.278   6.623   3.927 -0.4738  0.2623  0.1723
 4382TIP3    H134561   2.252   6.648   3.838 -0.0131 -1.1083 -0.3719
 4382TIP3    H234562   2.240   6.536   3.939 -0.2465  0.2985  1.1993
 4383TIP3   OH234563   5.285   4.203  15.428  1.0280  0.1516  0.1347
 4383TIP3    H134564   5.314   4.290  15.402 -0.8052  1.1887  1.3221
 4383TIP3    H234565   5.316   4.193  15.518 -0.0974  0.2505  0.5466
 4384TIP3   OH234566   1.640   2.387  16.801  0.2048 -0.8436  0.2444
 4384TIP3    H134567   1.565   2.402  16.743  0.3065 -1.9157 -0.1806
 4384TIP3    H234568   1.716   2.387  16.743  1.0242  3.3657  0.9770
 4385TIP3   OH234569   4.126   1.460  15.422 -0.1274  0.5048 -0.3310
 4385TIP3    H134570   4.078   1.473  15.503 -0.4726 -0.5553 -0.3494
 4385TIP3    H234571   4.097   1.531  15.365 -0.5734  0.7213  0.1622
 4386TIP3   OH234572   0.585   0.716  10.434 -0.3133  0.4989 -0.1985
 4386TIP3    H134573   0.674   0.739  10.408  0.3265 -0.6407  0.9061
 4386TIP3    H234574   0.542   0.689  10.353  1.4279 -2.3662 -0.2842
 4387TIP3   OH234575   6.235   3.458  15.604  0.0128  0.0996  0.1453
 4387TIP3    H134576   6.170   3.459  15.674 -1.2061 -3.0531 -0.7673
 4387TIP3    H234577   6.204   3.524  15.541  0.9574  2.7427  2.2742
 4388TIP3   OH234578   0.324   2.287  11.376 -0.2574 -0.3771  0.2521
 4388TIP3    H134579   0.405   2.248  11.343  0.4864  0.8501  0.5876
 4388TIP3    H234580   0.327   2.378  11.346 -2.1655 -0.6296 -0.8774
 4389TIP3   OH234581   6.278   1.731  11.041 -0.5490 -0.6312 -0.4646
 4389TIP3    H134582   6.342   1.663  11.060 -0.4965 -0.0040  1.8571
 4389TIP3    H234583   6.217   1.690  10.979  2.1538 -1.1493 -2.9844
 4390TIP3   OH234584   0.350   5.456   2.164  0.2315  0.2976 -0.1710
 4390TIP3    H134585   0.343   5.365   2.195  0.8876  0.3200  0.0494
 4390TIP3    H234586   0.444   5.474   2.163  0.2945  0.1105 -2.7371
 4391TIP3   OH234587   2.969   0.810   4.839 -0.3046 -0.1454 -0.0408
 4391TIP3    H134588   3.031   0.862   4.787 -0.6513 -0.2159 -0.5306
 4391TIP3    H234589   3.023   0.742   4.880 -0.1268 -0.5476 -0.9088
 4392TIP3   OH234590   1.117   2.863   4.124  0.0322  0.4864 -0.2610
 4392TIP3    H134591   1.192   2.876   4.183 -0.6764 -1.5459  1.2261
 4392TIP3    H234592   1.041   2.886   4.177 -0.4889  1.0749 -1.2534
 4393TIP3   OH234593   0.301   4.323   2.272  0.5284  0.0046 -0.1706
 4393TIP3    H134594   0.363   4.392   2.248 -0.2148  0.3590 -1.1691
 4393TIP3    H234595   0.326   4.249   2.218  1.6445 -0.7092  1.2704
 4394TIP3   OH234596   1.225   2.058  12.146 -0.1357  0.1405  0.2756
 4394TIP3    H134597   1.218   2.032  12.054 -0.7035 -0.1450  0.3968
 4394TIP3    H234598   1.171   1.994  12.193  0.6327 -0.0802  0.8753
 4395TIP3   OH234599   6.020   4.265   1.471 -0.3059 -0.0374  0.3701
 4395TIP3    H134600   6.098   4.269   1.527 -0.6063 -0.5826  0.8399
 4395TIP3    H234601   5.995   4.357   1.458  0.1080  0.1172  0.6495
 4396TIP3   OH234602   4.062   4.267  15.685 -0.0806 -0.7765  0.6344
 4396TIP3    H134603   4.078   4.177  15.656 -0.5886 -0.9110  0.7586
 4396TIP3    H234604   3.995   4.258  15.753 -0.2453 -0.2881  0.5367
 4397TIP3   OH234605   1.737   4.415   1.042  0.0411 -0.3464 -0.0169
 4397TIP3    H134606   1.812   4.453   0.997 -0.4870  1.1126  0.2880
 4397TIP3    H234607   1.773   4.378   1.123  0.5952 -0.6634 -0.4045
 4398TIP3   OH234608   2.258   3.510  16.059 -0.4350 -0.6966  0.1133
 4398TIP3    H134609   2.165   3.501  16.080 -0.8537 -1.3708 -1.8396
 4398TIP3    H234610   2.289   3.580  16.117 -2.2828 -0.0687  0.4116
 4399TIP3   OH234611   1.587   5.514  11.637 -0.0302  0.3958  0.3834
 4399TIP3    H134612   1.668   5.479  11.601  1.1688  1.4124  1.9537
 4399TIP3    H234613   1.615   5.579  11.701 -2.0985  0.8206  0.9471
 4400TIP3   OH234614   1.496   2.102  12.120 -0.1444 -0.1531 -0.1236
 4400TIP3    H134615   1.401   2.114  12.116  0.0757  1.5993 -1.7520
 4400TIP3    H234616   1.519   2.070  12.033  0.7534 -0.6470  0.2891
 4401TIP3   OH234617   4.002   3.949   4.209  0.4339 -0.6059 -0.4343
 4401TIP3    H134618   4.075   3.889   4.190  0.1738 -1.2257  0.4622
 4401TIP3    H234619   3.986   3.938   4.302 -0.3249  0.0853 -0.4752
 4402TIP3   OH234620   0.034   1.664   4.933 -0.0228 -0.5043  0.1176
 4402TIP3    H134621   0.066   1.579   4.964 -0.2972 -0.0866  1.6406
 4402TIP3    H234622   0.021   1.715   5.013 -0.5930  0.7159 -0.7258
 4403TIP3   OH234623   5.629   6.559  16.338 -0.1494 -0.2130 -0.2112
 4403TIP3    H134624   5.535   6.559  16.323  0.1011 -1.6684 -2.1768
 4403TIP3    H234625   5.638   6.569  16.433 -2.3009 -0.7430  0.1028
 4404TIP3   OH234626   1.955   1.838   3.862 -0.4846  0.0337  0.3807
 4404TIP3    H134627   1.880   1.787   3.831 -0.0759  0.2984 -1.1379
 4404TIP3    H234628   2.029   1.804   3.811 -0.4824  3.3482 -2.1612
 4405TIP3   OH234629   1.629   6.738  14.775  0.1562  0.4079 -0.2614
 4405TIP3    H134630   1.573   6.747  14.699 -0.3987  0.6251  0.1653
 4405TIP3    H234631   1.688   6.813  14.771 -1.5360  1.8793  0.8784
 4406TIP3   OH234632   5.902   3.516  13.599 -0.0743 -0.1793 -0.1153
 4406TIP3    H134633   5.890   3.596  13.548  0.6392  1.5579  2.2655
 4406TIP3    H234634   5.978   3.474  13.560 -1.1311 -0.3522 -2.1106
 4407TIP3   OH234635   4.734   0.952  17.262 -0.6008  0.1430 -0.2752
 4407TIP3    H134636   4.826   0.929  17.244  0.3528  2.2478  1.4415
 4407TIP3    H234637   4.728   1.045  17.241 -1.6532  0.6388  1.9754
 4408TIP3   OH234638   5.162   5.685  12.962 -0.1600  0.1159  0.5324
 4408TIP3    H134639   5.129   5.682  12.872  0.3627  0.6492  0.3087
 4408TIP3    H234640   5.246   5.638  12.958 -0.2845 -0.1316  0.8107
 4409TIP3   OH234641   4.743   4.659   2.610 -0.5379  0.5390 -0.2373
 4409TIP3    H134642   4.791   4.655   2.693  1.9052  0.3290 -1.5905
 4409TIP3    H234643   4.704   4.572   2.601  0.6964 -0.0529 -0.1234
 4410TIP3   OH234644   3.696   4.902   1.365 -0.2200 -0.2509  0.4187
 4410TIP3    H134645   3.651   4.952   1.433  0.1697  0.2475  0.3216
 4410TIP3    H234646   3.751   4.840   1.412 -1.0933 -0.9619  0.5382
 4411TIP3   OH234647   1.738   3.213  14.269 -0.4351  0.1297  0.5005
 4411TIP3    H134648   1.653   3.184  14.302 -0.3888 -1.7911 -0.8548
 4411TIP3    H234649   1.791   3.226  14.347 -1.2979 -0.9724  1.2989
 4412TIP3   OH234650   3.183   0.298   4.305  0.4395 -0.0280 -0.0767
 4412TIP3    H134651   3.180   0.375   4.248 -3.0565  0.2759  0.2965
 4412TIP3    H234652   3.110   0.244   4.275  1.2402 -2.0035  1.3344
 4413TIP3   OH234653   5.435   3.010  13.083 -0.3586  0.0325  0.0577
 4413TIP3    H134654   5.386   2.965  13.014  2.0724  0.1187 -1.8519
 4413TIP3    H234655   5.501   2.946  13.110 -0.7331  0.3180  1.7477
 4414TIP3   OH234656   1.968   4.340   1.871 -0.7251  0.3264 -0.1599
 4414TIP3    H134657   2.057   4.352   1.837 -0.0334  0.5265  1.6133
 4414TIP3    H234658   1.919   4.415   1.836  0.4377  1.5878  0.8123
 4415TIP3   OH234659   3.346   0.143   2.984  0.1406 -0.0362  1.1155
 4415TIP3    H134660   3.382   0.095   3.058  1.7299 -0.3881  0.1639
 4415TIP3    H234661   3.422   0.167   2.932 -0.9297  0.2797 -0.3706
 4416TIP3   OH234662   4.287   4.128   4.249 -0.4592  0.4205  0.2814
 4416TIP3    H134663   4.329   4.084   4.322  1.1058 -1.1330 -1.4453
 4416TIP3    H234664   4.336   4.210   4.238 -0.2746  0.3482  0.5666
 4417TIP3   OH234665   3.176   3.929  16.875  0.0082 -0.4263 -0.0145
 4417TIP3    H134666   3.238   3.952  16.806  0.7514  0.0796  0.8024
 4417TIP3    H234667   3.203   3.981  16.950 -1.5102 -0.0780  0.3225
 4418TIP3   OH234668   1.418   1.810  13.029 -0.0035  0.2565 -0.6069
 4418TIP3    H134669   1.428   1.852  13.114  1.5408  2.3907 -1.7607
 4418TIP3    H234670   1.480   1.737  13.031  0.5683  0.7476 -0.1749
 4419TIP3   OH234671   3.345   5.967   0.566  0.4397  0.1864 -0.4005
 4419TIP3    H134672   3.289   5.979   0.490 -1.0092  0.8565  0.7183
 4419TIP3    H234673   3.367   6.055   0.595  1.0894 -0.0624 -0.1079
 4420TIP3   OH234674   4.457   0.770   0.309  0.1009  0.2413  0.0986
 4420TIP3    H134675   4.390   0.703   0.295  0.3501  0.1085 -0.4508
 4420TIP3    H234676   4.409   0.853   0.306 -0.0964  0.1269  0.0864
 4421TIP3   OH234677   3.663   0.832   1.347  0.3457 -0.5259 -0.1060
 4421TIP3    H134678   3.714   0.796   1.275  0.3583  0.2069 -0.4618
 4421TIP3    H234679   3.607   0.759   1.375  2.3268 -1.6958  1.0202
 4422TIP3   OH234680   4.524   2.201  16.158  0.2664 -0.1295  0.6434
 4422TIP3    H134681   4.439   2.245  16.151  0.8808  0.9916 -0.1351
 4422TIP3    H234682   4.506   2.111  16.131 -0.7025  0.0430  0.6586
 4423TIP3   OH234683   6.194   0.845   0.977  0.4759 -0.2331  0.3398
 4423TIP3    H134684   6.242   0.910   1.027 -1.0540  1.7486 -0.6114
 4423TIP3    H234685   6.107   0.843   1.017 -0.0403 -0.3641 -0.7465
 4424TIP3   OH234686   3.576   0.081   1.317 -0.2237  0.2536  0.4324
 4424TIP3    H134687   3.503   0.033   1.278  1.0376 -0.6813 -0.8995
 4424TIP3    H234688   3.575   0.166   1.273 -0.2662  0.0847  0.0994
 4425TIP3   OH234689   2.920   0.783  15.214 -0.3701 -0.4146 -0.0816
 4425TIP3    H134690   2.875   0.705  15.247 -1.4038  0.5248  0.8204
 4425TIP3    H234691   2.887   0.854  15.268  2.7875  0.2687  1.1292
 4426TIP3   OH234692   0.185   2.786  15.642 -0.5427  0.6598  0.0362
 4426TIP3    H134693   0.204   2.755  15.730  0.5904  0.9102 -0.1055
 4426TIP3    H234694   0.131   2.717  15.603 -1.4057  0.7519  1.0601
 4427TIP3   OH234695   6.659   2.358   0.303  0.9352  0.0818  0.2358
 4427TIP3    H134696   6.593   2.423   0.325  1.5582  0.9556 -0.4209
 4427TIP3    H234697   6.653   2.350   0.207  2.4187  0.8944  0.0555
 4428TIP3   OH234698   5.343   1.841   4.700  0.8505 -0.2486  0.1134
 4428TIP3    H134699   5.320   1.893   4.622  1.0643 -2.0006 -1.1828
 4428TIP3    H234700   5.265   1.786   4.716  1.5465 -1.3303 -0.1192
 4429TIP3   OH234701   0.468   0.734  11.524 -0.9234  0.0990 -0.1013
 4429TIP3    H134702   0.417   0.711  11.447  0.4801  1.2177 -1.4413
 4429TIP3    H234703   0.425   0.811  11.560 -1.6146 -0.4598  0.2945
 4430TIP3   OH234704   5.552   3.659  15.072  0.1663  0.0726 -0.0013
 4430TIP3    H134705   5.475   3.703  15.037  0.1652  0.7607  0.8293
 4430TIP3    H234706   5.602   3.729  15.116  0.7353 -0.5490  0.3616
 4431TIP3   OH234707   6.155   5.171   1.213  0.4260 -0.5990 -0.7195
 4431TIP3    H134708   6.130   5.263   1.227  1.9940 -0.4827  2.0840
 4431TIP3    H234709   6.242   5.175   1.174  1.4911 -0.7613  1.4715
 4432TIP3   OH234710   0.451   0.733   3.225  0.1736  0.6014 -0.0685
 4432TIP3    H134711   0.405   0.783   3.158  0.2130  1.2429  0.3755
 4432TIP3    H234712   0.472   0.649   3.183  0.3075  1.0438 -0.8931
 4433TIP3   OH234713   6.242   1.581   5.574  0.1502  0.3745  0.6001
 4433TIP3    H134714   6.305   1.532   5.626  1.4579  1.4382  0.0662
 4433TIP3    H234715   6.295   1.631   5.512 -1.0775  2.5637  1.2004
 4434TIP3   OH234716   2.424   1.267  14.764  0.7711  0.1413 -0.0038
 4434TIP3    H134717   2.359   1.259  14.695  1.9286  0.2462 -1.1370
 4434TIP3    H234718   2.374   1.260  14.845 -0.2530 -3.6153 -0.7734
 4435TIP3   OH234719   1.040   3.553   2.206  0.0048  0.3846 -0.1214
 4435TIP3    H134720   1.088   3.547   2.288 -0.4402  0.9312  0.1918
 4435TIP3    H234721   0.971   3.486   2.213 -0.0414  0.4403 -0.0411
 4436TIP3   OH234722   1.939   5.131   4.634 -0.1036 -0.5660 -0.4303
 4436TIP3    H134723   1.863   5.116   4.578 -1.8435  1.6888  1.1566
 4436TIP3    H234724   1.969   5.220   4.612 -2.0427  1.2478  3.2753
 4437TIP3   OH234725   3.809   1.098   1.338 -0.4872  0.5157  0.0830
 4437TIP3    H134726   3.857   1.017   1.321  0.4033  1.0619 -0.0690
 4437TIP3    H234727   3.743   1.102   1.269 -0.2941  0.1091 -0.1268
 4438TIP3   OH234728   3.603   5.048   0.879 -0.1461 -0.2211  0.1141
 4438TIP3    H134729   3.676   5.081   0.932  0.4115  0.4762 -1.0446
 4438TIP3    H234730   3.537   5.117   0.882 -0.1503 -0.2186 -0.0170
 4439TIP3   OH234731   0.779   2.403   5.157 -0.1276 -0.0442  0.4431
 4439TIP3    H134732   0.734   2.488   5.160  0.9614  0.5698 -0.3730
 4439TIP3    H234733   0.797   2.388   5.065 -0.7983 -1.4571  0.5093
 4440TIP3   OH234734   4.230   3.023  14.995  0.7249 -0.1141  0.4301
 4440TIP3    H134735   4.194   3.064  14.916  1.4993 -0.5369 -0.1590
 4440TIP3    H234736   4.156   3.020  15.056 -0.4174 -1.4284 -0.9189
 4441TIP3   OH234737   3.850   3.216  16.821 -0.8491  0.2976  0.5722
 4441TIP3    H134738   3.923   3.187  16.767 -0.4913  1.5290  0.3692
 4441TIP3    H234739   3.802   3.136  16.841 -0.6415 -0.2660 -1.0530
 4442TIP3   OH234740   1.382   0.681   1.910  0.7881  0.1925  0.9125
 4442TIP3    H134741   1.408   0.589   1.900  1.4017  0.4372  0.1644
 4442TIP3    H234742   1.311   0.693   1.847  0.5950  0.1936  1.1278
 4443TIP3   OH234743   2.266   2.474   5.096  0.4253 -0.2412  0.0686
 4443TIP3    H134744   2.288   2.397   5.045 -0.7266 -0.5952  0.0670
 4443TIP3    H234745   2.300   2.455   5.184 -1.4237 -1.6109  0.5674
 4444TIP3   OH234746   3.882   3.795  12.158 -0.0203 -0.3313  0.3815
 4444TIP3    H134747   3.809   3.836  12.111 -0.5470 -2.0945 -0.4263
 4444TIP3    H234748   3.840   3.726  12.210  0.7887  0.3512  2.0045
 4445TIP3   OH234749   3.366   0.974  10.486 -0.3692  0.2658  0.4658
 4445TIP3    H134750   3.296   0.983  10.550 -1.0229 -1.1671 -0.0148
 4445TIP3    H234751   3.337   0.905  10.427  0.6983  0.8015 -0.7527
 4446TIP3   OH234752   1.221   0.628  15.562 -0.1568  0.1655  0.0769
 4446TIP3    H134753   1.310   0.639  15.529  0.7076  1.9316  2.7368
 4446TIP3    H234754   1.229   0.560  15.630 -0.3250  1.8030  1.8144
 4447TIP3   OH234755   0.591   3.273  14.012 -0.5494 -0.3346 -0.0644
 4447TIP3    H134756   0.514   3.317  14.047 -0.3477 -0.1688  0.1707
 4447TIP3    H234757   0.659   3.288  14.077 -0.1569  0.0229 -0.5579
 4448TIP3   OH234758   2.583   5.126  17.235 -0.3758  0.0695 -0.2284
 4448TIP3    H134759   2.658   5.081  17.275  1.4218  1.1568 -2.2385
 4448TIP3    H234760   2.549   5.063  17.171  0.4151  0.4997 -1.0879
 4449TIP3   OH234761   6.382   4.295  16.258 -0.1313  0.2777 -0.3821
 4449TIP3    H134762   6.309   4.358  16.261 -1.3287 -1.0612 -0.3370
 4449TIP3    H234763   6.446   4.330  16.320 -0.4692  1.7742 -0.8280
 4450TIP3   OH234764   6.161   5.264   0.284 -0.2562  0.2561 -0.3485
 4450TIP3    H134765   6.184   5.299   0.198 -0.3659 -0.3721 -0.6395
 4450TIP3    H234766   6.239   5.279   0.338 -0.7199  2.0280 -0.1167
 4451TIP3   OH234767   1.367   1.671  14.293  0.5576 -0.4993 -1.0528
 4451TIP3    H134768   1.361   1.716  14.209 -0.5035 -0.5912 -1.0388
 4451TIP3    H234769   1.301   1.713  14.348 -0.9230 -2.4410 -1.2378
 4452TIP3   OH234770   0.564   2.124   1.041 -0.0553 -0.8533  0.7082
 4452TIP3    H134771   0.585   2.153   1.130  0.9766 -0.4941  0.3583
 4452TIP3    H234772   0.495   2.184   1.012  1.7503  1.0744  0.1536
 4453TIP3   OH234773   0.014   4.242   1.433  0.2537  0.3191  0.0012
 4453TIP3    H134774  -0.014   4.296   1.359  2.0270 -0.9103 -1.6519
 4453TIP3    H234775  -0.016   4.291   1.510 -0.7611  2.1678 -1.4653
 4454TIP3   OH234776   2.151   4.105  15.368 -0.8331  0.5632 -0.0218
 4454TIP3    H134777   2.217   4.042  15.338  0.4795  2.0138 -0.3235
 4454TIP3    H234778   2.168   4.114  15.461 -1.2634  0.2280  0.0958
 4455TIP3   OH234779   1.562   1.016  16.208 -0.4713  0.2201  0.1463
 4455TIP3    H134780   1.588   0.937  16.257 -2.2926 -0.3627  0.2601
 4455TIP3    H234781   1.509   0.982  16.136  1.3598  1.1424 -1.7667
 4456TIP3   OH234782   0.057   4.867  16.975 -0.2786 -0.1138 -0.1565
 4456TIP3    H134783   0.008   4.945  16.999  0.3735  0.2800 -0.0751
 4456TIP3    H234784   0.059   4.868  16.880 -1.1080 -0.5674 -0.1874
 4457TIP3   OH234785   0.975   3.242   0.138  0.0655 -0.3689  0.6562
 4457TIP3    H134786   0.955   3.185   0.065  0.2810 -1.3008  1.3037
 4457TIP3    H234787   0.910   3.312   0.133  1.6131  1.0436 -1.9177
 4458TIP3   OH234788   6.521   2.967   5.840  0.0169 -0.0664  0.1669
 4458TIP3    H134789   6.522   2.871   5.833 -0.2831 -0.1596  1.2231
 4458TIP3    H234790   6.492   2.997   5.754 -2.6353 -1.0453  0.6143
 4459TIP3   OH234791   0.092   5.725   2.358  0.0952 -0.5975  0.2667
 4459TIP3    H134792   0.021   5.783   2.383 -0.6283 -1.6598  0.7758
 4459TIP3    H234793   0.165   5.751   2.415 -0.6738 -1.1283  1.5490
 4460TIP3   OH234794   4.282   4.980   5.222  0.0612  0.0653  0.1668
 4460TIP3    H134795   4.366   5.024   5.235  0.1122  0.4339 -1.2481
 4460TIP3    H234796   4.218   5.051   5.222 -0.0144  0.0014 -0.7495
 4461TIP3   OH234797   6.622   1.511  15.284  0.3652  0.5467  0.4899
 4461TIP3    H134798   6.581   1.556  15.209  0.7995  0.5152  0.2341
 4461TIP3    H234799   6.576   1.547  15.360  0.6767  1.4092  0.2877
 4462TIP3   OH234800   2.088   3.773   1.321  0.2943  0.5523  0.9342
 4462TIP3    H134801   2.120   3.724   1.246 -1.8604 -0.4403  0.5792
 4462TIP3    H234802   2.098   3.712   1.395 -0.5382  0.2916  0.8465
 4463TIP3   OH234803   3.417   2.986   0.723 -0.1404 -0.0073 -0.2381
 4463TIP3    H134804   3.361   3.052   0.681 -0.4552 -1.1180 -1.6631
 4463TIP3    H234805   3.378   2.973   0.809 -1.6028 -0.1462 -0.8851
 4464TIP3   OH234806   5.409   3.313   2.807  0.5369 -0.3644 -0.4160
 4464TIP3    H134807   5.412   3.316   2.903 -1.7300 -1.2326 -0.2587
 4464TIP3    H234808   5.441   3.399   2.779  1.7304 -0.2808  1.0756
 4465TIP3   OH234809   5.419   0.407  11.872  0.1079  0.9302  0.9615
 4465TIP3    H134810   5.339   0.353  11.871 -0.0075  1.1035  0.9385
 4465TIP3    H234811   5.429   0.432  11.964  0.9024 -0.2367  1.2219
 4466TIP3   OH234812   0.815   4.724   4.480  0.0311  0.0809 -0.2178
 4466TIP3    H134813   0.735   4.672   4.482  0.4497 -0.5553  0.8340
 4466TIP3    H234814   0.797   4.800   4.535 -0.1795  0.4593 -0.7979
 4467TIP3   OH234815   0.402   3.346  11.566  0.2848 -0.2803  0.2453
 4467TIP3    H134816   0.476   3.303  11.523  0.3662 -1.0917  1.1729
 4467TIP3    H234817   0.375   3.414  11.504  2.5149  0.8068  0.3455
 4468TIP3   OH234818   0.078   2.845  13.444  0.1969 -0.4503  0.0329
 4468TIP3    H134819  -0.011   2.830  13.412 -1.1579  3.5383  1.4658
 4468TIP3    H234820   0.129   2.861  13.364 -0.4853 -1.8612 -0.7355
 4469TIP3   OH234821   4.865   5.112  16.951 -0.0831  0.6355 -0.1372
 4469TIP3    H134822   4.792   5.051  16.965  2.0768 -1.9118  0.7632
 4469TIP3    H234823   4.932   5.059  16.908  1.6731  2.5958  0.0702
 4470TIP3   OH234824   2.892   1.342  13.096 -0.6450  0.6199  0.1934
 4470TIP3    H134825   2.837   1.362  13.020 -2.6904 -1.8266  0.8942
 4470TIP3    H234826   2.903   1.425  13.141 -1.8560  1.5809 -1.1924
 4471TIP3   OH234827   5.375   4.136  12.845 -0.4923 -0.2408 -0.1337
 4471TIP3    H134828   5.342   4.225  12.842  1.3699  0.4726 -1.1226
 4471TIP3    H234829   5.381   4.116  12.939  1.7174  1.7754  0.2363
 4472TIP3   OH234830   5.675   3.012  15.701  0.1918  0.1278 -0.2925
 4472TIP3    H134831   5.605   2.996  15.764  2.0625  1.6349  2.3988
 4472TIP3    H234832   5.755   2.995  15.750  1.7686  1.6769 -2.1891
 4473TIP3   OH234833   0.690   3.716   3.892  0.4780 -0.2257 -0.0538
 4473TIP3    H134834   0.681   3.799   3.846  1.2925  0.5459  1.1066
 4473TIP3    H234835   0.605   3.703   3.934 -0.0141 -0.5493 -1.1305
 4474TIP3   OH234836   0.065   5.811  14.603  0.2521  0.7638 -0.4473
 4474TIP3    H134837   0.067   5.744  14.535  1.3716 -0.0250  0.3281
 4474TIP3    H234838  -0.008   5.786  14.660  1.8371 -0.9566  0.9280
 4475TIP3   OH234839   0.313   3.773   2.270  1.0060 -0.1006 -0.3296
 4475TIP3    H134840   0.270   3.697   2.231  0.5470  0.0481 -0.1148
 4475TIP3    H234841   0.260   3.794   2.347  1.3264  0.2324 -0.1964
 4476TIP3   OH234842   1.254   0.155  13.481 -0.0298 -0.0990  0.8026
 4476TIP3    H134843   1.306   0.222  13.526 -0.4138 -0.3011  1.5535
 4476TIP3    H234844   1.168   0.195  13.468  0.2898  0.2342 -0.4391
 4477TIP3   OH234845   6.211   0.048  16.759 -0.2905 -0.6460  0.5280
 4477TIP3    H134846   6.169  -0.031  16.793 -0.7967 -0.2442  0.8547
 4477TIP3    H234847   6.209   0.110  16.832  1.3460 -0.7730  0.7280
 4478TIP3   OH234848   4.681   4.058   1.262  0.0452  0.2010  0.3270
 4478TIP3    H134849   4.668   3.981   1.316  0.2983 -0.0216  0.0706
 4478TIP3    H234850   4.596   4.103   1.263  0.2522  0.6007  1.5244
 4479TIP3   OH234851   3.581   0.586  13.741  0.2408 -0.7280  0.1514
 4479TIP3    H134852   3.545   0.596  13.829  0.8361  0.5600  0.2679
 4479TIP3    H234853   3.539   0.656  13.691  0.6412 -0.8428 -0.3463
 4480TIP3   OH234854   2.293   5.305   0.407  0.2298  0.0902 -0.1165
 4480TIP3    H134855   2.297   5.349   0.322 -0.5368 -2.4010 -1.5335
 4480TIP3    H234856   2.380   5.266   0.418  0.6086  1.1007  0.7030
 4481TIP3   OH234857   6.482   4.515   3.338  0.3496  0.0760 -0.3916
 4481TIP3    H134858   6.569   4.503   3.299  0.1956 -0.4475 -0.5907
 4481TIP3    H234859   6.481   4.455   3.412  1.1153  2.0034  1.2789
 4482TIP3   OH234860   6.073   2.540  13.114 -0.3769 -0.3716 -0.2725
 4482TIP3    H134861   6.012   2.468  13.099 -0.4104 -0.6764  1.1847
 4482TIP3    H234862   6.152   2.498  13.148  0.6317  0.0309 -1.9854
 4483TIP3   OH234863   5.319   2.051  13.297 -0.7491  0.1511 -0.2384
 4483TIP3    H134864   5.338   2.124  13.238  0.1092 -1.4405 -2.0286
 4483TIP3    H234865   5.248   2.004  13.253  0.1434 -1.2638 -0.2024
 4484TIP3   OH234866   4.848   5.311   4.486 -0.2178  0.0274  0.5421
 4484TIP3    H134867   4.759   5.298   4.520 -0.1338 -0.5516  0.5470
 4484TIP3    H234868   4.835   5.350   4.399 -0.4716  0.1147  0.6176
 4485TIP3   OH234869   1.225   2.287  16.969  0.3909 -0.3627 -0.2135
 4485TIP3    H134870   1.137   2.251  16.958  0.4986 -0.1223 -2.2899
 4485TIP3    H234871   1.218   2.378  16.941  0.5113  0.9008  3.3065
 4486TIP3   OH234872   1.000   5.296  12.437  0.5070  0.4161 -0.1204
 4486TIP3    H134873   1.063   5.245  12.387  0.3578  1.1347 -1.0546
 4486TIP3    H234874   0.946   5.340  12.371 -1.1888 -0.4331  0.6497
 4487TIP3   OH234875   0.469   5.415  15.939  0.2394 -0.4103 -0.2064
 4487TIP3    H134876   0.439   5.416  16.030 -0.6734 -0.2369 -0.4934
 4487TIP3    H234877   0.405   5.359  15.894  0.3929 -0.0867 -0.8323
 4488TIP3   OH234878   1.833   1.626  15.624  0.4608 -0.5828 -0.3633
 4488TIP3    H134879   1.745   1.601  15.593 -1.9736  4.0330  1.8273
 4488TIP3    H234880   1.829   1.612  15.718  2.7569 -1.6438 -0.3672
 4489TIP3   OH234881   4.588   4.873   4.634  0.2601  0.4669  0.1369
 4489TIP3    H134882   4.636   4.799   4.670 -0.6683  0.4829  1.4643
 4489TIP3    H234883   4.538   4.835   4.561 -0.3840 -0.2785  0.9445
 4490TIP3   OH234884   1.106   0.691  15.958  0.6018  0.3177  0.5491
 4490TIP3    H134885   1.110   0.787  15.953 -2.2086  0.6075  1.6727
 4490TIP3    H234886   1.156   0.669  16.036  1.0101  0.8954  0.4599
 4491TIP3   OH234887   4.728   2.042  13.849 -0.0207  0.0416  0.4452
 4491TIP3    H134888   4.659   2.063  13.786 -0.6183 -0.6839  0.8331
 4491TIP3    H234889   4.736   1.947  13.845  0.0496  0.0020  1.3251
 4492TIP3   OH234890   3.084   2.363  15.322  0.3323  0.4284 -0.3326
 4492TIP3    H134891   3.140   2.404  15.387 -0.7024 -0.7805  1.4083
 4492TIP3    H234892   3.022   2.310  15.373  0.1198 -1.3992 -2.3151
 4493TIP3   OH234893   5.132   1.576  17.187 -0.5327  0.5758  0.4472
 4493TIP3    H134894   5.139   1.579  17.091  3.5257  2.9542  0.5863
 4493TIP3    H234895   5.195   1.509  17.213  1.2772  2.5857  1.4641
 4494TIP3   OH234896   5.169   1.972  15.782 -0.0424  0.3839 -0.2541
 4494TIP3    H134897   5.173   1.981  15.877 -1.2374  2.7586 -0.3580
 4494TIP3    H234898   5.242   2.025  15.750  3.4623 -4.0827 -0.7270
 4495TIP3   OH234899   2.832   4.621   1.629 -0.7931  0.0362 -0.3810
 4495TIP3    H134900   2.852   4.555   1.564  2.1899 -0.6424  1.0602
 4495TIP3    H234901   2.749   4.593   1.668 -0.0562 -2.4195 -0.4122
 4496TIP3   OH234902   2.837   4.131   5.946 -0.6271 -0.0812 -0.4012
 4496TIP3    H134903   2.888   4.049   5.953  1.7448  1.2004 -1.4500
 4496TIP3    H234904   2.748   4.102   5.928 -0.3274 -2.4745  1.3770
 4497TIP3   OH234905   5.896   0.801   2.138 -0.7524 -0.2765  0.1279
 4497TIP3    H134906   5.974   0.747   2.122 -0.9467 -0.3190 -0.7596
 4497TIP3    H234907   5.839   0.746   2.191 -0.7192 -0.7562 -0.3159
 4498TIP3   OH234908   4.137   5.836  15.570  0.1355  0.1233  0.1281
 4498TIP3    H134909   4.204   5.881  15.621 -0.5906 -1.0705  2.2727
 4498TIP3    H234910   4.054   5.871  15.601 -0.4105 -1.9962  1.2638
 4499TIP3   OH234911   1.815   1.927   4.713 -0.0472  0.4343 -0.5109
 4499TIP3    H134912   1.797   1.838   4.684  0.3690  0.0274  0.4641
 4499TIP3    H234913   1.897   1.950   4.669  1.8555 -1.0394  2.0323
 4500TIP3   OH234914   4.515   6.378  13.389 -0.2508 -0.1591  0.1311
 4500TIP3    H134915   4.529   6.446  13.322 -1.5559 -2.0838 -2.2289
 4500TIP3    H234916   4.427   6.395  13.422 -1.5233 -1.8817 -2.0933
 4501TIP3   OH234917   0.706   1.481   4.853 -0.5323  0.5013 -0.3286
 4501TIP3    H134918   0.763   1.557   4.864 -1.1954  0.9260  0.2706
 4501TIP3    H234919   0.756   1.408   4.890 -0.9560  1.1367  1.6045
 4502TIP3   OH234920   2.715   5.879   2.643 -0.1629  0.6728 -0.3644
 4502TIP3    H134921   2.620   5.885   2.633 -0.6464 -3.2871  0.1923
 4502TIP3    H234922   2.729   5.887   2.737  0.0499  0.9187 -0.4157
 4503TIP3   OH234923   5.292   5.128  12.652  0.5280  0.1416 -0.4660
 4503TIP3    H134924   5.315   5.216  12.680  0.3517  0.1388 -0.3111
 4503TIP3    H234925   5.198   5.131  12.635  0.7640  0.3431 -1.8129
 4504TIP3   OH234926   5.522   5.590   0.961  0.5847 -0.9415  0.1033
 4504TIP3    H134927   5.489   5.517   0.907 -1.3401 -0.2165  0.2250
 4504TIP3    H234928   5.443   5.635   0.991  1.7138  0.6510  0.8095
 4505TIP3   OH234929   5.946   0.536   0.223 -0.0004  0.0657 -0.2091
 4505TIP3    H134930   5.976   0.459   0.272 -0.3405  0.7715  1.1720
 4505TIP3    H234931   6.017   0.600   0.233 -0.1825  0.3014 -0.4058
 4506TIP3   OH234932   5.816   3.090   4.955 -0.2870  0.4795 -0.1593
 4506TIP3    H134933   5.802   3.158   4.889 -1.3172  0.5079  0.0640
 4506TIP3    H234934   5.789   3.009   4.912 -2.1248  0.6569  0.5809
 4507TIP3   OH234935   2.991   4.101   1.116 -0.8655  0.2376  0.3647
 4507TIP3    H134936   2.960   4.192   1.119  1.3520  1.0148  1.3405
 4507TIP3    H234937   3.021   4.083   1.205  3.4207  0.3624 -0.8312
 4508TIP3   OH234938   4.708   2.664   4.584 -0.0784 -0.0405 -0.4360
 4508TIP3    H134939   4.757   2.742   4.558  0.1255 -0.3297 -0.9248
 4508TIP3    H234940   4.721   2.658   4.679  1.8406 -0.7782 -0.7039
 4509TIP3   OH234941   2.053   4.969  16.045 -0.1370 -0.2343 -0.4384
 4509TIP3    H134942   1.978   4.963  15.985 -0.0188  0.9376 -0.7250
 4509TIP3    H234943   2.013   4.994  16.129 -0.4495 -3.0991  0.3460
 4510TIP3   OH234944   3.278   1.265  12.666  0.2225  0.1177 -0.6411
 4510TIP3    H134945   3.261   1.248  12.759 -2.2196  4.3287 -0.0746
 4510TIP3    H234946   3.373   1.276  12.661  0.3816  0.1331  1.4307
 4511TIP3   OH234947   3.207   6.774  14.773 -0.0084  0.3403 -0.1469
 4511TIP3    H134948   3.196   6.780  14.678  1.1083  0.5535 -0.2780
 4511TIP3    H234949   3.294   6.811  14.790  0.0465 -0.2122  0.9017
 4512TIP3   OH234950   4.420   1.066   6.332  0.0164 -0.0064 -0.0623
 4512TIP3    H134951   4.472   1.145   6.347  1.3896 -0.8833 -0.0478
 4512TIP3    H234952   4.436   1.044   6.240  0.7453 -1.0160  0.2916
 4513TIP3   OH234953   2.588   6.623  11.477  0.2466 -0.3005 -0.0938
 4513TIP3    H134954   2.510   6.572  11.500  0.6967 -2.0688 -2.1890
 4513TIP3    H234955   2.598   6.685  11.549 -0.5179 -2.9744  2.5373
 4514TIP3   OH234956   3.158   5.617  14.060  0.5953  0.1571  0.1017
 4514TIP3    H134957   3.252   5.610  14.080  1.1935 -0.0346 -2.4153
 4514TIP3    H234958   3.155   5.625  13.964 -2.0122 -0.6072  0.0578
 4515TIP3   OH234959   1.332   5.265  11.669  0.2670  0.4277 -0.2663
 4515TIP3    H134960   1.337   5.327  11.595  1.7363  0.0330 -0.5102
 4515TIP3    H234961   1.249   5.220  11.655  0.4045  0.5179 -1.5659
 4516TIP3   OH234962   3.938   4.422   1.497 -0.4067 -0.4639 -0.8279
 4516TIP3    H134963   3.966   4.492   1.438  0.3448  0.2004  0.2764
 4516TIP3    H234964   4.019   4.387   1.534 -0.8679 -0.6802  0.0202
 4517TIP3   OH234965   5.965   5.399  14.550 -0.2945  0.8662  0.1689
 4517TIP3    H134966   5.936   5.399  14.642  0.7455 -1.9482  0.6178
 4517TIP3    H234967   5.904   5.458  14.505 -0.2235  3.1475  2.7897
 4518TIP3   OH234968   0.053   4.469   1.617 -0.5673  0.7397 -0.0019
 4518TIP3    H134969   0.142   4.449   1.587 -0.3701 -1.5938  1.8437
 4518TIP3    H234970   0.062   4.549   1.667  0.5025  0.5699  0.0940
 4519TIP3   OH234971   4.083   5.895  14.743 -0.0832 -0.0165  0.4222
 4519TIP3    H134972   4.129   5.823  14.786 -0.3890 -0.6898 -0.3534
 4519TIP3    H234973   4.109   5.888  14.651 -0.0509  0.9237  0.3488
 4520TIP3   OH234974   2.307   1.719  17.293  0.5976 -0.4016 -0.1992
 4520TIP3    H134975   2.282   1.727  17.201 -0.9083  1.0219  0.2918
 4520TIP3    H234976   2.246   1.653  17.329  0.6260 -0.3382 -0.0345
 4521TIP3   OH234977   0.604   0.332   0.547  0.2476  0.1252  0.0281
 4521TIP3    H134978   0.593   0.237   0.535 -0.2716  0.1767  0.0589
 4521TIP3    H234979   0.549   0.371   0.479  1.7035  0.4133 -1.0205
 4522TIP3   OH234980   6.520   6.552  15.672  0.4624 -0.6092 -0.1359
 4522TIP3    H134981   6.496   6.609  15.599 -0.9858  1.0723  1.5583
 4522TIP3    H234982   6.577   6.485  15.632  1.6819  1.5751 -2.3621
 4523TIP3   OH234983   1.332   6.138   0.068  0.0499 -0.2173  0.1539
 4523TIP3    H134984   1.345   6.111   0.158  0.2797 -2.3384 -0.4660
 4523TIP3    H234985   1.248   6.101   0.043  0.3755 -0.3756 -0.7463
 4524TIP3   OH234986   6.279   1.624   3.290 -1.1773 -0.1269  0.5269
 4524TIP3    H134987   6.260   1.706   3.336  1.4636  2.3274 -2.2693
 4524TIP3    H234988   6.304   1.563   3.358 -0.5001  2.2958  2.5968
 4525TIP3   OH234989   6.327   5.424   5.465  0.2278  0.1693 -0.2575
 4525TIP3    H134990   6.275   5.344   5.460  1.6052 -0.7583 -0.4375
 4525TIP3    H234991   6.321   5.462   5.378 -1.4960  0.9927  0.1866
 4526TIP3   OH234992   5.537   5.619   2.355  0.1002 -0.1708 -0.0504
 4526TIP3    H134993   5.510   5.664   2.274 -0.0327 -1.0117 -0.4901
 4526TIP3    H234994   5.539   5.526   2.330  2.1509 -0.2613  0.3238
 4527TIP3   OH234995   4.616   1.167  12.515  0.9833  0.0849 -0.0740
 4527TIP3    H134996   4.641   1.157  12.607 -0.0922 -0.9705  0.1263
 4527TIP3    H234997   4.670   1.102  12.468 -0.8393 -1.7982  0.2882
 4528TIP3   OH234998   0.232   3.580  17.087 -0.3190  0.0360 -0.6160
 4528TIP3    H134999   0.226   3.548  17.177  0.5775  1.7260  0.0795
 4528TIP3    H235000   0.143   3.607  17.065 -0.0445  2.4696  0.9131
 4529TIP3   OH235001   3.724   6.356  15.350 -0.1048  0.1618 -0.0815
 4529TIP3    H135002   3.805   6.343  15.301 -0.0546  0.3168 -0.0390
 4529TIP3    H235003   3.700   6.447  15.335  0.4547  0.4988  0.9901
 4530TIP3   OH235004   0.348   5.681  14.695  0.2644 -0.2467 -0.0407
 4530TIP3    H135005   0.369   5.631  14.616 -0.2397 -1.2042  0.4076
 4530TIP3    H235006   0.269   5.639  14.729 -0.2979  1.0048  0.2446
 4531TIP3   OH235007   1.287   1.369  13.492 -0.2514  0.3340  0.7806
 4531TIP3    H135008   1.364   1.312  13.485  1.4379  2.2273  2.4460
 4531TIP3    H235009   1.229   1.323  13.552  0.8216  0.0338  1.6322
 4532TIP3   OH235010   4.394   4.977  14.085 -0.3932 -0.1092  0.0214
 4532TIP3    H135011   4.481   5.008  14.109 -0.6925  0.5282  0.3285
 4532TIP3    H235012   4.335   5.047  14.114 -0.7040  1.5991 -3.9745
 4533TIP3   OH235013   2.601   5.162  11.017  0.1657  0.0573 -0.0648
 4533TIP3    H135014   2.534   5.149  10.949  1.5832 -0.2793 -1.4448
 4533TIP3    H235015   2.648   5.079  11.021  0.8089  0.4389  0.5438
 4534TIP3   OH235016   6.142   3.954  14.690  0.0188 -0.1040 -0.1883
 4534TIP3    H135017   6.051   3.982  14.677 -0.0490 -0.3970 -0.3601
 4534TIP3    H235018   6.187   4.033  14.718  0.1127  0.5144 -1.9209
 4535TIP3   OH235019   1.835   1.420  11.441  0.1769 -0.0872  0.3606
 4535TIP3    H135020   1.826   1.459  11.354  0.4858  1.6681  1.0698
 4535TIP3    H235021   1.749   1.434  11.482  0.3047 -0.1146  0.6408
 4536TIP3   OH235022   1.730   2.723   3.699 -0.4453 -0.9194 -0.1429
 4536TIP3    H135023   1.694   2.638   3.726  0.4807 -0.0771  4.7402
 4536TIP3    H235024   1.825   2.712   3.710 -0.2458  0.4915 -0.3446
 4537TIP3   OH235025   3.520   4.262   6.009  0.1672  0.1648 -0.9239
 4537TIP3    H135026   3.563   4.220   6.083  0.4031  0.5880 -0.8194
 4537TIP3    H235027   3.587   4.318   5.970 -0.5150  1.4993 -0.2395
 4538TIP3   OH235028   4.578   4.272   4.031  0.2271 -0.5682 -0.4056
 4538TIP3    H135029   4.603   4.286   4.122  3.1984  0.1134 -1.2151
 4538TIP3    H235030   4.611   4.350   3.985 -2.3609 -0.2642 -1.9116
 4539TIP3   OH235031   6.672   2.993   4.779 -0.5047  0.1213  0.4576
 4539TIP3    H135032   6.682   3.010   4.686 -0.2125 -1.1362  0.2437
 4539TIP3    H235033   6.725   3.060   4.822 -2.1870  1.9660 -0.1752
 4540TIP3   OH235034   5.533   5.076   4.355 -0.2446  0.1497 -0.3297
 4540TIP3    H135035   5.617   5.033   4.372 -0.1138  0.7197  0.5248
 4540TIP3    H235036   5.508   5.046   4.268  1.3885  0.8111 -1.0743
 4541TIP3   OH235037   2.829   1.939   4.769 -0.2183 -0.1137 -0.3960
 4541TIP3    H135038   2.904   1.879   4.772 -0.5022 -0.7142 -2.8943
 4541TIP3    H235039   2.785   1.927   4.853  1.2662 -1.3948  0.2490
 4542TIP3   OH235040   6.207   1.213  13.217  0.2218 -0.1774  0.2989
 4542TIP3    H135041   6.265   1.238  13.145 -1.4866 -1.5855 -1.7158
 4542TIP3    H235042   6.201   1.290  13.272  2.1849  0.7219 -0.6532
 4543TIP3   OH235043   4.293   2.860   4.027  0.0756  0.0511 -0.1366
 4543TIP3    H135044   4.259   2.913   4.099  1.0737  0.4820  0.0276
 4543TIP3    H235045   4.259   2.902   3.948  0.9296  1.0173 -0.0143
 4544TIP3   OH235046   1.018   3.710   4.709  0.3713 -0.1220 -0.1171
 4544TIP3    H135047   0.994   3.632   4.658  1.1973  0.4188 -1.4049
 4544TIP3    H235048   0.955   3.776   4.682  0.1252 -0.1299  0.4239
 4545TIP3   OH235049   2.550   1.066  16.751  0.9119  0.6371 -0.2947
 4545TIP3    H135050   2.618   0.999  16.752  0.4584  0.1750 -0.4105
 4545TIP3    H235051   2.518   1.069  16.841 -0.6276 -0.9108 -0.7442
 4546TIP3   OH235052   4.873   4.437  16.636  0.3460 -0.6543 -0.6028
 4546TIP3    H135053   4.866   4.408  16.545 -0.5304 -0.2403 -0.6807
 4546TIP3    H235054   4.942   4.382  16.674  1.3711 -0.2095 -1.7530
 4547TIP3   OH235055   0.525   5.652  11.120  0.5489  0.6588  0.1950
 4547TIP3    H135056   0.556   5.707  11.193 -1.7932  0.9592  1.0503
 4547TIP3    H235057   0.583   5.576  11.122  0.9168  0.9275  2.0098
 4548TIP3   OH235058   5.496   2.400   1.050 -0.6539  0.0373 -0.2667
 4548TIP3    H135059   5.508   2.307   1.068 -0.2234  0.0883 -0.2783
 4548TIP3    H235060   5.492   2.441   1.136  4.2211  0.6577 -0.0032
 4549TIP3   OH235061   6.485   2.185  16.041 -0.1269 -0.1728  0.1135
 4549TIP3    H135062   6.499   2.248  16.111  0.7370 -0.3829  0.1332
 4549TIP3    H235063   6.526   2.224  15.964 -0.1796 -0.4042 -0.0354
 4550TIP3   OH235064   6.172   0.908  16.242 -0.6336 -0.3657 -0.0091
 4550TIP3    H135065   6.260   0.870  16.240  0.0239  0.9828  1.1235
 4550TIP3    H235066   6.151   0.925  16.151  0.4870 -0.3094 -0.2712
 4551TIP3   OH235067   1.464   3.041  12.974  0.7574 -0.1604 -0.2410
 4551TIP3    H135068   1.506   3.092  12.906 -0.6103  0.5492 -0.5813
 4551TIP3    H235069   1.439   2.959  12.932  0.6226 -0.0427 -0.3906
 4552TIP3   OH235070   4.445   3.265   3.928  0.0845  0.1187  0.2408
 4552TIP3    H135071   4.438   3.351   3.887  0.9721  0.0801 -0.0112
 4552TIP3    H235072   4.404   3.276   4.013 -1.6614  0.2403 -0.5797
 4553TIP3   OH235073   5.975   0.547   4.732 -0.0962  0.4257  0.0368
 4553TIP3    H135074   6.064   0.545   4.765  0.8095 -3.4016 -1.9943
 4553TIP3    H235075   5.921   0.517   4.805  0.5406  0.8720  0.7003
 4554TIP3   OH235076   5.646   0.704   4.000 -0.5204  0.7957  0.2025
 4554TIP3    H135077   5.583   0.644   4.041 -0.8067  2.0900  1.7517
 4554TIP3    H235078   5.727   0.691   4.049  0.4698 -0.7301 -1.6690
 4555TIP3   OH235079   6.538   1.668   2.409  0.0648  0.2608 -0.1302
 4555TIP3    H135080   6.591   1.593   2.435 -0.0804 -1.0167 -3.0799
 4555TIP3    H235081   6.449   1.646   2.433  0.4314  1.2614  2.4540
 4556TIP3   OH235082   4.257   2.472   5.007  0.3344  0.1648  0.3332
 4556TIP3    H135083   4.320   2.452   4.938  0.0144  0.3564 -0.0109
 4556TIP3    H235084   4.310   2.514   5.075  0.6040  0.2016  0.1047
 4557TIP3   OH235085   1.648   4.351  12.124  0.5556  0.6886  0.6751
 4557TIP3    H135086   1.570   4.400  12.152  0.2767  0.7169 -0.1121
 4557TIP3    H235087   1.626   4.260  12.140 -0.2241  0.5788 -0.8574
 4558TIP3   OH235088   4.853   0.495  17.181 -0.2861 -0.2412  0.1209
 4558TIP3    H135089   4.931   0.513  17.234 -0.9428  0.1768  0.9730
 4558TIP3    H235090   4.802   0.433  17.233 -0.3484 -0.8174 -0.6097
 4559TIP3   OH235091   5.930   6.123  14.928 -0.3927  0.0733  0.3304
 4559TIP3    H135092   5.976   6.185  14.985  1.1307  0.1879 -0.9570
 4559TIP3    H235093   5.848   6.166  14.907 -1.0700 -0.0400  2.5288
 4560TIP3   OH235094   2.775   0.817   2.171  0.1424 -0.2831 -0.3514
 4560TIP3    H135095   2.776   0.730   2.211  0.5279  0.1422  0.5951
 4560TIP3    H235096   2.685   0.848   2.182 -0.5258 -1.3093 -2.4203
 4561TIP3   OH235097   0.411   0.525  13.109  0.1359  0.3327  0.7206
 4561TIP3    H135098   0.354   0.474  13.168 -1.6717  1.2846 -0.1266
 4561TIP3    H235099   0.441   0.598  13.163 -0.8513  0.7588  0.7089
 4562TIP3   OH235100   0.609   4.051   6.259  0.0253 -0.1904  0.0827
 4562TIP3    H135101   0.699   4.072   6.234 -0.1654 -0.1035 -0.5677
 4562TIP3    H235102   0.606   4.065   6.353  0.3388  1.1064 -0.0841
 4563TIP3   OH235103   1.295   5.379   4.453 -0.0090 -0.6239 -0.2039
 4563TIP3    H135104   1.271   5.291   4.479 -0.7543 -0.2339  0.4624
 4563TIP3    H235105   1.212   5.423   4.435  0.2002  0.5095  1.3498
 4564TIP3   OH235106   1.293   6.491   0.091 -0.1647 -0.2791 -0.0132
 4564TIP3    H135107   1.280   6.399   0.068  1.5322 -0.3410 -0.9059
 4564TIP3    H235108   1.207   6.522   0.117 -1.0834 -1.7198 -1.1974
 4565TIP3   OH235109   5.181   4.138  11.363  0.6844 -0.3204  0.0933
 4565TIP3    H135110   5.200   4.103  11.450  1.9275  1.0484  0.3983
 4565TIP3    H235111   5.199   4.232  11.370 -2.4984  0.4575 -0.7120
 4566TIP3   OH235112   1.995   3.953   3.530 -0.3441  0.4529 -0.0135
 4566TIP3    H135113   1.939   3.876   3.521 -0.1743  0.2862  0.3199
 4566TIP3    H235114   1.987   3.999   3.447 -0.0318 -0.2114 -0.4146
 4567TIP3   OH235115   1.293   0.231  16.600 -0.1445 -0.4905 -0.3427
 4567TIP3    H135116   1.200   0.232  16.624 -0.4072 -0.9521 -1.2936
 4567TIP3    H235117   1.331   0.305  16.647 -1.4396  1.0909 -1.6737
 4568TIP3   OH235118   5.141   5.872  15.012  0.3322 -0.4969  0.0867
 4568TIP3    H135119   5.177   5.948  15.057  2.8615 -0.4319 -1.8116
 4568TIP3    H235120   5.046   5.883  15.018  0.6000  1.4231  2.0450
 4569TIP3   OH235121   3.571   4.650  13.192  0.2816  0.4380 -0.1035
 4569TIP3    H135122   3.601   4.652  13.101 -1.0096 -0.2521 -0.5699
 4569TIP3    H235123   3.480   4.680  13.188 -0.0256 -0.2906  0.8574
 4570TIP3   OH235124   6.492   5.548   5.650  0.1349  0.0191 -0.1038
 4570TIP3    H135125   6.464   5.509   5.733  0.6554  0.3088  0.2184
 4570TIP3    H235126   6.438   5.506   5.584 -0.9277  0.4448  0.4763
 4571TIP3   OH235127   1.948   1.971  17.094  0.2793 -0.1386 -0.2488
 4571TIP3    H135128   2.002   1.984  17.172  0.6913  0.3075 -0.6060
 4571TIP3    H235129   2.002   1.920  17.035 -0.6348 -1.9226  0.3853
 4572TIP3   OH235130   2.125   3.399  14.913  0.7192  0.2188 -0.8341
 4572TIP3    H135131   2.076   3.316  14.913 -1.5674  1.4763 -1.4563
 4572TIP3    H235132   2.198   3.384  14.853  1.0508 -1.6961 -0.0276
 4573TIP3   OH235133   0.148   2.386   2.924 -0.0358 -0.4666  0.6824
 4573TIP3    H135134   0.161   2.342   2.840 -0.2410 -0.2762  0.5512
 4573TIP3    H235135   0.069   2.346   2.961  0.2411 -0.7830  0.9356
 4574TIP3   OH235136   0.787   3.859  12.572 -0.9055 -0.3330  0.3885
 4574TIP3    H135137   0.749   3.815  12.496 -1.4600  0.8027 -0.0173
 4574TIP3    H235138   0.881   3.862  12.553 -0.9299 -0.8410  0.1646
 4575TIP3   OH235139   5.026   5.604   3.800 -0.2603 -0.3536 -0.2232
 4575TIP3    H135140   5.091   5.543   3.835  0.1211  0.4427  0.4803
 4575TIP3    H235141   5.013   5.668   3.869 -0.7079  0.3280 -0.9245
 4576TIP3   OH235142   3.504   3.959  11.170 -0.2339 -0.3495 -0.3164
 4576TIP3    H135143   3.587   3.913  11.183 -0.2223 -0.0553  0.7112
 4576TIP3    H235144   3.449   3.896  11.124  0.4510 -0.6547 -0.7424
 4577TIP3   OH235145   4.536   1.503  12.643  0.5169  0.1181  0.0892
 4577TIP3    H135146   4.447   1.537  12.649  0.4068  0.2998 -2.0100
 4577TIP3    H235147   4.533   1.422  12.694 -0.1925  1.2514  1.9848
 4578TIP3   OH235148   6.403   2.812  16.258 -0.3611 -0.0078  0.7052
 4578TIP3    H135149   6.308   2.796  16.251 -0.3863  0.0428  0.9341
 4578TIP3    H235150   6.418   2.824  16.352  0.2699 -2.5307  0.9980
 4579TIP3   OH235151   3.272   4.111   0.518 -0.0209 -0.4073 -0.7410
 4579TIP3    H135152   3.181   4.140   0.515 -0.0253 -0.1402  0.9148
 4579TIP3    H235153   3.276   4.036   0.459 -1.1204  0.0732 -1.4430
 4580TIP3   OH235154   0.107   4.302   4.551  0.3986  0.2297 -0.7652
 4580TIP3    H135155   0.150   4.329   4.469  1.2738 -0.8612 -0.6938
 4580TIP3    H235156   0.169   4.326   4.619  1.0451 -1.5063 -0.6718
 4581TIP3   OH235157   1.796   4.155   1.230 -0.3017 -0.6846  0.1228
 4581TIP3    H135158   1.851   4.177   1.306  2.2072 -1.3915 -1.3686
 4581TIP3    H235159   1.803   4.060   1.223  1.1101 -0.4837 -2.0447
 4582TIP3   OH235160   1.193   1.147   0.556  0.1939  0.0837  0.7942
 4582TIP3    H135161   1.259   1.196   0.606  0.9669 -1.9520  1.8695
 4582TIP3    H235162   1.146   1.215   0.507  2.8650  1.6543  0.1763
 4583TIP3   OH235163   1.855   1.748   0.215 -0.5418  0.4407  0.1508
 4583TIP3    H135164   1.774   1.698   0.206 -0.9405  1.0920  0.1024
 4583TIP3    H235165   1.885   1.763   0.125 -1.0825  1.3526  0.1160
 4584TIP3   OH235166   1.200   1.089  11.044 -0.4541 -0.0965  0.2041
 4584TIP3    H135167   1.190   1.167  11.098 -0.4980 -1.4025  2.2070
 4584TIP3    H235168   1.143   1.024  11.086 -0.4156 -1.2200 -1.3961
 4585TIP3   OH235169   4.392   4.882   4.382 -0.3272 -0.0573  0.0915
 4585TIP3    H135170   4.340   4.944   4.330  0.4556  1.5813  1.1628
 4585TIP3    H235171   4.375   4.797   4.342 -1.2630  0.8682 -1.6153
 4586TIP3   OH235172   2.922   4.959   3.466  0.1588 -0.2532  0.3856
 4586TIP3    H135173   2.881   5.039   3.433 -0.8936  0.6594  3.5012
 4586TIP3    H235174   2.917   4.897   3.394 -2.4041  1.3380 -0.9347
 4587TIP3   OH235175   4.171   0.722   1.433  0.1368 -0.2594 -0.5680
 4587TIP3    H135176   4.201   0.786   1.498  0.7853  0.5343 -1.6144
 4587TIP3    H235177   4.217   0.746   1.353 -1.1565 -0.8069 -1.5100
 4588TIP3   OH235178   4.654   4.994   5.075 -0.2710 -0.0898  0.0409
 4588TIP3    H135179   4.579   4.980   5.018  0.0795 -0.6319 -0.2966
 4588TIP3    H235180   4.617   5.032   5.155 -1.1441 -1.9726  0.5884
 4589TIP3   OH235181   3.628   4.327   0.670  0.5129  0.5690  0.3315
 4589TIP3    H135182   3.719   4.307   0.694  0.2635 -1.4200 -0.1805
 4589TIP3    H235183   3.575   4.285   0.738 -0.0306  0.4510 -0.1504
 4590TIP3   OH235184   1.103   4.533  11.224  0.0441  0.6193 -0.0894
 4590TIP3    H135185   1.097   4.610  11.167 -0.1705  1.0629  0.5231
 4590TIP3    H235186   1.102   4.569  11.313 -0.3270 -0.1025  0.2057
 4591TIP3   OH235187   5.151   2.778  15.507  0.2830 -1.0864 -0.4816
 4591TIP3    H135188   5.059   2.767  15.481  0.3304  0.4924 -1.4433
 4591TIP3    H235189   5.188   2.835  15.440  0.8816  1.7613  2.0546
 4592TIP3   OH235190   3.113   0.564   0.183 -0.6109  0.4385  0.3068
 4592TIP3    H135191   3.073   0.517   0.256  1.2173  1.1936  1.8806
 4592TIP3    H235192   3.075   0.652   0.187 -0.2861  0.5689  0.5457
 4593TIP3   OH235193   6.763   4.281  11.504 -0.1293  0.0147 -0.4140
 4593TIP3    H135194   6.829   4.258  11.570 -0.1791  0.7055 -0.1095
 4593TIP3    H235195   6.813   4.294  11.423  0.1600  0.8281 -0.1170
 4594TIP3   OH235196   6.744   4.298   2.505 -0.1797 -0.1371  0.3427
 4594TIP3    H135197   6.712   4.348   2.580 -1.0241 -0.0952 -0.0370
 4594TIP3    H235198   6.692   4.218   2.504  2.0648 -1.7508  1.7506
 4595TIP3   OH235199   3.140   5.287  14.703 -0.5980 -0.6729 -0.2298
 4595TIP3    H135200   3.103   5.375  14.702  0.5966 -0.1362  0.3599
 4595TIP3    H235201   3.229   5.299  14.738 -0.0235 -1.9533 -1.1718
 4596TIP3   OH235202   5.630   4.609   4.891  0.5318  0.5893 -0.3145
 4596TIP3    H135203   5.582   4.684   4.927 -0.0369  0.2149 -0.2749
 4596TIP3    H235204   5.717   4.615   4.931  0.0515  0.4343  0.7971
 4597TIP3   OH235205   0.379   6.453   2.144  0.0908 -0.9093  0.3177
 4597TIP3    H135206   0.390   6.509   2.221 -0.2958 -0.9654  0.4182
 4597TIP3    H235207   0.467   6.442   2.109 -0.0179  1.4407 -0.8930
 4598TIP3   OH235208   3.921   6.649  17.124 -0.0357 -0.4960  0.4945
 4598TIP3    H135209   3.946   6.605  17.206 -1.4212  0.8294  1.7012
 4598TIP3    H235210   3.949   6.589  17.055  3.2755 -0.6654  1.7763
 4599TIP3   OH235211   3.798   3.221  14.052 -0.1946 -0.7906 -0.1705
 4599TIP3    H135212   3.718   3.251  14.096 -0.6054 -1.1343 -0.6800
 4599TIP3    H235213   3.844   3.170  14.119 -0.7269 -1.1590 -0.0800
 4600TIP3   OH235214   3.163   3.839   5.212 -0.1420 -0.8740  0.7211
 4600TIP3    H135215   3.141   3.801   5.127 -0.7308  1.0862 -0.0548
 4600TIP3    H235216   3.090   3.815   5.269 -1.5361  0.7518 -0.3043
 4601TIP3   OH235217   1.189   1.280   3.407  0.1501  0.7195 -0.2845
 4601TIP3    H135218   1.110   1.332   3.395 -0.9588 -0.8032  0.1679
 4601TIP3    H235219   1.259   1.345   3.415 -1.0472  2.1054 -0.6024
 4602TIP3   OH235220   2.762   3.409   4.646  0.0467  0.3208  0.4320
 4602TIP3    H135221   2.757   3.387   4.553 -1.0869  1.7164  0.1335
 4602TIP3    H235222   2.679   3.453   4.666  0.9960  1.6784  1.6502
 4603TIP3   OH235223   1.074   5.820  16.183  0.5667 -0.2644  0.5613
 4603TIP3    H135224   1.151   5.764  16.190 -0.1035 -1.2547  0.3966
 4603TIP3    H235225   1.067   5.863  16.268  2.5869  1.6614 -0.1571
 4604TIP3   OH235226   5.412   5.741  11.279  0.0090 -0.3302  0.2261
 4604TIP3    H135227   5.370   5.754  11.364 -0.1708  0.3542  0.0346
 4604TIP3    H235228   5.483   5.805  11.277  1.3109 -1.6733  0.6767
 4605TIP3   OH235229   2.085   2.472   0.376  0.0503  0.2952  0.2257
 4605TIP3    H135230   2.117   2.539   0.316  0.7661 -1.1290 -1.0356
 4605TIP3    H235231   1.989   2.476   0.367  0.1433  0.2572 -0.8325
 4606TIP3   OH235232   0.889   1.301   4.962  0.3986  0.2125 -0.5568
 4606TIP3    H135233   0.913   1.324   5.052 -1.0798  1.9582 -0.5512
 4606TIP3    H235234   0.918   1.210   4.952 -0.9492 -0.6354  2.2660
 4607TIP3   OH235235   3.643   5.688  14.297  0.2501  0.1435 -0.4324
 4607TIP3    H135236   3.717   5.629  14.284 -0.4852 -0.9340  0.0919
 4607TIP3    H235237   3.637   5.698  14.392  0.4818  1.2439 -0.5138
 4608TIP3   OH235238   4.321   0.100  11.199 -0.1861 -0.1223 -0.1285
 4608TIP3    H135239   4.411   0.069  11.198  0.8133  2.4252  0.7479
 4608TIP3    H235240   4.304   0.121  11.291 -1.6320 -0.3956 -0.3013
 4609TIP3   OH235241   5.353   4.514   6.037  0.0747 -0.2142 -0.9213
 4609TIP3    H135242   5.429   4.547   5.990 -0.5281  0.8450 -1.1737
 4609TIP3    H235243   5.339   4.577   6.108 -1.5424  0.5144 -1.8489
 4610TIP3   OH235244   2.643   3.183   5.925 -0.2164 -0.3269 -0.0385
 4610TIP3    H135245   2.634   3.091   5.947 -0.8949 -0.0020  1.1100
 4610TIP3    H235246   2.554   3.218   5.930 -0.0230  0.3136 -0.8438
 4611TIP3   OH235247   2.705   4.489  16.806  0.2340  0.1668  0.1044
 4611TIP3    H135248   2.633   4.543  16.773  0.2453  0.5465  0.6808
 4611TIP3    H235249   2.743   4.541  16.877  2.0413  0.6419 -1.1564
 4612TIP3   OH235250   1.699   6.506   4.528  0.1698  0.2723  0.3277
 4612TIP3    H135251   1.757   6.494   4.603  0.8751  0.8299 -0.1248
 4612TIP3    H235252   1.667   6.596   4.536 -0.6426 -0.0211  0.5653
 4613TIP3   OH235253   3.058   1.266  15.493  0.0831 -0.0648 -0.0237
 4613TIP3    H135254   3.040   1.326  15.421  0.9369 -0.1668 -0.3366
 4613TIP3    H235255   3.154   1.257  15.494  0.0593 -0.3562  0.8829
 4614TIP3   OH235256   3.353   2.350  16.038  0.2495 -0.2896  0.0173
 4614TIP3    H135257   3.306   2.409  16.097 -1.9234 -1.5335 -0.3603
 4614TIP3    H235258   3.437   2.334  16.080  0.7703  2.7069  0.3287
 4615TIP3   OH235259   2.856   1.190  16.919 -0.0845  0.2847 -0.6837
 4615TIP3    H135260   2.790   1.258  16.908  1.3751  1.7997 -0.4727
 4615TIP3    H235261   2.832   1.122  16.856 -1.3430  1.1858 -1.2112
 4616TIP3   OH235262   6.284   3.827   4.177 -0.4087  0.0409  0.0915
 4616TIP3    H135263   6.373   3.861   4.166 -0.0825 -0.8099 -0.0315
 4616TIP3    H235264   6.263   3.841   4.269  0.2541 -0.6588  0.3583
 4617TIP3   OH235265   4.001   6.531  16.635 -0.2664  0.3329  0.3134
 4617TIP3    H135266   3.990   6.436  16.643 -1.9455  0.5393  0.8810
 4617TIP3    H235267   4.079   6.541  16.580 -0.6628 -1.3912 -0.6688
 4618TIP3   OH235268   6.766   4.056   5.716  0.2949 -0.0288  0.1187
 4618TIP3    H135269   6.755   4.027   5.806 -2.0702  0.8440  0.1703
 4618TIP3    H235270   6.846   4.108   5.717 -0.5067  1.2857  2.1098
 4619TIP3   OH235271   6.714   0.141  14.860 -0.1802  0.3817 -0.4857
 4619TIP3    H135272   6.639   0.114  14.913  0.7286 -0.5433  0.3973
 4619TIP3    H235273   6.733   0.230  14.888 -2.2402  1.4456 -2.2653
 4620TIP3   OH235274   2.935   6.006   0.520 -0.3015  0.1961 -0.5180
 4620TIP3    H135275   2.998   6.018   0.449 -0.6549  0.7890 -0.7356
 4620TIP3    H235276   2.917   5.912   0.520  0.4978  0.0311 -0.5164
 4621TIP3   OH235277   1.811   6.074  15.859  0.4045  0.4307 -0.9739
 4621TIP3    H135278   1.817   5.994  15.911 -0.1279  0.3487 -1.0328
 4621TIP3    H235279   1.849   6.049  15.774 -1.2740 -0.2726 -1.5674
 4622TIP3   OH235280   5.281   5.765   0.739 -0.0566  0.4126  0.6226
 4622TIP3    H135281   5.277   5.692   0.801  0.4132 -0.3806 -0.2609
 4622TIP3    H235282   5.222   5.739   0.668  1.2356  0.2078 -0.3967
 4623TIP3   OH235283   6.391   5.674   5.259 -0.0909  0.0002  0.1560
 4623TIP3    H135284   6.422   5.627   5.337 -0.5007 -0.1292  0.2454
 4623TIP3    H235285   6.437   5.633   5.186  0.3877  0.2029  0.3404
 4624TIP3   OH235286   5.482   5.809   1.695 -1.0906 -0.0617  0.0438
 4624TIP3    H135287   5.449   5.721   1.680 -1.1180  0.0803 -0.8017
 4624TIP3    H235288   5.530   5.831   1.615 -0.9389  0.6235  0.3088
 4625TIP3   OH235289   3.539   0.230  13.944 -0.3449  0.1500 -0.0208
 4625TIP3    H135290   3.488   0.193  14.016 -0.0834  2.4941  1.4737
 4625TIP3    H235291   3.483   0.299  13.907  0.5178  0.6832 -0.3727
 4626TIP3   OH235292   4.973   6.440  15.976  0.0758 -0.3669 -0.3409
 4626TIP3    H135293   4.994   6.376  16.045 -1.9487 -0.0233  0.6612
 4626TIP3    H235294   5.038   6.509  15.988  0.6409 -0.9795  0.2774
 4627TIP3   OH235295   2.188   2.062  15.827  0.2888 -0.2557 -0.2461
 4627TIP3    H135296   2.096   2.087  15.830  0.6899  1.4581 -1.1530
 4627TIP3    H235297   2.191   1.976  15.870 -1.8040 -0.6254 -0.7438
 4628TIP3   OH235298   4.638   0.184   0.298  0.0257 -0.1475 -0.1634
 4628TIP3    H135299   4.733   0.182   0.293  0.0312 -0.2050 -0.0429
 4628TIP3    H235300   4.611   0.234   0.221 -0.0287 -3.2978 -2.3947
 4629TIP3   OH235301   5.392   3.886  15.576 -0.0687  0.3475 -0.0644
 4629TIP3    H135302   5.383   3.802  15.531 -0.8924  0.2235  0.3155
 4629TIP3    H235303   5.302   3.909  15.602  0.3501  0.5193  1.3123
 4630TIP3   OH235304   1.102   4.512  11.684 -0.6054  0.0961  0.3538
 4630TIP3    H135305   1.152   4.448  11.735  0.0120 -1.3007 -1.8706
 4630TIP3    H235306   1.011   4.497  11.710 -0.2910 -0.3718  1.2397
 4631TIP3   OH235307   2.827   2.621   1.424  0.7571 -0.3555 -0.2435
 4631TIP3    H135308   2.820   2.645   1.332  0.1153  0.5888  0.0428
 4631TIP3    H235309   2.913   2.655   1.451  0.4822  0.3396 -0.2214
 4632TIP3   OH235310   2.203   1.850   5.290 -0.7240  0.1674  0.1054
 4632TIP3    H135311   2.288   1.826   5.255 -1.3477 -1.5811 -0.3079
 4632TIP3    H235312   2.144   1.848   5.214 -1.3627  0.1826  0.5898
 4633TIP3   OH235313   2.569   6.103  11.955  0.6098 -0.1107  0.0058
 4633TIP3    H135314   2.532   6.191  11.955  0.9355  0.0277 -0.5601
 4633TIP3    H235315   2.536   6.063  11.875  0.3347 -0.5641  0.3382
 4634TIP3   OH235316   5.790   4.585  13.163  0.0781 -0.0365  0.3292
 4634TIP3    H135317   5.857   4.581  13.095 -1.0368  1.1143 -0.8872
 4634TIP3    H235318   5.758   4.495  13.170  0.3218 -0.2038 -0.5537
 4635TIP3   OH235319   5.052   3.171   4.500  0.1719  0.0223  0.0339
 4635TIP3    H135320   5.001   3.186   4.421  0.1038 -1.4683 -0.2288
 4635TIP3    H235321   5.004   3.103   4.547  1.4846 -0.8209  0.1849
 4636TIP3   OH235322   1.046   0.211  16.744 -0.0407 -0.8666  0.7492
 4636TIP3    H135323   0.960   0.179  16.773  0.5397 -1.4848  1.8563
 4636TIP3    H235324   1.109   0.155  16.788  0.9674  0.1862  0.7131
 4637TIP3   OH235325   6.388   2.910   1.714 -0.2496 -0.4455 -0.1190
 4637TIP3    H135326   6.472   2.956   1.725  0.1701 -1.4373  1.1007
 4637TIP3    H235327   6.323   2.975   1.740  0.1168  0.3240 -1.0309
 4638TIP3   OH235328   4.242   4.419  11.321 -0.3094 -0.3928  0.7391
 4638TIP3    H135329   4.317   4.361  11.338  1.4695  2.1386  2.1822
 4638TIP3    H235330   4.199   4.428  11.406 -1.1472 -0.3440  0.3173
 4639TIP3   OH235331   1.750   2.474  14.252  0.0013 -0.2782  0.0387
 4639TIP3    H135332   1.772   2.500  14.342 -1.0438 -2.2597  0.9348
 4639TIP3    H235333   1.657   2.494  14.244 -0.1147 -0.9200 -0.2709
 4640TIP3   OH235334   0.057   1.654   6.085 -0.3344  0.3573 -0.0450
 4640TIP3    H135335   0.050   1.561   6.064  0.8907  0.0376  0.8411
 4640TIP3    H235336  -0.030   1.677   6.117 -1.6066  0.3356 -3.1616
 4641TIP3   OH235337   2.792   3.299   2.873  0.4881 -0.1727 -1.0430
 4641TIP3    H135338   2.808   3.234   2.805  0.4076  0.5050 -1.7221
 4641TIP3    H235339   2.725   3.260   2.930  1.6713 -1.4023 -0.4320
 4642TIP3   OH235340   1.733   1.926  14.802  0.4528 -0.4105  0.1359
 4642TIP3    H135341   1.714   1.835  14.824  2.1038 -0.6324  0.8177
 4642TIP3    H235342   1.765   1.923  14.712 -0.0433 -0.4289 -0.0378
 4643TIP3   OH235343   4.927   2.513   2.873  0.2759 -0.1341  0.1772
 4643TIP3    H135344   4.999   2.509   2.810 -1.3243  0.0198 -1.7469
 4643TIP3    H235345   4.935   2.600   2.913  1.1335 -0.1176  0.0014
 4644TIP3   OH235346   1.531   0.546   6.100 -0.1335  0.3745  0.1759
 4644TIP3    H135347   1.488   0.468   6.135 -0.9861  1.3446  1.3849
 4644TIP3    H235348   1.483   0.619   6.139  0.9779  1.5110 -0.5134
 4645TIP3   OH235349   1.377   1.720  16.911 -0.1584 -0.1157  0.5632
 4645TIP3    H135350   1.373   1.816  16.911 -1.5546 -0.1434 -0.1162
 4645TIP3    H235351   1.325   1.694  16.835  1.2832 -1.3946 -0.0458
 4646TIP3   OH235352   5.008   3.597  14.910 -0.3662  0.7832  0.3142
 4646TIP3    H135353   4.919   3.600  14.945 -0.3673  2.8874  0.2800
 4646TIP3    H235354   5.001   3.639  14.824  0.1357 -1.8497 -1.1212
 4647TIP3   OH235355   3.423   2.809   0.506 -0.4129 -0.3339 -0.1707
 4647TIP3    H135356   3.445   2.868   0.577 -1.1569  0.8628 -0.8942
 4647TIP3    H235357   3.507   2.783   0.468  0.0147 -1.4211  1.4567
 4648TIP3   OH235358   0.577   3.831  14.770  0.1673  0.0457  0.5277
 4648TIP3    H135359   0.667   3.824  14.801  0.1263 -1.1592  0.4443
 4648TIP3    H235360   0.583   3.813  14.676 -0.0884  0.6209  0.3967
 4649TIP3   OH235361   2.171   3.663   0.218 -0.5956 -0.1744  0.1200
 4649TIP3    H135362   2.263   3.687   0.206 -1.0529  0.9559 -1.3401
 4649TIP3    H235363   2.175   3.577   0.261  1.1827 -1.2008 -1.8874
 4650TIP3   OH235364   3.495   5.706   5.551 -0.1249 -0.1705  0.8972
 4650TIP3    H135365   3.517   5.646   5.623 -0.3216 -1.6130 -0.1952
 4650TIP3    H235366   3.408   5.677   5.522 -0.4952  1.0568  0.7351
 4651TIP3   OH235367   1.414   5.702  11.523  0.4965 -0.3216 -0.1699
 4651TIP3    H135368   1.474   5.757  11.473 -0.6567 -0.3075 -1.5862
 4651TIP3    H235369   1.471   5.652  11.582  1.7216  0.9637 -0.2209
 4652TIP3   OH235370   2.488   1.631   0.362 -0.0888 -0.3559  0.5090
 4652TIP3    H135371   2.582   1.624   0.379 -0.0392  1.5216  1.2300
 4652TIP3    H235372   2.451   1.665   0.443 -1.1287  0.6331 -0.3443
 4653TIP3   OH235373   0.045   0.937  13.317  0.6899  0.0339  0.0784
 4653TIP3    H135374   0.103   0.904  13.385  2.4522  1.6820 -0.5468
 4653TIP3    H235375   0.024   1.026  13.343  2.1409  1.0297 -1.8879
 4654TIP3   OH235376   3.904   0.762   4.586  0.2001 -0.4189 -0.0235
 4654TIP3    H135377   3.927   0.669   4.594  0.1484 -0.3516  1.0369
 4654TIP3    H235378   3.945   0.803   4.661  1.2815  0.6491 -1.1712
 4655TIP3   OH235379   4.941   1.090   3.945  0.1738 -0.0441 -0.2461
 4655TIP3    H135380   4.851   1.096   3.978  0.5683 -0.7684  1.0585
 4655TIP3    H235381   4.941   1.141   3.865 -1.1588  0.8286  0.2736
 4656TIP3   OH235382   4.119   5.021  12.645 -0.5291  0.0227  0.1919
 4656TIP3    H135383   4.131   4.934  12.607  0.4176 -0.5414  1.7037
 4656TIP3    H235384   4.185   5.075  12.601  0.0109 -0.4256  0.4443
 4657TIP3   OH235385   0.313   6.276   5.230 -0.5307 -0.5091  0.2396
 4657TIP3    H135386   0.295   6.241   5.143  2.0539 -2.2368  0.2739
 4657TIP3    H235387   0.365   6.354   5.215 -1.0634 -0.1549  0.2286
 4658TIP3   OH235388   3.311   2.622  13.288  0.1047 -0.2620  0.3137
 4658TIP3    H135389   3.288   2.662  13.372  0.5892  2.2095 -0.6647
 4658TIP3    H235390   3.273   2.680  13.223  1.5683 -0.9387 -1.2109
 4659TIP3   OH235391   5.758   3.307  14.251 -0.6982  0.5768  0.2740
 4659TIP3    H135392   5.698   3.233  14.238 -1.0019  0.9914 -0.8102
 4659TIP3    H235393   5.744   3.334  14.342  1.5079 -2.4773  1.6769
 4660TIP3   OH235394   3.695   3.693   4.456  0.1833  0.6029 -0.0138
 4660TIP3    H135395   3.614   3.654   4.489  0.2161  0.6418  0.1134
 4660TIP3    H235396   3.760   3.623   4.463  0.2111  0.6392  0.0880
 4661TIP3   OH235397   3.059   0.227  15.610  0.3449  0.0175  0.0702
 4661TIP3    H135398   3.004   0.275  15.548  0.3644 -0.6363 -0.4603
 4661TIP3    H235399   3.008   0.148  15.631  1.5780 -1.1981 -1.3575
 4662TIP3   OH235400   3.344   3.324  13.269  0.2749 -0.5501  0.0774
 4662TIP3    H135401   3.325   3.416  13.248  0.4111 -0.7572 -0.9605
 4662TIP3    H235402   3.272   3.298  13.327  0.2940  0.2405  0.4787
 4663TIP3   OH235403   3.994   1.543  10.858 -0.3056  0.0619  0.1737
 4663TIP3    H135404   3.933   1.499  10.798  0.8632 -1.2577 -0.0819
 4663TIP3    H235405   4.031   1.473  10.911  0.5845  0.9094  0.7089
 4664TIP3   OH235406   5.861   0.202  13.729 -0.2267  0.0001 -0.0121
 4664TIP3    H135407   5.888   0.259  13.656  0.8229 -1.3547 -0.7364
 4664TIP3    H235408   5.936   0.145  13.742 -1.5507 -1.7784  0.1173
 4665TIP3   OH235409   2.672   2.544  16.987  0.2656 -0.6779  0.6797
 4665TIP3    H135410   2.676   2.538  16.892  2.1652 -0.4182  0.7060
 4665TIP3    H235411   2.600   2.604  17.005  1.0457  0.7339 -0.6875
 4666TIP3   OH235412   6.421   3.416  10.874  0.3029 -0.3009 -0.1768
 4666TIP3    H135413   6.472   3.493  10.851 -0.6846 -0.0252 -1.5256
 4666TIP3    H235414   6.334   3.450  10.894  0.2853 -0.9051  0.8821
 4667TIP3   OH235415   4.046   1.549  15.014 -0.2088 -0.0395  0.0869
 4667TIP3    H135416   4.108   1.612  14.978  2.3351 -1.0146  2.3893
 4667TIP3    H235417   3.994   1.521  14.939  1.1517  1.9143 -1.7097
 4668TIP3   OH235418   0.443   5.156   5.962  0.0055 -0.0660  0.6728
 4668TIP3    H135419   0.425   5.250   5.967 -3.0134 -0.5792  1.1005
 4668TIP3    H235420   0.505   5.140   6.034 -1.2058  1.2791  2.0851
 4669TIP3   OH235421   0.726   3.634  16.616  0.3308 -0.2880  0.2898
 4669TIP3    H135422   0.655   3.688  16.651  0.4062  0.1702 -0.2492
 4669TIP3    H235423   0.749   3.676  16.533  0.9429 -0.6811  0.2540
 4670TIP3   OH235424   3.406   1.354  13.220  0.2955 -0.3603  0.2528
 4670TIP3    H135425   3.434   1.442  13.194  0.8479 -0.2961  1.0282
 4670TIP3    H235426   3.311   1.360  13.226  0.2114 -0.1608 -0.9074
 4671TIP3   OH235427   0.293   0.207   4.025  0.0186 -0.3260  0.0803
 4671TIP3    H135428   0.218   0.153   3.998 -0.2433 -0.3870  0.9004
 4671TIP3    H235429   0.297   0.276   3.959 -0.9812 -0.1270  0.2022
 4672TIP3   OH235430   3.969   0.428  12.307 -0.0576 -0.4910  0.2231
 4672TIP3    H135431   3.928   0.510  12.279  0.0128 -0.7454 -0.6523
 4672TIP3    H235432   3.929   0.408  12.391  2.0341  1.9834  1.9704
 4673TIP3   OH235433   4.564   4.801  15.049  0.2798  0.1171  0.0997
 4673TIP3    H135434   4.660   4.801  15.053  0.2656 -0.2784  0.5672
 4673TIP3    H235435   4.537   4.759  15.131 -0.3211  1.4809  0.6181
 4674TIP3   OH235436   1.439   0.547   0.749 -0.1514  0.0788  0.0081
 4674TIP3    H135437   1.369   0.486   0.773 -0.2932  0.4048  0.4268
 4674TIP3    H235438   1.428   0.621   0.808  0.4482  0.2055 -0.0336
 4675TIP3   OH235439   4.890   6.200  15.171 -0.1047 -0.7299 -0.6039
 4675TIP3    H135440   4.968   6.233  15.215  1.4255 -1.1616 -2.8272
 4675TIP3    H235441   4.856   6.275  15.122 -1.5336 -0.3719  0.8312
 4676TIP3   OH235442   2.367   4.278   3.997 -0.0744 -0.0426 -0.8300
 4676TIP3    H135443   2.309   4.265   4.073  1.5504 -1.1382  0.2901
 4676TIP3    H235444   2.307   4.299   3.925 -1.8672 -1.0099  0.2864
 4677TIP3   OH235445   3.506   3.361   5.447  0.9406  0.3250 -0.4853
 4677TIP3    H135446   3.450   3.423   5.492  0.3962 -0.3702 -0.1834
 4677TIP3    H235447   3.446   3.308   5.395  1.0464 -1.6430  1.2574
 4678TIP3   OH235448   0.176   6.660  12.505  0.0633  0.0889 -0.4892
 4678TIP3    H135449   0.109   6.592  12.513  1.4877 -1.3738 -0.5590
 4678TIP3    H235450   0.236   6.643  12.577  1.4112  0.1652 -1.5697
 4679TIP3   OH235451   6.395   2.503   5.636 -0.0235 -0.4899 -0.1793
 4679TIP3    H135452   6.397   2.419   5.590 -3.9184  0.6249 -2.8324
 4679TIP3    H235453   6.315   2.499   5.689  0.3702  1.1058  0.5988
 4680TIP3   OH235454   5.308   2.536  16.434  0.1552  0.0338  0.0170
 4680TIP3    H135455   5.333   2.546  16.526  0.6194  0.8326 -0.1810
 4680TIP3    H235456   5.227   2.585  16.425  0.6939  0.9097 -0.2294
 4681TIP3   OH235457   2.918   5.264  16.005  0.0821  0.3896  0.2769
 4681TIP3    H135458   2.965   5.181  15.997 -0.0780  0.3423 -0.2105
 4681TIP3    H235459   2.882   5.263  16.094  0.5012  0.1659  0.4478
 4682TIP3   OH235460   0.303   6.623  13.277  0.1583 -0.2926  0.3609
 4682TIP3    H135461   0.374   6.624  13.341 -1.0456  0.5211  1.7461
 4682TIP3    H235462   0.290   6.530  13.258  2.0149 -0.4276 -0.4548
 4683TIP3   OH235463   0.639   3.347   1.257 -0.4921 -0.0402 -0.0757
 4683TIP3    H135464   0.675   3.435   1.263 -0.9455  0.2001 -0.8114
 4683TIP3    H235465   0.702   3.298   1.204  0.1874 -0.4003  1.0269
 4684TIP3   OH235466   1.461   5.615  11.150  0.2336  0.2966 -0.3057
 4684TIP3    H135467   1.376   5.627  11.106  0.4247  0.8363 -0.5464
 4684TIP3    H235468   1.501   5.541  11.105 -0.6671 -0.8132  0.6904
 4685TIP3   OH235469   6.163   6.126   2.530  0.3647 -0.0233 -0.0844
 4685TIP3    H135470   6.177   6.046   2.478  1.3032  1.0224 -1.5249
 4685TIP3    H235471   6.120   6.186   2.469 -1.8973  0.0514  1.4881
 4686TIP3   OH235472   6.329   4.213  13.042 -0.0482 -0.9953  0.6886
 4686TIP3    H135473   6.308   4.305  13.060 -0.5745 -1.2408  1.3641
 4686TIP3    H235474   6.315   4.203  12.948  2.6082  0.2866  0.0745
 4687TIP3   OH235475   6.098   1.567   0.813  0.3573  0.0823  0.3033
 4687TIP3    H135476   6.148   1.525   0.743  0.5955  0.0409  0.5012
 4687TIP3    H235477   6.035   1.623   0.766 -0.1329 -0.6841  0.0364
 4688TIP3   OH235478   2.024   1.602  14.856  0.1408 -0.2615 -0.4449
 4688TIP3    H135479   1.968   1.563  14.923 -0.3844 -1.5893 -1.6028
 4688TIP3    H235480   1.987   1.688  14.841 -0.9322 -0.6972 -0.3951
 4689TIP3   OH235481   3.297   0.408   3.957  0.8627 -0.3814  0.1852
 4689TIP3    H135482   3.223   0.452   3.915  1.1982 -0.9641 -1.0622
 4689TIP3    H235483   3.306   0.452   4.041 -0.0801  0.5743 -0.1854
 4690TIP3   OH235484   2.821   6.172   2.704 -0.0170  0.0977  0.4621
 4690TIP3    H135485   2.819   6.092   2.757 -1.4320 -0.2487 -0.0941
 4690TIP3    H235486   2.770   6.235   2.755 -1.3190 -0.2139 -0.4137
 4691TIP3   OH235487   2.646   5.756   4.205  0.0581 -0.5898 -0.0149
 4691TIP3    H135488   2.647   5.774   4.111 -1.6846  0.3836  0.1089
 4691TIP3    H235489   2.644   5.843   4.246  1.4571 -0.9841  0.9704
 4692TIP3   OH235490   0.061   2.568  13.164 -0.4664  0.1422  0.4070
 4692TIP3    H135491   0.018   2.487  13.135 -1.3372  0.2686  1.2700
 4692TIP3    H235492   0.152   2.543  13.178 -0.8600 -0.9008  1.3595
 4693TIP3   OH235493   6.472   6.218  12.242 -0.0200 -0.1633 -0.4876
 4693TIP3    H135494   6.463   6.312  12.224  2.2966  0.3219  0.4291
 4693TIP3    H235495   6.431   6.207  12.328 -1.4115 -0.2780 -1.1432
 4694TIP3   OH235496   0.123   1.908   3.574 -0.4373 -0.2901  1.0079
 4694TIP3    H135497   0.036   1.904   3.535 -0.2154  0.1841  0.4606
 4694TIP3    H235498   0.165   1.983   3.532  0.3891 -0.7718  0.9551
 4695TIP3   OH235499   4.729   3.715   2.798 -0.1921  0.0977  0.5717
 4695TIP3    H135500   4.768   3.655   2.735  1.3975 -0.4000  1.9574
 4695TIP3    H235501   4.802   3.767   2.830 -0.9642  0.3832  1.9581
 4696TIP3   OH235502   1.115   2.483  13.927  0.0417 -0.0847  0.0004
 4696TIP3    H135503   1.130   2.539  13.850  0.1377 -1.3107 -0.9042
 4696TIP3    H235504   1.164   2.526  13.998 -0.2128  1.1808 -0.5636
 4697TIP3   OH235505   1.934   2.593   3.387 -0.0299  0.3298 -1.1325
 4697TIP3    H135506   1.863   2.532   3.405  0.0632  0.3909 -0.5388
 4697TIP3    H235507   1.926   2.613   3.293  0.0440 -0.7159 -1.3667
 4698TIP3   OH235508   4.641   1.880   1.367  0.4974  0.4541 -0.2715
 4698TIP3    H135509   4.711   1.855   1.427  0.7418 -0.4045 -0.8890
 4698TIP3    H235510   4.634   1.975   1.377  0.9074  0.3996  0.6975
 4699TIP3   OH235511   2.253   0.132   0.058  0.1997  0.4958  0.7011
 4699TIP3    H135512   2.158   0.139   0.044 -0.3070  0.6179  3.4755
 4699TIP3    H235513   2.264   0.048   0.103  1.2647  0.8956  1.2219
 4700TIP3   OH235514   4.524   5.084  12.204  0.3585 -0.2929 -0.4962
 4700TIP3    H135515   4.453   5.037  12.250  0.0048  0.6470 -0.0669
 4700TIP3    H235516   4.601   5.029  12.219  0.1556 -0.2477  0.8494
 4701TIP3   OH235517   5.553   4.402  13.592 -0.0754 -0.3296  0.2538
 4701TIP3    H135518   5.483   4.465  13.604  0.3098 -0.0428  1.0707
 4701TIP3    H235519   5.535   4.332  13.655  1.0300  0.3516  1.3670
 4702TIP3   OH235520   3.493   1.760  15.347  0.6634 -0.1195  0.2133
 4702TIP3    H135521   3.406   1.736  15.378  0.6766 -1.3521 -0.6517
 4702TIP3    H235522   3.478   1.797  15.260  0.5483  3.8919  1.7054
 4703TIP3   OH235523   1.389   2.998   3.948 -0.4265  1.0746  0.0485
 4703TIP3    H135524   1.312   3.037   3.990  0.3494  1.5953  1.0117
 4703TIP3    H235525   1.463   3.029   3.999  0.3287 -0.6153  0.0578
 4704TIP3   OH235526   3.483   1.998  13.991  0.0007  0.6797 -0.0285
 4704TIP3    H135527   3.575   2.021  13.979 -0.5008  1.7915 -2.2641
 4704TIP3    H235528   3.485   1.915  14.038  2.1916  0.0330 -1.1164
 4705TIP3   OH235529   4.325   5.537  11.254 -0.4448 -0.1340  0.5483
 4705TIP3    H135530   4.318   5.603  11.323 -0.8731  0.4878 -0.0732
 4705TIP3    H235531   4.368   5.583  11.181 -2.8627  0.2298 -0.7779
 4706TIP3   OH235532   1.411   0.843  12.701  0.3048  0.7268  0.0344
 4706TIP3    H135533   1.425   0.901  12.776  1.2751  1.1902 -0.4776
 4706TIP3    H235534   1.391   0.758  12.739  0.8788  0.9310  0.8118
 4707TIP3   OH235535   2.009   1.358   4.865  0.0247  0.3927 -0.1548
 4707TIP3    H135536   2.064   1.290   4.905 -0.3206  0.3591  0.2726
 4707TIP3    H235537   2.042   1.366   4.776  0.2259 -0.1680 -0.1349
 4708TIP3   OH235538   6.354   3.482  11.869  0.3463 -0.1741  0.2464
 4708TIP3    H135539   6.394   3.459  11.953  0.3842 -1.7288 -0.1538
 4708TIP3    H235540   6.425   3.473  11.805  0.2037  0.5167 -0.0107
 4709TIP3   OH235541   0.350   2.315  13.832 -0.1626 -0.0535  0.1938
 4709TIP3    H135542   0.435   2.328  13.790 -0.0617 -0.2569  0.3334
 4709TIP3    H235543   0.343   2.386  13.895 -0.8189  0.9458 -0.9598
 4710TIP3   OH235544   2.296   4.170  16.156  0.2094  0.1880  0.3898
 4710TIP3    H135545   2.247   4.247  16.126  0.6588  0.7639  1.0885
 4710TIP3    H235546   2.366   4.159  16.092 -1.0665 -0.9200 -0.8810
 4711TIP3   OH235547   1.616   6.121   1.032  0.2479  0.2049 -0.1193
 4711TIP3    H135548   1.565   6.191   0.991 -0.3278 -0.2538 -0.2133
 4711TIP3    H235549   1.620   6.053   0.964 -0.1266 -0.2806  0.3366
 4712TIP3   OH235550   3.297   4.070   3.116 -0.4392 -0.1853 -0.9153
 4712TIP3    H135551   3.348   4.128   3.060  3.2006 -2.6790 -0.4771
 4712TIP3    H235552   3.273   3.997   3.058  0.6737 -1.2932 -0.0228
 4713TIP3   OH235553   1.580   4.041   0.601  0.0596 -0.1684 -0.1322
 4713TIP3    H135554   1.661   4.048   0.551  1.9671 -2.4927  2.3162
 4713TIP3    H235555   1.601   4.079   0.686 -2.0776  0.8523  0.0070
 4714TIP3   OH235556   4.531   1.666   2.557 -0.8911 -0.4156 -0.1328
 4714TIP3    H135557   4.532   1.642   2.649 -1.3254 -0.1530 -0.0575
 4714TIP3    H235558   4.586   1.600   2.514 -2.5108 -1.9035 -0.0257
 4715TIP3   OH235559   2.970   1.511   4.882 -0.1529 -0.6913 -0.4088
 4715TIP3    H135560   2.954   1.435   4.827 -2.8275 -1.7223  1.5508
 4715TIP3    H235561   2.900   1.572   4.859  0.4500  0.1050 -0.1874
 4716TIP3   OH235562   5.315   3.084   3.020 -0.0354 -0.0202  0.0010
 4716TIP3    H135563   5.237   3.042   3.056  0.1387 -0.2416  0.1174
 4716TIP3    H235564   5.355   3.019   2.963 -1.3033  0.9272 -2.0747
 4717TIP3   OH235565   0.829   3.213  14.188  0.1343  0.2435 -0.0160
 4717TIP3    H135566   0.862   3.170  14.267  0.7798  0.0604 -0.3733
 4717TIP3    H235567   0.832   3.144  14.121 -1.5129  0.0648  0.0604
 4718TIP3   OH235568   1.210   3.361  11.728 -0.0641 -0.5286  0.3067
 4718TIP3    H135569   1.192   3.454  11.719 -0.2250 -0.4161  1.5686
 4718TIP3    H235570   1.260   3.338  11.650  0.1654  0.6651  0.0921
 4719TIP3   OH235571   2.395   5.660   5.396  0.0736 -0.0147  0.8245
 4719TIP3    H135572   2.354   5.697   5.474 -0.9699 -1.6728  1.1076
 4719TIP3    H235573   2.388   5.565   5.407  1.2840 -0.3111 -0.5752
 4720TIP3   OH235574   1.434   5.039  12.507  0.2859 -0.1207 -0.2418
 4720TIP3    H135575   1.377   5.115  12.511  0.0090 -0.3183 -0.3602
 4720TIP3    H235576   1.385   4.970  12.552 -0.2296 -0.6989 -1.6209
 4721TIP3   OH235577   5.991   5.130   3.872  0.0494  0.0574 -0.2164
 4721TIP3    H135578   6.077   5.089   3.858  1.7752  2.6868  1.6287
 4721TIP3    H235579   5.984   5.194   3.802  0.3344  0.8742  0.4868
 4722TIP3   OH235580   0.393   4.221  14.820  0.3171 -0.3963 -0.9249
 4722TIP3    H135581   0.364   4.288  14.882  0.2272  0.5100 -1.9337
 4722TIP3    H235582   0.322   4.212  14.757  0.5709 -1.0330 -1.1358
 4723TIP3   OH235583   3.547   2.702  14.477 -0.1581 -0.0900 -0.2583
 4723TIP3    H135584   3.529   2.794  14.494 -0.2810  0.1917 -1.7574
 4723TIP3    H235585   3.634   2.701  14.438 -0.3929 -0.5201 -0.8002
 4724TIP3   OH235586   0.687   5.163  14.116  0.2231 -0.3915  0.2120
 4724TIP3    H135587   0.755   5.231  14.113  0.4637 -0.6553 -1.0145
 4724TIP3    H235588   0.720   5.094  14.058 -0.7668 -0.8378  0.1588
 4725TIP3   OH235589   5.612   6.628  15.303  0.1921  0.2680 -0.3791
 4725TIP3    H135590   5.655   6.714  15.300  0.1713  0.3823  1.2988
 4725TIP3    H235591   5.623   6.600  15.394  2.0012 -2.4616 -1.3176
 4726TIP3   OH235592   3.160   2.118   1.066  0.3408 -0.8247  0.2058
 4726TIP3    H135593   3.068   2.138   1.083  0.3962 -1.2747  1.0849
 4726TIP3    H235594   3.176   2.153   0.978 -0.8367 -1.3043 -0.2200
 4727TIP3   OH235595   4.479   4.053  11.711  0.1349 -0.0822 -0.1573
 4727TIP3    H135596   4.484   3.978  11.769 -0.5329  1.4660  2.0404
 4727TIP3    H235597   4.478   4.016  11.623 -1.7481 -2.7065  0.8681
 4728TIP3   OH235598   5.590   2.482  16.928  0.4679 -0.6056 -0.4126
 4728TIP3    H135599   5.593   2.405  16.986 -0.3736  0.2698  0.8546
 4728TIP3    H235600   5.679   2.519  16.934 -0.0350  0.4392  1.7689
 4729TIP3   OH235601   5.779   5.009  14.290 -0.6815 -0.3477 -0.2348
 4729TIP3    H135602   5.748   5.049  14.209 -1.6807 -0.0694  0.2776
 4729TIP3    H235603   5.761   5.073  14.358  0.5723 -0.3871  0.1604
 4730TIP3   OH235604   6.217   0.126  15.389 -0.4095 -0.2389 -0.1749
 4730TIP3    H135605   6.139   0.169  15.424 -0.6292  0.4346 -1.4100
 4730TIP3    H235606   6.209   0.138  15.294  3.3133  3.7827 -0.2972
 4731TIP3   OH235607   6.274   6.019   5.172 -0.1406  0.4304 -0.2776
 4731TIP3    H135608   6.208   5.955   5.201  0.7462 -0.4634 -0.1555
 4731TIP3    H235609   6.224   6.096   5.146 -1.2792 -0.4814 -0.8473
 4732TIP3   OH235610   1.640   1.625   2.415 -0.1005 -0.2092  0.5623
 4732TIP3    H135611   1.607   1.570   2.345 -1.5771 -0.9279  1.7694
 4732TIP3    H235612   1.578   1.697   2.421  0.9085  0.7250  0.0923
 4733TIP3   OH235613   6.076   1.559   2.042  0.1509 -0.1580  0.3328
 4733TIP3    H135614   6.077   1.609   2.123 -1.7437 -0.0639  0.3565
 4733TIP3    H235615   5.988   1.520   2.039  0.7583 -1.5339 -0.8513
 4734TIP3   OH235616   0.201   4.204   5.811 -0.5108 -0.1376  0.9929
 4734TIP3    H135617   0.292   4.174   5.816 -0.3240  0.6331  2.6723
 4734TIP3    H235618   0.205   4.281   5.754 -0.3919 -1.0139 -0.2277
 4735TIP3   OH235619   0.462   3.314  14.887 -0.6416  0.0090  0.0453
 4735TIP3    H135620   0.367   3.310  14.896 -0.5653 -0.3571  0.7059
 4735TIP3    H235621   0.496   3.279  14.969  0.0657 -0.0620 -0.2692
 4736TIP3   OH235622   5.943   0.964  15.320  0.8902 -0.9186  0.0494
 4736TIP3    H135623   6.003   1.037  15.307 -0.2424  0.2747  1.2120
 4736TIP3    H235624   5.969   0.925  15.403 -2.1008  1.9728  2.6066
 4737TIP3   OH235625   3.201   4.159   0.941 -0.0674 -0.1573 -1.0763
 4737TIP3    H135626   3.219   4.243   0.983  1.1516 -0.5027 -0.8774
 4737TIP3    H235627   3.124   4.125   0.987  0.2633  0.2120 -0.2348
 4738TIP3   OH235628   0.012   2.572  15.561 -0.5936 -0.1264  0.4452
 4738TIP3    H135629  -0.076   2.578  15.598 -0.9815  1.7362 -0.6551
 4738TIP3    H235630   0.021   2.480  15.535 -2.3640 -0.2743  0.2401
 4739TIP3   OH235631   3.410   3.661   2.920 -0.2883  0.8013  0.2888
 4739TIP3    H135632   3.317   3.683   2.911 -0.7636 -1.1803 -0.2293
 4739TIP3    H235633   3.432   3.619   2.836  0.5122 -0.5145  1.1191
 4740TIP3   OH235634   0.746   1.288  12.784 -0.3926 -0.0360  0.2820
 4740TIP3    H135635   0.737   1.366  12.839 -1.2908  0.8378 -1.0437
 4740TIP3    H235636   0.736   1.215  12.844 -0.5111  0.8758  1.4033
 4741TIP3   OH235637   4.506   5.123   5.259  0.1008 -0.1136 -0.3666
 4741TIP3    H135638   4.498   5.139   5.353  0.9737 -1.8611  0.0491
 4741TIP3    H235639   4.509   5.211   5.220  0.2599  0.6528  1.2798
 4742TIP3   OH235640   5.869   1.826   3.713  0.7344 -0.3751  0.0236
 4742TIP3    H135641   5.936   1.833   3.781  1.8932  0.2882 -1.1362
 4742TIP3    H235642   5.919   1.816   3.632 -0.6037 -2.7508 -0.6097
 4743TIP3   OH235643   1.749   6.380   4.212 -0.3896  0.2140 -0.2280
 4743TIP3    H135644   1.709   6.327   4.144  0.8359 -0.4865 -0.4322
 4743TIP3    H235645   1.742   6.470   4.180 -0.5147 -0.0331 -0.9137
 4744TIP3   OH235646   6.419   5.558  13.039  0.4408  0.0383 -0.4313
 4744TIP3    H135647   6.372   5.475  13.048 -0.2422  0.5954  1.9448
 4744TIP3    H235648   6.354   5.620  13.005  0.7241 -0.1747 -1.4006
 4745TIP3   OH235649   5.413   1.699  10.835 -0.5337 -0.0582  0.4941
 4745TIP3    H135650   5.479   1.638  10.805 -1.3172 -0.5085 -0.3860
 4745TIP3    H235651   5.336   1.680  10.781 -0.3437  2.7294 -0.9451
 4746TIP3   OH235652   2.576   1.235  13.088  0.0188  0.0619 -0.0834
 4746TIP3    H135653   2.641   1.193  13.145  0.4451  2.7088  1.5298
 4746TIP3    H235654   2.492   1.198  13.116  0.4859 -0.8261  0.2040
 4747TIP3   OH235655   3.060   3.183   0.412 -0.5824  0.0301  0.1163
 4747TIP3    H135656   3.084   3.215   0.325  1.4333  1.5419  1.1354
 4747TIP3    H235657   2.983   3.234   0.437  0.5887  1.7643  0.3447
 4748TIP3   OH235658   5.688   1.577   0.667  0.3354 -0.5041 -0.0785
 4748TIP3    H135659   5.679   1.522   0.744 -1.2575  0.1464  0.2349
 4748TIP3    H235660   5.628   1.650   0.682  1.5882  0.7770 -0.9588
 4749TIP3   OH235661   0.953   0.727  15.540 -0.3925 -0.2154  0.4976
 4749TIP3    H135662   0.957   0.766  15.453  1.1832  1.5817  1.2858
 4749TIP3    H235663   1.034   0.675  15.547 -1.0425 -1.2500  0.5169
 4750TIP3   OH235664   0.849   6.397   2.335 -0.2087  0.4419 -0.2781
 4750TIP3    H135665   0.845   6.301   2.328 -1.7843  0.5839 -2.1118
 4750TIP3    H235666   0.776   6.419   2.393 -0.0942  0.5568 -0.1784
 4751TIP3   OH235667   4.797   2.772   2.168 -0.3781  0.1948 -0.0457
 4751TIP3    H135668   4.741   2.758   2.092  1.3816 -1.4950 -1.1345
 4751TIP3    H235669   4.756   2.720   2.237 -0.7459 -0.1366 -0.5039
 4752TIP3   OH235670   0.982   0.659  13.851 -0.1188  0.2322 -0.5354
 4752TIP3    H135671   0.903   0.704  13.881 -0.3255  0.1553 -0.9614
 4752TIP3    H235672   1.021   0.623  13.931 -0.1816  0.7930 -0.2440
 4753TIP3   OH235673   0.032   3.986  11.818 -0.6565  0.1230 -0.5803
 4753TIP3    H135674   0.009   4.077  11.839 -2.6694  0.0146 -2.0141
 4753TIP3    H235675  -0.027   3.934  11.873  0.7032 -0.3607  0.4657
 4754TIP3   OH235676   5.121   2.436  11.557 -0.0122 -0.2642  0.6786
 4754TIP3    H135677   5.166   2.398  11.632  0.3942  0.3006  0.7254
 4754TIP3    H235678   5.064   2.366  11.525  2.1539 -1.5998 -0.4591
 4755TIP3   OH235679   0.636   6.080   6.152  0.2649  0.2096 -0.0566
 4755TIP3    H135680   0.650   6.174   6.142  0.7993 -0.0363 -2.0347
 4755TIP3    H235681   0.558   6.062   6.099  0.2599 -0.4915  0.1815
 4756TIP3   OH235682   1.876   1.709  14.164  0.6575 -0.1815  0.3174
 4756TIP3    H135683   1.831   1.632  14.128  1.0493  0.1658 -0.9859
 4756TIP3    H235684   1.866   1.776  14.097  4.1744 -0.4539 -0.7131
 4757TIP3   OH235685   6.163   2.419   3.323 -0.2528 -0.3353 -0.9874
 4757TIP3    H135686   6.241   2.447   3.370 -0.5311 -0.7892 -0.2513
 4757TIP3    H235687   6.091   2.468   3.363 -0.7032 -1.8200  0.1093
 4758TIP3   OH235688   5.847   5.950  15.640  0.4326 -0.0575  0.1064
 4758TIP3    H135689   5.763   5.909  15.618 -0.8374  1.2007  2.2563
 4758TIP3    H235690   5.899   5.878  15.677  0.7846 -1.0885 -2.2324
 4759TIP3   OH235691   0.398   2.183  14.386  0.0960 -0.2427  0.0696
 4759TIP3    H135692   0.482   2.164  14.343 -0.2536 -0.4013 -0.5682
 4759TIP3    H235693   0.402   2.137  14.469 -0.3344 -2.3550 -1.0203
 4760TIP3   OH235694   1.066   0.069   4.261 -0.1026  0.0526 -0.0283
 4760TIP3    H135695   1.073   0.072   4.166  0.3920 -0.2657 -0.0035
 4760TIP3    H235696   0.995   0.131   4.281 -0.1095  0.2364 -0.5881
 4761TIP3   OH235697   3.235   5.182  10.991 -0.2491 -0.0592  0.4569
 4761TIP3    H135698   3.148   5.202  10.956 -0.1316  0.3712  0.4012
 4761TIP3    H235699   3.220   5.115  11.057 -0.7462  0.7165  1.1447
 4762TIP3   OH235700   0.333   0.440  15.383  0.0091  0.4728 -0.4777
 4762TIP3    H135701   0.246   0.480  15.383 -0.4193 -0.4479 -0.9420
 4762TIP3    H235702   0.393   0.515  15.390 -0.8261  1.0467  1.2024
 4763TIP3   OH235703   0.225   4.653  11.245  0.1417 -0.0466 -0.2752
 4763TIP3    H135704   0.206   4.702  11.166 -0.4735  0.8244  0.3979
 4763TIP3    H235705   0.238   4.563  11.215 -3.7044 -0.5123 -1.0098
 4764TIP3   OH235706   1.723   4.970  12.502 -0.3030 -0.2222 -0.5048
 4764TIP3    H135707   1.727   4.976  12.597 -1.8135 -1.1946 -0.3375
 4764TIP3    H235708   1.631   4.986  12.480 -0.0877 -0.5418 -1.7502
 4765TIP3   OH235709   1.477   4.450   1.032 -0.1276  0.1445  0.1938
 4765TIP3    H135710   1.572   4.454   1.040 -0.1598 -0.0973  0.6887
 4765TIP3    H235711   1.444   4.488   1.113 -0.4488 -0.4038  0.3290
 4766TIP3   OH235712   1.448   2.379  14.880  0.4926  0.3089  0.3343
 4766TIP3    H135713   1.480   2.373  14.971 -0.8087  1.9430  0.9532
 4766TIP3    H235714   1.360   2.416  14.888  0.2407  0.2194 -1.5986
 4767TIP3   OH235715   0.865   3.759   1.017  0.0583  0.1531  0.4328
 4767TIP3    H135716   0.857   3.837   0.963 -0.9288  1.4242  2.3012
 4767TIP3    H235717   0.942   3.776   1.072  0.8658 -0.9750 -0.3064
 4768TIP3   OH235718   2.496   5.895  13.584  0.6375 -0.0216  0.5802
 4768TIP3    H135719   2.466   5.984  13.567 -0.4214 -0.5790 -0.7205
 4768TIP3    H235720   2.584   5.892  13.546 -0.2580 -0.1598 -1.6681
 4769TIP3   OH235721   6.270   6.048   0.860  0.7839 -0.2613 -0.0931
 4769TIP3    H135722   6.188   5.999   0.861 -0.0914  1.1802  0.2137
 4769TIP3    H235723   6.318   6.014   0.936  1.0617 -2.0149 -0.9901
 4770TIP3   OH235724   5.205   2.118  14.756 -0.1757 -0.0198  0.4370
 4770TIP3    H135725   5.114   2.107  14.784  0.2520 -0.9314  1.5812
 4770TIP3    H235726   5.204   2.195  14.700 -1.7175 -0.2495  0.1019
 4771TIP3   OH235727   1.948   5.400   3.283  0.2299 -0.3879  0.1030
 4771TIP3    H135728   1.995   5.483   3.273  1.7563 -1.1977  0.2923
 4771TIP3    H235729   1.929   5.395   3.377  0.4538 -0.4173  0.1473
 4772TIP3   OH235730   4.064   3.134  16.078  0.1337  0.2695 -0.4549
 4772TIP3    H135731   3.970   3.119  16.072 -0.4366  2.1045  2.0015
 4772TIP3    H235732   4.087   3.106  16.167  1.0640  3.1743  0.3541
 4773TIP3   OH235733   5.727   3.331   2.624  0.2515  0.3228 -0.1189
 4773TIP3    H135734   5.686   3.246   2.638  0.8492 -0.0164 -0.3660
 4773TIP3    H235735   5.813   3.310   2.588 -0.0118  1.0600 -1.2398
 4774TIP3   OH235736   0.542   6.237  14.613  0.2872 -0.0890 -0.1033
 4774TIP3    H135737   0.447   6.230  14.619  0.2528 -0.2256 -0.7517
 4774TIP3    H235738   0.561   6.226  14.520  0.8422  1.1152 -0.1562
 4775TIP3   OH235739   5.001   6.647  16.412 -0.5694  0.5679 -0.3703
 4775TIP3    H135740   5.052   6.676  16.336 -0.7342 -0.3847 -0.8524
 4775TIP3    H235741   4.939   6.583  16.377 -0.0378 -0.5714  0.7113
 4776TIP3   OH235742   0.556   2.381   3.011 -0.0852  0.4164  0.6164
 4776TIP3    H135743   0.560   2.451   2.946 -0.9404 -0.9682 -1.0152
 4776TIP3    H235744   0.469   2.390   3.050 -0.1477  0.3413  0.4947
 4777TIP3   OH235745   3.535   1.742   4.152  0.1233  0.2949 -0.1666
 4777TIP3    H135746   3.528   1.703   4.239  0.7601 -0.3076 -0.3710
 4777TIP3    H235747   3.588   1.821   4.165 -0.3211  0.5507  0.0912
 4778TIP3   OH235748   3.904   4.858   1.166 -0.1061 -0.2490  0.0915
 4778TIP3    H135749   3.850   4.850   1.244  0.1303 -0.9743  0.1905
 4778TIP3    H235750   3.994   4.849   1.198 -0.0494 -1.6326 -0.3699
 4779TIP3   OH235751   1.632   3.599  15.666 -0.7226  0.6025 -0.8759
 4779TIP3    H135752   1.709   3.606  15.610 -0.1498 -1.3520 -0.3901
 4779TIP3    H235753   1.664   3.614  15.754 -0.9183 -0.0812 -0.6845
 4780TIP3   OH235754   2.202   6.697   5.456  0.0232  0.5969  0.1562
 4780TIP3    H135755   2.253   6.699   5.537  0.2249 -0.0657  0.0482
 4780TIP3    H235756   2.250   6.753   5.396 -0.7604  2.0836  0.8538
 4781TIP3   OH235757   1.913   5.526  14.588  0.0246 -0.3437 -0.0444
 4781TIP3    H135758   1.903   5.505  14.495 -1.6144 -0.7580  0.1888
 4781TIP3    H235759   1.982   5.468  14.619 -0.0437 -0.8454 -0.8118
 4782TIP3   OH235760   1.958   1.487  11.692 -0.1342 -0.4950  0.1209
 4782TIP3    H135761   2.027   1.421  11.697  0.1224 -0.2837 -0.5420
 4782TIP3    H235762   1.914   1.470  11.609 -0.2569 -0.0276  0.0872
 4783TIP3   OH235763   4.657   0.806   0.513 -0.2181 -0.3093 -0.3945
 4783TIP3    H135764   4.579   0.800   0.458  0.1805 -1.0294 -0.8892
 4783TIP3    H235765   4.730   0.810   0.451  0.1640  0.0531  0.0679
 4784TIP3   OH235766   3.481   6.698  12.985  0.6719  0.2758  0.0022
 4784TIP3    H135767   3.386   6.708  12.984  0.8154  2.0657 -1.4817
 4784TIP3    H235768   3.496   6.608  12.955 -0.5322 -0.2028  0.7516
 4785TIP3   OH235769   3.648   2.441  17.204  0.0489 -0.4872 -0.3914
 4785TIP3    H135770   3.729   2.491  17.197  0.2287 -0.6196  0.6514
 4785TIP3    H235771   3.583   2.503  17.237  0.6274 -1.2445  2.3705
 4786TIP3   OH235772   1.201   2.938  17.288 -0.1675  0.9818 -0.2703
 4786TIP3    H135773   1.130   3.002  17.295 -1.4600 -0.5322  1.2944
 4786TIP3    H235774   1.166   2.867  17.235 -0.7924 -0.8456  2.3798
 4787TIP3   OH235775   3.883   0.156  15.328  0.7755 -0.2367  0.3580
 4787TIP3    H135776   3.935   0.081  15.356 -0.6888 -1.2211  0.5603
 4787TIP3    H235777   3.907   0.227  15.388  1.8372 -0.6678  0.4557
 4788TIP3   OH235778   6.503   2.638  15.592  0.1177 -0.0526 -0.2169
 4788TIP3    H135779   6.513   2.607  15.502  0.5894  0.8936 -0.5010
 4788TIP3    H235780   6.481   2.731  15.583  0.4974  0.1329  0.6530
 4789TIP3   OH235781   2.110   3.825  17.025  0.6024 -0.0963 -0.2567
 4789TIP3    H135782   2.077   3.801  17.111 -1.9064 -0.9995 -1.3502
 4789TIP3    H235783   2.167   3.900  17.041 -1.3938  1.1016  2.0100
 4790TIP3   OH235784   6.506   4.990   0.008  0.3807  0.3878 -0.1726
 4790TIP3    H135785   6.413   5.014   0.011  0.0819 -0.5197 -1.3310
 4790TIP3    H235786   6.523   4.974  -0.085  1.3731 -0.6245  0.1646
 4791TIP3   OH235787   4.428   3.778  10.531  0.0785  0.6301  0.1021
 4791TIP3    H135788   4.522   3.764  10.536  0.0445 -0.1897 -1.1223
 4791TIP3    H235789   4.414   3.820  10.446 -0.7967 -0.7284 -0.4690
 4792TIP3   OH235790   1.519   6.755   1.585  0.8530 -0.4955  0.1368
 4792TIP3    H135791   1.447   6.799   1.631  1.6880 -0.4916  1.5068
 4792TIP3    H235792   1.477   6.709   1.513 -0.4140  0.1982  0.4000
 4793TIP3   OH235793   6.636   1.892  13.738  0.0045 -0.0024 -0.1792
 4793TIP3    H135794   6.544   1.899  13.712  0.2428  1.6623 -0.6959
 4793TIP3    H235795   6.670   1.820  13.685 -0.5766  0.5555 -1.3678
 4794TIP3   OH235796   6.661   0.708   3.211  0.2437  0.0594 -0.0820
 4794TIP3    H135797   6.576   0.668   3.224  1.1771 -1.6715  1.1382
 4794TIP3    H235798   6.685   0.685   3.121 -0.0786 -0.4457 -0.0403
 4795TIP3   OH235799   1.578   4.836  12.976  0.0515  0.1579  0.0448
 4795TIP3    H135800   1.647   4.887  12.935  0.2955 -0.1418  0.0798
 4795TIP3    H235801   1.497   4.878  12.948  0.2538  0.6878  0.2418
 4796TIP3   OH235802   6.307   1.858   3.901  0.3425  0.1456 -0.0635
 4796TIP3    H135803   6.339   1.891   3.985  1.3453 -4.2650  1.5660
 4796TIP3    H235804   6.370   1.891   3.836  0.4952  2.2919  1.1101
 4797TIP3   OH235805   5.064   5.136  10.975 -0.2416  0.5416  0.2373
 4797TIP3    H135806   5.086   5.209  10.918  0.5702 -0.0728 -0.2642
 4797TIP3    H235807   4.975   5.154  11.005 -0.6392  0.9504 -1.1170
 4798TIP3   OH235808   1.115   6.403  13.210  0.0437 -0.5206 -0.1272
 4798TIP3    H135809   1.073   6.459  13.144  1.7795  0.0685 -0.8082
 4798TIP3    H235810   1.207   6.399  13.182  0.1192 -3.1919  0.2798
 4799TIP3   OH235811   6.158   5.791   6.059 -0.1512  0.0638  0.3983
 4799TIP3    H135812   6.208   5.841   5.993 -0.4589  2.0017  1.5528
 4799TIP3    H235813   6.066   5.805   6.035 -0.2551 -1.5701 -0.3445
 4800TIP3   OH235814   2.732   6.293   3.400  0.1978  0.0076 -0.1063
 4800TIP3    H135815   2.802   6.355   3.416 -0.1416  0.6095 -0.8745
 4800TIP3    H235816   2.769   6.232   3.336  0.0513  0.2877 -0.4631
 4801TIP3   OH235817   2.150   4.983   4.266  0.4889  0.0289 -0.2754
 4801TIP3    H135818   2.076   5.044   4.267  0.1597 -0.3581 -0.6020
 4801TIP3    H235819   2.196   5.002   4.185 -1.5226 -2.3597 -2.1671
 4802TIP3   OH235820   1.839   5.099   5.342  0.1928  0.2463  0.0878
 4802TIP3    H135821   1.896   5.108   5.418 -0.0781  0.1312  0.3054
 4802TIP3    H235822   1.840   5.185   5.301  0.3525  0.3039  0.2114
 4803TIP3   OH235823   0.048   3.092   2.337  0.8408  0.1336 -0.1330
 4803TIP3    H135824   0.126   3.044   2.365  1.3124  2.0169  2.1435
 4803TIP3    H235825  -0.023   3.054   2.389  1.1545  1.4996  1.4032
 4804TIP3   OH235826   5.001   1.427   3.461 -0.0610  1.3470 -0.2461
 4804TIP3    H135827   5.039   1.505   3.502  0.2634  1.1995 -0.2623
 4804TIP3    H235828   4.913   1.454   3.437  0.3566  2.0037 -1.0964
 4805TIP3   OH235829   5.661   4.715   0.805 -0.5221 -0.3281 -0.1161
 4805TIP3    H135830   5.678   4.798   0.761 -1.2085 -0.6868 -1.0769
 4805TIP3    H235831   5.748   4.683   0.829 -0.3005  1.7712  2.4427
 4806TIP3   OH235832   1.282   1.370  13.807  0.4958  0.8529 -1.1906
 4806TIP3    H135833   1.205   1.426  13.814  0.0761  0.1929 -0.2676
 4806TIP3    H235834   1.250   1.282  13.829  1.3516  0.4359 -1.5562
 4807TIP3   OH235835   2.752   5.469  10.837  0.3610 -0.4662  0.1205
 4807TIP3    H135836   2.819   5.524  10.797  0.6598  0.5758  1.9438
 4807TIP3    H235837   2.798   5.421  10.906 -0.4683 -0.8493  0.4279
 4808TIP3   OH235838   5.494   6.073   5.727 -0.7142  0.1219  0.4281
 4808TIP3    H135839   5.531   6.061   5.814  0.6239  0.6643 -0.0357
 4808TIP3    H235840   5.400   6.081   5.742 -0.6082 -0.7328  1.7106
 4809TIP3   OH235841   1.188   0.835   4.128 -0.0851 -0.7122 -0.3621
 4809TIP3    H135842   1.177   0.814   4.221 -1.3000  0.2062 -0.2636
 4809TIP3    H235843   1.282   0.845   4.116  0.1691 -1.8837  0.5264
 4810TIP3   OH235844   3.089   0.205  12.764 -0.0745  0.1714  0.3509
 4810TIP3    H135845   3.092   0.265  12.689  0.6269  0.0011  0.2294
 4810TIP3    H235846   3.044   0.127  12.731 -0.1780  0.2780  0.2397
 4811TIP3   OH235847   2.736   5.848   3.097  0.0310  0.0370 -0.0214
 4811TIP3    H135848   2.761   5.891   3.179 -3.0650  1.9625  0.0229
 4811TIP3    H235849   2.670   5.784   3.123  0.2728 -0.5761 -0.8663
 4812TIP3   OH235850   1.380   1.304  11.181  0.2173  0.6332 -0.5713
 4812TIP3    H135851   1.400   1.392  11.215 -0.6862  0.5021  0.3366
 4812TIP3    H235852   1.287   1.291  11.202  0.3007 -0.4674 -0.8602
 4813TIP3   OH235853   1.975   3.649   2.506 -0.2707 -0.2219 -0.1969
 4813TIP3    H135854   2.025   3.729   2.524 -1.2773  0.5900 -0.8562
 4813TIP3    H235855   1.929   3.631   2.588 -0.6785  0.3521 -0.2968
 4814TIP3   OH235856   3.560   0.836   3.157 -0.1981  0.0393  0.4590
 4814TIP3    H135857   3.620   0.884   3.100  1.6149 -0.2734  2.0184
 4814TIP3    H235858   3.581   0.866   3.246  0.4764 -2.9612  1.4501
 4815TIP3   OH235859   5.018   1.636  11.753 -0.0146  0.1904  0.1414
 4815TIP3    H135860   5.087   1.572  11.738  0.6424  0.9874 -0.2775
 4815TIP3    H235861   5.061   1.721  11.745 -1.3292  0.7468 -1.7997
 4816TIP3   OH235862   0.311   2.968   0.155  0.1688  0.1639  0.2033
 4816TIP3    H135863   0.374   2.896   0.169  2.1735  1.8566  0.4497
 4816TIP3    H235864   0.228   2.934   0.190  0.7197 -2.4434 -0.7509
 4817TIP3   OH235865   4.590   4.785  11.537 -0.3415 -0.2358 -0.1998
 4817TIP3    H135866   4.530   4.842  11.586  0.3603  0.7776 -0.4846
 4817TIP3    H235867   4.552   4.697  11.546 -1.1569  0.1868  0.7048
 4818TIP3   OH235868   2.950   6.058  13.169  0.8091 -0.0596  0.1546
 4818TIP3    H135869   2.865   6.078  13.209  1.7881  0.8305  1.9027
 4818TIP3    H235870   2.942   5.967  13.140 -1.8349  0.9338 -2.7895
 4819TIP3   OH235871   5.489   3.227  12.935  0.3170  0.2950 -0.0054
 4819TIP3    H135872   5.538   3.157  12.977  1.5602  1.7025  0.9681
 4819TIP3    H235873   5.404   3.227  12.980  0.0665 -0.9169 -0.4188
 4820TIP3   OH235874   0.584   2.036   3.988 -0.0825 -0.4712 -0.2376
 4820TIP3    H135875   0.511   2.073   4.038  1.4589  0.3418  1.5538
 4820TIP3    H235876   0.642   2.110   3.972  0.6745 -1.2092 -1.0501
 4821TIP3   OH235877   6.632   3.130   0.707  0.2616 -0.5103  0.3072
 4821TIP3    H135878   6.705   3.070   0.692  0.5801  0.0408 -0.4165
 4821TIP3    H235879   6.649   3.169   0.792  0.6129 -0.6647  0.3072
 4822TIP3   OH235880   6.366   3.160   4.234  0.3994 -0.0481 -0.2330
 4822TIP3    H135881   6.336   3.228   4.294 -0.0180 -0.2320 -0.2314
 4822TIP3    H235882   6.449   3.194   4.200  0.0595  0.5933 -0.4449
 4823TIP3   OH235883   5.227   2.426   3.948  0.0402 -0.3225  0.7119
 4823TIP3    H135884   5.202   2.433   3.856  0.1212 -2.3737  0.4907
 4823TIP3    H235885   5.320   2.450   3.950  0.2289 -0.9868  0.1358
 4824TIP3   OH235886   6.277   6.004   3.167  0.1703  0.5226  0.0158
 4824TIP3    H135887   6.207   6.045   3.219 -0.6702  1.3970 -1.7125
 4824TIP3    H235888   6.236   5.984   3.083  1.5727 -0.5318 -0.4577
 4825TIP3   OH235889   0.855   1.698  13.113 -0.5423  0.4214  0.3182
 4825TIP3    H135890   0.919   1.744  13.166  0.9681 -0.8819 -0.3011
 4825TIP3    H235891   0.771   1.719  13.153  0.4413  0.4282  2.4872
 4826TIP3   OH235892   6.429   0.556   0.731 -0.3043  0.2233  0.0749
 4826TIP3    H135893   6.384   0.578   0.812  0.2947  0.0263  0.4756
 4826TIP3    H235894   6.522   0.562   0.753 -0.1088  1.4981 -0.9667
 4827TIP3   OH235895   6.595   4.837  15.395 -0.7680  0.3949  0.1042
 4827TIP3    H135896   6.515   4.884  15.371  0.2287  1.4782 -1.2376
 4827TIP3    H235897   6.664   4.882  15.347  0.2365 -2.6873 -1.5235
 4828TIP3   OH235898   3.312   4.448  14.209  0.0476  0.4574 -0.6091
 4828TIP3    H135899   3.360   4.467  14.290  1.0991 -0.6535 -0.9306
 4828TIP3    H235900   3.308   4.531  14.163 -2.0965  1.5424  1.3149
 4829TIP3   OH235901   0.932   1.067  16.995 -0.4009 -0.3786  0.0900
 4829TIP3    H135902   0.961   1.038  16.909  1.5264 -0.6083  0.7661
 4829TIP3    H235903   0.907   1.159  16.982  0.7989 -0.1190 -0.5523
 4830TIP3   OH235904   3.846   0.012   3.345  0.1464  0.4505  0.2021
 4830TIP3    H135905   3.770  -0.042   3.322  0.5257  0.6946 -1.8742
 4830TIP3    H235906   3.820   0.057   3.426 -2.7774  1.9841 -1.3955
 4831TIP3   OH235907   3.137   4.045  16.387  0.2130 -0.5056 -0.3514
 4831TIP3    H135908   3.145   4.004  16.473 -0.5358  1.8487  0.9193
 4831TIP3    H235909   3.226   4.076  16.367  0.5973 -1.8925 -0.9323
 4832TIP3   OH235910   3.194   6.768   1.577  0.0295  0.7072  0.1123
 4832TIP3    H135911   3.128   6.777   1.645 -2.0668  0.1984 -1.7212
 4832TIP3    H235912   3.174   6.840   1.516  0.7059  0.1118 -0.8300
 4833TIP3   OH235913   6.282   4.436  13.386 -0.1948 -0.4341  0.3001
 4833TIP3    H135914   6.277   4.511  13.327  4.3534 -1.2228 -1.5499
 4833TIP3    H235915   6.213   4.450  13.450 -2.4907  2.8914 -2.5489
 4834TIP3   OH235916   5.820   5.910   1.205 -0.5696  0.0636  0.5221
 4834TIP3    H135917   5.857   5.863   1.280 -1.8169 -0.6266  0.7333
 4834TIP3    H235918   5.736   5.867   1.188  0.3142 -0.8201 -2.2233
 4835TIP3   OH235919   2.015   5.570  14.032 -0.5403  0.4805 -0.3469
 4835TIP3    H135920   2.080   5.501  14.024  0.2154  1.2670 -1.2176
 4835TIP3    H235921   1.945   5.545  13.972 -0.4777  0.2424 -0.3208
 4836TIP3   OH235922   4.816   4.205  14.021  0.0520 -0.2059 -0.1685
 4836TIP3    H135923   4.833   4.287  13.975 -0.3068 -0.3669 -0.5994
 4836TIP3    H235924   4.764   4.230  14.097 -0.3267 -0.0712 -0.4699
 4837TIP3   OH235925   5.177   1.444   4.627 -0.1596 -0.3105 -0.4689
 4837TIP3    H135926   5.109   1.461   4.561 -0.4841 -0.6518 -0.2291
 4837TIP3    H235927   5.247   1.401   4.578 -0.5985 -0.9951 -0.5134
 4838TIP3   OH235928   5.284   2.733  14.634 -0.2287  0.2609 -0.0517
 4838TIP3    H135929   5.313   2.689  14.555 -1.7446 -1.4480  0.2815
 4838TIP3    H235930   5.299   2.670  14.704 -1.1198  0.8196  0.6707
 4839TIP3   OH235931   4.057   6.198   2.262  0.2037  0.2933  0.2102
 4839TIP3    H135932   4.140   6.230   2.226 -1.1015  0.6606 -2.7583
 4839TIP3    H235933   4.006   6.277   2.278 -0.0606  0.0155  0.7478
 4840TIP3   OH235934   3.460   5.611  11.795  0.1607  0.5199  0.0006
 4840TIP3    H135935   3.550   5.643  11.785  0.0157  0.5979 -1.1477
 4840TIP3    H235936   3.460   5.526  11.751 -0.6397  1.1091 -1.1756
 4841TIP3   OH235937   2.532   4.845   5.265 -0.0119 -0.1596  0.2014
 4841TIP3    H135938   2.590   4.918   5.241  0.2727 -0.2308  0.6543
 4841TIP3    H235939   2.536   4.786   5.190 -1.4680  1.0066 -0.8733
 4842TIP3   OH235940   6.436   2.832  14.921  0.1185 -0.4594 -0.1343
 4842TIP3    H135941   6.405   2.763  14.980 -0.3751  1.1631  1.6017
 4842TIP3    H235942   6.357   2.883  14.901  0.6998  0.3972 -0.2889
 4843TIP3   OH235943   2.515   6.475   1.906  0.4865  0.1618  0.5874
 4843TIP3    H135944   2.556   6.498   1.823  0.3879 -0.8735  0.2344
 4843TIP3    H235945   2.435   6.429   1.881 -0.7851  1.9045  1.2691
 4844TIP3   OH235946   3.404   1.836  15.711  0.5888 -0.0452  0.6575
 4844TIP3    H135947   3.333   1.869  15.656  2.0034  2.1815 -0.0122
 4844TIP3    H235948   3.403   1.742  15.697 -2.7345 -0.2347  1.3986
 4845TIP3   OH235949   1.354   6.519   0.876 -0.0433  0.3004 -0.1326
 4845TIP3    H135950   1.288   6.451   0.858  1.0847 -1.0631  0.6301
 4845TIP3    H235951   1.401   6.529   0.793 -0.0302 -0.0884 -0.1768
 4846TIP3   OH235952   0.104   4.025   4.909 -0.7729 -1.0317  0.0287
 4846TIP3    H135953   0.117   4.083   4.984 -1.3921 -1.4554  0.4767
 4846TIP3    H235954   0.009   4.022   4.897 -0.7316 -1.6644 -0.2050
 4847TIP3   OH235955   0.537   3.826  16.682 -0.2559 -0.5459 -0.1941
 4847TIP3    H135956   0.485   3.905  16.677 -0.3087 -0.6454 -2.1309
 4847TIP3    H235957   0.596   3.840  16.756 -0.0701  1.4239 -0.6666
 4848TIP3   OH235958   4.117   5.165  14.824 -0.3059  0.3111  0.0275
 4848TIP3    H135959   4.082   5.088  14.868 -0.5794  0.1816 -0.4172
 4848TIP3    H235960   4.212   5.148  14.818 -0.3527  0.0489  0.0081
 4849TIP3   OH235961   1.660   5.565   4.917  0.7130  0.8178 -0.0010
 4849TIP3    H135962   1.652   5.657   4.941  1.9432  0.6400  1.2346
 4849TIP3    H235963   1.610   5.518   4.985 -1.7572  0.6252 -1.8105
 4850TIP3   OH235964   6.273   3.706  11.536 -0.0489 -0.2396  0.1910
 4850TIP3    H135965   6.250   3.798  11.535 -0.7245 -0.3906  0.9929
 4850TIP3    H235966   6.358   3.703  11.580 -0.2458 -0.0510  0.5812
 4851TIP3   OH235967   4.908   0.373   4.243 -0.0169  0.6322  0.2254
 4851TIP3    H135968   4.873   0.442   4.186 -0.3107  1.0883  0.9392
 4851TIP3    H235969   5.001   0.369   4.221 -0.6040 -1.3637 -2.5150
 4852TIP3   OH235970   2.214   3.509  13.126 -0.0541  0.6113 -0.2516
 4852TIP3    H135971   2.127   3.551  13.130 -0.8846 -1.1376  2.0461
 4852TIP3    H235972   2.195   3.416  13.132  1.9994  0.1818 -0.0032
 4853TIP3   OH235973   2.267   5.296  12.329 -0.1180  0.2926  0.2448
 4853TIP3    H135974   2.234   5.349  12.255  0.0780  1.1533  0.7560
 4853TIP3    H235975   2.335   5.241  12.290  0.8620  1.6146 -0.0219
 4854TIP3   OH235976   2.311   3.915   6.324 -0.1595 -0.3070 -0.1691
 4854TIP3    H135977   2.393   3.965   6.319 -0.5797  0.3234 -0.7653
 4854TIP3    H235978   2.302   3.875   6.238 -0.7052 -0.0192 -0.2483
 4855TIP3   OH235979   0.883   4.089  15.769  0.2737 -0.1722 -0.3708
 4855TIP3    H135980   0.854   4.180  15.762 -0.2957 -0.1435  1.5889
 4855TIP3    H235981   0.839   4.043  15.698 -0.0203  0.9514 -0.9246
 4856TIP3   OH235982   1.445   0.425  15.785  0.6443 -0.0707  0.2881
 4856TIP3    H135983   1.487   0.345  15.817  0.0303  0.0060  1.3187
 4856TIP3    H235984   1.352   0.413  15.803  0.0918 -0.4318 -2.3852
 4857TIP3   OH235985   6.439   1.983   5.480 -0.1325  0.4797 -0.3524
 4857TIP3    H135986   6.398   2.070   5.486  1.5313  1.2681  0.0782
 4857TIP3    H235987   6.433   1.949   5.569 -0.9931  0.0181 -0.5690
 4858TIP3   OH235988   5.467   3.208   4.077 -0.1420  0.4455  0.2377
 4858TIP3    H135989   5.488   3.182   3.988 -3.1199  1.2215 -0.8273
 4858TIP3    H235990   5.411   3.138   4.110 -0.2633  0.8619  0.9432
 4859TIP3   OH235991   3.049   4.093  14.065  0.3460 -0.1124  0.2427
 4859TIP3    H135992   2.973   4.144  14.094  0.4107 -1.3234  2.8323
 4859TIP3    H235993   3.098   4.153  14.009 -2.5570  0.6573 -1.7203
 4860TIP3   OH235994   5.832   1.969  11.950  0.0779 -0.4813 -0.2710
 4860TIP3    H135995   5.895   1.993  12.018 -1.4123 -0.3123  1.1169
 4860TIP3    H235996   5.872   1.893  11.907  1.0431 -0.6322  0.8350
 4861TIP3   OH235997   6.305   4.709  14.912  0.0903  0.4404  0.2278
 4861TIP3    H135998   6.238   4.750  14.966 -0.3421  0.4104 -0.2812
 4861TIP3    H235999   6.383   4.707  14.968 -0.1117  1.1930  0.5404
 4862TIP3   OH236000   1.218   2.081  13.691  0.1384 -0.3449 -0.1933
 4862TIP3    H136001   1.185   2.100  13.779 -1.6044  0.1287 -0.8956
 4862TIP3    H236002   1.252   1.992  13.696 -1.0263 -0.7661  0.6844
 4863TIP3   OH236003   2.067   0.787   1.852  0.4790 -0.7183  0.4345
 4863TIP3    H136004   1.971   0.788   1.863  0.4817  0.5866  0.5796
 4863TIP3    H236005   2.083   0.851   1.783  1.3426  0.3740  1.5949
 4864TIP3   OH236006   4.163   0.118  12.558 -0.1187  0.1347 -0.3723
 4864TIP3    H136007   4.119   0.074  12.630 -0.3487 -1.3127 -1.3428
 4864TIP3    H236008   4.159   0.211  12.580 -0.8965 -0.2119  1.0662
 4865TIP3   OH236009   5.931   0.692  17.150  0.5281  0.1377  0.3238
 4865TIP3    H136010   5.967   0.748  17.219  0.5314  0.9816 -0.3417
 4865TIP3    H236011   6.000   0.628  17.132  1.2333  0.9927 -0.0998
 4866TIP3   OH236012   2.095   5.667   2.087  0.1305 -0.0477 -0.0943
 4866TIP3    H136013   2.011   5.644   2.050 -1.3612  0.8844  2.4180
 4866TIP3    H236014   2.152   5.593   2.067 -1.5946 -1.2284 -0.8787
 4867TIP3   OH236015   0.399   4.243   0.101  0.0308 -0.1163  0.4255
 4867TIP3    H136016   0.333   4.202   0.156  0.1989  0.4511  1.0620
 4867TIP3    H236017   0.361   4.328   0.076  0.2198 -0.0959  0.1983
 4868TIP3   OH236018   3.014   2.520  13.953  0.2510 -0.6169  0.4668
 4868TIP3    H136019   2.921   2.523  13.975  0.1336  0.5520 -0.0760
 4868TIP3    H236020   3.059   2.523  14.037 -0.2037  1.8727  0.7170
 4869TIP3   OH236021   1.323   4.108  12.892 -0.2051 -0.4747  0.4062
 4869TIP3    H136022   1.416   4.129  12.890  0.0878 -1.4173 -2.8709
 4869TIP3    H236023   1.294   4.122  12.801 -2.4997 -3.1848  0.5723
 4870TIP3   OH236024   0.374   3.738  16.928 -0.2802  0.3165  0.1286
 4870TIP3    H136025   0.310   3.801  16.894 -0.4086 -0.0610 -0.3412
 4870TIP3    H236026   0.324   3.684  16.989 -0.3022  0.3101  0.1059
 4871TIP3   OH236027   6.207   6.055  12.760 -0.2383 -0.0243  0.7528
 4871TIP3    H136028   6.297   6.087  12.749  0.3128 -1.3553  1.1592
 4871TIP3    H236029   6.166   6.119  12.819 -0.4347  2.0980 -1.5098
 4872TIP3   OH236030   4.195   0.066   0.229 -0.2492 -0.3596  0.2227
 4872TIP3    H136031   4.114   0.087   0.183 -0.8622 -1.5307  0.7134
 4872TIP3    H236032   4.214   0.144   0.281  0.3216  0.8962 -1.7669
 4873TIP3   OH236033   2.230   5.426  16.496 -0.2370 -0.2438 -0.2256
 4873TIP3    H136034   2.321   5.416  16.524 -0.6719  0.0776  1.4276
 4873TIP3    H236035   2.232   5.415  16.401  1.5429 -0.1096 -0.2299
 4874TIP3   OH236036   2.235   0.852   0.651 -0.7221 -0.4382 -0.0618
 4874TIP3    H136037   2.278   0.935   0.630  4.0862 -1.8627  2.5958
 4874TIP3    H236038   2.263   0.792   0.582 -2.0725 -0.4912 -0.5906
 4875TIP3   OH236039   6.537   4.946  16.647 -0.3407 -0.6116 -0.0033
 4875TIP3    H136040   6.487   4.990  16.715  0.7360  0.2310  0.2701
 4875TIP3    H236041   6.489   4.966  16.566  0.6139  1.9625 -0.0297
 4876TIP3   OH236042   5.823   4.750  16.720  0.2358  0.5220 -0.3271
 4876TIP3    H136043   5.879   4.695  16.666 -1.3415 -1.8662  0.3321
 4876TIP3    H236044   5.806   4.827  16.665  0.2113 -0.9435 -2.5218
 4877TIP3   OH236045   5.129   6.167   5.588 -0.1840 -0.6347 -0.7295
 4877TIP3    H136046   5.203   6.181   5.529 -1.1442  1.0297 -1.6157
 4877TIP3    H236047   5.162   6.107   5.654  1.6930 -0.5919 -1.5621
 4878TIP3   OH236048   4.293   1.733  11.225  0.1383  0.3995  0.4285
 4878TIP3    H136049   4.206   1.731  11.265 -0.1282 -0.9986 -0.1828
 4878TIP3    H236050   4.291   1.663  11.160  1.4582  0.8852 -0.1554
 4879TIP3   OH236051   2.608   5.276   4.651 -0.2718  0.4479 -0.1944
 4879TIP3    H136052   2.676   5.229   4.700 -0.5963  1.6270  1.4456
 4879TIP3    H236053   2.653   5.351   4.612 -0.3502  0.4324 -0.3168
 4880TIP3   OH236054   4.704   6.580  15.185  0.7062  0.2696 -0.5017
 4880TIP3    H136055   4.700   6.599  15.279 -2.7674 -1.3593 -0.1265
 4880TIP3    H236056   4.657   6.652  15.143 -0.3857 -0.4573 -0.5862
 4881TIP3   OH236057   6.200   4.351   4.573  0.3690  0.2106 -0.4524
 4881TIP3    H136058   6.206   4.439   4.609 -1.9720  0.7287 -1.1497
 4881TIP3    H236059   6.164   4.298   4.644  0.4973  0.0987 -0.4686
 4882TIP3   OH236060   1.868   4.330  13.879 -0.5683  0.6998 -0.1260
 4882TIP3    H136061   1.780   4.367  13.876 -0.5724  0.7012 -0.0139
 4882TIP3    H236062   1.871   4.267  13.807 -0.1425  1.8403 -1.1468
 4883TIP3   OH236063   1.784   0.407  15.486 -0.0140 -0.1110 -0.5188
 4883TIP3    H136064   1.832   0.418  15.404  2.2465 -0.6804  0.6547
 4883TIP3    H236065   1.804   0.486  15.536 -0.0397 -0.5173  0.1374
 4884TIP3   OH236066   2.258   4.701  12.150  0.1286 -0.2586  0.4953
 4884TIP3    H136067   2.193   4.771  12.158 -0.6167 -0.7260 -1.1209
 4884TIP3    H236068   2.299   4.696  12.237 -1.8959  0.1432  1.5272
 4885TIP3   OH236069   5.631   3.882  13.627 -0.0658 -0.3788 -0.0765
 4885TIP3    H136070   5.665   3.805  13.672  0.7402  0.4571  0.8087
 4885TIP3    H236071   5.701   3.909  13.568  0.1554  0.3582  0.5035
 4886TIP3   OH236072   0.456   3.402  10.613  0.0705 -0.1372  0.4251
 4886TIP3    H136073   0.469   3.479  10.667  1.6591  1.5287 -2.1181
 4886TIP3    H236074   0.468   3.433  10.523 -0.5627 -3.0936 -0.8126
 4887TIP3   OH236075   0.368   0.301   4.296  1.0203 -0.4583 -0.1900
 4887TIP3    H136076   0.390   0.209   4.306 -2.0691 -1.3399 -0.3469
 4887TIP3    H236077   0.315   0.304   4.217 -2.4702  0.5833  1.9402
 4888TIP3   OH236078   6.647   4.956  12.329 -0.4286  0.2957 -0.5289
 4888TIP3    H136079   6.642   4.946  12.424 -1.2899 -0.8783 -0.6776
 4888TIP3    H236080   6.675   5.047  12.316 -0.7355  0.6091  0.8323
 4889TIP3   OH236081   3.826   3.508  14.468  0.3550  0.3251 -0.4505
 4889TIP3    H136082   3.780   3.532  14.549 -1.7099 -0.1691 -1.4085
 4889TIP3    H236083   3.848   3.415  14.480 -1.8522 -0.3613 -1.2247
 4890TIP3   OH236084   3.726   1.091  12.949 -0.4790 -0.3080  0.5740
 4890TIP3    H136085   3.765   1.039  12.878 -0.3565 -0.6346  0.8793
 4890TIP3    H236086   3.797   1.105  13.011 -0.7778 -0.6940  1.0113
 4891TIP3   OH236087   6.440   2.541   0.235 -0.1427 -0.2881 -0.0287
 4891TIP3    H136088   6.406   2.521   0.148  1.1201  1.1427 -0.9068
 4891TIP3    H236089   6.393   2.619   0.262 -0.4989 -0.7013  0.5767
 4892TIP3   OH236090   6.414   3.560   4.751  0.7750 -0.1594 -0.3010
 4892TIP3    H136091   6.366   3.489   4.793  0.5925  0.5740  0.7935
 4892TIP3    H236092   6.369   3.574   4.667  0.2932 -0.7676 -0.1497
 4893TIP3   OH236093   1.706   6.532   3.057 -0.4485 -0.0569  0.4483
 4893TIP3    H136094   1.773   6.591   3.022  0.5998 -1.8504 -0.7524
 4893TIP3    H236095   1.722   6.529   3.151  1.6530 -0.9668  0.1098
 4894TIP3   OH236096   3.417   0.470  11.893  0.1183 -0.4666 -0.2764
 4894TIP3    H136097   3.488   0.534  11.882 -0.9673  0.9558  0.6555
 4894TIP3    H236098   3.438   0.400  11.831  1.8309  0.3572 -0.6867
 4895TIP3   OH236099   3.383   1.297   3.526 -0.4090 -0.3384  0.3742
 4895TIP3    H136100   3.433   1.216   3.529 -1.1068 -0.8198 -0.7780
 4895TIP3    H236101   3.332   1.296   3.607  2.2437  0.7481  2.2355
 4896TIP3   OH236102   6.238   1.367   1.928 -0.2550 -0.1507  0.7282
 4896TIP3    H136103   6.182   1.406   1.995 -0.4148 -1.1682  1.1980
 4896TIP3    H236104   6.269   1.442   1.876 -1.3814  0.4967  0.9681
 4897TIP3   OH236105   1.193   4.978  13.902 -0.3300  0.5030 -0.1683
 4897TIP3    H136106   1.213   5.070  13.888  1.5754  0.2815  0.8247
 4897TIP3    H236107   1.270   4.931  13.872 -0.6589 -0.6644  0.7108
 4898TIP3   OH236108   2.166   5.117  12.507  0.3830 -0.0878  0.4590
 4898TIP3    H136109   2.071   5.123  12.499  0.4315  1.1104  0.6430
 4898TIP3    H236110   2.199   5.177  12.441  1.0114 -0.2999  0.5765
 4899TIP3   OH236111   3.834   2.285   4.652  0.3787  0.4242  0.0152
 4899TIP3    H136112   3.829   2.196   4.686 -0.8417  0.1321 -0.8564
 4899TIP3    H236113   3.829   2.341   4.729 -1.5022 -0.2287  0.4047
 4900TIP3   OH236114   6.464   4.258   6.702  0.1599 -0.0542  0.2475
 4900TIP3    H136115   6.555   4.237   6.681  0.7242  1.9474  0.4995
 4900TIP3    H236116   6.455   4.351   6.679 -1.7110 -0.1068  0.6157
 4901TIP3   OH236117   4.208   3.628  15.580  0.3951 -0.1224  0.0587
 4901TIP3    H136118   4.135   3.676  15.541  0.7721  0.7148  0.3403
 4901TIP3    H236119   4.182   3.614  15.671  0.1810 -0.6729 -0.0876
 4902TIP3   OH236120   1.363   5.301   0.578 -0.7290  0.4410  0.3919
 4902TIP3    H136121   1.435   5.353   0.614  1.2288 -2.3623  0.8877
 4902TIP3    H236122   1.290   5.317   0.637 -0.6808  3.5769 -0.2729
 4903TIP3   OH236123   2.213   3.076   1.188 -0.2105 -0.3991 -0.8918
 4903TIP3    H136124   2.263   3.070   1.270  0.0746  0.4625 -0.9961
 4903TIP3    H236125   2.252   3.149   1.141 -1.1434 -0.1292 -1.2708
 4904TIP3   OH236126   1.163   0.316   1.324  0.0722  0.4679  0.5295
 4904TIP3    H136127   1.108   0.382   1.281 -0.5392 -0.7610 -0.6550
 4904TIP3    H236128   1.103   0.270   1.382  0.5808  1.1660  1.6422
 4905TIP3   OH236129   2.552   3.377  16.946  0.5554  0.6687  0.4127
 4905TIP3    H136130   2.629   3.418  16.908  0.4785 -0.5141 -1.1057
 4905TIP3    H236131   2.506   3.337  16.872 -1.4419  1.1925  1.2952
 4906TIP3   OH236132   2.274   2.919  14.395 -0.6710  0.3062  0.5782
 4906TIP3    H136133   2.306   2.851  14.455  2.0754  0.1493 -0.8740
 4906TIP3    H236134   2.194   2.952  14.435 -0.2295 -1.4141  3.0694
 4907TIP3   OH236135   1.806   2.415   6.041  0.1019  0.4017  0.4027
 4907TIP3    H136136   1.771   2.442   6.126 -1.2755 -2.0232  0.6986
 4907TIP3    H236137   1.752   2.460   5.977 -0.9459 -0.1606  0.8612
 4908TIP3   OH236138   5.389   1.918   6.147 -0.4548  0.5896 -0.1645
 4908TIP3    H136139   5.399   1.957   6.234 -0.1748  1.7334 -0.6893
 4908TIP3    H236140   5.478   1.903   6.116 -0.5158  1.5063 -0.8179
 4909TIP3   OH236141   6.481   1.690  15.149  0.0438  0.1653  0.0393
 4909TIP3    H136142   6.416   1.624  15.125  2.2625 -1.6173 -1.5897
 4909TIP3    H236143   6.434   1.773  15.144 -1.9311 -0.9527 -1.7022
 4910TIP3   OH236144   6.603   6.463  14.687 -0.4205  0.0922 -0.2106
 4910TIP3    H136145   6.688   6.424  14.664 -0.7060 -1.9045  1.7189
 4910TIP3    H236146   6.618   6.557  14.684  1.7218 -0.2008 -0.4854
 4911TIP3   OH236147   0.802   5.155  11.637  0.8071  0.0905  0.6508
 4911TIP3    H136148   0.796   5.128  11.729 -1.0050 -2.1679 -0.0281
 4911TIP3    H236149   0.747   5.233  11.631  2.3617  1.3424  1.7628
 4912TIP3   OH236150   6.592   0.481  11.285  0.3269  0.3396 -0.3645
 4912TIP3    H136151   6.613   0.567  11.246  2.8879 -0.9685 -2.1753
 4912TIP3    H236152   6.676   0.450  11.320 -0.6853 -1.1964  0.7987
 4913TIP3   OH236153   4.561   1.463   5.549  0.4013 -0.3222 -0.2415
 4913TIP3    H136154   4.583   1.502   5.464 -2.7022  0.8893 -0.6296
 4913TIP3    H236155   4.619   1.507   5.611 -1.6611  3.8315 -0.9050
 4914TIP3   OH236156   2.959   2.478  10.760 -0.5806 -0.2924  0.0603
 4914TIP3    H136157   2.965   2.386  10.732 -3.3503  0.0633 -2.2311
 4914TIP3    H236158   2.890   2.479  10.827 -0.8442  0.1275 -0.2085
 4915TIP3   OH236159   3.643   3.665   5.692  0.0240 -0.0795  0.2039
 4915TIP3    H136160   3.691   3.612   5.755  1.1479  0.9950  0.2885
 4915TIP3    H236161   3.661   3.755   5.718 -4.2230  0.5088  1.9295
 4916TIP3   OH236162   1.116   5.972  11.823 -0.1427 -0.2396 -0.2736
 4916TIP3    H136163   1.072   6.015  11.750  2.3000  2.2603 -0.4208
 4916TIP3    H236164   1.068   6.001  11.901  0.2043  1.1209 -0.5488
 4917TIP3   OH236165   0.022   5.227  14.465  0.7361 -0.4311 -0.0067
 4917TIP3    H136166  -0.018   5.141  14.470  1.4150 -0.6834  2.2861
 4917TIP3    H236167  -0.049   5.288  14.483  0.7615 -0.6926  1.0253
 4918TIP3   OH236168   2.886   3.963  12.007 -0.4937  0.4029  0.3824
 4918TIP3    H136169   2.868   3.869  12.005  2.1224 -0.2185  1.9846
 4918TIP3    H236170   2.868   3.989  12.097  0.2103  1.1100  0.3252
 4919TIP3   OH236171   3.390   6.737  12.448  0.1703  0.4596 -0.5909
 4919TIP3    H136172   3.342   6.658  12.475 -0.8791  0.8038 -1.4041
 4919TIP3    H236173   3.479   6.706  12.432  0.8670  0.1783  3.0293
 4920TIP3   OH236174   2.708   3.562  15.765  0.2188  0.5520  0.3238
 4920TIP3    H136175   2.748   3.618  15.831 -1.9692  1.4514  0.9681
 4920TIP3    H236176   2.685   3.482  15.813  0.6586  0.2773  0.0895
 4921TIP3   OH236177   4.937   6.375  13.524  0.3579 -0.4027 -0.3949
 4921TIP3    H136178   4.912   6.443  13.462  1.0703  1.6337  1.4154
 4921TIP3    H236179   5.019   6.406  13.563 -0.0435 -1.5692  1.5594
 4922TIP3   OH236180   2.389   1.869   0.803  0.0199 -0.1916  0.1905
 4922TIP3    H136181   2.327   1.877   0.875  0.2301 -0.1179  0.3662
 4922TIP3    H236182   2.463   1.924   0.829  0.5768 -1.0312  0.4266
 4923TIP3   OH236183   3.239   6.684   5.556  0.1475  0.1003 -0.7177
 4923TIP3    H136184   3.172   6.654   5.494  0.5520  2.7890 -2.6126
 4923TIP3    H236185   3.190   6.738   5.619 -0.2006 -2.3180  1.2733
 4924TIP3   OH236186   5.200   3.572  15.565  0.4820 -1.2109  0.0073
 4924TIP3    H136187   5.270   3.585  15.501  1.5974 -0.8813  1.2407
 4924TIP3    H236188   5.163   3.486  15.544  0.4386 -0.8691 -1.4079
 4925TIP3   OH236189   1.413   1.242   1.903 -0.5327 -0.2384 -0.3400
 4925TIP3    H136190   1.323   1.260   1.932 -0.0866 -0.5954  1.3613
 4925TIP3    H236191   1.459   1.324   1.916  0.4006 -1.1385  3.0778
 4926TIP3   OH236192   2.744   2.369  14.986 -0.3597 -0.1468 -0.5371
 4926TIP3    H136193   2.691   2.305  15.034  0.2936  0.3505  0.9187
 4926TIP3    H236194   2.728   2.349  14.894 -0.2303 -2.3410 -0.1384
 4927TIP3   OH236195   4.754   2.093   0.166  0.0392 -0.4636  0.3531
 4927TIP3    H136196   4.813   2.037   0.115  0.8165  0.1927  0.5082
 4927TIP3    H236197   4.690   2.124   0.102 -1.8306 -3.2710  0.6589
 4928TIP3   OH236198   6.650   4.489  11.619  0.1626  0.4191 -0.7270
 4928TIP3    H136199   6.689   4.405  11.596  1.5303 -0.0196  2.6553
 4928TIP3    H236200   6.617   4.478  11.708 -2.9290  2.4696 -1.4374
 4929TIP3   OH236201   3.334   6.168  11.734 -0.8962  0.4734  0.4487
 4929TIP3    H136202   3.241   6.178  11.754 -0.9383  0.2917  0.3456
 4929TIP3    H236203   3.341   6.082  11.693 -1.2763  2.0114 -3.1839
 4930TIP3   OH236204   3.300   4.880   0.416  0.2822 -0.3414  0.6958
 4930TIP3    H136205   3.385   4.890   0.458  0.6429  1.5645 -0.3779
 4930TIP3    H236206   3.257   4.964   0.428 -1.4607 -1.2375  1.1515
 4931TIP3   OH236207   3.750   5.205  12.048  0.2618 -0.1352  0.3580
 4931TIP3    H136208   3.657   5.196  12.026  0.4247 -1.9836  0.2931
 4931TIP3    H236209   3.752   5.277  12.112 -1.2076 -0.0620  0.3617
 4932TIP3   OH236210   0.087   0.505   6.385  0.3832  0.1587  0.0576
 4932TIP3    H136211   0.104   0.451   6.462 -0.4795 -0.3334 -0.0922
 4932TIP3    H236212   0.014   0.462   6.340 -0.5368  1.6086  0.1072
 4933TIP3   OH236213   3.088   1.032   3.730 -0.1141 -0.0241  0.7127
 4933TIP3    H136214   3.013   0.982   3.762 -1.4648  0.3139 -1.6618
 4933TIP3    H236215   3.146   0.966   3.692 -0.4547 -0.0591  0.2507
 4934TIP3   OH236216   3.559   1.193  13.570  0.3474 -0.1357  0.6811
 4934TIP3    H136217   3.563   1.179  13.475 -0.6726  0.4093  0.5511
 4934TIP3    H236218   3.534   1.284  13.580  1.8503  0.2180  1.5062
 4935TIP3   OH236219   3.329   2.805   2.135  0.6819 -0.0406  0.1857
 4935TIP3    H136220   3.293   2.846   2.056  2.8321 -1.0361 -1.4330
 4935TIP3    H236221   3.344   2.879   2.195  0.0231  0.9022 -0.7649
 4936TIP3   OH236222   0.005   6.337  12.197  0.3512  0.4826 -0.2491
 4936TIP3    H136223  -0.077   6.385  12.186 -0.5045 -1.2550 -2.3354
 4936TIP3    H236224   0.064   6.375  12.132  0.1738 -0.2130 -0.8338
 4937TIP3   OH236225   1.083   5.732  14.707  0.0643  0.4354  0.1729
 4937TIP3    H136226   1.101   5.641  14.681  2.0867  1.2597 -1.6205
 4937TIP3    H236227   1.048   5.725  14.795  0.3635 -2.0879  0.1685
 4938TIP3   OH236228   4.097   2.624  12.934  0.0168  0.3646 -0.5001
 4938TIP3    H136229   4.027   2.642  12.997  1.4753  1.5895  0.8542
 4938TIP3    H236230   4.148   2.554  12.974 -0.1575 -0.2004 -1.2565
 4939TIP3   OH236231   0.168   6.016  15.083 -0.0674 -0.3370  0.0750
 4939TIP3    H136232   0.174   6.003  14.989 -2.3540  0.0761 -0.1864
 4939TIP3    H236233   0.133   6.105  15.093  1.5083  0.1912  1.3876
 4940TIP3   OH236234   1.717   5.054  15.073 -0.2426 -0.0197  0.0711
 4940TIP3    H136235   1.798   5.074  15.027  1.0670 -2.4123  1.1398
 4940TIP3    H236236   1.661   5.013  15.007  0.3395 -0.4455 -0.1676
 4941TIP3   OH236237   6.124   4.458  16.287 -0.2391 -0.1810 -0.0111
 4941TIP3    H136238   6.106   4.383  16.344  1.2974  0.1010  0.8911
 4941TIP3    H236239   6.038   4.488  16.259 -1.0810 -0.1716  2.3727
 4942TIP3   OH236240   0.778   0.568  15.297 -0.0889  0.3630 -0.0692
 4942TIP3    H136241   0.801   0.500  15.234  0.9904  0.8382 -0.2127
 4942TIP3    H236242   0.800   0.531  15.382 -0.5479  0.1209 -0.0533
 4943TIP3   OH236243   2.946   5.536  15.969  0.3324 -0.3884  0.0908
 4943TIP3    H136244   2.913   5.446  15.964 -1.7519  0.3257  0.2682
 4943TIP3    H236245   2.986   5.541  16.056  3.6768 -2.0849 -1.1584
 4944TIP3   OH236246   5.340   2.065   1.214  0.7736 -0.9759 -0.0098
 4944TIP3    H136247   5.247   2.042   1.211  1.0459 -2.1695 -2.7463
 4944TIP3    H236248   5.353   2.102   1.301 -2.1907 -1.0118  0.5563
 4945TIP3   OH236249   0.194   3.076  14.523  0.0614  0.3797 -0.6503
 4945TIP3    H136250   0.142   3.039  14.451 -2.3044  0.6453  0.8240
 4945TIP3    H236251   0.220   3.162  14.492 -1.7129  0.8621 -0.8965
 4946TIP3   OH236252   6.458   6.202   1.117  0.4683 -0.0318  0.5510
 4946TIP3    H136253   6.390   6.135   1.127  1.5539 -1.0590  1.4572
 4946TIP3    H236254   6.480   6.199   1.023 -1.0026  0.6285  0.1616
 4947TIP3   OH236255   2.809   6.332  14.184  0.7160 -0.0637  0.5151
 4947TIP3    H136256   2.883   6.317  14.125 -0.0959 -1.4057 -0.1797
 4947TIP3    H236257   2.849   6.332  14.271  1.6604  0.1159  0.1023
 4948TIP3   OH236258   3.562   1.510  16.268 -0.5442  0.5649  0.1632
 4948TIP3    H136259   3.477   1.468  16.258 -1.0213  1.4424  0.4610
 4948TIP3    H236260   3.564   1.542  16.359  0.2858  0.1585  0.3019
 4949TIP3   OH236261   0.184   5.651   1.369  0.2775 -0.4224  0.2302
 4949TIP3    H136262   0.093   5.657   1.397  0.7940  0.6124  1.8584
 4949TIP3    H236263   0.226   5.596   1.435  1.4127  1.5833  1.2988
 4950TIP3   OH236264   4.578   2.254  14.879 -0.0212  0.5844  0.0062
 4950TIP3    H136265   4.561   2.253  14.973 -1.8650  0.6375 -0.2893
 4950TIP3    H236266   4.618   2.169  14.860 -0.5125  0.1945  0.6896
 4951TIP3   OH236267   4.001   3.842   2.401 -0.3062 -1.1169  0.3336
 4951TIP3    H136268   4.032   3.918   2.352  0.0599 -1.1842  0.4581
 4951TIP3    H236269   4.077   3.814   2.452 -0.8979 -0.5798  1.5423
 4952TIP3   OH236270   3.000   4.965   5.713  0.1389  0.2257 -0.3601
 4952TIP3    H136271   2.988   4.874   5.740  1.1903 -0.4367 -1.9170
 4952TIP3    H236272   3.095   4.973   5.699  0.2193  1.9193  0.8498
 4953TIP3   OH236273   5.673   5.218   0.015 -0.1651 -0.2140 -0.2194
 4953TIP3    H136274   5.753   5.246  -0.028  0.0032  0.1129  0.2999
 4953TIP3    H236275   5.700   5.145   0.072 -0.2206 -0.0622  0.0047
 4954TIP3   OH236276   2.075   4.189   6.488 -0.1375  0.2504 -0.4818
 4954TIP3    H136277   2.073   4.235   6.404  0.4215 -0.1157 -0.7057
 4954TIP3    H236278   1.985   4.158   6.501 -0.3376  0.7409 -0.7002
 4955TIP3   OH236279   6.471   1.532  11.190  0.4403 -0.0358 -0.2697
 4955TIP3    H136280   6.490   1.457  11.134  0.6227 -0.2903  0.1243
 4955TIP3    H236281   6.550   1.585  11.188  0.4856 -0.1002 -0.1659
 4956TIP3   OH236282   1.797   1.421   0.532 -0.4432 -0.0006  0.3329
 4956TIP3    H136283   1.868   1.479   0.503  0.2488 -0.7790  0.4326
 4956TIP3    H236284   1.807   1.416   0.627  0.7236 -1.8001  0.1551
 4957TIP3   OH236285   0.153   6.575  12.943  0.0876  0.4904 -0.1172
 4957TIP3    H136286   0.193   6.489  12.954  1.9770  1.4218  0.8511
 4957TIP3    H236287   0.060   6.558  12.935  0.1311 -1.4912  2.5218
 4958TIP3   OH236288   4.168   4.140  15.997  0.5535  0.3445  0.0464
 4958TIP3    H136289   4.148   4.208  15.933  1.3387  0.7091  0.1749
 4958TIP3    H236290   4.252   4.104  15.969 -0.1848 -1.0938 -0.4360
 4959TIP3   OH236291   5.763   1.935  16.734 -0.6755  0.5180 -0.6773
 4959TIP3    H136292   5.831   2.000  16.753 -0.0264 -0.8034  2.0107
 4959TIP3    H236293   5.687   1.964  16.784 -0.7139 -0.1965 -0.3004
 4960TIP3   OH236294   3.049   5.176   3.647  0.5463  0.2885 -0.7504
 4960TIP3    H136295   3.080   5.218   3.567 -0.2373 -0.4723 -1.4727
 4960TIP3    H236296   2.954   5.169   3.635  0.3077  0.8233  0.5720
 4961TIP3   OH236297   0.809   0.407   6.488  0.7600  0.3390 -0.1319
 4961TIP3    H136298   0.738   0.343   6.475  0.8999  0.0936  0.2913
 4961TIP3    H236299   0.874   0.360   6.539  1.6213  0.2835 -1.2416
 4962TIP3   OH236300   2.075   0.932  15.816  0.3300  0.4414 -0.3297
 4962TIP3    H136301   2.145   0.891  15.866  1.0175  1.1601 -0.6919
 4962TIP3    H236302   2.003   0.940  15.878  0.7325  0.1362  0.1820
 4963TIP3   OH236303   1.357   2.454   2.283 -0.1423  0.0568  0.5878
 4963TIP3    H136304   1.344   2.528   2.224  0.8694 -0.4846 -0.3323
 4963TIP3    H236305   1.393   2.384   2.228  1.1963 -0.3388  1.8889
 4964TIP3   OH236306   2.970   5.089  11.251 -0.5377 -0.5611  0.6331
 4964TIP3    H136307   2.892   5.039  11.227  0.0755 -0.8619 -0.8094
 4964TIP3    H236308   3.043   5.038  11.218  0.5701 -1.7858  4.4519
 4965TIP3   OH236309   6.477   4.654  16.013  0.5328  0.1595  0.0678
 4965TIP3    H136310   6.565   4.665  15.976  1.4593  1.8422  2.4947
 4965TIP3    H236311   6.465   4.730  16.070 -2.7254  0.2187 -0.5000
 4966TIP3   OH236312   6.261   5.164  14.894 -0.3143 -0.2305  0.0474
 4966TIP3    H136313   6.170   5.179  14.871  0.0511  0.2592 -1.1592
 4966TIP3    H236314   6.261   5.158  14.990 -1.0837  3.8664  0.4915
 4967TIP3   OH236315   1.081   5.217   2.795 -0.6348  0.5707  0.0718
 4967TIP3    H136316   1.137   5.295   2.800  1.1417 -0.7164  1.4014
 4967TIP3    H236317   1.130   5.156   2.740 -1.4243 -0.0763  0.0724
 4968TIP3   OH236318   4.842   5.580   4.304  0.0094  0.0279 -0.4496
 4968TIP3    H136319   4.878   5.498   4.270  1.1710 -0.0471  0.8642
 4968TIP3    H236320   4.880   5.588   4.392  0.6629  2.4647 -0.8972
 4969TIP3   OH236321   3.419   5.301  15.150  0.0052 -0.1599  0.2090
 4969TIP3    H136322   3.456   5.300  15.239  1.7131 -0.0635 -0.4669
 4969TIP3    H236323   3.451   5.383  15.112 -0.5720 -0.2807 -0.5628
 4970TIP3   OH236324   4.700   4.248  14.245  0.3452  0.1532 -0.5725
 4970TIP3    H136325   4.707   4.173  14.304  0.6875 -0.4691 -1.3820
 4970TIP3    H236326   4.605   4.263  14.238  0.3131  1.8846  2.1145
 4971TIP3   OH236327   2.362   3.116   4.619  0.0213  0.1342 -0.8800
 4971TIP3    H136328   2.289   3.128   4.559  0.2101  1.8121 -0.8300
 4971TIP3    H236329   2.325   3.069   4.693 -0.6323 -0.3871 -1.5288
 4972TIP3   OH236330   5.497   2.080  11.511  0.0873 -0.4615 -0.1830
 4972TIP3    H136331   5.471   2.120  11.594 -2.9965 -0.6177 -0.9535
 4972TIP3    H236332   5.541   2.151  11.463  2.6745 -0.5888  1.7640
 4973TIP3   OH236333   5.540   4.730  12.319  0.8124 -0.1654  0.0172
 4973TIP3    H136334   5.493   4.722  12.236  2.1590  0.5534 -0.8431
 4973TIP3    H236335   5.478   4.697  12.385 -0.5202 -0.1375 -1.1798
 4974TIP3   OH236336   5.664   2.295  11.370 -0.3031  0.1501  0.1587
 4974TIP3    H136337   5.657   2.378  11.416 -0.1591 -0.4118  1.2285
 4974TIP3    H236338   5.679   2.319  11.279  4.2513  1.3941  0.9847
 4975TIP3   OH236339   4.570   2.933  11.528  0.2887 -0.4212 -0.2567
 4975TIP3    H136340   4.557   2.995  11.600 -2.1502  0.4095 -1.2720
 4975TIP3    H236341   4.610   2.985  11.459 -1.1693 -0.0614 -0.8825
 4976TIP3   OH236342   6.199   4.150  13.350 -0.2636 -0.0549 -0.3621
 4976TIP3    H136343   6.183   4.244  13.347 -0.0622 -0.0162 -0.2370
 4976TIP3    H236344   6.222   4.126  13.260  0.2976  0.1262 -0.2726
 4977TIP3   OH236345   2.007   1.873  14.727  0.5555 -0.0660 -0.1535
 4977TIP3    H136346   1.957   1.915  14.657  1.4604  0.2317 -0.6447
 4977TIP3    H236347   2.096   1.868  14.693  0.6446 -1.6308  0.2451
 4978TIP3   OH236348   3.731   1.186  17.149 -0.0640  0.2195  0.3643
 4978TIP3    H136349   3.664   1.246  17.115 -1.0125 -1.1497 -0.2732
 4978TIP3    H236350   3.681   1.113  17.185  1.0220  0.4381  2.4431
 4979TIP3   OH236351   5.841   3.233  12.983 -0.5447 -0.2984 -0.6323
 4979TIP3    H136352   5.915   3.260  12.929  0.2913  2.0322  1.4740
 4979TIP3    H236353   5.770   3.290  12.957 -0.8005 -0.6624 -0.7441
 4980TIP3   OH236354   6.083   5.159   6.112  0.4215 -0.3264  0.1808
 4980TIP3    H136355   6.066   5.232   6.170 -1.6406 -1.6821  1.4363
 4980TIP3    H236356   6.006   5.156   6.054  0.2691 -1.6874  0.4132
 4981TIP3   OH236357   1.913   3.218   1.602 -0.3436 -0.6278 -0.2104
 4981TIP3    H136358   1.879   3.132   1.630  0.4637 -0.3165  1.9339
 4981TIP3    H236359   2.008   3.206   1.600 -0.1776  0.3673  0.7891
 4982TIP3   OH236360   3.589   6.210  11.135  0.1152 -0.3267 -0.0349
 4982TIP3    H136361   3.657   6.143  11.125  1.3884  0.9588 -0.2371
 4982TIP3    H236362   3.603   6.270  11.063 -0.6385  0.4918  0.4756
 4983TIP3   OH236363   0.539   2.394   4.333  0.2715 -0.5992  0.1717
 4983TIP3    H136364   0.605   2.408   4.401  2.6979 -0.6039 -2.0156
 4983TIP3    H236365   0.539   2.300   4.317 -0.2223 -0.5918  0.0877
 4984TIP3   OH236366   4.813   5.719  12.561 -0.3226 -0.0865  0.0630
 4984TIP3    H136367   4.790   5.685  12.474 -2.8738 -0.0538  0.6616
 4984TIP3    H236368   4.742   5.692  12.618  1.0659  0.2821  2.0985
 4985TIP3   OH236369   1.480   2.338   3.817  0.6718  0.3553 -0.1551
 4985TIP3    H136370   1.558   2.392   3.827 -0.1806  1.3620  1.3629
 4985TIP3    H236371   1.512   2.249   3.833  1.4510  0.7895  0.8467
 4986TIP3   OH236372   5.995   5.339  12.629  0.0538  0.1186  0.0994
 4986TIP3    H136373   6.062   5.364  12.693 -2.0995  0.2040  2.4340
 4986TIP3    H236374   5.913   5.345  12.676 -1.6880  0.1891 -2.7192
 4987TIP3   OH236375   3.019   3.831  12.886  0.0274 -0.0122 -0.0911
 4987TIP3    H136376   2.933   3.788  12.892 -0.0085  0.0452 -0.1882
 4987TIP3    H236377   3.025   3.882  12.966  0.5918 -1.1470  0.6143
 4988TIP3   OH236378   6.678   3.446   3.793  0.6577 -0.0788  0.2335
 4988TIP3    H136379   6.704   3.523   3.742  0.8740  0.4805  1.1679
 4988TIP3    H236380   6.642   3.482   3.874 -2.7209 -0.8070 -0.7828
 4989TIP3   OH236381   2.326   4.665   5.345 -0.2090 -0.4131  0.4281
 4989TIP3    H136382   2.412   4.706   5.345  1.1236 -2.8917 -1.3525
 4989TIP3    H236383   2.344   4.571   5.344 -2.8532 -1.0460 -1.7023
 4990TIP3   OH236384   3.857   4.061   4.531 -0.0907 -0.1784 -0.1127
 4990TIP3    H136385   3.763   4.063   4.515 -0.2577  0.0665  0.8230
 4990TIP3    H236386   3.880   3.968   4.527 -0.2419 -0.1883 -0.9851
 4991TIP3   OH236387   1.258   6.186  16.446  0.7549 -0.6755  0.2180
 4991TIP3    H136388   1.212   6.125  16.503 -3.7588  0.3109 -1.9431
 4991TIP3    H236389   1.282   6.134  16.370  1.6376 -0.8032  0.5745
 4992TIP3   OH236390   3.210   6.400   2.234 -0.4943 -0.8992  0.4073
 4992TIP3    H136391   3.115   6.406   2.248 -0.4657  0.2717  0.2493
 4992TIP3    H236392   3.223   6.315   2.193 -1.5630 -0.8455 -0.0821
 4993TIP3   OH236393   4.871   0.819   3.788  0.2756  0.8349 -0.0737
 4993TIP3    H136394   4.905   0.736   3.821 -0.8736 -0.4158 -1.8120
 4993TIP3    H236395   4.823   0.857   3.861 -0.7382 -0.9789  0.2667
 4994TIP3   OH236396   2.213   3.531   5.223 -0.2896 -0.2172  0.4108
 4994TIP3    H136397   2.152   3.460   5.203  1.2651 -1.5174  0.1500
 4994TIP3    H236398   2.196   3.596   5.154  0.3672 -1.7037 -1.2368
 4995TIP3   OH236399   1.036   1.038   4.026 -0.0411 -0.1756 -0.3456
 4995TIP3    H136400   1.022   1.083   4.110 -0.6944 -0.5814 -0.2302
 4995TIP3    H236401   1.086   0.960   4.048 -3.8910 -2.6890  0.4244
 4996TIP3   OH236402   0.717   3.671  17.126 -0.4554 -0.4536  0.2638
 4996TIP3    H136403   0.638   3.672  17.180  0.2739  0.8737  1.3715
 4996TIP3    H236404   0.789   3.677  17.190  0.4098  2.8674 -0.8639
 4997TIP3   OH236405   5.493   1.988   5.182  0.0800 -0.6046 -0.4717
 4997TIP3    H136406   5.507   1.963   5.273  0.6417 -1.8587 -0.8812
 4997TIP3    H236407   5.405   2.026   5.181 -0.9887 -2.8636  0.1861
 4998TIP3   OH236408   2.884   3.079   6.278 -0.6296  0.2056 -0.0932
 4998TIP3    H136409   2.802   3.127   6.286 -0.8239 -0.3491  1.4716
 4998TIP3    H236410   2.941   3.116   6.345 -0.1706 -0.5219 -0.0708
 4999TIP3   OH236411   2.495   4.057   6.636 -0.3876 -0.0292 -0.1842
 4999TIP3    H136412   2.472   4.125   6.700  2.3805  1.8957 -1.0050
 4999TIP3    H236413   2.445   4.080   6.558 -0.8196 -0.0259  0.0897
 5000TIP3   OH236414   0.001   5.641   2.853  0.3314 -0.0682  0.4443
 5000TIP3    H136415   0.008   5.671   2.763 -0.2491 -0.1101  0.3790
 5000TIP3    H236416   0.081   5.670   2.895  0.6818 -0.1968 -0.1299
 5001TIP3   OH236417   6.586   5.492   4.555 -0.0043 -0.5793 -0.4299
 5001TIP3    H136418   6.548   5.568   4.600  0.8516  0.7406 -1.8347
 5001TIP3    H236419   6.598   5.521   4.465 -0.1581 -2.5964 -1.1611
 5002TIP3   OH236420   1.546   6.327   3.741  0.4597 -0.3048  0.2144
 5002TIP3    H136421   1.629   6.356   3.704  1.1474 -0.7414  1.3905
 5002TIP3    H236422   1.516   6.258   3.682  0.3812  0.5903 -0.8221
 5003TIP3   OH236423   6.714   0.968  11.956 -0.0476 -0.3948  0.6445
 5003TIP3    H136424   6.659   0.928  11.889 -2.3418 -0.5056  2.4686
 5003TIP3    H236425   6.696   1.062  11.950 -0.8810 -0.4764  1.5596
 5004TIP3   OH236426   0.146   0.658  16.958  0.0484 -0.4499  0.1788
 5004TIP3    H136427   0.183   0.573  16.978  0.2913 -0.9109 -1.9904
 5004TIP3    H236428   0.052   0.647  16.973  0.0198 -1.2548 -0.5166
 5005TIP3   OH236429   0.712   1.110  17.198 -0.0429  0.1986 -0.4839
 5005TIP3    H136430   0.783   1.164  17.233  0.4185  0.1517 -1.3122
 5005TIP3    H236431   0.719   1.027  17.245 -0.3397  0.6286  0.3245
 5006TIP3   OH236432   1.044   5.805  14.289  0.0473  0.6557  0.2350
 5006TIP3    H136433   0.992   5.758  14.224  1.8336  0.6276 -1.2752
 5006TIP3    H236434   1.016   5.896  14.281 -1.1842  0.3488  0.9092
 5007TIP3   OH236435   4.655   5.014  16.619 -0.1440 -0.5814 -0.3393
 5007TIP3    H136436   4.610   4.934  16.593  0.2544 -0.8274 -0.2882
 5007TIP3    H236437   4.741   4.984  16.649 -0.3834 -0.2571  0.7207
 5008TIP3   OH236438   6.079   6.191  16.868  0.4710  0.5249 -0.0444
 5008TIP3    H136439   6.003   6.229  16.913  1.1258 -0.3360  1.9040
 5008TIP3    H236440   6.115   6.128  16.931  1.2028 -1.0886 -1.9771
 5009TIP3   OH236441   1.249   1.904   4.804  0.4307  0.1827 -0.1188
 5009TIP3    H136442   1.175   1.962   4.786 -0.4273 -0.2068  1.8621
 5009TIP3    H236443   1.325   1.951   4.771 -0.5665  1.1198 -1.1520
 5010TIP3   OH236444   0.764   0.281  16.818 -0.3115  0.4743 -0.1437
 5010TIP3    H136445   0.742   0.318  16.732 -0.4934  1.3225  0.2536
 5010TIP3    H236446   0.759   0.356  16.878 -0.4832 -0.1703  0.6592
 5011TIP3   OH236447   2.225   5.424   0.886 -0.4301 -0.0302 -0.2321
 5011TIP3    H136448   2.187   5.424   0.974  2.1810 -0.0360  1.0172
 5011TIP3    H236449   2.204   5.338   0.851 -1.4651 -0.0533  0.4148
 5012TIP3   OH236450   6.265   2.953   1.998  0.2010 -0.1676  0.0196
 5012TIP3    H136451   6.283   3.046   2.013 -0.6000  0.2630 -1.4612
 5012TIP3    H236452   6.351   2.912   1.994  0.6722  0.8688 -1.3069
 5013TIP3   OH236453   2.056   2.154  13.042  0.2761 -0.8324 -0.4312
 5013TIP3    H136454   1.970   2.118  13.065 -0.0048  0.3164  0.4004
 5013TIP3    H236455   2.119   2.088  13.071 -0.3409 -2.5741 -2.7434
 5014TIP3   OH236456   0.786   5.937  17.130  0.0869  0.0571 -0.1095
 5014TIP3    H136457   0.716   6.002  17.139  0.0922  0.0432  0.0383
 5014TIP3    H236458   0.842   5.972  17.061 -0.8592 -0.6457 -1.2713
 5015TIP3   OH236459   0.519   3.323  11.053  0.6557  0.0809  0.5009
 5015TIP3    H136460   0.606   3.308  11.089  0.1804 -0.2091  1.5668
 5015TIP3    H236461   0.483   3.236  11.038  1.2232  0.1750 -1.7023
 5016TIP3   OH236462   2.693   5.129   4.941  0.1869  0.5615 -0.3951
 5016TIP3    H136463   2.641   5.049   4.952  0.4373  0.1048 -2.2774
 5016TIP3    H236464   2.632   5.200   4.963  0.1164 -0.1070  1.8552
 5017TIP3   OH236465   3.499   1.393  11.797 -1.0229 -0.2474  0.2254
 5017TIP3    H136466   3.474   1.344  11.875 -3.1816  0.3096 -0.0338
 5017TIP3    H236467   3.462   1.342  11.724  1.1451 -0.8781 -0.5030
 5018TIP3   OH236468   0.819   1.063   2.622  0.1173  0.1170 -0.1282
 5018TIP3    H136469   0.739   1.064   2.674  0.8675 -0.8941  1.1046
 5018TIP3    H236470   0.890   1.071   2.687  1.0237  1.1743 -1.1985
 5019TIP3   OH236471   4.557   5.013   0.619 -0.4619 -0.4282  0.1812
 5019TIP3    H136472   4.536   5.035   0.710  2.9883  2.0131  0.5998
 5019TIP3    H236473   4.539   5.093   0.570  0.9036 -0.5803 -0.6228
 5020TIP3   OH236474   4.008   2.530  11.436  0.2197  0.6324  0.7549
 5020TIP3    H136475   3.978   2.619  11.422  0.0388  0.8398  2.3117
 5020TIP3    H236476   3.934   2.486  11.478  0.2812 -0.2721 -0.0528
 5021TIP3   OH236477   6.630   5.194   6.807 -0.1429  0.4770  0.0487
 5021TIP3    H136478   6.573   5.262   6.844 -0.9687  0.0037 -0.3335
 5021TIP3    H236479   6.716   5.235   6.803 -0.6458  1.5373 -0.2660
 5022TIP3   OH236480   1.652   4.051  12.984 -0.3185  0.4924  0.2050
 5022TIP3    H136481   1.606   4.100  13.053 -0.8893 -0.7449  0.7521
 5022TIP3    H236482   1.744   4.070  12.999 -0.2729 -1.0235  2.4226
 5023TIP3   OH236483   1.323   4.331  12.106  0.5174  0.0123 -0.3610
 5023TIP3    H136484   1.326   4.410  12.160  0.3361 -0.5400  0.4849
 5023TIP3    H236485   1.355   4.262  12.164 -3.2094 -1.3406  0.4099
 5024TIP3   OH236486   1.152   5.415  11.278  0.2286  0.0616  0.1404
 5024TIP3    H136487   1.233   5.415  11.329  1.0207 -0.6594 -1.0666
 5024TIP3    H236488   1.084   5.441  11.340  1.2366 -0.2643  1.4097
 5025TIP3   OH236489   3.305   3.611  17.248 -0.0810 -0.0798  1.0117
 5025TIP3    H136490   3.292   3.529  17.201  1.7487 -0.2340  0.6986
 5025TIP3    H236491   3.217   3.647  17.259 -0.6369  0.0056 -2.5858
 5026TIP3   OH236492   4.851   2.399   3.513  0.1878  0.2263 -0.3522
 5026TIP3    H136493   4.784   2.378   3.448  0.4065 -0.5279 -0.3468
 5026TIP3    H236494   4.928   2.350   3.484  0.3316  0.0072  0.3769
 5027TIP3   OH236495   1.265   6.201  12.543  0.0167 -0.0310  0.1300
 5027TIP3    H136496   1.264   6.296  12.556 -0.3744  0.4795 -2.8105
 5027TIP3    H236497   1.339   6.186  12.484 -2.3296 -0.8332 -2.9183
 5028TIP3   OH236498   2.522   6.030  14.916  0.6825 -0.0753 -0.1296
 5028TIP3    H136499   2.532   6.028  14.821  0.6540 -2.1394 -0.1251
 5028TIP3    H236500   2.435   6.067  14.930  0.5970  0.0322 -0.9128
 5029TIP3   OH236501   3.320   4.393   5.483  0.1562  0.1475  0.5228
 5029TIP3    H136502   3.369   4.413   5.563  0.0825  1.2731  0.2986
 5029TIP3    H236503   3.350   4.306   5.457 -0.2784 -0.5253  2.1255
 5030TIP3   OH236504   5.656   6.725   4.823  0.2658 -0.2436 -0.1319
 5030TIP3    H136505   5.657   6.654   4.888 -1.0626  1.8396  2.3508
 5030TIP3    H236506   5.563   6.743   4.808  0.5246  1.9216  0.5070
 5031TIP3   OH236507   6.712   0.410   6.096 -0.2811 -0.1698  0.5076
 5031TIP3    H136508   6.736   0.474   6.028  0.7807  0.4347  1.4181
 5031TIP3    H236509   6.733   0.325   6.057 -1.4675  0.0296 -0.6220
 5032TIP3   OH236510   4.005   2.813  14.728  0.2996 -0.3207  0.3738
 5032TIP3    H136511   4.051   2.751  14.784  1.0849 -0.2332 -0.1478
 5032TIP3    H236512   4.000   2.893  14.780  0.9604 -0.2610  0.3582
 5033TIP3   OH236513   3.062   5.947  16.507 -0.4804 -0.0071 -0.1291
 5033TIP3    H136514   3.144   5.956  16.556 -0.8429  0.5525  0.3998
 5033TIP3    H236515   3.049   6.033  16.467 -0.9369 -0.0136 -0.0004
 5034TIP3   OH236516   5.786   4.083  16.314 -0.0110  0.2530 -0.0636
 5034TIP3    H136517   5.810   4.021  16.382 -0.4380 -0.8441 -0.8871
 5034TIP3    H236518   5.865   4.094  16.262 -0.5523 -1.4527 -1.3111
 5035TIP3   OH236519   4.962   6.187   2.509  0.6214  0.4852  0.5926
 5035TIP3    H136520   4.955   6.208   2.602 -0.4416  1.5143  0.3018
 5035TIP3    H236521   4.964   6.272   2.465 -0.2933  0.0082 -0.4205
 5036TIP3   OH236522   6.368   1.278   5.462  0.1616 -0.1308 -0.6217
 5036TIP3    H136523   6.401   1.366   5.445  0.6088 -0.5050 -1.7701
 5036TIP3    H236524   6.431   1.239   5.523 -1.9134  1.5278  2.9102
 5037TIP3   OH236525   1.815   0.912  15.953 -0.7785 -0.7140 -0.0676
 5037TIP3    H136526   1.768   0.996  15.946  1.5966  0.6764 -0.3670
 5037TIP3    H236527   1.813   0.893  16.047  1.2119  1.3310  0.4864
 5038TIP3   OH236528   1.141   3.107  12.188  1.0676 -0.6927 -0.6192
 5038TIP3    H136529   1.216   3.122  12.245  1.8492  0.0487 -1.7964
 5038TIP3    H236530   1.169   3.139  12.102 -0.7153 -0.0474 -1.0135
 5039TIP3   OH236531   4.456   3.880   4.146  0.3464 -0.3621  0.0233
 5039TIP3    H136532   4.543   3.917   4.159  0.4150  0.0826 -1.5569
 5039TIP3    H236533   4.396   3.953   4.159  0.2911 -0.3829 -0.1115
 5040TIP3   OH236534   6.333   5.176   5.958  0.1110 -0.0243 -0.0091
 5040TIP3    H136535   6.301   5.158   5.870  0.6003 -2.7288  0.2734
 5040TIP3    H236536   6.257   5.160   6.015 -0.2320  1.8054  0.1178
 5041TIP3   OH236537   4.451   6.645  16.414  0.1585 -0.5024 -0.3590
 5041TIP3    H136538   4.534   6.664  16.457  0.8198 -1.6597 -1.0767
 5041TIP3    H236539   4.473   6.581  16.346 -1.2654 -0.5720 -0.7901
 5042TIP3   OH236540   1.605   0.871   5.647  0.7108 -0.5331  0.0328
 5042TIP3    H136541   1.661   0.794   5.646  0.6582 -0.5738  0.1720
 5042TIP3    H236542   1.610   0.906   5.558  1.0475 -0.4736  0.0750
 5043TIP3   OH236543   3.413   3.962  14.168 -0.1313  0.1019  0.0892
 5043TIP3    H136544   3.373   3.943  14.252 -1.8409 -0.9837 -0.9047
 5043TIP3    H236545   3.499   3.999  14.189 -0.6880  0.2374  2.2783
 5044TIP3   OH236546   0.662   3.416   6.081  0.4843  0.0860  0.0039
 5044TIP3    H136547   0.570   3.420   6.056  0.6350  2.4585 -0.4397
 5044TIP3    H236548   0.661   3.396   6.174 -0.4823  0.1309  0.0123
 5045TIP3   OH236549   3.368   4.541   2.939  0.1919  0.3114 -0.7451
 5045TIP3    H136550   3.297   4.560   2.999 -0.6430 -1.5926 -1.0456
 5045TIP3    H236551   3.325   4.514   2.858  1.2820  0.9735 -1.5756
 5046TIP3   OH236552   5.075   2.106  13.691 -0.1108 -0.4547  1.1087
 5046TIP3    H136553   4.990   2.106  13.646  0.3327 -0.3907  0.2513
 5046TIP3    H236554   5.136   2.141  13.627  0.1336  2.0450  2.5580
 5047TIP3   OH236555   0.674   1.565   0.144  0.2354 -0.4689  0.2226
 5047TIP3    H136556   0.701   1.656   0.157  1.0017 -0.6880  0.1855
 5047TIP3    H236557   0.596   1.555   0.199  0.6889 -0.0567  0.9485
 5048TIP3   OH236558   1.813   5.687   5.272  0.0778  0.5168  0.0612
 5048TIP3    H136559   1.746   5.621   5.289  0.8919 -0.3020  0.2155
 5048TIP3    H236560   1.885   5.664   5.332 -0.9066  3.6152  2.7074
 5049TIP3   OH236561   3.490   6.433  12.838  0.2584 -0.7755 -0.8720
 5049TIP3    H136562   3.394   6.429  12.838  0.2825 -1.8712 -1.4265
 5049TIP3    H236563   3.517   6.349  12.800  1.4723 -1.1495  0.7252
 5050TIP3   OH236564   6.559   6.556   0.231  0.6169  0.4967  0.0888
 5050TIP3    H136565   6.474   6.524   0.199 -0.4406  4.0231 -1.0966
 5050TIP3    H236566   6.623   6.499   0.188 -1.0495  0.3849 -2.5009
 5051TIP3   OH236567   5.310   1.778  13.873 -0.0406 -0.3733  0.1506
 5051TIP3    H136568   5.228   1.826  13.866 -1.4018 -2.3566  1.5122
 5051TIP3    H236569   5.308   1.715  13.802  1.9874  1.7307 -1.9673
 5052TIP3   OH236570   3.790   3.433  15.537 -0.6644  0.6053  0.3114
 5052TIP3    H136571   3.818   3.410  15.626 -1.1533 -0.5209  0.1799
 5052TIP3    H236572   3.697   3.454  15.546 -0.6953  0.5675  0.0748
 5053TIP3   OH236573   5.815   1.042  13.320 -0.2153 -0.4616 -0.3164
 5053TIP3    H136574   5.869   1.015  13.246 -0.1185 -1.8423  0.2192
 5053TIP3    H236575   5.725   1.024  13.292 -0.2293 -0.3184 -0.3628
 5054TIP3   OH236576   5.936   0.624   6.071  0.6917 -0.1072  0.1389
 5054TIP3    H136577   5.948   0.718   6.081 -0.6299  0.0983 -0.0813
 5054TIP3    H236578   5.951   0.588   6.158 -2.1316  0.6991  1.0340
 5055TIP3   OH236579   1.830   1.772  12.284 -0.2034 -0.8560 -0.1334
 5055TIP3    H136580   1.800   1.789  12.373 -1.6176 -1.3146 -0.4885
 5055TIP3    H236581   1.807   1.852  12.236 -0.2914 -0.9627 -0.2711
 5056TIP3   OH236582   4.645   4.686  15.632 -0.0881  0.1362  0.4601
 5056TIP3    H136583   4.669   4.773  15.598  2.0474  0.3539  2.2976
 5056TIP3    H236584   4.708   4.626  15.590 -0.6277 -0.3223  0.2947
 5057TIP3   OH236585   1.055   4.563   0.287  0.0170  0.3237  0.1073
 5057TIP3    H136586   1.037   4.656   0.274  0.9685  0.8729  2.2773
 5057TIP3    H236587   1.004   4.538   0.364 -3.5991 -2.1509 -2.7167
 5058TIP3   OH236588   6.469   2.651   1.687  0.0185  0.4706 -0.0179
 5058TIP3    H136589   6.493   2.744   1.683  1.0067  0.1973 -1.0647
 5058TIP3    H236590   6.499   2.616   1.603 -0.6266 -0.7368  0.2426
 5059TIP3   OH236591   0.294   2.821  13.096 -0.0355  0.0725 -0.1666
 5059TIP3    H136592   0.284   2.775  13.012 -0.1143  1.0971 -0.7346
 5059TIP3    H236593   0.386   2.847  13.098  0.0726 -0.3374  0.2769
 5060TIP3   OH236594   1.927   1.111   3.374  0.1828 -0.1686 -0.2559
 5060TIP3    H136595   1.959   1.077   3.457 -0.7799 -1.5499 -0.4033
 5060TIP3    H236596   1.982   1.186   3.355  2.1261 -1.3751  0.3484
 5061TIP3   OH236597   2.192   0.102   2.351 -0.0822  0.2211  0.5148
 5061TIP3    H136598   2.131   0.060   2.411 -0.2994  0.0383  0.1691
 5061TIP3    H236599   2.238   0.167   2.405 -1.4811  1.2593  0.5049
 5062TIP3   OH236600   0.707   3.746   1.673 -0.1846 -0.7865  0.0418
 5062TIP3    H136601   0.796   3.723   1.697  0.0273  0.1548  0.1801
 5062TIP3    H236602   0.705   3.738   1.577 -0.2511 -1.8107  0.1176
 5063TIP3   OH236603   6.508   5.986   3.025 -0.2593 -0.1042 -0.4109
 5063TIP3    H136604   6.542   6.072   3.001 -0.9151 -0.0374 -1.1343
 5063TIP3    H236605   6.441   6.005   3.091  1.3229 -0.2648  1.3221
 5064TIP3   OH236606   1.989   3.874  11.968 -0.5015 -0.1186  0.0565
 5064TIP3    H136607   2.022   3.787  11.945 -2.1219 -0.4119 -1.3906
 5064TIP3    H236608   1.993   3.923  11.885 -1.3971  0.5799  0.4137
 5065TIP3   OH236609   5.166   6.713  12.039  0.3350 -0.1997  0.4234
 5065TIP3    H136610   5.121   6.734  12.121 -0.3721 -1.5041  0.3908
 5065TIP3    H236611   5.097   6.685  11.980  0.9941 -0.5953 -0.1766
 5066TIP3   OH236612   0.023   4.675   5.634 -0.4184  0.1075  0.2740
 5066TIP3    H136613   0.033   4.769   5.648 -1.9158  0.1680  1.1094
 5066TIP3    H236614  -0.052   4.667   5.575  0.2158 -0.5480 -0.4774
 5067TIP3   OH236615   6.319   3.107  16.756 -0.2607  0.3953  0.8421
 5067TIP3    H136616   6.321   3.190  16.708 -0.7193  1.3264  2.3282
 5067TIP3    H236617   6.409   3.076  16.756 -0.2888  0.2157 -0.7996
 5068TIP3   OH236618   0.285   0.036   5.744 -0.4055  0.0551 -0.3057
 5068TIP3    H136619   0.263   0.020   5.652 -0.9828  0.5095 -0.2516
 5068TIP3    H236620   0.227  -0.022   5.793 -0.6004  0.3300 -0.2067
 5069TIP3   OH236621   0.843   3.352   2.721  0.1201 -0.2421 -0.6495
 5069TIP3    H136622   0.928   3.308   2.716  0.0330 -0.3904 -0.8717
 5069TIP3    H236623   0.801   3.315   2.798 -0.4249 -1.4125 -1.4833
 5070TIP3   OH236624   2.239   3.201  15.401  0.0880  0.0537 -0.0028
 5070TIP3    H136625   2.299   3.140  15.358  1.2106  0.6540  0.6590
 5070TIP3    H236626   2.255   3.189  15.495  0.2351  1.2476  0.1418
 5071TIP3   OH236627   2.421   3.794  15.581  0.3928 -0.1281  0.3393
 5071TIP3    H136628   2.506   3.750  15.577  0.2567 -0.3266 -0.7248
 5071TIP3    H236629   2.437   3.872  15.635  1.0314 -0.6131  0.8710
 5072TIP3   OH236630   2.871   2.312  16.703 -0.1423  0.1304  0.3278
 5072TIP3    H136631   2.936   2.297  16.772 -0.5976  1.6477  1.1317
 5072TIP3    H236632   2.916   2.285  16.622  1.1252  0.1995  0.9816
 5073TIP3   OH236633   3.010   6.461  14.897 -0.0367 -0.4548 -0.4209
 5073TIP3    H136634   2.972   6.540  14.933 -1.5416 -0.4683 -1.8572
 5073TIP3    H236635   3.102   6.484  14.880 -0.1365  0.5555  0.3303
 5074TIP3   OH236636   3.629   0.442  12.149 -0.2459  0.3663  0.1161
 5074TIP3    H136637   3.695   0.445  12.080 -0.8260  0.6989 -0.4343
 5074TIP3    H236638   3.567   0.511  12.126  1.0598  2.5100  2.5198
 5075TIP3   OH236639   1.300   6.603   3.352  0.2902  0.2901  0.2706
 5075TIP3    H136640   1.350   6.614   3.432  0.1700 -1.2804  0.6015
 5075TIP3    H236641   1.288   6.508   3.344 -1.6704  0.5484 -0.3830
 5076TIP3   OH236642   0.063   3.665  13.011 -0.3150  0.6774  0.3691
 5076TIP3    H136643  -0.015   3.609  13.013 -0.1563  0.4230 -0.2441
 5076TIP3    H236644   0.082   3.683  13.103 -0.3682 -0.2820  0.5842
 5077TIP3   OH236645   5.436   2.504   2.749  0.2465  0.6471  0.2340
 5077TIP3    H136646   5.525   2.522   2.780 -0.3789  0.3674  2.2859
 5077TIP3    H236647   5.414   2.419   2.786 -1.2960  1.2265  0.7066
 5078TIP3   OH236648   0.543   3.078  12.268 -0.3581  0.6662  0.3189
 5078TIP3    H136649   0.620   3.133  12.288  1.6131 -1.8395  0.1219
 5078TIP3    H236650   0.580   3.001  12.224 -2.8431 -1.2968  1.4685
 5079TIP3   OH236651   3.884   2.355   3.880 -0.4416 -0.1170  0.0530
 5079TIP3    H136652   3.969   2.369   3.920 -0.9790 -0.0397  1.2303
 5079TIP3    H236653   3.899   2.291   3.811  0.4362 -0.7023  0.7732
 5080TIP3   OH236654   3.459   5.658   3.203 -0.0284 -0.1012 -0.7997
 5080TIP3    H136655   3.478   5.628   3.292  0.9555  0.4606 -0.8041
 5080TIP3    H236656   3.418   5.583   3.161 -0.1840 -0.4899  0.0239
 5081TIP3   OH236657   6.288   2.813   3.369  0.1546  0.4065 -0.1488
 5081TIP3    H136658   6.332   2.868   3.434  0.3014  0.5063 -0.3293
 5081TIP3    H236659   6.195   2.832   3.381  0.2764  1.9604 -1.2919
 5082TIP3   OH236660   2.907   5.546  12.432 -0.3477  0.0623 -0.1547
 5082TIP3    H136661   2.918   5.641  12.432 -1.3214  0.1976  0.8248
 5082TIP3    H236662   2.991   5.512  12.404  0.6794  1.1602  1.4520
 5083TIP3   OH236663   4.883   0.709  14.292 -0.3539  0.7510  0.3019
 5083TIP3    H136664   4.968   0.693  14.252 -1.0517  0.0989 -0.9643
 5083TIP3    H236665   4.896   0.686  14.384  0.0892 -2.2976 -0.3983
 5084TIP3   OH236666   3.188   0.770  13.652 -0.6656 -0.3720  0.0621
 5084TIP3    H136667   3.228   0.740  13.734  0.2202  0.1150 -0.1814
 5084TIP3    H236668   3.226   0.857  13.637  0.7441 -1.2374 -1.8880
 5085TIP3   OH236669   1.155   3.147   4.066  0.0461  0.4653  0.5391
 5085TIP3    H136670   1.125   3.218   4.123 -0.7858 -1.0070  2.0219
 5085TIP3    H236671   1.091   3.077   4.080  0.5309 -0.3860 -1.3033
 5086TIP3   OH236672   2.008   2.498   5.187  0.4532 -0.6034 -0.4962
 5086TIP3    H136673   2.077   2.493   5.121  2.2688  0.3907  1.2040
 5086TIP3    H236674   2.040   2.562   5.250 -1.7970 -0.5343  0.6849
 5087TIP3   OH236675   2.970   1.381   3.792  0.0781  0.7795  0.2719
 5087TIP3    H136676   2.919   1.351   3.717  1.5136  0.2601 -0.5417
 5087TIP3    H236677   2.922   1.457   3.825 -0.5106  1.1073 -1.2550
 5088TIP3   OH236678   1.469   5.236  12.061  0.6175  0.2599 -0.3307
 5088TIP3    H136679   1.530   5.305  12.033  1.8425 -0.5542  0.2527
 5088TIP3    H236680   1.504   5.206  12.145 -0.4190 -0.4609 -0.1402
 5089TIP3   OH236681   1.254   6.321  11.703 -0.6853 -0.1450 -0.4178
 5089TIP3    H136682   1.309   6.394  11.674 -0.9810 -0.5003 -1.9503
 5089TIP3    H236683   1.307   6.243  11.685 -0.9301 -0.3885 -0.0904
 5090TIP3   OH236684   1.688   4.481   0.347  0.1750 -0.3553 -0.0805
 5090TIP3    H136685   1.632   4.451   0.419 -0.7685 -0.3239 -0.7774
 5090TIP3    H236686   1.773   4.440   0.363  0.5139  1.0106  1.9955
 5091TIP3   OH236687   5.364   6.150   5.449 -0.6247 -0.1704  0.7126
 5091TIP3    H136688   5.417   6.074   5.475 -3.1735 -2.5813 -0.5507
 5091TIP3    H236689   5.392   6.169   5.360  2.3429  2.7494  2.0540
 5092TIP3   OH236690   0.422   2.503  12.594  0.3147 -0.4543 -0.6228
 5092TIP3    H136691   0.453   2.437  12.655 -1.1219 -0.5421  0.0721
 5092TIP3    H236692   0.389   2.454  12.519  0.9970 -0.4073 -0.9631
 5093TIP3   OH236693   5.243   4.157   6.225  0.8279  0.6274 -0.3591
 5093TIP3    H136694   5.170   4.120   6.275  1.8493 -1.6466 -0.4163
 5093TIP3    H236695   5.291   4.210   6.289  1.2706 -1.0158  0.7460
 5094TIP3   OH236696   2.700   3.981   4.169 -0.0419 -0.1612  0.0221
 5094TIP3    H136697   2.773   4.038   4.146 -0.2209 -1.0881 -3.3099
 5094TIP3    H236698   2.622   4.028   4.140 -0.6960  0.0384  1.9378
 5095TIP3   OH236699   5.016   1.431   2.605  0.4485  0.1720  0.0199
 5095TIP3    H136700   5.020   1.425   2.700 -0.0343  0.7612  0.0817
 5095TIP3    H236701   5.083   1.496   2.583  1.1118 -0.5387 -0.1162
 5096TIP3   OH236702   0.046   6.347   6.352  0.1670  0.3765  0.4058
 5096TIP3    H136703   0.076   6.262   6.382 -0.1263  0.2109  0.2291
 5096TIP3    H236704  -0.002   6.384   6.426 -0.3341  0.0780  0.2306
 5097TIP3   OH236705   5.385   5.043   3.366 -0.1771  0.0834 -0.2047
 5097TIP3    H136706   5.299   5.079   3.386 -0.6459 -0.4661 -1.1366
 5097TIP3    H236707   5.446   5.093   3.421 -0.9579  1.2729 -0.3760
 5098TIP3   OH236708   0.708   0.852  17.272  0.4148  0.0644 -0.0375
 5098TIP3    H136709   0.642   0.839  17.204  0.0115 -0.2020  0.4014
 5098TIP3    H236710   0.684   0.791  17.341  0.2851  0.9835  0.7471
 5099TIP3   OH236711   0.504   0.627   0.741 -0.5556 -0.1426  0.3988
 5099TIP3    H136712   0.436   0.561   0.731 -0.0599 -0.9942  2.2450
 5099TIP3    H236713   0.577   0.581   0.783 -0.2894  1.5781  1.9669
 5100TIP3   OH236714   3.196   1.026   0.980  0.1466  0.7173  0.3447
 5100TIP3    H136715   3.140   1.087   1.027 -0.4924  0.5716 -0.2276
 5100TIP3    H236716   3.224   0.963   1.047 -0.7035  0.5515  0.5477
 5101TIP3   OH236717   0.619   3.002   2.338  0.4538 -0.2836  0.6691
 5101TIP3    H136718   0.543   3.061   2.338  0.6058 -0.0871  0.8155
 5101TIP3    H236719   0.645   2.996   2.429  0.2090 -0.8826  0.7049
 5102TIP3   OH236720   0.162   6.710   0.014 -0.2474 -0.2031 -0.0684
 5102TIP3    H136721   0.097   6.697  -0.055 -1.3041  0.0063  0.8542
 5102TIP3    H236722   0.164   6.626   0.060 -0.0420 -0.1330  0.0531
 5103TIP3   OH236723   1.292   5.222  16.515  0.6860 -0.6735  0.2110
 5103TIP3    H136724   1.311   5.307  16.554 -0.6659 -0.5791  0.7063
 5103TIP3    H236725   1.305   5.236  16.421  1.4008 -0.1897  0.3749
 5104TIP3   OH236726   1.010   4.938  11.373 -0.3438  0.3091  0.3864
 5104TIP3    H136727   0.928   4.917  11.417 -0.5229  1.3984  0.6144
 5104TIP3    H236728   0.984   4.953  11.282  0.0654 -2.2067 -0.2156
 5105TIP3   OH236729   1.257   4.880  14.879 -0.1810 -0.2459 -0.1430
 5105TIP3    H136730   1.336   4.834  14.908 -0.0812  0.5190  0.8546
 5105TIP3    H236731   1.288   4.940  14.811  0.4914  1.4435  1.5606
 5106TIP3   OH236732   4.337   0.819   4.748  0.2272  0.6206 -0.0467
 5106TIP3    H136733   4.320   0.726   4.735  0.8407  0.4528  0.2948
 5106TIP3    H236734   4.324   0.833   4.842  0.7337  0.7427  0.0098
 5107TIP3   OH236735   0.746   2.699   4.299 -0.4439 -0.7994  0.2811
 5107TIP3    H136736   0.782   2.610   4.304 -2.0000 -1.4088  1.3880
 5107TIP3    H236737   0.698   2.710   4.380 -1.3404  0.5983 -0.4056
 5108TIP3   OH236738   4.998   5.022  13.257  0.0828 -0.1532  0.2242
 5108TIP3    H136739   4.904   5.030  13.271  0.3050  1.5501  1.0910
 5108TIP3    H236740   5.022   5.101  13.209  1.2538  0.1529  1.2541
 5109TIP3   OH236741   0.368   1.853   2.335 -0.0446 -0.3648  0.1677
 5109TIP3    H136742   0.334   1.943   2.329 -1.7500 -1.0812 -2.0996
 5109TIP3    H236743   0.389   1.830   2.245  3.3733 -1.2380  1.0477
 5110TIP3   OH236744   1.150   0.759   4.916 -0.0029 -0.0364  0.2543
 5110TIP3    H136745   1.120   0.669   4.911  2.7121 -0.9794 -0.9278
 5110TIP3    H236746   1.246   0.753   4.912  0.2530  2.9419 -0.9957
 5111TIP3   OH236747   2.471   2.608  12.200 -0.3730  0.5073 -0.6702
 5111TIP3    H136748   2.435   2.628  12.286  1.0540 -0.4201  0.1859
 5111TIP3    H236749   2.536   2.677  12.184  0.5275 -0.2188 -0.2436
 5112TIP3   OH236750   3.639   4.756   5.464  0.1267 -0.6898  0.3217
 5112TIP3    H136751   3.724   4.735   5.503 -0.4222  0.3894  2.2395
 5112TIP3    H236752   3.600   4.670   5.445  1.3606 -1.2078  0.0194
 5113TIP3   OH236753   0.367   2.880   4.143  0.0398 -0.1359  0.2329
 5113TIP3    H136754   0.408   2.906   4.225  0.3396 -0.1307  0.0818
 5113TIP3    H236755   0.420   2.807   4.111  0.4896  0.4675 -0.4286
 5114TIP3   OH236756   2.313   6.331   1.755  0.0470 -0.3955 -0.1006
 5114TIP3    H136757   2.364   6.268   1.704 -0.3909 -0.5883 -0.3042
 5114TIP3    H236758   2.236   6.282   1.785  0.5998 -0.4719  1.2904
 5115TIP3   OH236759   3.241   5.937  12.399  0.1503  0.5824  0.0625
 5115TIP3    H136760   3.334   5.928  12.377 -0.1107 -0.3258 -0.7508
 5115TIP3    H236761   3.222   5.861  12.454 -0.9822 -1.5979 -2.9998
 5116TIP3   OH236762   4.585   1.780  13.692 -0.5542  0.8617  0.0337
 5116TIP3    H136763   4.640   1.704  13.671 -0.4932  0.5168  1.3788
 5116TIP3    H236764   4.497   1.744  13.698 -0.9108  1.3404 -1.6885
 5117TIP3   OH236765   5.448   4.463  16.283  0.1122 -0.3596 -0.4416
 5117TIP3    H136766   5.465   4.534  16.346 -2.5536 -0.2969  0.3504
 5117TIP3    H236767   5.495   4.388  16.319  1.7507  0.6136 -0.4752
 5118TIP3   OH236768   6.457   4.013  16.361 -0.2136  0.3219 -0.1159
 5118TIP3    H136769   6.430   4.047  16.275  0.3535  1.5469  0.1696
 5118TIP3    H236770   6.393   4.050  16.422 -2.7759 -3.2415 -0.2734
 5119TIP3   OH236771   5.698   0.228   5.607 -0.8210 -0.3581 -0.1082
 5119TIP3    H136772   5.675   0.157   5.667  1.3538 -1.4441 -0.4563
 5119TIP3    H236773   5.657   0.203   5.524 -0.9531 -0.6419  0.0428
 5120TIP3   OH236774   2.244   1.474  10.802 -0.2451  0.0165  0.0840
 5120TIP3    H136775   2.273   1.392  10.842 -0.5675  0.6614  1.7252
 5120TIP3    H236776   2.149   1.475  10.815 -0.2935  0.4608 -0.2976
 5121TIP3   OH236777   0.495   2.852  13.911 -0.1388 -0.0423  0.3020
 5121TIP3    H136778   0.419   2.819  13.957 -1.6706  1.3983 -1.0408
 5121TIP3    H236779   0.525   2.778  13.858 -1.0672 -0.4187  0.2838
 5122TIP3   OH236780   3.287   3.072   3.876 -0.8042  0.3376  0.1084
 5122TIP3    H136781   3.297   2.979   3.899  1.2377  0.0886 -1.5465
 5122TIP3    H236782   3.239   3.071   3.793  0.1405  0.6700 -0.4582
 5123TIP3   OH236783   6.637   0.464   1.558 -0.4397  0.1605 -0.1974
 5123TIP3    H136784   6.709   0.404   1.539  0.1211  0.2064  1.5354
 5123TIP3    H236785   6.657   0.542   1.507  2.1532  1.1186  1.9789
 5124TIP3   OH236786   1.697   1.438  13.771 -0.8953 -0.3784 -0.2321
 5124TIP3    H136787   1.656   1.355  13.795  0.3994 -0.7361  0.8382
 5124TIP3    H236788   1.714   1.430  13.677 -1.7284 -0.8903 -0.3439
 5125TIP3   OH236789   5.477   4.132   2.941  0.3584 -0.4387  0.6562
 5125TIP3    H136790   5.480   4.058   3.001  0.6905  0.4774  1.8007
 5125TIP3    H236791   5.465   4.208   2.997  1.2813  0.5087 -0.3726
 5126TIP3   OH236792   4.716   2.257   2.238  0.7161 -0.5588  0.4223
 5126TIP3    H136793   4.703   2.214   2.323 -0.2223 -1.3764 -0.1175
 5126TIP3    H236794   4.784   2.205   2.195  2.1052  0.6010  1.1505
 5127TIP3   OH236795   5.310   3.959  14.577 -0.0565 -0.1132  0.1985
 5127TIP3    H136796   5.259   4.037  14.593 -0.9036 -0.6275  0.0739
 5127TIP3    H236797   5.311   3.950  14.481 -0.4757 -0.5847  0.2361
 5128TIP3   OH236798   3.256   4.301  13.311  0.2189 -0.2904 -0.1867
 5128TIP3    H136799   3.275   4.358  13.385 -0.9610  3.2473 -2.3219
 5128TIP3    H236800   3.333   4.307  13.255 -0.7354  1.2148 -1.4576
 5129TIP3   OH236801   6.247   4.399   4.974  0.0581  0.0573 -0.1430
 5129TIP3    H136802   6.325   4.345   4.984 -0.4029 -0.5805  0.0664
 5129TIP3    H236803   6.190   4.347   4.917 -0.3705  0.3461  0.0211
 5130TIP3   OH236804   5.860   0.170  14.447  0.3098  0.0648  0.0052
 5130TIP3    H136805   5.937   0.133  14.489  0.9496  1.3023 -0.0576
 5130TIP3    H236806   5.880   0.170  14.354  0.5270  1.0373  0.0467
 5131TIP3   OH236807   5.177   4.701   0.312 -0.6978  0.5344 -0.0142
 5131TIP3    H136808   5.206   4.761   0.380  0.3802 -0.4226  0.3992
 5131TIP3    H236809   5.082   4.693   0.326 -0.7705  1.7062  0.2447
 5132TIP3   OH236810   1.667   3.822  14.548  0.0348 -0.1905 -0.0373
 5132TIP3    H136811   1.636   3.863  14.467  0.1754  0.6026  0.2988
 5132TIP3    H236812   1.760   3.844  14.552  0.1364 -0.6494  0.0861
 5133TIP3   OH236813   3.884   3.195   4.698  0.6884  0.1696 -0.0605
 5133TIP3    H136814   3.967   3.179   4.653  0.1532 -4.5548  0.1473
 5133TIP3    H236815   3.908   3.200   4.791  0.8876  0.9591 -0.1441
 5134TIP3   OH236816   2.148   0.390   5.190 -0.3029 -0.4623  0.0827
 5134TIP3    H136817   2.154   0.380   5.095 -0.4972 -0.4150  0.0658
 5134TIP3    H236818   2.057   0.371   5.211 -0.5148  0.5440  0.1390
 5135TIP3   OH236819   3.584   1.499   3.514 -0.0909  0.0896  0.4183
 5135TIP3    H136820   3.507   1.444   3.532 -0.3363  0.6878  1.2823
 5135TIP3    H236821   3.612   1.529   3.601 -0.4225  1.9587 -0.0887
 5136TIP3   OH236822   2.335   3.426  15.784  0.5151  0.9836 -0.8277
 5136TIP3    H136823   2.296   3.503  15.743 -0.2174  0.8273 -0.4456
 5136TIP3    H236824   2.350   3.453  15.875  0.1305  0.6353 -0.6596
 5137TIP3   OH236825   1.635   5.315  13.121 -0.1743 -0.1255 -0.0701
 5137TIP3    H136826   1.632   5.411  13.111  0.9688  0.2164  2.2093
 5137TIP3    H236827   1.576   5.297  13.194 -1.3350 -1.3477 -1.2551
 5138TIP3   OH236828   0.178   1.958  16.281 -0.2496  0.3441 -0.5020
 5138TIP3    H136829   0.160   1.869  16.253  0.1809 -0.0911  0.5237
 5138TIP3    H236830   0.203   2.004  16.201  1.0032 -0.8482 -0.8423
 5139TIP3   OH236831   4.084   2.261   5.260 -0.1905  0.6588  0.6090
 5139TIP3    H136832   4.022   2.191   5.238 -0.6825  1.5027 -0.8273
 5139TIP3    H236833   4.029   2.333   5.290  0.2573  0.6925  1.3608
 5140TIP3   OH236834   1.698   2.604   1.699  0.3459  0.2409  0.0512
 5140TIP3    H136835   1.619   2.584   1.748 -0.0753  0.1523 -0.6537
 5140TIP3    H236836   1.681   2.690   1.660  1.1679  0.8879  1.0450
 5141TIP3   OH236837   1.341   0.966   2.231 -0.0465  0.5296  0.1415
 5141TIP3    H136838   1.415   0.917   2.196 -0.2093  1.1305 -1.1191
 5141TIP3    H236839   1.381   1.034   2.285  0.1724 -1.0202  2.0244
 5142TIP3   OH236840   3.050   3.606  13.104  0.3860  0.5906 -0.0417
 5142TIP3    H136841   2.992   3.658  13.158  0.9020  0.0210  1.1078
 5142TIP3    H236842   2.997   3.580  13.028  0.2824  3.1953 -0.9384
 5143TIP3   OH236843   6.168   1.307  11.552 -0.0267 -0.0419  0.5333
 5143TIP3    H136844   6.224   1.333  11.479  0.9752  1.6838  1.8284
 5143TIP3    H236845   6.228   1.293  11.625 -1.0939 -0.4447  1.3617
 5144TIP3   OH236846   1.426   3.601  10.769 -0.0145  0.1273 -0.1524
 5144TIP3    H136847   1.436   3.609  10.864  1.6407 -1.5005 -0.1263
 5144TIP3    H236848   1.497   3.542  10.743 -1.2176 -0.4724 -2.2478
 5145TIP3   OH236849   0.490   2.377   4.036 -0.3410 -0.1139  0.2422
 5145TIP3    H136850   0.417   2.400   3.980 -0.7582 -0.0989  0.7819
 5145TIP3    H236851   0.456   2.386   4.125  0.1475 -0.6708  0.4915
 5146TIP3   OH236852   0.196   3.448  15.004 -0.3519  0.1096 -0.5534
 5146TIP3    H136853   0.199   3.485  14.916 -0.3417 -0.5634 -0.8490
 5146TIP3    H236854   0.281   3.469  15.042 -1.3968  3.0258  0.4316
 5147TIP3   OH236855   2.658   4.195  14.338 -0.2497  0.0797 -0.1246
 5147TIP3    H136856   2.584   4.135  14.332 -0.4890  0.0828  2.1084
 5147TIP3    H236857   2.629   4.262  14.400  1.2147  0.6726 -0.0547
 5148TIP3   OH236858   0.025   6.067   2.620 -0.2026 -0.0283 -0.2443
 5148TIP3    H136859   0.085   6.031   2.685  0.4849 -2.3214 -2.0320
 5148TIP3    H236860  -0.051   6.009   2.624 -0.8281  0.7676 -0.4095
 5149TIP3   OH236861   2.575   2.572   5.233  0.7988 -0.2784  0.7217
 5149TIP3    H136862   2.533   2.632   5.294  0.0312  0.4851 -0.5245
 5149TIP3    H236863   2.540   2.486   5.256 -2.9895  0.4960 -1.3629
 5150TIP3   OH236864   1.588   5.086   5.810 -0.6566 -0.1072 -0.7099
 5150TIP3    H136865   1.523   5.030   5.853  1.0766 -0.6205  1.4691
 5150TIP3    H236866   1.664   5.029   5.797  1.1630  1.6030  1.5421
 5151TIP3   OH236867   6.386   1.159  16.753  0.1651 -0.0195  0.0108
 5151TIP3    H136868   6.369   1.219  16.681  1.6067 -0.7125 -0.9576
 5151TIP3    H236869   6.317   1.178  16.817  1.5941  3.9597  0.6421
 5152TIP3   OH236870   1.169   2.583  15.335  0.0316  0.1985 -0.0257
 5152TIP3    H136871   1.115   2.505  15.349 -0.9656  0.6405 -1.2659
 5152TIP3    H236872   1.253   2.548  15.305 -0.1067 -0.4189  0.2707
 5153TIP3   OH236873   2.753   6.342  13.667  0.1225  0.0607  1.0963
 5153TIP3    H136874   2.706   6.271  13.712 -2.2529  0.7268 -0.1647
 5153TIP3    H236875   2.712   6.346  13.580  2.9347  0.3797 -0.3202
 5154TIP3   OH236876   3.736   0.852  12.169 -0.0012  0.0958  0.2748
 5154TIP3    H136877   3.686   0.871  12.090  0.8479  0.1250 -0.2742
 5154TIP3    H236878   3.827   0.848  12.139  0.1822 -1.4662  0.9690
 5155TIP3   OH236879   4.966   0.785  17.197 -0.2257  0.0024  0.3245
 5155TIP3    H136880   5.058   0.762  17.185  0.0070  0.6659  0.7445
 5155TIP3    H236881   4.919   0.730  17.135  0.5845  0.6387 -0.8941
 5156TIP3   OH236882   5.488   3.447   1.285 -0.3243  0.1480  0.5642
 5156TIP3    H136883   5.463   3.396   1.208  2.9650 -0.2015 -0.4353
 5156TIP3    H236884   5.486   3.384   1.357  0.2300 -0.4917  0.0276
 5157TIP3   OH236885   1.184   3.685  11.747 -0.0950  0.0923 -0.7026
 5157TIP3    H136886   1.131   3.665  11.669  0.0308 -1.1268 -0.4881
 5157TIP3    H236887   1.270   3.710  11.712 -0.5978  1.4876 -1.0223
 5158TIP3   OH236888   5.471   0.416  11.067  0.1355  0.3837  0.3674
 5158TIP3    H136889   5.528   0.444  10.995  0.0482  1.5454  0.7264
 5158TIP3    H236890   5.399   0.370  11.024  0.7423 -0.0754 -0.1815
 5159TIP3   OH236891   4.398   1.443  14.976 -0.7250  0.3518  0.3566
 5159TIP3    H136892   4.384   1.525  15.023  0.6030  0.0198  1.3856
 5159TIP3    H236893   4.347   1.379  15.025 -1.2743  0.4434 -0.0897
 5160TIP3   OH236894   0.108   4.885  14.726 -0.0143 -0.0530 -0.1878
 5160TIP3    H136895   0.194   4.905  14.689  0.7977 -1.3084  0.9041
 5160TIP3    H236896   0.046   4.908  14.658  1.3356 -1.1776 -1.8809
 5161TIP3   OH236897   1.239   2.196   2.738  0.2133  0.0708 -0.2166
 5161TIP3    H136898   1.200   2.164   2.657  1.7720  0.5345 -1.1960
 5161TIP3    H236899   1.243   2.291   2.728  1.4512  0.0488 -0.1212
 5162TIP3   OH236900   0.603   2.631   5.682 -0.0883  0.4254 -0.1576
 5162TIP3    H136901   0.606   2.633   5.778 -0.2472 -1.4072 -0.0784
 5162TIP3    H236902   0.510   2.636   5.661 -0.0013  1.9651 -0.2949
 5163TIP3   OH236903   2.126   5.617   3.284  0.2011  0.2337  0.2448
 5163TIP3    H136904   2.112   5.711   3.300  1.6835  1.0978 -2.8532
 5163TIP3    H236905   2.213   5.600   3.319  0.3268  0.2586 -0.0544
 5164TIP3   OH236906   6.196   0.648  15.267  0.1173 -0.7008 -0.0753
 5164TIP3    H136907   6.109   0.661  15.228  0.5792 -0.5813 -1.1099
 5164TIP3    H236908   6.254   0.703  15.215  0.8378 -0.8689  0.5332
 5165TIP3   OH236909   3.377   4.876  16.093  0.4920 -0.1620 -0.5714
 5165TIP3    H136910   3.409   4.787  16.082 -0.9958 -0.5329 -2.2413
 5165TIP3    H236911   3.409   4.923  16.016 -0.5880  0.1552 -0.8501
 5166TIP3   OH236912   6.592   1.257   3.449 -0.0458  0.1464 -0.1405
 5166TIP3    H136913   6.544   1.336   3.472  0.9999  1.1969 -1.3502
 5166TIP3    H236914   6.526   1.188   3.446 -0.9253  0.8721  1.3089
 5167TIP3   OH236915   5.074   3.406  15.341 -0.0007  0.1866 -0.7503
 5167TIP3    H136916   4.988   3.401  15.384  0.3862  1.2470  0.2035
 5167TIP3    H236917   5.058   3.375  15.252 -1.0643 -1.0100 -0.1831
 5168TIP3   OH236918   2.900   2.148  13.498 -0.0482 -0.3076 -0.2504
 5168TIP3    H136919   2.805   2.143  13.492  0.0069 -2.6597  0.1006
 5168TIP3    H236920   2.919   2.242  13.501 -2.4051  0.1983  0.4951
 5169TIP3   OH236921   2.209   4.415   0.992 -0.2168 -0.7107 -1.0021
 5169TIP3    H136922   2.175   4.489   1.043  1.8147  0.4058 -1.1651
 5169TIP3    H236923   2.131   4.364   0.970 -1.4913  0.4016  0.6386
 5170TIP3   OH236924   2.176   4.655  15.986 -0.4084 -0.6814  0.3442
 5170TIP3    H136925   2.103   4.664  15.924 -0.7634  1.2144  0.9921
 5170TIP3    H236926   2.250   4.699  15.944 -0.6788  0.7129  1.2738
 5171TIP3   OH236927   1.172   5.656   3.913 -0.0057 -0.3113 -0.1756
 5171TIP3    H136928   1.116   5.587   3.876  0.4329  0.6609 -2.8360
 5171TIP3    H236929   1.134   5.738   3.882 -0.3326  0.7368  2.6799
 5172TIP3   OH236930   6.388   5.974   0.606 -0.5978  0.2725  0.1519
 5172TIP3    H136931   6.356   6.053   0.564  0.3849  0.4205 -0.3582
 5172TIP3    H236932   6.354   5.978   0.695  1.7464  2.7852  1.0967
 5173TIP3   OH236933   5.662   0.474  16.559 -0.4241  0.6882  0.2325
 5173TIP3    H136934   5.567   0.482  16.547 -0.3537  0.7281 -0.3476
 5173TIP3    H236935   5.677   0.381  16.577 -0.1946 -0.2678 -3.8243
 5174TIP3   OH236936   3.860   0.828   3.514 -0.0357 -1.0624 -0.2733
 5174TIP3    H136937   3.953   0.852   3.511 -0.2850  0.1425  0.9457
 5174TIP3    H236938   3.817   0.895   3.462 -0.2499 -1.5461 -0.7266
 5175TIP3   OH236939   4.749   2.636   5.096 -0.5506  0.1874  0.1409
 5175TIP3    H136940   4.816   2.600   5.154 -0.4931  0.7088  0.4081
 5175TIP3    H236941   4.771   2.601   5.010 -0.5020 -0.4103  0.3897
 5176TIP3   OH236942   5.143   3.245   4.219  0.4113 -0.3400  0.1598
 5176TIP3    H136943   5.065   3.205   4.258  1.2380 -1.5939  0.6014
 5176TIP3    H236944   5.209   3.176   4.223  2.1391  1.2908  1.6184
 5177TIP3   OH236945   4.429   0.250  16.297  0.0969  0.2197  0.3072
 5177TIP3    H136946   4.487   0.276  16.368 -0.9207 -1.2312  1.7337
 5177TIP3    H236947   4.483   0.194  16.241 -0.0608 -1.8413  2.0920
 5178TIP3   OH236948   4.704   6.343  14.735 -0.2532 -0.1836 -0.3291
 5178TIP3    H136949   4.630   6.370  14.680 -1.1027 -0.1024  0.7926
 5178TIP3    H236950   4.753   6.424  14.750 -0.5845 -0.0108 -0.1597
 5179TIP3   OH236951   2.474   4.722   3.598 -0.4477 -0.2072 -0.8387
 5179TIP3    H136952   2.567   4.735   3.579 -0.6546 -0.1002 -1.8211
 5179TIP3    H236953   2.470   4.635   3.637  0.2334  0.3468  0.5412
 5180TIP3   OH236954   0.991   4.070  11.972 -0.0197 -0.1903  0.0925
 5180TIP3    H136955   1.009   4.157  12.006  2.9569 -0.2285 -1.0319
 5180TIP3    H236956   1.003   4.079  11.877  0.2684 -1.7636 -0.0450
 5181TIP3   OH236957   0.102   2.738   1.332 -0.3451  0.3213  0.3289
 5181TIP3    H136958   0.180   2.774   1.374 -0.0227  0.0667 -0.0497
 5181TIP3    H236959   0.112   2.643   1.338  0.1834  0.2629 -1.1788
 5182TIP3   OH236960   0.336   3.955   6.403  0.4755 -0.5395 -0.9170
 5182TIP3    H136961   0.336   3.984   6.311 -0.2858  1.1462 -0.4239
 5182TIP3    H236962   0.244   3.938   6.422  0.1502  2.3377  0.4458
 5183TIP3   OH236963   5.215   4.379  12.619  0.8112 -0.3620 -0.4698
 5183TIP3    H136964   5.195   4.319  12.691  1.0326  0.0709 -0.0429
 5183TIP3    H236965   5.158   4.454  12.634  0.5668 -0.4433 -0.9795
 5184TIP3   OH236966   4.817   0.609   4.825 -0.3986 -0.6349 -0.1821
 5184TIP3    H136967   4.901   0.565   4.818 -0.7392 -1.9278  2.3449
 5184TIP3    H236968   4.829   0.692   4.781  3.3434  0.6975  2.7908
 5185TIP3   OH236969   0.188   5.734  16.178  0.1324 -0.5680  0.4762
 5185TIP3    H136970   0.177   5.755  16.271  0.5280 -0.0396  0.4131
 5185TIP3    H236971   0.154   5.811  16.132 -0.6796 -1.1085  0.1634
 5186TIP3   OH236972   4.409   4.111  12.680 -0.2002  0.2395  0.0505
 5186TIP3    H136973   4.325   4.064  12.682 -0.1206  0.0595  2.9005
 5186TIP3    H236974   4.475   4.042  12.678 -0.0856  0.3565 -0.4683
 5187TIP3   OH236975   1.017   5.931  14.526  0.0762 -0.4205 -0.0720
 5187TIP3    H136976   1.019   5.858  14.464 -0.0313  0.3518 -0.9947
 5187TIP3    H236977   1.045   5.892  14.609  1.6681 -1.1620 -0.9159
 5188TIP3   OH236978   2.964   6.520  12.183  0.4103 -0.4925  0.1516
 5188TIP3    H136979   2.947   6.517  12.277 -0.1249 -0.2136  0.0658
 5188TIP3    H236980   3.030   6.589  12.173  1.4599 -1.4223  0.4601
 5189TIP3   OH236981   2.933   1.481  17.187 -0.2763  0.0669 -0.1294
 5189TIP3    H136982   2.841   1.465  17.206  0.2208 -1.5658  1.1181
 5189TIP3    H236983   2.935   1.503  17.094 -1.8226 -0.7761 -0.3963
 5190TIP3   OH236984   0.791   4.374  15.901 -0.1253 -0.1339  0.0403
 5190TIP3    H136985   0.861   4.413  15.953 -0.7736  1.1310  0.0058
 5190TIP3    H236986   0.819   4.386  15.810  1.3358 -2.9494 -0.0092
 5191TIP3   OH236987   1.005   5.643   0.386 -0.4053  0.1483 -0.3119
 5191TIP3    H136988   0.981   5.634   0.478 -2.3184  1.5286 -0.6298
 5191TIP3    H236989   1.101   5.642   0.386 -0.2589  3.0378  2.0648
 5192TIP3   OH236990   0.156   3.258   2.659 -0.0769 -0.5846  0.3682
 5192TIP3    H136991   0.238   3.291   2.622  0.7281 -2.8324 -0.0108
 5192TIP3    H236992   0.088   3.295   2.603  0.8213 -0.2270 -0.5242
 5193TIP3   OH236993   5.367   6.562   3.239 -0.5539 -0.2686  0.2862
 5193TIP3    H136994   5.335   6.652   3.248 -1.0146 -0.0487 -2.5078
 5193TIP3    H236995   5.327   6.514   3.311  0.0039  1.8004  2.0753
 5194TIP3   OH236996   5.453   4.635  11.263  0.5953  0.1821  0.1807
 5194TIP3    H136997   5.404   4.706  11.304  2.7796  0.4836  2.5656
 5194TIP3    H236998   5.400   4.557  11.278 -0.4808  0.8812  0.1069
 5195TIP3   OH236999   6.304   1.140  14.518 -0.3957 -0.3399  0.2557
 5195TIP3    H137000   6.279   1.226  14.485 -1.3536 -0.6627  0.1108
 5195TIP3    H237001   6.221   1.098  14.542  0.1461 -0.7180  1.6020
 5196TIP3   OH237002   6.014   1.366  14.107 -0.5361  0.2113  0.4473
 5196TIP3    H137003   6.091   1.310  14.117 -1.6664 -1.5817 -0.4141
 5196TIP3    H237004   6.043   1.452  14.137  2.0541 -0.1858 -0.6288
 5197TIP3   OH237005   0.209   3.494   5.765 -0.1551 -0.0605 -0.4622
 5197TIP3    H137006   0.210   3.588   5.752  1.3128 -0.1214 -0.9111
 5197TIP3    H237007   0.234   3.481   5.857 -2.5013  0.0358  0.2574
 5198TIP3   OH237008   2.436   2.052  11.817  0.8386  0.0784 -0.1913
 5198TIP3    H137009   2.530   2.033  11.816  0.8872  0.1225  1.4062
 5198TIP3    H237010   2.430   2.140  11.854  0.1836  0.3269 -0.8513
 5199TIP3   OH237011   2.032   2.835   3.137 -0.2939 -0.3519 -0.3790
 5199TIP3    H137012   2.114   2.799   3.172 -0.2054  1.7207  1.8063
 5199TIP3    H237013   2.052   2.926   3.118 -2.7291  1.1671  3.2403
 5200TIP3   OH237014   5.369   1.010  12.980  0.3340  0.1811  0.4827
 5200TIP3    H137015   5.455   1.029  12.942  0.8297 -1.4324  0.7211
 5200TIP3    H237016   5.373   0.916  13.001 -1.8899 -0.2055 -0.5929
 5201TIP3   OH237017   1.852   2.695  15.209 -0.5442 -0.2590 -0.0534
 5201TIP3    H137018   1.930   2.747  15.231 -0.3644 -0.9916  1.1079
 5201TIP3    H237019   1.789   2.760  15.178  0.1257  0.4995  0.1192
 5202TIP3   OH237020   4.139   1.394   3.568 -0.1620  0.0432 -0.1690
 5202TIP3    H137021   4.060   1.386   3.622  0.1174  1.7726  0.5694
 5202TIP3    H237022   4.107   1.396   3.478 -1.0369  1.1841  0.1380
 5203TIP3   OH237023   5.357   0.000  12.481  0.2104 -0.0786 -0.7573
 5203TIP3    H137024   5.276  -0.044  12.454 -0.7616  1.3560 -0.3646
 5203TIP3    H237025   5.387   0.045  12.402  1.4816 -1.7712 -1.2920
 5204TIP3   OH237026   3.176   6.752  10.949  0.5173  0.1710  0.0436
 5204TIP3    H137027   3.212   6.793  10.870 -2.9375  2.4452 -0.5318
 5204TIP3    H237028   3.202   6.810  11.021  0.7559 -0.0256  0.1203
 5205TIP3   OH237029   1.134   4.343   1.646 -0.1316  0.0161  0.3806
 5205TIP3    H137030   1.054   4.306   1.607  0.5141 -1.0377  0.0230
 5205TIP3    H237031   1.201   4.278   1.629  1.0808  1.4023 -0.3358
 5206TIP3   OH237032   3.190   3.731   4.934  0.1345 -0.3586  0.3331
 5206TIP3    H137033   3.258   3.664   4.930  1.0521  0.5913 -1.4045
 5206TIP3    H237034   3.229   3.807   4.891 -3.0928 -0.7631 -4.0144
 5207TIP3   OH237035   2.312   4.876   0.574 -0.0977  0.4219 -0.3816
 5207TIP3    H137036   2.229   4.915   0.547 -0.6020 -0.6828 -0.4757
 5207TIP3    H237037   2.307   4.871   0.669 -0.6643 -0.7034 -0.4428
 5208TIP3   OH237038   4.853   2.803  15.937 -0.0966 -0.3906 -0.1828
 5208TIP3    H137039   4.789   2.732  15.946 -0.3850 -0.2851 -1.2313
 5208TIP3    H237040   4.809   2.868  15.883 -0.6788  1.6515  2.5450
 5209TIP3   OH237041   0.827   0.193   2.268  0.4317  1.2266  0.7272
 5209TIP3    H137042   0.888   0.266   2.260  2.5815 -0.5174 -0.1037
 5209TIP3    H237043   0.801   0.174   2.178  0.1711  0.7665  0.8982
 5210TIP3   OH237044   0.723   2.670   5.175 -0.2674  0.0370 -0.2742
 5210TIP3    H137045   0.691   2.757   5.152  1.2619  0.6480 -0.1739
 5210TIP3    H237046   0.818   2.675   5.161 -0.0109 -1.2516  0.8721
 5211TIP3   OH237047   4.006   1.591  13.922 -0.0285  0.3150  0.2491
 5211TIP3    H137048   4.024   1.592  14.016 -1.1398  0.1575  0.4778
 5211TIP3    H237049   3.916   1.624  13.914  0.4002  1.2859 -0.8494
 5212TIP3   OH237050   0.204   5.785  12.684  0.2240 -0.2836  0.1373
 5212TIP3    H137051   0.282   5.761  12.734  1.2966  0.2989 -1.1887
 5212TIP3    H237052   0.238   5.825  12.604 -1.4288 -0.8416 -0.9000
 5213TIP3   OH237053   3.644   5.250  17.016 -0.1330  0.1805 -0.3240
 5213TIP3    H137054   3.553   5.261  16.987 -0.4585  0.7353  0.8516
 5213TIP3    H237055   3.669   5.335  17.052  0.3053 -0.4177  0.8270
 5214TIP3   OH237056   0.365   0.765   2.467 -0.4631 -0.0212 -0.0334
 5214TIP3    H137057   0.340   0.679   2.432 -0.8025  0.7010 -1.6100
 5214TIP3    H237058   0.329   0.828   2.405  0.8392  1.2334  0.4488
 5215TIP3   OH237059   0.336   6.557   6.082  0.3543  0.1239 -0.0413
 5215TIP3    H137060   0.343   6.476   6.134  0.9893  0.8079  0.9900
 5215TIP3    H237061   0.293   6.530   6.001  0.9978 -1.3407  0.0708
 5216TIP3   OH237062   3.785   4.865  16.187 -0.7163 -0.6190 -0.3833
 5216TIP3    H137063   3.797   4.771  16.198  1.7971 -0.4925 -1.4204
 5216TIP3    H237064   3.741   4.874  16.102 -1.7130 -0.8394  0.0872
 5217TIP3   OH237065   1.383   5.570  17.147 -0.1056  0.3317 -0.0292
 5217TIP3    H137066   1.334   5.537  17.223 -1.9471 -0.2412 -1.3900
 5217TIP3    H237067   1.412   5.657  17.173 -1.7653  0.6469  0.8949
 5218TIP3   OH237068   6.241   3.740  13.300 -0.7047 -0.5055 -0.0048
 5218TIP3    H137069   6.258   3.813  13.242 -3.1800 -1.0499 -1.5494
 5218TIP3    H237070   6.200   3.779  13.378  2.7451  0.2380  1.6042
 5219TIP3   OH237071   4.561   0.188  15.602  0.0445  0.4693 -0.0719
 5219TIP3    H137072   4.515   0.147  15.676  0.8435 -1.5182 -0.6219
 5219TIP3    H237073   4.495   0.243  15.561 -0.8814  0.3143  1.1446
 5220TIP3   OH237074   5.791   4.917  11.207 -0.0209 -0.2535  0.2211
 5220TIP3    H137075   5.736   4.994  11.220  0.8643  0.3555  0.4302
 5220TIP3    H237076   5.822   4.924  11.117  1.2065  0.4233  0.6677
 5221TIP3   OH237077   3.141   6.332   5.771  0.4014 -0.1843  0.1708
 5221TIP3    H137078   3.137   6.423   5.801  2.0622  0.0424 -0.2313
 5221TIP3    H237079   3.234   6.312   5.767  0.1076 -1.3689 -1.3713
 5222TIP3   OH237080   3.981   6.158   4.239 -0.2393 -0.5506  0.2314
 5222TIP3    H137081   3.983   6.064   4.261  0.2088 -0.7754 -0.7541
 5222TIP3    H237082   4.061   6.173   4.189 -0.3937  0.3364  0.2381
 5223TIP3   OH237083   6.672   1.050  14.925 -0.2443  0.3369  0.2555
 5223TIP3    H137084   6.669   1.012  14.837 -0.4766  0.7988  0.0612
 5223TIP3    H237085   6.614   0.994  14.977 -0.9504  0.7019 -0.1373
 5224TIP3   OH237086   0.072   0.597  13.941 -0.1257  0.1848  0.5958
 5224TIP3    H137087   0.011   0.542  13.990 -1.3864 -1.3096 -2.4079
 5224TIP3    H237088   0.138   0.536  13.909 -1.3086  0.3322 -2.4299
 5225TIP3   OH237089   1.038   3.102   3.004  0.1472 -0.6913 -0.2885
 5225TIP3    H137090   0.955   3.149   2.989  0.3419 -0.5315 -0.9013
 5225TIP3    H237091   1.048   3.047   2.926 -1.0266 -3.2323  1.2078
 5226TIP3   OH237092   5.619   0.967  12.810 -0.0217  0.7522 -0.0891
 5226TIP3    H137093   5.561   0.981  12.735 -0.5487  1.8082  0.4801
 5226TIP3    H237094   5.688   0.909  12.777 -1.5994 -0.8791 -0.6732
 5227TIP3   OH237095   3.552   6.204  17.009 -0.2402 -0.0703 -0.3544
 5227TIP3    H137096   3.629   6.221  17.064 -0.5458 -1.4124  0.5366
 5227TIP3    H237097   3.588   6.174  16.925  0.2504 -2.0197  0.5019
 5228TIP3   OH237098   0.025   6.291  14.080  0.7701  0.0078  0.5565
 5228TIP3    H137099   0.025   6.359  14.149  3.8645 -0.1278  0.8772
 5228TIP3    H237100  -0.065   6.286  14.051  0.3165  4.3605  0.4568
 5229TIP3   OH237101   5.213   6.399   2.414  0.3964 -0.2488 -0.4493
 5229TIP3    H137102   5.203   6.389   2.319  1.2339 -1.5463 -0.4394
 5229TIP3    H237103   5.262   6.321   2.440  0.9066  0.5058  0.9335
 5230TIP3   OH237104   2.151   6.744  11.676  0.5880  0.0120  0.6451
 5230TIP3    H137105   2.231   6.699  11.704  0.7081 -0.6030 -0.6171
 5230TIP3    H237106   2.181   6.831  11.649  0.7025  0.0687  0.9479
 5231TIP3   OH237107   4.692   2.845  13.204 -0.1389  0.2336  0.5758
 5231TIP3    H137108   4.719   2.809  13.288  0.3350  1.4210  0.9490
 5231TIP3    H237109   4.597   2.853  13.210 -0.5384 -2.7077 -0.2424
 5232TIP3   OH237110   0.998   2.629  15.003  0.2154 -0.5295 -0.4436
 5232TIP3    H137111   0.916   2.607  14.959 -0.7736  0.4258  0.8341
 5232TIP3    H237112   1.021   2.716  14.968  1.1264 -1.1139 -1.3638
 5233TIP3   OH237113   2.841   3.224  14.417  0.0979  0.3093  0.0373
 5233TIP3    H137114   2.818   3.232  14.324  0.0030 -0.6674 -0.0356
 5233TIP3    H237115   2.889   3.141  14.423 -1.0827 -0.3350  1.0749
 5234TIP3   OH237116   6.659   3.618  15.738  0.4967  0.2996 -0.4555
 5234TIP3    H137117   6.668   3.562  15.662  1.3948 -1.2054  0.7012
 5234TIP3    H237118   6.564   3.621  15.755  0.4905 -1.8224  0.1059
 5235TIP3   OH237119   2.091   3.779   4.816  0.6440  0.8405  0.1515
 5235TIP3    H137120   2.073   3.735   4.899  0.2145 -0.8348 -0.8039
 5235TIP3    H237121   2.187   3.784   4.813  0.7798 -1.2692 -0.3099
 5236TIP3   OH237122   1.053   6.043  13.985  0.2293  0.3547 -0.2752
 5236TIP3    H137123   1.138   6.079  14.011 -1.0794  1.7391  2.4695
 5236TIP3    H237124   1.017   6.005  14.065 -1.9744  0.3169 -1.2099
 5237TIP3   OH237125   5.062   2.650   2.094 -0.0652  0.0525 -0.0282
 5237TIP3    H137126   4.972   2.683   2.097  0.5913  2.0922 -0.8796
 5237TIP3    H237127   5.090   2.647   2.185 -0.8938 -0.3322  0.2221
 5238TIP3   OH237128   2.753   4.942   6.268  0.2046 -0.3171 -0.7786
 5238TIP3    H137129   2.678   4.893   6.234 -0.6181 -1.0143  1.7955
 5238TIP3    H237130   2.715   5.021   6.307  1.1021  0.4753 -1.4514
 5239TIP3   OH237131   2.478   2.480  13.930 -0.2192 -0.7724 -0.0128
 5239TIP3    H137132   2.448   2.571  13.919  1.4439 -0.1847  0.0537
 5239TIP3    H237133   2.416   2.429  13.878 -0.3041  0.5681 -1.3093
 5240TIP3   OH237134   1.998   2.516   5.613  0.6649 -0.1053  0.3035
 5240TIP3    H137135   2.036   2.432   5.638  0.0544 -0.1670  1.0782
 5240TIP3    H237136   2.062   2.556   5.555  1.6698 -0.4215  1.1780
 5241TIP3   OH237137   2.270   1.734  10.393  0.0028 -0.3678 -0.1354
 5241TIP3    H137138   2.177   1.757  10.384 -0.2200 -1.4533 -0.7159
 5241TIP3    H237139   2.277   1.647  10.355  1.0968 -0.6852  0.7557
 5242TIP3   OH237140   2.420   5.355   4.445 -0.1863 -0.1838  0.2300
 5242TIP3    H137141   2.468   5.319   4.519 -3.8804  0.4733  3.2753
 5242TIP3    H237142   2.443   5.448   4.444  0.0029 -0.2288  0.4292
 5243TIP3   OH237143   4.172   0.048  10.966  0.8407  0.6047 -0.2966
 5243TIP3    H137144   4.235   0.012  11.029  1.4505 -1.2322 -1.8393
 5243TIP3    H237145   4.197   0.140  10.957 -1.6371  2.1893  4.8831
 5244TIP3   OH237146   5.953   4.719  13.646  0.2987 -0.4995 -0.0470
 5244TIP3    H137147   5.946   4.728  13.551  0.1126  0.2956  0.0356
 5244TIP3    H237148   5.928   4.628  13.664  0.7375 -0.7762 -0.7913
 5245TIP3   OH237149   3.756   3.293   1.048 -0.4895 -0.0514  0.3581
 5245TIP3    H137150   3.841   3.277   1.007  0.3546  2.1585  1.1173
 5245TIP3    H237151   3.773   3.295   1.142 -1.2195  1.0424  0.4982
 5246TIP3   OH237152   0.968   6.404   3.559  0.4567 -0.3166  0.7587
 5246TIP3    H137153   0.880   6.403   3.596 -0.4195 -0.8276 -1.2094
 5246TIP3    H237154   0.975   6.488   3.514 -0.0219 -1.2530 -1.1925
 5247TIP3   OH237155   3.673   0.304   1.862 -0.3849 -0.2058 -0.5802
 5247TIP3    H137156   3.620   0.225   1.848 -0.6246 -0.3432  0.9942
 5247TIP3    H237157   3.699   0.330   1.774 -1.9504 -0.9119 -1.2930
 5248TIP3   OH237158   3.767   5.006   0.539  0.3337 -0.5722 -0.1987
 5248TIP3    H137159   3.702   4.938   0.528 -0.6749  0.1153  1.2645
 5248TIP3    H237160   3.820   4.977   0.613  0.9529 -0.5389 -0.6163
 5249TIP3   OH237161   4.574   1.789  12.624 -0.2320 -0.1077  0.8841
 5249TIP3    H137162   4.502   1.810  12.565 -0.8135 -0.4382  1.4589
 5249TIP3    H237163   4.561   1.696  12.645  0.3110 -0.1470  1.0671
 5250TIP3   OH237164   0.335   0.182   6.465  0.1001 -0.0081 -0.0753
 5250TIP3    H137165   0.298   0.126   6.397  0.5707  1.6876 -1.8174
 5250TIP3    H237166   0.266   0.190   6.531 -0.5315 -1.3258 -0.5530
 5251TIP3   OH237167   3.708   3.067   0.640  0.0238 -0.0945 -0.2020
 5251TIP3    H137168   3.656   3.008   0.694 -0.7249  0.1934 -0.5863
 5251TIP3    H237169   3.719   3.145   0.694 -1.5978  0.6023 -0.7956
 5252TIP3   OH237170   5.690   1.281   5.417 -0.3004  0.1258  0.0612
 5252TIP3    H137171   5.720   1.247   5.333  0.4377 -0.5269  0.5711
 5252TIP3    H237172   5.732   1.367   5.424 -4.2697  2.6156 -2.4568
 5253TIP3   OH237173   4.386   6.086   4.749  0.1418 -0.0549 -0.4293
 5253TIP3    H137174   4.435   6.169   4.750 -1.1497  0.7459  1.0507
 5253TIP3    H237175   4.305   6.106   4.702 -0.0128 -0.5806 -0.3957
 5254TIP3   OH237176   5.512   4.956  16.156 -0.0483  0.4342 -0.2451
 5254TIP3    H137177   5.508   5.045  16.190 -0.2380 -0.3313  1.9333
 5254TIP3    H237178   5.425   4.941  16.118 -0.8372  0.4717  1.4420
 5255TIP3   OH237179   6.748   5.148   0.513 -0.0412 -0.0285 -0.2510
 5255TIP3    H137180   6.666   5.117   0.473 -0.1042 -1.3460  0.8154
 5255TIP3    H237181   6.752   5.241   0.490 -1.5986 -0.0460 -0.7379
 5256TIP3   OH237182   3.119   1.590  15.095  0.0571  0.7284  0.1485
 5256TIP3    H137183   3.082   1.665  15.048  0.7071 -0.0459 -1.6695
 5256TIP3    H237184   3.176   1.547  15.031 -1.2756 -2.0571  0.6871
 5257TIP3   OH237185   1.115   5.689   1.877  0.0292  0.4039 -0.5762
 5257TIP3    H137186   1.124   5.599   1.844  1.6940  0.1279  0.5087
 5257TIP3    H237187   1.171   5.741   1.820  2.3707  0.0337  1.2292
 5258TIP3   OH237188   0.499   4.977   6.403 -0.1021 -0.0779  0.3150
 5258TIP3    H137189   0.512   4.916   6.331  0.1510  1.3388 -0.8828
 5258TIP3    H237190   0.550   4.940   6.475 -0.3020 -1.4805 -0.2374
 5259TIP3   OH237191   0.515   0.488  15.032  0.3831  0.4166 -0.1016
 5259TIP3    H137192   0.513   0.580  15.060 -0.3779  0.2330  0.4929
 5259TIP3    H237193   0.540   0.440  15.111  0.0646  0.0497 -0.2216
 5260TIP3   OH237194   5.354   4.866  11.365 -0.8967 -0.0031  0.0259
 5260TIP3    H137195   5.260   4.853  11.357 -1.1604  1.9920 -0.7954
 5260TIP3    H237196   5.378   4.915  11.286  0.6193  0.5061  0.7644
 5261TIP3   OH237197   5.545   2.085   3.718 -0.0563 -0.2319 -0.7612
 5261TIP3    H137198   5.477   2.019   3.703 -0.0199 -0.1608 -1.2452
 5261TIP3    H237199   5.566   2.076   3.811 -0.9033 -0.0846 -0.5403
 5262TIP3   OH237200   2.037   5.165  16.254  0.1415 -0.0322 -0.5753
 5262TIP3    H137201   1.999   5.225  16.190  0.8964 -0.3664 -1.3474
 5262TIP3    H237202   2.003   5.195  16.338 -1.9744 -0.3976 -1.2347
 5263TIP3   OH237203   3.946   0.842   4.289  0.3657  0.0722 -0.2167
 5263TIP3    H137204   4.041   0.842   4.282  0.3619 -1.7106 -0.8117
 5263TIP3    H237205   3.928   0.827   4.381  0.7083 -1.1085 -0.3208
 5264TIP3   OH237206   6.549   1.824  14.719 -0.1181 -0.1236  0.0897
 5264TIP3    H137207   6.608   1.784  14.782 -1.4403  2.1707  3.0098
 5264TIP3    H237208   6.589   1.909  14.700 -0.6502 -0.0677 -0.8440
 5265TIP3   OH237209   5.678   1.690   2.680  0.4814  0.2423  0.2353
 5265TIP3    H137210   5.608   1.674   2.617 -0.7356 -1.9969  1.9986
 5265TIP3    H237211   5.744   1.623   2.660  0.1075 -0.4537  1.2252
 5266TIP3   OH237212   1.719   2.338  15.633 -0.9737  0.1612 -0.1493
 5266TIP3    H137213   1.797   2.305  15.676 -0.9866 -1.2377 -1.1407
 5266TIP3    H237214   1.751   2.407  15.575 -0.4361 -0.5038 -0.6575
 5267TIP3   OH237215   2.774   5.403  15.556 -0.1008 -0.8497 -0.5487
 5267TIP3    H137216   2.768   5.478  15.497 -2.0707 -1.1472 -0.7942
 5267TIP3    H237217   2.845   5.426  15.617  0.7963  0.2256 -1.9347
 5268TIP3   OH237218   0.156   3.918  12.049 -0.5372  0.2518 -0.7558
 5268TIP3    H137219   0.147   3.955  11.961  0.8612  0.5698 -0.7893
 5268TIP3    H237220   0.121   3.985  12.107  0.9802  1.2171 -0.8980
 5269TIP3   OH237221   0.681   5.907  13.456 -0.1078  0.4268  0.1781
 5269TIP3    H137222   0.657   6.000  13.450  1.8579  0.9577 -0.1755
 5269TIP3    H237223   0.599   5.860  13.439 -0.9819  2.0901 -0.4741
 5270TIP3   OH237224   5.829   4.120  12.323 -0.6692  0.6965  0.2561
 5270TIP3    H137225   5.907   4.150  12.370  1.1517  2.7307 -3.6247
 5270TIP3    H237226   5.785   4.200  12.293 -1.5099 -0.4033 -1.6855
 5271TIP3   OH237227   0.813   1.853   0.501  0.2834 -0.7666 -0.3199
 5271TIP3    H137228   0.833   1.832   0.593  1.4504 -0.4664 -0.4816
 5271TIP3    H237229   0.718   1.849   0.496  0.1395  0.0097  1.1102
 5272TIP3   OH237230   5.872   3.327   3.114 -0.2469 -0.0197 -0.5824
 5272TIP3    H137231   5.887   3.232   3.118  1.8028  0.2544 -0.9381
 5272TIP3    H237232   5.820   3.339   3.034 -0.2682 -0.8222 -0.6964
 5273TIP3   OH237233   1.394   6.521  14.474  0.0051 -0.3180  0.3493
 5273TIP3    H137234   1.374   6.489  14.386  1.1535  0.1415 -0.0974
 5273TIP3    H237235   1.488   6.506  14.484  0.0999  0.6750  1.0654
 5274TIP3   OH237236   3.064   3.973   0.162 -0.1969  0.4591 -0.1503
 5274TIP3    H137237   3.046   4.055   0.116 -0.6066  0.0747 -0.6859
 5274TIP3    H237238   3.111   4.000   0.241  0.4948  1.1350 -0.7703
 5275TIP3   OH237239   0.419   4.476  14.225  0.4944 -0.2180 -0.2539
 5275TIP3    H137240   0.356   4.443  14.289  1.7866 -1.0568  0.6484
 5275TIP3    H237241   0.504   4.468  14.269  1.3548 -0.1648 -1.8257
 5276TIP3   OH237242   2.672   0.682   3.722  0.6653 -0.2649 -0.5865
 5276TIP3    H137243   2.607   0.752   3.731  0.5853 -0.4407  0.3524
 5276TIP3    H237244   2.666   0.634   3.805  2.1713 -0.1303 -0.3748
 5277TIP3   OH237245   0.091   3.032   3.720  0.2178 -0.0439  0.4401
 5277TIP3    H137246   0.184   3.013   3.709  0.1007 -0.0489 -0.7558
 5277TIP3    H237247   0.066   3.073   3.637 -0.0270  3.4315  2.0207
 5278TIP3   OH237248   5.474   5.669   5.917  0.4581 -0.1459  0.2717
 5278TIP3    H137249   5.507   5.587   5.953 -0.9658 -0.1699  1.6004
 5278TIP3    H237250   5.526   5.737   5.960  1.4575 -0.3166 -0.6331
 5279TIP3   OH237251   3.718   5.261   1.392  0.0653  0.1132 -0.1610
 5279TIP3    H137252   3.690   5.330   1.452 -0.0604  0.5826 -0.7635
 5279TIP3    H237253   3.785   5.213   1.442 -0.0205  0.5127  0.3504
 5280TIP3   OH237254   6.703   4.871   1.747 -0.2501 -0.1457  0.2667
 5280TIP3    H137255   6.615   4.891   1.717 -0.3150 -0.7758  0.0128
 5280TIP3    H237256   6.737   4.954   1.780 -1.2917 -0.1088  1.3029
 5281TIP3   OH237257   0.825   6.710   4.427  0.1464 -0.0863 -0.2143
 5281TIP3    H137258   0.801   6.780   4.366  0.4410  0.4482  0.2760
 5281TIP3    H237259   0.877   6.649   4.374 -2.0205 -1.1396 -1.2283
 5282TIP3   OH237260   4.216   4.548  15.104 -0.3162  0.2351 -0.0347
 5282TIP3    H137261   4.144   4.605  15.131  0.7684  1.4174  0.4579
 5282TIP3    H237262   4.187   4.460  15.128 -1.6366  0.6598  0.0309
 5283TIP3   OH237263   0.273   5.304  11.831  0.2484  0.6610 -0.1007
 5283TIP3    H137264   0.324   5.247  11.887  2.4527 -0.5170 -3.0239
 5283TIP3    H237265   0.193   5.254  11.812 -0.5632  1.1110  1.8780
 5284TIP3   OH237266   2.658   0.610  13.918 -0.1160 -0.3477  0.4169
 5284TIP3    H137267   2.643   0.595  13.825  1.8878 -1.0702  0.1634
 5284TIP3    H237268   2.648   0.524  13.958  0.9590 -0.4181  0.5572
 5285TIP3   OH237269   6.081   5.167  14.110 -0.3375 -0.4741 -0.5831
 5285TIP3    H137270   6.102   5.202  14.197  1.9029 -1.9989 -0.4514
 5285TIP3    H237271   6.000   5.118  14.123 -0.9958  0.7680  0.2178
 5286TIP3   OH237272   6.316   0.854   3.067 -0.0358 -0.1738 -0.5485
 5286TIP3    H137273   6.240   0.811   3.029 -0.2203  0.4884 -0.9465
 5286TIP3    H237274   6.352   0.790   3.128 -2.0901  0.1991  1.1831
 5287TIP3   OH237275   1.560   6.348   0.851  0.0035 -0.5517 -0.3618
 5287TIP3    H137276   1.475   6.388   0.838 -0.9011 -1.8733  1.0747
 5287TIP3    H237277   1.622   6.421   0.849 -1.3406  0.6529  0.1856
 5288TIP3   OH237278   6.107   5.775  17.134 -0.6561  0.6082 -0.0427
 5288TIP3    H137279   6.175   5.725  17.180 -0.5499  0.8256  0.0409
 5288TIP3    H237280   6.033   5.715  17.128 -0.1005 -0.0121 -1.0883
 5289TIP3   OH237281   5.647   1.242  13.460  0.5254 -0.6290 -0.0174
 5289TIP3    H137282   5.673   1.178  13.394 -0.8179 -0.4474 -0.7408
 5289TIP3    H237283   5.582   1.297  13.417 -1.3928 -1.3037  1.8126
 5290TIP3   OH237284   0.801   5.997  11.786  0.0248 -0.3810  0.4258
 5290TIP3    H137285   0.818   6.009  11.693 -0.0481 -2.4064  0.1122
 5290TIP3    H237286   0.831   6.079  11.827  3.1302 -0.6852 -0.9879
 5291TIP3   OH237287   1.024   2.299   1.182 -0.1436 -0.0428  0.2239
 5291TIP3    H137288   0.982   2.246   1.114  1.0328  0.5837 -1.0166
 5291TIP3    H237289   1.017   2.245   1.261 -2.5682 -0.2908 -0.0856
 5292TIP3   OH237290   3.238   2.722  13.534 -0.2369 -0.4497  0.1489
 5292TIP3    H137291   3.229   2.654  13.601  3.4499 -0.5446  0.8099
 5292TIP3    H237292   3.258   2.802  13.584 -0.1474  0.0955 -0.7392
 5293TIP3   OH237293   0.637   3.012   3.921 -0.5437  0.1281  0.3681
 5293TIP3    H137294   0.649   3.103   3.895 -1.4738  0.2359  0.2993
 5293TIP3    H237295   0.648   3.012   4.016 -2.1732  0.6082  0.5812
 5294TIP3   OH237296   1.098   5.258  13.249  0.2881 -0.2073 -0.1326
 5294TIP3    H137297   1.046   5.296  13.178  0.4470 -0.6192 -0.4695
 5294TIP3    H237298   1.123   5.333  13.302  2.0058  0.4054 -1.6979
 5295TIP3   OH237299   6.430   3.746   5.663  0.1281  0.1041  0.3787
 5295TIP3    H137300   6.338   3.769   5.678  0.4443  0.7621  1.3703
 5295TIP3    H237301   6.428   3.653   5.637 -0.7937  0.0656  0.5657
 5296TIP3   OH237302   4.678   0.590  12.374  0.1377  0.0110  0.0473
 5296TIP3    H137303   4.705   0.518  12.432  0.1744 -1.1349 -1.3318
 5296TIP3    H237304   4.594   0.619  12.409  0.7680  0.2396  1.4306
 5297TIP3   OH237305   3.649   2.786   5.342  0.0203  0.1471 -0.7177
 5297TIP3    H137306   3.636   2.880   5.343  1.3302  0.3494  0.9980
 5297TIP3    H237307   3.592   2.753   5.412  0.8662 -0.1250 -0.1463
 5298TIP3   OH237308   5.428   3.809  17.326 -0.0794  0.2714  0.1616
 5298TIP3    H137309   5.508   3.810  17.378 -0.0094  0.7142  0.0493
 5298TIP3    H237310   5.431   3.890  17.276 -1.0937  0.8121  0.9243
 5299TIP3   OH237311   5.919   1.387   1.604  0.4838  0.2008 -0.4990
 5299TIP3    H137312   5.928   1.342   1.520 -0.1093 -0.4042 -0.2445
 5299TIP3    H237313   5.950   1.324   1.668  0.3639  0.4410 -0.2035
 5300TIP3   OH237314   3.759   3.606   5.424 -0.3397 -0.0989  0.6200
 5300TIP3    H137315   3.730   3.646   5.506 -0.2208 -1.3603  1.2970
 5300TIP3    H237316   3.854   3.616   5.425 -0.0199 -2.4639  1.9835
 5301TIP3   OH237317   2.589   3.996  14.901 -0.1006  0.5642  0.3856
 5301TIP3    H137318   2.555   4.075  14.943 -0.4756  0.5140  0.1828
 5301TIP3    H237319   2.581   4.013  14.808  0.1209  0.4147  0.3386
 5302TIP3   OH237320   2.262   5.469  15.763 -0.2163  0.2696 -0.0709
 5302TIP3    H137321   2.290   5.417  15.688 -2.2070  0.2694 -0.8807
 5302TIP3    H237322   2.233   5.552  15.726 -2.2749 -0.1406  0.5125
 5303TIP3   OH237323   5.206   3.677  10.670  0.7415 -0.0269  0.6897
 5303TIP3    H137324   5.164   3.595  10.644  2.0048 -0.7040  0.7103
 5303TIP3    H237325   5.147   3.714  10.735 -0.5643 -0.1928 -0.3554
 5304TIP3   OH237326   1.865   3.949   6.783 -0.2801  0.5754  0.1727
 5304TIP3    H137327   1.955   3.979   6.770  0.7638 -1.3995  2.1714
 5304TIP3    H237328   1.872   3.881   6.850 -3.3577  0.7753  0.8414
 5305TIP3   OH237329   3.831   2.473   0.565  0.2494  0.0125 -0.1827
 5305TIP3    H137330   3.770   2.410   0.527 -0.1173  0.4412 -0.3128
 5305TIP3    H237331   3.828   2.456   0.659 -1.2303  1.0328 -0.0201
 5306TIP3   OH237332   4.649   1.325  14.917 -0.1783 -0.4434 -1.0175
 5306TIP3    H137333   4.615   1.264  14.851  0.7745 -0.5368 -1.4411
 5306TIP3    H237334   4.580   1.390  14.927 -1.6450 -2.0975  0.1754
 5307TIP3   OH237335   5.630   3.073   5.170 -0.1054  0.0326  0.6203
 5307TIP3    H137336   5.682   3.079   5.089 -1.9881 -0.3714 -0.6817
 5307TIP3    H237337   5.683   3.018   5.228  2.0961  1.7448  0.3789
 5308TIP3   OH237338   3.876   5.699  16.607 -0.3013 -0.2674  0.5832
 5308TIP3    H137339   3.871   5.619  16.660 -1.0081  0.5945  1.8835
 5308TIP3    H237340   3.790   5.705  16.566 -0.1557 -0.3089  0.2720
 5309TIP3   OH237341   0.749   0.255   5.217  0.1591 -0.3748 -0.0543
 5309TIP3    H137342   0.766   0.185   5.280 -0.8887 -0.8244 -0.2508
 5309TIP3    H237343   0.660   0.284   5.238  0.8604  1.4700  0.5645
 5310TIP3   OH237344   2.366   3.144  12.297 -0.1046  0.5048  0.5846
 5310TIP3    H137345   2.385   3.127  12.205 -0.0010 -1.9559  1.0036
 5310TIP3    H237346   2.274   3.120  12.307 -0.2621  1.2734  1.0155
 5311TIP3   OH237347   1.815   4.106  16.911  0.6527  0.5893 -1.0861
 5311TIP3    H137348   1.795   4.014  16.891  1.5054  0.2119 -0.3166
 5311TIP3    H237349   1.882   4.101  16.980  0.5404  1.7951 -0.8703
 5312TIP3   OH237350   1.984   0.170   0.070  0.7300 -0.7818  0.1719
 5312TIP3    H137351   1.975   0.172   0.166  0.6758  0.4360  0.1561
 5312TIP3    H237352   1.895   0.181   0.037  0.9940  1.5573  0.0194
 5313TIP3   OH237353   5.366   2.762  12.527  0.0420 -0.0108  0.3937
 5313TIP3    H137354   5.311   2.713  12.465 -0.1988  1.3999 -0.5680
 5313TIP3    H237355   5.322   2.754  12.611  0.5978 -2.3318  0.5251
 5314TIP3   OH237356   0.450   5.251  17.257 -0.1737 -0.1773  0.7144
 5314TIP3    H137357   0.526   5.281  17.207 -0.3716  0.3347  0.7183
 5314TIP3    H237358   0.488   5.199  17.328  0.3386  1.8052  1.9785
 5315TIP3   OH237359   5.139   2.127   6.378 -0.4585 -0.3459  0.3270
 5315TIP3    H137360   5.229   2.099   6.398 -0.5345  0.2800  1.6514
 5315TIP3    H237361   5.134   2.217   6.411 -0.6786  0.7626 -2.4506
 5316TIP3   OH237362   1.822   0.561   3.610 -0.2654  0.1780  0.6408
 5316TIP3    H137363   1.729   0.568   3.633 -0.0453  3.6063  1.0586
 5316TIP3    H237364   1.822   0.559   3.514 -0.7627 -0.9689  0.6442
 5317TIP3   OH237365   4.087   2.083  15.972  0.1296 -0.1888  0.0111
 5317TIP3    H137366   4.119   2.007  16.020  0.2765 -0.2307 -0.1545
 5317TIP3    H237367   4.014   2.115  16.025 -0.7856 -1.2229 -0.5709
 5318TIP3   OH237368   6.217   6.486  11.985 -0.0539 -0.3110 -0.6700
 5318TIP3    H137369   6.145   6.546  11.965 -0.4369 -0.5020  0.1153
 5318TIP3    H237370   6.296   6.537  11.966 -0.3513  0.7837  0.7908
 5319TIP3   OH237371   0.018   5.791   1.006 -0.2603 -0.3715  0.0474
 5319TIP3    H137372  -0.061   5.744   0.980 -0.0491  0.3348 -2.1192
 5319TIP3    H237373   0.022   5.865   0.946  1.8633 -0.2079  0.3243
 5320TIP3   OH237374   2.866   2.449  13.192 -0.0795 -0.0620  0.0068
 5320TIP3    H137375   2.911   2.517  13.243  0.3589 -1.4329  1.5488
 5320TIP3    H237376   2.774   2.455  13.220  0.0636 -0.4606  0.5774
 5321TIP3   OH237377   5.525   1.665  15.922 -0.5258  0.0234 -0.1085
 5321TIP3    H137378   5.531   1.679  16.016  2.0316 -0.2961 -0.1534
 5321TIP3    H237379   5.431   1.665  15.904 -1.0607  1.4984  2.2000
 5322TIP3   OH237380   2.761   1.686   3.522  1.0240  0.0952  0.0801
 5322TIP3    H137381   2.752   1.592   3.509  1.0423 -0.0719  1.1685
 5322TIP3    H237382   2.672   1.717   3.539  0.9885  0.3179 -0.4783
 5323TIP3   OH237383   0.329   2.034   5.584 -0.0074  0.1895  0.6372
 5323TIP3    H137384   0.344   1.973   5.512  0.6548  2.0868 -0.8839
 5323TIP3    H237385   0.256   1.995   5.633 -0.2784 -1.2846 -0.8505
 5324TIP3   OH237386   6.391   5.702  13.475  0.6438 -0.3345  0.3971
 5324TIP3    H137387   6.385   5.623  13.528  0.4779  1.4920  3.3076
 5324TIP3    H237388   6.304   5.714  13.439  0.4377 -1.0056  0.6640
 5325TIP3   OH237389   2.031   3.405  13.492 -0.1954  1.3014 -0.0669
 5325TIP3    H137390   2.033   3.356  13.574  0.1959 -0.2279 -0.9514
 5325TIP3    H237391   2.122   3.409  13.464 -0.5506 -0.8264 -1.8665
 5326TIP3   OH237392   0.587   3.036  14.488  0.1166 -0.5224  0.4135
 5326TIP3    H137393   0.593   3.131  14.498 -0.4598 -0.4267 -0.0737
 5326TIP3    H237394   0.673   3.010  14.455  0.7987 -0.3798  1.9799
 5327TIP3   OH237395   1.133   3.460   6.587 -0.2585 -0.1652 -0.6726
 5327TIP3    H137396   1.192   3.385   6.576 -0.8054 -0.4359 -1.9174
 5327TIP3    H237397   1.171   3.528   6.532 -0.8471 -0.1960 -1.1279
 5328TIP3   OH237398   5.403   3.080  12.282 -0.0884  0.5852 -0.3703
 5328TIP3    H137399   5.454   3.013  12.328 -0.7279 -1.1272 -2.0378
 5328TIP3    H237400   5.368   3.135  12.352  0.4011 -0.8695  1.0844
 5329TIP3   OH237401   4.721   6.157  11.648 -0.1496 -0.1996  0.2506
 5329TIP3    H137402   4.636   6.162  11.690 -0.6167  0.8347 -0.7529
 5329TIP3    H237403   4.783   6.188  11.715 -0.9193  1.7666  0.1097
 5330TIP3   OH237404   1.011   2.991  16.717 -0.1648  0.1749  0.2915
 5330TIP3    H137405   0.989   3.083  16.708 -1.6462  0.0457  1.9663
 5330TIP3    H237406   0.951   2.946  16.657 -0.5107  0.2192  0.5982
 5331TIP3   OH237407   6.701   5.420   5.370  0.0843 -0.5868  0.4224
 5331TIP3    H137408   6.693   5.383   5.457  0.6332  0.6517  1.0196
 5331TIP3    H237409   6.781   5.380   5.334  0.8982  0.3002  1.2149
 5332TIP3   OH237410   0.983   2.338  11.793  0.4180 -0.2299  0.4224
 5332TIP3    H137411   0.987   2.395  11.871 -2.6300  2.5889 -1.2062
 5332TIP3    H237412   0.915   2.274  11.814  0.8423 -0.5832  0.7193
 5333TIP3   OH237413   6.481   4.237  12.194 -0.0025 -0.4140 -0.2437
 5333TIP3    H137414   6.477   4.328  12.225 -1.7447 -0.4727 -0.2258
 5333TIP3    H237415   6.397   4.222  12.152 -0.1812 -2.3576  0.6873
 5334TIP3   OH237416   2.231   0.404  12.760  0.2559 -0.6145  0.1345
 5334TIP3    H137417   2.181   0.327  12.732  0.3564 -1.0785  1.1706
 5334TIP3    H237418   2.299   0.368  12.818  0.3289  0.2508  0.6078
 5335TIP3   OH237419   3.718   3.701   0.160 -0.2762 -0.0894 -0.0062
 5335TIP3    H137420   3.746   3.661   0.243  0.7727 -1.5812 -1.0067
 5335TIP3    H237421   3.783   3.769   0.144 -0.3652  0.0707  0.3071
 5336TIP3   OH237422   1.989   2.957  14.472  0.0991  0.6653  0.0839
 5336TIP3    H137423   1.903   2.976  14.434  0.0926 -1.8416 -1.3174
 5336TIP3    H237424   1.971   2.945  14.566 -0.6835  2.1148  0.1643
 5337TIP3   OH237425   0.672   2.352   0.355  0.1175  0.2689 -0.0432
 5337TIP3    H137426   0.658   2.340   0.261 -2.0555  0.7022  0.1774
 5337TIP3    H237427   0.584   2.354   0.392  0.8970  1.1331  1.8776
 5338TIP3   OH237428   4.295   6.317   1.558  0.5498 -0.3987  0.7905
 5338TIP3    H137429   4.263   6.363   1.636  1.4483  1.3790  0.1661
 5338TIP3    H237430   4.314   6.228   1.589 -1.4834 -0.5012  2.0007
 5339TIP3   OH237431   3.228   1.678  12.668  0.8779  0.7226  0.2195
 5339TIP3    H137432   3.190   1.756  12.709 -0.7821 -0.3625  0.8226
 5339TIP3    H237433   3.236   1.615  12.740  2.9083  0.5462 -0.0999
 5340TIP3   OH237434   5.052   5.336  12.267  0.0851 -0.5656  0.8267
 5340TIP3    H137435   4.974   5.302  12.225 -0.4273  0.0898  1.2293
 5340TIP3    H237436   5.109   5.260  12.278  0.1244 -0.7981 -0.8007
 5341TIP3   OH237437   1.392   0.914  17.231  0.3151  0.1005 -0.4023
 5341TIP3    H137438   1.355   0.941  17.147  0.6429  2.8961  0.2755
 5341TIP3    H237439   1.471   0.866  17.208  0.7327  1.3618 -1.7083
 5342TIP3   OH237440   5.137   4.905  11.084  0.1403 -0.2727  0.3178
 5342TIP3    H137441   5.146   4.984  11.032 -1.0987 -1.1455 -1.3244
 5342TIP3    H237442   5.211   4.850  11.058 -0.8809 -1.0074 -1.1465
 5343TIP3   OH237443   5.425   3.998  15.852 -0.2904  0.5284  0.3395
 5343TIP3    H137444   5.516   3.987  15.880 -0.4617 -0.3615  0.5741
 5343TIP3    H237445   5.424   3.968  15.761 -0.7849 -1.7835  1.0223
 5344TIP3   OH237446   3.597   3.903  15.930  0.1309  0.0007  0.0516
 5344TIP3    H137447   3.683   3.867  15.908 -0.1904 -1.3152  0.8735
 5344TIP3    H237448   3.535   3.842  15.889 -0.4215  0.9503 -0.5513
 5345TIP3   OH237449   4.180   1.820   1.801 -0.0512  0.2811  0.2124
 5345TIP3    H137450   4.212   1.748   1.746 -2.4016 -0.6398 -0.0845
 5345TIP3    H237451   4.139   1.880   1.739  0.3393  0.9977  0.6434
 5346TIP3   OH237452   0.384   2.165  16.883 -0.4680 -1.0224 -0.4338
 5346TIP3    H137453   0.467   2.182  16.928 -1.3417  2.0008  0.3012
 5346TIP3    H237454   0.322   2.147  16.954 -1.1683  0.5475 -0.5937
 5347TIP3   OH237455   3.701   4.541  14.689  0.0706 -0.5759 -0.0155
 5347TIP3    H137456   3.694   4.463  14.634 -0.9034 -1.2601  1.0224
 5347TIP3    H237457   3.732   4.508  14.773 -0.0853  0.1903  0.3512
 5348TIP3   OH237458   2.080   1.001  15.349 -0.0919  0.1909 -0.8738
 5348TIP3    H137459   2.032   1.081  15.366  0.4873  1.1066 -3.0835
 5348TIP3    H237460   2.022   0.949  15.293  0.1551 -0.2119 -0.7655
 5349TIP3   OH237461   6.495   3.714   3.861  0.5520 -0.3324 -0.1562
 5349TIP3    H137462   6.536   3.764   3.932  1.6815  1.0256 -1.6664
 5349TIP3    H237463   6.488   3.777   3.789 -0.6995 -1.6105 -1.2028
 5350TIP3   OH237464   3.847   0.387  11.867  0.5087 -0.7191  0.9595
 5350TIP3    H137465   3.869   0.304  11.824  1.3342 -0.2609  0.4652
 5350TIP3    H237466   3.910   0.393  11.939  0.8708 -0.2319  0.6107
 5351TIP3   OH237467   2.237   5.657   0.218  0.0306  0.2497  0.2441
 5351TIP3    H137468   2.303   5.682   0.283  0.1842 -0.3868  0.3338
 5351TIP3    H237469   2.154   5.683   0.258  0.1092 -0.2943  0.7778
 5352TIP3   OH237470   5.624   5.509  13.768 -0.6054 -0.0249  0.1526
 5352TIP3    H137471   5.602   5.582  13.826  1.1062 -0.3376  1.3027
 5352TIP3    H237472   5.555   5.508  13.702 -1.1134  2.1073  0.5839
 5353TIP3   OH237473   4.641   6.598   6.491  0.0551 -0.0813  0.2492
 5353TIP3    H137474   4.660   6.691   6.494 -0.4702  0.0946 -1.1283
 5353TIP3    H237475   4.564   6.588   6.547 -0.1259  0.3842  0.0896
 5354TIP3   OH237476   0.275   3.255   0.124  0.3963  0.3142 -0.6621
 5354TIP3    H137477   0.299   3.168   0.092  1.3606  0.0561  0.6865
 5354TIP3    H237478   0.310   3.259   0.213 -0.1501  1.8677 -0.4793
 5355TIP3   OH237479   0.974   1.477   0.748  0.4643  0.3296 -0.2272
 5355TIP3    H137480   0.879   1.463   0.752  0.7155 -1.7207 -0.0187
 5355TIP3    H237481   0.994   1.475   0.654  0.4605 -0.8719 -0.2250
 5356TIP3   OH237482   6.117   3.240   3.965  0.1345  0.0621  0.7475
 5356TIP3    H137483   6.191   3.223   3.907  1.1036 -0.6018  2.1266
 5356TIP3    H237484   6.094   3.154   4.000 -1.8865  0.1092 -0.2991
 5357TIP3   OH237485   6.703   1.446   1.745 -0.3442 -0.0841 -0.0490
 5357TIP3    H137486   6.703   1.458   1.650  0.1680  3.1536  0.2604
 5357TIP3    H237487   6.613   1.467   1.772 -0.8651 -2.2983  0.1287
 5358TIP3   OH237488   0.133   2.319  11.559  0.3113  0.1326 -0.2298
 5358TIP3    H137489   0.094   2.399  11.524  1.3244  1.1162  0.7946
 5358TIP3    H237490   0.216   2.310  11.513 -0.4610 -1.2122 -1.4414
 5359TIP3   OH237491   5.587   3.264  13.423 -0.1639 -0.1597 -0.1010
 5359TIP3    H137492   5.639   3.184  13.426  0.8022  0.4499 -0.3281
 5359TIP3    H237493   5.615   3.314  13.500 -0.0208  0.4110 -0.5189
 5360TIP3   OH237494   3.696   4.983   2.229  0.3386 -0.1601  0.4251
 5360TIP3    H137495   3.783   4.961   2.195  0.3723 -1.4738  1.2657
 5360TIP3    H237496   3.678   4.915   2.294 -1.4515 -0.0988  0.0525
 5361TIP3   OH237497   2.352   6.196  13.599 -0.3741 -0.3251  0.2296
 5361TIP3    H137498   2.354   6.280  13.554  1.5067 -0.6918 -0.4877
 5361TIP3    H237499   2.310   6.137  13.537  0.9463 -0.5156 -0.5371
 5362TIP3   OH237500   5.745   0.298   1.527 -1.0837  0.5040 -0.5563
 5362TIP3    H137501   5.655   0.285   1.558 -0.9751 -0.0567 -0.4530
 5362TIP3    H237502   5.749   0.390   1.501 -1.0028  1.2040  1.6832
 5363TIP3   OH237503   4.119   6.379   4.060  0.0277 -0.0615 -0.3308
 5363TIP3    H137504   4.076   6.465   4.056 -0.5753 -0.3724 -0.6159
 5363TIP3    H237505   4.186   6.383   3.991  0.6989  0.5381  0.3212
 5364TIP3   OH237506   3.242   3.859   5.797  0.1608  0.3143 -0.2728
 5364TIP3    H137507   3.265   3.831   5.708 -1.1191  2.3110 -1.3031
 5364TIP3    H237508   3.325   3.887   5.835  0.6725 -0.2298 -0.9489
 5365TIP3   OH237509   4.928   4.150   0.867 -0.5532  0.6068 -0.0831
 5365TIP3    H137510   4.854   4.207   0.845 -1.2643  0.4753  1.7189
 5365TIP3    H237511   5.003   4.189   0.822 -1.5512  1.2765 -1.2197
 5366TIP3   OH237512   5.836   6.443  15.361 -0.8352  0.5253 -0.0042
 5366TIP3    H137513   5.822   6.449  15.455  0.8780  2.0858  0.1945
 5366TIP3    H237514   5.872   6.528  15.336 -0.8680  0.0062 -2.0076
 5367TIP3   OH237515   3.892   1.480   3.661 -0.2376 -0.0297 -0.5494
 5367TIP3    H137516   3.895   1.535   3.739 -0.9037  0.0022 -0.5404
 5367TIP3    H237517   3.891   1.542   3.588  0.4322 -0.0602 -0.5878
 5368TIP3   OH237518   4.719   4.030  13.742 -0.2282 -1.5612 -0.0905
 5368TIP3    H137519   4.754   3.974  13.673 -0.0283  0.6109 -1.8705
 5368TIP3    H237520   4.773   4.110  13.737 -2.0223 -0.2399  0.6724
 5369TIP3   OH237521   2.982   6.333   4.404  0.4010 -0.3325 -0.0934
 5369TIP3    H137522   3.068   6.360   4.436  0.0979  0.2456  0.2355
 5369TIP3    H237523   3.000   6.294   4.318  1.1716 -1.5430  0.5940
 5370TIP3   OH237524   5.113   2.993  15.768  0.1466  0.2381 -0.1613
 5370TIP3    H137525   5.114   3.010  15.862  1.1643  1.5201 -0.3760
 5370TIP3    H237526   5.146   2.904  15.759 -1.1487 -0.3719  0.7514
 5371TIP3   OH237527   4.417   4.928  10.814 -0.1317  0.1956 -0.1140
 5371TIP3    H137528   4.423   4.923  10.718  0.5197 -0.1459 -0.0588
 5371TIP3    H237529   4.400   5.021  10.831  0.5789  0.4093 -0.5265
 5372TIP3   OH237530   5.592   0.916   5.735  0.4046  0.1972  0.2802
 5372TIP3    H137531   5.541   0.845   5.695  1.5045 -0.5208  0.1308
 5372TIP3    H237532   5.673   0.874   5.763  0.7597  1.2554  0.8599
 5373TIP3   OH237533   5.798   1.528  14.342 -0.0595  0.3324  0.2814
 5373TIP3    H137534   5.763   1.470  14.274 -0.7794  0.4371  0.5532
 5373TIP3    H237535   5.723   1.579  14.371 -0.3541 -1.3815  2.8738
 5374TIP3   OH237536   4.636   2.629   0.497 -0.0605 -0.5490  0.5805
 5374TIP3    H137537   4.620   2.542   0.462  0.9763  0.1028 -1.7626
 5374TIP3    H237538   4.731   2.632   0.511 -0.0699  0.2304  0.5153
 5375TIP3   OH237539   5.125   6.215   3.360  0.2538  0.0475 -0.3036
 5375TIP3    H137540   5.171   6.131   3.362  2.4723  1.1826 -0.5143
 5375TIP3    H237541   5.188   6.278   3.395 -1.3619  1.6442 -0.1062
 5376TIP3   OH237542   1.102   2.681   3.689  0.2060  0.1826 -0.5900
 5376TIP3    H137543   1.084   2.760   3.739 -0.8170  0.6292 -1.5976
 5376TIP3    H237544   1.018   2.658   3.651  0.3003 -1.8919  0.3460
 5377TIP3   OH237545   4.125   3.973   0.468 -0.2906 -0.5945 -0.2736
 5377TIP3    H137546   4.034   3.992   0.492  0.0150 -1.5767  1.9031
 5377TIP3    H237547   4.155   4.052   0.423 -1.6163  0.5714  0.7923
 5378TIP3   OH237548   4.771   1.252   1.595  0.0504 -0.1033 -0.2095
 5378TIP3    H137549   4.751   1.159   1.597 -0.1331 -0.1648 -2.4305
 5378TIP3    H237550   4.760   1.277   1.503  1.9229  1.7075 -0.0115
 5379TIP3   OH237551   4.275   1.112   5.182 -0.0607  0.5403  0.2779
 5379TIP3    H137552   4.184   1.083   5.168 -0.0176 -1.3637  3.1085
 5379TIP3    H237553   4.274   1.154   5.267  1.3216  2.8133 -0.7485
 5380TIP3   OH237554   3.888   3.032   5.915 -0.5052 -0.4841  0.4813
 5380TIP3    H137555   3.912   3.097   5.849 -0.2580 -1.7107 -0.6847
 5380TIP3    H237556   3.799   3.056   5.940 -0.2668  0.5574  0.4071
 5381TIP3   OH237557   4.399   4.881  10.545  0.1256 -0.3876  0.5549
 5381TIP3    H137558   4.423   4.790  10.527 -0.4908 -0.2368 -1.2883
 5381TIP3    H237559   4.477   4.931  10.522  0.0606 -0.3699  0.3656
 5382TIP3   OH237560   2.846   5.885   2.384  0.1580 -0.0523 -0.3108
 5382TIP3    H137561   2.912   5.954   2.376  0.9140 -0.8877 -1.6110
 5382TIP3    H237562   2.828   5.880   2.478  1.8441  0.2847  0.0618
 5383TIP3   OH237563   1.327   2.967  14.816 -0.4351  0.0254  0.0726
 5383TIP3    H137564   1.349   3.007  14.901 -0.4045  1.4166 -0.5693
 5383TIP3    H237565   1.412   2.939  14.781 -0.6696 -3.3858  1.7734
 5384TIP3   OH237566   6.360   3.472  14.153 -0.3599 -0.0044 -0.1539
 5384TIP3    H137567   6.393   3.548  14.104 -0.6165  1.5375  1.9136
 5384TIP3    H237568   6.409   3.473  14.235 -2.4807 -0.2031  1.2047
 5385TIP3   OH237569   3.507   3.228   3.887 -0.0629  0.5949 -0.0342
 5385TIP3    H137570   3.420   3.192   3.871  0.3965 -0.4561 -0.2677
 5385TIP3    H237571   3.534   3.189   3.970 -0.3744  2.0466  0.7874
 5386TIP3   OH237572   0.724   2.049  14.561 -0.1033 -0.7221  0.5752
 5386TIP3    H137573   0.655   2.109  14.532 -0.0724 -0.1157  1.7097
 5386TIP3    H237574   0.682   1.996  14.629 -0.2087 -2.1925 -0.5850
 5387TIP3   OH237575   3.378   0.517  15.099 -0.1936 -0.1680  0.1144
 5387TIP3    H137576   3.292   0.556  15.090  0.3207  0.5908 -2.2890
 5387TIP3    H237577   3.364   0.423  15.084 -0.7475 -0.2046  0.8480
 5388TIP3   OH237578   1.459   4.433  17.175  0.2789  0.0180 -0.0292
 5388TIP3    H137579   1.403   4.355  17.170  0.5165 -0.1297 -0.5308
 5388TIP3    H237580   1.519   4.424  17.100 -1.2986  1.9259 -1.6288
 5389TIP3   OH237581   4.627   3.859  14.170 -0.1302 -0.0039  0.3969
 5389TIP3    H137582   4.593   3.891  14.087  1.4864 -0.0911 -0.3356
 5389TIP3    H237583   4.619   3.933  14.230 -1.2208  0.0834  0.1606
 5390TIP3   OH237584   0.649   3.432  12.412  0.2172  0.4090 -0.5252
 5390TIP3    H137585   0.661   3.349  12.458  1.0756 -0.2042 -1.7959
 5390TIP3    H237586   0.737   3.457  12.385 -0.2107  0.9590 -1.4573
 5391TIP3   OH237587   4.603   4.212   3.288 -0.2295 -0.1335  0.4350
 5391TIP3    H137588   4.556   4.130   3.302 -3.0739  1.2168 -0.4019
 5391TIP3    H237589   4.537   4.271   3.250  1.4896  2.7259  1.5474
 5392TIP3   OH237590   1.063   1.328  12.888  0.8470  0.4668 -0.0401
 5392TIP3    H137591   1.044   1.415  12.924 -1.0173 -0.1787  0.6321
 5392TIP3    H237592   1.003   1.320  12.814  0.8394 -0.3413  0.0491
 5393TIP3   OH237593   1.724   1.311  12.302 -0.4087  0.2571  0.1023
 5393TIP3    H137594   1.778   1.326  12.380  0.6702  0.8812 -0.7351
 5393TIP3    H237595   1.784   1.271  12.239 -1.3411 -0.5210 -0.3142
 5394TIP3   OH237596   2.444   5.121  12.216  0.2013  0.2622  0.8154
 5394TIP3    H137597   2.468   5.064  12.142  0.1757  0.0319  0.9816
 5394TIP3    H237598   2.527   5.138  12.261  0.1526  0.0322  0.9925
 5395TIP3   OH237599   0.283   0.099  13.712 -0.2940 -0.2262  0.8485
 5395TIP3    H137600   0.345   0.110  13.784 -0.8994  0.6860  1.2431
 5395TIP3    H237601   0.239   0.183  13.705 -1.9226 -1.0250  0.9682
 5396TIP3   OH237602   2.358   3.535  12.066  0.9373 -0.4889  0.1096
 5396TIP3    H137603   2.391   3.625  12.071  0.9218 -0.5283  1.0416
 5396TIP3    H237604   2.422   3.483  12.115 -0.3605 -0.5918  1.7960
 5397TIP3   OH237605   2.294   3.619   6.209  0.2770 -0.2853  0.0510
 5397TIP3    H137606   2.328   3.657   6.290 -2.1952 -1.2104  1.6105
 5397TIP3    H237607   2.212   3.665   6.193 -0.4133 -1.6942 -0.6461
 5398TIP3   OH237608   2.459   5.785  14.340  0.2069  0.2875  0.3330
 5398TIP3    H137609   2.412   5.765  14.259  0.9894  0.6156 -0.2143
 5398TIP3    H237610   2.395   5.832  14.393 -1.0508 -1.8505  0.8491
 5399TIP3   OH237611   2.129   3.935   1.064  0.1554  0.1141 -0.2490
 5399TIP3    H137612   2.040   3.907   1.044 -0.2300  0.7986  0.4706
 5399TIP3    H237613   2.126   4.031   1.059  0.6801  0.1751  0.4664
 5400TIP3   OH237614   6.540   1.737  12.112  0.0858 -0.2422  0.4644
 5400TIP3    H137615   6.542   1.740  12.017 -0.4102 -0.2398  0.4520
 5400TIP3    H237616   6.632   1.741  12.139  0.1660  2.1472  0.0416
 5401TIP3   OH237617   6.764   5.443   1.805 -0.3359 -0.0708  0.3639
 5401TIP3    H137618   6.852   5.405   1.802 -1.1840 -2.2910  1.5159
 5401TIP3    H237619   6.767   5.503   1.879  0.1702 -0.2178  0.4683
 5402TIP3   OH237620   0.290   4.019   6.104  0.3098 -0.0795 -0.0661
 5402TIP3    H137621   0.317   4.046   6.016 -0.2470 -2.6717 -1.1120
 5402TIP3    H237622   0.195   4.029   6.104  0.4162  1.0783  0.7020
 5403TIP3   OH237623   0.553   5.879   4.367  1.1113 -0.3868 -0.0635
 5403TIP3    H137624   0.462   5.883   4.395  0.8366  0.2928 -1.0080
 5403TIP3    H237625   0.601   5.930   4.433  0.5342  0.8706 -0.5836
 5404TIP3   OH237626   3.033   2.833  14.851 -0.0541 -0.1600 -0.1634
 5404TIP3    H137627   3.054   2.911  14.799  2.9736 -1.3073 -0.9073
 5404TIP3    H237628   3.002   2.868  14.934  0.6074  1.8379 -0.6885
 5405TIP3   OH237629   4.027   0.115   3.859 -0.4218  0.0132  0.5093
 5405TIP3    H137630   3.947   0.091   3.812  0.6564 -1.7938 -0.4961
 5405TIP3    H237631   4.074   0.173   3.799  0.3620 -1.2918 -0.1966
 5406TIP3   OH237632   5.629   0.405   2.646 -0.2044 -0.4885 -0.5030
 5406TIP3    H137633   5.632   0.330   2.587 -2.8038 -1.8298  0.8846
 5406TIP3    H237634   5.676   0.377   2.724 -1.6741 -0.9923  0.2496
 5407TIP3   OH237635   4.715   1.394   2.932  0.5982  0.2031  0.1580
 5407TIP3    H137636   4.675   1.315   2.968  1.0400  0.5236  1.4178
 5407TIP3    H237637   4.719   1.454   3.007  1.6219  0.8752 -0.4162
 5408TIP3   OH237638   3.820   6.589  15.918  0.3943  0.5506 -0.3835
 5408TIP3    H137639   3.852   6.509  15.959 -0.6484 -0.2356 -1.0588
 5408TIP3    H237640   3.730   6.569  15.893  0.4546  1.5786 -1.5024
 5409TIP3   OH237641   3.609   0.853   5.916  0.3204 -0.4375 -0.7397
 5409TIP3    H137642   3.663   0.885   5.988 -0.8651  0.1327 -0.0782
 5409TIP3    H237643   3.545   0.796   5.957  1.2625 -2.3069 -1.6906
 5410TIP3   OH237644   4.470   0.447   0.163  0.2714  0.3136 -0.0004
 5410TIP3    H137645   4.418   0.384   0.113  0.7250  1.0819 -1.4975
 5410TIP3    H237646   4.405   0.506   0.202 -0.0901 -0.3361  0.4118
 5411TIP3   OH237647   5.086   3.361  16.257  0.1647 -0.7007  0.6998
 5411TIP3    H137648   4.993   3.365  16.233  0.2116  0.0035  0.5959
 5411TIP3    H237649   5.088   3.311  16.338 -0.3634 -0.3379  0.9455
 5412TIP3   OH237650   1.797   6.179   3.070 -0.1826  0.3425  0.5370
 5412TIP3    H137651   1.708   6.158   3.039 -1.0356  0.5091  2.7030
 5412TIP3    H237652   1.855   6.139   3.005 -1.8061  1.7165 -1.9161
 5413TIP3   OH237653   5.855   5.094  13.432  0.1215  0.3614 -0.6852
 5413TIP3    H137654   5.904   5.148  13.494  0.7698 -0.4012 -0.5176
 5413TIP3    H237655   5.769   5.136  13.426  0.3526  0.9507  0.0467
 5414TIP3   OH237656   3.201   3.372   2.648 -0.3339  0.1637 -0.2579
 5414TIP3    H137657   3.227   3.340   2.734  0.1588 -4.0610 -1.7336
 5414TIP3    H237658   3.283   3.395   2.604 -0.3301 -0.2548 -0.4733
 5415TIP3   OH237659   4.409   0.830  16.109  0.1166 -0.0162 -0.0942
 5415TIP3    H137660   4.424   0.922  16.087 -2.7096  0.1697 -1.7213
 5415TIP3    H237661   4.326   0.830  16.156  1.8577 -1.4402  3.2956
 5416TIP3   OH237662   4.766   3.135   2.582 -0.1046 -0.2858 -0.7032
 5416TIP3    H137663   4.751   3.073   2.510 -0.9177 -0.2835 -0.5368
 5416TIP3    H237664   4.792   3.079   2.656  1.0988 -0.2588 -1.0850
 5417TIP3   OH237665   1.945   4.904  16.725  0.1730  0.1278  0.4195
 5417TIP3    H137666   1.965   4.846  16.652 -0.1079 -1.9124  1.8711
 5417TIP3    H237667   2.026   4.907  16.776  1.0897  3.2518 -0.9304
 5418TIP3   OH237668   1.294   4.891   4.356  0.1803 -0.9266  0.0252
 5418TIP3    H137669   1.212   4.842   4.365 -0.5671  0.4370  1.2769
 5418TIP3    H237670   1.290   4.929   4.268 -0.2320 -1.3981 -0.1631
 5419TIP3   OH237671   2.617   3.276   1.505  0.3046 -0.3414 -0.3264
 5419TIP3    H137672   2.681   3.348   1.506  1.4575 -1.3249 -0.8302
 5419TIP3    H237673   2.609   3.250   1.597  1.7554 -1.1452 -0.3986
 5420TIP3   OH237674   0.789   1.080  16.399 -0.0688 -0.3448 -0.2001
 5420TIP3    H137675   0.826   1.012  16.342 -0.8868 -1.2109  0.2587
 5420TIP3    H237676   0.780   1.037  16.484  1.8739  1.1651  0.8444
 5421TIP3   OH237677   5.442   6.060  14.999  0.1860 -0.2533 -0.0679
 5421TIP3    H137678   5.494   6.049  15.079  0.4920 -2.3179 -0.5123
 5421TIP3    H237679   5.440   6.155  14.985  2.0316  0.0124  1.1368
 5422TIP3   OH237680   0.178   0.553   5.130  0.0894  0.1917  0.2552
 5422TIP3    H137681   0.126   0.544   5.209 -0.8667  2.6328 -0.0304
 5422TIP3    H237682   0.245   0.617   5.152 -0.7022  1.5388 -1.1153
 5423TIP3   OH237683   4.204   1.681  14.850  0.6194 -0.2621  0.0501
 5423TIP3    H137684   4.294   1.662  14.874  0.4260 -2.3495 -0.6592
 5423TIP3    H237685   4.209   1.712  14.759  0.6503 -0.2584  0.0536
 5424TIP3   OH237686   3.696   0.846  13.411 -0.0092  0.5826 -0.0555
 5424TIP3    H137687   3.729   0.936  13.420 -1.9126  1.1841  1.7531
 5424TIP3    H237688   3.773   0.791  13.427  0.6370  1.8981  1.7112
 5425TIP3   OH237689   0.714   1.507  16.955 -0.1581 -0.1283  0.4335
 5425TIP3    H137690   0.688   1.575  17.018 -0.7859  0.4728 -0.4433
 5425TIP3    H237691   0.808   1.523  16.941 -0.7427  2.2408 -1.6305
 5426TIP3   OH237692   5.760   0.662   1.171 -0.1327 -0.3586 -0.0295
 5426TIP3    H137693   5.681   0.712   1.150 -0.3111 -0.7754 -0.3911
 5426TIP3    H237694   5.831   0.712   1.131 -0.4018 -0.8210 -1.1527
 5427TIP3   OH237695   3.128   2.216  11.596 -0.0203  0.2452  0.4229
 5427TIP3    H137696   3.197   2.275  11.624 -1.2533  1.9017  0.0944
 5427TIP3    H237697   3.096   2.176  11.678  1.3378 -0.6364  0.5678
 5428TIP3   OH237698   0.745   4.427  11.976  0.0140  0.4626  0.0353
 5428TIP3    H137699   0.755   4.460  11.887 -0.6487  0.3195 -0.0997
 5428TIP3    H237700   0.834   4.408  12.005  0.3108  1.2381 -0.3160
 5429TIP3   OH237701   5.385   3.592   0.173 -0.2735 -0.4289  0.0582
 5429TIP3    H137702   5.414   3.656   0.108 -0.6615  0.2974  0.5813
 5429TIP3    H237703   5.368   3.512   0.122 -1.1043  0.2799 -0.8235
 5430TIP3   OH237704   1.877   0.336   3.021 -0.5060 -0.1070 -0.0774
 5430TIP3    H137705   1.942   0.289   3.073  0.9180  0.1862 -1.5178
 5430TIP3    H237706   1.921   0.354   2.937 -2.1013  0.9808 -0.7381
 5431TIP3   OH237707   4.937   6.557   5.130 -0.2248  0.6525 -0.2410
 5431TIP3    H137708   4.931   6.461   5.136 -1.7376  0.6866 -0.6409
 5431TIP3    H237709   5.030   6.575   5.120  0.2523 -0.6764  1.2922
 5432TIP3   OH237710   3.892   0.287   0.577 -0.6224  0.3301  0.0946
 5432TIP3    H137711   3.872   0.237   0.498  0.6768  1.3060 -0.8984
 5432TIP3    H237712   3.921   0.221   0.641 -0.2816 -0.3271 -0.7225
 5433TIP3   OH237713   1.812   0.536  10.834 -0.2217  1.0255  0.1121
 5433TIP3    H137714   1.777   0.611  10.787  0.5685  1.4979  0.2563
 5433TIP3    H237715   1.858   0.485  10.768  0.6380  1.5371  0.2901
 5434TIP3   OH237716   1.016   1.406   5.199 -0.3020  0.0717 -0.0710
 5434TIP3    H137717   1.062   1.416   5.282  1.2043 -0.1950 -0.8387
 5434TIP3    H237718   1.059   1.467   5.140 -1.2747  0.1725 -0.7014
 5435TIP3   OH237719   4.272   3.910  15.148  0.0979 -0.6515 -0.3652
 5435TIP3    H137720   4.252   3.921  15.241  1.2966  0.0313 -0.1645
 5435TIP3    H237721   4.235   3.825  15.125  0.0853 -0.9865  0.8322
 5436TIP3   OH237722   6.632   4.376   3.629 -0.0844  0.7639  0.4059
 5436TIP3    H137723   6.582   4.317   3.573  0.7918  0.2299  0.1820
 5436TIP3    H237724   6.582   4.378   3.711  0.9175 -1.9549  1.1972
 5437TIP3   OH237725   2.255   6.371   2.288 -0.0387  0.4628 -0.0262
 5437TIP3    H137726   2.347   6.344   2.288 -0.3454 -0.7228 -1.0956
 5437TIP3    H237727   2.237   6.397   2.378  1.4968  1.3129  0.0663
 5438TIP3   OH237728   2.622   3.725  12.514  0.3082 -0.5246  0.3136
 5438TIP3    H137729   2.645   3.642  12.555 -0.0317 -1.2780 -0.9824
 5438TIP3    H237730   2.527   3.729  12.519  0.3850  0.5464  1.7511
 5439TIP3   OH237731   6.557   6.537  13.644  0.2821  0.0747 -0.1958
 5439TIP3    H137732   6.560   6.575  13.556  1.1118  1.6525  0.4641
 5439TIP3    H237733   6.481   6.480  13.643 -0.9782  1.6789 -1.3223
 5440TIP3   OH237734   3.691   1.741   3.042  0.5047  0.2989  0.8655
 5440TIP3    H137735   3.598   1.752   3.063 -0.1548 -1.3999 -0.8528
 5440TIP3    H237736   3.702   1.790   2.961  0.3424 -1.8146 -0.5091
 5441TIP3   OH237737   6.422   6.197   2.549 -0.1579  0.3478 -0.5132
 5441TIP3    H137738   6.329   6.176   2.557  0.0865 -1.1756 -1.3090
 5441TIP3    H237739   6.446   6.167   2.461  1.5369 -1.2127  0.4213
 5442TIP3   OH237740   3.427   3.648   4.588 -0.6326 -0.0980  0.1629
 5442TIP3    H137741   3.432   3.567   4.640 -0.2651  0.5431  1.1463
 5442TIP3    H237742   3.333   3.666   4.582 -0.6556  0.1061  1.0576
 5443TIP3   OH237743   1.393   0.403   0.092  0.2604  0.6506  0.1696
 5443TIP3    H137744   1.469   0.435   0.142 -0.4232  1.0952  0.9470
 5443TIP3    H237745   1.388   0.461   0.017  0.8619  0.4385 -0.0423
 5444TIP3   OH237746   1.199   3.705   2.432 -0.3890 -0.2056 -0.1548
 5444TIP3    H137747   1.145   3.784   2.429  2.4772  1.8947 -0.8858
 5444TIP3    H237748   1.256   3.712   2.356  1.5505 -1.7358  1.0515
 5445TIP3   OH237749   0.676   0.024   2.474  0.5678 -0.1673 -0.0054
 5445TIP3    H137750   0.723   0.105   2.450 -1.5022  1.8646  2.2152
 5445TIP3    H237751   0.615   0.010   2.401 -1.2492  2.2220  0.9194
 5446TIP3   OH237752   5.154   5.960   1.873 -0.0742 -0.4777  0.0800
 5446TIP3    H137753   5.184   6.029   1.932 -0.2299 -1.0981  0.8867
 5446TIP3    H237754   5.060   5.956   1.886 -0.1509 -0.4335 -0.4210
 5447TIP3   OH237755   3.808   0.463  13.845  0.0726  0.9761  0.0418
 5447TIP3    H137756   3.735   0.478  13.785  0.1269  0.5993 -0.1198
 5447TIP3    H237757   3.770   0.477  13.932 -0.2728  0.4855 -0.0248
 5448TIP3   OH237758   5.269   4.477  15.684  0.5660 -1.2045 -0.7409
 5448TIP3    H137759   5.339   4.445  15.626  3.7092 -1.3269  2.7280
 5448TIP3    H237760   5.224   4.398  15.713  0.2349 -1.2956 -1.4646
 5449TIP3   OH237761   0.910   0.411  14.119 -0.2957  0.1598  0.2332
 5449TIP3    H137762   0.984   0.351  14.126 -1.2625 -0.9642  1.2892
 5449TIP3    H237763   0.911   0.460  14.201 -0.5509  0.3545  0.1223
 5450TIP3   OH237764   6.603   6.439   2.910  0.0052 -1.3504 -0.0267
 5450TIP3    H137765   6.579   6.349   2.889  1.0246 -1.7372  0.4160
 5450TIP3    H237766   6.529   6.491   2.879 -0.4750 -2.3081 -0.5351
 5451TIP3   OH237767   5.203   1.672  15.931  0.3014 -0.0670  0.5040
 5451TIP3    H137768   5.183   1.763  15.953 -0.7497 -0.1679  0.0383
 5451TIP3    H237769   5.207   1.627  16.016 -0.8045  0.1077  0.6665
 5452TIP3   OH237770   0.572   5.273   1.405  0.2250 -0.3706 -0.3200
 5452TIP3    H137771   0.535   5.239   1.323  1.2308  1.8498 -1.7848
 5452TIP3    H237772   0.499   5.274   1.466 -0.6547 -1.6771 -1.3067
 5453TIP3   OH237773   3.873   4.002   0.528 -0.4343 -0.0779 -0.8233
 5453TIP3    H137774   3.801   3.995   0.591 -1.4570 -2.6668 -2.1276
 5453TIP3    H237775   3.887   4.096   0.518 -2.6350  0.4729  0.5918
 5454TIP3   OH237776   0.510   5.513  16.744  0.2433 -0.1330  0.2689
 5454TIP3    H137777   0.482   5.435  16.791  1.2143 -0.2071  0.7543
 5454TIP3    H237778   0.514   5.581  16.810 -1.9235  0.7189 -0.3911
 5455TIP3   OH237779   2.100   4.214  16.502 -0.1717  0.3113 -0.3999
 5455TIP3    H137780   2.016   4.216  16.548  0.1141 -1.7057  0.3231
 5455TIP3    H237781   2.088   4.271  16.427 -1.6144  1.4361  0.6251
 5456TIP3   OH237782   1.776   1.048  13.085  0.2505 -0.3736  0.0118
 5456TIP3    H137783   1.823   1.132  13.086  0.5314 -0.5101 -0.8975
 5456TIP3    H237784   1.683   1.073  13.090  0.2659  0.0655 -1.4194
 5457TIP3   OH237785   0.277   3.692  13.407 -0.2955 -0.0261  0.1032
 5457TIP3    H137786   0.261   3.607  13.446  0.8346  0.0221  0.6958
 5457TIP3    H237787   0.293   3.673  13.314 -2.6749 -0.1666 -0.3385
 5458TIP3   OH237788   5.800   2.207  17.105 -0.2572  0.1877 -0.0648
 5458TIP3    H137789   5.870   2.218  17.169 -0.2463 -1.5464  0.2599
 5458TIP3    H237790   5.833   2.252  17.026  0.7968  0.2173  0.3728
 5459TIP3   OH237791   0.966   0.413   2.193 -0.1685  0.4198  0.0722
 5459TIP3    H137792   1.030   0.466   2.145  1.3083 -1.1075  0.2178
 5459TIP3    H237793   0.998   0.412   2.283 -0.5852 -0.0591  0.2213
 5460TIP3   OH237794   4.627   0.363  13.976 -1.0248 -0.1676 -0.1179
 5460TIP3    H137795   4.645   0.278  13.938 -1.2246 -0.6537  0.8375
 5460TIP3    H237796   4.709   0.387  14.020  0.0756  1.5336 -2.8448
 5461TIP3   OH237797   6.632   5.689   2.587 -0.7894 -0.4475 -0.0154
 5461TIP3    H137798   6.594   5.740   2.659  2.4403  0.7795  1.0112
 5461TIP3    H237799   6.650   5.754   2.519 -0.6684 -1.0013 -0.5177
 5462TIP3   OH237800   0.783   0.893  14.988  0.3836 -0.0873 -0.4039
 5462TIP3    H137801   0.842   0.959  15.024  0.5920 -0.2210 -0.4923
 5462TIP3    H237802   0.753   0.843  15.064 -0.0132  0.3017 -0.3074
 5463TIP3   OH237803   0.150   3.362  10.488 -0.5680 -0.1530  0.1398
 5463TIP3    H137804   0.203   3.429  10.446 -0.8385 -0.3225 -0.4895
 5463TIP3    H237805   0.060   3.392  10.475 -0.6687 -0.3631  0.3424
 5464TIP3   OH237806   4.223   6.331  14.745 -0.5595  1.0559  0.2426
 5464TIP3    H137807   4.293   6.366  14.800  1.1120  0.3305 -1.3260
 5464TIP3    H237808   4.190   6.256  14.795  3.2731 -1.7886 -0.9846
 5465TIP3   OH237809   0.052   2.494   0.019  0.0574  0.0576 -0.1886
 5465TIP3    H137810   0.073   2.424  -0.043 -1.5688 -0.6703  0.0378
 5465TIP3    H237811   0.030   2.569  -0.036 -2.3656 -0.8732 -0.5756
 5466TIP3   OH237812   4.097   5.507   3.989 -0.4274 -0.5911  0.2369
 5466TIP3    H137813   4.043   5.523   3.912  0.6237  2.0116 -0.0592
 5466TIP3    H237814   4.157   5.438   3.962 -1.6045 -1.4073 -0.4186
 5467TIP3   OH237815   3.853   1.874   3.237 -0.4776  0.4980  0.0793
 5467TIP3    H137816   3.916   1.927   3.190  0.6689 -0.2618  0.7128
 5467TIP3    H237817   3.814   1.817   3.171  1.2085 -0.6551  0.0224
 5468TIP3   OH237818   3.293   4.194  12.852 -0.4695 -0.0912 -0.2135
 5468TIP3    H137819   3.341   4.237  12.781  1.8368 -0.8125  0.7993
 5468TIP3    H237820   3.216   4.249  12.865  1.3671  2.7245 -0.2516
 5469TIP3   OH237821   2.404   3.689  17.292 -0.5239  0.4560  0.4739
 5469TIP3    H137822   2.477   3.739  17.256 -0.2091  1.4480  2.3432
 5469TIP3    H237823   2.391   3.725  17.380 -2.4106 -0.5912  0.6924
 5470TIP3   OH237824   5.495   3.581  15.506  0.3225  0.0318 -0.6999
 5470TIP3    H137825   5.540   3.558  15.424 -1.0171 -4.1833 -0.4639
 5470TIP3    H237826   5.567   3.595  15.568  1.5744 -3.6811 -1.0283
 5471TIP3   OH237827   6.018   4.027   5.058  0.0535 -0.1168  0.1676
 5471TIP3    H137828   6.056   4.081   5.127  0.0434  0.5148 -0.3207
 5471TIP3    H237829   5.926   4.054   5.054  0.2291  0.3931 -0.6109
 5472TIP3   OH237830   4.413   2.554   2.913  0.2370 -0.0622  1.0083
 5472TIP3    H137831   4.498   2.578   2.877 -0.9973  2.1861 -0.6290
 5472TIP3    H237832   4.428   2.545   3.007  2.9134 -3.0300  0.4536
 5473TIP3   OH237833   0.237   0.478  10.848 -0.3530 -0.3956  0.3879
 5473TIP3    H137834   0.330   0.459  10.836 -0.4907 -0.1376 -1.4229
 5473TIP3    H237835   0.192   0.407  10.802 -0.9704  0.8110 -0.9618
 5474TIP3   OH237836   1.060   4.919  13.575  0.1476  0.5876 -0.0464
 5474TIP3    H137837   0.999   4.986  13.545  1.0141  1.3338 -0.1881
 5474TIP3    H237838   1.004   4.847  13.604 -0.7793  0.9718 -0.8149
 5475TIP3   OH237839   5.303   6.291  15.866 -0.3040  0.6808  0.0864
 5475TIP3    H137840   5.350   6.230  15.808 -2.3213  0.5500 -1.5030
 5475TIP3    H237841   5.226   6.243  15.894 -0.7329  1.7064  0.7192
 5476TIP3   OH237842   5.352   1.059  11.016  0.1735  0.4567  0.4176
 5476TIP3    H137843   5.380   1.098  11.099 -0.0349  0.6318  0.4068
 5476TIP3    H237844   5.344   1.134  10.957  3.7070  0.0737 -0.7774
 5477TIP3   OH237845   5.693   2.516  15.129 -0.4455 -0.0123  0.7782
 5477TIP3    H137846   5.701   2.608  15.106 -0.4185 -0.2151 -0.0514
 5477TIP3    H237847   5.649   2.476  15.054  1.0968 -0.9790  0.3233
 5478TIP3   OH237848   5.748   5.760  12.842  0.9822 -0.0723 -0.2878
 5478TIP3    H137849   5.713   5.843  12.811 -1.9803 -1.3549 -0.8409
 5478TIP3    H237850   5.786   5.719  12.764  1.0988  0.1480 -0.3465
 5479TIP3   OH237851   3.580   4.638   6.161  0.0975 -0.4643 -0.3265
 5479TIP3    H137852   3.532   4.668   6.238  0.6398 -2.2896  0.7881
 5479TIP3    H237853   3.670   4.627   6.191  0.2697 -1.4450 -1.1488
 5480TIP3   OH237854   2.907   6.661  13.004  0.0026 -0.1698 -0.0347
 5480TIP3    H137855   2.886   6.754  13.010  0.0588 -0.1421 -0.2689
 5480TIP3    H237856   2.838   6.624  12.950 -0.5326 -0.4321  0.8122
 5481TIP3   OH237857   2.072   1.264  16.746  1.0941 -0.3651  0.1969
 5481TIP3    H137858   2.000   1.232  16.802 -0.8919  0.9194 -1.4809
 5481TIP3    H237859   2.092   1.190  16.689 -0.1466 -0.2326 -0.4593
 5482TIP3   OH237860   5.225   3.945   5.068 -0.8556 -0.0525 -0.2918
 5482TIP3    H137861   5.203   3.985   5.153  0.7146  0.9736 -0.3190
 5482TIP3    H237862   5.260   4.018   5.016 -0.3589 -0.9676 -1.2810
 5483TIP3   OH237863   4.856   3.791  12.547  0.5635  0.6039  0.6650
 5483TIP3    H137864   4.828   3.700  12.558 -0.3981  0.8132  0.0583
 5483TIP3    H237865   4.917   3.806  12.620  0.1254 -0.2794  1.2327
 5484TIP3   OH237866   4.352   4.501   2.949  0.0338 -0.2650  0.3598
 5484TIP3    H137867   4.273   4.489   2.895  0.6897 -1.9163 -0.2869
 5484TIP3    H237868   4.319   4.543   3.029 -1.2746  0.3824 -0.4762
 5485TIP3   OH237869   6.231   6.481  12.950 -0.0822  0.0381 -0.0039
 5485TIP3    H137870   6.156   6.480  12.890 -0.8568 -1.0999  0.9157
 5485TIP3    H237871   6.214   6.408  13.010  1.5222  0.0790  0.5498
 5486TIP3   OH237872   2.071   6.630  16.862  0.3744 -0.2884  0.1572
 5486TIP3    H137873   2.156   6.607  16.824  1.2679 -0.3807  2.0937
 5486TIP3    H237874   2.091   6.699  16.924 -1.2290  0.7444 -0.4211
 5487TIP3   OH237875   0.742   2.093   5.961  0.1584  0.2365 -0.3552
 5487TIP3    H137876   0.751   2.001   5.937  1.0014  0.0349  0.6684
 5487TIP3    H237877   0.807   2.106   6.030 -1.3412  1.0560  0.9784
 5488TIP3   OH237878   0.691   6.327  12.685  0.4653  0.3216  0.5765
 5488TIP3    H137879   0.773   6.278  12.694 -0.6139 -1.7444  0.0272
 5488TIP3    H237880   0.712   6.399  12.626  2.1012  0.3982  1.2079
 5489TIP3   OH237881   3.575   6.233   0.556 -0.2949  0.1716  0.1862
 5489TIP3    H137882   3.626   6.163   0.514  0.0116  0.5080 -0.0083
 5489TIP3    H237883   3.606   6.313   0.514  0.8085  0.6502  1.8045
 5490TIP3   OH237884   6.349   4.286  13.744  0.0157 -0.2842  0.0929
 5490TIP3    H137885   6.405   4.313  13.671 -1.2034  0.0341 -0.7570
 5490TIP3    H237886   6.291   4.361  13.758 -0.4424 -0.7486  0.7055
 5491TIP3   OH237887   2.821   6.405   1.034 -0.1092 -0.4629 -0.4711
 5491TIP3    H137888   2.829   6.409   1.130 -0.3207 -3.8137 -0.1806
 5491TIP3    H237889   2.906   6.373   1.005 -0.6346 -1.2610 -1.1718
 5492TIP3   OH237890   3.251   2.443  14.142 -0.2832 -0.0035 -0.1670
 5492TIP3    H137891   3.327   2.456  14.198  0.6289  0.4292 -1.4631
 5492TIP3    H237892   3.176   2.447  14.202  0.3947  3.5997  0.6635
 5493TIP3   OH237893   1.041   1.332  11.447 -0.7091 -0.3598  0.3479
 5493TIP3    H137894   1.101   1.331  11.372  0.4496  4.4380  0.9190
 5493TIP3    H237895   0.965   1.381  11.416  0.1910  2.5735  2.3482
 5494TIP3   OH237896   5.737   4.196   4.782 -0.3551  1.1562  0.4171
 5494TIP3    H137897   5.647   4.199   4.752  0.1612  0.5789 -1.3381
 5494TIP3    H237898   5.786   4.246   4.716  1.2361 -2.4758 -1.4670
 5495TIP3   OH237899   5.809   2.445  15.903  0.7322  0.3667 -0.9523
 5495TIP3    H137900   5.720   2.417  15.925  1.1692  0.2565  0.8418
 5495TIP3    H237901   5.836   2.385  15.833 -0.4844  0.2025 -1.3081
 5496TIP3   OH237902   4.957   0.806  13.097 -0.0342 -0.1102 -0.4513
 5496TIP3    H137903   4.985   0.757  13.019  1.8356 -1.3666  0.9264
 5496TIP3    H237904   4.970   0.745  13.169  0.0320  1.6366  1.0780
 5497TIP3   OH237905   2.313   5.877  11.410  0.1895 -0.0321  0.1525
 5497TIP3    H137906   2.364   5.922  11.478 -1.2744  3.1616 -0.6613
 5497TIP3    H237907   2.223   5.877  11.443 -0.3314  0.3993 -1.1827
 5498TIP3   OH237908   3.386   0.147   3.876 -0.2042 -1.1018  1.0436
 5498TIP3    H137909   3.358   0.236   3.895  0.7270 -0.7487  0.8364
 5498TIP3    H237910   3.482   0.152   3.876 -0.1310 -1.5947 -1.2510
 5499TIP3   OH237911   5.637   6.242  16.123  0.0548 -0.1298 -0.1940
 5499TIP3    H137912   5.715   6.265  16.172 -1.5290  2.5842  1.2889
 5499TIP3    H237913   5.643   6.290  16.041 -0.4121  0.7667  0.2848
 5500TIP3   OH237914   4.251   5.735  16.479 -0.0570  0.0180 -0.1848
 5500TIP3    H137915   4.175   5.792  16.481  0.4623  0.8544  3.8591
 5500TIP3    H237916   4.322   5.788  16.516  1.0736 -2.3831  1.3710
 5501TIP3   OH237917   5.395   5.150  11.873  0.1175 -0.2862  0.2944
 5501TIP3    H137918   5.403   5.062  11.911  1.5591  0.2425  1.3201
 5501TIP3    H237919   5.423   5.209  11.944 -2.7857  1.1868  0.3715
 5502TIP3   OH237920   1.906   5.299  11.712  0.0536  0.3223 -0.1607
 5502TIP3    H137921   1.933   5.343  11.631 -0.0567  2.8807  1.1044
 5502TIP3    H237922   1.814   5.278  11.697 -0.5576  2.6086 -0.0504
 5503TIP3   OH237923   6.548   5.604   0.290 -0.3763 -0.2149 -0.2141
 5503TIP3    H137924   6.560   5.696   0.315 -0.7373  0.3771 -2.0892
 5503TIP3    H237925   6.630   5.562   0.315  1.2477  1.3693 -2.4398
 5504TIP3   OH237926   1.143   4.624   3.751  0.4335 -0.0457 -0.2846
 5504TIP3    H137927   1.237   4.632   3.739  0.4962 -0.0450  0.1744
 5504TIP3    H237928   1.105   4.659   3.670  0.8449 -1.5338 -1.1414
 5505TIP3   OH237929   1.670   0.470   3.112  0.1142 -0.3042 -0.4881
 5505TIP3    H137930   1.747   0.416   3.096  0.3219 -0.4501  0.8998
 5505TIP3    H237931   1.643   0.449   3.201 -1.6741 -0.4111 -1.0081
 5506TIP3   OH237932   3.596   2.851   6.173 -0.0111  0.6261 -0.9180
 5506TIP3    H137933   3.624   2.766   6.204 -1.2653  0.9538  1.3180
 5506TIP3    H237934   3.500   2.848   6.178 -0.1720  1.5082 -2.6967
 5507TIP3   OH237935   0.258   6.598   1.894  0.0743  0.4351  0.0032
 5507TIP3    H137936   0.325   6.559   1.838 -0.6482  0.3501 -0.8307
 5507TIP3    H237937   0.182   6.608   1.837 -0.6150  0.5699  0.9155
 5508TIP3   OH237938   5.397   5.472  16.639  0.5929  0.0341 -0.3675
 5508TIP3    H137939   5.382   5.553  16.590  0.7721 -1.0502 -2.3339
 5508TIP3    H237940   5.373   5.493  16.729  1.4189  2.5032 -0.6481
 5509TIP3   OH237941   2.683   1.249   2.421 -0.4378 -0.1091  0.1019
 5509TIP3    H137942   2.701   1.255   2.327 -0.9265  0.4343  0.0371
 5509TIP3    H237943   2.688   1.339   2.452 -1.3194 -0.1485  0.3955
 5510TIP3   OH237944   1.934   5.618  12.042  0.0694 -0.0776  0.2938
 5510TIP3    H137945   1.916   5.681  12.112  1.2248  0.1343  0.4250
 5510TIP3    H237946   1.904   5.661  11.962 -0.6311 -0.0389  0.5694
 5511TIP3   OH237947   4.356   1.678   5.369 -0.1150  0.5221  0.6548
 5511TIP3    H137948   4.359   1.604   5.430 -0.0026  1.2930  1.6189
 5511TIP3    H237949   4.447   1.707   5.363 -0.1006  0.3339 -0.0333
 5512TIP3   OH237950   3.991   3.013  12.868 -0.4182  0.4283 -0.0066
 5512TIP3    H137951   3.946   3.002  12.784 -1.9751  1.3455  0.6572
 5512TIP3    H237952   3.928   2.980  12.932  2.1299 -3.8397  0.6684
 5513TIP3   OH237953   0.735   2.293  12.463  0.3357 -0.3361 -0.4186
 5513TIP3    H137954   0.709   2.217  12.410  0.2627  0.0775 -0.9851
 5513TIP3    H237955   0.666   2.302  12.529 -0.1258 -0.2174 -0.9150
 5514TIP3   OH237956   2.504   1.982  16.685  0.2350 -0.5434 -0.1669
 5514TIP3    H137957   2.472   2.020  16.603 -3.0684 -0.9184  0.8125
 5514TIP3    H237958   2.543   1.899  16.659 -1.0239 -0.7944 -1.3870
 5515TIP3   OH237959   1.310   4.321  11.808  0.4308  0.2191 -0.0328
 5515TIP3    H137960   1.388   4.343  11.757  0.2910  2.3550  0.5600
 5515TIP3    H237961   1.340   4.316  11.898  0.2657 -1.2499 -0.0448
 5516TIP3   OH237962   1.040   1.545   0.498 -0.0082  0.6421  0.4794
 5516TIP3    H137963   1.124   1.583   0.526 -1.1264  3.2309  0.5362
 5516TIP3    H237964   1.022   1.585   0.413 -0.2616 -1.4551 -0.5184
 5517TIP3   OH237965   4.340   6.223   0.882 -0.1353 -0.1034  0.3410
 5517TIP3    H137966   4.413   6.222   0.820 -0.9449 -0.4413 -0.6388
 5517TIP3    H237967   4.356   6.149   0.940  1.1001  0.7438  1.1351
 5518TIP3   OH237968   2.273   1.925   4.815 -0.5755  0.2920 -0.0708
 5518TIP3    H137969   2.205   1.966   4.869 -0.1655  0.0189  0.6748
 5518TIP3    H237970   2.352   1.930   4.868 -0.3885 -0.9208 -0.1981
 5519TIP3   OH237971   1.988   5.728  16.356  0.2034 -0.0340  0.0669
 5519TIP3    H137972   2.057   5.794  16.359 -1.4618  1.8128 -0.1291
 5519TIP3    H237973   1.987   5.697  16.265 -1.5654  2.6680 -0.9490
 5520TIP3   OH237974   1.553   0.838   6.204  0.1986  0.2454  0.6485
 5520TIP3    H137975   1.460   0.819   6.194 -0.2789  1.4832  2.2570
 5520TIP3    H237976   1.557   0.933   6.216  1.2956 -0.0679  3.5633
 5521TIP3   OH237977   2.741   6.338  16.296  0.1970 -0.6487 -0.3731
 5521TIP3    H137978   2.803   6.269  16.270  0.1571 -1.3567  1.3028
 5521TIP3    H237979   2.792   6.397  16.351  0.1092  0.4536 -1.4266
 5522TIP3   OH237980   3.076   1.898   5.299  0.2668  0.2000  0.0722
 5522TIP3    H137981   3.055   1.989   5.322 -0.6524 -0.6290  2.9141
 5522TIP3    H237982   3.172   1.894   5.300  0.3148  0.7952  1.7404
 5523TIP3   OH237983   4.636   0.039  15.083  0.5491  0.5064 -0.1388
 5523TIP3    H137984   4.541   0.049  15.076  0.3813 -0.2677  0.8394
 5523TIP3    H237985   4.664   0.118  15.128  0.4412  0.9534 -0.8316
 5524TIP3   OH237986   4.458   4.188   1.987  0.7106  0.1361  0.0971
 5524TIP3    H137987   4.391   4.142   1.936  1.0315  0.4435 -0.6106
 5524TIP3    H237988   4.428   4.181   2.078  1.0115 -1.9158  0.0839
 5525TIP3   OH237989   3.695   2.913   3.248 -0.1625 -0.0935 -0.0545
 5525TIP3    H137990   3.747   2.973   3.194 -1.5985  1.3339  0.0917
 5525TIP3    H237991   3.610   2.909   3.205  0.0418 -2.5997 -0.4268
 5526TIP3   OH237992   6.651   0.854   2.600 -0.5639  0.3419  0.1081
 5526TIP3    H137993   6.742   0.829   2.612 -0.5619  0.5635  0.5646
 5526TIP3    H237994   6.602   0.799   2.661 -0.7618  0.0642 -0.2942
 5527TIP3   OH237995   6.226   0.246  11.667 -0.1006 -0.2828  0.0232
 5527TIP3    H137996   6.299   0.229  11.608  0.6535  0.6473  0.6577
 5527TIP3    H237997   6.240   0.336  11.697 -1.5080 -0.0890  0.1643
 5528TIP3   OH237998   6.280   1.138   4.856 -0.1134  0.3910 -0.4498
 5528TIP3    H137999   6.208   1.139   4.792 -0.5462 -2.5941 -0.1456
 5528TIP3    H238000   6.238   1.160   4.939 -0.3115  0.4697 -0.5690
 5529TIP3   OH238001   0.071   1.574   5.594 -0.8265  0.1954  0.5447
 5529TIP3    H138002   0.086   1.538   5.507  0.6704  1.1675  0.3483
 5529TIP3    H238003  -0.018   1.609   5.591 -0.2282  1.7266 -1.1969
 5530TIP3   OH238004   4.723   4.407  16.128  0.6750 -0.0692 -0.2776
 5530TIP3    H138005   4.756   4.447  16.048  1.0461  0.3083  0.0668
 5530TIP3    H238006   4.630   4.391  16.109  1.1519 -1.7710 -1.5067
 5531TIP3   OH238007   4.032   4.009  15.617 -0.1364  0.1535 -0.1448
 5531TIP3    H138008   4.117   3.965  15.625 -0.6486 -0.6166  1.3599
 5531TIP3    H238009   3.986   3.961  15.549  0.1468 -0.2540 -0.0536
 5532TIP3   OH238010   1.741   4.835  13.732  0.3080  0.3597 -0.0858
 5532TIP3    H138011   1.664   4.790  13.766 -0.3725  1.9700  0.5883
 5532TIP3    H238012   1.799   4.764  13.704 -0.5033 -0.9403  1.3614
 5533TIP3   OH238013   2.270   6.187  10.699  0.4224 -0.0740  0.6057
 5533TIP3    H138014   2.354   6.201  10.743  0.7343  1.9773 -0.5373
 5533TIP3    H238015   2.291   6.136  10.621  0.8601  1.6267 -0.4189
 5534TIP3   OH238016   0.903   1.895   4.105 -0.0830 -0.1713  0.0475
 5534TIP3    H138017   0.812   1.866   4.095 -0.1035 -0.4395  0.9452
 5534TIP3    H238018   0.950   1.817   4.134  1.0010 -0.7626 -2.9960
 5535TIP3   OH238019   6.619   2.798  14.509  0.5624 -0.8173  0.1424
 5535TIP3    H138020   6.695   2.801  14.567  0.0950 -2.3153  0.8949
 5535TIP3    H238021   6.549   2.760  14.563  0.8105 -4.9921 -2.0337
 5536TIP3   OH238022   3.518   0.030   6.534 -0.4072  0.1440 -0.3721
 5536TIP3    H138023   3.523  -0.062   6.508  2.1518  0.3242 -0.7699
 5536TIP3    H238024   3.551   0.079   6.459 -0.0776  1.2566  0.4543
 5537TIP3   OH238025   0.450   4.455  13.080  0.3486 -0.2256  0.7290
 5537TIP3    H138026   0.406   4.399  13.016  0.2802 -0.5665  1.0724
 5537TIP3    H238027   0.532   4.480  13.038  0.2155 -0.2857  0.4308
 5538TIP3   OH238028   0.739   2.741   0.325  0.5555 -0.0026 -0.6207
 5538TIP3    H138029   0.748   2.647   0.311 -1.2340 -0.3782  0.3521
 5538TIP3    H238030   0.650   2.761   0.295  0.9620  1.4205 -0.9519
 5539TIP3   OH238031   2.004   4.663  17.124  0.1866  0.7184 -0.1432
 5539TIP3    H138032   1.930   4.669  17.064 -1.8490  1.6748  2.2911
 5539TIP3    H238033   2.056   4.590  17.091 -2.3937 -0.6865 -1.3844
 5540TIP3   OH238034   2.224   4.472  17.109  0.4956 -0.6575  0.0796
 5540TIP3    H138035   2.271   4.538  17.159  0.6073 -0.8746  0.2624
 5540TIP3    H238036   2.185   4.415  17.174  0.5350 -0.8661 -0.0770
 5541TIP3   OH238037   1.740   2.952  12.133  0.2265 -0.0248  0.2842
 5541TIP3    H138038   1.798   3.014  12.090 -1.9329  1.6452 -0.4030
 5541TIP3    H238039   1.759   2.867  12.092  0.4090  0.9448 -1.7178
 5542TIP3   OH238040   3.282   3.887  12.714 -0.4487  0.5027  0.2274
 5542TIP3    H138041   3.281   3.950  12.642 -1.1328  1.5708  1.1390
 5542TIP3    H238042   3.204   3.908  12.766 -0.2625 -0.5948  0.9910
 5543TIP3   OH238043   3.323   3.070   2.251  0.3801 -0.2395  0.2189
 5543TIP3    H138044   3.338   3.163   2.267  0.1691 -0.1009 -0.3419
 5543TIP3    H238045   3.247   3.048   2.304  1.9281 -0.7249  2.3586
 5544TIP3   OH238046   3.995   1.208  17.160  0.5115 -0.1327  0.4101
 5544TIP3    H138047   4.038   1.129  17.128  0.7191  0.3601 -0.5504
 5544TIP3    H238048   3.902   1.194  17.142  0.6827  0.3923 -1.0251
 5545TIP3   OH238049   5.963   1.465   5.514  1.2969 -0.4671 -0.3008
 5545TIP3    H138050   6.044   1.491   5.469  0.5527  0.6667 -1.0454
 5545TIP3    H238051   5.990   1.454   5.606  2.6711 -2.0128 -0.8472
 5546TIP3   OH238052   1.065   0.033   4.768 -0.0374  0.0926 -0.4597
 5546TIP3    H138053   1.143  -0.020   4.787 -0.9639 -0.6546  1.5603
 5546TIP3    H238054   0.993  -0.018   4.804 -1.2404  1.7153 -0.4814
 5547TIP3   OH238055   3.490   6.186  13.800  0.1391  0.8883 -0.0572
 5547TIP3    H138056   3.529   6.190  13.713  1.9728  0.4528  0.7053
 5547TIP3    H238057   3.440   6.267  13.808  0.2702  1.1096 -1.3627
 5548TIP3   OH238058   2.769   4.738  16.059  0.1691  0.0676  0.6098
 5548TIP3    H138059   2.844   4.696  16.016  0.4551  0.8728  0.2865
 5548TIP3    H238060   2.723   4.667  16.102  0.1022 -0.7181 -0.7101
 5549TIP3   OH238061   1.531   4.995   0.110  0.5975 -0.7306 -0.5355
 5549TIP3    H138062   1.575   4.920   0.149 -0.7406 -1.3559 -0.2114
 5549TIP3    H238063   1.509   5.051   0.184 -0.1519 -0.9575 -0.5834
 5550TIP3   OH238064   4.943   0.982  13.301 -0.5781  0.2727  0.5660
 5550TIP3    H138065   4.974   0.913  13.242  1.7522  0.2004  1.7490
 5550TIP3    H238066   4.853   0.958  13.320 -0.7314 -0.8442 -1.2917
 5551TIP3   OH238067   6.531   3.247   1.381  0.1624 -0.3019 -0.3255
 5551TIP3    H138068   6.575   3.285   1.457 -2.4659 -0.7075  1.5369
 5551TIP3    H238069   6.600   3.200   1.334  1.8376 -0.3642  2.0356
 5552TIP3   OH238070   2.298   2.446   5.443 -0.0310 -0.2040 -0.4595
 5552TIP3    H138071   2.251   2.364   5.461  0.0317 -0.0965  0.2374
 5552TIP3    H238072   2.388   2.428   5.471 -0.3865  0.6494  1.3737
 5553TIP3   OH238073   0.444   1.650   4.949 -0.4024 -0.8054 -0.6551
 5553TIP3    H138074   0.384   1.713   4.908 -1.3166 -0.6673  0.8283
 5553TIP3    H238075   0.525   1.658   4.898 -0.6620  1.2072 -0.8312
 5554TIP3   OH238076   3.463   1.396   2.420  0.5163 -0.2788 -0.4536
 5554TIP3    H138077   3.479   1.329   2.486 -0.8776  0.5483  0.7846
 5554TIP3    H238078   3.523   1.467   2.442 -1.1141  0.7052  1.0397
 5555TIP3   OH238079   3.086   4.999   0.970  0.0976 -0.2286  0.0568
 5555TIP3    H138080   3.116   4.984   0.881 -0.6043  1.5263 -0.5281
 5555TIP3    H238081   3.162   4.981   1.025  0.1578 -2.7356 -0.7108
 5556TIP3   OH238082   6.324   1.583   2.545  0.3881 -0.5207  0.0787
 5556TIP3    H138083   6.298   1.492   2.531 -0.3406 -0.5593  1.5228
 5556TIP3    H238084   6.358   1.585   2.634  0.7764  0.5512 -0.0798
 5557TIP3   OH238085   2.217   0.663   6.073  0.4664  0.3868 -0.1136
 5557TIP3    H138086   2.234   0.692   5.983 -3.2786  0.0505 -1.0697
 5557TIP3    H238087   2.176   0.739   6.115 -0.2010 -0.3046  0.4988
 5558TIP3   OH238088   0.279   6.325  12.003 -0.1096 -0.4804 -0.0974
 5558TIP3    H138089   0.349   6.296  11.944 -0.5405 -3.2496  0.5874
 5558TIP3    H238090   0.284   6.265  12.077 -0.1260  2.3527  2.3569
 5559TIP3   OH238091   2.954   3.925   1.984  0.0602  0.3018  0.0483
 5559TIP3    H138092   2.897   3.987   2.031  0.2753  0.5566 -0.0198
 5559TIP3    H238093   2.914   3.840   1.998 -0.2176  0.4526  0.1837
 5560TIP3   OH238094   5.990   5.929   4.082  0.1349 -0.2333 -0.2005
 5560TIP3    H138095   5.998   5.859   4.147 -2.6775  0.1041  0.6372
 5560TIP3    H238096   6.039   6.002   4.121  1.8718 -1.2238 -0.4136
 5561TIP3   OH238097   1.689   4.954   1.476 -0.0508 -0.0825 -0.2569
 5561TIP3    H138098   1.635   5.015   1.426 -1.5275 -0.2807  1.0005
 5561TIP3    H238099   1.739   5.010   1.535 -0.4645  0.0009  0.0219
 5562TIP3   OH238100   4.055   4.406   3.708  0.5592 -0.3156 -0.7892
 5562TIP3    H138101   4.026   4.318   3.684 -0.6133 -0.0587 -0.3626
 5562TIP3    H238102   4.015   4.422   3.793  0.6860  0.6714 -0.9076
 5563TIP3   OH238103   0.649   2.964  15.973 -0.1851  0.3920 -0.9413
 5563TIP3    H138104   0.640   2.966  15.878 -2.3075  2.6449 -0.8004
 5563TIP3    H238105   0.563   2.937  16.005  0.8974 -1.7485  0.3714
 5564TIP3   OH238106   6.197   5.469   2.010  0.5817 -1.0257  0.2047
 5564TIP3    H138107   6.197   5.467   2.106  0.0149  0.4477  0.2705
 5564TIP3    H238108   6.288   5.481   1.986  0.5045  0.8548  0.6899
 5565TIP3   OH238109   1.787   6.562  12.090  0.1071 -0.6084 -0.2215
 5565TIP3    H138110   1.801   6.533  12.000 -1.1591 -0.7743 -0.3908
 5565TIP3    H238111   1.874   6.583  12.123  0.4904  0.5849 -1.8762
 5566TIP3   OH238112   0.232   6.357  17.087 -0.2600 -0.0567 -0.0098
 5566TIP3    H138113   0.241   6.447  17.056 -0.1313  0.3244  1.0794
 5566TIP3    H238114   0.205   6.307  17.010 -1.4462  1.1082 -0.3752
 5567TIP3   OH238115   1.329   4.702   0.557  0.0051 -0.4839  0.4321
 5567TIP3    H138116   1.250   4.746   0.525  0.6650 -0.0890 -0.7492
 5567TIP3    H238117   1.311   4.681   0.648 -1.1074  0.4301  0.4350
 5568TIP3   OH238118   5.676   3.845  15.248 -0.2261 -0.1656 -0.0968
 5568TIP3    H138119   5.768   3.856  15.270 -0.4467  0.0655  0.7576
 5568TIP3    H238120   5.635   3.816  15.330 -1.0505  0.5318 -0.2424
 5569TIP3   OH238121   4.814   4.006  16.996  0.2418 -0.1302 -0.1577
 5569TIP3    H138122   4.816   4.064  16.920 -0.8608  1.2127  0.8022
 5569TIP3    H238123   4.722   3.984  17.008  0.2897  0.3189  1.2456
 5570TIP3   OH238124   0.213   1.098  14.165 -0.6545  0.5565  0.3298
 5570TIP3    H138125   0.124   1.132  14.162 -1.1776 -0.7866 -1.1272
 5570TIP3    H238126   0.205   1.007  14.134  1.0328 -0.0238  1.4282
 5571TIP3   OH238127   5.065   5.996   6.054 -0.2961  0.2178 -0.6326
 5571TIP3    H138128   5.114   5.937   6.111 -1.1925 -0.8226 -0.9261
 5571TIP3    H238129   5.038   6.068   6.112 -1.5546 -1.0331  0.3906
 5572TIP3   OH238130   5.204   6.537   1.727 -0.2936 -0.2928 -0.2632
 5572TIP3    H138131   5.259   6.595   1.675  0.5239 -0.2669  0.6097
 5572TIP3    H238132   5.260   6.507   1.798 -1.0241 -1.2959 -0.0786
 5573TIP3   OH238133   0.555   1.741   0.505  0.3246 -0.1599  0.1623
 5573TIP3    H138134   0.553   1.675   0.435 -0.6164 -0.9808  0.9240
 5573TIP3    H238135   0.481   1.718   0.561  0.6961  0.8464  1.0996
 5574TIP3   OH238136   3.316   6.324  15.710  0.1638 -0.4672  0.6252
 5574TIP3    H138137   3.371   6.379  15.654  1.7583 -2.3167  0.2341
 5574TIP3    H238138   3.280   6.384  15.775  1.7650  1.0409  0.2060
 5575TIP3   OH238139   3.826   4.555   0.839  0.0427 -0.4393  0.2595
 5575TIP3    H138140   3.754   4.533   0.780 -1.1471 -0.6913  1.7672
 5575TIP3    H238141   3.799   4.637   0.881  1.1621  0.0723  0.0173
 5576TIP3   OH238142   2.108   6.481  15.988  0.1502  0.2134 -0.1095
 5576TIP3    H138143   2.026   6.438  15.966 -0.1949  0.9622 -0.3500
 5576TIP3    H238144   2.176   6.416  15.970 -0.1800  0.4342 -2.5020
 5577TIP3   OH238145   5.612   4.985   5.927  0.0907  0.3588  0.4668
 5577TIP3    H138146   5.688   4.938   5.963 -0.0737  0.2155  0.6281
 5577TIP3    H238147   5.618   5.072   5.967  1.0984  0.8898 -0.7964
 5578TIP3   OH238148   5.843   4.423   5.350 -0.1242  0.1761  0.5769
 5578TIP3    H138149   5.848   4.408   5.444 -0.3172  2.1600  0.9403
 5578TIP3    H238150   5.894   4.502   5.335 -0.3641  0.0812 -0.9426
 5579TIP3   OH238151   4.480   4.333  11.794  0.0298 -0.3397  0.4614
 5579TIP3    H138152   4.490   4.387  11.715  1.6456 -1.0080  0.1666
 5579TIP3    H238153   4.454   4.247  11.761  3.3266 -1.4303  0.2771
 5580TIP3   OH238154   3.572   5.149   5.035  0.3123 -0.2763  0.6878
 5580TIP3    H138155   3.498   5.092   5.060  0.4235 -0.1420  1.3530
 5580TIP3    H238156   3.618   5.164   5.117  0.4750  0.5128  0.4538
 5581TIP3   OH238157   4.339   3.316  14.504  0.0760  0.0596 -0.0368
 5581TIP3    H138158   4.430   3.289  14.499  0.3930  1.2878 -2.8940
 5581TIP3    H238159   4.343   3.409  14.526 -0.3011  0.5998 -2.0274
 5582TIP3   OH238160   6.590   2.516  11.423  0.1215  0.1383 -0.4512
 5582TIP3    H138161   6.674   2.503  11.379 -0.1651 -1.2936 -0.6114
 5582TIP3    H238162   6.613   2.527  11.515  0.6757  2.5705 -0.8113
 5583TIP3   OH238163   6.170   2.679   0.957  0.0331 -0.4882 -0.5638
 5583TIP3    H138164   6.103   2.652   0.894  0.2414 -0.7452 -0.6763
 5583TIP3    H238165   6.145   2.634   1.038 -0.0120 -0.4708 -0.5679
 5584TIP3   OH238166   2.591   0.016  15.015  0.6128 -0.0943  0.9061
 5584TIP3    H138167   2.584  -0.015  15.105  1.4017 -0.3792  0.8805
 5584TIP3    H238168   2.663  -0.035  14.978  0.8739  0.6435  0.3777
 5585TIP3   OH238169   4.089   5.302   0.347 -0.5916  0.6023 -0.2829
 5585TIP3    H138170   4.072   5.333   0.258 -1.4336  0.0456 -0.3255
 5585TIP3    H238171   4.002   5.297   0.387 -0.2083  1.0076  0.6281
 5586TIP3   OH238172   3.903   6.430   2.384 -0.8528  0.6095  0.5945
 5586TIP3    H138173   3.814   6.395   2.371 -0.6804  0.1992  0.5063
 5586TIP3    H238174   3.889   6.515   2.425 -1.2805  0.4352  0.8210
 5587TIP3   OH238175   3.773   5.013  16.895  0.0648  0.0496  0.0339
 5587TIP3    H138176   3.681   4.988  16.890 -0.2305  0.6775  1.7252
 5587TIP3    H238177   3.772   5.106  16.917  0.9542 -0.6661  3.8503
 5588TIP3   OH238178   3.582   4.147   4.529 -0.6358  0.0779  0.6480
 5588TIP3    H138179   3.553   4.181   4.444  0.8977  0.1183  0.1096
 5588TIP3    H238180   3.601   4.225   4.580  0.1046  0.0488  0.4207
 5589TIP3   OH238181   2.935   4.717   2.712 -0.2691 -0.6494 -0.4457
 5589TIP3    H138182   2.893   4.797   2.743 -0.6977 -0.8298 -0.5577
 5589TIP3    H238183   2.982   4.743   2.633  1.2332 -0.0717  0.5893
 5590TIP3   OH238184   2.508   5.287  13.012 -0.6491  0.2538 -0.6217
 5590TIP3    H138185   2.453   5.338  13.072 -1.8528 -0.7304 -0.8347
 5590TIP3    H238186   2.593   5.282  13.056 -0.4296  2.5596 -0.7022
 5591TIP3   OH238187   1.819   4.667   6.685 -0.1631  0.0923 -0.2628
 5591TIP3    H138188   1.816   4.572   6.687 -2.3225  0.0119 -2.6016
 5591TIP3    H238189   1.750   4.695   6.745 -0.4687  0.1190 -0.6203
 5592TIP3   OH238190   5.399   6.190   2.939 -0.1249  0.3477  0.1131
 5592TIP3    H138191   5.402   6.148   2.853 -0.7040 -0.1134  0.3076
 5592TIP3    H238192   5.468   6.255   2.936  0.8279 -0.6474 -0.1939
 5593TIP3   OH238193   0.339   1.965  15.349  0.1645  0.1019 -0.4948
 5593TIP3    H138194   0.330   1.871  15.333  2.0391 -0.2915  0.4481
 5593TIP3    H238195   0.432   1.983  15.338  0.0871  1.5472  0.7972
 5594TIP3   OH238196   3.771   6.378   1.407  0.7714 -0.1580 -0.1137
 5594TIP3    H138197   3.698   6.322   1.434 -0.6300  1.7068  0.1698
 5594TIP3    H238198   3.729   6.455   1.368  2.4361  2.2514  2.4596
 5595TIP3   OH238199   5.460   1.932  14.330 -0.4434  0.0953  0.2033
 5595TIP3    H138200   5.424   1.977  14.407 -2.0093 -0.2713 -0.2665
 5595TIP3    H238201   5.383   1.901  14.283  0.4683  0.6596 -1.7546
 5596TIP3   OH238202   5.268   5.659   3.212  0.1970 -0.2123  0.0209
 5596TIP3    H138203   5.287   5.623   3.126  0.0210 -2.6892  0.9364
 5596TIP3    H238204   5.344   5.635   3.265 -0.5384 -0.3819  1.0150
 5597TIP3   OH238205   0.921   5.249   6.053 -0.8431  0.8999  0.2266
 5597TIP3    H138206   0.924   5.344   6.043  0.3697  0.8320 -0.3840
 5597TIP3    H238207   0.900   5.216   5.965 -0.0610  0.5886  0.1395
 5598TIP3   OH238208   0.699   5.768   0.639  0.1363  0.2945 -0.1737
 5598TIP3    H138209   0.641   5.741   0.711 -1.5279  1.0753 -1.1849
 5598TIP3    H238210   0.692   5.863   0.637 -1.7759  0.1987 -2.8590
 5599TIP3   OH238211   0.029   5.646   0.027  0.4268  0.0826  0.2665
 5599TIP3    H138212   0.093   5.656   0.098  1.0551 -1.0464 -0.1081
 5599TIP3    H238213   0.009   5.735   0.000  2.3503  0.4802 -0.0227
 5600TIP3   OH238214   3.202   4.062  12.511 -0.7757 -0.6515  0.2513
 5600TIP3    H138215   3.195   4.157  12.501  0.2375 -0.6151 -0.1830
 5600TIP3    H238216   3.122   4.028  12.471 -0.6550 -0.0362 -0.5376
 5601TIP3   OH238217   5.142   1.888   1.990  0.1652 -0.4788 -0.3378
 5601TIP3    H138218   5.065   1.920   1.942  0.5933  1.2152  0.0606
 5601TIP3    H238219   5.195   1.844   1.923  0.9542  2.1875 -1.5943
 5602TIP3   OH238220   0.336   3.628   4.915 -0.2373 -0.0532  0.3181
 5602TIP3    H138221   0.337   3.580   4.832 -1.9040 -3.1577  1.9255
 5602TIP3    H238222   0.322   3.720   4.889  0.8069 -0.6461 -2.8277
 5603TIP3   OH238223   6.555   3.725  16.315 -0.2142 -0.0155  1.3398
 5603TIP3    H138224   6.528   3.701  16.227  0.9386 -0.3304  1.0658
 5603TIP3    H238225   6.529   3.817  16.324  0.2958  0.2269  0.4172
 5604TIP3   OH238226   0.506   3.324   4.682 -0.1368  0.4985 -0.2305
 5604TIP3    H138227   0.429   3.380   4.674 -2.8286 -2.7615  0.7643
 5604TIP3    H238228   0.529   3.326   4.775  0.0966  0.3653 -0.2822
 5605TIP3   OH238229   0.759   0.711   6.246 -0.0301  0.2090 -0.3095
 5605TIP3    H138230   0.753   0.806   6.257 -0.8197  0.0446  0.8406
 5605TIP3    H238231   0.847   0.689   6.278  0.0007  0.5016 -0.1882
 5606TIP3   OH238232   1.219   3.648   6.395  0.2996 -0.2187  0.2950
 5606TIP3    H138233   1.248   3.729   6.354  0.1004  0.3083  1.1605
 5606TIP3    H238234   1.285   3.583   6.371  0.8623  0.3810  0.2106
 5607TIP3   OH238235   3.066   0.837  12.415  0.1881  0.0596 -0.5687
 5607TIP3    H138236   3.070   0.893  12.338  0.1399  0.5994 -0.1788
 5607TIP3    H238237   3.095   0.751  12.383  0.0892  0.2583 -1.2047
 5608TIP3   OH238238   3.760   1.041  13.689  0.2857  0.0172  0.0424
 5608TIP3    H138239   3.682   1.093  13.670  0.8048  0.5608 -0.6643
 5608TIP3    H238240   3.825   1.071  13.625  1.3653  0.2493  1.2025
 5609TIP3   OH238241   5.999   0.168  10.805 -0.3708 -0.6016 -0.0555
 5609TIP3    H138242   5.925   0.144  10.861 -0.1896 -3.2231 -0.8298
 5609TIP3    H238243   6.028   0.086  10.766  2.1176  0.5467 -0.8419
 5610TIP3   OH238244   1.539   0.032   2.481  0.1496  0.0195  0.0484
 5610TIP3    H138245   1.499  -0.040   2.529  0.4619 -0.3743 -0.2710
 5610TIP3    H238246   1.575   0.090   2.548  0.6340 -0.5537  0.2900
 5611TIP3   OH238247   2.175   3.873   3.153 -0.8300 -0.2573 -0.2952
 5611TIP3    H138248   2.195   3.782   3.131 -0.4343  0.3433 -2.7044
 5611TIP3    H238249   2.087   3.870   3.191 -1.2368 -1.5427 -1.2827
 5612TIP3   OH238250   2.889   0.079  15.194  0.7242  0.0325 -0.5032
 5612TIP3    H138251   2.981   0.090  15.169  1.1378 -0.4975  0.7162
 5612TIP3    H238252   2.873   0.149  15.257  0.6941 -0.6975  0.3105
 5613TIP3   OH238253   6.663   0.518   5.078  0.6617  0.3188  0.4864
 5613TIP3    H138254   6.619   0.440   5.045  0.6556  0.4921  0.0848
 5613TIP3    H238255   6.755   0.492   5.086  0.3231 -0.4416  2.5157
 5614TIP3   OH238256   1.178   0.186  11.240  0.0626  0.8229  0.2536
 5614TIP3    H138257   1.165   0.114  11.179  3.5278  0.9083 -0.7940
 5614TIP3    H238258   1.102   0.242  11.228 -2.2927 -2.1078  0.4472
 5615TIP3   OH238259   5.864   2.971   0.753 -0.4232  0.3144  0.7654
 5615TIP3    H138260   5.915   2.970   0.834 -0.2408  2.0236  0.7119
 5615TIP3    H238261   5.774   2.987   0.782 -0.6435 -0.7985  0.7302
 5616TIP3   OH238262   0.751   0.748   2.638 -0.3273 -0.5543 -0.3326
 5616TIP3    H138263   0.747   0.844   2.642  0.4189 -0.5440  0.9792
 5616TIP3    H238264   0.689   0.719   2.705  2.3649 -0.8484  2.2263
 5617TIP3   OH238265   0.039   6.531  10.785  0.3462  0.1858  0.2080
 5617TIP3    H138266   0.047   6.598  10.717  1.4106 -2.2408 -2.1880
 5617TIP3    H238267  -0.021   6.570  10.849 -1.0105  2.4611 -2.2631
 5618TIP3   OH238268   5.310   1.937  11.153  0.3673  0.0278 -0.9334
 5618TIP3    H138269   5.261   1.959  11.232 -0.4324 -2.3363 -0.6939
 5618TIP3    H238270   5.370   2.010  11.141 -0.6867  1.2582  0.8735
 5619TIP3   OH238271   4.741   1.954   1.743  0.2504  0.5990 -0.0142
 5619TIP3    H138272   4.713   2.035   1.701 -0.2807  1.5210  2.0115
 5619TIP3    H238273   4.836   1.961   1.746  0.2095  1.1447  0.1373
 5620TIP3   OH238274   0.829   2.806   5.744  0.1596 -0.3884  0.5700
 5620TIP3    H138275   0.741   2.779   5.719 -0.6226  2.1697  0.2815
 5620TIP3    H238276   0.880   2.726   5.741 -1.7623 -1.6554 -0.9804
 5621TIP3   OH238277   2.215   0.624  17.157  0.0449 -0.4350 -0.1934
 5621TIP3    H138278   2.185   0.573  17.082  1.5385 -3.9353  1.3640
 5621TIP3    H238279   2.141   0.625  17.217 -0.4698  0.6039 -0.8115
 5622TIP3   OH238280   5.362   4.047  17.246 -0.0430 -0.0217 -0.3772
 5622TIP3    H138281   5.383   4.131  17.205 -2.4230  0.3852 -0.9143
 5622TIP3    H238282   5.288   4.014  17.196  1.0517 -2.6710 -0.4178
 5623TIP3   OH238283   6.619   6.747  13.188 -0.2515  0.3692 -0.0396
 5623TIP3    H138284   6.557   6.815  13.215 -0.7014 -0.2614  0.5862
 5623TIP3    H238285   6.685   6.793  13.137 -1.3834  1.0326 -0.9653
 5624TIP3   OH238286   1.088   3.546   4.013  0.4057  0.0989  0.2608
 5624TIP3    H138287   1.105   3.638   4.035  2.6592 -0.4797  1.1537
 5624TIP3    H238288   1.170   3.514   3.975 -0.9195 -1.0923 -1.7731
 5625TIP3   OH238289   0.006   2.977  13.859  0.8434  0.7344 -0.4320
 5625TIP3    H138290  -0.060   2.921  13.818 -0.4518  1.9105 -0.0573
 5625TIP3    H238291   0.089   2.946  13.824  0.0409 -0.3780 -1.4463
 5626TIP3   OH238292   4.695   2.175  14.583  0.2954  1.0202 -0.5002
 5626TIP3    H138293   4.772   2.192  14.637  1.0297 -0.4033 -1.0484
 5626TIP3    H238294   4.625   2.226  14.624  0.8159  0.0011  1.8040
 5627TIP3   OH238295   6.352   0.269   6.739  0.3871  0.0592  0.8703
 5627TIP3    H138296   6.396   0.240   6.819  0.3368  0.0955  0.9110
 5627TIP3    H238297   6.345   0.364   6.748  1.0352  0.1497  0.4941
 5628TIP3   OH238298   2.716   6.067  12.923 -0.5289 -0.3160 -0.1362
 5628TIP3    H138299   2.788   6.074  12.860 -0.2565  0.2388  0.2263
 5628TIP3    H238300   2.724   6.146  12.977  0.6030 -1.7817  2.0292
 5629TIP3   OH238301   6.664   1.636   3.160 -0.5357  0.4656 -0.8000
 5629TIP3    H138302   6.663   1.546   3.192 -1.3655  0.8324  0.2645
 5629TIP3    H238303   6.749   1.671   3.187  0.5878 -0.5143 -2.8315
 5630TIP3   OH238304   2.191   3.316  12.068  0.2282 -0.2145  0.5966
 5630TIP3    H138305   2.186   3.267  12.151 -1.7902  0.6804  1.0797
 5630TIP3    H238306   2.249   3.389  12.087 -0.7683  0.3864  1.5046
 5631TIP3   OH238307   1.748   2.577   5.108 -0.7063  0.6944 -0.2390
 5631TIP3    H138308   1.682   2.508   5.110 -1.7702  1.7018  1.0699
 5631TIP3    H238309   1.827   2.537   5.144 -0.6815 -0.4092 -1.4563
 5632TIP3   OH238310   5.222   5.687  16.017  0.1073 -0.2570  0.1995
 5632TIP3    H138311   5.159   5.719  15.952  0.0285  0.7597  0.7583
 5632TIP3    H238312   5.168   5.642  16.082  0.2650 -2.0624 -0.8531
 5633TIP3   OH238313   2.408   3.672   0.885 -0.3034 -0.2709 -0.0722
 5633TIP3    H138314   2.440   3.636   0.802  1.4128  0.3970  0.2546
 5633TIP3    H238315   2.422   3.767   0.877 -0.0020 -0.2069  1.0110
 5634TIP3   OH238316   2.953   4.948   6.078 -0.4484 -0.2288 -0.1396
 5634TIP3    H138317   2.928   4.871   6.028  1.1389 -1.9293  1.5113
 5634TIP3    H238318   2.905   4.940   6.161  0.8706 -0.2864  0.6465
 5635TIP3   OH238319   0.821   2.811  16.875  0.6435 -0.5225 -0.6396
 5635TIP3    H138320   0.842   2.721  16.851  0.6886 -0.6095 -0.2841
 5635TIP3    H238321   0.835   2.861  16.795  0.3577 -0.8704 -0.9096
 5636TIP3   OH238322   5.050   2.043   0.443  0.1583  0.7283 -0.5091
 5636TIP3    H138323   5.121   2.042   0.379  0.0599 -0.1635 -0.6106
 5636TIP3    H238324   5.092   2.021   0.526 -0.1594 -0.8420 -0.7493
 5637TIP3   OH238325   2.894   5.772  13.107  0.7832 -0.3794 -0.3688
 5637TIP3    H138326   2.965   5.750  13.167  1.1787 -0.3144 -0.8030
 5637TIP3    H238327   2.916   5.725  13.026 -0.2747 -1.2886 -0.1503
 5638TIP3   OH238328   1.386   4.754  15.193 -0.1740 -0.0111 -0.5661
 5638TIP3    H138329   1.375   4.849  15.203  2.3536  0.2098  0.8589
 5638TIP3    H238330   1.405   4.742  15.100 -0.6151  0.8563 -0.7818
 5639TIP3   OH238331   0.460   0.983  12.162  0.0171  0.2470 -0.2207
 5639TIP3    H138332   0.554   0.996  12.176 -0.2258  0.8007  1.0563
 5639TIP3    H238333   0.421   1.068  12.184 -0.9409 -0.4826  1.0299
 5640TIP3   OH238334   3.176   3.434   6.183  0.2195  0.0309  0.2682
 5640TIP3    H138335   3.165   3.440   6.278 -0.7303  0.2763  0.1483
 5640TIP3    H238336   3.238   3.504   6.163 -0.2759  0.5780  0.6020
 5641TIP3   OH238337   1.357   0.019  13.982 -0.0172  0.4274 -0.2295
 5641TIP3    H138338   1.356   0.010  13.887 -0.3312  0.4900 -0.2332
 5641TIP3    H238339   1.432   0.076  14.000  0.4731 -0.1686 -0.3858
 5642TIP3   OH238340   2.315   6.731   2.628  0.1337  0.6979 -0.4778
 5642TIP3    H138341   2.405   6.759   2.612  0.7950  0.8705  2.8198
 5642TIP3    H238342   2.271   6.810   2.660  0.4673 -0.4670  3.3456
 5643TIP3   OH238343   3.428   4.627  16.018 -0.3404  0.9311 -0.5159
 5643TIP3    H138344   3.446   4.540  16.054 -1.9413  0.9824  0.5362
 5643TIP3    H238345   3.457   4.622  15.927  0.9032 -0.2347 -0.0875
 5644TIP3   OH238346   2.820   1.765  12.611 -0.5252  0.3731  0.0624
 5644TIP3    H138347   2.811   1.836  12.674 -0.5431  0.4700 -0.0478
 5644TIP3    H238348   2.865   1.806  12.536 -2.0237  0.7021 -0.6980
 5645TIP3   OH238349   1.347   0.059   5.563  0.1168 -0.5152  0.3443
 5645TIP3    H138350   1.253   0.075   5.562 -0.0531 -1.4085  0.7499
 5645TIP3    H238351   1.386   0.137   5.522 -0.7707  0.0056  0.4728
 5646TIP3   OH238352   6.301   4.093   0.706  0.0164  0.0055 -0.0294
 5646TIP3    H138353   6.388   4.072   0.671 -0.4091  1.2488 -1.9819
 5646TIP3    H238354   6.317   4.116   0.798  1.6626 -0.4036 -0.1867
 5647TIP3   OH238355   3.080   0.893  11.534  0.3668 -0.6118  0.1513
 5647TIP3    H138356   3.118   0.899  11.447 -0.6080  0.1999 -0.2437
 5647TIP3    H238357   3.114   0.811  11.570  0.9912 -0.8195 -0.8828
 5648TIP3   OH238358   3.090   5.930   5.706  0.3020 -0.1662  0.3835
 5648TIP3    H138359   3.031   5.875   5.653  0.1032 -0.7606  1.1943
 5648TIP3    H238360   3.095   6.012   5.658  1.4004 -1.1963 -1.4044
 5649TIP3   OH238361   3.073   2.457   5.270 -0.5901 -0.1089 -0.3284
 5649TIP3    H138362   3.133   2.531   5.258 -0.5027 -0.1641 -0.2288
 5649TIP3    H238363   2.991   2.497   5.298 -0.0666 -0.1751  1.3922
 5650TIP3   OH238364   2.254   1.484   5.942  0.8423  0.5132 -0.2734
 5650TIP3    H138365   2.315   1.415   5.913  0.9070  0.0997  0.8165
 5650TIP3    H238366   2.205   1.444   6.013 -1.6101  0.3916 -1.9016
 5651TIP3   OH238367   1.035   4.792   4.336  0.2577 -0.3102  0.6453
 5651TIP3    H138368   1.018   4.740   4.258  2.6357 -1.4202  0.7968
 5651TIP3    H238369   0.968   4.764   4.398  0.4204 -1.9297  0.1376
 5652TIP3   OH238370   0.448   4.011   4.173 -0.4688  0.1388 -0.4420
 5652TIP3    H138371   0.496   3.983   4.095 -0.6868 -0.4322 -0.3752
 5652TIP3    H238372   0.515   4.043   4.233 -0.1749 -0.6089 -0.3672
 5653TIP3   OH238373   0.990   2.360   2.593  0.3258  0.2703 -0.4947
 5653TIP3    H138374   1.041   2.428   2.637  2.3068 -0.1478 -2.0343
 5653TIP3    H238375   1.022   2.359   2.503 -0.6119 -1.7595 -0.8803
 5654TIP3   OH238376   0.666   6.160   2.693  0.1945  0.0724 -0.4541
 5654TIP3    H138377   0.643   6.197   2.778  0.6555 -0.4953 -0.0794
 5654TIP3    H238378   0.748   6.202   2.669  0.6804 -0.6470 -0.0625
 5655TIP3   OH238379   3.064   4.338   4.628 -0.0845 -0.3845  0.4197
 5655TIP3    H138380   3.124   4.264   4.620 -0.1055 -0.3920  0.3339
 5655TIP3    H238381   3.105   4.395   4.693  0.6775  0.2512 -0.5845
 5656TIP3   OH238382   1.768   3.684  12.440  0.0744 -1.0063 -0.1923
 5656TIP3    H138383   1.704   3.613  12.443 -0.9575 -0.1838 -1.4149
 5656TIP3    H238384   1.787   3.695  12.347 -0.0592  0.5575 -0.0531
 5657TIP3   OH238385   0.656   3.931   2.901  0.2095  0.2189  0.1155
 5657TIP3    H138386   0.565   3.901   2.903  0.1080  0.5605  2.6265
 5657TIP3    H238387   0.701   3.876   2.964  1.2818  1.4862  0.4827
 5658TIP3   OH238388   3.352   3.100   6.222  0.5715  0.2778 -0.8948
 5658TIP3    H138389   3.342   3.034   6.290 -0.2994  1.7619  0.4784
 5658TIP3    H238390   3.263   3.121   6.196  0.8713  0.3642 -1.8903
 5659TIP3   OH238391   4.448   4.586   1.686  0.5265 -0.0609 -0.4928
 5659TIP3    H138392   4.495   4.521   1.738 -0.0770  0.1289  0.3021
 5659TIP3    H238393   4.355   4.564   1.699  0.3592 -0.2039 -1.7415
 5660TIP3   OH238394   4.413   0.039   0.708  1.0160  0.1435  0.5143
 5660TIP3    H138395   4.399  -0.053   0.730  1.9995  0.1370  1.1676
 5660TIP3    H238396   4.450   0.038   0.620 -0.7886  0.0428 -0.2903
 5661TIP3   OH238397   2.950   1.140   2.568 -0.0671 -0.0424  0.0126
 5661TIP3    H138398   3.035   1.158   2.528  0.3379 -0.1183  0.8210
 5661TIP3    H238399   2.904   1.086   2.503  0.0808  0.8701 -0.8778
 5662TIP3   OH238400   0.722   1.882   1.280 -0.0921  0.3938 -0.6254
 5662TIP3    H138401   0.662   1.821   1.239  0.0907 -0.0106 -0.2974
 5662TIP3    H238402   0.770   1.830   1.345  2.2628  0.1334 -2.4316
 5663TIP3   OH238403   3.836   1.524  13.050 -0.1302 -0.4920 -0.2049
 5663TIP3    H138404   3.901   1.567  12.996 -0.8850  3.2064  1.5302
 5663TIP3    H238405   3.782   1.475  12.988  1.7545 -0.2637 -2.1452
 5664TIP3   OH238406   6.416   2.717  11.577  0.2090 -0.3227 -0.1951
 5664TIP3    H138407   6.462   2.801  11.582 -1.5889  0.8253 -1.7469
 5664TIP3    H238408   6.443   2.671  11.657 -0.2342  2.5071  1.7480
 5665TIP3   OH238409   3.041   4.003  11.558 -0.9571  0.1270 -0.0405
 5665TIP3    H138410   3.085   3.948  11.493 -0.6821 -0.0858  0.3160
 5665TIP3    H238411   2.981   4.057  11.508 -1.1585 -0.4309 -0.4114
 5666TIP3   OH238412   5.478   5.904   5.502 -0.5136 -0.2846 -0.4118
 5666TIP3    H138413   5.486   5.809   5.513 -1.1566 -0.5934 -2.3406
 5666TIP3    H238414   5.470   5.938   5.592  0.5468 -1.9461  0.3645
 5667TIP3   OH238415   1.071   1.435  14.878 -0.8973 -0.1677  0.1734
 5667TIP3    H138416   0.984   1.460  14.909 -0.7512 -1.1351  1.4433
 5667TIP3    H238417   1.116   1.404  14.956  0.4372 -0.1347 -0.5523
 5668TIP3   OH238418   2.284   3.410  12.390  0.2408  0.8167 -0.6517
 5668TIP3    H138419   2.193   3.381  12.403  0.1294  1.0176 -0.9615
 5668TIP3    H238420   2.334   3.328  12.387  0.2275  0.7462  0.6137
 5669TIP3   OH238421   2.936   4.728  15.800  0.2531 -0.6306  0.3757
 5669TIP3    H138422   3.004   4.790  15.826 -0.3720 -0.5956  2.0702
 5669TIP3    H238423   2.886   4.773  15.732 -0.2246  0.7726  1.6206
 5670TIP3   OH238424   6.288   0.715   1.795  0.5268  0.0462 -0.3066
 5670TIP3    H138425   6.219   0.672   1.846  1.1404 -1.1917 -0.4857
 5670TIP3    H238426   6.361   0.724   1.856  0.2108  1.4229 -0.0954
 5671TIP3   OH238427   0.984   2.224  13.601  0.1151 -0.2750  0.0285
 5671TIP3    H138428   1.059   2.166  13.588 -0.0128 -0.5794  0.6010
 5671TIP3    H238429   0.991   2.253  13.692  1.0350  1.8601 -0.6734
 5672TIP3   OH238430   4.033   4.148  14.295 -0.4691 -0.0646 -0.0519
 5672TIP3    H138431   3.943   4.133  14.321 -0.9355  0.6764 -1.1860
 5672TIP3    H238432   4.066   4.061  14.271 -0.0560 -0.7503  2.7457
 5673TIP3   OH238433   0.733   2.977  15.460  0.6515 -0.0054  0.1621
 5673TIP3    H138434   0.769   3.006  15.544 -0.2076  1.5383  0.0252
 5673TIP3    H238435   0.796   3.007  15.395  0.6293  0.0050  0.1455
 5674TIP3   OH238436   1.366   4.207   4.153 -0.1609  0.2047 -0.2436
 5674TIP3    H138437   1.345   4.299   4.144  3.9212  1.2939 -0.7106
 5674TIP3    H238438   1.320   4.164   4.081 -0.9963  2.0746 -0.8775
 5675TIP3   OH238439   2.552   6.431  12.144 -0.4519  0.2097  0.5190
 5675TIP3    H138440   2.494   6.420  12.219 -0.9655  0.0025  0.0976
 5675TIP3    H238441   2.629   6.378  12.165 -1.6023 -1.8151 -0.1386
 5676TIP3   OH238442   1.594   2.510  15.902  1.0205 -0.3798 -0.8842
 5676TIP3    H138443   1.524   2.573  15.923  1.6915  0.4327 -1.0338
 5676TIP3    H238444   1.612   2.524  15.809  2.1841  0.2564 -0.5828
 5677TIP3   OH238445   0.073   6.152   3.548  0.2125  0.3106  0.1456
 5677TIP3    H138446   0.083   6.158   3.643 -1.0258  0.2494  0.2871
 5677TIP3    H238447   0.075   6.244   3.519  0.9498  0.3137  0.1769
 5678TIP3   OH238448   2.187   1.214   1.949 -0.0317  0.0570 -0.4336
 5678TIP3    H138449   2.257   1.151   1.930  0.2527  0.0134  0.6967
 5678TIP3    H238450   2.231   1.284   1.998 -0.9044 -0.3469  0.9749
 5679TIP3   OH238451   2.446   5.472  13.223 -0.6333  0.4542 -0.0536
 5679TIP3    H138452   2.352   5.456  13.217 -0.4056 -0.8788 -0.2742
 5679TIP3    H238453   2.452   5.565  13.246 -2.0682  0.0954  2.1624
 5680TIP3   OH238454   6.264   5.841   1.959  0.7268 -0.2957  1.0250
 5680TIP3    H138455   6.245   5.904   1.890  0.0872 -0.1558  1.3194
 5680TIP3    H238456   6.179   5.803   1.981  1.1433 -1.5298  0.6037
 5681TIP3   OH238457   0.729   5.094  11.011  0.0797 -0.3560 -0.8626
 5681TIP3    H138458   0.794   5.028  11.037  0.0578 -0.4541 -1.0503
 5681TIP3    H238459   0.682   5.053  10.939  0.2369 -0.0303 -1.1518
 5682TIP3   OH238460   0.069   6.342  15.382 -0.9751  0.8001 -0.1500
 5682TIP3    H138461   0.143   6.291  15.348 -0.8907  1.1357 -0.4684
 5682TIP3    H238462  -0.007   6.284  15.369 -0.5239 -0.4196  2.0713
 5683TIP3   OH238463   0.330   3.110   1.963 -0.2781  0.3146  0.1308
 5683TIP3    H138464   0.394   3.180   1.953 -0.2842  0.1732 -1.0401
 5683TIP3    H238465   0.285   3.107   1.879  0.5252 -1.8828 -0.2720
 5684TIP3   OH238466   2.893   0.185   3.251 -0.5731 -0.1726  0.2758
 5684TIP3    H138467   2.838   0.137   3.313 -1.3971  0.3140 -0.0744
 5684TIP3    H238468   2.981   0.150   3.266 -1.0334 -1.2477  0.5605
 5685TIP3   OH238469   0.775   0.119  11.076  0.2753  0.2407  0.1377
 5685TIP3    H138470   0.735   0.043  11.118  0.6065 -0.2506 -0.4357
 5685TIP3    H238471   0.714   0.142  11.006 -0.2317  1.0063  0.8023
 5686TIP3   OH238472   4.062   2.393   1.345 -0.5213  0.1630 -0.4939
 5686TIP3    H138473   4.049   2.442   1.264 -0.6352  0.2491 -0.4246
 5686TIP3    H238474   3.975   2.393   1.387 -0.7901 -1.0360 -1.0151
 5687TIP3   OH238475   4.603   3.075  13.938  0.1893  0.0363 -0.5515
 5687TIP3    H138476   4.631   3.115  14.020  1.8053  1.2681 -1.6411
 5687TIP3    H238477   4.509   3.094  13.933  0.2728  0.8095  0.5161
 5688TIP3   OH238478   6.431   3.347   1.114  0.1116 -0.3348  0.1491
 5688TIP3    H138479   6.452   3.331   1.206 -4.3404 -1.5374  1.1805
 5688TIP3    H238480   6.368   3.419   1.116  1.2394  0.8581 -2.2549
 5689TIP3   OH238481   3.556   1.232   5.384  0.2962  0.0971 -0.2946
 5689TIP3    H138482   3.555   1.327   5.387 -0.1418  0.1158 -0.9250
 5689TIP3    H238483   3.611   1.206   5.458 -0.2624  0.8205  0.3980
 5690TIP3   OH238484   4.539   1.690   2.835  0.4282 -0.4582 -0.0296
 5690TIP3    H138485   4.484   1.768   2.833  0.4192 -0.4463  0.5559
 5690TIP3    H238486   4.572   1.686   2.925 -2.7102 -3.3222  1.1708
 5691TIP3   OH238487   0.027   6.443   6.068  0.5096 -0.1313 -0.2985
 5691TIP3    H138488   0.055   6.386   6.139 -0.6001  1.2312  1.3015
 5691TIP3    H238489   0.020   6.384   5.992  1.7429 -1.6168  0.6775
 5692TIP3   OH238490   1.516   3.636   4.291 -0.2006 -0.0604 -0.0098
 5692TIP3    H138491   1.564   3.556   4.312  1.5714  0.9395 -0.0145
 5692TIP3    H238492   1.517   3.641   4.196 -1.2408 -0.5639 -0.0498
 5693TIP3   OH238493   1.492   0.255   1.932 -0.5700 -0.5743  0.6951
 5693TIP3    H138494   1.573   0.300   1.909 -1.0253  0.1694  0.4955
 5693TIP3    H238495   1.481   0.188   1.864 -0.9766  0.4297 -0.2711
 5694TIP3   OH238496   5.636   2.063  16.056  0.5908 -0.4635  0.3956
 5694TIP3    H138497   5.589   2.020  15.984  1.8725 -2.0576  0.4733
 5694TIP3    H238498   5.620   2.157  16.042 -2.7413 -0.8628  0.5178
 5695TIP3   OH238499   3.033   6.241   4.161 -0.7110  0.1272 -0.7167
 5695TIP3    H138500   3.123   6.234   4.131 -0.0652  0.3706  1.0741
 5695TIP3    H238501   2.990   6.162   4.125 -0.0192  0.3860 -2.1976
 5696TIP3   OH238502   1.580   2.665   5.341  0.2883 -0.2005  0.0259
 5696TIP3    H138503   1.489   2.636   5.341 -0.2395  1.2954  1.8696
 5696TIP3    H238504   1.631   2.583   5.342 -0.9497 -1.0752 -2.1817
 5697TIP3   OH238505   3.132   2.327   5.033  0.1233  0.5855 -0.1684
 5697TIP3    H138506   3.222   2.308   5.008  0.0800 -0.3326  0.3177
 5697TIP3    H238507   3.140   2.389   5.105  0.3058  1.7009 -1.1242
 5698TIP3   OH238508   2.166   1.124   5.465 -0.1090  0.1724 -0.5612
 5698TIP3    H138509   2.158   1.029   5.456 -0.7816  0.1294  0.3536
 5698TIP3    H238510   2.098   1.148   5.528  0.7257  1.1341 -0.0090
 5699TIP3   OH238511   1.276   2.717  13.067 -0.1309 -0.0376  0.0589
 5699TIP3    H138512   1.253   2.714  13.160 -1.2666  0.4534 -0.1928
 5699TIP3    H238513   1.337   2.643  13.055 -1.3695 -1.2342  0.8250
 5700TIP3   OH238514   6.587   4.797   1.321  0.1622 -0.5075 -0.0603
 5700TIP3    H138515   6.506   4.750   1.339  0.5519 -0.2579  2.7149
 5700TIP3    H238516   6.558   4.880   1.284 -0.8620 -0.4351  0.8505
 5701TIP3   OH238517   1.892   0.455  13.242  0.2160  0.9051 -0.0423
 5701TIP3    H138518   1.890   0.530  13.182  1.3443  2.2002  1.4351
 5701TIP3    H238519   1.969   0.405  13.215 -0.5017  0.3002 -0.9940
 5702TIP3   OH238520   3.661   3.135   4.112  0.1206  0.3141 -0.0728
 5702TIP3    H138521   3.700   3.050   4.090 -0.6452 -0.0634 -0.0100
 5702TIP3    H238522   3.637   3.127   4.205  2.2449  1.4745  0.6582
 5703TIP3   OH238523   1.784   5.851  16.051 -0.6013  0.0456 -0.1536
 5703TIP3    H138524   1.689   5.852  16.057 -0.6497 -0.2720 -0.8573
 5703TIP3    H238525   1.805   5.771  16.002 -0.0676  0.9897 -1.5162
 5704TIP3   OH238526   0.548   6.169  16.654  0.3999  0.4337 -0.0001
 5704TIP3    H138527   0.458   6.137  16.647  0.3065  0.3916  1.2016
 5704TIP3    H238528   0.538   6.263  16.667  0.4945  0.3509  0.7149
 5705TIP3   OH238529   2.456   4.963  15.373  0.7080  0.1134 -0.0951
 5705TIP3    H138530   2.385   5.018  15.339  0.1222 -1.0617 -0.8071
 5705TIP3    H238531   2.531   5.023  15.378 -0.1169  1.1848 -0.0670
 5706TIP3   OH238532   3.616   1.705  12.830  0.7192  0.5231  0.2283
 5706TIP3    H138533   3.589   1.792  12.861 -1.1153  0.2461 -0.4854
 5706TIP3    H238534   3.575   1.697  12.744  1.8222 -0.6064 -0.2050
 5707TIP3   OH238535   0.017   1.240  15.814 -0.0708  0.3094 -0.1305
 5707TIP3    H138536   0.064   1.319  15.787 -0.0177  0.8505  1.4571
 5707TIP3    H238537  -0.075   1.260  15.796  0.1492 -0.4289 -2.4478
 5708TIP3   OH238538   5.901   2.353  14.473  0.3479  0.2626  0.5041
 5708TIP3    H138539   5.913   2.269  14.518  1.4337 -0.5679 -1.1936
 5708TIP3    H238540   5.980   2.363  14.420 -0.7546  1.2420 -1.0555
 5709TIP3   OH238541   3.557   6.247   4.889  0.0333  0.6960 -0.7277
 5709TIP3    H138542   3.609   6.299   4.951 -0.9009  0.1135  0.5789
 5709TIP3    H238543   3.546   6.162   4.931  0.7108 -0.2736 -2.4118
 5710TIP3   OH238544   6.307   1.184   0.898  0.1047  0.1008 -0.2283
 5710TIP3    H138545   6.380   1.232   0.860  0.1758  0.8507  0.8124
 5710TIP3    H238546   6.245   1.171   0.826  0.8423  0.2777 -0.8959
 5711TIP3   OH238547   1.507   3.019  11.944  0.1522  0.1497 -0.5314
 5711TIP3    H138548   1.577   2.988  12.002  1.7907  1.0066 -1.9583
 5711TIP3    H238549   1.436   2.955  11.955  1.3603 -1.0590  0.5473
 5712TIP3   OH238550   3.051   6.588  12.679 -0.0712 -0.2022  0.0910
 5712TIP3    H138551   3.019   6.665  12.632 -1.1618 -1.1027 -0.6693
 5712TIP3    H238552   2.972   6.539  12.701  0.7076 -2.6101 -2.0381
 5713TIP3   OH238553   1.158   4.786  15.327  0.5739 -0.2518 -0.7219
 5713TIP3    H138554   1.235   4.755  15.279  0.5532  2.1713 -2.4929
 5713TIP3    H238555   1.101   4.709  15.333  2.0361 -1.4646 -1.6139
 5714TIP3   OH238556   4.666   4.954  16.202 -0.1244 -0.6783  0.3200
 5714TIP3    H138557   4.747   4.928  16.246  1.1077 -0.4434 -1.7183
 5714TIP3    H238558   4.634   4.873  16.162 -0.2866 -0.5385  0.1679
 5715TIP3   OH238559   4.044   1.768   4.449  0.2873 -0.2375 -0.4357
 5715TIP3    H138560   4.011   1.683   4.477 -0.3317 -0.4367 -1.7369
 5715TIP3    H238561   4.131   1.749   4.414  0.5042 -0.1907  0.0634
 5716TIP3   OH238562   1.469   1.941   6.014 -0.3225  0.0058  0.1726
 5716TIP3    H138563   1.536   2.007   5.995  0.8235 -1.3485 -0.7016
 5716TIP3    H238564   1.431   1.969   6.098  1.1679  0.9435  0.5739
 5717TIP3   OH238565   0.653   2.999  10.915  0.4535  0.0486  0.4283
 5717TIP3    H138566   0.748   2.992  10.908  0.3448 -0.1656 -1.2494
 5717TIP3    H238567   0.631   3.077  10.865 -0.4052 -1.0723 -1.0347
 5718TIP3   OH238568   1.790   1.097  10.763  0.1705 -0.1639 -0.2461
 5718TIP3    H138569   1.770   1.029  10.699  0.7548 -0.0679 -0.5383
 5718TIP3    H238570   1.858   1.150  10.722 -0.8833  1.1314 -0.3823
 5719TIP3   OH238571   2.272   6.282   3.332  0.3431 -0.1066 -0.3918
 5719TIP3    H138572   2.231   6.234   3.403  0.6836  2.1820  1.4844
 5719TIP3    H238573   2.206   6.285   3.263 -0.3699 -1.5294  0.1980
 5720TIP3   OH238574   1.760   3.698   2.290  0.5533  0.0798 -0.2187
 5720TIP3    H138575   1.787   3.642   2.217 -1.8499  1.3423 -2.2238
 5720TIP3    H238576   1.827   3.766   2.293  0.1365  0.6310 -2.0495
 5721TIP3   OH238577   4.241   0.535   3.117 -0.0080 -0.5122 -0.4791
 5721TIP3    H138578   4.178   0.565   3.051 -0.1019  0.1342 -0.1056
 5721TIP3    H238579   4.313   0.597   3.110 -0.0303 -0.4295  0.0377
 5722TIP3   OH238580   3.406   5.373   2.469 -0.4749 -0.4871  0.3416
 5722TIP3    H138581   3.467   5.361   2.397 -0.3689  0.3044  0.2913
 5722TIP3    H238582   3.457   5.351   2.548 -0.5181 -1.1048  0.2012
 5723TIP3   OH238583   6.137   5.879  13.168 -0.0396 -0.4660  0.1385
 5723TIP3    H138584   6.107   5.828  13.092  1.1500 -0.4836 -0.3345
 5723TIP3    H238585   6.190   5.949  13.131 -2.2879  1.7027  0.7034
 5724TIP3   OH238586   6.093   5.941  16.238  0.2564 -0.4192  0.2633
 5724TIP3    H138587   6.148   5.921  16.313  0.6096  1.9304  0.7038
 5724TIP3    H238588   6.017   5.987  16.275 -0.4625 -0.8347 -0.6475
 5725TIP3   OH238589   4.748   4.859  13.633 -0.1825 -0.2047 -0.5855
 5725TIP3    H138590   4.720   4.781  13.586 -0.2901 -0.9907  0.7414
 5725TIP3    H238591   4.676   4.879  13.693  1.1562 -1.0684  1.4417
 5726TIP3   OH238592   4.202   4.554  12.727 -0.7385 -0.6888 -0.7675
 5726TIP3    H138593   4.205   4.533  12.820 -1.2147 -0.8431 -0.7815
 5726TIP3    H238594   4.124   4.508  12.695 -1.2226  0.2728 -1.0084
 5727TIP3   OH238595   4.587   6.101   0.829  0.3937 -0.1794  0.3043
 5727TIP3    H138596   4.664   6.106   0.772 -0.7663  1.4782 -1.2012
 5727TIP3    H238597   4.577   6.007   0.847  0.9543 -0.7592 -2.0525
 5728TIP3   OH238598   2.144   4.676   2.301 -0.3669 -0.2957  0.0479
 5728TIP3    H138599   2.060   4.643   2.334 -0.3913  0.2490  0.5662
 5728TIP3    H238600   2.173   4.611   2.239 -0.7632 -0.9206  0.5050
 5729TIP3   OH238601   0.750   0.693   4.829 -0.5016 -0.5120 -0.1976
 5729TIP3    H138602   0.676   0.632   4.832 -0.5331 -0.4553  0.6691
 5729TIP3    H238603   0.813   0.656   4.891  0.4305 -0.8440 -1.3132
 5730TIP3   OH238604   0.691   5.643   4.532  0.0856 -0.8377  0.2554
 5730TIP3    H138605   0.752   5.600   4.473  0.5044 -0.7678  0.6300
 5730TIP3    H238606   0.627   5.685   4.474 -0.1498 -1.6900 -0.1163
 5731TIP3   OH238607   2.711   4.965   0.114  0.5566 -0.4310 -0.0078
 5731TIP3    H138608   2.662   4.887   0.142  2.2125 -1.7171 -0.5185
 5731TIP3    H238609   2.707   5.024   0.190 -2.2474 -0.1866 -0.2561
 5732TIP3   OH238610   0.453   5.563  15.574  0.0422 -0.2763  0.1418
 5732TIP3    H138611   0.445   5.658  15.579  2.0219 -0.0110 -0.6883
 5732TIP3    H238612   0.429   5.541  15.484 -0.8289 -0.6341  0.4506
 5733TIP3   OH238613   1.119   4.015   2.560  0.6725  0.2565 -0.3317
 5733TIP3    H138614   1.105   4.103   2.596 -2.1532 -0.6850  1.1556
 5733TIP3    H238615   1.040   3.996   2.509  1.2439 -1.3985 -0.6689
 5734TIP3   OH238616   0.527   0.033   3.566  0.4277  0.1430 -0.0036
 5734TIP3    H138617   0.548  -0.037   3.504 -0.4086 -0.7790  0.7306
 5734TIP3    H238618   0.593   0.101   3.548  0.3159 -0.1594 -1.7796
 5735TIP3   OH238619   4.262   5.200   4.405  0.1852  0.2800 -0.5346
 5735TIP3    H138620   4.182   5.148   4.418 -1.5805  2.8117 -0.6363
 5735TIP3    H238621   4.262   5.221   4.312 -0.8143  2.8572 -0.0406
 5736TIP3   OH238622   4.702   0.714   0.796 -0.0666  0.0661 -0.7328
 5736TIP3    H138623   4.648   0.776   0.845  1.6154  1.8516 -1.0036
 5736TIP3    H238624   4.699   0.746   0.706  0.7508 -0.3045 -0.8947
 5737TIP3   OH238625   6.131   5.710  13.378  0.1889 -0.6932 -0.2592
 5737TIP3    H138626   6.052   5.707  13.432  0.4017 -1.5838  0.0239
 5737TIP3    H238627   6.114   5.779  13.314 -0.7921 -0.8371 -0.1705
 5738TIP3   OH238628   1.699   5.578  13.187 -0.3039 -0.0976 -0.4293
 5738TIP3    H138629   1.762   5.524  13.235 -0.6913  0.0303  0.2409
 5738TIP3    H238630   1.656   5.630  13.254 -1.8194 -0.9008 -0.7286
 5739TIP3   OH238631   2.856   3.055   1.393 -0.4948 -0.1109  0.5797
 5739TIP3    H138632   2.946   3.046   1.362 -0.6563  0.4475 -0.0973
 5739TIP3    H238633   2.815   3.113   1.328 -1.2869 -0.2128  0.9833
 5740TIP3   OH238634   4.018   2.589  13.942  0.0557 -0.0773 -0.6464
 5740TIP3    H138635   3.969   2.525  13.993 -0.1789  0.6440  0.0627
 5740TIP3    H238636   4.109   2.571  13.961 -0.0409  0.3610  0.2598
 5741TIP3   OH238637   2.131   4.063   6.735 -0.5018 -0.6915 -0.4123
 5741TIP3    H138638   2.127   4.081   6.641 -1.8768  0.4710 -0.1634
 5741TIP3    H238639   2.191   4.129   6.769  0.6190 -1.6033 -0.5463
 5742TIP3   OH238640   3.818   4.760  11.998 -0.4120  0.8724  0.3568
 5742TIP3    H138641   3.907   4.775  11.965 -0.4997  0.3570 -0.1288
 5742TIP3    H238642   3.761   4.793  11.928 -0.5983  0.4111  0.2884
 5743TIP3   OH238643   3.162   4.057  12.147 -0.2452 -0.0496 -0.7238
 5743TIP3    H138644   3.228   3.998  12.113 -1.3259  0.2597 -3.6854
 5743TIP3    H238645   3.125   4.011  12.222  2.6333 -0.6025  0.4701
 5744TIP3   OH238646   3.832   0.496   3.023  0.3044 -0.0002 -0.3446
 5744TIP3    H138647   3.833   0.402   3.038  2.8227  0.0414  0.1013
 5744TIP3    H238648   3.818   0.505   2.928  0.4023 -0.8414 -0.4422
 5745TIP3   OH238649   2.991   3.838  14.137 -0.4273 -0.2402  0.5568
 5745TIP3    H138650   3.080   3.814  14.111 -0.7295 -2.4094  1.3028
 5745TIP3    H238651   2.981   3.928  14.106  1.1654 -0.7367 -1.7126
 5746TIP3   OH238652   4.693   4.013   4.124  0.2243 -0.3063  0.3061
 5746TIP3    H138653   4.765   3.979   4.071  2.0749 -1.0419  3.0635
 5746TIP3    H238654   4.650   4.078   4.069  1.9044 -1.1055 -2.0750
 5747TIP3   OH238655   6.393   0.559   0.272 -0.9069  0.2516 -0.3265
 5747TIP3    H138656   6.454   0.610   0.325 -1.3018  1.6967 -1.2073
 5747TIP3    H238657   6.437   0.550   0.188 -1.1204 -0.3374 -0.3783
 5748TIP3   OH238658   4.097   5.217  11.495 -0.4570  0.7576 -0.1227
 5748TIP3    H138659   4.066   5.200  11.406 -0.9119  2.2235 -0.2571
 5748TIP3    H238660   4.068   5.140  11.545  1.0589 -0.7914 -1.4964
 5749TIP3   OH238661   6.133   4.350  15.963 -0.1119  0.2965 -0.0070
 5749TIP3    H138662   6.219   4.392  15.974 -0.3084  0.3120  1.7460
 5749TIP3    H238663   6.080   4.386  16.033 -0.6498 -2.0034  0.8522
 5750TIP3   OH238664   5.088   0.872   4.008  0.0610  0.1226  0.9434
 5750TIP3    H138665   5.020   0.934   3.985  1.3158  1.2158  0.0527
 5750TIP3    H238666   5.057   0.832   4.090 -0.3592  2.6180  2.0907
 5751TIP3   OH238667   0.979   3.658  14.456  0.1698 -0.1055  0.5770
 5751TIP3    H138668   0.919   3.655  14.530  0.1585 -1.0379  0.5360
 5751TIP3    H238669   0.963   3.577  14.409 -0.0709  0.6300 -0.6542
 5752TIP3   OH238670   3.861   2.689  15.206 -0.0370 -0.7125 -0.0597
 5752TIP3    H138671   3.878   2.682  15.112  0.0412 -0.5035 -0.0619
 5752TIP3    H238672   3.811   2.770  15.216  0.3207 -0.5124  0.1271
 5753TIP3   OH238673   3.840   3.135   3.638  0.5289  0.3789  0.2479
 5753TIP3    H138674   3.913   3.197   3.630 -1.3274  2.8922  1.4056
 5753TIP3    H238675   3.806   3.150   3.726 -0.9835 -1.2272 -0.0101
 5754TIP3   OH238676   1.546   4.771   4.333  0.2033  0.6181  0.2504
 5754TIP3    H138677   1.533   4.683   4.299 -0.4386 -0.5949  3.2855
 5754TIP3    H238678   1.462   4.815   4.318 -0.6849 -0.4787  1.7432
 5755TIP3   OH238679   1.638   5.626  16.724  0.0323  0.2406 -0.0069
 5755TIP3    H138680   1.694   5.667  16.657  0.9848 -1.2608 -0.1815
 5755TIP3    H238681   1.572   5.692  16.743  0.2155  1.0328 -1.8368
 5756TIP3   OH238682   1.136   5.578  12.542  0.1670  0.3035 -0.1959
 5756TIP3    H138683   1.212   5.618  12.585  0.0509  0.5416 -0.2110
 5756TIP3    H238684   1.121   5.497  12.592 -1.3198  1.6353  1.6473
 5757TIP3   OH238685   4.451   4.804  11.928  0.3162  0.1869 -0.1741
 5757TIP3    H138686   4.425   4.871  11.991  1.6137  1.3729 -0.8406
 5757TIP3    H238687   4.546   4.798  11.938  0.3571 -0.6787 -0.9754
 5758TIP3   OH238688   1.603   3.472  13.438  0.0275 -0.3711  0.2151
 5758TIP3    H138689   1.632   3.522  13.514 -0.4764 -0.0531  0.2024
 5758TIP3    H238690   1.509   3.488  13.433 -0.1502 -1.3621  0.2392
 5759TIP3   OH238691   1.665   0.182  12.999  0.0773 -0.2265  0.2864
 5759TIP3    H138692   1.604   0.219  13.063 -1.7435 -2.0295 -0.3127
 5759TIP3    H238693   1.626   0.098  12.975  1.7403 -0.4878 -1.7165
 5760TIP3   OH238694   5.370   5.634   6.772 -0.5768 -0.2430  0.2338
 5760TIP3    H138695   5.322   5.552   6.762  0.9389 -0.9418 -1.7388
 5760TIP3    H238696   5.459   5.607   6.792  0.0598  0.8870 -0.9580
 5761TIP3   OH238697   2.241   3.714  12.695 -0.4354 -0.6287  1.2840
 5761TIP3    H138698   2.311   3.649  12.689 -0.6696 -1.0259  2.5759
 5761TIP3    H238699   2.163   3.668  12.662  0.1577  0.3259 -1.7625
 5762TIP3   OH238700   6.761   4.716   1.096  0.1209 -0.4101 -0.4769
 5762TIP3    H138701   6.722   4.728   1.182 -0.8623 -2.9191 -0.4911
 5762TIP3    H238702   6.695   4.747   1.034 -0.0750 -0.6570 -0.3890
 5763TIP3   OH238703   5.388   1.074   1.045  0.3761  0.2381 -0.5635
 5763TIP3    H138704   5.321   1.012   1.018 -0.6811  1.1372 -0.0752
 5763TIP3    H238705   5.354   1.113   1.125  0.9112  1.5843 -0.9577
 5764TIP3   OH238706   2.356   0.854  15.878 -0.2218 -0.4273  0.0608
 5764TIP3    H138707   2.419   0.883  15.944  0.9760 -0.3890 -1.0431
 5764TIP3    H238708   2.404   0.861  15.795 -1.6345 -0.5901 -0.8000
 5765TIP3   OH238709   6.642   6.094  16.089  0.2920  0.0127  0.1192
 5765TIP3    H138710   6.549   6.107  16.073  0.5594  2.4021  0.0803
 5765TIP3    H238711   6.685   6.154  16.027  1.7429  0.7905  1.7979
 5766TIP3   OH238712   2.766   6.035   1.080 -0.2432  0.2397 -0.4358
 5766TIP3    H138713   2.853   6.072   1.069  1.0674 -2.3508  0.4381
 5766TIP3    H238714   2.741   6.006   0.992 -0.7596  1.9502 -0.8921
 5767TIP3   OH238715   4.124   5.819   3.758  0.2146 -0.1396 -0.0049
 5767TIP3    H138716   4.092   5.806   3.847 -1.0750  0.8042 -0.2972
 5767TIP3    H238717   4.194   5.755   3.748 -0.0628 -0.7114  1.4548
 5768TIP3   OH238718   4.387   4.383   4.269 -0.9538 -0.3569 -0.3919
 5768TIP3    H138719   4.471   4.407   4.308 -1.7253 -0.8630  1.7035
 5768TIP3    H238720   4.350   4.465   4.236 -0.1143  0.0219 -0.3968
 5769TIP3   OH238721   4.222   2.108   2.587  0.7805  0.4041  0.6677
 5769TIP3    H138722   4.183   2.195   2.587 -2.2199 -0.7681 -1.4306
 5769TIP3    H238723   4.245   2.092   2.496  0.5231 -1.2680  0.8600
 5770TIP3   OH238724   4.807   5.099   4.790 -0.2791 -0.3776 -0.6337
 5770TIP3    H138725   4.765   5.091   4.704 -2.1968  0.7079  0.1451
 5770TIP3    H238726   4.812   5.009   4.822 -2.4753 -0.5374 -0.5916
 5771TIP3   OH238727   2.588   5.682  16.182 -0.3065 -0.4318 -0.2132
 5771TIP3    H138728   2.598   5.630  16.103 -1.9121 -0.5416 -0.3747
 5771TIP3    H238729   2.494   5.685  16.198 -0.1028  0.5750  1.0370
 5772TIP3   OH238730   4.212   6.429  10.748 -0.4946 -0.3863  0.2494
 5772TIP3    H138731   4.253   6.448  10.663 -1.5615 -0.9510 -0.4036
 5772TIP3    H238732   4.285   6.429  10.810  0.2558  0.3895 -0.6033
 5773TIP3   OH238733   0.082   0.997   1.240  0.0638  0.1708  0.5079
 5773TIP3    H138734   0.151   0.982   1.175  0.6934 -2.1923  1.6369
 5773TIP3    H238735   0.009   0.943   1.210 -1.1683  2.2336 -0.3793
 5774TIP3   OH238736   2.268   6.425   6.615 -0.3707  0.3572  0.0463
 5774TIP3    H138737   2.259   6.450   6.523  3.0277 -1.4856 -0.9998
 5774TIP3    H238738   2.226   6.496   6.664 -2.2439  1.4458 -2.8744
 5775TIP3   OH238739   3.909   3.585  11.124  0.6828  0.2307  0.3780
 5775TIP3    H138740   3.927   3.603  11.031 -0.4167 -1.3221 -0.1755
 5775TIP3    H238741   3.972   3.518  11.148  2.5060  2.1898  1.4771
 5776TIP3   OH238742   2.913   1.997   0.545  1.1065 -0.2461  0.0427
 5776TIP3    H138743   2.911   1.976   0.451  0.6914 -0.6966  0.1504
 5776TIP3    H238744   2.827   1.970   0.577  0.8628  0.8828  0.3492
 5777TIP3   OH238745   0.944   6.071   1.211 -0.3080  0.2693 -0.5600
 5777TIP3    H138746   1.000   6.089   1.287 -0.0531  1.7640 -1.0608
 5777TIP3    H238747   0.857   6.055   1.248 -0.0845  0.4987  0.0762
 5778TIP3   OH238748   3.415   6.289   4.628 -0.9955 -0.2106 -0.3372
 5778TIP3    H138749   3.477   6.286   4.701 -0.2423  0.9674 -0.9011
 5778TIP3    H238750   3.435   6.371   4.582 -2.4283 -0.2118 -1.0192
 5779TIP3   OH238751   3.894   2.288   5.852  0.1988 -0.6054  0.3836
 5779TIP3    H138752   3.891   2.368   5.904 -1.0302 -0.5816  0.2914
 5779TIP3    H238753   3.939   2.314   5.772  1.7035 -0.5360  1.2160
 5780TIP3   OH238754   1.454   6.023   4.837  0.0763 -0.4936 -0.7209
 5780TIP3    H138755   1.448   6.118   4.831 -1.3950 -0.6051 -1.7252
 5780TIP3    H238756   1.534   6.006   4.886 -1.1913  1.3116  2.2596
 5781TIP3   OH238757   0.563   3.344   3.480  0.5319  0.2453 -0.4368
 5781TIP3    H138758   0.588   3.379   3.565  0.8308 -0.1980 -0.3383
 5781TIP3    H238759   0.587   3.251   3.485 -3.1972 -0.8459  0.5480
 5782TIP3   OH238760   3.408   0.040   0.063  0.4451 -0.2099  0.2012
 5782TIP3    H138761   3.459   0.064   0.140  2.5030 -0.3527 -1.0288
 5782TIP3    H238762   3.401  -0.056   0.067 -1.0261 -0.0906  1.1025
 5783TIP3   OH238763   1.392   5.473  14.256  0.4706  0.0725 -0.2543
 5783TIP3    H138764   1.352   5.525  14.186  0.0732  0.3186  0.1512
 5783TIP3    H238765   1.368   5.519  14.336 -2.1700 -2.1246  0.3693
 5784TIP3   OH238766   4.365   2.122  12.809 -0.3302  0.3138 -0.1626
 5784TIP3    H138767   4.307   2.079  12.872 -0.3385  0.1199 -0.3020
 5784TIP3    H238768   4.433   2.056  12.791 -1.6972 -0.6278 -2.3040
 5785TIP3   OH238769   6.634   1.792   2.831 -0.4178  0.0498  0.5501
 5785TIP3    H138770   6.660   1.783   2.739 -0.4578 -1.3488  0.6507
 5785TIP3    H238771   6.640   1.886   2.849 -1.1407  0.4424 -1.0932
 5786TIP3   OH238772   6.403   2.503  11.825 -0.1541  0.1949  0.5001
 5786TIP3    H138773   6.387   2.430  11.885 -2.0610  0.2484  0.1347
 5786TIP3    H238774   6.408   2.580  11.882  0.3964 -0.0430  0.7726
 5787TIP3   OH238775   5.313   6.238  14.377 -0.1550  0.5534 -0.3549
 5787TIP3    H138776   5.268   6.189  14.446  0.7801 -1.3343 -1.0186
 5787TIP3    H238777   5.247   6.248  14.308 -0.2329 -0.1840 -0.3950
 5788TIP3   OH238778   3.545   5.504   0.193  0.3775 -0.0488  0.1236
 5788TIP3    H138779   3.559   5.515   0.287  0.1750 -2.9685  0.5708
 5788TIP3    H238780   3.450   5.515   0.182  0.0972 -1.7623  0.6387
 5789TIP3   OH238781   2.699   4.268   3.698 -0.5580  0.0517 -0.3633
 5789TIP3    H138782   2.683   4.207   3.626 -0.8454  0.3988 -0.5943
 5789TIP3    H238783   2.664   4.223   3.775  0.5908 -0.7322 -0.2656
 5790TIP3   OH238784   1.965   5.622   0.620 -0.0968 -0.6162 -0.1538
 5790TIP3    H138785   2.052   5.581   0.628  0.5012  0.5332 -0.5759
 5790TIP3    H238786   1.936   5.598   0.532  0.8615  0.9588 -0.9405
 5791TIP3   OH238787   6.281   4.074  16.132 -0.0191 -0.4836 -0.1336
 5791TIP3    H138788   6.224   4.039  16.200 -0.6272  0.3401 -0.2099
 5791TIP3    H238789   6.319   4.152  16.171  0.2953 -0.4792 -0.4423
 5792TIP3   OH238790   1.818   2.988  16.857 -0.6463  0.1417  0.5721
 5792TIP3    H138791   1.843   2.912  16.805 -1.3906 -1.5111  2.4844
 5792TIP3    H238792   1.868   2.980  16.938 -1.4495  1.1839  1.2026
 5793TIP3   OH238793   4.065   2.143  17.109 -0.2539  0.1979 -0.5394
 5793TIP3    H138794   3.971   2.137  17.128 -0.0973  1.9516  1.1297
 5793TIP3    H238795   4.073   2.219  17.052  0.2117  0.4060 -0.1942
 5794TIP3   OH238796   1.668   4.948  15.340  0.0642 -0.2469  0.1218
 5794TIP3    H138797   1.580   4.978  15.364  0.7097  0.9255  1.0963
 5794TIP3    H238798   1.682   4.984  15.252 -0.3301 -0.2142  0.0713
 5795TIP3   OH238799   3.866   3.207   5.034  0.0055 -0.0426  0.5449
 5795TIP3    H138800   3.907   3.149   5.098 -0.9175 -0.7535  0.5145
 5795TIP3    H238801   3.773   3.186   5.038 -0.0317 -0.4424 -1.3449
 5796TIP3   OH238802   3.178   1.968  14.138  0.1392 -0.2249  0.0818
 5796TIP3    H138803   3.194   2.020  14.217 -2.7856 -0.0189  0.6574
 5796TIP3    H238804   3.193   2.029  14.066  1.8393 -0.1227  0.4920
 5797TIP3   OH238805   2.872   4.151   6.326  0.0858  0.4019 -0.0097
 5797TIP3    H138806   2.828   4.129   6.408  2.4413  0.6790  1.4104
 5797TIP3    H238807   2.908   4.068   6.295  0.8974  0.6175  0.3261
 5798TIP3   OH238808   3.790   0.168  13.000  0.0246  0.1589 -0.5570
 5798TIP3    H138809   3.858   0.178  12.934  0.6385  0.3713  0.0901
 5798TIP3    H238810   3.729   0.240  12.985  1.0246  1.1682  0.1098
 5799TIP3   OH238811   6.522   3.612  13.070  0.4093 -0.5720 -0.1358
 5799TIP3    H138812   6.555   3.692  13.111  0.0561 -0.2687 -0.4315
 5799TIP3    H238813   6.458   3.643  13.006  1.3928 -0.9957 -1.3532
 5800TIP3   OH238814   2.774   0.852   1.748  0.2516  0.6301 -0.4344
 5800TIP3    H138815   2.769   0.770   1.797  2.0953  1.3780  1.1144
 5800TIP3    H238816   2.839   0.835   1.679  2.7390  1.4841  1.5470
 5801TIP3   OH238817   1.612   4.547   2.134  0.5284 -0.1131  0.5063
 5801TIP3    H138818   1.580   4.637   2.128 -0.5472 -0.5723 -2.4676
 5801TIP3    H238819   1.696   4.549   2.088  1.1639 -0.3909  1.6360
 5802TIP3   OH238820   5.723   0.156   3.980 -0.0688 -0.4169 -0.0669
 5802TIP3    H138821   5.812   0.128   4.000 -0.4525 -1.1538  0.6460
 5802TIP3    H238822   5.694   0.095   3.912 -0.2038 -0.4822  0.0507
 5803TIP3   OH238823   4.539   0.757  11.755 -0.5946 -0.2853 -0.3624
 5803TIP3    H138824   4.542   0.812  11.677  0.0263 -1.0443 -0.8927
 5803TIP3    H238825   4.488   0.680  11.729  0.5789 -1.0781 -0.4036
 5804TIP3   OH238826   3.441   0.743  12.091  0.1908 -0.7419 -0.3213
 5804TIP3    H138827   3.349   0.765  12.075 -0.3709 -1.1792  1.8660
 5804TIP3    H238828   3.488   0.778  12.016 -1.2690  3.0650  0.3220
 5805TIP3   OH238829   5.813   4.663  16.256 -0.0111 -0.1506  0.0009
 5805TIP3    H138830   5.875   4.693  16.322 -1.6184  4.5713 -0.2944
 5805TIP3    H238831   5.732   4.646  16.304 -0.0069 -1.1122 -0.2927
 5806TIP3   OH238832   2.070   2.240  15.413 -0.7911 -0.5585 -0.0534
 5806TIP3    H138833   2.033   2.245  15.325  0.2363  0.3705 -0.4549
 5806TIP3    H238834   2.044   2.322  15.455  1.1888  0.3706 -0.5287
 5807TIP3   OH238835   1.173   2.859   3.408  0.1858  0.8690 -0.9230
 5807TIP3    H138836   1.210   2.936   3.366 -0.3453  1.6799  0.0698
 5807TIP3    H238837   1.213   2.857   3.495  0.3242 -0.0761 -0.9943
 5808TIP3   OH238838   5.112   1.796  14.138  0.1441 -0.6665  0.2776
 5808TIP3    H138839   5.074   1.810  14.051  2.1700 -0.0258 -0.5559
 5808TIP3    H238840   5.174   1.869  14.149  0.8105 -1.4171  1.7427
 5809TIP3   OH238841   6.659   0.249  10.385  0.1888 -0.2711  0.2096
 5809TIP3    H138842   6.707   0.321  10.424  1.0167  0.0492 -1.3146
 5809TIP3    H238843   6.721   0.207  10.325 -0.4636 -1.8654  0.5844
 5810TIP3   OH238844   3.416   2.633  16.666  0.2814  0.6450  0.1057
 5810TIP3    H138845   3.453   2.565  16.723  1.7947  1.3228 -0.0489
 5810TIP3    H238846   3.453   2.614  16.580  0.6955  1.6534  0.0581
 5811TIP3   OH238847   3.555   5.844  13.620 -0.1446  0.3186 -0.1813
 5811TIP3    H138848   3.516   5.774  13.672 -2.8963  1.1106 -0.9981
 5811TIP3    H238849   3.629   5.874  13.673  0.7133 -2.6745  0.5066
 5812TIP3   OH238850   6.507   2.707   5.811 -0.2529 -0.5093  0.3824
 5812TIP3    H138851   6.463   2.624   5.792  0.1748 -0.3328 -1.6010
 5812TIP3    H238852   6.590   2.702   5.763 -0.1623  1.0027  0.3155
 5813TIP3   OH238853   3.187   6.141   3.639 -0.6671  0.5823 -0.2724
 5813TIP3    H138854   3.197   6.174   3.550 -0.9811 -0.1370 -0.5845
 5813TIP3    H238855   3.243   6.063   3.641  0.3343  1.2957  0.5510
 5814TIP3   OH238856   6.237   3.735   0.745 -0.3448  0.5768 -0.6022
 5814TIP3    H138857   6.309   3.797   0.757 -0.2293  0.2620  0.4026
 5814TIP3    H238858   6.276   3.649   0.762 -1.0348  0.4354  0.3339
 5815TIP3   OH238859   5.472   4.225   4.719 -0.0625  0.1021  0.2049
 5815TIP3    H138860   5.411   4.283   4.764  0.3490  0.4073  0.3759
 5815TIP3    H238861   5.416   4.161   4.674 -0.5890  1.2733 -0.8890
 5816TIP3   OH238862   3.038   0.262   5.174 -0.0899  0.2649 -0.3199
 5816TIP3    H138863   3.010   0.233   5.261 -1.4950  1.1520 -0.4319
 5816TIP3    H238864   2.960   0.304   5.137  0.6039  0.2829 -1.8429
 5817TIP3   OH238865   1.648   1.137  15.974  0.6788  0.1135 -0.7853
 5817TIP3    H138866   1.602   1.208  15.931 -1.9546 -1.2087 -0.3647
 5817TIP3    H238867   1.636   1.153  16.067 -2.1146 -2.0016 -0.6406
 5818TIP3   OH238868   2.832   2.975   3.903  0.0772 -0.3296  0.3337
 5818TIP3    H138869   2.752   2.998   3.950  0.1351  0.4687  0.0500
 5818TIP3    H238870   2.830   3.029   3.824  1.3975  0.4742  0.8131
 5819TIP3   OH238871   0.543   3.597  13.149  0.4002  0.3031  0.1741
 5819TIP3    H138872   0.518   3.672  13.095 -0.9413  0.5959  1.1393
 5819TIP3    H238873   0.497   3.523  13.110  0.1341  0.3523  0.3936
 5820TIP3   OH238874   0.170   0.400   1.586 -0.1845  0.1033 -0.4271
 5820TIP3    H138875   0.219   0.339   1.530 -2.1868 -1.3759 -0.6874
 5820TIP3    H238876   0.185   0.368   1.675 -0.0071  0.1498 -0.4405
 5821TIP3   OH238877   1.133   0.250  14.209 -0.0844  0.4379  0.2352
 5821TIP3    H138878   1.129   0.231  14.303  1.0583 -1.1363  0.0099
 5821TIP3    H238879   1.225   0.236  14.186 -0.6403 -0.8431 -1.4061
 5822TIP3   OH238880   4.083   4.785  11.936 -0.0540 -0.3662  0.2053
 5822TIP3    H138881   4.137   4.865  11.935  0.2435 -0.5714 -0.2535
 5822TIP3    H238882   4.090   4.750  11.848  0.3105 -1.2372  0.5688
 5823TIP3   OH238883   0.973   1.018   3.647  0.2037 -0.3044  0.3881
 5823TIP3    H138884   0.963   0.927   3.619  1.3850 -0.2810 -0.1967
 5823TIP3    H238885   0.976   1.068   3.566  2.4262 -0.0949  0.5187
 5824TIP3   OH238886   3.651   4.637  12.919 -0.3520  0.1662 -0.1372
 5824TIP3    H138887   3.735   4.673  12.891 -0.9623  0.7521 -1.2533
 5824TIP3    H238888   3.589   4.709  12.909 -0.9818 -0.2333  0.7575
 5825TIP3   OH238889   0.035   0.396  16.783 -0.0940  0.1525  0.3899
 5825TIP3    H138890  -0.033   0.460  16.761  0.5087  0.0401 -1.9883
 5825TIP3    H238891   0.108   0.418  16.726  1.6051 -0.2698  2.2993
 5826TIP3   OH238892   4.892   3.075  16.187 -0.1336  0.2692  0.1160
 5826TIP3    H138893   4.966   3.092  16.128 -0.5268  0.1151 -0.4291
 5826TIP3    H238894   4.824   3.038  16.130 -0.6422  0.4383  0.6080
 5827TIP3   OH238895   0.888   2.936   1.924 -0.3734 -0.2964  0.8807
 5827TIP3    H138896   0.817   3.000   1.927  0.3934  0.5887  0.4272
 5827TIP3    H238897   0.846   2.853   1.947 -1.9835 -0.1703 -1.3289
 5828TIP3   OH238898   6.666   6.469  12.861  0.2542 -0.3963 -0.5386
 5828TIP3    H138899   6.589   6.483  12.806 -0.0160 -0.1429 -0.0988
 5828TIP3    H238900   6.635   6.413  12.932  0.0394  1.0879  0.5757
 5829TIP3   OH238901   3.409   3.559  11.940  0.2750 -0.4176 -0.4292
 5829TIP3    H138902   3.492   3.593  11.973  0.1325  3.0260 -3.0190
 5829TIP3    H238903   3.356   3.636  11.925 -2.6414 -2.3571 -0.9393
 5830TIP3   OH238904   2.638   6.100  15.366  0.2352  0.1958  0.1336
 5830TIP3    H138905   2.725   6.064  15.347 -0.2692 -0.7984 -0.3864
 5830TIP3    H238906   2.595   6.032  15.417  0.1550  1.1796  1.4340
 5831TIP3   OH238907   2.887   4.902  14.617 -0.3585 -0.5985  0.3910
 5831TIP3    H138908   2.933   4.828  14.657  0.9538 -1.4053 -2.3771
 5831TIP3    H238909   2.932   4.979  14.652 -0.4381 -1.1387  1.7737
 5832TIP3   OH238910   2.827   0.889  15.715  0.0824  0.0268 -0.3866
 5832TIP3    H138911   2.845   0.978  15.683 -0.9566  0.9049  1.2954
 5832TIP3    H238912   2.881   0.880  15.793  1.2968 -1.4260 -1.3513
 5833TIP3   OH238913   3.061   0.714  15.487 -0.2465  0.4591  0.0640
 5833TIP3    H138914   3.114   0.640  15.456 -1.1106  0.1368 -0.6876
 5833TIP3    H238915   2.990   0.720  15.424 -2.7084 -0.8736  2.4894
 5834TIP3   OH238916   4.212   4.689  16.802  0.0983  0.2413 -0.0581
 5834TIP3    H138917   4.279   4.699  16.734 -0.5885  0.1632 -0.7587
 5834TIP3    H238918   4.138   4.740  16.771 -0.6717 -0.7890  0.0245
 5835TIP3   OH238919   0.075   6.331   4.989 -0.6235  0.0038  0.2421
 5835TIP3    H138920   0.001   6.339   4.928 -0.2860 -0.1255 -0.1861
 5835TIP3    H238921   0.090   6.420   5.020  0.7842  0.5451 -1.7512
 5836TIP3   OH238922   2.876   2.021  11.528  0.3080  0.7179  0.3106
 5836TIP3    H138923   2.959   2.046  11.569  0.3546 -0.2649  0.8287
 5836TIP3    H238924   2.824   2.102  11.528  0.6568  0.9555  1.4822
 5837TIP3   OH238925   3.990   2.949   2.504 -0.0668 -0.9057 -0.5778
 5837TIP3    H138926   3.954   3.006   2.436 -3.4731 -1.7206  0.3761
 5837TIP3    H238927   3.996   2.863   2.464 -4.0593 -1.8666  0.5182
 5838TIP3   OH238928   2.300   0.036  14.302  0.1960 -0.0066 -0.6445
 5838TIP3    H138929   2.366   0.071  14.362  0.7053 -1.3896 -0.3613
 5838TIP3    H238930   2.350  -0.010  14.235 -0.4563 -0.5331 -0.7819
 5839TIP3   OH238931   0.818   5.535   3.707  0.2067  0.0579  0.3194
 5839TIP3    H138932   0.760   5.467   3.740 -1.9106  2.0338  0.9025
 5839TIP3    H238933   0.850   5.501   3.623 -0.7864 -1.6239  0.5914
 5840TIP3   OH238934   4.261   6.604   5.027  0.0172 -0.3738 -0.4910
 5840TIP3    H138935   4.213   6.648   4.957 -0.6961 -0.1071  0.1628
 5840TIP3    H238936   4.353   6.615   5.003 -0.2295 -1.7511 -2.2935
 5841TIP3   OH238937   2.719   5.687  16.510  0.6993 -0.5718 -0.2365
 5841TIP3    H138938   2.725   5.592  16.498  0.5828 -0.6305  0.1461
 5841TIP3    H238939   2.626   5.704  16.519  0.7886 -0.5883  0.9245
 5842TIP3   OH238940   0.562   4.619   5.575  0.5204 -0.1669  0.1139
 5842TIP3    H138941   0.489   4.567   5.607  0.8471 -0.1502  0.9170
 5842TIP3    H238942   0.524   4.675   5.507 -0.2826  0.0762  0.7485
 5843TIP3   OH238943   0.618   5.457  10.692 -0.2994  0.2332  0.3362
 5843TIP3    H138944   0.531   5.476  10.657  0.5102  0.6926 -1.5421
 5843TIP3    H238945   0.642   5.373  10.651 -0.0108 -0.0951  1.1586
 5844TIP3   OH238946   4.939   2.657   6.079 -0.7991 -0.1348  0.1974
 5844TIP3    H138947   5.031   2.674   6.062  0.0106 -3.2094  0.9371
 5844TIP3    H238948   4.916   2.585   6.021 -2.3452 -0.3502  1.0142
 5845TIP3   OH238949   3.372   3.385   4.647 -0.1824  0.0501  0.6387
 5845TIP3    H138950   3.398   3.355   4.560  0.5382  2.4160 -0.0347
 5845TIP3    H238951   3.277   3.372   4.649 -0.1145 -0.7273 -0.1861
 5846TIP3   OH238952   3.291   3.600   3.868  0.0518  0.0809 -0.1938
 5846TIP3    H138953   3.266   3.693   3.870 -1.0869 -0.1766 -1.2710
 5846TIP3    H238954   3.249   3.566   3.789  0.2921 -1.4069  0.2989
 5847TIP3   OH238955   5.491   4.247  10.502 -0.3734  0.0753 -0.0807
 5847TIP3    H138956   5.547   4.210  10.433 -0.2399  1.1559 -0.5890
 5847TIP3    H238957   5.553   4.277  10.568 -0.5028 -0.9663  0.5248
 5848TIP3   OH238958   5.353   2.689   0.992 -0.1113 -0.3520 -0.3573
 5848TIP3    H138959   5.406   2.615   1.021 -1.8005 -1.6675 -0.4871
 5848TIP3    H238960   5.275   2.687   1.048 -0.3152  1.1705 -0.5402
 5849TIP3   OH238961   2.240   5.288  11.439  0.6735 -0.7776  0.3094
 5849TIP3    H138962   2.265   5.375  11.469 -0.9795 -0.6443  1.4481
 5849TIP3    H238963   2.259   5.288  11.346  2.1780  0.2418  0.5854
 5850TIP3   OH238964   0.870   4.287  16.399  0.0663  0.0005  0.4843
 5850TIP3    H138965   0.810   4.229  16.353 -0.0059  1.4733 -1.3742
 5850TIP3    H238966   0.946   4.233  16.419  0.0151 -0.7341 -1.2238
 5851TIP3   OH238967   2.150   2.210   5.363 -0.0164  0.0976  0.1497
 5851TIP3    H138968   2.065   2.236   5.400  0.8826 -0.6914  3.0908
 5851TIP3    H238969   2.129   2.177   5.276 -2.3023  2.5261 -0.3552
 5852TIP3   OH238970   5.470   4.619   1.644 -0.0445 -0.4426 -0.0228
 5852TIP3    H138971   5.454   4.527   1.623 -1.0397 -0.2252 -0.2881
 5852TIP3    H238972   5.444   4.628   1.736  2.0811 -0.8754  0.6706
 5853TIP3   OH238973   4.320   4.751  14.910  0.3909 -0.0078 -0.0226
 5853TIP3    H138974   4.395   4.800  14.943 -0.8356  1.1799  1.1073
 5853TIP3    H238975   4.284   4.708  14.988 -0.3219 -0.2490 -0.4778
 5854TIP3   OH238976   4.382   4.309   2.732  0.2053 -0.0323  0.0299
 5854TIP3    H138977   4.345   4.380   2.679 -0.1870  0.5207  1.0014
 5854TIP3    H238978   4.474   4.332   2.742  0.6679 -0.9721 -1.6984
 5855TIP3   OH238979   1.477   6.073  11.266  0.3724 -0.4188  0.2570
 5855TIP3    H138980   1.549   6.133  11.246  0.5651 -1.2504 -1.7269
 5855TIP3    H238981   1.463   6.024  11.185 -2.1975 -0.5354  0.6985
 5856TIP3   OH238982   4.370   2.356   4.226  0.1413 -0.0407  0.0729
 5856TIP3    H138983   4.368   2.435   4.281 -0.0562  0.4756 -0.6690
 5856TIP3    H238984   4.442   2.371   4.166  0.0826 -0.4179 -0.0872
 5857TIP3   OH238985   4.511   2.323  15.448 -0.1283  0.1520  0.3822
 5857TIP3    H138986   4.502   2.369  15.364  1.4104 -1.5307 -0.7743
 5857TIP3    H238987   4.450   2.250  15.441  0.9626 -0.7586  0.1376
 5858TIP3   OH238988   6.465   4.956  10.808  0.3903  0.0800 -0.4915
 5858TIP3    H138989   6.456   5.049  10.828 -1.0493 -0.4621  1.7780
 5858TIP3    H238990   6.530   4.924  10.870  0.6988 -0.4822 -1.0920
 5859TIP3   OH238991   6.114   3.408   0.483 -0.2924  0.3452 -0.0804
 5859TIP3    H138992   6.121   3.348   0.409  2.0945 -0.1641  0.4769
 5859TIP3    H238993   6.144   3.492   0.449 -2.9424  1.1467 -0.6641
 5860TIP3   OH238994   2.579   1.651  12.750 -0.1336  0.1122 -0.1004
 5860TIP3    H138995   2.545   1.580  12.697 -1.5473 -0.0330  0.9524
 5860TIP3    H238996   2.654   1.685  12.700 -0.6310 -0.8365 -1.5368
 5861TIP3   OH238997   4.945   1.905   5.814  0.0054  0.3085 -0.0851
 5861TIP3    H138998   4.952   1.980   5.754 -0.6110 -1.5673 -2.6781
 5861TIP3    H238999   4.851   1.896   5.830  0.1114  0.3348  0.5804
 5862TIP3   OH239000   2.796   2.851  15.114  0.0063 -0.3925 -0.0001
 5862TIP3    H139001   2.765   2.937  15.143  1.1047 -0.1512  0.5230
 5862TIP3    H239002   2.740   2.788  15.159 -0.5105  0.0410 -0.0263
 5863TIP3   OH239003   1.651   4.973   2.876  0.3425  0.5678 -0.0026
 5863TIP3    H139004   1.727   4.960   2.819  0.6786  0.1458  0.5289
 5863TIP3    H239005   1.581   5.001   2.817  0.2521 -1.3261 -0.8491
 5864TIP3   OH239006   0.505   0.380   0.275 -0.6413  0.1917 -0.9368
 5864TIP3    H139007   0.552   0.298   0.261 -1.2863 -0.2265 -0.6832
 5864TIP3    H239008   0.517   0.428   0.193 -0.5726 -0.3074 -1.2275
 5865TIP3   OH239009   1.457   5.232  13.312 -0.4705 -0.5061 -0.0355
 5865TIP3    H139010   1.484   5.141  13.318  1.1598  0.0204  1.3781
 5865TIP3    H239011   1.403   5.246  13.389 -1.9207 -0.6149 -0.9995
 5866TIP3   OH239012   2.247   0.969  16.266  0.4380  0.1712  1.0875
 5866TIP3    H139013   2.318   0.965  16.202  0.0602 -1.4683  0.7373
 5866TIP3    H239014   2.183   1.028  16.227  2.1588  2.9047  2.0688
 5867TIP3   OH239015   0.432   3.302   2.606 -0.4450  0.0046 -0.0197
 5867TIP3    H139016   0.475   3.387   2.605 -1.6457  0.6336 -0.2946
 5867TIP3    H239017   0.459   3.261   2.688  1.5075 -0.0947 -0.6569
 5868TIP3   OH239018   6.309   6.197   5.859  0.1353 -0.0662  0.4557
 5868TIP3    H139019   6.293   6.215   5.951 -1.2147 -0.7967  0.3951
 5868TIP3    H239020   6.318   6.283   5.818 -0.3272  0.2891  1.0926
 5869TIP3   OH239021   0.302   5.198   6.492  0.4592 -0.1884  0.1367
 5869TIP3    H139022   0.329   5.281   6.452 -0.5817  0.3063  0.4274
 5869TIP3    H239023   0.366   5.134   6.459  1.8550  0.8752  0.6509
 5870TIP3   OH239024   0.332   6.212   5.647  0.0005  0.2165  0.3815
 5870TIP3    H139025   0.341   6.178   5.736  1.9505 -1.6690 -0.4617
 5870TIP3    H239026   0.245   6.185   5.620  0.0768 -0.7866  1.0915
 5871TIP3   OH239027   5.898   6.560   4.516  0.4453  0.4698 -0.5518
 5871TIP3    H139028   5.822   6.504   4.498  0.1161  1.3917 -2.2643
 5871TIP3    H239029   5.960   6.539   4.447  2.4054 -1.2487  1.5936
 5872TIP3   OH239030   0.902   4.403   0.724 -0.0876  0.2863  0.0662
 5872TIP3    H139031   0.997   4.411   0.711 -0.2693  0.0711 -1.5341
 5872TIP3    H239032   0.889   4.423   0.817  1.5897 -0.3068  0.4654
 5873TIP3   OH239033   3.282   0.261   5.287  0.5174 -0.2123  0.4812
 5873TIP3    H139034   3.318   0.195   5.228 -0.7997 -1.5444  1.1071
 5873TIP3    H239035   3.208   0.299   5.239  0.9864  0.5088  0.3081
 5874TIP3   OH239036   4.972   0.520   2.148 -0.3110  0.5541 -0.0599
 5874TIP3    H139037   4.909   0.513   2.076  1.2058  0.7957 -1.4987
 5874TIP3    H239038   4.967   0.611   2.176 -1.4484  0.2738  0.6656
 5875TIP3   OH239039   5.637   4.709   3.379  0.2499  0.2751 -0.9932
 5875TIP3    H139040   5.611   4.714   3.472 -0.4149  3.2885 -1.2418
 5875TIP3    H239041   5.695   4.633   3.375  0.2684  0.0127  1.8770
 5876TIP3   OH239042   4.011   0.747  13.443 -0.3997 -0.4476  0.2313
 5876TIP3    H139043   4.002   0.680  13.511 -0.4171  0.7540  1.4427
 5876TIP3    H239044   4.027   0.828  13.490  1.1746  0.1772 -1.2626
 5877TIP3   OH239045   1.987   4.770  14.408 -0.3314 -0.0063  0.5745
 5877TIP3    H139046   2.022   4.756  14.496  1.3931 -0.4181 -0.1255
 5877TIP3    H239047   1.903   4.813  14.422  0.9944  2.2882  2.3921
 5878TIP3   OH239048   5.200   6.690  16.771 -0.0577  0.1308 -0.2017
 5878TIP3    H139049   5.208   6.655  16.682 -0.0052 -0.2571 -0.0463
 5878TIP3    H239050   5.120   6.650  16.805 -0.3168  0.6270 -0.2301
 5879TIP3   OH239051   6.428   6.295   3.755 -0.0648 -0.2429 -0.1121
 5879TIP3    H139052   6.335   6.300   3.730  0.1458  2.8712 -0.6973
 5879TIP3    H239053   6.427   6.299   3.850 -0.5710  2.7262 -0.1436
 5880TIP3   OH239054   2.423   4.243  13.080 -0.0182 -0.1518 -0.1934
 5880TIP3    H139055   2.376   4.181  13.136  0.8330 -1.1620 -0.5768
 5880TIP3    H239056   2.478   4.189  13.025  1.6023  0.9936  0.2231
 5881TIP3   OH239057   6.472   0.558   4.086 -0.2409 -0.0121 -0.3869
 5881TIP3    H139058   6.446   0.521   4.170 -0.0749 -0.7286 -0.6400
 5881TIP3    H239059   6.424   0.506   4.021 -0.7854  0.8785 -0.7267
 5882TIP3   OH239060   1.303   1.396   2.605  0.3326 -0.3426  0.4552
 5882TIP3    H139061   1.329   1.457   2.536  1.5424 -1.4301 -0.0797
 5882TIP3    H239062   1.236   1.341   2.564 -0.7493  0.5582  0.9345
 5883TIP3   OH239063   2.860   1.893   5.682 -0.4862 -0.2110 -0.3510
 5883TIP3    H139064   2.824   1.869   5.768  0.0126  3.2131  0.9640
 5883TIP3    H239065   2.950   1.859   5.683 -0.5921 -0.4878  0.3326
 5884TIP3   OH239066   1.636   1.375   1.283  0.2264 -0.1908 -0.1247
 5884TIP3    H139067   1.577   1.325   1.227 -1.0567  0.2855  0.7474
 5884TIP3    H239068   1.678   1.309   1.338  1.1431 -0.6138 -1.2977
 5885TIP3   OH239069   0.291   2.488   2.632  0.7265  0.7537  0.4581
 5885TIP3    H139070   0.252   2.401   2.628 -0.0951  1.0647  1.4544
 5885TIP3    H239071   0.223   2.547   2.601  1.7764  0.9458 -1.7206
 5886TIP3   OH239072   2.871   6.118   1.662  0.2788  0.5921  0.3578
 5886TIP3    H139073   2.809   6.074   1.603  1.3374 -0.4245 -0.0471
 5886TIP3    H239074   2.866   6.068   1.743  2.2138 -1.0056 -0.4232
 5887TIP3   OH239075   5.025   2.615  12.267 -0.0506 -0.0793 -0.3059
 5887TIP3    H139076   5.042   2.706  12.292  0.4070 -0.8718  2.6896
 5887TIP3    H239077   5.107   2.570  12.284 -0.2377 -1.0816 -1.8672
 5888TIP3   OH239078   5.218   6.072  15.186 -0.2789 -0.0542  0.1936
 5888TIP3    H139079   5.198   6.161  15.214  0.7568 -0.2116  1.5519
 5888TIP3    H239080   5.266   6.034  15.259 -0.2741 -1.5783 -0.5575
 5889TIP3   OH239081   4.662   2.053   4.639  0.1674  0.7340  0.7152
 5889TIP3    H139082   4.726   2.120   4.614  0.2998  0.7700  1.1438
 5889TIP3    H239083   4.580   2.084   4.600  0.4806  0.4863 -0.1676
 5890TIP3   OH239084   4.247   2.065  11.084 -0.3406  0.1837  0.8775
 5890TIP3    H139085   4.289   1.988  11.046  0.4196  0.6985  0.6492
 5890TIP3    H239086   4.306   2.138  11.062 -0.1971  0.5917  2.4704
 5891TIP3   OH239087   4.711   2.773   0.908 -0.1495  0.8634 -0.4981
 5891TIP3    H139088   4.630   2.757   0.859 -1.3436 -0.1192  1.6208
 5891TIP3    H239089   4.767   2.699   0.886 -0.7526  0.3194 -0.2405
 5892TIP3   OH239090   2.206   5.672  15.566  0.0943 -0.1590  0.1606
 5892TIP3    H139091   2.253   5.696  15.486 -1.0325 -0.3376 -0.5754
 5892TIP3    H239092   2.114   5.692  15.546 -0.3141 -1.0692  1.0807
 5893TIP3   OH239093   3.627   3.028   4.391 -0.3834 -0.2273  0.3983
 5893TIP3    H139094   3.689   2.955   4.394  2.4089  1.8820 -1.2466
 5893TIP3    H239095   3.619   3.055   4.483  0.6777 -0.9496  0.7305
 5894TIP3   OH239096   6.123   6.043   1.459 -0.3793  0.4147  0.3793
 5894TIP3    H139097   6.074   6.096   1.522 -2.0296 -0.9877  0.3336
 5894TIP3    H239098   6.079   5.958   1.459  3.5329 -1.8835  2.1931
 5895TIP3   OH239099   2.447   2.241  11.017 -0.1281 -0.1862  0.1410
 5895TIP3    H139100   2.482   2.329  11.033 -0.3203  0.1534 -1.1481
 5895TIP3    H239101   2.355   2.255  10.995 -0.2030 -0.7237  0.0855
 5896TIP3   OH239102   4.243   1.491   1.394 -0.2315 -0.5004 -0.3221
 5896TIP3    H139103   4.268   1.399   1.406 -0.5273 -0.4246  1.0911
 5896TIP3    H239104   4.326   1.538   1.388 -0.0647 -0.7707 -0.1749
 5897TIP3   OH239105   3.590   2.535   5.882 -0.4140  0.6105  0.1568
 5897TIP3    H139106   3.562   2.481   5.808  0.7111  1.4773 -0.9561
 5897TIP3    H239107   3.549   2.620   5.866 -1.2209  0.4559  1.2625
 5898TIP3   OH239108   5.933   2.759   5.741 -0.3447 -0.2112  0.1466
 5898TIP3    H139109   5.891   2.682   5.780  1.2178 -0.5282  1.3067
 5898TIP3    H239110   6.021   2.729   5.719 -1.2269 -0.2419 -4.3162
 5899TIP3   OH239111   1.273   1.953  15.177 -0.3277  0.2397 -0.4067
 5899TIP3    H139112   1.276   2.021  15.244 -3.2249  0.6028 -0.5348
 5899TIP3    H239113   1.339   1.980  15.113  2.2192  0.1132  1.9522
 5900TIP3   OH239114   3.249   2.693  14.786 -0.4076 -0.9201 -1.0937
 5900TIP3    H139115   3.165   2.731  14.813 -0.7224 -2.4413  0.1778
 5900TIP3    H239116   3.294   2.766  14.743 -0.2641  1.5529  2.6782
 5901TIP3   OH239117   4.981   6.040   5.052  0.0366  0.7258 -0.2684
 5901TIP3    H139118   5.061   5.988   5.047  0.6514  1.3686  1.8546
 5901TIP3    H239119   4.912   5.977   5.071  0.0601  0.2032 -1.8326
 5902TIP3   OH239120   6.691   2.233  12.760 -0.1465 -0.2234 -0.3865
 5902TIP3    H139121   6.614   2.257  12.708  0.4297  0.2638 -1.0301
 5902TIP3    H239122   6.693   2.137  12.756  0.0008 -0.1860 -1.4400
 5903TIP3   OH239123   6.500   0.034   6.044  0.5843  0.4276  0.0982
 5903TIP3    H139124   6.424   0.054   6.099 -0.8894 -1.0622 -1.3026
 5903TIP3    H239125   6.574   0.037   6.104 -0.5634  1.8477  1.5323
 5904TIP3   OH239126   5.248   3.449   4.060  0.4557  0.7837  0.2877
 5904TIP3    H139127   5.305   3.500   4.117 -1.7616  0.5440  2.9724
 5904TIP3    H239128   5.259   3.359   4.090 -1.1047  0.7084  0.7424
 5905TIP3   OH239129   6.084   3.146   5.655 -0.4064  0.3858  0.2999
 5905TIP3    H139130   6.103   3.175   5.744  1.9036  0.2918 -0.0963
 5905TIP3    H239131   6.100   3.223   5.600  0.2854 -0.1048 -0.2130
 5906TIP3   OH239132   3.751   2.273  12.733 -0.0237  0.0322  0.2268
 5906TIP3    H139133   3.724   2.241  12.648  0.6479  2.0648 -0.8382
 5906TIP3    H239134   3.846   2.261  12.734  0.4961  3.0830 -0.8506
 5907TIP3   OH239135   6.128   0.451   2.280 -0.2763 -0.5810  0.2039
 5907TIP3    H139136   6.080   0.386   2.228 -0.7558 -1.5982  1.8298
 5907TIP3    H239137   6.218   0.417   2.283  0.2917  0.6053 -1.6872
 5908TIP3   OH239138   3.808   5.914   5.836 -0.4169 -0.2010 -0.4181
 5908TIP3    H139139   3.879   5.887   5.894  0.4704 -0.2683 -1.5245
 5908TIP3    H239140   3.797   5.842   5.774 -1.7034 -0.3500 -0.0549
 5909TIP3   OH239141   0.130   5.072   5.018  0.4596 -0.7570  0.1861
 5909TIP3    H139142   0.212   5.120   5.019  0.1337 -0.1207 -1.3580
 5909TIP3    H239143   0.156   4.981   5.001  0.7947 -0.3136 -1.9787
 5910TIP3   OH239144   6.758   5.664  14.389 -0.1318 -0.0043 -0.5091
 5910TIP3    H139145   6.664   5.681  14.399  0.0829  1.8416 -1.3077
 5910TIP3    H239146   6.763   5.580  14.343 -1.3122 -1.4681  1.8504
 5911TIP3   OH239147   0.791   1.212   0.900  0.6305  0.1252  0.3574
 5911TIP3    H139148   0.717   1.185   0.954 -1.2075 -0.8411 -2.4281
 5911TIP3    H239149   0.769   1.299   0.869  1.7942  0.7815  1.2756
 5912TIP3   OH239150   1.726   2.373   2.390  0.0963 -0.5528 -0.6997
 5912TIP3    H139151   1.807   2.332   2.360 -0.9432 -1.2603 -2.7347
 5912TIP3    H239152   1.661   2.351   2.323 -1.6188  0.6210  0.4710
 5913TIP3   OH239153   3.526   4.852   4.676 -0.6237  0.3818  0.3732
 5913TIP3    H139154   3.542   4.904   4.597 -1.7753  0.9714  0.5004
 5913TIP3    H239155   3.443   4.807   4.659 -0.8011  0.3856  1.1819
 5914TIP3   OH239156   1.900   4.973  11.534  0.1709  0.0427 -0.1444
 5914TIP3    H139157   1.947   4.895  11.504  1.4433  0.4186  0.7652
 5914TIP3    H239158   1.883   4.957  11.626 -1.0997  0.1236 -0.3559
 5915TIP3   OH239159   5.109   4.959   5.867  0.3524  0.1314 -0.8356
 5915TIP3    H139160   5.050   5.002   5.805 -1.3312 -1.5030 -0.4699
 5915TIP3    H239161   5.119   4.870   5.832  1.3037 -0.1106 -0.0041
 5916TIP3   OH239162   3.225   6.399  11.503 -0.5056 -0.4590 -0.4884
 5916TIP3    H139163   3.272   6.434  11.579  0.0341  3.2510 -2.3118
 5916TIP3    H239164   3.132   6.406  11.528 -0.3175  0.0031  0.1147
 5917TIP3   OH239165   3.106   5.128  13.955 -0.0065  0.1394  0.4965
 5917TIP3    H139166   3.047   5.088  14.019 -0.9026  0.8466  0.1288
 5917TIP3    H239167   3.111   5.063  13.884 -0.1198 -0.0340  0.6452
 5918TIP3   OH239168   4.871   0.163  15.333 -0.3710 -0.7789  0.3627
 5918TIP3    H139169   4.851   0.196  15.245  2.1005 -0.0674 -0.0049
 5918TIP3    H239170   4.797   0.107  15.355 -1.8064  0.2886 -1.5074
 5919TIP3   OH239171   4.554   5.895  14.496  0.3502 -0.7229  0.2531
 5919TIP3    H139172   4.594   5.953  14.430  1.4341 -2.8223 -1.0396
 5919TIP3    H239173   4.487   5.949  14.537  0.8419  1.2436 -1.3440
 5920TIP3   OH239174   4.106   3.286  14.358 -0.3339  0.1118 -0.5585
 5920TIP3    H139175   4.193   3.271  14.394 -0.0805  0.5418 -0.9815
 5920TIP3    H239176   4.081   3.373  14.388 -1.2067 -0.5351  0.7058
 5921TIP3   OH239177   5.104   2.920  16.019  0.0916  0.2941 -0.3461
 5921TIP3    H139178   5.014   2.889  16.033 -0.0354 -0.2925 -2.2481
 5921TIP3    H239179   5.150   2.845  15.981  1.6432  0.3269  1.3146
 5922TIP3   OH239180   6.014   5.778  15.997 -0.9016  0.4402 -0.6205
 5922TIP3    H139181   6.098   5.785  15.953 -0.9168 -0.7452 -0.8693
 5922TIP3    H239182   6.008   5.858  16.050 -0.7273  1.7250 -2.4482
 5923TIP3   OH239183   3.151   3.697  16.266 -0.5443 -0.1941 -0.4128
 5923TIP3    H139184   3.095   3.764  16.228 -1.4103  0.5403  1.9575
 5923TIP3    H239185   3.238   3.735  16.269 -0.2516 -0.6170 -2.3819
 5924TIP3   OH239186   6.494   1.839  17.049 -0.5798  0.1752  0.2071
 5924TIP3    H139187   6.473   1.926  17.084 -1.4034 -0.1177  0.4843
 5924TIP3    H239188   6.410   1.806  17.018 -0.3141 -0.6248  0.3312
 5925TIP3   OH239189   1.090   3.773  15.571  0.5797  0.2337  0.6392
 5925TIP3    H139190   1.072   3.696  15.626  0.0608 -0.5413 -0.5767
 5925TIP3    H239191   1.107   3.843  15.634 -1.9610 -0.1222  1.8470
 5926TIP3   OH239192   6.530   1.195  14.656  0.2957  0.2169  0.1661
 5926TIP3    H139193   6.458   1.167  14.600  0.1355  1.0428 -0.0558
 5926TIP3    H239194   6.586   1.118  14.664 -1.9743 -1.3326  2.5988
 5927TIP3   OH239195   2.217   3.403   4.494  0.7114  0.5367  0.3772
 5927TIP3    H139196   2.155   3.453   4.441 -0.6436 -0.2540  1.1611
 5927TIP3    H239197   2.285   3.375   4.433  0.0080  0.9501 -0.6118
 5928TIP3   OH239198   5.053   2.089  16.930 -0.2716 -0.5783 -0.6753
 5928TIP3    H139199   5.099   2.147  16.990  0.1736 -1.0774 -0.5316
 5928TIP3    H239200   5.018   2.019  16.986 -4.4380  1.6153 -0.1087
 5929TIP3   OH239201   6.430   0.647  13.133  0.4483  0.3604  0.3577
 5929TIP3    H139202   6.510   0.688  13.102  0.4863  0.2348  0.2914
 5929TIP3    H239203   6.381   0.625  13.054  0.4767  0.1798  0.3910
 5930TIP3   OH239204   5.020   2.264   4.057 -0.1971  0.2133  0.1754
 5930TIP3    H139205   4.946   2.220   4.015  1.6907 -1.3624 -1.7224
 5930TIP3    H239206   5.083   2.279   3.986  2.7022 -1.5359  2.1494
 5931TIP3   OH239207   4.366   0.380  15.540 -1.0767 -0.5209  0.3857
 5931TIP3    H139208   4.299   0.363  15.474 -1.4260  0.2732  0.5277
 5931TIP3    H239209   4.319   0.382  15.623 -0.4366 -3.0229  0.8940
 5932TIP3   OH239210   2.505   3.884  13.250 -0.1387  0.3041  0.5351
 5932TIP3    H139211   2.464   3.803  13.282 -0.9390 -0.3022 -1.8122
 5932TIP3    H239212   2.437   3.951  13.260  0.2678  0.5724  1.7668
 5933TIP3   OH239213   5.765   3.757   0.836  0.6872 -0.2649 -0.8194
 5933TIP3    H139214   5.773   3.790   0.746  0.0467  0.3305 -0.6670
 5933TIP3    H239215   5.812   3.673   0.835  0.7151 -0.2489 -1.7008
 5934TIP3   OH239216   3.380   0.005  13.352  0.0119 -0.1635 -0.1356
 5934TIP3    H139217   3.306   0.024  13.294  0.6708  1.7411 -0.4441
 5934TIP3    H239218   3.344   0.012  13.440 -0.1187  1.2875 -0.2692
 5935TIP3   OH239219   4.635   2.013   5.253 -0.0844  0.2257 -0.0386
 5935TIP3    H139220   4.697   2.013   5.181 -0.3672  0.6292 -0.2863
 5935TIP3    H239221   4.626   1.921   5.277  0.1410  0.1074 -0.4054
 5936TIP3   OH239222   6.519   1.188   5.707 -0.0688  0.1161 -0.5719
 5936TIP3    H139223   6.563   1.107   5.681  1.7557  0.3170  1.5873
 5936TIP3    H239224   6.538   1.197   5.801  0.0640  3.1897 -0.7849
 5937TIP3   OH239225   2.715   3.759  13.635 -0.4800 -0.4593 -0.1240
 5937TIP3    H139226   2.730   3.853  13.625 -3.2257  0.2708  1.4339
 5937TIP3    H239227   2.686   3.730  13.548  0.1496  0.1828 -0.5578
 5938TIP3   OH239228   4.873   4.148   6.130  0.1400  0.0049  0.4676
 5938TIP3    H139229   4.908   4.124   6.215 -2.2608 -1.5439  1.1437
 5938TIP3    H239230   4.863   4.065   6.084  0.4307  0.7192 -0.9504
 5939TIP3   OH239231   0.939   5.446   2.297 -0.0443 -0.3429 -0.5068
 5939TIP3    H139232   0.999   5.515   2.324 -0.0030 -0.2603 -0.8085
 5939TIP3    H239233   0.993   5.386   2.245 -0.0182 -0.7419 -0.0228
 5940TIP3   OH239234   2.986   3.963   5.616 -0.1482 -0.4987  0.2421
 5940TIP3    H139235   3.030   4.021   5.679  0.4187 -0.8886  0.2099
 5940TIP3    H239236   2.988   3.876   5.657 -0.9592 -0.5155  0.2734
 5941TIP3   OH239237   2.636   1.649  10.983 -0.2276 -0.0180 -0.1602
 5941TIP3    H139238   2.673   1.732  11.012 -0.9208  0.1972  0.1395
 5941TIP3    H239239   2.711   1.599  10.951  0.1500  0.8618 -0.6849
 5942TIP3   OH239240   0.674   4.854  12.725  0.0934 -0.7556  0.3073
 5942TIP3    H139241   0.707   4.899  12.804 -0.6541  0.9322 -0.2841
 5942TIP3    H239242   0.702   4.910  12.653 -1.3517 -0.9478 -0.4298
 5943TIP3   OH239243   1.490   0.499  15.499 -0.2933  0.0123  0.1600
 5943TIP3    H139244   1.573   0.454  15.483 -0.0767  0.2807  0.5359
 5943TIP3    H239245   1.462   0.469  15.585 -0.1087  0.6599  0.4474
 5944TIP3   OH239246   3.605   2.251  12.297 -0.0735 -0.0694  0.0480
 5944TIP3    H139247   3.533   2.189  12.285 -1.3593  0.8631  2.1789
 5944TIP3    H239248   3.564   2.326  12.342  2.0278  0.9631  0.3694
 5945TIP3   OH239249   1.806   2.338   3.357 -0.4064 -0.3783  0.3538
 5945TIP3    H139250   1.871   2.280   3.396 -0.3539 -1.9380 -1.8392
 5945TIP3    H239251   1.729   2.329   3.412  0.2242 -0.9877  1.1663
 5946TIP3   OH239252   4.661   1.543   5.069  0.2237  0.6434 -0.0509
 5946TIP3    H139253   4.613   1.545   4.986 -0.8345  0.5218  0.5487
 5946TIP3    H239254   4.651   1.453   5.100 -1.5017  1.2956  1.4066
 5947TIP3   OH239255   0.929   3.518  12.437  0.2116 -0.1524 -0.5904
 5947TIP3    H139256   0.944   3.562  12.520  0.2818 -1.9060  0.3661
 5947TIP3    H239257   0.972   3.574  12.372  1.5024  0.4617  0.7396
 5948TIP3   OH239258   4.428   6.043   1.571 -0.0693 -0.0961 -1.3049
 5948TIP3    H139259   4.333   6.046   1.560 -0.1065  0.5912 -0.8664
 5948TIP3    H239260   4.462   6.027   1.484 -0.4693  2.5582 -2.0589
 5949TIP3   OH239261   6.216   0.043  15.908  1.0698 -0.4833 -0.4769
 5949TIP3    H139262   6.248   0.087  15.829  0.0044 -0.7362 -1.0722
 5949TIP3    H239263   6.210  -0.049  15.883  0.7181 -0.5674 -0.0947
 5950TIP3   OH239264   6.175   3.632   3.519  0.2615 -0.6691 -0.5528
 5950TIP3    H139265   6.107   3.682   3.565 -1.3793 -2.7691 -0.5659
 5950TIP3    H239266   6.147   3.541   3.528  3.6332 -1.7441  0.3418
 5951TIP3   OH239267   4.242   4.117  11.916  0.2051  0.3581  0.6413
 5951TIP3    H139268   4.244   4.070  11.999  1.0352  0.8202  0.8876
 5951TIP3    H239269   4.321   4.170  11.916 -0.7821  1.8908  0.4326
 5952TIP3   OH239270   1.399   3.998   2.608 -0.2676 -0.5348 -0.0557
 5952TIP3    H139271   1.310   4.000   2.572 -0.0152  3.0864 -0.9298
 5952TIP3    H239272   1.450   3.951   2.542 -0.8821  0.8794 -1.6043
 5953TIP3   OH239273   2.087   1.314  13.635  0.5920 -0.4717 -0.5997
 5953TIP3    H139274   2.155   1.344  13.696 -0.2897 -1.9586  1.1940
 5953TIP3    H239275   2.088   1.219  13.641 -0.8597 -0.5834 -1.4400
 5954TIP3   OH239276   1.461   1.168   1.203 -0.2335 -0.8033  0.1836
 5954TIP3    H139277   1.380   1.128   1.172 -1.3681 -1.2257  3.2947
 5954TIP3    H239278   1.484   1.119   1.282  1.8649  0.6848  0.6006
 5955TIP3   OH239279   0.771   2.788  13.648  0.3469 -0.3120 -0.2298
 5955TIP3    H139280   0.678   2.775  13.631  0.3141 -0.2560 -0.0970
 5955TIP3    H239281   0.806   2.823  13.567  0.4303 -1.2047 -0.5929
 5956TIP3   OH239282   5.617   4.954  15.251  0.2021  0.0370 -0.1678
 5956TIP3    H139283   5.679   5.022  15.277  0.6052 -0.5977  0.5630
 5956TIP3    H239284   5.548   5.001  15.203  1.5564  0.6689 -1.5714
 5957TIP3   OH239285   2.871   5.441   1.373 -0.0672 -0.5361  0.1857
 5957TIP3    H139286   2.954   5.429   1.326  0.8057 -2.0699  1.9825
 5957TIP3    H239287   2.812   5.377   1.333 -0.0531 -0.2220 -0.3502
 5958TIP3   OH239288   2.620   5.994  16.692  0.0708  0.7186 -0.0932
 5958TIP3    H139289   2.683   5.947  16.637  0.3010  0.9036  0.0075
 5958TIP3    H239290   2.662   6.078  16.709 -0.1131  0.7614  0.1523
 5959TIP3   OH239291   5.814   6.351  11.859  0.1931 -0.8028 -0.1920
 5959TIP3    H139292   5.769   6.425  11.819 -1.1284 -1.0890  0.6766
 5959TIP3    H239293   5.901   6.384  11.881 -0.0554  0.2043 -0.6620
 5960TIP3   OH239294   0.915   5.492  14.585 -0.2280 -0.4210 -0.0952
 5960TIP3    H139295   0.910   5.509  14.491 -0.4431 -0.2108 -0.0461
 5960TIP3    H239296   0.835   5.531  14.620 -0.3319 -0.8341  0.1243
 5961TIP3   OH239297   3.077   3.122  15.076 -0.3235 -0.3029  0.1670
 5961TIP3    H139298   3.091   3.175  15.155  0.7747  1.8575 -1.3862
 5961TIP3    H239299   2.997   3.158  15.037 -0.2455 -0.6116 -0.2777
 5962TIP3   OH239300   4.138   3.726  12.443 -0.1781 -0.0023  0.0774
 5962TIP3    H139301   4.233   3.727  12.448  0.0524  2.3141 -2.4377
 5962TIP3    H239302   4.111   3.663  12.510  3.0463 -0.2123  1.3522
 5963TIP3   OH239303   6.661   5.191   1.743 -0.2008 -0.6299 -0.3773
 5963TIP3    H139304   6.682   5.282   1.762  1.9198 -1.4120  1.4250
 5963TIP3    H239305   6.639   5.190   1.650  1.2458  1.4808 -0.7951
 5964TIP3   OH239306   6.183   3.555   2.146 -0.1531  0.0447 -0.5597
 5964TIP3    H139307   6.247   3.539   2.077  0.4440  0.2774 -0.0629
 5964TIP3    H239308   6.235   3.575   2.224 -0.8210 -0.0230 -0.0855
 5965TIP3   OH239309   3.408   6.474   3.654  0.4204 -0.2515  0.0210
 5965TIP3    H139310   3.343   6.506   3.591 -1.2763  1.2594  2.3735
 5965TIP3    H239311   3.375   6.503   3.739  2.5962 -2.1918  1.6498
 5966TIP3   OH239312   5.037   1.343  10.570 -1.1646  0.3520 -0.0420
 5966TIP3    H139313   5.004   1.297  10.493 -2.1298  3.2644 -1.5088
 5966TIP3    H239314   4.987   1.306  10.643 -0.9311 -1.7683 -0.8650
 5967TIP3   OH239315   4.823   4.841   4.390 -0.2259 -0.0570 -0.2407
 5967TIP3    H139316   4.762   4.914   4.377 -0.4326 -0.1302  0.3085
 5967TIP3    H239317   4.841   4.809   4.301 -0.7463  0.1610 -0.4280
 5968TIP3   OH239318   5.384   3.790   5.839 -0.1031 -0.4150  0.4227
 5968TIP3    H139319   5.394   3.701   5.872  0.1643 -0.1310  1.1083
 5968TIP3    H239320   5.362   3.842   5.915  1.0005  0.3306  0.2471
 5969TIP3   OH239321   1.226   4.415  16.851  0.9252 -0.5278  0.2403
 5969TIP3    H139322   1.262   4.341  16.900  0.8145  0.3382  1.7016
 5969TIP3    H239323   1.300   4.446  16.798  1.2255 -1.1336  0.2977
 5970TIP3   OH239324   3.321   6.423  14.089 -0.2341 -0.1530  0.1180
 5970TIP3    H139325   3.303   6.487  14.158  0.7058 -0.7102  0.9154
 5970TIP3    H239326   3.332   6.474  14.010  0.5136  0.6877  0.7448
 5971TIP3   OH239327   6.029   5.310   3.673 -0.3428  0.2741 -0.5643
 5971TIP3    H139328   6.123   5.326   3.677 -0.0770 -1.2085 -0.1489
 5971TIP3    H239329   6.014   5.278   3.584 -0.5195  0.8569 -0.7457
 5972TIP3   OH239330   5.990   5.815  11.951  0.2719  0.3134  0.4513
 5972TIP3    H139331   6.000   5.721  11.967 -0.9716  0.3326  1.5191
 5972TIP3    H239332   5.984   5.823  11.856  1.1201 -0.5988  0.3065
 5973TIP3   OH239333   4.269   5.305   3.846 -0.0175  0.7333  0.2878
 5973TIP3    H139334   4.322   5.285   3.768 -0.3548  1.3173 -0.0941
 5973TIP3    H239335   4.188   5.257   3.832  0.7288 -0.9129  1.3064
 5974TIP3   OH239336   0.277   2.156  12.989 -0.3792  1.1605  0.3688
 5974TIP3    H139337   0.253   2.136  13.079 -1.7640  0.4771 -0.1195
 5974TIP3    H239338   0.193   2.168  12.944  0.2490  0.3276 -1.0871
 5975TIP3   OH239339   2.607   4.431   4.022  0.0997 -0.7938 -0.3085
 5975TIP3    H139340   2.535   4.370   4.038 -0.4519  0.0449  0.5438
 5975TIP3    H239341   2.593   4.502   4.085  1.2377 -0.2283 -0.6522
 5976TIP3   OH239342   6.650   4.415  13.020 -0.4307 -0.0398 -0.1240
 5976TIP3    H139343   6.728   4.432  13.073  0.0202 -0.4490 -0.6318
 5976TIP3    H239344   6.650   4.484  12.953  0.4988 -1.0263 -1.1975
 5977TIP3   OH239345   2.691   2.760   4.885 -0.5134 -0.0001 -0.0327
 5977TIP3    H139346   2.766   2.770   4.827 -0.6402  1.4303  0.0104
 5977TIP3    H239347   2.689   2.666   4.906 -0.4195 -0.5406 -2.2361
 5978TIP3   OH239348   4.486   5.996  12.937  0.8736  0.5683  0.9760
 5978TIP3    H139349   4.574   6.025  12.910  1.5689 -1.5341  0.7840
 5978TIP3    H239350   4.501   5.947  13.018  0.1747 -1.2983  0.0417
 5979TIP3   OH239351   1.630   5.733  11.762 -0.4638 -0.0730 -0.2054
 5979TIP3    H139352   1.723   5.719  11.783 -0.8239 -0.1607  1.5015
 5979TIP3    H239353   1.629   5.815  11.713  0.5240 -0.0406 -0.1955
 5980TIP3   OH239354   6.010   0.284  14.673  0.3653 -0.4328  0.1225
 5980TIP3    H139355   5.925   0.313  14.641  0.9540  1.1752 -0.0858
 5980TIP3    H239356   6.002   0.189  14.681 -0.1613 -0.8692 -3.7746
 5981TIP3   OH239357   4.779   4.152  16.753  0.1539 -0.0671  0.1382
 5981TIP3    H139358   4.754   4.238  16.722  1.6838  0.1038 -0.7160
 5981TIP3    H239359   4.745   4.091  16.687 -1.1268 -0.1859  0.8572
 5982TIP3   OH239360   3.391   6.044  12.171  0.0372  0.1285  0.5741
 5982TIP3    H139361   3.478   6.040  12.212  0.1285  1.5306  0.5871
 5982TIP3    H239362   3.408   6.027  12.078  0.5510  1.6348  0.3547
 5983TIP3   OH239363   1.880   2.862   4.267  0.8945 -0.0595 -0.3396
 5983TIP3    H139364   1.950   2.922   4.244  0.0027  0.9005 -0.6106
 5983TIP3    H239365   1.801   2.916   4.269  0.2636 -0.9637  0.6866
 5984TIP3   OH239366   1.322   5.309  13.047 -0.1137  0.2603 -0.5850
 5984TIP3    H139367   1.251   5.370  13.068 -1.6320 -1.7384  0.4953
 5984TIP3    H239368   1.353   5.279  13.133  2.2491  1.2241 -1.0297
 5985TIP3   OH239369   6.380   5.208   5.658 -0.3943 -0.0003  0.7311
 5985TIP3    H139370   6.294   5.185   5.623 -1.1423  2.5830  0.6852
 5985TIP3    H239371   6.434   5.220   5.580 -0.2288 -0.6914  0.7307
 5986TIP3   OH239372   5.725   6.288  14.884  0.6855  0.0106  0.3630
 5986TIP3    H139373   5.720   6.347  14.960 -1.0408 -1.6065  1.5890
 5986TIP3    H239374   5.646   6.306  14.834  0.2029 -1.1361  0.6831
 5987TIP3   OH239375   2.511   1.208  15.841  0.8148  0.0132  0.1609
 5987TIP3    H139376   2.416   1.203  15.834  0.6752  0.6281  1.3642
 5987TIP3    H239377   2.543   1.126  15.801 -0.2539 -0.5612  0.4494
 5988TIP3   OH239378   4.925   5.244   2.089  0.0985 -0.1684  0.4276
 5988TIP3    H139379   4.905   5.201   2.172 -1.8744  0.0852  0.1347
 5988TIP3    H239380   5.017   5.223   2.072 -0.4224 -3.1919  0.9120
 5989TIP3   OH239381   0.464   2.883   4.399 -1.1379 -0.5581 -0.2488
 5989TIP3    H139382   0.482   2.955   4.460 -0.2561 -0.3999 -0.6750
 5989TIP3    H239383   0.480   2.804   4.451  0.1263 -0.4210 -0.3937
 5990TIP3   OH239384   1.588   2.462   4.232  0.0816 -0.1174 -0.2872
 5990TIP3    H139385   1.591   2.374   4.195 -1.3778  0.6090 -2.2782
 5990TIP3    H239386   1.501   2.494   4.211 -0.0115  1.2401  1.8674
 5991TIP3   OH239387   2.999   6.755   2.021 -0.2484 -0.4413 -0.3303
 5991TIP3    H139388   2.969   6.737   2.110  1.6553 -0.3120  0.3814
 5991TIP3    H239389   3.024   6.669   1.986 -2.5230 -0.7375 -1.3925
 5992TIP3   OH239390   4.357   1.405  14.661  0.0762  0.1136 -0.6620
 5992TIP3    H139391   4.293   1.337  14.638 -1.0572  1.3828 -1.4354
 5992TIP3    H239392   4.381   1.386  14.751  0.4569 -1.8031 -1.1219
 5993TIP3   OH239393   3.827   3.491  10.631  0.1169 -0.3553 -0.4060
 5993TIP3    H139394   3.749   3.470  10.682 -0.3194 -0.4815 -1.1075
 5993TIP3    H239395   3.896   3.503  10.696 -0.3206 -0.9671  0.1809
 5994TIP3   OH239396   3.105   2.963   2.540  0.0768 -0.0959  0.1303
 5994TIP3    H139397   3.200   2.950   2.537 -0.0400 -0.8419 -0.8128
 5994TIP3    H239398   3.075   2.940   2.452 -0.9610  0.3082  0.3674
 5995TIP3   OH239399   0.149   3.095  12.055  0.0893  0.2685 -0.0742
 5995TIP3    H139400   0.218   3.139  12.005 -1.1184 -0.7972 -2.8281
 5995TIP3    H239401   0.087   3.164  12.077  0.7797  0.7989  0.2539
 5996TIP3   OH239402   3.230   4.081   3.848 -0.4098  0.1871  0.5512
 5996TIP3    H139403   3.311   4.036   3.873 -0.4246  0.4319  1.0428
 5996TIP3    H239404   3.214   4.053   3.757 -1.2763 -2.0577  1.3208
 5997TIP3   OH239405   4.735   4.132   2.629 -0.1424 -0.1170 -0.8411
 5997TIP3    H139406   4.697   4.095   2.709  1.3705  1.2758  0.5819
 5997TIP3    H239407   4.758   4.056   2.576  1.8580 -1.2471  1.4943
 5998TIP3   OH239408   6.518   5.298   2.416 -0.3429  0.0476 -0.4248
 5998TIP3    H139409   6.436   5.348   2.423 -1.0662 -1.2074  0.3846
 5998TIP3    H239410   6.586   5.361   2.439 -1.3851  0.2330  2.6951
 5999TIP3   OH239411   5.030   4.458   4.165 -0.0648  0.0470  0.8785
 5999TIP3    H139412   5.098   4.524   4.152  1.1377 -1.2505  0.3352
 5999TIP3    H239413   5.051   4.419   4.250  0.8617 -1.4209  0.0223
 6000TIP3   OH239414   5.146   1.197  14.425 -0.0659 -0.2476 -0.4162
 6000TIP3    H139415   5.103   1.116  14.397  1.4150 -1.2783  0.1453
 6000TIP3    H239416   5.215   1.211  14.360 -1.4335  1.6406 -1.5745
 6001TIP3   OH239417   5.513   3.099  16.154 -0.7316 -0.0790 -0.2063
 6001TIP3    H139418   5.447   3.078  16.220 -0.0635  0.1186  0.5465
 6001TIP3    H239419   5.594   3.111  16.204  0.0401 -1.0438 -1.1796
 6002TIP3   OH239420   5.756   5.268   2.389  0.0031 -0.8453 -1.0047
 6002TIP3    H139421   5.762   5.359   2.416  3.7101 -0.7530 -1.6213
 6002TIP3    H239422   5.671   5.239   2.421 -1.6503  2.9791 -1.4455
 6003TIP3   OH239423   0.660   4.125   4.343 -0.3219  0.2457  0.6125
 6003TIP3    H139424   0.614   4.144   4.424  1.6391  1.5693  1.4792
 6003TIP3    H239425   0.710   4.204   4.323  2.9465 -1.5946  0.7277
 6004TIP3   OH239426   0.103   4.911   5.739  0.1484  0.1159 -0.4200
 6004TIP3    H139427   0.171   4.959   5.692 -0.5252  0.7311 -0.7895
 6004TIP3    H239428   0.097   4.955   5.824 -0.2212  0.4812 -0.6270
 6005TIP3   OH239429   2.206   3.592   3.149  0.0913  0.1990  0.4404
 6005TIP3    H139430   2.199   3.564   3.058 -1.3128 -1.4118  0.9922
 6005TIP3    H239431   2.274   3.536   3.187  0.7760  0.9642  0.3745
 6006TIP3   OH239432   4.834   5.210  16.250 -0.3179  0.3085  0.1265
 6006TIP3    H139433   4.922   5.175  16.264 -1.2142 -1.1812  2.6451
 6006TIP3    H239434   4.779   5.133  16.237 -1.4808  1.1150  0.0957
 6007TIP3   OH239435   4.384   5.426   1.557 -0.0296 -0.2629  0.1300
 6007TIP3    H139436   4.476   5.444   1.577  0.1750  0.9763 -1.6200
 6007TIP3    H239437   4.345   5.401   1.640  1.7259 -0.0559  1.0552
 6008TIP3   OH239438   5.300   4.513  10.976  0.2305  0.5346  0.1751
 6008TIP3    H139439   5.337   4.425  10.980 -0.2896  0.2350 -1.0769
 6008TIP3    H239440   5.265   4.520  10.887 -1.0923  1.4657  0.7390
 6009TIP3   OH239441   1.769   5.117   3.126 -0.3696 -0.3603  0.0925
 6009TIP3    H139442   1.735   5.078   3.045 -2.2821 -0.5960  0.9392
 6009TIP3    H239443   1.696   5.170   3.159  0.0437 -0.9570  2.0776
 6010TIP3   OH239444   1.080   2.932   4.916  0.0952  0.4147 -0.4996
 6010TIP3    H139445   0.992   2.958   4.890 -0.8653 -1.6920  0.3726
 6010TIP3    H239446   1.069   2.891   5.002  2.1134  1.0448  0.1182
 6011TIP3   OH239447   0.903   5.647   3.043 -0.5594 -0.2707  0.1274
 6011TIP3    H139448   0.888   5.576   3.106 -0.2644  0.2780  0.8365
 6011TIP3    H239449   0.977   5.696   3.080  0.4088 -0.6248 -1.2575
 6012TIP3   OH239450   3.755   6.066  13.256 -0.9137 -0.6397  0.1238
 6012TIP3    H139451   3.683   6.034  13.311 -0.6316  0.7380  1.3468
 6012TIP3    H239452   3.752   6.161  13.266  0.5956 -0.5163 -0.4414
 6013TIP3   OH239453   1.143   6.577   3.792  0.0482 -0.3417 -0.0923
 6013TIP3    H139454   1.076   6.557   3.858  0.3432 -0.8603  0.0573
 6013TIP3    H239455   1.225   6.546   3.831  0.3179 -0.0642 -0.4367
 6014TIP3   OH239456   3.290   3.344   5.062  0.1013 -1.0271  1.2056
 6014TIP3    H139457   3.349   3.410   5.025  3.3793 -4.1577  0.2521
 6014TIP3    H239458   3.214   3.344   5.003  0.5217  1.0370  0.5979
 6015TIP3   OH239459   4.736   2.651  11.031  0.3336 -0.2124 -0.2597
 6015TIP3    H139460   4.696   2.682  10.950 -1.2890  0.1654  0.6415
 6015TIP3    H239461   4.721   2.557  11.032 -1.3270  0.0179  0.4283
 6016TIP3   OH239462   2.945   2.827   3.538  0.4290  0.1983  0.1599
 6016TIP3    H139463   2.963   2.909   3.492  1.3687 -0.0345  0.1034
 6016TIP3    H239464   2.850   2.825   3.546  0.4399  1.8473  1.1557
 6017TIP3   OH239465   5.005   2.319  12.898 -0.0351  0.0402  0.0404
 6017TIP3    H139466   5.051   2.379  12.839 -1.0027  0.1668 -0.6088
 6017TIP3    H239467   5.035   2.344  12.985  0.8639  0.3332 -0.3350
 6018TIP3   OH239468   6.465   2.632   5.421  0.4374 -0.2137  0.2780
 6018TIP3    H139469   6.441   2.613   5.512  0.6565  1.7604  0.7915
 6018TIP3    H239470   6.382   2.658   5.380  0.2776 -1.4272 -0.1974
 6019TIP3   OH239471   6.052   4.230   5.280  0.0571  0.2029 -0.2318
 6019TIP3    H139472   6.055   4.178   5.360  2.4802  0.1086 -0.3047
 6019TIP3    H239473   6.084   4.316   5.305  0.1328  0.3929 -0.9485
 6020TIP3   OH239474   4.133   5.766  15.969  1.1086  0.1805 -0.5856
 6020TIP3    H139475   4.089   5.826  16.030  1.6502  0.3374 -0.3393
 6020TIP3    H239476   4.078   5.688  15.968  0.5271  0.5869 -0.7153
 6021TIP3   OH239477   5.693   4.585  12.886 -0.0330 -0.5023 -0.1273
 6021TIP3    H139478   5.779   4.544  12.885 -1.0614 -2.8135 -0.4658
 6021TIP3    H239479   5.668   4.592  12.794 -0.2627  0.0264 -0.0287
 6022TIP3   OH239480   2.224   2.990  16.617 -0.2492 -0.8047 -0.1634
 6022TIP3    H139481   2.264   2.946  16.692 -1.9993 -0.5128  0.9851
 6022TIP3    H239482   2.201   3.077  16.649 -1.5166 -0.8676 -0.8674
 6023TIP3   OH239483   4.046   2.618   0.680 -0.2991 -0.1071  0.0342
 6023TIP3    H139484   3.982   2.679   0.644 -1.0121  0.0383  1.4881
 6023TIP3    H239485   4.118   2.673   0.712 -1.0786  0.0346  1.6209
 6024TIP3   OH239486   1.733   5.268  15.244 -0.0383  0.0230  0.1641
 6024TIP3    H139487   1.707   5.203  15.178 -0.4776 -0.1518  0.5091
 6024TIP3    H239488   1.825   5.247  15.262  0.2927  0.4922 -0.8837
 6025TIP3   OH239489   6.575   6.566   5.687 -0.2133 -0.0661  0.0663
 6025TIP3    H139490   6.576   6.536   5.596 -0.9598 -0.8324  0.2933
 6025TIP3    H239491   6.497   6.524   5.724  0.3900 -0.2085  1.2009
 6026TIP3   OH239492   0.220   2.718  16.621 -0.4311 -0.0270 -0.4213
 6026TIP3    H139493   0.291   2.665  16.585 -0.1509  0.8851 -1.2598
 6026TIP3    H239494   0.226   2.704  16.715 -1.0392 -2.3033 -0.6647
 6027TIP3   OH239495   0.759   0.264  12.237  0.2310 -0.5206  0.3648
 6027TIP3    H139496   0.728   0.215  12.161  1.2278  0.8940 -1.0310
 6027TIP3    H239497   0.721   0.352  12.226  1.4340  0.0704  0.7864
 6028TIP3   OH239498   6.527   5.641  15.617 -0.0498 -0.3210 -0.1543
 6028TIP3    H139499   6.606   5.621  15.668 -0.3768 -0.4135  0.3155
 6028TIP3    H239500   6.558   5.701  15.549  0.3442  0.0067  0.3015
 6029TIP3   OH239501   5.016   2.396   3.749 -0.1572 -0.4649 -0.8402
 6029TIP3    H139502   4.984   2.308   3.770  1.5070 -0.8472  0.3204
 6029TIP3    H239503   5.002   2.405   3.655 -2.3092 -1.1135 -0.6265
 6030TIP3   OH239504   1.473   1.780  14.925  0.1522 -0.3591 -0.0587
 6030TIP3    H139505   1.395   1.816  14.881  1.0632  2.1671  0.2309
 6030TIP3    H239506   1.438   1.723  14.993 -1.5417  1.2742  0.5406
 6031TIP3   OH239507   5.798   5.374   1.448 -0.3552 -0.0733 -0.2930
 6031TIP3    H139508   5.819   5.283   1.426 -1.3872 -0.3819 -0.0489
 6031TIP3    H239509   5.847   5.391   1.529  0.7220 -0.0348 -0.9307
 6032TIP3   OH239510   5.840   6.397   2.111  0.2339 -0.0199 -0.6075
 6032TIP3    H139511   5.923   6.349   2.116 -0.0207 -0.3633  0.6217
 6032TIP3    H239512   5.773   6.329   2.105 -0.0946  0.1563  0.6395
 6033TIP3   OH239513   2.521   4.929  13.313  0.4720 -1.0903 -0.7236
 6033TIP3    H139514   2.445   4.965  13.268  0.0513 -2.2840 -1.0224
 6033TIP3    H239515   2.503   4.943  13.406  0.8016  0.3454 -0.8546
 6034TIP3   OH239516   3.214   0.036  14.026 -0.5874  0.2460 -0.8247
 6034TIP3    H139517   3.252   0.026  13.939 -0.6412  0.2460 -0.8488
 6034TIP3    H239518   3.287   0.018  14.086 -0.3442  1.0484 -0.8721
 6035TIP3   OH239519   4.947   6.357   1.001  0.2029 -0.1910 -0.1623
 6035TIP3    H139520   4.970   6.309   0.921 -1.3695 -0.9080 -0.2129
 6035TIP3    H239521   5.010   6.430   1.004  2.1234 -1.7491 -0.5239
 6036TIP3   OH239522   0.972   1.604   0.230  0.0533  0.3452  0.4660
 6036TIP3    H139523   0.995   1.558   0.149  0.6286 -1.5408  1.6307
 6036TIP3    H239524   0.882   1.634   0.215 -0.0268 -0.3951 -0.6943
 6037TIP3   OH239525   3.104   5.135  12.068 -0.1750  0.2007  0.0205
 6037TIP3    H139526   3.054   5.211  12.039  2.6701  0.8174 -4.3604
 6037TIP3    H239527   3.125   5.153  12.160 -1.6121  3.4990 -0.1538
 6038TIP3   OH239528   6.195   3.922  13.522  0.5398 -0.1777  0.4906
 6038TIP3    H139529   6.288   3.907  13.509  0.4147 -1.9042  1.2638
 6038TIP3    H239530   6.173   3.993  13.461  2.5037  0.8800  0.9344
 6039TIP3   OH239531   4.373   0.788   5.204 -0.4251  0.5152 -0.6079
 6039TIP3    H139532   4.445   0.830   5.250  0.3866  0.5858 -1.9094
 6039TIP3    H239533   4.358   0.707   5.253  1.4572 -0.1722 -1.0766
 6040TIP3   OH239534   4.121   6.743  13.621 -0.5159  0.4677 -0.3360
 6040TIP3    H139535   4.091   6.667  13.672 -0.0142  2.0562  2.5668
 6040TIP3    H239536   4.049   6.762  13.562 -1.4025 -1.1786  0.1509
 6041TIP3   OH239537   0.059   6.353  14.605 -0.0775 -0.2457 -0.2294
 6041TIP3    H139538   0.115   6.378  14.679 -0.5633 -0.1443  0.1085
 6041TIP3    H239539   0.034   6.262  14.624 -1.4105  0.2478  0.5087
 6042TIP3   OH239540   1.935   2.728   1.382 -0.6608 -0.2986  0.0834
 6042TIP3    H139541   1.898   2.646   1.349  0.2325  0.2190 -2.4726
 6042TIP3    H239542   1.867   2.793   1.366 -0.0482  0.0388 -1.3325
 6043TIP3   OH239543   6.678   2.592   2.128 -0.3166 -0.0156 -0.1127
 6043TIP3    H139544   6.674   2.565   2.220  0.5144  1.0790  0.2679
 6043TIP3    H239545   6.604   2.547   2.087 -0.0695 -1.3635  0.8494
 6044TIP3   OH239546   5.648   3.291  14.536 -0.0761  0.2751 -0.3474
 6044TIP3    H139547   5.725   3.305  14.591 -1.3623 -0.3181  1.6774
 6044TIP3    H239548   5.623   3.380  14.509  0.0698  0.6545  0.7273
 6045TIP3   OH239549   3.679   1.015  11.220 -0.0225 -0.2778 -0.7320
 6045TIP3    H139550   3.696   0.942  11.159  2.8192 -0.9629  0.6972
 6045TIP3    H239551   3.766   1.048  11.242 -1.0261  0.8537  1.8819
 6046TIP3   OH239552   3.554   3.453  16.872  0.3216  0.2420  0.4018
 6046TIP3    H139553   3.496   3.528  16.881 -1.6566 -1.2076  0.3198
 6046TIP3    H239554   3.535   3.398  16.948  0.3251 -1.0891 -0.5354
 6047TIP3   OH239555   4.898   1.247  16.265 -0.4971  0.4650  0.4615
 6047TIP3    H139556   4.836   1.266  16.194  0.6063  0.5608 -0.4893
 6047TIP3    H239557   4.984   1.252  16.225  0.0700 -1.8131  1.2783
 6048TIP3   OH239558   2.368   0.100  15.693  0.4288  0.4573 -0.4095
 6048TIP3    H139559   2.373   0.138  15.780  1.2649 -0.2110 -0.1600
 6048TIP3    H239560   2.280   0.063  15.688  0.8308 -0.6774  0.6557
 6049TIP3   OH239561   4.141   4.391  11.872 -0.2772  0.3997  0.2181
 6049TIP3    H139562   4.202   4.451  11.914  0.3118  0.0632 -0.1425
 6049TIP3    H239563   4.135   4.317  11.931  0.5376 -0.0662 -0.2700
 6050TIP3   OH239564   3.039   4.159   2.522 -0.0825  0.4448  0.6280
 6050TIP3    H139565   2.987   4.083   2.547  0.7941 -0.3175  0.1884
 6050TIP3    H239566   3.129   4.127   2.519  0.5852  1.9822  2.3474
 6051TIP3   OH239567   5.487   6.717  16.779 -0.7377  0.0433 -0.1768
 6051TIP3    H139568   5.401   6.746  16.749 -1.3423 -2.2090 -0.7551
 6051TIP3    H239569   5.511   6.646  16.720  0.8899 -0.3394  0.8728
 6052TIP3   OH239570   0.477   0.825  12.432 -0.5068  0.2333 -0.1748
 6052TIP3    H139571   0.446   0.903  12.387  0.9181  0.0346 -1.5948
 6052TIP3    H239572   0.519   0.773  12.364  0.3719 -0.8173  1.1076
 6053TIP3   OH239573   1.157   1.878  16.851  0.3453 -0.3775  0.0271
 6053TIP3    H139574   1.069   1.882  16.887  0.5317 -1.2263  0.6116
 6053TIP3    H239575   1.151   1.921  16.766 -0.6610 -0.5921 -0.0160
 6054TIP3   OH239576   4.010   1.579   2.135 -0.7661 -0.0914 -0.5886
 6054TIP3    H139577   4.082   1.633   2.103  0.1659 -0.0989  1.3315
 6054TIP3    H239578   4.046   1.533   2.211 -1.7849 -2.7835 -1.6064
 6055TIP3   OH239579   3.003   2.288   2.846  0.1058 -0.6963 -0.1713
 6055TIP3    H139580   3.041   2.284   2.758  0.9559 -1.0724  0.1959
 6055TIP3    H239581   2.949   2.210   2.853 -0.7574 -0.1667 -0.6944
 6056TIP3   OH239582   3.435   0.387  15.420  0.2937 -0.2480  0.1670
 6056TIP3    H139583   3.472   0.317  15.367  2.7180 -0.5099  2.0139
 6056TIP3    H239584   3.509   0.445  15.438 -1.0853  1.3947  0.8702
 6057TIP3   OH239585   5.930   1.257  17.039 -0.4852  0.2984  0.4999
 6057TIP3    H139586   5.915   1.344  17.002  1.3621  1.1657  1.6632
 6057TIP3    H239587   5.867   1.201  16.994 -0.8712  1.9857 -1.1890
 6058TIP3   OH239588   1.258   1.729  13.696  0.0645 -0.1976  0.2164
 6058TIP3    H139589   1.235   1.718  13.603  0.6616 -2.3114  0.2606
 6058TIP3    H239590   1.202   1.667  13.742 -0.6244  1.2328  1.3738
 6059TIP3   OH239591   1.454   5.916   3.542  0.8210 -0.1784 -0.3117
 6059TIP3    H139592   1.376   5.921   3.598  0.2743  2.5541 -1.1392
 6059TIP3    H239593   1.525   5.948   3.598  0.4290  1.7445 -0.8386
 6060TIP3   OH239594   5.798   2.009   1.125 -0.1044 -0.0800  0.1218
 6060TIP3    H139595   5.839   1.980   1.206 -1.2450 -1.1897  0.3376
 6060TIP3    H239596   5.823   1.944   1.060  0.9902  0.9277 -0.4968
 6061TIP3   OH239597   5.598   0.676  12.894 -0.0039  0.3707 -0.1392
 6061TIP3    H139598   5.612   0.680  12.989  0.9410  0.9193 -0.2909
 6061TIP3    H239599   5.671   0.726  12.857  0.1061 -0.5448 -1.1960
 6062TIP3   OH239600   2.584   1.557  14.994 -0.3402  0.0098  0.3349
 6062TIP3    H139601   2.490   1.550  14.978 -0.2372 -0.4257 -0.0901
 6062TIP3    H239602   2.623   1.560  14.907  0.0257  0.4428  0.5094
 6063TIP3   OH239603   4.253   3.213   0.154 -0.1675 -0.0422  1.0219
 6063TIP3    H139604   4.184   3.156   0.188  0.1053 -0.3917  0.9961
 6063TIP3    H239605   4.259   3.190   0.061 -1.6277  1.6302  0.4611
 6064TIP3   OH239606   4.690   1.001  16.674 -0.5205  0.6462  0.7023
 6064TIP3    H139607   4.734   1.067  16.620 -0.5145 -0.2256 -0.4084
 6064TIP3    H239608   4.597   1.020  16.664 -0.4784  1.4303  1.6575
 6065TIP3   OH239609   6.004   0.503  14.141  0.2006  0.2047  0.1167
 6065TIP3    H139610   6.048   0.424  14.110 -0.7282 -0.4690  0.4645
 6065TIP3    H239611   5.919   0.472  14.174 -1.3096  1.6411 -2.0897
 6066TIP3   OH239612   0.460   5.122   2.129  0.4228 -1.0578 -0.9637
 6066TIP3    H139613   0.488   5.093   2.216 -0.5267 -3.1974 -1.3220
 6066TIP3    H239614   0.374   5.162   2.144  0.2439 -1.4570 -0.9030
 6067TIP3   OH239615   4.568   0.569   4.928  0.1788 -0.1454  0.4243
 6067TIP3    H139616   4.574   0.662   4.949  0.6655  0.8323 -3.4007
 6067TIP3    H239617   4.645   0.551   4.875 -0.8106 -2.2868 -0.3922
 6068TIP3   OH239618   1.167   5.591   2.513  0.4666 -0.0464  0.4426
 6068TIP3    H139619   1.232   5.633   2.457 -0.7048  0.7741 -0.3363
 6068TIP3    H239620   1.143   5.658   2.577  1.0294 -0.6391  1.2911
 6069TIP3   OH239621   5.037   3.489   4.299 -0.1971  0.2421  0.1209
 6069TIP3    H139622   5.075   3.550   4.235  0.3264 -0.4578 -0.2477
 6069TIP3    H239623   5.106   3.425   4.314 -0.1311  0.6670  1.7841
 6070TIP3   OH239624   2.131   0.788  15.564  0.2399  0.5390  0.2076
 6070TIP3    H139625   2.115   0.847  15.638 -0.7449  0.8447 -0.2336
 6070TIP3    H239626   2.138   0.846  15.489 -0.9501  0.0948 -0.2656
 6071TIP3   OH239627   3.341   1.992  12.640 -0.3597  0.5192  0.2735
 6071TIP3    H139628   3.261   1.958  12.600  0.5612  0.3969 -1.5099
 6071TIP3    H239629   3.311   2.071  12.687 -1.7945 -0.4633  1.1178
 6072TIP3   OH239630   3.475   1.556  11.250 -0.2312 -0.1891  0.2843
 6072TIP3    H139631   3.518   1.609  11.318  1.0728  0.5512 -1.0719
 6072TIP3    H239632   3.514   1.469  11.258 -0.4819 -0.2559  0.8249
 6073TIP3   OH239633   2.272   5.498   1.319 -0.2171  0.0701  0.1282
 6073TIP3    H139634   2.238   5.433   1.258  0.5042 -1.1529  0.9777
 6073TIP3    H239635   2.216   5.575   1.307  0.1402  0.0115 -2.3288
 6074TIP3   OH239636   1.297   3.170  13.513 -0.3238 -0.0496  0.0262
 6074TIP3    H139637   1.217   3.119  13.517 -1.0028  0.9869 -0.0276
 6074TIP3    H239638   1.333   3.152  13.427 -0.9580  0.1431 -0.2833
 6075TIP3   OH239639   0.345   4.590   6.400 -0.2149 -0.3182 -0.3930
 6075TIP3    H139640   0.383   4.605   6.487 -2.6964  2.4838  0.3854
 6075TIP3    H239641   0.395   4.647   6.342 -0.1002 -0.3766 -0.3532
 6076TIP3   OH239642   1.097   4.824  13.331  0.5874  0.3398  0.1093
 6076TIP3    H139643   1.075   4.885  13.401 -0.0776  0.0239  0.1867
 6076TIP3    H239644   1.111   4.740  13.376 -4.0698 -0.9955 -0.3786
 6077TIP3   OH239645   6.704   3.327  14.975 -0.1670 -0.6940 -0.8173
 6077TIP3    H139646   6.674   3.320  14.884 -0.3399 -1.0327 -0.7368
 6077TIP3    H239647   6.780   3.384  14.970 -0.8318  0.2078 -1.0222
 6078TIP3   OH239648   1.594   2.060   3.475 -0.0962  0.1191  0.6143
 6078TIP3    H139649   1.505   2.075   3.507 -0.0967  1.7903 -0.0733
 6078TIP3    H239650   1.588   2.068   3.380  0.9773  1.5629  0.6324
 6079TIP3   OH239651   3.493   6.019  13.402 -0.3664  0.5927 -0.1584
 6079TIP3    H139652   3.453   6.083  13.460  0.5868  0.6923  0.4137
 6079TIP3    H239653   3.510   5.943  13.459  1.0757  0.8915 -0.1440
 6080TIP3   OH239654   3.296   2.457   5.730  0.5398 -0.1059 -0.6283
 6080TIP3    H139655   3.278   2.527   5.668  1.8874 -0.1592 -1.0936
 6080TIP3    H239656   3.282   2.376   5.680 -2.5600 -0.2855  0.3145
 6081TIP3   OH239657   0.240   3.530   6.303  0.3803  0.3330  0.2049
 6081TIP3    H139658   0.299   3.544   6.377 -1.0768  1.9857  1.1161
 6081TIP3    H239659   0.212   3.439   6.311 -0.5287  0.7315  2.3322
 6082TIP3   OH239660   1.892   0.805   4.390  0.4560  0.8192 -0.2292
 6082TIP3    H139661   1.973   0.839   4.426 -0.8336 -0.0457  4.0530
 6082TIP3    H239662   1.899   0.710   4.400 -1.3578  0.7720  1.1466
 6083TIP3   OH239663   3.728   1.663  15.479  0.0684 -0.8384  0.3044
 6083TIP3    H139664   3.696   1.699  15.562 -1.4556  0.5591 -0.8248
 6083TIP3    H239665   3.668   1.698  15.413  2.0382 -0.7880 -1.5665
 6084TIP3   OH239666   0.350   0.154  15.900 -0.1702  0.3757 -0.7971
 6084TIP3    H139667   0.310   0.174  15.985 -2.1863  2.1476 -2.0563
 6084TIP3    H239668   0.281   0.110  15.851  0.4930  0.6029 -1.9709
 6085TIP3   OH239669   4.887   4.999   2.488 -0.1345  0.0170  0.4566
 6085TIP3    H139670   4.950   4.928   2.477 -1.5742 -1.2866  0.1816
 6085TIP3    H239671   4.856   5.017   2.399 -0.4163  0.3632  0.6217
 6086TIP3   OH239672   5.536   2.865  15.225  0.3406  0.7815  0.5471
 6086TIP3    H139673   5.505   2.924  15.156 -1.7377 -2.1989 -1.3468
 6086TIP3    H239674   5.465   2.864  15.289  0.4613  0.5096  0.6776
 6087TIP3   OH239675   5.773   3.016  12.163 -0.4039  0.4356 -0.0063
 6087TIP3    H139676   5.725   2.976  12.236 -0.3386  1.1848  0.4616
 6087TIP3    H239677   5.864   2.989  12.177 -0.6706 -1.0088 -0.9098
 6088TIP3   OH239678   0.143   6.412  11.449  0.2552  0.6630  1.0581
 6088TIP3    H139679   0.161   6.337  11.505  1.1921 -0.3089 -0.4557
 6088TIP3    H239680   0.230   6.446  11.426  0.1098 -0.5579 -1.7895
 6089TIP3   OH239681   2.256   1.775  15.758 -0.9566  0.2827 -0.1011
 6089TIP3    H139682   2.237   1.837  15.687 -0.6969  0.0660 -0.3637
 6089TIP3    H239683   2.305   1.705  15.716  0.4637  0.8354  0.5370
 6090TIP3   OH239684   1.314   0.844   5.559 -0.5877 -0.2587 -0.1808
 6090TIP3    H139685   1.269   0.804   5.634 -0.4976  1.5504  0.9016
 6090TIP3    H239686   1.397   0.873   5.595  0.9455 -2.2899 -1.8248
 6091TIP3   OH239687   2.979   5.938  14.533 -0.2864 -0.1042  0.5480
 6091TIP3    H139688   3.070   5.964  14.539 -0.3141  0.0024  0.5045
 6091TIP3    H239689   2.958   5.943  14.440 -0.7472  1.2803  0.6944
 6092TIP3   OH239690   5.672   6.113   5.965 -0.1508 -0.6819 -0.7177
 6092TIP3    H139691   5.761   6.129   5.936 -0.0045 -0.4726 -0.1675
 6092TIP3    H239692   5.665   6.158   6.049 -0.8237 -0.5631 -0.8269
 6093TIP3   OH239693   4.149   1.871   5.493  0.3887  0.1946  0.7417
 6093TIP3    H139694   4.072   1.872   5.437 -0.3852 -1.1875  1.7270
 6093TIP3    H239695   4.202   1.798   5.460  0.2132 -0.2459  1.4042
 6094TIP3   OH239696   5.460   4.753   3.947 -0.5078  0.3423  0.4167
 6094TIP3    H139697   5.391   4.791   3.892  0.8714  0.7978 -1.0822
 6094TIP3    H239698   5.470   4.663   3.915 -0.2553  0.3450  0.4844
 6095TIP3   OH239699   6.497   3.501  12.810  0.1255  0.0740  0.0617
 6095TIP3    H139700   6.469   3.591  12.820  0.5694  0.0593  1.8852
 6095TIP3    H239701   6.436   3.450  12.863  1.6539 -0.3055  1.5473
 6096TIP3   OH239702   3.748   4.597  17.273  0.0747 -0.3519 -0.0145
 6096TIP3    H139703   3.828   4.551  17.301 -0.3331 -0.0549  1.7662
 6096TIP3    H239704   3.772   4.637  17.190  1.9868  0.1853  0.7346
 6097TIP3   OH239705   4.225   5.625  17.211  0.2223 -0.3765  0.3165
 6097TIP3    H139706   4.300   5.566  17.198 -0.6220 -1.5817  0.7714
 6097TIP3    H239707   4.153   5.582  17.165  0.2741  1.9058 -2.1215
 6098TIP3   OH239708   5.638   5.337   0.916 -0.0575 -0.1909 -0.8057
 6098TIP3    H139709   5.638   5.404   0.984 -1.0475 -0.9473 -0.0208
 6098TIP3    H239710   5.674   5.259   0.959  3.1883  0.3259 -2.3057
 6099TIP3   OH239711   2.350   3.549  14.509 -0.5646  0.1995  0.0149
 6099TIP3    H139712   2.262   3.573  14.536 -0.6949 -0.7586  0.4776
 6099TIP3    H239713   2.344   3.540  14.413 -0.0251  3.8887 -0.5039
 6100TIP3   OH239714   5.295   1.213   3.487 -0.2274  0.6172 -0.3898
 6100TIP3    H139715   5.347   1.145   3.530  0.5123  0.8892 -0.8369
 6100TIP3    H239716   5.359   1.278   3.459 -0.9635  1.7593  0.4601
 6101TIP3   OH239717   2.731   5.159   3.392  0.4571  0.2274  0.0990
 6101TIP3    H139718   2.749   5.153   3.486  0.7920 -0.6426 -0.0193
 6101TIP3    H239719   2.672   5.086   3.374  1.7616 -0.6586 -0.6841
 6102TIP3   OH239720   1.351   4.560   3.254  0.0276  0.5941  0.7264
 6102TIP3    H139721   1.260   4.580   3.235 -0.1010 -0.6732 -0.0808
 6102TIP3    H239722   1.398   4.583   3.174 -0.0271 -1.4843  0.0237
 6103TIP3   OH239723   6.183   6.453   0.902  0.0500 -0.0389 -1.1906
 6103TIP3    H139724   6.104   6.504   0.882  0.3727  0.4614 -1.2092
 6103TIP3    H239725   6.179   6.440   0.997 -0.4725 -0.7289 -1.2949
 6104TIP3   OH239726   5.779   1.870   5.732  0.0832  0.3995 -0.3167
 6104TIP3    H139727   5.789   1.857   5.826 -1.0437  1.3322 -0.0514
 6104TIP3    H239728   5.866   1.851   5.696  0.1070 -1.6899  0.6856
 6105TIP3   OH239729   2.222   2.618   4.874 -0.3368  0.4009  1.0552
 6105TIP3    H139730   2.314   2.619   4.848 -0.3945 -0.1587  0.8217
 6105TIP3    H239731   2.220   2.558   4.949 -0.8009 -1.0200 -0.0616
 6106TIP3   OH239732   3.247   6.468   4.320  0.6544 -0.2476  0.0110
 6106TIP3    H139733   3.306   6.466   4.395 -1.4800 -0.9591  1.7701
 6106TIP3    H239734   3.224   6.560   4.309  2.1264  0.0576 -0.7881
 6107TIP3   OH239735   6.234   0.342  16.089 -0.0613  0.0952  0.6921
 6107TIP3    H139736   6.326   0.354  16.115  0.3496 -1.7186  0.2366
 6107TIP3    H239737   6.232   0.255  16.050 -1.9418  0.2210  0.4321
 6108TIP3   OH239738   2.672   5.762  12.044 -0.1335  0.0292  0.2630
 6108TIP3    H139739   2.638   5.685  11.998 -1.2706 -1.0050  2.6721
 6108TIP3    H239740   2.743   5.793  11.988 -0.2775 -2.1785 -1.2875
 6109TIP3   OH239741   1.357   4.329  14.344  0.4434 -0.7559 -0.4010
 6109TIP3    H139742   1.421   4.344  14.413  2.3006 -1.5903 -1.8201
 6109TIP3    H239743   1.348   4.414  14.300  2.1342 -1.0341 -1.3781
 6110TIP3   OH239744   0.135   4.291  11.277 -0.0918  0.9406 -0.2223
 6110TIP3    H139745   0.190   4.331  11.211  0.9232  0.3369  0.2278
 6110TIP3    H239746   0.185   4.215  11.307 -0.2765  1.4790  1.5959
 6111TIP3   OH239747   2.410   2.757   0.747  0.1286  0.1591  0.3208
 6111TIP3    H139748   2.398   2.817   0.673  1.6967  0.2401  0.0988
 6111TIP3    H239749   2.413   2.670   0.708 -0.8207  0.0328  0.5018
 6112TIP3   OH239750   5.687   3.363   5.237  0.0839 -0.5820  0.3596
 6112TIP3    H139751   5.649   3.380   5.323  0.2532 -0.2772  0.3768
 6112TIP3    H239752   5.659   3.274   5.215 -0.2608 -0.5260  0.5676
 6113TIP3   OH239753   1.312   4.034   0.231 -0.0965 -0.1265  0.3176
 6113TIP3    H139754   1.291   3.995   0.316  2.4497 -0.1261  1.0540
 6113TIP3    H239755   1.404   4.060   0.239 -0.3605  1.7561 -1.7697
 6114TIP3   OH239756   6.332   1.395  14.123  0.6925  0.3465  0.3233
 6114TIP3    H139757   6.412   1.445  14.111  1.7017 -1.1783  0.4310
 6114TIP3    H239758   6.312   1.403  14.217  2.5229 -1.7745  0.9823
 6115TIP3   OH239759   2.868   5.479   4.043  0.2990  0.1674 -0.1970
 6115TIP3    H139760   2.838   5.388   4.050  2.4764 -0.4903  2.0742
 6115TIP3    H239761   2.947   5.475   3.989 -0.2307  0.9316 -1.0635
 6116TIP3   OH239762   6.519   6.355  11.832  0.4297  0.3054 -0.1992
 6116TIP3    H139763   6.599   6.376  11.784 -0.6683 -1.3321 -3.0352
 6116TIP3    H239764   6.450   6.404  11.785 -0.3958  0.9462  1.5900
 6117TIP3   OH239765   5.076   1.404   5.250  0.2357  0.4696  0.3023
 6117TIP3    H139766   5.063   1.319   5.209 -0.8724  0.8865 -0.2491
 6117TIP3    H239767   5.161   1.434   5.218  0.2801 -0.0897 -0.1049
 6118TIP3   OH239768   1.099   5.999   0.031  0.2272  0.8115 -0.3910
 6118TIP3    H139769   1.026   6.059   0.015 -0.0688  0.4710 -0.3282
 6118TIP3    H239770   1.067   5.939   0.098  1.6092  2.5292  1.9789
 6119TIP3   OH239771   4.447   6.394   3.893  0.3541  0.1897 -0.5566
 6119TIP3    H139772   4.493   6.324   3.939 -0.5657  0.3239  0.6231
 6119TIP3    H239773   4.405   6.350   3.818  1.0963 -0.2061 -0.7507
 6120TIP3   OH239774   5.937   2.551   0.814  0.0323  0.2264  0.1750
 6120TIP3    H139775   6.002   2.520   0.750  0.4444  2.7344 -0.7402
 6120TIP3    H239776   5.872   2.597   0.761 -0.8035  0.4543  1.3789
 6121TIP3   OH239777   4.283   2.072  17.278  0.0581 -0.5633 -0.7476
 6121TIP3    H139778   4.225   2.029  17.341  1.1778  0.0758  0.7880
 6121TIP3    H239779   4.223   2.110  17.214 -1.4546  1.5491  1.6931
 6122TIP3   OH239780   1.449   0.857   0.282 -0.7190 -0.1364 -0.4690
 6122TIP3    H139781   1.493   0.798   0.343 -0.6949  0.2312 -0.1312
 6122TIP3    H239782   1.414   0.799   0.214 -0.3032 -0.4985 -0.3827
 6123TIP3   OH239783   4.013   2.807   5.026  0.1583  0.2931 -0.3807
 6123TIP3    H139784   3.940   2.759   5.067 -0.1168 -1.5558 -2.8095
 6123TIP3    H239785   3.981   2.896   5.017 -2.0314 -0.5514 -1.7254
 6124TIP3   OH239786   5.168   4.527  17.140 -0.0591  0.3430  0.0602
 6124TIP3    H139787   5.195   4.562  17.055 -1.5566  0.8646 -0.2427
 6124TIP3    H239788   5.143   4.604  17.191  1.1246  0.0586  1.1093
 6125TIP3   OH239789   0.268   0.371  13.631  0.2981 -0.5250 -0.0060
 6125TIP3    H139790   0.324   0.447  13.614  1.4857 -1.1790  0.8285
 6125TIP3    H239791   0.186   0.391  13.586  1.2303  0.4228 -1.3568
 6126TIP3   OH239792   1.812   4.803   3.661  0.0667  0.1634 -0.1050
 6126TIP3    H139793   1.732   4.837   3.701 -0.4990 -0.0065 -1.0528
 6126TIP3    H239794   1.832   4.867   3.592  1.1398  0.5711  0.5693
 6127TIP3   OH239795   0.704   1.644   1.138 -0.3500 -0.3145 -0.0751
 6127TIP3    H139796   0.684   1.606   1.223 -0.6679 -1.1154 -0.4991
 6127TIP3    H239797   0.799   1.634   1.128 -0.3237 -0.2844  0.1468
 6128TIP3   OH239798   6.726   4.856  13.587  0.2620  0.5474 -0.7788
 6128TIP3    H139799   6.803   4.881  13.638  1.0342 -0.6718 -1.3079
 6128TIP3    H239800   6.714   4.929  13.525 -0.2240  1.6695  0.5937
 6129TIP3   OH239801   1.669   5.287   4.275 -0.7353 -0.2424  0.4778
 6129TIP3    H139802   1.677   5.212   4.216 -1.7079 -0.1052  0.1596
 6129TIP3    H239803   1.613   5.348   4.228 -1.6077 -0.1671  1.5798
 6130TIP3   OH239804   6.139   0.798  11.510  0.3069  0.0423  0.2799
 6130TIP3    H139805   6.068   0.765  11.566 -0.1863  0.1911 -0.2406
 6130TIP3    H239806   6.094   0.852  11.445  0.8683 -0.1242 -0.2534
 6131TIP3   OH239807   0.301   2.972   4.884  0.3964 -0.2013  0.2526
 6131TIP3    H139808   0.249   3.050   4.866  0.2604 -0.4292 -0.3880
 6131TIP3    H239809   0.356   2.996   4.959 -0.1595  0.2614  0.5187
 6132TIP3   OH239810   3.833   2.986   2.997  0.2673 -0.2044  0.0339
 6132TIP3    H139811   3.875   2.985   2.911  1.0435 -0.8867  0.3989
 6132TIP3    H239812   3.777   2.909   2.997 -0.0775  0.0466 -0.0236
 6133TIP3   OH239813   1.472   4.481   6.199 -0.3166 -0.3829 -0.2100
 6133TIP3    H139814   1.385   4.513   6.174  0.3827  0.8869 -1.2260
 6133TIP3    H239815   1.488   4.519   6.285 -1.7417 -2.7109  1.1730
 6134TIP3   OH239816   3.034   2.396  14.584 -0.0769 -0.1283 -0.0581
 6134TIP3    H139817   3.037   2.492  14.576  0.4495  0.0138  1.3813
 6134TIP3    H239818   3.080   2.364  14.507  0.5706  0.8269 -0.0913
 6135TIP3   OH239819   0.029   2.908   0.134 -0.0858 -0.5448 -0.1527
 6135TIP3    H139820  -0.009   2.991   0.164 -0.5757 -0.7539 -0.1902
 6135TIP3    H239821  -0.019   2.841   0.182  2.1456 -0.7528  1.9901
 6136TIP3   OH239822   5.794   3.770   0.488 -0.0157 -0.5425 -0.2901
 6136TIP3    H139823   5.882   3.782   0.454 -1.3288  1.6748 -3.3039
 6136TIP3    H239824   5.791   3.678   0.515  2.3244 -1.5001 -2.8858
 6137TIP3   OH239825   5.649   3.710   4.972 -0.6575 -0.1100  0.4291
 6137TIP3    H139826   5.607   3.657   5.040 -0.8728 -0.4980 -0.0050
 6137TIP3    H239827   5.742   3.708   4.994 -0.6427 -0.8269  0.3008
 6138TIP3   OH239828   4.796   1.482   0.683 -0.2857 -0.0267  0.0903
 6138TIP3    H139829   4.774   1.505   0.773 -0.7572 -1.1511  0.2784
 6138TIP3    H239830   4.845   1.400   0.691  1.7192  1.0267 -0.5181
 6139TIP3   OH239831   5.112   0.475   5.379  0.2654 -0.1918 -0.7421
 6139TIP3    H139832   5.077   0.563   5.392  1.2463 -0.1148  2.1202
 6139TIP3    H239833   5.165   0.480   5.300 -1.2647  1.2370 -1.7263
 6140TIP3   OH239834   4.308   5.705  11.942  0.1197 -0.0512  0.0532
 6140TIP3    H139835   4.330   5.654  12.020 -1.3370 -1.0318 -0.1509
 6140TIP3    H239836   4.347   5.791  11.959 -0.0136 -0.2859  1.7721
 6141TIP3   OH239837   4.199   0.235  15.391  0.5450  0.1361 -0.1852
 6141TIP3    H139838   4.193   0.170  15.321 -0.7312 -2.0047  1.7667
 6141TIP3    H239839   4.122   0.291  15.379  1.1784  0.8176 -1.3473
 6142TIP3   OH239840   5.854   2.488   3.131  0.1228  0.3084 -0.1062
 6142TIP3    H139841   5.930   2.517   3.080 -0.1339 -0.8621 -1.2199
 6142TIP3    H239842   5.873   2.396   3.151 -1.4192 -0.3080 -1.2807
 6143TIP3   OH239843   6.732   2.906  12.018 -0.0615  0.2516 -0.4154
 6143TIP3    H139844   6.773   2.827  12.051 -0.0329  0.5664  0.3237
 6143TIP3    H239845   6.799   2.974  12.026  0.2974  0.1272 -2.1105
 6144TIP3   OH239846   3.350   1.184  13.794 -0.3879 -0.4674 -0.5513
 6144TIP3    H139847   3.413   1.173  13.722 -0.7884 -1.5049 -0.7641
 6144TIP3    H239848   3.393   1.146  13.870  0.5466  1.7375  0.0959
 6145TIP3   OH239849   1.631   5.446   4.646 -0.2588 -0.2522 -0.1717
 6145TIP3    H139850   1.726   5.446   4.631 -0.4304  0.0794 -1.3557
 6145TIP3    H239851   1.620   5.490   4.730  0.7373 -1.8388  0.8558
 6146TIP3   OH239852   4.133   4.289  15.163 -0.1332 -0.0739  0.1334
 6146TIP3    H139853   4.128   4.255  15.253  0.3769 -1.2733 -0.2693
 6146TIP3    H239854   4.089   4.222  15.110  1.4238 -0.4284 -0.7598
 6147TIP3   OH239855   1.394   4.577  14.211 -0.0428  0.1583 -0.2861
 6147TIP3    H139856   1.476   4.598  14.166  0.2993 -2.6065 -1.1872
 6147TIP3    H239857   1.327   4.589  14.145 -0.2859  1.4333  0.1587
 6148TIP3   OH239858   1.967   6.404  13.658 -0.0371 -0.2206 -0.3297
 6148TIP3    H139859   1.918   6.443  13.730  1.4842  0.1087  0.5664
 6148TIP3    H239860   2.024   6.339  13.700 -0.4560 -1.3815 -1.4692
 6149TIP3   OH239861   4.475   1.908  16.727  0.0640  0.2455 -0.1587
 6149TIP3    H139862   4.533   1.870  16.661 -0.5773 -1.8251  0.3806
 6149TIP3    H239863   4.533   1.958  16.784  0.9849  0.0117 -0.8617
 6150TIP3   OH239864   4.908   5.132   5.092 -0.1389  0.4485  0.0479
 6150TIP3    H139865   4.856   5.089   5.024 -2.3264 -0.2975  2.0726
 6150TIP3    H239866   4.861   5.214   5.109  1.0479  1.1900 -0.0893
 6151TIP3   OH239867   2.637   2.013  12.115  0.1311  0.4236 -0.4023
 6151TIP3    H139868   2.654   2.107  12.109  2.4797  0.0293 -0.8754
 6151TIP3    H239869   2.678   1.977  12.037 -0.2303 -1.0650  0.0700
 6152TIP3   OH239870   5.721   5.496  13.186  0.0962 -0.8766  0.0686
 6152TIP3    H139871   5.661   5.547  13.240  0.5830 -0.8072  0.5581
 6152TIP3    H239872   5.778   5.451  13.249  0.0717 -1.5386 -0.3702
 6153TIP3   OH239873   3.979   3.603   2.155  0.3838 -0.5579 -0.5345
 6153TIP3    H139874   4.053   3.623   2.213  0.0276  2.0155 -0.8703
 6153TIP3    H239875   3.904   3.646   2.196 -0.4981 -1.2541 -1.3738
 6154TIP3   OH239876   5.742   2.929   4.469 -0.2233  0.0001 -0.1631
 6154TIP3    H139877   5.694   3.011   4.461 -0.6443 -0.2320 -0.0403
 6154TIP3    H239878   5.713   2.877   4.394 -1.5739 -0.8513  0.9021
 6155TIP3   OH239879   1.939   3.334  11.132 -0.5495  0.3785  0.9536
 6155TIP3    H139880   1.868   3.284  11.093  1.0631 -0.4224 -1.1516
 6155TIP3    H239881   2.011   3.272  11.139  1.0096  1.9559 -0.1778
 6156TIP3   OH239882   6.049   2.092  14.460  0.3916 -0.0999  0.2366
 6156TIP3    H139883   6.089   2.117  14.377 -0.1371 -0.2322 -0.0577
 6156TIP3    H239884   6.122   2.058  14.512  0.8973  0.9094  0.1990
 6157TIP3   OH239885   6.655   6.140  15.304  0.2331 -0.5846  0.4227
 6157TIP3    H139886   6.663   6.076  15.233 -1.7918  0.1232 -0.5235
 6157TIP3    H239887   6.579   6.112  15.353  1.4969 -0.9462  2.2606
 6158TIP3   OH239888   1.720   0.824  15.362 -0.1268 -0.2803 -0.0955
 6158TIP3    H139889   1.723   0.919  15.371 -0.2556 -0.0103 -2.4899
 6158TIP3    H239890   1.810   0.799  15.343  0.0147 -0.7505  1.0663
 6159TIP3   OH239891   1.692   5.416  12.444 -0.3914  0.1345 -0.1078
 6159TIP3    H139892   1.689   5.470  12.366 -0.9945  0.1117 -0.1070
 6159TIP3    H239893   1.643   5.466  12.510 -2.0925 -0.9656 -0.4768
 6160TIP3   OH239894   4.626   4.714   1.163  0.1564  0.2944  0.2401
 6160TIP3    H139895   4.703   4.699   1.108  0.3174  0.9554  0.2682
 6160TIP3    H239896   4.660   4.720   1.252 -0.2091 -1.6695  0.5590
 6161TIP3   OH239897   6.106   1.332   4.219 -0.6191 -0.1049 -0.8384
 6161TIP3    H139898   6.014   1.359   4.226 -0.0203  1.7217  1.2596
 6161TIP3    H239899   6.131   1.354   4.129 -1.4522  2.2892 -0.5523
 6162TIP3   OH239900   5.413   0.287   2.074 -0.0293 -0.0480 -0.4813
 6162TIP3    H139901   5.453   0.369   2.045  0.0699  0.1127  0.0911
 6162TIP3    H239902   5.319   0.306   2.077  0.1160  0.6196  1.3408
 6163TIP3   OH239903   2.507   1.707   3.431 -0.1536 -0.4741 -0.3954
 6163TIP3    H139904   2.478   1.726   3.342  0.7337  0.2854 -0.5277
 6163TIP3    H239905   2.490   1.613   3.442 -1.7347 -0.2633 -0.7996
 6164TIP3   OH239906   0.368   5.980   3.898 -0.1989  0.8048 -0.3071
 6164TIP3    H139907   0.406   5.897   3.870  2.8988  1.7312  0.6895
 6164TIP3    H239908   0.332   5.962   3.985 -0.6262  0.2604 -0.5906
 6165TIP3   OH239909   5.826   6.697   2.457  0.0165  0.2348  0.8066
 6165TIP3    H139910   5.738   6.674   2.485  0.0138  0.5817  1.0842
 6165TIP3    H239911   5.813   6.743   2.374  0.0610 -1.2619 -0.0790
 6166TIP3   OH239912   4.258   6.606   1.790  0.9950  0.3638  0.6835
 6166TIP3    H139913   4.334   6.633   1.843  1.0867 -1.9372  1.8470
 6166TIP3    H239914   4.230   6.523   1.829 -1.0740  0.2925 -0.8134
 6167TIP3   OH239915   2.104   5.404  15.366  0.3090 -0.5108  0.2821
 6167TIP3    H139916   2.064   5.320  15.344 -1.0790  0.2354 -0.1647
 6167TIP3    H239917   2.171   5.417  15.299 -0.4539 -0.6079 -0.5220
 6168TIP3   OH239918   4.213   2.809  10.552 -0.3156 -0.5113  0.0135
 6168TIP3    H139919   4.284   2.831  10.612 -0.0619  0.3912 -0.5957
 6168TIP3    H239920   4.133   2.840  10.596 -0.2228 -0.5996  0.2449
 6169TIP3   OH239921   0.396   6.238  13.652 -0.0031 -0.5456  0.6341
 6169TIP3    H139922   0.351   6.238  13.737 -0.6969 -0.5358  0.2791
 6169TIP3    H239923   0.325   6.248  13.588  0.5277 -0.3925  0.0626
 6170TIP3   OH239924   0.025   0.128  16.714  0.1682 -0.5374 -0.0306
 6170TIP3    H139925   0.049   0.218  16.736  1.3472 -1.3548  2.3645
 6170TIP3    H239926   0.108   0.082  16.703 -0.4105 -1.4092 -0.9874
 6171TIP3   OH239927   1.264   4.872  11.241 -0.1336 -0.6048  0.5377
 6171TIP3    H139928   1.204   4.820  11.187 -0.2970  2.0864 -2.1119
 6171TIP3    H239929   1.207   4.924  11.297 -0.2349  0.0430 -0.1375
 6172TIP3   OH239930   5.268   4.404   4.754  0.4050 -0.5978  0.0843
 6172TIP3    H139931   5.175   4.415   4.770  0.3975 -1.6013  0.7680
 6172TIP3    H239932   5.278   4.419   4.660 -0.0171  2.1967  0.4010
 6173TIP3   OH239933   4.959   5.469  13.463  0.6297  0.0121 -0.5286
 6173TIP3    H139934   4.944   5.457  13.557  0.5251 -0.1536 -0.5658
 6173TIP3    H239935   5.032   5.411  13.442  1.2736  0.7434 -0.3679
 6174TIP3   OH239936   0.929   0.318  16.161  0.1014  0.7074 -0.6328
 6174TIP3    H139937   0.956   0.375  16.089  0.0191  1.1098 -0.3519
 6174TIP3    H239938   0.990   0.245  16.159  0.9512  1.3916 -0.2660
 6175TIP3   OH239939   1.027   4.754   5.889  0.3118  0.1617  0.2525
 6175TIP3    H139940   0.977   4.673   5.879 -0.2721  0.3468  1.4760
 6175TIP3    H239941   0.961   4.823   5.899  0.7889  0.5327  0.9695
 6176TIP3   OH239942   4.410   3.348  12.281  0.7545  0.0499  0.1016
 6176TIP3    H139943   4.503   3.329  12.296  0.5807 -0.1628  0.9757
 6176TIP3    H239944   4.364   3.277  12.325  0.1798 -1.1720 -2.2687
 6177TIP3   OH239945   0.686   4.016  15.600 -0.0271  0.4933 -0.3699
 6177TIP3    H139946   0.663   4.075  15.528 -1.4571 -2.1889 -2.3482
 6177TIP3    H239947   0.601   3.982  15.630  0.7110 -0.3579  0.8257
 6178TIP3   OH239948   3.102   2.971   0.832  0.2881 -0.4797 -0.7858
 6178TIP3    H139949   3.133   2.967   0.742 -0.3785 -0.6960 -1.0103
 6178TIP3    H239950   3.079   2.881   0.855  0.2135 -0.3875 -0.4859
 6179TIP3   OH239951   2.083   5.299   6.325 -0.6892  0.1219  0.2779
 6179TIP3    H139952   2.021   5.348   6.270 -0.2044  1.0701  0.5521
 6179TIP3    H239953   2.109   5.362   6.393  1.2540  0.0437 -0.3395
 6180TIP3   OH239954   6.225   2.098   4.831 -0.7191  0.4616  0.0915
 6180TIP3    H139955   6.313   2.134   4.816  0.0034 -0.9821  0.6712
 6180TIP3    H239956   6.181   2.165   4.883  0.6805  0.4369  1.3974
 6181TIP3   OH239957   3.950   0.607  11.670 -0.0683  0.1617 -0.2575
 6181TIP3    H139958   3.922   0.692  11.704 -0.1795  0.1403 -0.2930
 6181TIP3    H239959   4.021   0.580  11.727 -0.9138 -0.3331  0.5881
 6182TIP3   OH239960   5.997   4.329   6.330 -0.6977 -0.3701 -0.1386
 6182TIP3    H139961   6.069   4.313   6.390  1.6940 -1.2720 -2.9879
 6182TIP3    H239962   5.949   4.247   6.326 -1.3515 -0.0589  1.0758
 6183TIP3   OH239963   2.266   3.767   4.549  0.1082 -0.5061 -0.1165
 6183TIP3    H139964   2.310   3.727   4.625 -0.6026 -1.1078 -0.0133
 6183TIP3    H239965   2.312   3.731   4.473  0.9359  0.2286  0.0153
 6184TIP3   OH239966   6.550   2.942   5.046  0.5656  0.0997  0.1327
 6184TIP3    H139967   6.567   2.955   4.952  0.8936  0.1018  0.1898
 6184TIP3    H239968   6.523   3.029   5.077 -1.1382 -0.2549 -0.2797
 6185TIP3   OH239969   6.313   3.105  12.182  0.2697  0.0918  0.2714
 6185TIP3    H139970   6.230   3.057  12.174 -1.0225  2.0732  0.7899
 6185TIP3    H239971   6.349   3.107  12.094 -0.0655 -1.0585  0.0944
 6186TIP3   OH239972   1.348   6.245  16.706  0.2336  0.4929  1.1610
 6186TIP3    H139973   1.431   6.207  16.737  1.8866  2.0659 -1.0352
 6186TIP3    H239974   1.354   6.241  16.611 -1.7797  1.6580  0.9312
 6187TIP3   OH239975   5.849   0.990  16.741 -0.0629  0.7007 -0.3357
 6187TIP3    H139976   5.916   1.016  16.678 -1.2124  0.9854 -1.4729
 6187TIP3    H239977   5.899   0.959  16.817  1.3507  0.6706 -1.2342
 6188TIP3   OH239978   1.549   3.782   1.836  0.2306  0.2672  0.2957
 6188TIP3    H139979   1.573   3.850   1.899 -0.0248 -2.0838  3.2284
 6188TIP3    H239980   1.631   3.736   1.818 -0.2699 -2.2160  3.2369
 6189TIP3   OH239981   0.846   0.774   3.698  1.0070 -0.1931  0.0825
 6189TIP3    H139982   0.812   0.689   3.671  1.0904  0.2185 -1.4473
 6189TIP3    H239983   0.914   0.754   3.762 -0.0328 -1.1816  0.9123
 6190TIP3   OH239984   1.088   2.329   2.089  0.3839  0.0632 -0.3044
 6190TIP3    H139985   1.075   2.252   2.143 -1.7411 -0.9101 -2.0495
 6190TIP3    H239986   1.163   2.308   2.034  0.2948 -0.4527 -0.2293
 6191TIP3   OH239987   5.263   2.638  11.726  0.3268 -0.1238  0.4174
 6191TIP3    H139988   5.236   2.599  11.809 -1.4363  1.2193  0.5381
 6191TIP3    H239989   5.214   2.589  11.660  0.6672 -0.2676  0.2653
 6192TIP3   OH239990   2.466   0.010   2.894 -0.0459 -0.0408  0.6203
 6192TIP3    H139991   2.501   0.053   2.816 -1.0084 -0.2035  0.0855
 6192TIP3    H239992   2.483   0.071   2.965  2.3894 -0.6138  0.6185
 6193TIP3   OH239993   4.689   6.644  14.175  0.0518  0.1505  0.9603
 6193TIP3    H139994   4.595   6.659  14.185 -0.2933 -1.2014  0.1722
 6193TIP3    H239995   4.727   6.731  14.165 -0.6510  0.9945  4.3645
 6194TIP3   OH239996   3.990   5.560   1.078 -0.0936  0.6333 -0.5017
 6194TIP3    H139997   4.054   5.494   1.105  2.4659  3.2364  0.2702
 6194TIP3    H239998   3.928   5.563   1.151  0.2070 -0.3392 -0.1892
 6195TIP3   OH239999   4.126   1.120  10.970 -0.0751 -0.4093 -0.5600
 6195TIP3    H140000   4.039   1.110  10.931 -0.1682  0.4419 -0.5849
 6195TIP3    H240001   4.148   1.213  10.957  0.4150 -0.3903  0.3244
 6196TIP3   OH240002   3.145   5.503   3.418  0.6480 -0.4944  0.5018
 6196TIP3    H140003   3.097   5.558   3.355  0.0083 -0.7134  0.7875
 6196TIP3    H240004   3.121   5.414   3.395  1.2754 -0.6313  0.3723
 6197TIP3   OH240005   6.438   0.455   3.027 -0.0180 -0.9158 -0.4700
 6197TIP3    H140006   6.451   0.380   3.085  3.4619  0.3174  0.6023
 6197TIP3    H240007   6.504   0.444   2.959  0.0079  0.7704 -0.7491
 6198TIP3   OH240008   0.110   4.139   1.142  0.1535  0.4470 -0.0400
 6198TIP3    H140009   0.117   4.145   1.237  0.0036  3.9120 -0.1497
 6198TIP3    H240010   0.036   4.194   1.119  0.9637  0.7226 -2.2715
 6199TIP3   OH240011   4.711   6.370  15.005  0.9993 -0.4598  0.0542
 6199TIP3    H140012   4.729   6.363  14.912 -2.4622  0.5787 -0.8472
 6199TIP3    H240013   4.731   6.461  15.027 -0.8019  0.1060 -0.4489
 6200TIP3   OH240014   5.840   2.381   1.004 -0.1908 -0.2159  0.1433
 6200TIP3    H140015   5.877   2.440   0.939 -1.1864 -1.0616 -1.2493
 6200TIP3    H240016   5.884   2.298   0.989  2.1225  0.3638  2.9105
 6201TIP3   OH240017   0.708   3.884   0.552 -0.3794  0.0680  0.3203
 6201TIP3    H140018   0.634   3.889   0.491  1.0674  1.3066 -1.4563
 6201TIP3    H240019   0.718   3.974   0.585  0.3977 -0.0523  0.4361
 6202TIP3   OH240020   2.939   5.707   4.190  0.4414 -0.4092 -0.1130
 6202TIP3    H140021   2.955   5.660   4.108  1.7301  3.4667 -2.3386
 6202TIP3    H240022   2.848   5.736   4.183  0.0770 -1.3453  0.6001
 6203TIP3   OH240023   0.530   4.935   5.792  0.6392 -0.0111  0.1088
 6203TIP3    H140024   0.468   4.867   5.815  0.1752 -0.1376 -1.3725
 6203TIP3    H240025   0.506   5.010   5.846 -1.1994  0.1222 -0.8334
 6204TIP3   OH240026   2.938   4.980  16.020  0.1368 -0.5063 -0.2306
 6204TIP3    H140027   2.962   4.909  15.961 -0.6350 -1.4890  0.5934
 6204TIP3    H240028   2.849   4.959  16.048 -0.5211  1.3724 -0.7977
 6205TIP3   OH240029   5.601   0.894   6.240 -0.0692  0.6204  0.1921
 6205TIP3    H140030   5.631   0.844   6.316  0.1373  0.2427 -0.1373
 6205TIP3    H240031   5.513   0.923   6.264  0.7985  2.4002  1.4984
 6206TIP3   OH240032   1.313   4.706  11.815  0.1262  0.3101 -0.2612
 6206TIP3    H140033   1.296   4.778  11.755 -2.6904  0.8247  0.9796
 6206TIP3    H240034   1.279   4.628  11.770 -1.5474  0.6238  0.3747
 6207TIP3   OH240035   5.044   5.868  12.230  0.0260 -0.3510  0.1155
 6207TIP3    H140036   5.071   5.780  12.206 -1.1357 -0.3824 -1.2073
 6207TIP3    H240037   5.000   5.858  12.315  0.0469 -1.0261  0.0476
 6208TIP3   OH240038   3.353   5.716  13.171  0.1675  0.0587 -0.2568
 6208TIP3    H140039   3.443   5.693  13.147  1.2581 -0.5581  3.6947
 6208TIP3    H240040   3.302   5.638  13.151  1.4081 -1.2239  1.2899
 6209TIP3   OH240041   1.687   0.280   1.096  0.4293 -0.1940  0.1451
 6209TIP3    H140042   1.772   0.323   1.090  0.5474 -0.3851  0.4493
 6209TIP3    H240043   1.628   0.347   1.129  0.5643 -0.1978  0.3957
 6210TIP3   OH240044   4.495   0.290  11.065  0.1587 -0.2579  0.3106
 6210TIP3    H140045   4.423   0.248  11.112 -0.0944  1.0533  1.1598
 6210TIP3    H240046   4.464   0.297  10.975  0.3932 -2.2469  0.0478
 6211TIP3   OH240047   5.772   2.486  12.433  0.1596  0.1107 -0.7597
 6211TIP3    H140048   5.797   2.408  12.482  0.0212  0.1065 -0.6938
 6211TIP3    H240049   5.692   2.460  12.387 -1.5154  1.0386  1.4287
 6212TIP3   OH240050   2.281   0.032  12.655 -0.1312 -0.3269  0.2450
 6212TIP3    H140051   2.357   0.078  12.619 -0.1777  0.3255  0.9583
 6212TIP3    H240052   2.293  -0.059  12.628  1.1855 -0.3401  0.7738
 6213TIP3   OH240053   4.263   1.466   1.012 -0.1618 -0.4530  0.2016
 6213TIP3    H140054   4.214   1.464   0.930 -1.4356  1.0611  0.8721
 6213TIP3    H240055   4.196   1.462   1.080  0.5893  1.5063  1.1433
 6214TIP3   OH240056   5.173   4.035   5.668  0.0326  0.2083 -0.6079
 6214TIP3    H140057   5.157   3.997   5.582  0.8459  0.2452 -0.7791
 6214TIP3    H240058   5.099   4.005   5.721 -0.1948 -0.2505 -1.1738
 6215TIP3   OH240059   2.000   3.160   1.962 -0.7272 -0.0538  0.6515
 6215TIP3    H140060   1.954   3.200   1.888 -1.7566 -0.3966  1.0895
 6215TIP3    H240061   1.972   3.068   1.960 -0.2038 -0.2270  1.0526
 6216TIP3   OH240062   2.103   5.554   2.484  0.0579 -0.2728 -0.3608
 6216TIP3    H140063   2.011   5.555   2.511 -0.6627  1.5208 -2.5507
 6216TIP3    H240064   2.125   5.461   2.475 -1.1634 -0.7553  1.3006
 6217TIP3   OH240065   0.151   3.208   4.035  0.3457 -0.1277 -0.0716
 6217TIP3    H140066   0.114   3.158   4.107  0.4492  0.3788  0.3358
 6217TIP3    H240067   0.124   3.160   3.956 -0.7178 -0.0757  0.2395
 6218TIP3   OH240068   0.169   1.622  11.795  0.2552  0.3460  0.3269
 6218TIP3    H140069   0.125   1.701  11.827 -0.7459  0.0578 -0.2833
 6218TIP3    H240070   0.146   1.619  11.702  2.4302  0.7481 -0.2792
 6219TIP3   OH240071   4.631   4.665   0.376  0.3036  0.3007  0.7687
 6219TIP3    H140072   4.567   4.734   0.392  1.6355  1.5865  0.7720
 6219TIP3    H240073   4.607   4.629   0.290 -0.5849  0.5538  0.9096
 6220TIP3   OH240074   5.819   2.126  15.486 -0.3272  0.3720  0.7380
 6220TIP3    H140075   5.882   2.173  15.431 -0.9344 -0.4094 -0.6841
 6220TIP3    H240076   5.749   2.100  15.426 -0.7530 -1.0187  1.7751
 6221TIP3   OH240077   6.422   3.198   5.966 -0.4058 -0.3451  0.4850
 6221TIP3    H140078   6.480   3.134   5.924  0.0127  0.0502  0.4567
 6221TIP3    H240079   6.334   3.167   5.946 -0.2147 -1.3062  1.0575
 6222TIP3   OH240080   3.784   1.883  16.952 -0.0978 -0.2310 -0.5498
 6222TIP3    H140081   3.826   1.813  17.002 -1.0123  1.1624  2.3749
 6222TIP3    H240082   3.691   1.873  16.970 -0.7054 -0.5653 -3.3330
 6223TIP3   OH240083   4.160   6.492   0.790  0.1938 -0.3206 -0.3055
 6223TIP3    H140084   4.130   6.416   0.841  0.4061  0.3057  0.7864
 6223TIP3    H240085   4.080   6.541   0.772  0.3479  0.7281  1.5803
 6224TIP3   OH240086   4.523   3.721   1.676 -0.5784  0.4038 -0.3118
 6224TIP3    H140087   4.582   3.652   1.703 -1.1013 -0.3582 -1.0406
 6224TIP3    H240088   4.455   3.676   1.625 -1.6137  1.2846  0.2447
 6225TIP3   OH240089   2.994   6.641  13.274  0.5917  0.2860 -0.0002
 6225TIP3    H140090   2.975   6.631  13.181  1.2035  0.2331 -0.1278
 6225TIP3    H240091   3.039   6.559  13.297  3.0409  1.4534 -0.3579
 6226TIP3   OH240092   2.880   4.146  11.375  0.0720  0.3861  0.2311
 6226TIP3    H140093   2.898   4.209  11.305 -0.0645 -0.3595 -0.4872
 6226TIP3    H240094   2.786   4.130  11.369  0.2682 -0.6697 -0.2805
 6227TIP3   OH240095   1.911   5.679  11.735 -0.7201  0.1409  0.4559
 6227TIP3    H140096   2.000   5.651  11.755 -0.0711  3.2041  2.7022
 6227TIP3    H240097   1.894   5.648  11.646  2.8793  0.0960 -0.3392
 6228TIP3   OH240098   2.952   4.835   1.761  0.2642 -0.2205  0.8768
 6228TIP3    H140099   2.922   4.752   1.723 -1.0206 -0.0596  1.5184
 6228TIP3    H240100   2.872   4.882   1.783  0.9813  1.0632  0.8313
 6229TIP3   OH240101   5.009   2.461  14.825  0.4972 -0.4630 -0.3392
 6229TIP3    H140102   5.088   2.508  14.855  0.5009 -0.6540 -0.0468
 6229TIP3    H240103   4.993   2.397  14.893 -0.7012  0.4648  0.2846
 6230TIP3   OH240104   2.622   3.110   3.038 -0.2816 -0.1028 -0.2353
 6230TIP3    H140105   2.542   3.096   3.089 -0.0158  0.6485  0.4149
 6230TIP3    H240106   2.597   3.087   2.949 -0.6131 -1.9203  0.2938
 6231TIP3   OH240107   0.576   2.033   0.258  0.1247 -0.2283  0.1474
 6231TIP3    H140108   0.566   2.083   0.178 -2.1930 -1.2701 -0.3116
 6231TIP3    H240109   0.544   2.091   0.327 -0.6611 -0.3399 -0.1104
 6232TIP3   OH240110   4.033   3.108   3.171 -0.3276 -0.0693  0.2775
 6232TIP3    H140111   4.096   3.051   3.126 -1.0228 -1.3620  0.8889
 6232TIP3    H240112   3.951   3.096   3.122 -0.1342  1.6577 -0.5592
 6233TIP3   OH240113   2.763   4.289   2.625 -0.1412  0.2480 -0.3160
 6233TIP3    H140114   2.682   4.331   2.596 -0.1686  0.2649 -0.2125
 6233TIP3    H240115   2.743   4.195   2.625  0.1543  0.1699 -1.3082
 6234TIP3   OH240116   3.601   0.409  17.003 -0.1103 -0.6537  0.5995
 6234TIP3    H140117   3.671   0.372  17.058 -0.6333 -2.4102  0.1407
 6234TIP3    H240118   3.644   0.479  16.954  1.1477 -1.1739  0.9029
 6235TIP3   OH240119   0.585   3.766  12.730 -0.1145  0.2568 -0.2641
 6235TIP3    H140120   0.669   3.806  12.707  0.2233 -0.0645  0.3882
 6235TIP3    H240121   0.543   3.749  12.645  1.0453 -0.7835 -0.6718
 6236TIP3   OH240122   0.485   4.822   0.719 -0.2888 -0.0914 -0.1245
 6236TIP3    H140123   0.420   4.893   0.723  0.7936  0.9077  0.5482
 6236TIP3    H240124   0.570   4.867   0.719  0.4384 -1.3989  0.6366
 6237TIP3   OH240125   6.749   4.786   0.734 -0.7821 -0.6339 -0.1345
 6237TIP3    H140126   6.822   4.725   0.720 -0.2403 -0.2356  0.9144
 6237TIP3    H240127   6.782   4.870   0.702 -0.8394 -0.4825  0.2086
 6238TIP3   OH240128   2.247   2.582   2.280  0.6091  0.0899  0.0115
 6238TIP3    H140129   2.340   2.559   2.282 -0.2240 -4.1084  2.0715
 6238TIP3    H240130   2.222   2.571   2.188  2.1143  1.7091 -0.6670
 6239TIP3   OH240131   5.304   6.737  17.055 -0.2825  0.0043 -0.1561
 6239TIP3    H140132   5.253   6.718  16.976 -0.4300  2.2559 -0.6596
 6239TIP3    H240133   5.374   6.795  17.026 -0.8211  1.5797  1.4686
 6240TIP3   OH240134   3.386   3.954  16.713  0.5757  0.0837 -0.3517
 6240TIP3    H140135   3.468   3.984  16.751 -0.2470  3.4646 -0.8771
 6240TIP3    H240136   3.385   3.993  16.625 -1.9426  0.9996 -0.0026
 6241TIP3   OH240137   0.532   6.330   5.931 -0.0469 -0.4501 -0.2559
 6241TIP3    H140138   0.519   6.392   6.002  0.9865  1.5209 -1.6896
 6241TIP3    H240139   0.457   6.270   5.937 -2.1490  2.0232  0.1333
 6242TIP3   OH240140   0.227   0.671   4.482 -0.5392 -0.3906  0.2723
 6242TIP3    H140141   0.303   0.712   4.522 -0.6239 -0.5104  0.5621
 6242TIP3    H240142   0.260   0.627   4.405 -0.5591  0.8513 -0.4816
 6243TIP3   OH240143   4.821   0.096   5.787  0.3218 -0.0828  0.3372
 6243TIP3    H140144   4.897   0.134   5.832  0.8828 -0.8240  0.0561
 6243TIP3    H240145   4.859   0.047   5.714 -0.3413 -1.3078  0.7858
 6244TIP3   OH240146   2.646   4.951   1.023  0.0719  0.6906  0.0833
 6244TIP3    H140147   2.643   4.871   0.971 -1.0427  0.2002  0.8813
 6244TIP3    H240148   2.556   4.983   1.023  0.4125  1.6879  0.1839
 6245TIP3   OH240149   0.221   0.149  12.555 -0.3041 -0.7240  0.1905
 6245TIP3    H140150   0.309   0.159  12.520 -1.2270  1.8977 -1.7254
 6245TIP3    H240151   0.199   0.057  12.542  1.7054 -1.1657 -0.3325
 6246TIP3   OH240152   3.284   2.938  13.718 -0.3299 -0.3820  0.2283
 6246TIP3    H140153   3.262   3.028  13.696  0.2403  0.0846  1.5025
 6246TIP3    H240154   3.344   2.944  13.792  1.7988 -1.7148 -1.2702
 6247TIP3   OH240155   2.568   6.043   5.281 -0.4214  0.1560  0.2176
 6247TIP3    H140156   2.562   6.067   5.373  0.9700 -0.9897  0.6601
 6247TIP3    H240157   2.596   5.951   5.282  2.2530  0.8158 -1.2629
 6248TIP3   OH240158   2.909   3.761  15.419  0.0108  0.3155  0.1180
 6248TIP3    H140159   2.963   3.686  15.442  0.1510 -0.1166 -1.4982
 6248TIP3    H240160   2.972   3.831  15.402  0.1271 -0.1839 -1.7506
 6249TIP3   OH240161   6.625   6.259  16.343  0.3055  0.5928  0.0107
 6249TIP3    H140162   6.538   6.220  16.336  0.1399  0.8821  0.4412
 6249TIP3    H240163   6.681   6.202  16.291  0.4621 -1.4252  2.2058
 6250TIP3   OH240164   6.642   3.145   3.274  0.0708 -0.4555  0.0631
 6250TIP3    H140165   6.563   3.195   3.295 -0.7370  0.1933 -3.8035
 6250TIP3    H240166   6.714   3.208   3.287 -0.4066  0.0751  0.1623
 6251TIP3   OH240167   4.752   0.503  13.114  0.4279  0.4165  0.0464
 6251TIP3    H140168   4.790   0.472  13.196 -0.0977  0.5545  0.3471
 6251TIP3    H240169   4.702   0.581  13.139 -1.6525 -0.8368  0.0214
 6252TIP3   OH240170   6.467   2.316   4.045  0.0885  0.5790  0.6743
 6252TIP3    H140171   6.548   2.303   3.994  0.4849 -1.8406  1.7729
 6252TIP3    H240172   6.397   2.302   3.981  0.4635  2.7871 -0.3161
 6253TIP3   OH240173   4.326   3.720   0.457  0.7275 -0.8230  0.0098
 6253TIP3    H140174   4.235   3.696   0.438  0.5165  0.4102 -0.6765
 6253TIP3    H240175   4.362   3.746   0.372  1.5612 -0.7714  0.3654
 6254TIP3   OH240176   1.633   6.453  12.894  0.4126  0.0573  0.5961
 6254TIP3    H140177   1.720   6.423  12.922 -0.7560 -1.9750  2.3844
 6254TIP3    H240178   1.620   6.413  12.808  1.1498  0.2473  0.3857
 6255TIP3   OH240179   3.385   4.945  13.873  0.0471 -0.4866  0.2719
 6255TIP3    H140180   3.437   4.957  13.793 -2.4935  1.1062 -1.2730
 6255TIP3    H240181   3.298   4.975  13.850 -0.9303 -0.3733  3.5695
 6256TIP3   OH240182   6.711   6.711  11.534  0.0498  0.2997  0.1581
 6256TIP3    H140183   6.766   6.665  11.597 -0.6365 -0.2397  0.3738
 6256TIP3    H240184   6.766   6.783  11.503  0.7871 -0.0768  0.5490
 6257TIP3   OH240185   0.116   4.167  12.263 -0.1206 -0.0849  0.4910
 6257TIP3    H140186   0.031   4.152  12.221  0.4714  0.3065 -0.8758
 6257TIP3    H240187   0.098   4.235  12.328 -0.6886  0.6355 -0.3915
 6258TIP3   OH240188   4.039   1.958   3.484 -0.2886 -0.1274 -0.1084
 6258TIP3    H140189   4.048   1.936   3.391  0.1524 -3.0865  0.5581
 6258TIP3    H240190   3.945   1.948   3.501 -0.6734  2.1334 -0.5393
 6259TIP3   OH240191   1.826   0.165  14.222 -0.1245  0.0691  0.5531
 6259TIP3    H140192   1.884   0.089  14.220  0.1558  0.2708 -1.7984
 6259TIP3    H240193   1.881   0.236  14.257  0.3805 -0.2526  0.4282
 6260TIP3   OH240194   6.477   2.506  16.944  0.1172 -0.6015  0.3296
 6260TIP3    H140195   6.526   2.583  16.917 -0.5303 -0.4478 -0.4419
 6260TIP3    H240196   6.492   2.499  17.038 -0.2629  0.7847  0.5087
 6261TIP3   OH240197   3.317   5.187   2.208  0.2520 -0.1054  0.6325
 6261TIP3    H140198   3.399   5.231   2.229  0.5278 -0.4429  0.2813
 6261TIP3    H240199   3.333   5.143   2.125 -0.5042  0.3777  0.2110
 6262TIP3   OH240200   2.050   5.991   4.719  0.2009 -0.5093 -0.2018
 6262TIP3    H140201   2.060   6.035   4.803  0.2782  1.9511 -1.4054
 6262TIP3    H240202   1.959   5.962   4.718  0.4517 -1.3830  1.0739
 6263TIP3   OH240203   2.709   3.033  16.242  0.7644  0.5931 -0.4706
 6263TIP3    H140204   2.642   3.102  16.235 -0.2034 -0.0898  1.3072
 6263TIP3    H240205   2.692   2.975  16.167 -0.5979  0.4881 -0.1068
 6264TIP3   OH240206   0.693   0.485  13.703 -0.1872  0.6855  0.0944
 6264TIP3    H140207   0.671   0.543  13.630  1.5680 -0.3659 -1.3429
 6264TIP3    H240208   0.761   0.532  13.751  1.1240 -0.0347 -0.9822
 6265TIP3   OH240209   6.710   1.048   3.266  0.4534  0.0257 -0.1752
 6265TIP3    H140210   6.681   0.957   3.254 -2.4708  0.8741 -0.1771
 6265TIP3    H240211   6.696   1.066   3.358  0.4653  0.6658 -0.2972
 6266TIP3   OH240212   5.184   2.884   1.723 -0.8801  0.2528 -0.2571
 6266TIP3    H140213   5.253   2.878   1.657 -0.4879  2.1359 -0.0755
 6266TIP3    H240214   5.122   2.948   1.687 -1.6059 -0.0651  0.3929
 6267TIP3   OH240215   2.247   2.985  11.634 -0.2002 -0.3580 -0.2667
 6267TIP3    H140216   2.190   2.946  11.700  0.3172  0.7079  0.8538
 6267TIP3    H240217   2.190   3.007  11.561 -0.9076 -0.9276  0.1114
 6268TIP3   OH240218   5.794   2.364   2.288  0.3029  0.2374  0.2134
 6268TIP3    H140219   5.787   2.440   2.346  1.7843  0.5244  0.0516
 6268TIP3    H240220   5.846   2.300   2.338 -0.1353 -0.3139 -0.0187
 6269TIP3   OH240221   5.642   3.613  14.626  0.0442  0.0743 -0.3411
 6269TIP3    H140222   5.647   3.645  14.536  0.4025  0.0416 -0.3357
 6269TIP3    H240223   5.568   3.661  14.665 -0.1563  0.0319 -0.6730
 6270TIP3   OH240224   6.545   6.466   2.562  0.0195  0.6434  0.0881
 6270TIP3    H140225   6.482   6.394   2.564 -1.0100  1.5256  0.3482
 6270TIP3    H240226   6.627   6.425   2.535 -0.5334 -0.6281  0.2585
 6271TIP3   OH240227   3.080   4.314  15.930 -0.0382  0.0080  0.1951
 6271TIP3    H140228   3.039   4.391  15.971  1.9259  0.4074  1.5924
 6271TIP3    H240229   3.171   4.340  15.918  0.7738 -2.1929  1.0312
 6272TIP3   OH240230   4.035   6.632   5.491  0.5076  0.3544 -0.3010
 6272TIP3    H140231   3.946   6.622   5.526  0.2598 -0.3757 -1.0908
 6272TIP3    H240232   4.034   6.580   5.410  1.9314 -0.4523  0.1702
 6273TIP3   OH240233   2.527   6.396   4.149  0.2655 -0.1201 -0.0769
 6273TIP3    H140234   2.483   6.480   4.161  2.1778  0.9111  0.2282
 6273TIP3    H240235   2.604   6.417   4.096  0.0733 -1.9503 -1.1679
 6274TIP3   OH240236   2.130   5.385   6.012 -0.1875  0.2247 -0.1577
 6274TIP3    H140237   2.213   5.401   6.055 -0.0912  0.1372 -0.3100
 6274TIP3    H240238   2.065   5.427   6.068 -0.1803 -0.7956  0.6437
 6275TIP3   OH240239   4.607   4.153  14.913 -0.4241 -0.2809 -0.6787
 6275TIP3    H140240   4.514   4.139  14.931 -0.4694  1.9206  1.2928
 6275TIP3    H240241   4.646   4.170  14.999  1.1995  1.7818 -1.7245
 6276TIP3   OH240242   0.783   3.246   0.375 -0.4703 -0.2008 -0.7435
 6276TIP3    H140243   0.817   3.304   0.443 -0.6612 -0.6145 -0.2923
 6276TIP3    H240244   0.854   3.241   0.311  0.6603 -1.6520  0.5464
 6277TIP3   OH240245   5.442   1.733   1.001 -0.1216  0.3019  0.2069
 6277TIP3    H140246   5.523   1.691   1.031  0.6342  1.4084 -0.2548
 6277TIP3    H240247   5.399   1.761   1.082  0.2525  0.2572  0.4265
 6278TIP3   OH240248   6.709   3.400  14.130  0.3288 -0.0648  0.3359
 6278TIP3    H140249   6.630   3.403  14.184  1.4198  2.0581  1.9986
 6278TIP3    H240250   6.678   3.420  14.041 -1.0745  0.1631  0.8496
 6279TIP3   OH240251   0.348   3.353   3.691 -0.0345 -0.1237 -0.5178
 6279TIP3    H140252   0.440   3.366   3.714 -0.2670  1.3342 -0.2533
 6279TIP3    H240253   0.340   3.260   3.672  1.0293 -0.7039  1.5986
 6280TIP3   OH240254   0.104   3.751  16.136  0.0385  0.2502  0.1241
 6280TIP3    H140255   0.024   3.700  16.129  0.3173 -0.2524  0.5471
 6280TIP3    H240256   0.175   3.688  16.123  0.4187  0.3287  1.5940
 6281TIP3   OH240257   5.359   0.265  16.984  0.0323 -0.6973  0.2354
 6281TIP3    H140258   5.408   0.312  17.052 -0.1282  1.2866 -0.9242
 6281TIP3    H240259   5.374   0.317  16.905  0.6261 -3.2122 -1.3934
 6282TIP3   OH240260   0.693   2.440  14.228 -0.3134 -0.3125  0.1167
 6282TIP3    H140261   0.634   2.512  14.250 -0.1764 -0.1263 -0.1144
 6282TIP3    H240262   0.723   2.407  14.312  0.2601  0.4336  0.2120
 6283TIP3   OH240263   1.824   4.919  15.861 -0.0832 -0.0710  0.3448
 6283TIP3    H140264   1.763   4.852  15.829  1.6052 -1.6531  0.2669
 6283TIP3    H240265   1.784   5.002  15.836 -1.3716 -1.1004 -1.2077
 6284TIP3   OH240266   2.237   4.202   1.845 -0.1727  0.2947 -0.6161
 6284TIP3    H140267   2.238   4.119   1.798  1.5522  0.3703 -0.7925
 6284TIP3    H240268   2.195   4.183   1.928 -0.3566 -0.6035 -0.9103
 6285TIP3   OH240269   1.129   0.239  17.185 -0.4992 -0.6829  0.4347
 6285TIP3    H140270   1.191   0.309  17.203 -0.1806 -0.4944 -1.2057
 6285TIP3    H240271   1.181   0.159  17.184 -0.4363 -0.6414  0.0127
 6286TIP3   OH240272   5.847   4.014   3.554  0.5737  0.4289 -0.1523
 6286TIP3    H140273   5.871   4.040   3.465 -0.7855 -0.3905 -0.7984
 6286TIP3    H240274   5.761   4.054   3.568  0.1049 -0.6666  0.2035
 6287TIP3   OH240275   0.150   1.762   4.239 -0.1121 -0.5588  0.0053
 6287TIP3    H140276   0.125   1.697   4.304 -0.3421 -1.3374 -0.8491
 6287TIP3    H240277   0.221   1.721   4.189  0.6476  0.3559  0.2835
 6288TIP3   OH240278   0.564   2.599  13.853 -0.9137  0.3099 -0.6996
 6288TIP3    H140279   0.566   2.527  13.790 -1.6981  0.6663 -1.1483
 6288TIP3    H240280   0.510   2.566  13.925  0.0225 -0.1154 -0.1709
 6289TIP3   OH240281   0.988   6.568   4.220 -0.0701  0.0072  0.0658
 6289TIP3    H140282   1.026   6.648   4.258 -0.9560  0.5401 -0.1633
 6289TIP3    H240283   1.052   6.541   4.154  0.1638  0.6105  0.0359
 6290TIP3   OH240284   0.855   2.370  11.203 -0.3020  0.0730  0.0422
 6290TIP3    H140285   0.909   2.310  11.255 -0.1222  2.5509  2.9703
 6290TIP3    H240286   0.916   2.409  11.141  0.4646  0.0944  0.7895
 6291TIP3   OH240287   3.703   4.926  12.526  0.6708 -0.0784 -0.1295
 6291TIP3    H140288   3.659   4.842  12.543  1.5461 -0.4771  0.1883
 6291TIP3    H240289   3.664   4.986  12.590  0.6787 -0.4598  0.2427
 6292TIP3   OH240290   4.850   1.950  16.237 -0.1215  0.4537 -0.2673
 6292TIP3    H140291   4.840   2.008  16.312 -0.7580  0.0538 -0.0411
 6292TIP3    H240292   4.768   1.902  16.232 -0.0529  0.4173 -1.1719
 6293TIP3   OH240293   4.163   0.796   5.483  0.0399  0.0866  0.7110
 6293TIP3    H140294   4.155   0.791   5.578 -0.4167  1.0542  0.7380
 6293TIP3    H240295   4.253   0.770   5.465  0.2491  0.2861  1.4411
 6294TIP3   OH240296   3.678   4.851   2.555 -0.4809  0.1284  0.3961
 6294TIP3    H140297   3.636   4.777   2.598 -1.5556  1.0121  0.9211
 6294TIP3    H240298   3.758   4.865   2.605  0.8006 -1.9112 -0.9408
 6295TIP3   OH240299   0.377   0.743   5.152 -0.1498 -0.4282 -0.3141
 6295TIP3    H140300   0.416   0.757   5.065  1.1047 -0.5630  0.1984
 6295TIP3    H240301   0.306   0.807   5.157 -0.1264 -0.2914 -1.3646
 6296TIP3   OH240302   1.941   5.323  12.883  0.0547 -0.3302  0.3114
 6296TIP3    H140303   1.994   5.251  12.850 -0.1274 -1.2658  1.9512
 6296TIP3    H240304   1.852   5.301  12.858  0.3303  1.2921 -2.5348
 6297TIP3   OH240305   0.440   0.095  11.649  0.0036 -0.4473  0.3413
 6297TIP3    H140306   0.455   0.189  11.638  2.0842 -0.7104  0.5056
 6297TIP3    H240307   0.462   0.078  11.741  2.0744 -1.4353 -0.2639
 6298TIP3   OH240308   6.063   5.165   2.930  0.3000  0.1778  0.0513
 6298TIP3    H140309   6.021   5.230   2.987  0.2334  1.0848 -1.0044
 6298TIP3    H240310   6.085   5.093   2.989  1.6641  1.7327  1.5373
 6299TIP3   OH240311   6.287   1.638  12.943  0.5115  0.1186 -0.0461
 6299TIP3    H140312   6.368   1.680  12.915  1.1118 -0.4277  0.8290
 6299TIP3    H240313   6.256   1.691  13.016 -0.6131  1.0591 -1.1562
 6300TIP3   OH240314   3.854   0.366  13.332  0.0813 -0.7398  0.0530
 6300TIP3    H140315   3.793   0.336  13.265 -0.6481 -1.6426  1.0732
 6300TIP3    H240316   3.937   0.380  13.285  0.0291 -2.8407 -0.8023
 6301TIP3   OH240317   1.767   5.515   2.307 -0.6723  0.5196 -0.5713
 6301TIP3    H140318   1.773   5.584   2.374 -0.8521  0.4977 -0.5327
 6301TIP3    H240319   1.681   5.527   2.268 -0.7260  0.2767 -0.5242
 6302TIP3   OH240320   2.289   5.943  10.509 -0.1154 -0.1895 -0.0827
 6302TIP3    H140321   2.302   5.910  10.420  1.5924 -2.1473  0.7977
 6302TIP3    H240322   2.216   5.892  10.543 -0.8630  0.6611 -0.3838
 6303TIP3   OH240323   2.516   1.206   6.373  0.0294 -0.0083  0.4981
 6303TIP3    H140324   2.568   1.154   6.434  0.1705  0.2637  0.6114
 6303TIP3    H240325   2.571   1.282   6.353 -0.6708  0.7313  1.3046
 6304TIP3   OH240326   2.298   5.034  14.584  0.4687  0.5220  0.2319
 6304TIP3    H140327   2.272   4.943  14.597  1.8153 -0.1572 -1.4159
 6304TIP3    H240328   2.309   5.069  14.673 -2.7246 -0.0366  0.9666
 6305TIP3   OH240329   0.823   6.649  11.636 -0.3845  0.4509 -0.1041
 6305TIP3    H140330   0.856   6.561  11.657  0.3065  0.6392 -0.3670
 6305TIP3    H240331   0.842   6.701  11.714  0.0411  0.5830 -0.2916
 6306TIP3   OH240332   0.715   0.726  15.659 -0.4992  1.2874 -0.0168
 6306TIP3    H140333   0.722   0.805  15.713  3.2429  1.2233 -0.2051
 6306TIP3    H240334   0.803   0.710  15.627 -1.2753 -2.4661 -0.7827
 6307TIP3   OH240335   4.548   6.472   2.260 -0.1530  0.3999 -0.2010
 6307TIP3    H140336   4.618   6.474   2.195  0.2761 -0.0105  0.2380
 6307TIP3    H240337   4.508   6.559   2.255  0.6805  0.7971 -0.1485
 6308TIP3   OH240338   2.894   4.816   3.243  0.1230 -0.1660 -0.1735
 6308TIP3    H140339   2.799   4.824   3.234 -0.0631  0.4962  1.8098
 6308TIP3    H240340   2.909   4.725   3.266  0.0123 -0.3568 -0.8436
 6309TIP3   OH240341   2.490   1.314  14.400 -0.3638  0.1153 -0.1221
 6309TIP3    H140342   2.536   1.254  14.459 -1.9916  0.4862  1.6335
 6309TIP3    H240343   2.520   1.401  14.426 -0.1048  0.2246 -0.7634
 6310TIP3   OH240344   0.873   0.100   2.771  0.7847 -0.5322  0.2257
 6310TIP3    H140345   0.943   0.059   2.721  1.4319  0.9552 -0.1578
 6310TIP3    H240346   0.821   0.147   2.705 -0.0798 -0.9270  0.6098
 6311TIP3   OH240347   6.668   0.561   4.659  0.2524  0.5647  0.0756
 6311TIP3    H140348   6.625   0.483   4.625  1.0740  0.4386 -0.7005
 6311TIP3    H240349   6.684   0.615   4.581 -0.4900  1.6025  0.6225
 6312TIP3   OH240350   4.301   6.581   3.739  0.2786  0.2676  0.6119
 6312TIP3    H140351   4.321   6.651   3.801 -0.1406 -2.5309  4.2738
 6312TIP3    H240352   4.207   6.589   3.723  0.0803  0.1292  1.6468
 6313TIP3   OH240353   5.588   4.944  13.602 -0.0548  0.1964  0.0701
 6313TIP3    H140354   5.617   4.875  13.542 -1.0357  0.7432 -1.0806
 6313TIP3    H240355   5.668   4.974  13.645  0.4107 -1.5040  0.4484
 6314TIP3   OH240356   3.517   3.753  16.558 -0.4752 -0.4483  0.0029
 6314TIP3    H140357   3.471   3.679  16.597 -1.8018 -0.0326 -0.7074
 6314TIP3    H240358   3.551   3.803  16.633 -0.3661 -1.2746  0.5087
 6315TIP3   OH240359   5.216   0.644   5.862  0.1816 -0.6867  0.0695
 6315TIP3    H140360   5.123   0.668   5.864  0.4969  0.7844 -1.3470
 6315TIP3    H240361   5.243   0.645   5.954 -0.7349  0.7816  0.3437
 6316TIP3   OH240362   1.547   3.813  16.366  0.0393  0.6071  0.4636
 6316TIP3    H140363   1.539   3.758  16.289  1.9080  1.1156 -0.1502
 6316TIP3    H240364   1.489   3.773  16.431 -0.4647 -0.6613 -0.7284
 6317TIP3   OH240365   1.448   1.234   0.729 -0.3258  0.4215  0.0758
 6317TIP3    H140366   1.511   1.243   0.800  0.2536 -1.4320 -0.1546
 6317TIP3    H240367   1.459   1.313   0.677 -0.7874  1.8413  2.0355
 6318TIP3   OH240368   2.100   5.552   4.913  0.2812  0.5151  0.1502
 6318TIP3    H140369   2.074   5.643   4.928  0.1995  0.2809  1.5621
 6318TIP3    H240370   2.017   5.504   4.906  0.3243  0.5338 -0.5839
 6319TIP3   OH240371   6.282   5.210  15.182 -0.1072 -0.3951  0.3579
 6319TIP3    H140372   6.334   5.235  15.259 -1.0383 -2.3743  1.7121
 6319TIP3    H240373   6.227   5.287  15.165  3.5619  2.0965 -1.5969
 6320TIP3   OH240374   0.125   5.215   6.231  0.0284  0.5186  0.0739
 6320TIP3    H140375   0.107   5.298   6.187  3.6317  1.3555 -0.1023
 6320TIP3    H240376   0.165   5.160   6.163  2.9975  0.7909  1.4681
 6321TIP3   OH240377   5.845   0.583   1.450 -0.3351 -0.6889 -0.2188
 6321TIP3    H140378   5.936   0.611   1.441 -0.5187  0.3778  1.0167
 6321TIP3    H240379   5.806   0.600   1.364  0.2473  0.3289 -0.2940
 6322TIP3   OH240380   2.391   5.169  15.102  0.7262 -0.0964 -0.6691
 6322TIP3    H140381   2.465   5.109  15.110 -0.8179 -2.1568 -0.9909
 6322TIP3    H240382   2.316   5.112  15.083 -0.6564  2.0490 -2.0344
 6323TIP3   OH240383   5.541   0.710   0.427 -0.4964 -0.1245 -0.1203
 6323TIP3    H140384   5.510   0.796   0.454 -1.9073 -1.3336  2.4300
 6323TIP3    H240385   5.633   0.708   0.452 -0.9537 -0.0058  1.6927
 6324TIP3   OH240386   1.487   4.630   0.826 -0.3559 -0.4477 -0.7638
 6324TIP3    H140387   1.454   4.714   0.859  0.7203  0.1253 -1.0833
 6324TIP3    H240388   1.495   4.575   0.904  1.9254  0.8129  0.0068
 6325TIP3   OH240389   3.381   5.277  16.829  0.4543 -0.3620  0.3978
 6325TIP3    H140390   3.405   5.350  16.772  1.4083 -1.7893 -1.1170
 6325TIP3    H240391   3.319   5.315  16.892  0.9523  1.7375 -0.2935
 6326TIP3   OH240392   3.346   5.207  16.380  0.0971  0.0783  0.0358
 6326TIP3    H140393   3.430   5.174  16.348 -0.2779 -0.5531 -0.3045
 6326TIP3    H240394   3.281   5.161  16.328 -0.6573 -2.6293  3.0189
 6327TIP3   OH240395   3.413   0.209  10.924 -0.0254  0.1004 -0.4897
 6327TIP3    H140396   3.442   0.139  10.983  1.0570 -0.3233 -1.4648
 6327TIP3    H240397   3.381   0.162  10.847 -0.4217  0.6629 -0.6653
 6328TIP3   OH240398   3.504   6.176  12.728  0.3169  0.1445  0.0061
 6328TIP3    H140399   3.565   6.205  12.660 -1.0926  0.4038 -1.2039
 6328TIP3    H240400   3.550   6.104  12.772  1.5796  0.4866 -0.6842
 6329TIP3   OH240401   3.447   6.009  14.491 -0.3849  0.0305 -0.1327
 6329TIP3    H140402   3.407   5.996  14.405 -0.6385  0.1907 -0.0408
 6329TIP3    H240403   3.532   6.050  14.472 -0.7739  0.7925 -0.2699
 6330TIP3   OH240404   1.740   1.573   5.814 -0.3947  0.0106 -0.2886
 6330TIP3    H140405   1.734   1.526   5.897 -0.4551  1.5474  0.6207
 6330TIP3    H240406   1.834   1.576   5.795 -0.3799 -0.3316 -0.2739
 6331TIP3   OH240407   4.301   3.569  13.640  0.1082  1.1733 -0.8074
 6331TIP3    H140408   4.317   3.606  13.726  0.7561  0.3099 -0.5485
 6331TIP3    H240409   4.387   3.542  13.609 -0.3450 -0.1174 -0.9843
 6332TIP3   OH240410   3.572   4.815  12.299  0.3186 -0.1835 -0.5891
 6332TIP3    H140411   3.513   4.793  12.371 -0.0446  1.2912 -0.4155
 6332TIP3    H240412   3.640   4.869  12.340  1.0117 -0.6667 -1.0679
 6333TIP3   OH240413   0.170   2.356   4.447  0.3828 -0.0171 -0.2228
 6333TIP3    H140414   0.083   2.318   4.429  0.1439  1.7969 -3.5688
 6333TIP3    H240415   0.152   2.431   4.503 -0.0084 -0.4811  0.2872
 6334TIP3   OH240416   1.531   1.591  15.596 -0.6375  0.2376 -0.2201
 6334TIP3    H140417   1.539   1.612  15.503 -1.3540 -1.5644 -0.7236
 6334TIP3    H240418   1.443   1.622  15.619 -0.5423  0.4862 -0.1807
 6335TIP3   OH240419   0.958   4.441   4.346  0.1735 -0.3413  0.2340
 6335TIP3    H140420   0.961   4.425   4.252 -1.3104  1.2997 -0.1382
 6335TIP3    H240421   1.038   4.491   4.365  0.1084 -0.0283 -0.3031
 6336TIP3   OH240422   0.831   3.463   0.121  0.6018 -0.1863  0.8744
 6336TIP3    H140423   0.829   3.508   0.205  0.5120 -0.7506  1.1810
 6336TIP3    H240424   0.739   3.454   0.097  0.4095 -2.7134  2.2031
 6337TIP3   OH240425   3.774   6.704  16.624 -0.0891 -0.2659  0.0450
 6337TIP3    H140426   3.855   6.654  16.620  0.3731  0.5353 -0.7708
 6337TIP3    H240427   3.785   6.762  16.699  0.5724  0.6378 -0.7349
 6338TIP3   OH240428   3.925   0.204  11.679 -0.4701 -0.1562  0.2149
 6338TIP3    H140429   3.857   0.176  11.618  0.7721  0.6632 -1.6628
 6338TIP3    H240430   3.993   0.136  11.672 -0.6906 -0.5232  1.4066
 6339TIP3   OH240431   3.354   3.075  15.351 -0.3268 -0.1357  0.2710
 6339TIP3    H140432   3.325   2.992  15.314 -2.2750  0.0068  1.3515
 6339TIP3    H240433   3.383   3.054  15.440  1.7091 -0.0357 -0.3148
 6340TIP3   OH240434   0.991   5.344  16.981 -0.6564  0.1660 -0.0491
 6340TIP3    H140435   0.975   5.273  17.043 -1.3260 -0.6826 -1.1593
 6340TIP3    H240436   1.074   5.321  16.939 -0.3688  0.5741  0.2786
 6341TIP3   OH240437   6.581   0.767   5.963  0.1714  0.4871 -0.4301
 6341TIP3    H140438   6.575   0.696   5.899 -3.3196  0.8610 -0.6613
 6341TIP3    H240439   6.669   0.804   5.948  1.3046 -2.4035 -1.6888
 6342TIP3   OH240440   2.089   2.858   4.896 -0.0690 -0.0362  0.4620
 6342TIP3    H140441   2.027   2.852   4.824 -0.9518  0.9282  1.1156
 6342TIP3    H240442   2.135   2.774   4.895 -1.6292 -0.9293  0.1881
 6343TIP3   OH240443   3.582   4.748   4.932  0.5538 -0.1364  0.0597
 6343TIP3    H140444   3.577   4.786   4.845  1.0295 -0.3066 -0.0444
 6343TIP3    H240445   3.668   4.774   4.965  0.8812 -1.0923 -0.0077
 6344TIP3   OH240446   4.482   2.853   3.145 -0.0443  0.2463  0.5401
 6344TIP3    H140447   4.464   2.831   3.236  2.2495  0.5047  1.1149
 6344TIP3    H240448   4.540   2.784   3.115  2.8243  2.4201  0.6960
 6345TIP3   OH240449   1.747   5.743   2.462  0.4418  0.2111  0.0489
 6345TIP3    H140450   1.802   5.821   2.462  1.7013 -0.6494  0.2169
 6345TIP3    H240451   1.659   5.776   2.444  1.0467  1.5913 -0.5488
 6346TIP3   OH240452   1.457   1.681   2.080 -0.7396 -0.0847  0.3070
 6346TIP3    H140453   1.539   1.722   2.107 -0.3243  0.9924 -2.2984
 6346TIP3    H240454   1.465   1.589   2.107  0.4065  0.4467  1.8938
 6347TIP3   OH240455   5.186   1.631   2.536 -0.3978  0.5781 -0.3172
 6347TIP3    H140456   5.143   1.705   2.493 -0.0703  0.5956 -0.6207
 6347TIP3    H240457   5.273   1.629   2.496 -0.3651  0.1085 -0.2158
 6348TIP3   OH240458   3.800   6.008   5.472  0.3166  0.1144 -0.4750
 6348TIP3    H140459   3.892   5.999   5.497  0.1513  0.0246  0.1208
 6348TIP3    H240460   3.792   5.957   5.391  0.8005  0.1684 -0.5607
 6349TIP3   OH240461   4.877   4.268   1.269 -0.8947 -0.3686  0.1556
 6349TIP3    H140462   4.793   4.223   1.270 -0.0769 -1.9905  0.1350
 6349TIP3    H240463   4.918   4.244   1.352 -0.0826 -0.4059 -0.2368
 6350TIP3   OH240464   4.812   4.807  16.900 -0.2550  0.6427  0.0648
 6350TIP3    H140465   4.906   4.821  16.911 -0.4629  0.2544  3.8066
 6350TIP3    H240466   4.802   4.781  16.809  2.8822  3.1716 -1.1960
 6351TIP3   OH240467   3.438   1.671  13.374 -0.4344 -0.4035 -0.1240
 6351TIP3    H140468   3.516   1.659  13.320 -0.8821 -1.3473 -0.5817
 6351TIP3    H240469   3.459   1.746  13.430  1.5668 -1.7938  1.1223
 6352TIP3   OH240470   0.884   0.932   4.733 -0.2798  0.0980  0.3341
 6352TIP3    H140471   0.978   0.950   4.729 -0.4583  1.1747  0.7312
 6352TIP3    H240472   0.878   0.842   4.765  0.6051  0.7899  2.6610
 6353TIP3   OH240473   4.819   0.823  15.400 -0.1492  0.0892 -0.0180
 6353TIP3    H140474   4.725   0.818  15.382 -0.4385  0.4129  1.2749
 6353TIP3    H240475   4.845   0.909  15.370 -0.7409  0.8476  1.5190
 6354TIP3   OH240476   4.889   4.188   6.770  0.2251 -0.4508  0.2719
 6354TIP3    H140477   4.953   4.141   6.824  1.2676  1.1771  0.5171
 6354TIP3    H240478   4.928   4.189   6.683 -0.7890 -1.8339 -0.2278
 6355TIP3   OH240479   4.176   5.466   0.642  0.4076  0.2348  0.4033
 6355TIP3    H140480   4.123   5.533   0.686 -0.5768  0.3351 -0.8738
 6355TIP3    H240481   4.192   5.400   0.709  0.5290  1.2493  1.4118
 6356TIP3   OH240482   0.069   5.882  11.232  0.4996  0.9192 -0.0302
 6356TIP3    H140483   0.118   5.806  11.201  0.0815  1.0951 -1.1781
 6356TIP3    H240484   0.040   5.858  11.320  1.6156  0.3393  0.1947
 6357TIP3   OH240485   1.559   0.498   4.333 -0.6640  0.3722  0.5464
 6357TIP3    H140486   1.596   0.471   4.417  0.8816 -0.1133 -0.2415
 6357TIP3    H240487   1.635   0.524   4.281 -1.5130  0.0147 -0.9220
 6358TIP3   OH240488   1.487   1.993   4.672  0.1078 -0.2593  0.0940
 6358TIP3    H140489   1.582   1.998   4.682  0.4535 -0.3258 -2.4815
 6358TIP3    H240490   1.468   2.047   4.596 -2.1164  0.7806  1.2890
 6359TIP3   OH240491   5.173   1.980   2.735  0.1870 -0.7088 -0.7512
 6359TIP3    H140492   5.213   2.026   2.661  0.2694 -0.3920 -0.5107
 6359TIP3    H240493   5.084   2.015   2.740 -0.1363 -1.4350 -1.3042
 6360TIP3   OH240494   3.501   4.010   3.887 -0.2695 -0.4497  0.3935
 6360TIP3    H140495   3.565   4.080   3.900 -1.0513  0.9642 -2.4399
 6360TIP3    H240496   3.545   3.931   3.916  1.5940  0.8790  1.3880
 6361TIP3   OH240497   5.497   3.071  15.500  0.2963 -0.0343  0.0933
 6361TIP3    H140498   5.463   3.159  15.485  0.8675  0.5210  1.7892
 6361TIP3    H240499   5.566   3.083  15.565  0.6048 -1.7086  0.1224
 6362TIP3   OH240500   0.465   4.538   4.682  0.0706 -0.6968 -0.2846
 6362TIP3    H140501   0.533   4.562   4.745  0.7492 -3.0844 -0.0279
 6362TIP3    H240502   0.459   4.613   4.623  1.4065  0.4293  0.9374
 6363TIP3   OH240503   3.118   5.526   1.264 -0.2671  0.0560 -0.2093
 6363TIP3    H140504   3.136   5.570   1.348 -0.4235 -0.2726  0.0007
 6363TIP3    H240505   3.191   5.551   1.208  0.9472 -1.3531  0.6628
 6364TIP3   OH240506   4.486   3.034   2.932 -0.0149 -0.0367  0.1053
 6364TIP3    H140507   4.416   3.000   2.877 -0.7521  0.3527  0.7705
 6364TIP3    H240508   4.491   2.972   3.005 -0.0052  0.1965  0.3049
 6365TIP3   OH240509   1.748   4.712  12.070 -0.0694  0.0167  0.2574
 6365TIP3    H140510   1.782   4.751  12.151  0.9970 -2.0462  0.8670
 6365TIP3    H240511   1.653   4.726  12.075  0.2366  2.6742  0.2887
 6366TIP3   OH240512   5.435   6.385   3.688  0.0167 -0.1149  0.1679
 6366TIP3    H140513   5.455   6.299   3.650 -0.8765  0.0093 -0.6319
 6366TIP3    H240514   5.492   6.392   3.764  1.4711 -0.6216 -0.8479
 6367TIP3   OH240515   6.184   5.266  13.433 -0.4808  0.1500  0.1531
 6367TIP3    H140516   6.120   5.283  13.502 -0.7169 -1.7622  0.4803
 6367TIP3    H240517   6.140   5.296  13.353 -1.4545 -0.3482  0.4770
 6368TIP3   OH240518   6.553   6.518   6.193 -0.0295  0.0609  0.6792
 6368TIP3    H140519   6.631   6.480   6.152  0.0384  1.1708 -0.2963
 6368TIP3    H240520   6.587   6.568   6.268  0.5111  2.1804 -0.8752
 6369TIP3   OH240521   3.536   6.044  14.839 -0.1018 -0.1940 -0.0056
 6369TIP3    H140522   3.455   6.072  14.882  0.8137  0.3635  1.4022
 6369TIP3    H240523   3.513   5.959  14.800 -1.0585 -0.5731  1.3116
 6370TIP3   OH240524   6.726   0.080   0.419 -0.3964  0.0526 -0.2837
 6370TIP3    H140525   6.803   0.135   0.434  1.1587 -1.5739 -1.6753
 6370TIP3    H240526   6.670   0.131   0.360  0.4429  0.6121 -0.6117
 6371TIP3   OH240527   3.464   4.029  13.900 -0.1583  0.4657 -0.0956
 6371TIP3    H140528   3.416   4.002  13.977  0.4098 -1.1786 -0.2878
 6371TIP3    H240529   3.551   4.053  13.933 -0.3063  0.9727 -0.0700
 6372TIP3   OH240530   5.919   1.414   2.737  0.8117 -0.3848 -0.4386
 6372TIP3    H140531   6.008   1.396   2.707  0.6290 -0.5548 -0.8740
 6372TIP3    H240532   5.864   1.356   2.685  0.5318 -0.9905  0.5080
 6373TIP3   OH240533   0.230   4.271   2.525  0.9221  0.7975 -0.0267
 6373TIP3    H140534   0.135   4.275   2.525  0.9295  1.0822 -1.0893
 6373TIP3    H240535   0.256   4.306   2.440  1.9379 -0.1426 -0.1237
 6374TIP3   OH240536   1.990   6.105  15.056  0.2951 -0.2648 -0.1939
 6374TIP3    H140537   1.906   6.082  15.097 -0.2143 -0.6363 -1.3779
 6374TIP3    H240538   2.056   6.059  15.109 -0.0651  1.2111  1.6531
 6375TIP3   OH240539   3.128   4.822   2.536  0.3185  0.0805 -0.0329
 6375TIP3    H140540   3.124   4.756   2.467  0.3510 -0.6217  0.6210
 6375TIP3    H240541   3.142   4.905   2.490  0.7376 -0.4302 -0.8364
 6376TIP3   OH240542   1.719   4.706  15.455 -0.7686 -0.3401 -0.0504
 6376TIP3    H140543   1.662   4.645  15.408 -1.3351 -0.4607  0.7723
 6376TIP3    H240544   1.692   4.792  15.424 -0.5978 -0.4545 -0.5306
 6377TIP3   OH240545   2.911   5.662  14.440 -0.4967 -0.2009  0.2681
 6377TIP3    H140546   2.857   5.739  14.458 -0.7740 -0.7994  2.2089
 6377TIP3    H240547   2.915   5.657  14.345 -1.7480  1.3205  0.1042
 6378TIP3   OH240548   1.356   5.455  16.619 -0.7392  0.6341  0.3427
 6378TIP3    H140549   1.355   5.503  16.701 -0.1154  2.5794 -0.7196
 6378TIP3    H240550   1.425   5.497  16.568  0.2780 -1.8205 -0.4523
 6379TIP3   OH240551   1.470   3.609  14.588 -0.3264  0.0553  0.4228
 6379TIP3    H140552   1.520   3.687  14.567  0.9102 -0.7829  0.1649
 6379TIP3    H240553   1.393   3.614  14.531  1.1524 -0.3251 -1.7111
 6380TIP3   OH240554   0.365   3.436  13.672  0.4275 -0.1282 -0.0365
 6380TIP3    H140555   0.445   3.487  13.658  1.0111 -1.0384 -0.0961
 6380TIP3    H240556   0.368   3.368  13.605 -1.2184  0.7816 -1.0911
 6381TIP3   OH240557   1.085   3.107   1.373  0.2306  0.1861  0.1447
 6381TIP3    H140558   1.087   3.203   1.377  0.6029  0.1900 -0.0619
 6381TIP3    H240559   1.135   3.086   1.294  0.0156 -0.1736  0.1040
 6382TIP3   OH240560   0.360   5.434   3.140 -0.2819 -0.0890 -0.0477
 6382TIP3    H140561   0.279   5.458   3.184  0.5898 -0.4230  1.8536
 6382TIP3    H240562   0.373   5.342   3.164 -0.0991 -0.4865 -1.5878
 6383TIP3   OH240563   3.004   2.888  11.501  0.0273 -0.4028  0.3390
 6383TIP3    H140564   3.082   2.894  11.447  0.0034  1.3179  0.4364
 6383TIP3    H240565   2.946   2.828  11.454  0.0514  0.9581 -1.5364
 6384TIP3   OH240566   6.633   5.417  12.892 -0.2719  0.1159  0.2165
 6384TIP3    H140567   6.569   5.476  12.930  0.7127  0.5918  1.1700
 6384TIP3    H240568   6.588   5.379  12.816 -1.5591  0.6643  0.6813
 6385TIP3   OH240569   3.977   1.956  15.403 -0.1047  0.3415  0.1710
 6385TIP3    H140570   4.022   2.024  15.353 -1.0583  1.4335  0.7423
 6385TIP3    H240571   3.919   2.005  15.462 -0.8522 -0.9828  0.5601
 6386TIP3   OH240572   3.711   0.680  17.031 -0.3195  0.2114 -0.1149
 6386TIP3    H140573   3.621   0.670  17.064 -0.7748  2.8021 -0.4154
 6386TIP3    H240574   3.701   0.685  16.936  0.2375 -0.1667 -0.1982
 6387TIP3   OH240575   5.748   3.676   4.103  0.2211 -0.2169  0.0880
 6387TIP3    H140576   5.720   3.586   4.085  1.7118 -0.7481  0.2389
 6387TIP3    H240577   5.843   3.670   4.110  0.4131  1.4973 -0.5466
 6388TIP3   OH240578   4.550   0.185   5.314  0.5928  0.4814 -0.5085
 6388TIP3    H140579   4.646   0.186   5.311  0.8060  0.7864  2.4933
 6388TIP3    H240580   4.528   0.262   5.367 -1.1686 -0.5305  0.3147
 6389TIP3   OH240581   6.145   2.192  12.734  0.1300  0.5337 -0.0638
 6389TIP3    H140582   6.137   2.277  12.691  1.9809  0.6943 -0.1754
 6389TIP3    H240583   6.203   2.208  12.809  0.5284 -0.6278 -0.0990
 6390TIP3   OH240584   6.610   0.718  11.143 -0.0048 -0.1052  0.2574
 6390TIP3    H140585   6.584   0.810  11.138 -1.3312 -0.4433  0.5928
 6390TIP3    H240586   6.686   0.712  11.085 -0.3016  1.0677 -0.2896
 6391TIP3   OH240587   6.093   1.507   3.605  0.0352 -0.3417  0.3882
 6391TIP3    H140588   6.165   1.548   3.652 -0.4003 -1.5482  2.2154
 6391TIP3    H240589   6.074   1.567   3.533  0.0180  2.2433  2.3757
 6392TIP3   OH240590   2.701   1.633   4.912 -0.0093 -0.5291  0.0757
 6392TIP3    H140591   2.696   1.604   4.821 -0.3213 -1.4077  0.3650
 6392TIP3    H240592   2.613   1.619   4.947 -0.2433  0.9804  0.1866
 6393TIP3   OH240593   4.289   1.334   5.703 -0.0613  0.1274 -0.0874
 6393TIP3    H140594   4.371   1.372   5.733  0.8162 -2.6560  1.4132
 6393TIP3    H240595   4.224   1.362   5.768  0.1823  0.4367  0.0238
 6394TIP3   OH240596   4.031   1.448   1.184 -0.4487 -0.1989  0.1500
 6394TIP3    H140597   3.947   1.492   1.177  0.5720  1.6838 -1.5635
 6394TIP3    H240598   4.067   1.478   1.267 -0.6742  0.5475 -0.0152
 6395TIP3   OH240599   5.753   3.326  12.392 -0.3539 -0.0988  0.4259
 6395TIP3    H140600   5.789   3.376  12.465  0.2403 -0.0297  0.0930
 6395TIP3    H240601   5.820   3.262  12.371 -2.0822 -2.8413  2.4868
 6396TIP3   OH240602   2.697   4.044   5.013 -0.1918  0.0242 -0.2198
 6396TIP3    H140603   2.770   4.007   5.063  0.1963 -1.6330 -1.8790
 6396TIP3    H240604   2.658   3.969   4.969 -1.4117  1.2113 -1.2413
 6397TIP3   OH240605   1.828   0.820  12.665  0.1117  0.0327  0.3409
 6397TIP3    H140606   1.814   0.734  12.707 -0.0448 -0.4426 -0.6633
 6397TIP3    H240607   1.884   0.801  12.590 -0.8624  0.6222 -0.5675
 6398TIP3   OH240608   2.929   0.766   1.524 -0.5061  0.0613  0.0626
 6398TIP3    H140609   3.009   0.740   1.569  1.0606 -0.0255 -2.5723
 6398TIP3    H240610   2.896   0.685   1.485 -2.0773  0.0514  1.3006
 6399TIP3   OH240611   3.215   6.685  15.795 -0.0237 -0.1878 -0.1896
 6399TIP3    H140612   3.204   6.590  15.794 -1.8256 -0.0254 -2.2648
 6399TIP3    H240613   3.125   6.719  15.797  0.5250  1.4546 -1.4991
 6400TIP3   OH240614   6.460   4.191   1.382  0.6030  0.0849  0.4207
 6400TIP3    H140615   6.497   4.164   1.466  2.5189  1.7745  0.2069
 6400TIP3    H240616   6.420   4.277   1.400  1.7006  0.8228 -0.4992
 6401TIP3   OH240617   0.471   6.669   3.808  0.5218 -0.4877 -0.3165
 6401TIP3    H140618   0.472   6.705   3.719 -0.7215 -2.2592 -1.0976
 6401TIP3    H240619   0.547   6.709   3.850  0.9461  0.6636 -2.0637
 6402TIP3   OH240620   3.371   2.236  14.912 -0.9764 -0.0714  0.1037
 6402TIP3    H140621   3.339   2.325  14.899  1.2732  0.4850 -2.5893
 6402TIP3    H240622   3.351   2.191  14.830 -3.0440 -2.4822  1.7883
 6403TIP3   OH240623   5.145   1.159  17.279  0.5275  0.0150  0.1514
 6403TIP3    H140624   5.212   1.224  17.299 -0.2818  1.1024 -0.5752
 6403TIP3    H240625   5.170   1.082  17.331  1.8997  0.6469  0.4729
 6404TIP3   OH240626   5.424   2.570  16.694 -0.3278 -0.7503 -0.0165
 6404TIP3    H140627   5.514   2.585  16.665 -0.3233  0.0475  0.3921
 6404TIP3    H240628   5.434   2.533  16.782 -0.4051  0.6541  0.6119
 6405TIP3   OH240629   2.394   5.210   5.012 -0.5242  0.4535 -0.0668
 6405TIP3    H140630   2.408   5.116   5.028  0.6791  0.7648  0.8993
 6405TIP3    H240631   2.374   5.216   4.919  0.6736 -0.6496 -0.4272
 6406TIP3   OH240632   5.306   5.786   4.601 -0.0652  0.0913 -0.1900
 6406TIP3    H140633   5.365   5.835   4.659 -0.7398 -0.0503  0.6288
 6406TIP3    H240634   5.262   5.854   4.549 -0.3950  0.3147  0.3690
 6407TIP3   OH240635   6.154   6.461  17.150 -0.5645 -0.0666  0.4834
 6407TIP3    H140636   6.130   6.430  17.062  1.5549 -0.2256 -0.0925
 6407TIP3    H240637   6.217   6.396  17.182  0.6944  1.3514  1.0101
 6408TIP3   OH240638   5.128   5.509  13.990 -0.3206 -0.0636 -0.2002
 6408TIP3    H140639   5.164   5.424  14.015  0.7736 -0.3033 -2.3365
 6408TIP3    H240640   5.205   5.562  13.968 -1.0409  1.1519  0.1090
 6409TIP3   OH240641   1.188   6.108   5.339  0.6264 -0.6195  0.3708
 6409TIP3    H140642   1.119   6.051   5.305  1.4905 -1.9215  0.7207
 6409TIP3    H240643   1.171   6.193   5.299 -0.3462 -1.2686 -0.6469
 6410TIP3   OH240644   1.114   5.964  12.530 -0.1998 -0.0819  0.4198
 6410TIP3    H140645   1.180   5.897  12.546  0.0924 -0.4286 -1.8551
 6410TIP3    H240646   1.154   6.045  12.561  1.3857 -0.2748 -0.9735
 6411TIP3   OH240647   6.549   5.458   6.909 -0.1752  0.6028 -0.0735
 6411TIP3    H140648   6.489   5.531   6.896  1.4914  1.8336 -1.3235
 6411TIP3    H240649   6.620   5.474   6.847  0.7271 -1.5722  0.3152
 6412TIP3   OH240650   4.335   3.537  16.593 -0.7048  0.1217  0.0337
 6412TIP3    H140651   4.400   3.472  16.566 -1.1850 -0.3763  0.0482
 6412TIP3    H240652   4.369   3.573  16.674 -0.8285 -0.7227  0.4763
 6413TIP3   OH240653   4.997   1.658  16.938  0.0223  0.3556 -0.9377
 6413TIP3    H140654   4.984   1.710  16.858 -1.0274 -1.1437 -1.8084
 6413TIP3    H240655   4.945   1.579  16.923  2.4850 -1.5326 -0.2178
 6414TIP3   OH240656   4.297   0.500  14.483 -0.1856  0.5423 -0.1542
 6414TIP3    H140657   4.362   0.527  14.547 -1.8484  0.7077  1.5371
 6414TIP3    H240658   4.347   0.484  14.403  1.9801  0.0509  1.2432
 6415TIP3   OH240659   5.410   5.965  13.626  0.1253 -0.0839 -0.4286
 6415TIP3    H140660   5.505   5.979  13.630  0.1207 -0.1959  0.1470
 6415TIP3    H240661   5.382   6.016  13.550  0.5844  0.3027 -0.3438
 6416TIP3   OH240662   3.226   0.659  11.619 -0.4665 -0.2151  0.1814
 6416TIP3    H140663   3.320   0.641  11.607 -0.5012 -0.0797 -0.3249
 6416TIP3    H240664   3.186   0.573  11.628 -0.4478 -0.3353 -0.8086
 6417TIP3   OH240665   1.306   5.772   4.520 -0.3443 -0.4285  0.1859
 6417TIP3    H140666   1.329   5.730   4.437 -2.3225 -0.7836 -0.2300
 6417TIP3    H240667   1.227   5.726   4.549 -0.9141  1.1135  1.1833
 6418TIP3   OH240668   4.333   3.085  13.587 -0.1357 -0.1766 -0.1782
 6418TIP3    H140669   4.274   3.129  13.526 -0.8172 -0.5642  0.1827
 6418TIP3    H240670   4.365   3.154  13.644  0.3400  0.1540 -0.8348
 6419TIP3   OH240671   1.512   0.194   5.293  0.4427  0.0979 -0.0875
 6419TIP3    H140672   1.489   0.134   5.222  1.9262 -0.5611 -0.0350
 6419TIP3    H240673   1.427   0.215   5.334 -0.2133 -1.2031 -0.7072
 6420TIP3   OH240674   0.342   3.461   1.361 -0.2369 -0.1632  0.7080
 6420TIP3    H140675   0.370   3.390   1.303  0.7454  1.6861 -1.1958
 6420TIP3    H240676   0.266   3.499   1.317 -1.6033 -0.7985  2.3890
 6421TIP3   OH240677   5.848   3.071   1.168  0.6115  0.0619  0.0068
 6421TIP3    H140678   5.900   3.114   1.236 -0.2336 -0.0676  0.7694
 6421TIP3    H240679   5.912   3.026   1.112  1.5084  2.1278 -0.7106
 6422TIP3   OH240680   3.545   2.802  15.584 -0.0869 -0.0437 -0.0638
 6422TIP3    H140681   3.596   2.729  15.549 -0.4342 -0.3980  0.1600
 6422TIP3    H240682   3.607   2.875  15.589  0.3956 -0.4648  0.1935
 6423TIP3   OH240683   5.262   0.915   5.865 -0.3572 -0.0984  0.2130
 6423TIP3    H140684   5.217   0.941   5.785 -0.0984 -1.7114 -0.4967
 6423TIP3    H240685   5.263   0.819   5.863 -0.3913 -0.1979  2.1844
 6424TIP3   OH240686   1.157   0.215  13.877  0.1715  0.2627  0.8128
 6424TIP3    H140687   1.173   0.223  13.971  0.7789 -1.9678  0.9559
 6424TIP3    H240688   1.199   0.133  13.852 -0.5307  0.4730 -1.2995
 6425TIP3   OH240689   4.342   3.385   4.191  0.2198 -0.4960  0.3687
 6425TIP3    H140690   4.297   3.411   4.110  0.5379 -0.5530  0.1700
 6425TIP3    H240691   4.355   3.467   4.239 -0.7142 -0.5627  0.7535
 6426TIP3   OH240692   5.725   0.685  15.360 -0.4759  0.0609 -0.5129
 6426TIP3    H140693   5.690   0.599  15.337  0.7943 -0.3601 -0.9472
 6426TIP3    H240694   5.656   0.747  15.334 -2.1769 -0.9020  1.4590
 6427TIP3   OH240695   3.647   4.862  13.983 -0.0223 -0.0189 -0.1447
 6427TIP3    H140696   3.570   4.913  13.961  1.8839  2.2489 -2.1244
 6427TIP3    H240697   3.707   4.924  14.025  1.0050 -1.5384  0.7529
 6428TIP3   OH240698   4.199   4.540  13.003 -0.2679 -0.3811  0.0696
 6428TIP3    H140699   4.109   4.561  12.981  0.1656  0.4864 -1.0007
 6428TIP3    H240700   4.217   4.592  13.082 -1.1712 -1.8218  1.2715
 6429TIP3   OH240701   5.123   6.300  15.340  0.0167  0.6161  0.4462
 6429TIP3    H140702   5.076   6.384  15.347  1.5473  1.5559 -0.0618
 6429TIP3    H240703   5.215   6.325  15.334  0.4425 -1.0700 -0.6524
 6430TIP3   OH240704   5.602   6.309  13.997 -0.1082  0.3511  0.1042
 6430TIP3    H140705   5.587   6.216  13.986 -0.3377  0.5632 -1.6072
 6430TIP3    H240706   5.609   6.321  14.092 -0.3221 -1.3486  0.3646
 6431TIP3   OH240707   4.984   1.695  11.192 -0.5499  0.0453  0.1569
 6431TIP3    H140708   4.955   1.780  11.158  0.6013  0.3042 -0.2084
 6431TIP3    H240709   4.982   1.637  11.116 -1.2856 -0.2643  0.3950
 6432TIP3   OH240710   1.803   6.401  12.594  0.1015  0.0474  0.8775
 6432TIP3    H140711   1.799   6.435  12.504  1.1523 -0.4216  0.6316
 6432TIP3    H240712   1.896   6.404  12.616  0.0105 -1.0334  1.4780
 6433TIP3   OH240713   6.709   3.474   0.818 -0.2250  0.4446  0.3219
 6433TIP3    H140714   6.635   3.524   0.853 -0.0894  0.5148  0.5095
 6433TIP3    H240715   6.781   3.537   0.814 -0.0500  0.2588  0.5712
 6434TIP3   OH240716   1.093   6.009  14.897 -0.0734 -0.1816 -0.4400
 6434TIP3    H140717   1.043   6.031  14.818 -1.1195 -0.0233  0.2483
 6434TIP3    H240718   1.112   6.094  14.937  0.8731 -0.2319 -0.7571
 6435TIP3   OH240719   1.046   5.216  16.644 -0.1593 -0.6445 -0.0939
 6435TIP3    H140720   1.098   5.236  16.723 -0.2321 -0.3811 -0.1124
 6435TIP3    H240721   1.111   5.210  16.574  0.0820 -2.3511  0.2341
 6436TIP3   OH240722   5.863   3.876  15.918  0.1988 -0.2356  0.0997
 6436TIP3    H140723   5.903   3.917  15.841  0.2015 -0.6354 -0.1128
 6436TIP3    H240724   5.782   3.924  15.931 -0.8921 -1.5483 -1.4703
 6437TIP3   OH240725   0.237   5.292  17.093  0.3206  0.3462 -0.4572
 6437TIP3    H140726   0.270   5.368  17.044  1.3216 -0.9046 -1.8084
 6437TIP3    H240727   0.312   5.261  17.142 -0.8239  2.0048  2.6412
 6438TIP3   OH240728   5.393   1.273   4.124 -0.1906 -0.2518 -0.1253
 6438TIP3    H140729   5.439   1.340   4.175  0.1961 -0.5352 -0.1026
 6438TIP3    H240730   5.419   1.190   4.163 -1.1524 -0.3968  0.2469
 6439TIP3   OH240731   2.713   2.204   2.534  0.3504  0.4091  0.4897
 6439TIP3    H140732   2.749   2.292   2.522  0.7813  0.4595  1.9529
 6439TIP3    H240733   2.779   2.157   2.585  0.2048 -0.8321 -0.4207
 6440TIP3   OH240734   2.218   3.763   2.162  0.0297 -0.3293  0.0535
 6440TIP3    H140735   2.264   3.812   2.230 -1.6573  0.2313  0.8180
 6440TIP3    H240736   2.287   3.742   2.098  1.4087  0.1808  1.3107
 6441TIP3   OH240737   3.237   3.457  11.086 -0.2473 -0.1375 -0.5695
 6441TIP3    H140738   3.249   3.364  11.067  0.9213  0.1583 -1.3271
 6441TIP3    H240739   3.225   3.497  11.000  2.2025  0.8156 -0.5205
 6442TIP3   OH240740   4.226   6.087   5.857 -0.0882 -0.1604  0.2243
 6442TIP3    H140741   4.191   6.023   5.918 -1.7850  0.9120  0.4404
 6442TIP3    H240742   4.239   6.166   5.909  4.1765 -0.7891  0.5239
 6443TIP3   OH240743   1.168   3.742  14.016 -0.0161  0.8752 -0.1351
 6443TIP3    H140744   1.169   3.810  14.083  0.7489  1.0356 -0.2988
 6443TIP3    H240745   1.133   3.786  13.938  0.8962  1.2115 -0.3657
 6444TIP3   OH240746   0.366   4.184  14.492 -0.3617 -0.3784  0.1712
 6444TIP3    H140747   0.418   4.117  14.447 -1.0255  0.3075 -1.6987
 6444TIP3    H240748   0.327   4.138  14.567  3.0377 -0.8785  1.8304
 6445TIP3   OH240749   3.521   5.879  12.348 -0.8901 -0.3565 -0.0219
 6445TIP3    H140750   3.589   5.878  12.416 -1.0482 -0.0069  0.1454
 6445TIP3    H240751   3.553   5.819  12.281  0.8600  1.6943 -1.1653
 6446TIP3   OH240752   1.115   2.495   0.002  1.0287  0.5588 -0.1004
 6446TIP3    H140753   1.173   2.548   0.056  1.5787 -1.8087  1.8427
 6446TIP3    H240754   1.125   2.406   0.036 -3.3366 -0.1283  0.0236
 6447TIP3   OH240755   2.354   2.847   0.987 -0.2311  0.3399 -0.1743
 6447TIP3    H140756   2.372   2.812   0.900 -0.7281 -0.3036 -0.0305
 6447TIP3    H240757   2.309   2.775   1.032 -0.9579  1.0505  0.2555
 6448TIP3   OH240758   5.934   0.005   5.480 -1.0165 -0.0682 -0.2820
 6448TIP3    H140759   5.923   0.094   5.446 -0.3888 -1.0283 -3.2431
 6448TIP3    H240760   5.860  -0.043   5.444 -0.5032 -1.0952  0.0098
 6449TIP3   OH240761   3.915   4.602   3.025  0.3439  0.0436  0.2502
 6449TIP3    H140762   3.911   4.692   3.057  1.9240 -0.0138  0.7155
 6449TIP3    H240763   3.940   4.550   3.102 -1.8126 -1.0125  0.3032
 6450TIP3   OH240764   3.264   3.726  12.487 -0.1473  0.7644  0.1656
 6450TIP3    H140765   3.181   3.679  12.475  1.9379 -2.8351 -1.8958
 6450TIP3    H240766   3.262   3.757  12.577 -2.2704 -2.3468  1.3388
 6451TIP3   OH240767   5.749   3.616   5.565  0.3294  0.5339  0.2530
 6451TIP3    H140768   5.689   3.552   5.526 -0.2751  0.5777  1.0947
 6451TIP3    H240769   5.826   3.564   5.589  1.6230  0.8146 -2.7757
 6452TIP3   OH240770   0.832   2.878   4.515 -0.2970  0.1170  0.0316
 6452TIP3    H140771   0.922   2.904   4.495 -0.0035 -1.6442 -1.2347
 6452TIP3    H240772   0.777   2.935   4.460  0.3350 -1.8885 -2.9393
 6453TIP3   OH240773   0.444   5.641  10.852 -0.0866 -0.3940  0.6224
 6453TIP3    H140774   0.528   5.627  10.894  1.7326  1.4433 -2.0490
 6453TIP3    H240775   0.415   5.726  10.885  0.3833  0.1375 -0.2950
 6454TIP3   OH240776   0.086   1.489   5.344  0.1399  0.0094 -0.6117
 6454TIP3    H140777   0.177   1.496   5.315 -0.1790  0.0020 -1.6437
 6454TIP3    H240778   0.036   1.476   5.264 -0.7218 -0.5322 -0.0047
 6455TIP3   OH240779   0.299   2.772  14.116 -0.2380 -0.3087 -0.4329
 6455TIP3    H140780   0.321   2.801  14.204 -0.5620 -1.7290  0.1424
 6455TIP3    H240781   0.204   2.782  14.109 -0.0691  1.0575 -1.1210
 6456TIP3   OH240782   5.881   6.366  16.990  0.4510 -0.4592  0.0894
 6456TIP3    H140783   5.852   6.391  17.078  1.6489  0.5704  0.2170
 6456TIP3    H240784   5.809   6.394  16.932 -0.1998 -0.8498  0.6926
 6457TIP3   OH240785   0.733   0.479   2.942 -0.5568 -0.1638  0.1432
 6457TIP3    H140786   0.684   0.415   2.891  0.3806 -1.7824  1.1735
 6457TIP3    H240787   0.814   0.434   2.966 -0.7945  0.5957  2.7366
 6458TIP3   OH240788   0.263   1.086   1.446 -0.0611 -1.1505 -0.2246
 6458TIP3    H140789   0.219   1.046   1.372  1.4741  0.2333 -1.9757
 6458TIP3    H240790   0.214   1.166   1.463  0.7188 -0.4788 -1.0565
 6459TIP3   OH240791   6.670   6.145  13.801  0.1302  0.4315 -0.1612
 6459TIP3    H140792   6.626   6.139  13.886  2.2606 -0.5736  0.9693
 6459TIP3    H240793   6.716   6.229  13.804 -0.4018  0.7461 -0.6609
 6460TIP3   OH240794   2.931   5.570  12.917 -0.1759 -0.1742  0.0958
 6460TIP3    H140795   2.938   5.516  12.839  0.8698  0.3125 -0.1643
 6460TIP3    H240796   2.871   5.522  12.974  0.0847 -1.2010 -0.4659
 6461TIP3   OH240797   5.639   6.075  17.304  0.0517 -0.4252 -1.4033
 6461TIP3    H140798   5.600   5.989  17.290 -1.0588 -0.2260  0.2985
 6461TIP3    H240799   5.623   6.095  17.396  1.7521  0.8948 -1.3400
 6462TIP3   OH240800   4.007   3.424  10.442  0.2262 -0.1073 -0.4448
 6462TIP3    H140801   3.919   3.450  10.468  0.7439 -1.0955  2.8509
 6462TIP3    H240802   4.064   3.493  10.476  0.8197  0.1972 -1.9641
 6463TIP3   OH240803   2.853   2.683  11.364 -0.5674  0.2701  0.2600
 6463TIP3    H140804   2.838   2.669  11.271 -0.5279  0.5375  0.2135
 6463TIP3    H240805   2.825   2.601  11.405 -0.6740  0.1869  0.0232
 6464TIP3   OH240806   1.269   1.075   5.944 -0.2674  0.1767  0.0761
 6464TIP3    H140807   1.228   0.995   5.978  0.1233  1.0427  2.8321
 6464TIP3    H240808   1.197   1.123   5.903 -0.8297 -0.8474 -0.1745
 6465TIP3   OH240809   0.214   6.670  13.911 -0.1427 -0.0961 -0.2248
 6465TIP3    H140810   0.119   6.685  13.917 -0.1165 -0.2293  0.6859
 6465TIP3    H240811   0.252   6.758  13.914 -0.2593  0.0041 -1.3218
 6466TIP3   OH240812   2.252   2.812  12.358  0.5096 -0.2881  0.3834
 6466TIP3    H140813   2.276   2.876  12.425 -0.9342 -0.7252  1.3662
 6466TIP3    H240814   2.296   2.732  12.384  2.1457  0.1829 -0.7328
 6467TIP3   OH240815   4.504   1.150  15.776 -0.0138  0.7422 -0.0596
 6467TIP3    H140816   4.540   1.174  15.862 -0.9426 -1.1714  0.9314
 6467TIP3    H240817   4.580   1.124  15.724  0.5557  1.8974  0.1556
 6468TIP3   OH240818   6.307   3.975  13.161 -0.0829 -0.6963 -0.2061
 6468TIP3    H140819   6.316   4.063  13.125  1.1856 -1.6150 -2.3257
 6468TIP3    H240820   6.395   3.952  13.191 -0.8124 -0.5223  2.3187
 6469TIP3   OH240821   3.506   2.397   0.611 -0.3845 -0.3890  0.6391
 6469TIP3    H140822   3.452   2.473   0.634  0.1122  0.5619 -1.1354
 6469TIP3    H240823   3.518   2.350   0.693  0.3503  2.1524  2.1129
 6470TIP3   OH240824   6.318   0.387  13.291  0.1157  0.0331 -0.3811
 6470TIP3    H140825   6.317   0.481  13.277 -1.4568  0.2033  0.5853
 6470TIP3    H240826   6.226   0.361  13.285  0.4949 -1.3966 -0.3689
 6471TIP3   OH240827   5.091   4.458  13.996  0.1431 -0.2535  0.1050
 6471TIP3    H140828   5.111   4.531  13.937 -1.4963  2.8093  2.9964
 6471TIP3    H240829   5.003   4.431  13.972  0.6921 -1.2892 -0.8627
 6472TIP3   OH240830   4.841   6.422   4.534  0.0984 -0.8804  0.1237
 6472TIP3    H140831   4.771   6.371   4.494 -0.9455  0.1405  0.5792
 6472TIP3    H240832   4.837   6.400   4.627 -1.5105  1.2333  0.6298
 6473TIP3   OH240833   6.239   6.456   1.592 -0.3599 -0.6433 -0.1145
 6473TIP3    H140834   6.332   6.477   1.598 -0.0296 -2.1017  0.0656
 6473TIP3    H240835   6.235   6.380   1.533 -1.8425  1.9665 -3.7903
 6474TIP3   OH240836   2.449   4.014  14.283  0.3277 -0.8474 -0.4193
 6474TIP3    H140837   2.368   4.028  14.333 -0.1327 -2.3531 -0.7034
 6474TIP3    H240838   2.501   3.955  14.338  1.3530  0.2417 -0.1581
 6475TIP3   OH240839   4.920   0.656  12.588  0.5539  0.4112  0.0567
 6475TIP3    H140840   4.993   0.618  12.538 -0.4569 -0.2508 -0.9589
 6475TIP3    H240841   4.859   0.584  12.599 -0.9114  1.4398 -0.9475
 6476TIP3   OH240842   1.088   0.886   6.380  0.4146  0.0480 -0.5113
 6476TIP3    H140843   1.065   0.796   6.403 -0.4791  0.6233  0.9611
 6476TIP3    H240844   1.015   0.917   6.326 -0.3804  0.5833  0.8336
 6477TIP3   OH240845   4.366   2.941  15.929  0.3240  0.4394 -0.3276
 6477TIP3    H140846   4.391   3.029  15.958 -0.9464  0.2202  1.6081
 6477TIP3    H240847   4.341   2.952  15.837  1.6293  1.7797 -0.5576
 6478TIP3   OH240848   4.304   1.243  13.417  0.2994 -0.9807  0.2866
 6478TIP3    H140849   4.269   1.177  13.357 -0.9686  1.2016 -1.5702
 6478TIP3    H240850   4.397   1.249  13.393  0.0694 -0.9879 -0.6729
 6479TIP3   OH240851   3.576   5.754  16.174  0.0067  0.3322 -0.4017
 6479TIP3    H140852   3.489   5.787  16.196  0.0398 -0.4142  0.9249
 6479TIP3    H240853   3.626   5.832  16.148 -1.0223  0.7753 -1.1006
 6480TIP3   OH240854   5.111   1.893  14.502 -0.1301 -0.1794 -0.2278
 6480TIP3    H140855   5.054   1.919  14.574 -0.5024  0.2125 -0.6622
 6480TIP3    H240856   5.200   1.905  14.537 -0.3051  0.2928  0.0728
 6481TIP3   OH240857   2.059   5.522  17.089  0.3269 -0.4932  0.1167
 6481TIP3    H140858   2.068   5.472  17.170  2.6433 -0.5494 -0.1122
 6481TIP3    H240859   2.148   5.527  17.054 -0.5707 -0.2922 -2.3224
 6482TIP3   OH240860   2.769   6.421   4.674 -0.1363  0.2595 -0.0519
 6482TIP3    H140861   2.860   6.451   4.677  1.0017 -2.6567 -1.5635
 6482TIP3    H240862   2.765   6.365   4.597 -2.7397 -1.1118  0.9726
 6483TIP3   OH240863   0.516   6.700  14.131 -0.2303  0.0934  0.2931
 6483TIP3    H140864   0.605   6.668  14.121 -0.1119  0.4619  0.1734
 6483TIP3    H240865   0.481   6.650  14.205 -0.1596 -0.5569 -0.1109
 6484TIP3   OH240866   5.871   5.735   5.984  0.6202 -0.0428  0.0696
 6484TIP3    H140867   5.786   5.760   6.020  0.5910 -0.4879  0.3167
 6484TIP3    H240868   5.894   5.655   6.031  1.3531  0.2786  0.2814
 6485TIP3   OH240869   2.864   1.790   5.086 -0.4770  0.0095  0.2621
 6485TIP3    H140870   2.798   1.734   5.046 -0.7992  1.9037 -2.0866
 6485TIP3    H240871   2.817   1.869   5.113  0.6791  1.1696 -0.9590
 6486TIP3   OH240872   5.458   0.295  13.540 -0.2279  0.0299 -0.1922
 6486TIP3    H140873   5.469   0.269  13.448  1.3453  0.4043 -0.1307
 6486TIP3    H240874   5.490   0.221  13.590 -2.5979 -0.8613  0.1413
 6487TIP3   OH240875   1.600   0.153  15.218 -0.2466  0.1663  0.4430
 6487TIP3    H140876   1.564   0.070  15.249 -0.9493  0.9826  1.9113
 6487TIP3    H240877   1.581   0.153  15.124 -0.3548 -1.2616  0.4327
 6488TIP3   OH240878   6.252   5.977   4.416 -0.3918  0.1655  0.1409
 6488TIP3    H140879   6.326   6.032   4.392  0.9998 -1.1360  1.2701
 6488TIP3    H240880   6.206   6.028   4.483 -0.2665  0.7773 -0.2255
 6489TIP3   OH240881   3.597   4.273  16.349  0.0201  0.0653 -0.2152
 6489TIP3    H140882   3.545   4.337  16.398  1.0883 -1.1450  2.7164
 6489TIP3    H240883   3.594   4.304  16.259 -1.5285  2.8504  0.6760
 6490TIP3   OH240884   5.101   4.078  12.695  0.7272 -0.1450 -0.3303
 6490TIP3    H140885   5.172   4.082  12.630  0.7932  1.9435 -0.2014
 6490TIP3    H240886   5.021   4.092  12.644  0.4539 -1.5589 -0.3406
 6491TIP3   OH240887   6.016   3.869  16.360  0.4110  0.6473  0.4703
 6491TIP3    H140888   6.084   3.915  16.311 -0.5065  1.8120  0.2426
 6491TIP3    H240889   6.062   3.799  16.406  1.6251  0.9032 -0.3240
 6492TIP3   OH240890   2.205   1.748  11.522 -0.1608 -0.3577  0.7516
 6492TIP3    H140891   2.200   1.652  11.522 -0.0936 -0.3612  0.8091
 6492TIP3    H240892   2.253   1.769  11.442 -1.0456 -0.3252  0.2081
 6493TIP3   OH240893   1.299   3.369   3.927 -0.3542 -0.3017 -0.1822
 6493TIP3    H140894   1.268   3.289   3.971 -1.2685 -0.1574 -0.5464
 6493TIP3    H240895   1.312   3.342   3.836  1.6932 -0.6417  0.1670
 6494TIP3   OH240896   0.166   3.900  16.354 -0.4067 -1.0823  0.8284
 6494TIP3    H140897   0.138   3.841  16.283 -0.2964 -0.6884  0.4542
 6494TIP3    H240898   0.261   3.891  16.356 -0.4585 -1.5799  1.3636
 6495TIP3   OH240899   4.843   1.230  13.402 -1.3210 -0.3315  0.1020
 6495TIP3    H140900   4.870   1.138  13.397 -0.2671  0.0212 -2.2255
 6495TIP3    H240901   4.879   1.269  13.323 -1.9355  2.0608  0.9275
 6496TIP3   OH240902   3.494   4.998  15.885  0.1599 -0.1513  0.2799
 6496TIP3    H140903   3.483   5.093  15.886 -0.9471 -0.2632  1.0673
 6496TIP3    H240904   3.447   4.969  15.807  0.3109 -0.0754  0.1598
 6497TIP3   OH240905   4.447   3.794  13.064 -0.0904 -0.0575  0.0581
 6497TIP3    H140906   4.395   3.733  13.012 -0.1259  0.3889 -0.4419
 6497TIP3    H240907   4.391   3.871  13.073  0.7056  0.6711 -1.0157
 6498TIP3   OH240908   5.055   2.220   2.319  0.0748 -0.4076 -0.1734
 6498TIP3    H140909   5.106   2.192   2.396  0.2850  1.2732  0.3278
 6498TIP3    H240910   5.037   2.138   2.272  1.8786 -1.2397  0.4660
 6499TIP3   OH240911   0.379   4.469   0.356  0.0074 -0.2215  0.8609
 6499TIP3    H140912   0.403   4.505   0.270 -0.3887  0.0436  0.8642
 6499TIP3    H240913   0.463   4.450   0.397  0.3790 -4.1697 -1.1476
 6500TIP3   OH240914   6.651   3.116  17.035  0.2238  0.1307  0.2940
 6500TIP3    H140915   6.685   3.205  17.046 -0.7110  0.6307 -0.6694
 6500TIP3    H240916   6.713   3.061  17.083  0.4182  1.3697  1.5216
 6501TIP3   OH240917   2.756   1.878  15.876 -0.1181 -0.1275  0.7771
 6501TIP3    H140918   2.663   1.891  15.892 -0.3060  0.7379 -0.8132
 6501TIP3    H240919   2.761   1.849  15.785  1.0293 -2.2735  1.4512
 6502TIP3   OH240920   2.280   1.828  15.042 -0.2304  0.4449  0.0882
 6502TIP3    H140921   2.229   1.844  15.121  0.5741  2.8197  0.1965
 6502TIP3    H240922   2.280   1.911  14.995 -1.4948 -1.1089 -2.9863
 6503TIP3   OH240923   4.086   2.915  13.196  1.0672 -0.0457 -0.1816
 6503TIP3    H140924   4.166   2.862  13.196  1.7105  0.8760 -1.3819
 6503TIP3    H240925   4.016   2.854  13.173  1.2443 -1.0573  1.7723
 6504TIP3   OH240926   5.793   2.530   6.158 -0.4391  0.0633  0.0971
 6504TIP3    H140927   5.817   2.599   6.096  0.2329  1.1811  1.5223
 6504TIP3    H240928   5.818   2.449   6.116  1.4364  0.8868 -0.4809
 6505TIP3   OH240929   3.173   0.201   3.249  0.1848 -0.4212  0.1051
 6505TIP3    H140930   3.162   0.270   3.183 -0.3220 -1.5166 -1.0045
 6505TIP3    H240931   3.212   0.128   3.201  1.4526 -0.6552  1.4279
 6506TIP3   OH240932   5.556   2.111   1.051 -0.0126  0.0647 -0.0944
 6506TIP3    H140933   5.626   2.050   1.074 -0.6896 -0.3101  1.1162
 6506TIP3    H240934   5.487   2.092   1.115 -0.9611  0.8580 -0.8536
 6507TIP3   OH240935   6.317   5.692   6.271 -0.8317  0.4107  0.4440
 6507TIP3    H140936   6.260   5.713   6.197 -1.0233 -2.0373 -0.1718
 6507TIP3    H240937   6.258   5.657   6.337 -0.1353 -2.3649 -0.2835
 6508TIP3   OH240938   1.651   5.419  11.975  0.5078 -0.0005 -0.5109
 6508TIP3    H140939   1.629   5.432  11.883  0.8523  3.0645 -0.2693
 6508TIP3    H240940   1.741   5.386  11.974  0.6901  0.4880 -1.2952
 6509TIP3   OH240941   5.088   4.273   0.204  0.6366  0.2298  0.3120
 6509TIP3    H140942   5.107   4.223   0.284 -0.1508  0.0727  0.4091
 6509TIP3    H240943   5.171   4.316   0.183  0.9062  0.1303  1.1148
 6510TIP3   OH240944   0.411   4.630   2.277  0.2824 -0.1732 -0.1219
 6510TIP3    H140945   0.326   4.639   2.320  0.2843  0.2677 -0.2081
 6510TIP3    H240946   0.472   4.676   2.335 -0.1151  2.8191 -1.8457
 6511TIP3   OH240947   3.101   0.447  13.634  0.4447 -0.0207  0.3173
 6511TIP3    H140948   3.087   0.517  13.570  1.9297 -0.5510 -0.6315
 6511TIP3    H240949   3.022   0.449  13.689 -0.0084  1.6979 -0.3292
 6512TIP3   OH240950   1.665   6.297  11.502 -0.2682 -0.4615  0.1446
 6512TIP3    H140951   1.610   6.316  11.426  0.9677  1.9977 -0.2362
 6512TIP3    H240952   1.752   6.330  11.478  0.9073 -2.3223  1.5206
 6513TIP3   OH240953   5.040   6.760  14.575 -0.1119 -0.2045 -0.2577
 6513TIP3    H140954   4.958   6.715  14.596  0.2735  0.1481  2.4320
 6513TIP3    H240955   5.074   6.788  14.660  1.5914  1.8096 -1.4924
 6514TIP3   OH240956   2.625   4.935   3.854 -0.2550 -0.4786  0.2610
 6514TIP3    H140957   2.640   4.892   3.769 -0.0731 -2.0240  1.0329
 6514TIP3    H240958   2.610   4.862   3.914  0.0204  0.5773  1.6375
 6515TIP3   OH240959   4.950   2.807   1.198  0.3883  0.0200 -1.0158
 6515TIP3    H140960   4.977   2.898   1.184 -0.8589  0.2574 -2.0439
 6515TIP3    H240961   4.883   2.812   1.266  2.1753 -0.4694  0.8794
 6516TIP3   OH240962   4.853   0.029  16.738 -0.1911  0.0058  0.4929
 6516TIP3    H140963   4.900   0.060  16.660 -0.0719  0.2138  0.6453
 6516TIP3    H240964   4.836   0.109  16.788 -1.7485  0.1074 -0.1156
 6517TIP3   OH240965   1.070   3.596   1.126 -0.2102  0.6856  0.1763
 6517TIP3    H140966   1.043   3.582   1.217 -1.2502  2.3053  0.1462
 6517TIP3    H240967   0.989   3.585   1.076  0.4821 -0.8545 -0.6562
 6518TIP3   OH240968   2.290   1.133  12.353 -0.6513  0.2166  0.0540
 6518TIP3    H140969   2.302   1.167  12.441  2.9447  0.0868 -0.2127
 6518TIP3    H240970   2.266   1.041  12.365  2.2250 -0.5208  1.1043
 6519TIP3   OH240971   0.296   2.484  15.912  0.2174  0.0958  0.3674
 6519TIP3    H140972   0.232   2.452  15.848 -1.3516  0.4188  1.6976
 6519TIP3    H240973   0.333   2.562  15.872  0.3650 -0.5448 -0.7709
 6520TIP3   OH240974   5.720   5.465  16.418  0.6523 -0.4043  0.3903
 6520TIP3    H140975   5.714   5.370  16.409  1.0369 -0.3804 -0.1522
 6520TIP3    H240976   5.646   5.488  16.474 -0.1903 -0.8755 -0.4962
 6521TIP3   OH240977   4.914   1.718   5.500 -0.0590  0.4956  0.3424
 6521TIP3    H140978   4.934   1.679   5.585 -0.7041  0.6309  0.5569
 6521TIP3    H240979   4.884   1.645   5.447  2.4267 -0.0314 -0.4894
 6522TIP3   OH240980   5.094   1.936  13.180 -0.2052  0.0934 -0.3120
 6522TIP3    H140981   5.055   1.979  13.255 -0.4811 -0.0824 -0.3525
 6522TIP3    H240982   5.020   1.912  13.124 -0.0837 -0.6331 -0.1808
 6523TIP3   OH240983   5.225   5.479  13.623  0.0759  0.0178  0.4731
 6523TIP3    H140984   5.251   5.394  13.659  3.0605  1.7755  3.0326
 6523TIP3    H240985   5.142   5.499  13.665  0.2979 -0.8410  1.3589
 6524TIP3   OH240986   3.340   1.331   3.253 -0.1484  0.4468 -0.0824
 6524TIP3    H140987   3.364   1.319   3.345  1.0914 -0.0085 -0.4455
 6524TIP3    H240988   3.383   1.412   3.226  0.3661  0.0253 -0.5449
 6525TIP3   OH240989   0.843   4.558  14.904  0.1195  0.6766  0.0147
 6525TIP3    H140990   0.911   4.609  14.947 -0.5625 -0.1498  2.1967
 6525TIP3    H240991   0.882   4.531  14.821  1.9576  1.3066  0.6305
 6526TIP3   OH240992   1.879   5.963  13.955  0.3804 -0.1206  0.5612
 6526TIP3    H140993   1.937   5.971  13.879 -0.0410  0.8922  0.3355
 6526TIP3    H240994   1.867   6.053  13.987 -0.9066 -0.3205  0.7189
 6527TIP3   OH240995   2.802   2.511  15.445 -0.7700  0.5992  0.2083
 6527TIP3    H140996   2.897   2.516  15.436 -0.6109 -0.8873  0.7696
 6527TIP3    H240997   2.788   2.465  15.528 -1.8268 -3.7149 -2.0800
 6528TIP3   OH240998   6.286   4.752   0.812  0.4452  0.7008 -0.5604
 6528TIP3    H140999   6.223   4.790   0.873  1.4654 -1.2537  1.8883
 6528TIP3    H241000   6.325   4.827   0.767  2.0912  2.7128  3.6656
 6529TIP3   OH241001   5.410   1.970   0.531  0.5160 -0.8170  0.3393
 6529TIP3    H141002   5.324   1.935   0.553 -0.1890  1.4959  1.6752
 6529TIP3    H241003   5.460   1.966   0.612  0.9661 -0.2836  0.0997
 6530TIP3   OH241004   5.452   5.491  11.687  0.1042 -0.0411 -0.9577
 6530TIP3    H141005   5.508   5.418  11.711 -0.1690  0.2063  0.5568
 6530TIP3    H241006   5.415   5.467  11.602  1.1434 -0.9800 -1.1629
 6531TIP3   OH241007   5.700   1.897  13.986 -0.1338 -0.2409 -0.6784
 6531TIP3    H141008   5.778   1.890  13.930  0.6218 -0.3659  0.3598
 6531TIP3    H241009   5.731   1.871  14.073 -0.6188  2.4727  0.3966
 6532TIP3   OH241010   5.657   4.568  14.564  0.0227  0.5241  0.2671
 6532TIP3    H141011   5.582   4.512  14.585  2.2718 -3.8050 -1.8584
 6532TIP3    H241012   5.623   4.629  14.499 -1.6864 -1.5661 -0.9637
 6533TIP3   OH241013   2.590   4.067  15.205 -0.4893 -0.0193  0.1495
 6533TIP3    H141014   2.655   4.002  15.177  0.2796  0.1836  1.3964
 6533TIP3    H241015   2.578   4.123  15.128 -1.6467 -1.9675 -1.1798
 6534TIP3   OH241016   5.048   0.071   1.618 -0.2664 -0.0634 -0.6690
 6534TIP3    H141017   5.046   0.152   1.668  0.6497  1.1367 -2.4757
 6534TIP3    H241018   4.961   0.033   1.628 -0.1061  0.0856  1.8220
 6535TIP3   OH241019   1.163   6.433  16.113 -0.1040  0.1331  0.2810
 6535TIP3    H141020   1.212   6.502  16.068 -1.0469  0.3581 -0.4163
 6535TIP3    H241021   1.222   6.357  16.110  0.4249  0.5489 -0.0770
 6536TIP3   OH241022   0.414   3.504  15.194  0.3073  0.0456 -0.0763
 6536TIP3    H141023   0.453   3.581  15.235 -0.3635 -0.7214  2.1019
 6536TIP3    H241024   0.489   3.451  15.167  0.7637  0.7833 -0.2940
 6537TIP3   OH241025   5.604   4.773  13.361  0.2686  0.4049  0.1421
 6537TIP3    H141026   5.631   4.710  13.294  0.0305  0.0644  0.3696
 6537TIP3    H241027   5.511   4.787  13.345  0.3873  0.9672 -0.1246
 6538TIP3   OH241028   5.182   1.540  15.350  0.3098  0.0626 -0.6243
 6538TIP3    H141029   5.127   1.596  15.296 -0.0321  0.3268 -0.0047
 6538TIP3    H241030   5.190   1.586  15.433  1.2657 -0.0888 -0.6216
 6539TIP3   OH241031   2.256   5.426   2.141  0.3120  0.2864  0.0272
 6539TIP3    H141032   2.239   5.357   2.078  0.3215  2.3265 -2.3533
 6539TIP3    H241033   2.328   5.391   2.195  0.6199 -1.3779 -1.3618
 6540TIP3   OH241034   3.566   0.663  14.420 -0.2505  0.2025 -0.5363
 6540TIP3    H141035   3.586   0.673  14.513  0.5132 -2.7890 -0.2508
 6540TIP3    H241036   3.473   0.639  14.418  0.0308 -0.9581 -0.3855
 6541TIP3   OH241037   4.738   0.002  14.826 -0.8367  0.8705 -0.0353
 6541TIP3    H141038   4.779   0.088  14.817  0.9593  0.0728  0.0919
 6541TIP3    H241039   4.687   0.007  14.907  0.3789  1.3837  0.7106
 6542TIP3   OH241040   2.489   2.089   2.387  0.4173 -0.3295 -0.2594
 6542TIP3    H141041   2.538   2.154   2.436 -1.7357  0.5823  0.8241
 6542TIP3    H241042   2.538   2.008   2.399 -0.0921 -0.2380  3.7808
 6543TIP3   OH241043   3.927   4.630  17.046 -0.0562  0.7762  0.1552
 6543TIP3    H141044   3.901   4.710  17.092 -1.7004  0.2366  0.2161
 6543TIP3    H241045   4.023   4.635  17.041 -0.0678  2.2648  1.0217
 6544TIP3   OH241046   4.404   3.209   5.379  0.6414  0.8408  0.3499
 6544TIP3    H141047   4.440   3.266   5.310  1.1784  0.8321  0.6107
 6544TIP3    H241048   4.310   3.221   5.374  0.5873  0.0592 -1.0682
 6545TIP3   OH241049   3.782   4.254  15.245  0.3695  0.1709 -0.0281
 6545TIP3    H141050   3.830   4.335  15.227 -4.0422  2.4968 -3.3503
 6545TIP3    H241051   3.816   4.191  15.180  2.0114  0.0809  0.8503
 6546TIP3   OH241052   0.436   3.686   6.095 -0.3019  0.2123  0.1747
 6546TIP3    H141053   0.352   3.729   6.081 -0.6635 -0.4448  0.3167
 6546TIP3    H241054   0.430   3.651   6.184  0.6229  1.2947  0.6869
 6547TIP3   OH241055   6.673   5.917   2.415 -0.4454  0.6609  0.1335
 6547TIP3    H141056   6.739   5.984   2.399  1.2841 -1.2991 -1.5876
 6547TIP3    H241057   6.591   5.956   2.383  0.6607  1.6819 -1.6423
 6548TIP3   OH241058   6.262   2.740   0.288 -0.2466 -0.1124 -0.0756
 6548TIP3    H141059   6.171   2.716   0.270 -0.5599  1.9718 -1.6518
 6548TIP3    H241060   6.266   2.834   0.270  2.2680 -0.1743 -0.1809
 6549TIP3   OH241061   2.334   0.959   1.965 -0.4800  0.0585  0.4254
 6549TIP3    H141062   2.405   0.941   1.904 -2.7981 -0.4045 -2.3289
 6549TIP3    H241063   2.318   0.875   2.009 -0.2367 -0.2191 -0.0103
 6550TIP3   OH241064   0.889   0.994   3.393  0.0259 -0.2163  0.3587
 6550TIP3    H141065   0.942   1.063   3.354 -1.2352  0.2531 -0.6114
 6550TIP3    H241066   0.798   1.019   3.373 -0.5093 -1.6386  0.8402
 6551TIP3   OH241067   1.867   0.227   2.581  0.3042 -0.3985  0.2731
 6551TIP3    H141068   1.787   0.209   2.629 -1.0418  1.6007 -1.0771
 6551TIP3    H241069   1.880   0.150   2.526 -0.1686 -1.1108  1.1339
 6552TIP3   OH241070   6.661   3.038   4.529  0.4922 -0.3522  0.3511
 6552TIP3    H141071   6.569   3.051   4.505  0.6513  0.9682  0.3657
 6552TIP3    H241072   6.689   2.962   4.477 -0.6068 -0.8019  0.3872
 6553TIP3   OH241073   4.043   5.863   0.910 -0.1353  0.5467 -0.2401
 6553TIP3    H141074   3.986   5.880   0.984  0.1558  0.9505 -0.1019
 6553TIP3    H241075   4.129   5.845   0.949  0.1341  1.2529 -0.4894
 6554TIP3   OH241076   6.533   5.803   3.680 -0.1856 -0.1886 -0.2412
 6554TIP3    H141077   6.448   5.786   3.640 -0.1158  0.5450 -0.7401
 6554TIP3    H241078   6.594   5.747   3.633 -0.0295  1.0029 -1.5383
 6555TIP3   OH241079   4.505   0.070  14.392 -0.4944 -0.0010 -0.6618
 6555TIP3    H141080   4.520  -0.022  14.412 -0.9170  0.0266 -0.2195
 6555TIP3    H241081   4.572   0.116  14.442 -0.5395 -0.0395 -0.5661
 6556TIP3   OH241082   3.003   4.407   3.250  0.1696 -0.7910 -0.3190
 6556TIP3    H141083   2.912   4.435   3.259 -0.7454 -3.7433  1.1503
 6556TIP3    H241084   3.000   4.312   3.266  3.4589 -1.0646 -0.6727
 6557TIP3   OH241085   3.163   0.645   6.225 -0.4516  1.1632  0.7036
 6557TIP3    H141086   3.242   0.649   6.279  1.3103  0.4799 -1.6919
 6557TIP3    H241087   3.152   0.552   6.204  0.5402  1.6288 -2.2777
 6558TIP3   OH241088   5.785   5.739  15.406 -0.3779  0.0916 -0.0792
 6558TIP3    H141089   5.819   5.826  15.383  0.7559 -0.1140  0.7511
 6558TIP3    H241090   5.722   5.720  15.337 -0.3027  1.3735 -0.5412
 6559TIP3   OH241091   6.560   0.223  16.916  0.1590 -0.0136 -0.5365
 6559TIP3    H141092   6.475   0.264  16.895  0.2145  1.2846  1.4399
 6559TIP3    H241093   6.603   0.213  16.831 -2.0690 -1.0324 -1.6555
 6560TIP3   OH241094   6.346   2.542  12.227  0.0476  0.5812  0.2659
 6560TIP3    H141095   6.437   2.573  12.223  0.1602  0.1523 -0.7637
 6560TIP3    H241096   6.316   2.568  12.314  1.8784 -1.3350  1.5618
 6561TIP3   OH241097   2.315   4.983  11.917  0.5603 -0.4892  0.1622
 6561TIP3    H141098   2.251   5.037  11.872  2.5325  2.6600  0.8081
 6561TIP3    H241099   2.263   4.925  11.973 -1.7112  1.1849 -0.0866
 6562TIP3   OH241100   2.984   1.481  11.804  0.0586 -0.0593  0.4432
 6562TIP3    H141101   2.974   1.404  11.859 -0.2604  0.1850  0.7329
 6562TIP3    H241102   2.895   1.512  11.790  0.2460  0.9062  1.2592
 6563TIP3   OH241103   2.683   1.538  16.460  0.0671  0.3626 -0.0778
 6563TIP3    H141104   2.655   1.525  16.369 -1.0262 -0.4941  0.3616
 6563TIP3    H241105   2.732   1.459  16.482  1.6140  1.1982 -0.3538
 6564TIP3   OH241106   4.912   4.056   3.947 -0.2296 -0.0435 -0.4825
 6564TIP3    H141107   4.930   4.148   3.963 -0.7085 -0.0218 -0.0544
 6564TIP3    H241108   4.903   4.050   3.852 -2.5119  0.8079 -0.3835
 6565TIP3   OH241109   5.188   3.326  13.962  0.2417  0.5521  0.3960
 6565TIP3    H141110   5.228   3.241  13.945 -1.1027  0.0583 -0.4982
 6565TIP3    H241111   5.235   3.387  13.905 -0.3948 -0.0672 -0.8400
 6566TIP3   OH241112   6.534   3.712   0.425 -0.1775 -0.1060 -0.5230
 6566TIP3    H141113   6.536   3.651   0.351  0.3261  0.1738 -0.7507
 6566TIP3    H241114   6.450   3.697   0.467  0.5721 -2.1041  0.3866
 6567TIP3   OH241115   5.540   0.016  11.951 -0.0045 -0.0030 -0.1851
 6567TIP3    H141116   5.552   0.083  11.883 -0.4131 -1.5246 -1.8265
 6567TIP3    H241117   5.586   0.052  12.027  0.1240  1.9606 -1.1033
 6568TIP3   OH241118   4.537   0.990   4.776 -0.1407 -0.0890 -0.4949
 6568TIP3    H141119   4.470   0.925   4.756  0.4800 -0.9255  0.0689
 6568TIP3    H241120   4.586   0.953   4.850  1.9175 -0.2379 -1.8350
 6569TIP3   OH241121   0.182   2.241   2.707  0.3102  0.5689 -0.8931
 6569TIP3    H141122   0.090   2.218   2.722  0.9727 -1.1727  0.8426
 6569TIP3    H241123   0.220   2.164   2.666  1.5474  0.2605  0.7534
 6570TIP3   OH241124   0.027   4.609  14.977  0.6231 -0.3144  0.1095
 6570TIP3    H141125   0.112   4.649  14.957 -0.1270  2.1554  1.4057
 6570TIP3    H241126  -0.037   4.673  14.945 -0.6741 -0.2919  2.5313
 6571TIP3   OH241127   1.396   1.322  12.437 -0.0431  0.7498  0.2946
 6571TIP3    H141128   1.355   1.282  12.513 -0.2294  0.4004  0.0126
 6571TIP3    H241129   1.485   1.341  12.465  1.1248 -2.8669 -0.5554
 6572TIP3   OH241130   0.390   1.777   0.178 -0.3939  0.0448  0.4501
 6572TIP3    H141131   0.435   1.848   0.131 -2.0978  0.6966 -0.2815
 6572TIP3    H241132   0.303   1.813   0.197 -1.2378 -1.7916  0.2008
 6573TIP3   OH241133   0.778   1.126  13.549  0.3052 -0.1939 -0.4357
 6573TIP3    H141134   0.710   1.192  13.562  2.6018  2.0784  1.1825
 6573TIP3    H241135   0.834   1.164  13.481  0.2880 -1.7862 -1.3840
 6574TIP3   OH241136   4.970   0.523  14.732 -0.0125  0.1793 -0.1807
 6574TIP3    H141137   4.913   0.591  14.768  1.8190  1.9753 -0.5159
 6574TIP3    H241138   5.031   0.502  14.802 -0.0688 -0.5844 -0.3432
 6575TIP3   OH241139   0.939   1.620  16.153 -0.3207 -0.1357 -0.1405
 6575TIP3    H141140   0.954   1.571  16.234 -2.3976 -1.4267 -0.4597
 6575TIP3    H241141   0.959   1.558  16.083  1.2534  0.8999 -0.6514
 6576TIP3   OH241142   0.906   0.064   1.128  0.1056 -0.2812 -0.7074
 6576TIP3    H141143   0.882   0.044   1.218 -1.8565  0.0530 -1.1087
 6576TIP3    H241144   0.833   0.116   1.094  1.7531  1.4449 -1.8701
 6577TIP3   OH241145   4.616   4.397  14.563 -0.2178  0.1396  0.1655
 6577TIP3    H141146   4.539   4.363  14.608 -0.4277  1.0559  0.5242
 6577TIP3    H241147   4.629   4.484  14.601 -0.6636  1.1391 -1.8550
 6578TIP3   OH241148   3.954   2.551   4.254  0.5980 -0.0588  0.2742
 6578TIP3    H141149   3.938   2.496   4.331 -1.4726 -0.1960 -0.2027
 6578TIP3    H241150   4.049   2.563   4.253  0.7906 -0.9987  2.1869
 6579TIP3   OH241151   4.973   3.482  17.165  0.3807  0.4003 -0.7352
 6579TIP3    H141152   5.029   3.532  17.224 -2.1706  0.4969  1.8438
 6579TIP3    H241153   4.971   3.534  17.085  2.3522  1.3791 -0.1997
 6580TIP3   OH241154   2.272   3.041  14.705 -0.2271  0.0445 -0.7226
 6580TIP3    H141155   2.250   3.113  14.647  1.0910  0.8412 -0.2786
 6580TIP3    H241156   2.357   3.010  14.673  0.2183  0.0903  0.3928
 6581TIP3   OH241157   2.285   5.246   4.225  0.1048 -0.0900  0.7046
 6581TIP3    H141158   2.329   5.274   4.145 -0.1415 -0.0559  0.5809
 6581TIP3    H241159   2.332   5.293   4.295 -1.0501  1.5912  0.4117
 6582TIP3   OH241160   0.379   4.700  15.747  0.1619  0.6867  0.0981
 6582TIP3    H141161   0.329   4.640  15.802 -1.3178  0.7756 -1.0671
 6582TIP3    H241162   0.462   4.711  15.792 -0.1048 -1.0574  1.1014
 6583TIP3   OH241163   4.305   1.802   3.154 -0.4843  0.0779  0.2100
 6583TIP3    H141164   4.304   1.891   3.187  0.8191  0.7671 -1.4333
 6583TIP3    H241165   4.241   1.801   3.084 -0.1289 -0.1152 -0.1183
 6584TIP3   OH241166   4.848   1.498   6.712 -0.5853 -0.2443 -0.0279
 6584TIP3    H141167   4.874   1.585   6.682  1.0035 -0.9792 -0.9029
 6584TIP3    H241168   4.856   1.443   6.635 -1.4407 -1.2017  0.5485
 6585TIP3   OH241169   0.888   2.812  13.018 -0.3591  1.1018  0.2455
 6585TIP3    H141170   0.950   2.747  12.984  0.4908  1.6789  0.6745
 6585TIP3    H241171   0.805   2.788  12.978  0.3037  0.8336 -1.0201
 6586TIP3   OH241172   1.205   2.074  11.624  0.2219  0.2284  0.0778
 6586TIP3    H141173   1.234   2.054  11.535  0.4758  0.3639  0.1272
 6586TIP3    H241174   1.110   2.062  11.622  0.1005  1.1435 -0.4679
 6587TIP3   OH241175   2.105   3.577  11.863  0.5229 -0.3662 -0.7791
 6587TIP3    H141176   2.126   3.656  11.814  2.1395 -1.3507 -1.7845
 6587TIP3    H241177   2.183   3.560  11.916  0.0047 -1.0114 -0.2022
 6588TIP3   OH241178   6.063   6.475   2.331 -0.0825 -0.0967  0.0570
 6588TIP3    H141179   5.998   6.516   2.274 -1.0140  0.9936  1.8009
 6588TIP3    H241180   6.011   6.438   2.403  1.0364 -1.5334  0.1700
 6589TIP3   OH241181   5.581   3.243  17.046  0.2797  0.0705  0.0450
 6589TIP3    H141182   5.654   3.204  17.093  0.0294 -0.6983 -0.1894
 6589TIP3    H241183   5.510   3.180  17.055 -0.1948  0.5592 -0.1845
 6590TIP3   OH241184   5.799   4.086  16.625 -0.3289  0.1785 -0.2629
 6590TIP3    H141185   5.881   4.062  16.668  0.3015  0.8210 -1.0786
 6590TIP3    H241186   5.818   4.168  16.580 -1.4881  0.4557 -0.2787
 6591TIP3   OH241187   0.272   1.839  12.981  0.4324  0.1670 -0.4190
 6591TIP3    H141188   0.301   1.912  12.925 -0.4065  0.0089 -1.0686
 6591TIP3    H241189   0.242   1.772  12.919  0.1961 -0.3079  0.2086
 6592TIP3   OH241190   1.524   2.768   4.377 -0.2066  0.1420 -0.2647
 6592TIP3    H141191   1.534   2.818   4.458  0.8971  1.4654 -1.1645
 6592TIP3    H241192   1.517   2.677   4.405 -2.8188  0.7607  1.4908
 6593TIP3   OH241193   3.806   0.991  15.928  0.0127  0.0426  0.3835
 6593TIP3    H141194   3.845   1.011  16.013 -0.0793 -2.2182  1.0209
 6593TIP3    H241195   3.714   0.973  15.947  0.2961 -1.9259  0.0891
 6594TIP3   OH241196   1.881   0.077   3.990  0.1515  0.0511 -0.0557
 6594TIP3    H141197   1.875   0.076   3.894 -0.6520 -0.4585 -0.0091
 6594TIP3    H241198   1.913   0.165   4.011 -0.8398  0.5903 -0.7283
 6595TIP3   OH241199   4.835   0.827  16.509 -0.5295  0.2717  0.1043
 6595TIP3    H141200   4.803   0.893  16.571  0.1183 -0.0160  0.7661
 6595TIP3    H241201   4.860   0.753  16.564  1.2590  0.4857 -0.3641
 6596TIP3   OH241202   6.575   5.578  16.080 -0.0950 -0.2579  0.3158
 6596TIP3    H141203   6.500   5.538  16.035  0.6710  0.8175 -2.0568
 6596TIP3    H241204   6.650   5.526  16.053  0.1511 -1.0864  2.3776
 6597TIP3   OH241205   5.294   4.432   0.184  0.4670 -0.0339 -0.3295
 6597TIP3    H141206   5.304   4.446   0.090 -1.3715 -0.8787 -0.7005
 6597TIP3    H241207   5.262   4.515   0.218  2.8251  0.8515 -0.0883
 6598TIP3   OH241208   3.935   5.061   6.875 -0.5553  0.0957 -0.6049
 6598TIP3    H141209   3.889   5.002   6.935 -0.6359 -1.0404 -1.7283
 6598TIP3    H241210   3.882   5.059   6.795  0.6601 -0.1112 -1.4316
 6599TIP3   OH241211   0.622   5.077   2.343 -1.0108  0.1442 -0.1739
 6599TIP3    H141212   0.713   5.078   2.314 -1.3003  0.2816 -1.1168
 6599TIP3    H241213   0.619   5.139   2.415 -0.6464  1.2439 -1.0808
 6600TIP3   OH241214   0.435   0.077  15.023  0.5930 -0.1585 -0.0176
 6600TIP3    H141215   0.356   0.126  14.999  1.2416  0.3958 -1.0961
 6600TIP3    H241216   0.469   0.044  14.940  1.3197 -0.6604  0.4696
 6601TIP3   OH241217   2.725   5.179   6.567 -0.4813 -0.0624 -0.2077
 6601TIP3    H141218   2.762   5.260   6.604 -1.6966 -0.3648  1.7668
 6601TIP3    H241219   2.712   5.200   6.474 -4.1098  3.4002  0.8131
 6602TIP3   OH241220   1.840   4.271  11.395  0.0191  0.0504 -0.0957
 6602TIP3    H141221   1.873   4.193  11.439 -0.1540  0.6715  1.1980
 6602TIP3    H241222   1.756   4.289  11.437  0.4186  1.3674  0.2155
 6603TIP3   OH241223   4.453   4.130  11.138  0.1375  0.0351  0.1185
 6603TIP3    H141224   4.408   4.197  11.086 -0.4629  0.0871  0.6952
 6603TIP3    H241225   4.539   4.122  11.097  0.0150  0.7567 -0.2984
 6604TIP3   OH241226   1.194   0.098   1.164 -0.2950 -0.4129  0.9767
 6604TIP3    H141227   1.175   0.172   1.221 -0.3620 -1.1141  1.8845
 6604TIP3    H241228   1.160   0.125   1.079 -1.3121  0.1622  1.5413
 6605TIP3   OH241229   5.045   5.522   3.335  0.2144 -0.2620  0.5356
 6605TIP3    H141230   5.067   5.588   3.401 -0.5788 -0.0711  0.6277
 6605TIP3    H241231   5.122   5.518   3.279  1.4690 -1.4112  2.2312
 6606TIP3   OH241232   5.113   4.986  11.562  0.2821 -0.0505  0.4962
 6606TIP3    H141233   5.151   5.051  11.504 -0.0859  0.5704  0.9352
 6606TIP3    H241234   5.065   4.926  11.505 -1.0099  1.1809  0.2289
 6607TIP3   OH241235   1.825   4.591   6.175 -0.1157  0.4086  0.1387
 6607TIP3    H141236   1.801   4.498   6.168  1.0018  0.2209 -1.8668
 6607TIP3    H241237   1.744   4.634   6.200 -1.1367 -0.9123 -0.7196
 6608TIP3   OH241238   6.001   4.229  12.958 -0.2166  0.0768 -0.1339
 6608TIP3    H141239   6.009   4.160  13.024  0.6425  1.3596  1.1627
 6608TIP3    H241240   5.927   4.282  12.986 -0.8976 -0.3098 -1.1456
 6609TIP3   OH241241   3.802   2.960  13.083  0.1420 -0.2675  0.0200
 6609TIP3    H141242   3.719   2.921  13.112  0.0467 -0.8715 -1.0263
 6609TIP3    H241243   3.809   3.041  13.133  1.1889 -2.3456  3.6781
 6610TIP3   OH241244   0.102   5.198   0.957  0.1690  0.1703  0.0594
 6610TIP3    H141245   0.137   5.156   1.036  0.0061  2.4372  1.4428
 6610TIP3    H241246   0.056   5.275   0.990 -0.8553  0.6019 -2.1997
 6611TIP3   OH241247   1.706   4.967  12.798  0.0688  0.3243  0.1503
 6611TIP3    H141248   1.800   4.967  12.819 -0.5521 -0.5198  3.5122
 6611TIP3    H241249   1.674   5.050  12.833 -0.8106 -0.4906  1.3415
 6612TIP3   OH241250   3.822   4.409  11.830  0.1208 -0.5740 -0.0904
 6612TIP3    H141251   3.906   4.383  11.793 -1.9511 -2.9626 -3.7535
 6612TIP3    H241252   3.774   4.447  11.756 -2.8190 -1.5459  1.1564
 6613TIP3   OH241253   4.197   2.508  12.425 -0.6190 -0.2577  0.4926
 6613TIP3    H141254   4.150   2.578  12.471  0.5738 -0.0291  1.4097
 6613TIP3    H241255   4.188   2.432  12.483  1.2311  0.1350  1.3848
 6614TIP3   OH241256   2.373   2.979  12.595  0.1453 -0.3453  0.3711
 6614TIP3    H141257   2.441   2.920  12.627 -0.9907 -0.9906  1.7133
 6614TIP3    H241258   2.315   2.991  12.670 -0.2379  1.6501 -0.1855
 6615TIP3   OH241259   5.620   3.504  15.270 -0.6617 -0.3009 -0.0803
 6615TIP3    H141260   5.706   3.495  15.230 -1.0600 -1.3639 -0.7658
 6615TIP3    H241261   5.568   3.553  15.205 -0.9846 -1.0154 -0.3805
 6616TIP3   OH241262   4.185   1.585   5.562  0.0353  0.1999  0.1942
 6616TIP3    H141263   4.219   1.510   5.611  0.5752 -0.1495 -0.6957
 6616TIP3    H241264   4.202   1.660   5.619  1.5396 -0.0752  0.1434
 6617TIP3   OH241265   6.447   5.408   1.231  0.5377 -0.2183 -0.4843
 6617TIP3    H141266   6.432   5.399   1.137  0.4851  3.0931 -0.9405
 6617TIP3    H241267   6.359   5.410   1.270  0.5599 -1.5992 -0.3096
 6618TIP3   OH241268   4.001   4.764   4.095 -0.3326 -0.3481  0.2976
 6618TIP3    H141269   3.967   4.738   4.010 -0.6837 -0.2616  0.4087
 6618TIP3    H241270   3.940   4.726   4.158  0.7363 -1.6660  0.5786
 6619TIP3   OH241271   3.575   4.375  16.892 -0.5553  0.0923 -0.7887
 6619TIP3    H141272   3.621   4.459  16.895 -0.4183 -0.0155  0.3272
 6619TIP3    H241273   3.620   4.326  16.823  0.5702  0.2397 -0.1764
 6620TIP3   OH241274   2.764   6.541  15.947 -0.2105 -0.5346 -0.1874
 6620TIP3    H141275   2.681   6.495  15.954  0.6566 -2.2638 -0.8712
 6620TIP3    H241276   2.817   6.489  15.887  1.8416 -0.1883  1.1958
 6621TIP3   OH241277   3.481   1.823   5.346  0.1820 -0.9705  0.2728
 6621TIP3    H141278   3.463   1.891   5.411 -1.9559 -1.2162  0.0235
 6621TIP3    H241279   3.558   1.777   5.380 -0.1742 -0.3487  2.0272
 6622TIP3   OH241280   5.970   1.549   3.279  0.2331  0.9240 -0.3511
 6622TIP3    H141281   5.934   1.551   3.190 -1.0179 -0.3197  0.0952
 6622TIP3    H241282   6.045   1.490   3.273 -1.6784 -1.6861 -0.0054
 6623TIP3   OH241283   3.331   4.305   1.375  0.1792 -0.1399  0.1208
 6623TIP3    H141284   3.272   4.295   1.450  0.0855 -1.3145 -0.0852
 6623TIP3    H241285   3.390   4.376   1.401 -0.2244 -0.1256  1.0620
 6624TIP3   OH241286   0.282   3.403  13.222  0.2771 -0.2168 -0.2627
 6624TIP3    H141287   0.355   3.375  13.167 -1.4225 -2.3467 -1.6139
 6624TIP3    H241288   0.294   3.356  13.304  1.0474  0.3945 -0.0153
 6625TIP3   OH241289   0.299   4.026  10.569  0.2977 -0.3436 -0.4459
 6625TIP3    H141290   0.274   4.117  10.552 -1.0725 -0.3489  1.2380
 6625TIP3    H241291   0.372   4.010  10.510 -0.3411  1.3994 -1.8185
 6626TIP3   OH241292   6.342   0.865   1.418  0.2912  0.0301 -0.4093
 6626TIP3    H141293   6.425   0.904   1.445  0.0860 -0.2456  0.6727
 6626TIP3    H241294   6.368   0.792   1.362  0.8680 -0.8311  0.9079
 6627TIP3   OH241295   5.529   0.902  15.795 -0.1112  0.7044 -0.0828
 6627TIP3    H141296   5.569   0.910  15.882 -0.0953  0.1934 -0.0389
 6627TIP3    H241297   5.439   0.873  15.813 -0.0764  0.4987 -0.2423
 6628TIP3   OH241298   1.778   3.551   4.122 -0.2401  0.3131  0.1215
 6628TIP3    H141299   1.795   3.630   4.070 -0.1434  1.0588  1.2405
 6628TIP3    H241300   1.850   3.550   4.185 -0.7559 -0.1660  0.7004
 6629TIP3   OH241301   2.935   5.001  14.116  0.1026  0.0414  0.3226
 6629TIP3    H141302   2.963   4.919  14.074  1.4827  1.3285 -1.4614
 6629TIP3    H241303   2.840   4.993  14.124  0.3275 -2.2394  1.4043
 6630TIP3   OH241304   6.522   4.477   4.778 -0.7357 -0.4285  0.6355
 6630TIP3    H141305   6.487   4.408   4.835 -2.2168 -1.1599 -1.0489
 6630TIP3    H241306   6.579   4.430   4.717 -0.4129  0.0898  0.5386
 6631TIP3   OH241307   6.195   2.357   1.609  0.9505  0.1335  0.1723
 6631TIP3    H141308   6.164   2.446   1.591 -0.1944 -0.5608 -1.5988
 6631TIP3    H241309   6.222   2.323   1.523  1.9679 -1.0228  0.9102
 6632TIP3   OH241310   5.814   0.398   3.242 -0.2513 -0.4807 -0.1366
 6632TIP3    H141311   5.765   0.348   3.308 -1.2031  2.2785  1.4009
 6632TIP3    H241312   5.900   0.412   3.282 -0.7486  0.9900  0.4682
 6633TIP3   OH241313   3.685   6.551   1.875 -0.4244  0.0030  0.1574
 6633TIP3    H141314   3.644   6.483   1.822 -0.4162  0.1441 -0.0290
 6633TIP3    H241315   3.778   6.530   1.872 -0.5843 -1.0823  1.6435
 6634TIP3   OH241316   0.670   2.152  13.740 -0.6773  0.3423 -0.0037
 6634TIP3    H141317   0.665   2.188  13.829  0.0478  1.0079 -0.2186
 6634TIP3    H241318   0.761   2.123  13.731 -1.4964 -2.7876  0.6023
 6635TIP3   OH241319   4.439   0.252  12.941  0.4132 -0.1495  0.0204
 6635TIP3    H141320   4.412   0.161  12.928  2.3514 -0.9110  0.9432
 6635TIP3    H241321   4.362   0.295  12.978 -0.2833 -1.6190  0.3461
 6636TIP3   OH241322   4.953   3.083   3.338  0.4402 -0.0144 -0.2502
 6636TIP3    H141323   4.889   3.057   3.404  0.7827 -2.5968 -0.8295
 6636TIP3    H241324   4.949   3.179   3.337 -3.0855 -0.0512  0.0151
 6637TIP3   OH241325   5.987   2.039  13.227 -0.2573 -0.1933 -0.1782
 6637TIP3    H141326   6.074   2.079  13.226 -0.4082  0.4268 -3.9747
 6637TIP3    H241327   5.928   2.111  13.244 -0.1606 -0.4224  1.2938
 6638TIP3   OH241328   6.037   3.998   0.703  0.3662 -0.1025 -0.0145
 6638TIP3    H141329   6.000   4.077   0.743  2.1218  0.2379  1.0712
 6638TIP3    H241330   6.128   4.021   0.686  0.4750 -1.3551 -1.2931
 6639TIP3   OH241331   2.372   6.204  17.326 -0.1993  0.6935  0.1557
 6639TIP3    H141332   2.445   6.144  17.345 -0.4507 -0.3842 -2.0549
 6639TIP3    H241333   2.299   6.170  17.378 -0.8183 -2.0720 -2.2513
 6640TIP3   OH241334   2.401   5.811   3.602  0.3198 -0.1006  0.2097
 6640TIP3    H141335   2.430   5.862   3.678  1.0767 -1.1810  0.6745
 6640TIP3    H241336   2.321   5.855   3.573  0.4170  0.7689  1.1753
 6641TIP3   OH241337   1.747   5.718  16.493 -0.2503 -0.0376 -0.1434
 6641TIP3    H141338   1.837   5.700  16.466 -0.6987 -1.4432 -0.7259
 6641TIP3    H241339   1.727   5.803  16.453  1.6899  1.6816  2.1829
 6642TIP3   OH241340   6.212   0.977   1.744  0.1529 -0.7369 -0.5653
 6642TIP3    H141341   6.229   0.885   1.760  1.7779 -0.1194  1.8214
 6642TIP3    H241342   6.299   1.018   1.745 -0.6507  1.3521  2.9780
 6643TIP3   OH241343   3.221   2.718  14.286 -0.2920  0.0846 -0.4333
 6643TIP3    H141344   3.172   2.747  14.209 -1.0817  0.5270  0.2118
 6643TIP3    H241345   3.268   2.796  14.316 -0.0172 -0.0751 -0.4522
 6644TIP3   OH241346   2.951   1.644   5.386  0.1490 -0.7793 -0.4221
 6644TIP3    H141347   2.951   1.639   5.482  0.7625 -1.2512 -0.4408
 6644TIP3    H241348   2.977   1.735   5.367  1.3601 -1.0408 -0.1394
 6645TIP3   OH241349   5.518   3.124  14.142  0.4134 -0.1466  0.0615
 6645TIP3    H141350   5.497   3.069  14.217 -1.6584  3.5200  2.4467
 6645TIP3    H241351   5.447   3.109  14.080  1.7576 -2.6341 -1.0504
 6646TIP3   OH241352   0.259   3.201   4.508 -0.8285  0.0161 -1.0288
 6646TIP3    H141353   0.194   3.195   4.578  0.2178 -0.7428 -0.0715
 6646TIP3    H241354   0.321   3.130   4.527  1.5133  2.0245 -0.5770
 6647TIP3   OH241355   1.311   2.983   4.317 -0.1639  0.3308 -0.6026
 6647TIP3    H141356   1.339   3.072   4.339  0.4218  0.3291 -1.3132
 6647TIP3    H241357   1.378   2.926   4.356 -0.7016  0.1750  0.1177
 6648TIP3   OH241358   0.058   6.382   3.370  0.4799  0.1279 -0.7878
 6648TIP3    H141359   0.088   6.380   3.279  1.0481 -1.5046 -0.6037
 6648TIP3    H241360   0.004   6.460   3.375 -1.6203 -0.9939 -3.2050
 6649TIP3   OH241361   3.262   6.642   2.531  0.4326  0.0494 -0.2652
 6649TIP3    H141362   3.237   6.578   2.598  1.1525  1.3645  1.3347
 6649TIP3    H241363   3.264   6.592   2.449 -1.1823 -1.4606  0.5574
 6650TIP3   OH241364   1.994   6.432  15.129 -0.3012  0.6395 -0.2554
 6650TIP3    H141365   2.037   6.350  15.156 -0.8359  0.3309 -0.3382
 6650TIP3    H241366   1.966   6.416  15.039  1.0210  1.4896 -0.8597
 6651TIP3   OH241367   5.388   3.250  15.833 -0.3062 -0.7588  0.0154
 6651TIP3    H141368   5.390   3.241  15.928 -2.1931  0.7303  0.2505
 6651TIP3    H241369   5.298   3.273  15.813  0.4719  0.9050 -1.9222
 6652TIP3   OH241370   6.219   6.741   0.087 -0.1840  0.1841  0.3382
 6652TIP3    H141371   6.127   6.761   0.069 -0.2929 -0.3821  0.2457
 6652TIP3    H241372   6.267   6.784   0.017 -0.2502  1.7167  1.1940
 6653TIP3   OH241373   2.400   4.199  13.784  0.2893 -0.2794  0.5078
 6653TIP3    H141374   2.439   4.286  13.794 -0.9701  0.1847  1.7053
 6653TIP3    H241375   2.436   4.148  13.856  1.7235 -1.0657 -0.7089
 6654TIP3   OH241376   2.992   5.229   2.440  0.4291  0.3071  0.0246
 6654TIP3    H141377   2.956   5.271   2.362  1.9874  0.0049 -0.9018
 6654TIP3    H241378   2.926   5.243   2.508 -1.1098  0.3044 -1.4146
 6655TIP3   OH241379   4.368   1.354  17.061 -0.2919  0.5911  0.4282
 6655TIP3    H141380   4.311   1.428  17.040 -0.1585  0.3438 -0.9434
 6655TIP3    H241381   4.374   1.354  17.156  0.2746  2.7547  0.4469
 6656TIP3   OH241382   1.281   0.699  12.292 -0.6540 -0.0259 -0.1289
 6656TIP3    H141383   1.226   0.627  12.262  0.4527 -0.6526 -0.7201
 6656TIP3    H241384   1.221   0.774  12.300 -2.0251 -1.1925  1.3976
 6657TIP3   OH241385   1.031   4.261  16.149 -0.2668  0.1956  0.0649
 6657TIP3    H141386   1.115   4.300  16.124  0.4793 -0.0290  2.0500
 6657TIP3    H241387   0.982   4.333  16.189 -0.1544 -0.1474  0.8421
 6658TIP3   OH241388   2.322   4.091  16.630 -0.1056  0.1978  0.1822
 6658TIP3    H141389   2.266   4.061  16.701 -0.7018  2.5977  0.7887
 6658TIP3    H241390   2.266   4.148  16.577  0.7143 -0.4442 -1.4484
 6659TIP3   OH241391   1.324   3.642   4.634 -0.3801  0.0912  0.1991
 6659TIP3    H141392   1.382   3.665   4.707 -0.2480 -0.2204  0.1914
 6659TIP3    H241393   1.238   3.676   4.660  0.3346  3.2663 -1.0421
 6660TIP3   OH241394   4.815   1.553  16.551 -0.4673 -0.1578  0.5427
 6660TIP3    H141395   4.748   1.506  16.600  1.1736 -1.8752  1.2795
 6660TIP3    H241396   4.847   1.489  16.487  1.9887 -0.2386  1.7144
 6661TIP3   OH241397   1.061   5.210   4.901  0.4547 -0.5218 -0.0140
 6661TIP3    H141398   1.012   5.200   4.820  0.4192 -1.2062  0.0904
 6661TIP3    H241399   1.124   5.279   4.882 -0.6762  0.5301 -0.0850
 6662TIP3   OH241400   4.929   4.660   2.391  0.0413 -0.3242 -0.0351
 6662TIP3    H141401   4.893   4.685   2.306  2.2577  1.7247 -0.4918
 6662TIP3    H241402   4.854   4.658   2.450 -1.2292  0.5791 -1.5662
 6663TIP3   OH241403   0.800   4.243  13.889 -0.3542  0.2304  0.8158
 6663TIP3    H141404   0.796   4.223  13.795  1.2007 -0.4807  0.8615
 6663TIP3    H241405   0.867   4.183  13.923  1.8373  2.9400  1.6962
 6664TIP3   OH241406   5.866   3.100  17.076 -0.1366  0.0197 -0.2446
 6664TIP3    H141407   5.926   3.072  17.007 -0.0496 -1.4349  0.3734
 6664TIP3    H241408   5.797   3.034  17.075  0.0244 -0.2057  1.2430
 6665TIP3   OH241409   6.119   6.309  13.435 -0.0475 -0.1678  0.0126
 6665TIP3    H141410   6.059   6.316  13.509  0.7938  0.0394  0.6929
 6665TIP3    H241411   6.071   6.258  13.370 -0.4698 -1.1774  1.0686
 6666TIP3   OH241412   4.536   6.660   1.894 -0.0458  0.0641  0.4742
 6666TIP3    H141413   4.608   6.640   1.953  1.6309  2.6511 -0.5123
 6666TIP3    H241414   4.574   6.656   1.807 -1.0160  1.6793 -0.0697
 6667TIP3   OH241415   3.199   3.036   5.640 -0.1899 -0.0393 -0.4940
 6667TIP3    H141416   3.177   2.944   5.653 -1.1364  0.0955 -1.0937
 6667TIP3    H241417   3.239   3.063   5.723  1.2138 -1.2912 -0.7111
 6668TIP3   OH241418   5.227   5.391   0.640 -0.3348  0.2051 -0.6225
 6668TIP3    H141419   5.249   5.345   0.721  0.0349 -0.7863 -1.2521
 6668TIP3    H241420   5.144   5.353   0.613  0.0662 -0.2614 -1.2475
 6669TIP3   OH241421   5.557   1.612   6.293  0.4056  0.4688  0.1365
 6669TIP3    H141422   5.464   1.622   6.272  0.2938 -1.5425 -0.4435
 6669TIP3    H241423   5.585   1.534   6.246  2.7153  1.6755 -0.6543
 6670TIP3   OH241424   0.219   2.925  11.526 -0.0275  0.1824  0.5557
 6670TIP3    H141425   0.284   2.863  11.495  1.6777  1.5454  1.2574
 6670TIP3    H241426   0.265   2.980  11.589 -1.5971  1.8228  0.3832
 6671TIP3   OH241427   0.678   2.325   1.760  0.5534  0.1696  0.1813
 6671TIP3    H141428   0.761   2.341   1.803  0.7630 -1.8247  0.6287
 6671TIP3    H241429   0.612   2.340   1.828  0.5512  1.2577 -0.0381
 6672TIP3   OH241430   5.848   0.886   5.769 -0.1350 -0.1769 -0.4598
 6672TIP3    H141431   5.895   0.802   5.767 -0.5397 -0.4174 -0.1105
 6672TIP3    H241432   5.905   0.947   5.723 -0.1682 -0.8206 -1.3865
 6673TIP3   OH241433   3.749   0.408   3.552  0.2357  0.3209  0.6140
 6673TIP3    H141434   3.822   0.362   3.511  0.8625  2.0382 -0.2775
 6673TIP3    H241435   3.671   0.365   3.518  0.8055 -0.2321 -0.0005
 6674TIP3   OH241436   2.417   6.186   2.827  0.1163  0.4398  0.5184
 6674TIP3    H141437   2.481   6.119   2.848 -0.6940  0.5026  3.5841
 6674TIP3    H241438   2.430   6.254   2.893 -2.6366  0.7580  0.8598
 6675TIP3   OH241439   0.308   0.345   0.011  0.1119 -0.1374  0.0862
 6675TIP3    H141440   0.371   0.417   0.012  0.7087 -0.6280 -0.7144
 6675TIP3    H241441   0.253   0.359   0.088 -0.6114  1.9002 -0.7239
 6676TIP3   OH241442   0.556   4.563   3.612  0.1472  0.5625 -0.5928
 6676TIP3    H141443   0.635   4.601   3.574  0.7720 -0.8646 -0.7862
 6676TIP3    H241444   0.511   4.522   3.539  0.1234 -0.1278 -0.1977
 6677TIP3   OH241445   3.578   3.689   3.148 -0.2608 -0.2185  0.7765
 6677TIP3    H141446   3.533   3.760   3.194  1.6395  0.6244  1.4335
 6677TIP3    H241447   3.537   3.686   3.062  0.8404  3.0511 -0.0141
 6678TIP3   OH241448   5.907   6.005   6.107  0.2567 -0.1687  0.9505
 6678TIP3    H141449   5.878   5.943   6.040  0.6678  1.1627 -0.5515
 6678TIP3    H241450   5.909   5.955   6.188 -0.8495 -1.7040  0.0823
 6679TIP3   OH241451   0.833   0.873  13.651 -0.4433  0.1839 -0.9748
 6679TIP3    H141452   0.785   0.953  13.629  0.4110  0.6536 -1.1879
 6679TIP3    H241453   0.925   0.898  13.644 -0.1354 -1.2769 -2.7468
 6680TIP3   OH241454   6.452   0.767  15.713 -0.6397  0.2683 -0.0938
 6680TIP3    H141455   6.527   0.811  15.673 -0.1398 -1.5647 -1.2539
 6680TIP3    H241456   6.414   0.714  15.643 -0.7270 -1.7763  1.4288
 6681TIP3   OH241457   5.010   5.991   2.189  0.4792  0.0878 -0.5894
 6681TIP3    H141458   4.978   5.909   2.150  0.0313 -0.8733  1.6363
 6681TIP3    H241459   4.945   6.057   2.163 -0.2334 -0.6758 -0.7903
 6682TIP3   OH241460   3.052   6.065   3.044  0.4580 -0.0378 -0.2933
 6682TIP3    H141461   3.083   6.153   3.063 -1.8878  0.3905  2.1201
 6682TIP3    H241462   3.131   6.014   3.028  2.2538  1.5157  2.8992
 6683TIP3   OH241463   0.853   3.495  12.877 -0.1782  0.1883  0.8541
 6683TIP3    H141464   0.759   3.482  12.862 -0.2550  0.1302  1.3654
 6683TIP3    H241465   0.886   3.525  12.792 -0.3822 -1.2708  0.2233
 6684TIP3   OH241466   3.284   6.118   5.568  0.5203 -0.1134 -0.6176
 6684TIP3    H141467   3.304   6.117   5.662  0.9699 -0.1666 -0.7119
 6684TIP3    H241468   3.350   6.061   5.529  0.1629 -0.3132 -0.9334
 6685TIP3   OH241469   0.699   0.756   1.768  0.1985  0.2463  0.3175
 6685TIP3    H141470   0.647   0.736   1.689  2.3650 -0.1628 -1.0801
 6685TIP3    H241471   0.682   0.682   1.826  0.1691 -0.5135 -0.6280
 6686TIP3   OH241472   1.678   1.847  17.272  0.8310 -0.2205  0.5330
 6686TIP3    H141473   1.605   1.809  17.224 -0.2951  1.5082  0.8135
 6686TIP3    H241474   1.695   1.931  17.229  3.1180 -0.8512  0.0603
 6687TIP3   OH241475   1.197   0.562   3.872 -0.0338 -0.2415  0.0277
 6687TIP3    H141476   1.148   0.571   3.790 -0.7815 -1.5671  0.2942
 6687TIP3    H241477   1.142   0.606   3.937 -1.3521 -2.3874  0.4728
 6688TIP3   OH241478   1.113   0.336   0.530 -0.2082 -0.6942  0.0217
 6688TIP3    H141479   1.073   0.422   0.524  0.8423 -0.0131  1.8345
 6688TIP3    H241480   1.043   0.279   0.563 -0.3037  0.0129  1.1025
 6689TIP3   OH241481   5.136   0.999   2.154  0.8080 -0.4427  0.4419
 6689TIP3    H141482   5.226   1.012   2.183  0.7311  0.3065  0.3543
 6689TIP3    H241483   5.098   0.941   2.221  1.5205 -1.2771  0.1498
 6690TIP3   OH241484   4.171   4.899  15.166 -0.2425  0.4393  0.1108
 6690TIP3    H141485   4.153   4.924  15.256  1.9811  2.5049  0.0931
 6690TIP3    H241486   4.088   4.912  15.120 -1.1320  0.3614  1.6356
 6691TIP3   OH241487   5.359   0.604  16.122  0.1180 -0.5381  0.3995
 6691TIP3    H141488   5.309   0.525  16.143 -0.6541 -0.4208 -0.9120
 6691TIP3    H241489   5.369   0.648  16.206 -2.0609 -0.5358  0.7125
 6692TIP3   OH241490   1.891   5.249  14.508 -0.4918 -0.5373 -0.1119
 6692TIP3    H141491   1.960   5.293  14.457 -0.8933  1.1454  0.7007
 6692TIP3    H241492   1.893   5.158  14.478  1.5673 -0.3685 -0.6525
 6693TIP3   OH241493   4.381   3.581  14.524 -0.0663 -0.2753 -0.5833
 6693TIP3    H141494   4.398   3.660  14.473 -1.1681  1.0597  0.9924
 6693TIP3    H241495   4.416   3.601  14.611 -1.8404 -0.8520  0.3019
 6694TIP3   OH241496   0.471   2.411   1.994  0.1067 -0.3545 -0.2386
 6694TIP3    H141497   0.404   2.380   2.055  0.5908 -0.1698  0.3901
 6694TIP3    H241498   0.423   2.467   1.933 -0.1615  0.5277  0.7566
 6695TIP3   OH241499   5.768   5.324  13.877 -0.1516 -0.5619  0.2503
 6695TIP3    H141500   5.834   5.309  13.809 -2.2018 -3.3430 -1.3253
 6695TIP3    H241501   5.707   5.386  13.838 -1.0988 -1.8337 -0.3575
 6696TIP3   OH241502   5.094   0.340   0.971 -0.4730  0.2980 -0.1823
 6696TIP3    H141503   5.013   0.373   1.011 -0.4593 -0.9639  0.9748
 6696TIP3    H241504   5.152   0.415   0.968 -1.0134  0.7771  0.8352
 6697TIP3   OH241505   0.211   2.086  16.003 -0.1583  0.1543 -0.2475
 6697TIP3    H141506   0.285   2.147  15.997 -0.7838  1.1682  1.4816
 6697TIP3    H241507   0.159   2.104  15.925  1.8098 -1.2343 -2.0108
 6698TIP3   OH241508   0.212   0.793  14.313  0.4161  0.8248 -0.3666
 6698TIP3    H141509   0.141   0.845  14.350  0.5809  0.1774  0.9218
 6698TIP3    H241510   0.205   0.807  14.219 -2.0790 -0.0128 -0.3847
 6699TIP3   OH241511   5.480   6.711  14.633  0.1916 -0.7221 -0.0081
 6699TIP3    H141512   5.546   6.778  14.651 -0.2946 -0.2694  0.1087
 6699TIP3    H241513   5.451   6.682  14.720  0.7649 -1.4517 -0.0536
 6700TIP3   OH241514   6.381   0.974   1.975  0.5491 -0.3230  0.5228
 6700TIP3    H141515   6.438   0.923   2.033  1.6711 -1.5616 -1.5305
 6700TIP3    H241516   6.442   1.029   1.925 -0.2434 -0.2264 -0.3595
 6701TIP3   OH241517   1.469   1.886  15.434  0.2305 -0.3008 -0.2113
 6701TIP3    H141518   1.554   1.898  15.392  0.8067 -0.1547  0.9552
 6701TIP3    H241519   1.437   1.975  15.449 -0.0875 -0.3544 -0.5461
 6702TIP3   OH241520   1.313   3.692   0.941  0.3876  0.1958  0.4780
 6702TIP3    H141521   1.344   3.775   0.979 -0.4726 -0.1868  2.1118
 6702TIP3    H241522   1.241   3.665   0.998  1.3380 -2.2350  0.6388
 6703TIP3   OH241523   5.714   2.723  14.310  0.3235 -0.8706 -0.2060
 6703TIP3    H141524   5.701   2.800  14.365  0.5241 -0.7208 -0.3695
 6703TIP3    H241525   5.646   2.662  14.338  0.8320 -1.0519  0.6564
 6704TIP3   OH241526   6.073   0.182  13.306 -0.5669 -0.1258  0.3084
 6704TIP3    H141527   6.139   0.119  13.336 -1.4995 -1.0275  0.5520
 6704TIP3    H241528   6.033   0.140  13.230 -0.2280  0.8345 -0.4181
 6705TIP3   OH241529   2.682   1.646   5.285 -0.1907  0.2666  0.6662
 6705TIP3    H141530   2.767   1.647   5.242  0.0602  0.7735  1.1654
 6705TIP3    H241531   2.689   1.576   5.351 -1.4411 -2.3680 -1.7741
 6706TIP3   OH241532   6.296   3.601   1.111 -0.1975  0.3626  0.4528
 6706TIP3    H141533   6.299   3.664   1.184 -1.4519  0.2692  0.6057
 6706TIP3    H241534   6.208   3.566   1.114 -0.3191  0.4712 -1.2224
 6707TIP3   OH241535   3.887   1.758  12.865 -1.2711 -0.1450  0.1890
 6707TIP3    H141536   3.864   1.799  12.781  0.5466  0.2874 -0.1388
 6707TIP3    H241537   3.815   1.781  12.923 -1.9660  0.5994 -0.9285
 6708TIP3   OH241538   5.873   4.889   6.425  0.3846 -0.1122  0.1555
 6708TIP3    H141539   5.817   4.812   6.414  0.5571 -0.2979  0.5589
 6708TIP3    H241540   5.826   4.944   6.488 -0.3501  0.7077 -1.0770
 6709TIP3   OH241541   3.359   1.483  14.954  0.3431  0.2542  0.4387
 6709TIP3    H141542   3.447   1.450  14.938  1.1660  2.5946 -0.3716
 6709TIP3    H241543   3.327   1.511  14.868  0.2304  2.5502  1.1362
 6710TIP3   OH241544   2.469   4.897  16.282  0.2828 -0.5380 -0.2821
 6710TIP3    H141545   2.376   4.910  16.300 -0.1126  0.3174 -2.5596
 6710TIP3    H241546   2.479   4.802  16.276 -0.6872 -0.6217 -0.9511
 6711TIP3   OH241547   4.449   0.512   3.425 -0.4867  0.5268 -0.3324
 6711TIP3    H141548   4.356   0.530   3.413 -0.4479  0.3711 -0.8999
 6711TIP3    H241549   4.494   0.588   3.389 -0.3681  0.0654 -1.1847
 6712TIP3   OH241550   0.495   2.049  16.348  0.9689  0.1510 -0.3013
 6712TIP3    H141551   0.441   1.996  16.290  0.2671 -0.1765  0.6354
 6712TIP3    H241552   0.458   2.035  16.435  1.5776  1.1690  0.1364
 6713TIP3   OH241553   4.150   5.256   5.559 -0.5666  0.1722  0.2620
 6713TIP3    H141554   4.101   5.185   5.601 -0.7772  0.9364  1.3570
 6713TIP3    H241555   4.166   5.319   5.630  1.8335  0.0581 -0.0978
 6714TIP3   OH241556   5.921   2.666  11.178 -0.1249  0.1475  0.1172
 6714TIP3    H141557   5.826   2.679  11.171 -0.6729 -2.8871  0.4825
 6714TIP3    H241558   5.959   2.732  11.121 -2.6354 -0.5038 -2.5254
 6715TIP3   OH241559   2.934   1.071   4.441 -0.4381 -0.1654  0.1534
 6715TIP3    H141560   2.922   1.063   4.535  0.7777  1.2159  0.4669
 6715TIP3    H241561   3.022   1.108   4.431 -0.8576  0.4994 -1.4801
 6716TIP3   OH241562   4.740   4.872  12.210  0.4130 -0.3757 -0.2889
 6716TIP3    H141563   4.694   4.804  12.260  1.1498 -0.9732 -0.4076
 6716TIP3    H241564   4.748   4.837  12.122 -0.6828  0.5845 -0.7988
 6717TIP3   OH241565   0.050   4.658   4.315 -0.4534  0.0149  0.4251
 6717TIP3    H141566  -0.035   4.627   4.346 -0.3024  0.4088  1.2529
 6717TIP3    H241567   0.096   4.686   4.394 -0.4105  1.9172 -0.2416
 6718TIP3   OH241568   2.492   4.613  16.600 -0.0190 -0.4298  0.0332
 6718TIP3    H141569   2.576   4.647  16.570 -0.6419  0.1783 -1.0796
 6718TIP3    H241570   2.486   4.526  16.560  0.4960 -0.8939  0.9208
 6719TIP3   OH241571   5.286   4.710  12.774  0.1620  0.0381 -0.1980
 6719TIP3    H141572   5.278   4.804  12.755 -4.4007  0.0432  0.7356
 6719TIP3    H241573   5.268   4.703  12.868  1.0903 -1.7871 -0.1164
 6720TIP3   OH241574   0.660   1.621   6.047 -0.0712 -0.0732 -0.3603
 6720TIP3    H141575   0.720   1.549   6.064  0.7302  0.7927  0.7140
 6720TIP3    H241576   0.619   1.638   6.132 -2.6246 -1.2709 -1.2596
 6721TIP3   OH241577   2.082   3.055  13.685  0.3000 -0.2291 -0.5411
 6721TIP3    H141578   2.084   3.150  13.700  0.1769 -0.3010 -0.0462
 6721TIP3    H241579   1.989   3.032  13.694  0.1849 -0.2438 -1.6760
 6722TIP3   OH241580   1.568   4.948   2.587  0.1003 -0.2895 -0.2274
 6722TIP3    H141581   1.581   5.034   2.547 -0.2745 -0.5242 -0.8692
 6722TIP3    H241582   1.506   4.904   2.529  0.7191 -1.1967 -0.2172
 6723TIP3   OH241583   4.574   4.653   2.332 -0.0446 -0.1458  0.5578
 6723TIP3    H141584   4.557   4.727   2.391 -1.8271 -1.0688  1.2837
 6723TIP3    H241585   4.502   4.656   2.269 -1.2733 -2.2810  1.7217
 6724TIP3   OH241586   4.038   0.783   2.532  0.1696  0.0871 -0.2273
 6724TIP3    H141587   4.035   0.784   2.437  0.1835  0.4836 -0.2223
 6724TIP3    H241588   3.979   0.712   2.557  1.3115 -1.0260 -0.5729
 6725TIP3   OH241589   1.944   0.601  15.563 -0.2396 -0.1871 -0.4212
 6725TIP3    H141590   1.986   0.526  15.520  0.0174 -0.3329  0.0736
 6725TIP3    H241591   2.013   0.668  15.567  1.1643 -1.5570  3.4311
 6726TIP3   OH241592   5.335   3.902   2.811  0.1267  0.5076  0.4427
 6726TIP3    H141593   5.378   3.981   2.778 -1.6771  1.8041  1.0074
 6726TIP3    H241594   5.325   3.918   2.905 -2.6655  0.9030  0.1660
 6727TIP3   OH241595   0.643   2.743  11.030  0.4165  0.0328  0.0339
 6727TIP3    H141596   0.570   2.718  11.087  0.1181  3.2770  1.2921
 6727TIP3    H241597   0.613   2.822  10.986  2.2864  0.0550 -1.3191
 6728TIP3   OH241598   1.447   5.427   2.366  0.2152  0.2744  0.3399
 6728TIP3    H141599   1.360   5.392   2.385 -0.7494  1.7531 -1.0808
 6728TIP3    H241600   1.430   5.510   2.321  2.3383 -0.0695 -1.2443
 6729TIP3   OH241601   5.428   4.726  17.286 -0.2783  0.1143  0.4489
 6729TIP3    H141602   5.440   4.730  17.191  1.1537  1.4266  0.6471
 6729TIP3    H241603   5.334   4.722  17.298 -0.5518  1.3591 -0.9894
 6730TIP3   OH241604   3.262   6.161   5.259 -0.2042  0.1159 -0.0494
 6730TIP3    H141605   3.354   6.162   5.284 -0.2575  0.5598  0.1406
 6730TIP3    H241606   3.220   6.222   5.320 -1.0844 -2.0009  1.5671
 6731TIP3   OH241607   0.140   4.160  16.180  0.1619  0.1823  0.1765
 6731TIP3    H141608   0.087   4.183  16.104 -1.5750 -2.0352  0.6113
 6731TIP3    H241609   0.211   4.107  16.144 -0.5736 -0.7420  0.0668
 6732TIP3   OH241610   6.643   2.584   3.901 -0.2238  0.4870 -0.4848
 6732TIP3    H141611   6.688   2.500   3.893 -1.8628 -0.5657  0.5820
 6732TIP3    H241612   6.712   2.648   3.919  1.0179 -0.6723 -0.9991
 6733TIP3   OH241613   4.762   3.118   5.196  0.3890 -0.1762 -0.2984
 6733TIP3    H141614   4.800   3.169   5.124  1.6308 -1.1268 -0.3508
 6733TIP3    H241615   4.790   3.165   5.275  1.4595 -0.6948 -0.3494
 6734TIP3   OH241616   5.165   5.374  15.838 -0.3735 -0.1780 -0.4920
 6734TIP3    H141617   5.234   5.441  15.845  0.8252 -1.2477 -1.5564
 6734TIP3    H241618   5.164   5.350  15.746 -0.7540 -1.6633 -0.1272
 6735TIP3   OH241619   4.976   1.308  15.421  0.0888 -0.0284  0.0248
 6735TIP3    H141620   5.060   1.354  15.413 -0.9781  1.9949 -0.3578
 6735TIP3    H241621   4.991   1.243  15.489  2.0208  0.1210 -0.1873
 6736TIP3   OH241622   3.368   0.571   6.394 -0.0271  0.2948 -0.1972
 6736TIP3    H141623   3.450   0.579   6.443 -1.5402  1.7173  2.2979
 6736TIP3    H241624   3.319   0.503   6.439 -0.9384  0.7044 -0.5416
 6737TIP3   OH241625   0.161   3.509  16.773  0.2105  0.0801 -0.4740
 6737TIP3    H141626   0.256   3.501  16.776  0.3670  1.7021  0.6031
 6737TIP3    H241627   0.145   3.583  16.714 -0.1429  1.8519  1.6944
 6738TIP3   OH241628   2.873   5.029   4.213  0.2982 -0.0111  0.0659
 6738TIP3    H141629   2.816   4.975   4.159  1.4722 -2.6375  1.3059
 6738TIP3    H241630   2.959   5.025   4.171  0.3279  1.3015 -0.0510
 6739TIP3   OH241631   4.829   5.996   4.402  0.7002  0.1792  0.4778
 6739TIP3    H141632   4.758   6.017   4.463  0.8786  0.6969  0.5042
 6739TIP3    H241633   4.814   6.054   4.327 -0.6589 -1.7492 -0.8539
 6740TIP3   OH241634   1.318   6.487   4.345 -0.1055  0.3803  0.0043
 6740TIP3    H141635   1.305   6.497   4.439  0.3063 -0.4551  0.1584
 6740TIP3    H241636   1.283   6.401   4.324 -1.0184  0.9205 -0.7812
 6741TIP3   OH241637   5.492   0.544   0.184 -0.1591 -0.2181 -0.0431
 6741TIP3    H141638   5.562   0.558   0.120 -0.7820  2.0249 -0.3196
 6741TIP3    H241639   5.508   0.610   0.251 -0.5916 -1.3411  1.2118
 6742TIP3   OH241640   6.476   5.942   6.056 -0.1336 -0.3851  0.5942
 6742TIP3    H141641   6.504   5.986   5.975 -1.8275  0.6336  0.4966
 6742TIP3    H241642   6.472   5.849   6.033  1.6245 -0.3844  0.2101
 6743TIP3   OH241643   2.808   0.205  17.341 -0.0405 -0.2122 -0.2252
 6743TIP3    H141644   2.899   0.233  17.332 -0.3419  0.5306 -1.1979
 6743TIP3    H241645   2.799   0.181  17.433  0.5535  1.8780  0.4361
 6744TIP3   OH241646   2.495   0.059  12.132 -0.2216 -0.3304 -0.2299
 6744TIP3    H141647   2.416   0.062  12.186 -1.7857 -0.1075 -2.3735
 6744TIP3    H241648   2.524   0.150  12.127 -0.9606 -0.1113 -0.9070
 6745TIP3   OH241649   1.933   2.238  12.803 -0.2068 -0.4750  0.0024
 6745TIP3    H141650   1.932   2.156  12.753  0.3936 -0.0151 -0.7898
 6745TIP3    H241651   1.973   2.215  12.886 -0.6448 -1.1244  0.0447
 6746TIP3   OH241652   6.379   5.026  16.432 -0.2391 -0.4075 -0.2026
 6746TIP3    H141653   6.290   4.990  16.431  0.1995 -1.5431 -0.0166
 6746TIP3    H241654   6.367   5.120  16.425 -1.5575 -0.3227  2.3520
 6747TIP3   OH241655   1.115   2.296   6.715  0.2571  0.4664  0.0265
 6747TIP3    H141656   1.131   2.227   6.651 -0.9891 -1.1250  1.3194
 6747TIP3    H241657   1.184   2.284   6.781  0.4397  0.8947 -0.0843
 6748TIP3   OH241658   1.142   3.977   2.230  0.0044 -0.0763  0.5622
 6748TIP3    H141659   1.206   3.951   2.163  0.7960  0.3954  1.1166
 6748TIP3    H241660   1.181   4.054   2.271 -1.0238  0.3440  0.7817
 6749TIP3   OH241661   2.275   2.615   1.117 -0.3509  0.5069 -0.2739
 6749TIP3    H141662   2.194   2.565   1.114  0.5679 -1.1332  0.3122
 6749TIP3    H241663   2.267   2.671   1.194 -0.2968 -0.8863  0.7894
 6750TIP3   OH241664   5.666   5.243   5.117  0.2776  0.5394 -0.0720
 6750TIP3    H141665   5.746   5.191   5.127  1.1878  1.6488 -1.3287
 6750TIP3    H241666   5.599   5.179   5.092  0.8076 -0.3623  0.7494
 6751TIP3   OH241667   2.299   3.970  12.679 -0.2952 -0.4238 -0.3220
 6751TIP3    H141668   2.345   3.982  12.595  0.0909 -1.4636 -0.2724
 6751TIP3    H241669   2.279   3.877  12.681 -1.0896 -0.2399  0.3522
 6752TIP3   OH241670   2.320   6.522  13.125  0.5937 -0.0701 -0.2125
 6752TIP3    H141671   2.248   6.586  13.119  1.8252  1.4496  0.5545
 6752TIP3    H241672   2.393   6.572  13.162  1.8614 -1.7395 -0.3743
 6753TIP3   OH241673   0.932   4.688   2.859  0.4215 -0.5697  0.1825
 6753TIP3    H141674   1.021   4.687   2.894  0.9316  1.3372 -0.9134
 6753TIP3    H241675   0.917   4.780   2.836 -1.7591 -0.8946  0.1445
 6754TIP3   OH241676   1.711   0.614   0.761 -0.4378  0.6481 -0.0326
 6754TIP3    H141677   1.624   0.577   0.749  0.0605 -0.4665 -0.3041
 6754TIP3    H241678   1.697   0.709   0.759 -1.6239  0.4836 -0.1634
 6755TIP3   OH241679   1.204   5.024  13.120 -0.3639 -0.1967 -0.2524
 6755TIP3    H141680   1.160   4.965  13.181 -0.2222  0.2411  0.2816
 6755TIP3    H241681   1.180   5.112  13.150  0.9478  0.0562  0.1126
 6756TIP3   OH241682   3.177   5.579   6.364 -0.3634 -0.8516 -0.1795
 6756TIP3    H141683   3.124   5.537   6.431 -0.4384 -1.2267 -0.4684
 6756TIP3    H241684   3.237   5.511   6.334  2.3678  0.3038  2.2010
 6757TIP3   OH241685   1.635   2.165   1.362 -0.2974  0.7305  0.8575
 6757TIP3    H141686   1.664   2.177   1.271  0.3875 -0.0043  0.9599
 6757TIP3    H241687   1.670   2.241   1.409  0.2980  0.5623  0.7041
 6758TIP3   OH241688   1.934   5.237   0.928  0.3475  0.4677  0.6497
 6758TIP3    H141689   1.948   5.169   0.994  1.7990 -1.1621 -1.1986
 6758TIP3    H241690   1.909   5.189   0.850  1.1570  2.0747 -0.6590
 6759TIP3   OH241691   2.644   1.289   4.748  0.4456 -0.0395  0.3898
 6759TIP3    H141692   2.562   1.298   4.699  1.4698 -1.3861 -1.7120
 6759TIP3    H241693   2.668   1.379   4.771 -1.6999  0.3687  1.3128
 6760TIP3   OH241694   1.145   2.091  13.318  0.1964  0.1394  0.0444
 6760TIP3    H141695   1.230   2.047  13.316  0.2324  0.2290 -1.1762
 6760TIP3    H241696   1.082   2.022  13.297 -0.0269  0.1221  0.7279
 6761TIP3   OH241697   6.511   5.242   4.487  0.3043 -0.6432 -0.0369
 6761TIP3    H141698   6.421   5.274   4.494  0.2684 -0.0960 -2.2692
 6761TIP3    H241699   6.561   5.301   4.543 -0.5344 -0.1340  0.2051
 6762TIP3   OH241700   5.771   3.238   4.739 -0.4144  0.1478  0.0134
 6762TIP3    H141701   5.760   3.292   4.661  0.1379  0.6354  0.2732
 6762TIP3    H241702   5.724   3.157   4.718  0.9651 -0.3347 -1.4244
 6763TIP3   OH241703   2.403   2.503   3.647 -0.1620 -0.5272  0.4065
 6763TIP3    H141704   2.318   2.513   3.603 -0.3528  0.7314  1.0341
 6763TIP3    H241705   2.439   2.591   3.650  2.0883 -1.2799 -1.5633
 6764TIP3   OH241706   1.079   5.174   0.094 -0.6200 -0.0911 -0.2760
 6764TIP3    H141707   1.121   5.201   0.175 -1.1917 -1.5883  0.5597
 6764TIP3    H241708   0.992   5.214   0.097 -0.5601  0.0368 -0.2586
 6765TIP3   OH241709   4.575   5.984   0.035 -0.3516 -0.3406  0.4681
 6765TIP3    H141710   4.553   5.903  -0.011 -2.7340  0.7746 -0.5011
 6765TIP3    H241711   4.594   6.047  -0.034  2.9215 -0.3081  1.2154
 6766TIP3   OH241712   3.303   0.004   3.623  0.2513 -0.5116  0.6636
 6766TIP3    H141713   3.234   0.043   3.677 -2.5362 -1.1204 -2.1728
 6766TIP3    H241714   3.384   0.043   3.657 -1.3735  0.0822  4.3292
 6767TIP3   OH241715   6.035   5.699   2.049  0.1798  0.4178  0.0677
 6767TIP3    H141716   6.058   5.626   1.991  3.4393  1.6133 -0.3276
 6767TIP3    H241717   6.043   5.663   2.138  1.4039  0.1550 -0.1343
 6768TIP3   OH241718   4.591   4.697  16.149  0.3086  0.2917  0.0835
 6768TIP3    H141719   4.635   4.669  16.069  1.7063 -0.5702  1.0899
 6768TIP3    H241720   4.498   4.681  16.133  0.5311  0.4067 -1.4424
 6769TIP3   OH241721   0.431   2.598   5.191  0.0379  0.1205 -1.0303
 6769TIP3    H141722   0.395   2.573   5.276  1.7279 -0.7622 -0.5262
 6769TIP3    H241723   0.525   2.581   5.199  0.4767  1.5662 -2.5361
 6770TIP3   OH241724   5.685   1.202  16.677 -0.3055  0.2566 -1.0032
 6770TIP3    H141725   5.667   1.168  16.589 -0.9150 -1.0284 -0.4166
 6770TIP3    H241726   5.741   1.135  16.717 -2.5431 -0.7759  0.6244
 6771TIP3   OH241727   1.623   5.254   5.571  0.5359  0.3496  0.0561
 6771TIP3    H141728   1.627   5.206   5.654 -0.1641 -0.2026 -0.2267
 6771TIP3    H241729   1.580   5.337   5.594 -0.6301 -0.2417  0.0509
 6772TIP3   OH241730   0.055   3.549   6.578  0.4056  0.1574 -0.1517
 6772TIP3    H141731   0.137   3.596   6.566  0.5580  0.6940  2.3707
 6772TIP3    H241732   0.067   3.502   6.661 -1.0267 -1.5655 -0.8576
 6773TIP3   OH241733   5.036   2.153   1.021  0.4626  0.0543  0.2855
 6773TIP3    H141734   4.993   2.235   0.998 -0.2903 -0.1904  0.7976
 6773TIP3    H241735   4.964   2.092   1.038  0.9931 -0.1510  1.9259
 6774TIP3   OH241736   6.544   4.708  15.621  0.7738 -0.4118 -0.9182
 6774TIP3    H141737   6.493   4.632  15.593  0.8506 -0.4335 -1.0052
 6774TIP3    H241738   6.565   4.754  15.539  2.3982 -1.3652 -1.0927
 6775TIP3   OH241739   4.085   1.216  16.443 -0.6612 -0.1157 -0.2348
 6775TIP3    H141740   4.067   1.125  16.423  0.5532 -0.2062 -1.0209
 6775TIP3    H241741   4.181   1.223  16.441 -0.7531  1.4436 -1.4915
 6776TIP3   OH241742   4.350   5.097  13.247 -0.2317 -0.1269 -0.0284
 6776TIP3    H141743   4.340   5.070  13.156  0.3056  4.0354 -1.5373
 6776TIP3    H241744   4.441   5.077  13.268 -0.2729 -0.8348 -0.4797
 6777TIP3   OH241745   3.911   4.059   3.234 -0.0475  0.3320  0.5244
 6777TIP3    H141746   3.912   4.039   3.328 -0.6411  0.7542  0.6275
 6777TIP3    H241747   3.824   4.032   3.205  0.8744 -1.8829 -0.3912
 6778TIP3   OH241748   0.339   6.268  14.344 -0.7102 -0.2937  0.6032
 6778TIP3    H141749   0.369   6.357  14.325 -0.2286 -0.5824 -0.0455
 6778TIP3    H241750   0.338   6.224  14.258 -3.4338 -0.1893  0.4931
 6779TIP3   OH241751   4.285   4.974   3.681  0.2914  0.0272  0.2976
 6779TIP3    H141752   4.258   4.994   3.591  2.4204  1.2676 -0.1405
 6779TIP3    H241753   4.381   4.974   3.677  0.4462  0.7021  2.6757
 6780TIP3   OH241754   1.732   1.659  14.903  0.0073  0.2402 -0.0173
 6780TIP3    H141755   1.639   1.675  14.918  0.1670  1.8347 -0.5428
 6780TIP3    H241756   1.773   1.682  14.987  0.0434  0.7369 -0.1685
 6781TIP3   OH241757   2.441   3.288   0.091  0.7026  0.8578  0.2510
 6781TIP3    H141758   2.348   3.289   0.116  0.9009  1.8207  1.0170
 6781TIP3    H241759   2.445   3.338   0.010  0.4149 -0.0898 -0.3630
 6782TIP3   OH241760   5.178   5.884   4.871  0.2563 -0.1156 -0.3203
 6782TIP3    H141761   5.207   5.799   4.837  1.6193 -0.5717  1.8016
 6782TIP3    H241762   5.109   5.911   4.811 -0.2876 -2.7671 -1.0196
 6783TIP3   OH241763   3.419   6.605  11.260  0.0193  0.4465 -0.3007
 6783TIP3    H141764   3.419   6.519  11.218  0.9304  0.7836 -1.0201
 6783TIP3    H241765   3.476   6.594  11.336 -0.8649  0.0978  0.3400
 6784TIP3   OH241766   6.135   1.327   2.949  0.3908 -0.1401 -0.5295
 6784TIP3    H141767   6.051   1.366   2.972  0.6517 -0.0119  0.2449
 6784TIP3    H241768   6.200   1.394   2.971  0.6571  0.0936 -1.9087
 6785TIP3   OH241769   2.303   5.959   1.663  0.2877 -0.7144  0.5306
 6785TIP3    H141770   2.221   5.996   1.630  0.5466 -0.0839  0.5773
 6785TIP3    H241771   2.282   5.930   1.752  0.1574 -0.4111  0.5984
 6786TIP3   OH241772   4.234   4.539   4.966  0.0047  0.0129  0.1897
 6786TIP3    H141773   4.165   4.488   4.923  0.4596 -0.5200  0.0762
 6786TIP3    H241774   4.203   4.550   5.056  0.7625 -2.1546  0.7755
 6787TIP3   OH241775   5.858   3.990   3.010 -0.3818 -0.1596 -0.4980
 6787TIP3    H141776   5.915   3.992   3.086 -1.7767 -1.6065  0.6465
 6787TIP3    H241777   5.777   3.949   3.041 -1.5045  0.4590 -2.4226
 6788TIP3   OH241778   4.073   6.041   1.314  0.4244 -0.1133 -0.1080
 6788TIP3    H141779   4.017   6.038   1.392  0.0020 -1.6695 -0.4284
 6788TIP3    H241780   4.060   6.129   1.279 -1.0810 -0.0976  0.3847
 6789TIP3   OH241781   3.290   5.219   3.795  0.1433 -0.1917  0.0191
 6789TIP3    H141782   3.201   5.193   3.775  0.0432  0.1133  0.0646
 6789TIP3    H241783   3.345   5.152   3.753 -0.1104 -0.5363  0.2326
 6790TIP3   OH241784   1.870   5.196  16.464  0.1933 -0.2809  0.4843
 6790TIP3    H141785   1.790   5.249  16.466 -0.1433 -0.5870 -2.2248
 6790TIP3    H241786   1.839   5.106  16.472  0.3863 -0.3403  0.5663
 6791TIP3   OH241787   4.721   2.733   3.334 -0.3757 -0.1023  0.3380
 6791TIP3    H141788   4.784   2.697   3.397 -1.0590 -1.6470  0.1657
 6791TIP3    H241789   4.646   2.758   3.387 -0.3420  0.0547  0.3136
 6792TIP3   OH241790   3.362   0.039  15.307  0.2988 -0.0198  0.1624
 6792TIP3    H141791   3.405  -0.046  15.322  0.3224  0.2869  2.0243
 6792TIP3    H241792   3.325   0.062  15.392  1.5829  2.5611  0.0959
 6793TIP3   OH241793   3.520   1.372  12.668 -0.9826 -0.2441 -0.5453
 6793TIP3    H141794   3.499   1.457  12.629  1.7354  0.1209 -1.4132
 6793TIP3    H241795   3.563   1.323  12.599  1.9120 -0.4562  1.2448
 6794TIP3   OH241796   0.069   5.465   4.658  0.1000 -0.1634 -0.3872
 6794TIP3    H141797   0.100   5.380   4.627 -1.1249 -1.2871  1.2977
 6794TIP3    H241798  -0.026   5.460   4.651  0.0300  1.6711 -1.6233
 6795TIP3   OH241799   0.503   1.019  13.719 -0.5778  0.3690 -0.2468
 6795TIP3    H141800   0.531   1.110  13.713  1.7544 -0.2024  0.8185
 6795TIP3    H241801   0.418   1.023  13.764  0.3085  1.9526  1.4493
 6796TIP3   OH241802   0.525   6.623  13.440  0.1432 -0.4896 -0.0621
 6796TIP3    H141803   0.582   6.563  13.489 -0.0337 -0.6108 -0.0050
 6796TIP3    H241804   0.572   6.638  13.358  0.9165  0.4917  0.5369
 6797TIP3   OH241805   5.825   4.770   0.495  0.0849  0.3576 -0.3381
 6797TIP3    H141806   5.871   4.748   0.576 -0.3221 -2.0549 -0.6815
 6797TIP3    H241807   5.809   4.864   0.502  0.5597  0.3411  2.1099
 6798TIP3   OH241808   3.379   1.457   1.885 -0.0608 -0.1094 -0.0357
 6798TIP3    H141809   3.327   1.497   1.815 -0.0184  0.3237  0.1735
 6798TIP3    H241810   3.467   1.450   1.847  0.0910  0.6364  0.1533
 6799TIP3   OH241811   4.790   5.665  16.440  0.0068  0.6734  0.1325
 6799TIP3    H141812   4.872   5.624  16.467  1.7681  2.5680 -1.9830
 6799TIP3    H241813   4.764   5.719  16.514  1.8667  1.7070  0.0732
 6800TIP3   OH241814   6.586   3.034   6.604 -0.0287 -0.2968  0.1099
 6800TIP3    H141815   6.579   3.072   6.692 -0.9489 -2.5965  1.1078
 6800TIP3    H241816   6.646   3.093   6.558 -0.2492  1.5151  1.9534
 6801TIP3   OH241817   2.960   0.501  16.544 -0.1842 -0.7185 -0.0521
 6801TIP3    H141818   3.024   0.523  16.612  0.5285 -0.9064 -0.6500
 6801TIP3    H241819   2.945   0.407  16.554 -0.3245 -0.6856  0.0506
 6802TIP3   OH241820   1.619   2.635  12.519 -0.1637 -0.2005  0.0432
 6802TIP3    H141821   1.637   2.711  12.574 -0.6638 -0.5115  0.6452
 6802TIP3    H241822   1.694   2.578  12.531 -0.4594 -0.4508  0.7318
 6803TIP3   OH241823   3.179   0.465   1.838 -0.2133 -0.4640 -0.1137
 6803TIP3    H141824   3.207   0.547   1.878 -1.1870 -0.1423 -0.0596
 6803TIP3    H241825   3.185   0.401   1.908 -1.1829 -0.0573  0.3631
 6804TIP3   OH241826   6.655   1.234   1.567  0.4246 -0.3363 -0.0466
 6804TIP3    H141827   6.744   1.244   1.535  0.0787  2.2576 -0.3784
 6804TIP3    H241828   6.658   1.262   1.659 -0.5203  2.9919 -0.8910
 6805TIP3   OH241829   0.126   3.750   1.419  0.2053  0.2848  0.0025
 6805TIP3    H141830   0.110   3.843   1.406  1.2837  0.7040  1.4152
 6805TIP3    H241831   0.042   3.708   1.401  0.2916  1.1929 -3.1962
 6806TIP3   OH241832   2.110   2.761  15.319 -0.1470  0.3430 -0.2589
 6806TIP3    H141833   2.078   2.766  15.408  0.1461 -0.4742 -0.1017
 6806TIP3    H241834   2.204   2.746  15.328 -0.2491 -0.6438 -0.6852
 6807TIP3   OH241835   2.240   2.292  15.097  0.1331 -0.1729  0.0508
 6807TIP3    H141836   2.165   2.310  15.153  0.0149  0.8860 -0.4215
 6807TIP3    H241837   2.313   2.279  15.159 -0.0485  0.7132  0.4744
 6808TIP3   OH241838   0.926   0.914  13.193  0.3797 -0.1531  0.3209
 6808TIP3    H141839   0.906   0.983  13.255  0.7778 -0.8287  1.2242
 6808TIP3    H241840   0.928   0.957  13.108  0.2846  0.8681  0.8285
 6809TIP3   OH241841   0.618   0.549   3.666 -0.3959 -0.0455 -0.4335
 6809TIP3    H141842   0.570   0.528   3.585 -0.5845  2.2371 -0.9644
 6809TIP3    H241843   0.575   0.628   3.699  0.3083 -0.3931  1.4094
 6810TIP3   OH241844   1.017   4.339   3.812 -0.8846 -0.1563  0.3895
 6810TIP3    H141845   0.951   4.319   3.745  1.6069 -3.0991 -1.4497
 6810TIP3    H241846   1.097   4.355   3.763  0.3832  0.8420  2.6346
 6811TIP3   OH241847   4.313   2.528  12.150  0.0773  0.5552 -0.1157
 6811TIP3    H141848   4.242   2.519  12.214  0.1080 -0.0628 -0.1618
 6811TIP3    H241849   4.269   2.558  12.070 -0.2762 -0.7067 -0.4116
 6812TIP3   OH241850   2.450   4.720   2.868  0.1150  0.2267  0.4314
 6812TIP3    H141851   2.442   4.625   2.858  0.2861  0.4025 -1.8836
 6812TIP3    H241852   2.360   4.751   2.868  0.0674  0.2295 -1.5005
 6813TIP3   OH241853   0.096   4.942   2.615  0.3409 -0.8644 -0.0184
 6813TIP3    H141854   0.171   4.999   2.599 -0.8479  0.6006 -0.6395
 6813TIP3    H241855   0.021   4.991   2.580 -1.1303 -1.5575  1.9479
 6814TIP3   OH241856   5.160   4.468  13.536  0.6988  1.1732  0.4343
 6814TIP3    H141857   5.089   4.408  13.516 -0.4592  2.1445  1.4716
 6814TIP3    H241858   5.194   4.438  13.620  1.3216  0.9007  0.0916
 6815TIP3   OH241859   5.289   3.659   1.370 -0.6224  0.1814 -0.2113
 6815TIP3    H141860   5.239   3.677   1.291 -0.8839 -1.2580 -0.4061
 6815TIP3    H241861   5.362   3.605   1.340 -1.4931 -1.5874  0.6662
 6816TIP3   OH241862   0.526   4.656  11.830 -0.0063  0.0226 -0.1801
 6816TIP3    H141863   0.516   4.746  11.800 -0.0781 -0.1857 -0.7863
 6816TIP3    H241864   0.541   4.664  11.924 -1.8673  0.5765  0.1108
 6817TIP3   OH241865   0.340   5.168  14.085 -0.5032 -0.1748  0.4295
 6817TIP3    H141866   0.340   5.099  14.019  1.1252  1.1254 -1.0404
 6817TIP3    H241867   0.327   5.122  14.168 -0.4693 -2.1176 -0.5775
 6818TIP3   OH241868   0.087   0.728  15.047 -0.3465  0.1176  0.1183
 6818TIP3    H141869   0.086   0.659  14.981 -1.0053  1.3242 -1.1770
 6818TIP3    H241870   0.180   0.744  15.064 -0.1764 -0.4421 -0.2588
 6819TIP3   OH241871   1.617   1.009  11.177 -0.3164  0.3177 -0.2401
 6819TIP3    H141872   1.556   1.014  11.104  0.1463  0.0025 -0.6562
 6819TIP3    H241873   1.592   1.081  11.234 -0.2293  1.0156 -1.0662
 6820TIP3   OH241874   0.384   1.649  11.427  0.0129 -0.3088  0.0124
 6820TIP3    H141875   0.416   1.699  11.352 -1.5274  0.6728 -0.0322
 6820TIP3    H241876   0.459   1.594  11.453  1.6882  1.7805 -0.1179
 6821TIP3   OH241877   1.151   6.592   1.810  0.0857  0.5931 -0.1782
 6821TIP3    H141878   1.071   6.640   1.827 -0.3978 -0.2398 -0.0630
 6821TIP3    H241879   1.162   6.597   1.715 -0.5896 -0.0509 -0.2937
 6822TIP3   OH241880   1.949   3.206  14.040  0.2212 -0.8433  0.6937
 6822TIP3    H141881   1.875   3.158  14.077 -0.5981 -0.1632  0.0011
 6822TIP3    H241882   1.978   3.264  14.110 -0.7372 -0.1996  0.5751
 6823TIP3   OH241883   5.001   1.227  11.828 -0.3735  0.5671 -0.2191
 6823TIP3    H141884   4.908   1.209  11.812 -0.1191 -0.5451 -0.5455
 6823TIP3    H241885   5.017   1.190  11.915  0.0943 -0.6058 -0.7806
 6824TIP3   OH241886   0.583   4.113  10.617 -0.0462 -0.2373 -1.0043
 6824TIP3    H141887   0.585   4.080  10.527 -0.6732 -0.6049 -0.8926
 6824TIP3    H241888   0.571   4.034  10.671  0.4844 -0.0339 -0.5913
 6825TIP3   OH241889   6.184   1.415  13.365 -0.0260 -0.3149 -1.3630
 6825TIP3    H141890   6.262   1.469  13.354  1.2765  0.2670  5.7592
 6825TIP3    H241891   6.111   1.477  13.366  0.8607  0.8649  1.5877
 6826TIP3   OH241892   1.793   5.529   4.029 -0.2945  0.8290 -0.6499
 6826TIP3    H141893   1.700   5.509   4.030 -0.2081  0.4442 -0.1697
 6826TIP3    H241894   1.799   5.617   4.067 -0.2291 -0.1911  1.8817
 6827TIP3   OH241895   1.296   3.560   3.137 -0.0285 -0.6505  0.1975
 6827TIP3    H141896   1.333   3.612   3.207 -0.5031  0.3511 -0.2732
 6827TIP3    H241897   1.354   3.575   3.062 -0.7683  0.0724 -0.2412
 6828TIP3   OH241898   5.945   0.608   5.168 -0.4127  0.7770 -0.1546
 6828TIP3    H141899   5.857   0.639   5.189 -0.0232  0.3919  2.3461
 6828TIP3    H241900   5.985   0.681   5.121 -1.5462  1.6008  0.1087
 6829TIP3   OH241901   5.318   1.528   2.852  0.6853  0.6415 -0.1070
 6829TIP3    H141902   5.297   1.541   2.944  0.1535  2.5108 -0.4466
 6829TIP3    H241903   5.306   1.615   2.812 -1.5614 -0.6085 -2.4165
 6830TIP3   OH241904   4.235   3.463  11.586  0.4732 -0.5851 -0.3698
 6830TIP3    H141905   4.251   3.516  11.508  1.4326 -0.1426  0.1100
 6830TIP3    H241906   4.308   3.400  11.587  0.7817 -0.2196  0.4671
 6831TIP3   OH241907   5.098   5.682  17.113  0.2618 -0.2152 -0.1250
 6831TIP3    H141908   5.172   5.693  17.053  0.6519 -1.2499  0.1447
 6831TIP3    H241909   5.058   5.599  17.088 -1.5624  0.8775 -1.0360
 6832TIP3   OH241910   5.021   2.813   0.810 -0.2488  0.2097 -0.2338
 6832TIP3    H141911   5.024   2.836   0.903 -1.2852  0.1210 -0.1665
 6832TIP3    H241912   5.052   2.722   0.807  0.1533  0.3350 -0.0279
 6833TIP3   OH241913   4.438   4.075   2.542  0.6557 -0.1643 -0.2514
 6833TIP3    H141914   4.515   4.064   2.599  0.7176 -0.8133 -0.4589
 6833TIP3    H241915   4.393   4.152   2.578 -0.3963 -1.7119  1.9296
 6834TIP3   OH241916   2.886   2.121   1.182  0.2050 -0.4617 -0.4314
 6834TIP3    H141917   2.873   2.034   1.219  3.0962 -0.5089  0.7567
 6834TIP3    H241918   2.844   2.180   1.243 -1.9774 -0.9695 -1.3665
 6835TIP3   OH241919   2.990   1.376  11.058  0.0760 -0.5371  0.2592
 6835TIP3    H141920   3.075   1.408  11.028 -0.5066  0.1461 -0.7202
 6835TIP3    H241921   2.928   1.406  10.991 -0.9353 -1.0377  0.9456
 6836TIP3   OH241922   6.194   4.994   3.599  0.4117 -0.0169  0.1505
 6836TIP3    H141923   6.241   5.050   3.537  1.6100 -0.4107  0.6713
 6836TIP3    H241924   6.191   4.909   3.556  0.0217  0.0438  0.0534
 6837TIP3   OH241925   6.756   6.054   3.306  0.3607 -0.4917  0.5146
 6837TIP3    H141926   6.770   6.146   3.328 -1.7192 -0.1696  0.7268
 6837TIP3    H241927   6.690   6.024   3.368  1.0150 -2.1579  0.4639
 6838TIP3   OH241928   2.316   5.567  11.283 -1.0622 -0.3321 -0.2104
 6838TIP3    H141929   2.345   5.632  11.219  0.6055 -1.9011 -1.1643
 6838TIP3    H241930   2.220   5.568  11.277 -0.9697 -0.1697 -2.5259
 6839TIP3   OH241931   2.549   2.287   2.124 -0.3604 -0.4425 -0.3875
 6839TIP3    H141932   2.524   2.352   2.189 -1.6119 -0.9712 -0.3232
 6839TIP3    H241933   2.629   2.247   2.159 -0.3663  0.0891  0.2395
 6840TIP3   OH241934   6.292   2.344  12.022  0.8547 -0.6481 -0.2682
 6840TIP3    H141935   6.323   2.407  12.088 -0.1518  1.3466 -1.5776
 6840TIP3    H241936   6.197   2.341  12.035  0.7351 -0.7726 -1.1517
 6841TIP3   OH241937   6.424   0.246  11.932 -0.1361  0.8081  0.4132
 6841TIP3    H141938   6.462   0.334  11.934  0.3925  0.6704 -1.6350
 6841TIP3    H241939   6.465   0.204  11.857 -1.9308 -0.4829  0.1021
 6842TIP3   OH241940   0.509   0.265  15.240  0.1703 -0.0259  0.1219
 6842TIP3    H141941   0.444   0.283  15.308  1.7132 -1.6162  2.1464
 6842TIP3    H241942   0.461   0.215  15.174 -1.1255  0.6758  0.4814
 6843TIP3   OH241943   2.731   4.719  16.505 -0.5326 -0.0853 -0.2203
 6843TIP3    H141944   2.746   4.743  16.413  2.1371 -1.1563 -0.1425
 6843TIP3    H241945   2.758   4.627  16.510 -2.9123 -0.7916  1.1810
 6844TIP3   OH241946   5.731   2.895   5.375  0.4761  0.3489  0.5545
 6844TIP3    H141947   5.766   2.807   5.368 -0.3801  0.0149  0.3156
 6844TIP3    H241948   5.781   2.935   5.447  1.5651  0.0222  0.0021
 6845TIP3   OH241949   3.153   2.764   1.135  0.0986 -0.0529  0.1969
 6845TIP3    H141950   3.076   2.726   1.093 -0.4211  1.9022 -0.7037
 6845TIP3    H241951   3.226   2.714   1.099 -0.5155  0.0850 -1.3013
 6846TIP3   OH241952   5.436   6.518   5.805 -0.0480 -0.4701  0.5719
 6846TIP3    H141953   5.481   6.457   5.747  0.6702  0.4145  0.1856
 6846TIP3    H241954   5.450   6.482   5.893  0.5197 -0.7532  0.3694
 6847TIP3   OH241955   5.114   3.693   1.132 -0.9333 -0.4784 -0.0617
 6847TIP3    H141956   5.158   3.676   1.049 -0.5865 -2.4741  0.4591
 6847TIP3    H241957   5.122   3.610   1.180 -0.6732  0.7746  2.1784
 6848TIP3   OH241958   4.395   6.527   6.271 -0.6414  0.0099  0.3660
 6848TIP3    H141959   4.415   6.550   6.362 -0.4323 -0.2062  0.3770
 6848TIP3    H241960   4.364   6.437   6.276 -2.0272  0.4634  0.3971
 6849TIP3   OH241961   0.351   1.752   1.949 -0.5281 -0.5025  0.1514
 6849TIP3    H141962   0.422   1.739   1.886 -0.7265  0.6487 -0.3234
 6849TIP3    H241963   0.330   1.664   1.980  1.3064 -0.8577  0.5210
 6850TIP3   OH241964   0.371   1.658   5.932  0.0989  0.0814  0.2578
 6850TIP3    H141965   0.451   1.698   5.967 -0.1995  0.9521 -0.0217
 6850TIP3    H241966   0.310   1.731   5.922 -0.0774 -0.2349 -1.3580
 6851TIP3   OH241967   1.057   1.728  14.675  0.6844 -0.3422 -0.0307
 6851TIP3    H141968   0.995   1.689  14.613  1.5695 -0.2356 -1.0131
 6851TIP3    H241969   1.002   1.780  14.733 -0.1770 -0.3942 -0.7607
 6852TIP3   OH241970   4.723   0.470  14.908  0.0856 -0.2752 -0.2093
 6852TIP3    H141971   4.639   0.460  14.861 -0.4214  1.0113  0.3928
 6852TIP3    H241972   4.725   0.561  14.935  1.8656 -0.1926 -0.5084
 6853TIP3   OH241973   2.215   3.778  11.717 -0.6385  0.3408 -0.3176
 6853TIP3    H141974   2.229   3.866  11.681 -0.5477  0.3237 -0.3254
 6853TIP3    H241975   2.273   3.722  11.666  0.3597  0.4929  0.6034
 6854TIP3   OH241976   0.424   2.103   2.948 -0.6045  0.2307  0.2090
 6854TIP3    H141977   0.422   2.098   2.852 -0.7284 -0.9468  0.2693
 6854TIP3    H241978   0.460   2.190   2.966  2.2758 -0.6077 -0.9379
 6855TIP3   OH241979   5.129   4.160   2.620  0.6148  0.3557  0.1229
 6855TIP3    H141980   5.224   4.162   2.634  0.6163 -0.8304  0.3453
 6855TIP3    H241981   5.120   4.158   2.525  1.0670 -5.1405 -0.0842
 6856TIP3   OH241982   2.682   0.627   1.187 -0.1375 -0.2836 -0.0391
 6856TIP3    H141983   2.700   0.706   1.238  1.7335  0.3282 -1.5581
 6856TIP3    H241984   2.727   0.557   1.234 -1.8299 -0.5337  1.3313
 6857TIP3   OH241985   6.408   0.853  17.234  0.3550 -0.5421  0.7825
 6857TIP3    H141986   6.372   0.809  17.312 -0.0585  1.2219  1.6369
 6857TIP3    H241987   6.428   0.942  17.264  0.8097 -0.0181 -0.9792
 6858TIP3   OH241988   1.489   3.601   4.015 -0.1323  0.5480 -0.2147
 6858TIP3    H141989   1.580   3.571   4.008 -0.0485  0.7672 -0.0535
 6858TIP3    H241990   1.439   3.532   3.972 -0.0345 -0.2745  0.9541
 6859TIP3   OH241991   2.236   4.602   1.635 -0.5879 -0.4487  0.1034
 6859TIP3    H141992   2.329   4.606   1.660 -0.8427 -0.3830  1.0786
 6859TIP3    H241993   2.189   4.619   1.716 -1.4844 -1.9171 -0.0835
 6860TIP3   OH241994   1.162   3.032   0.367  0.0636 -0.1023 -0.3224
 6860TIP3    H141995   1.074   3.013   0.334  0.5262  1.3481 -2.5883
 6860TIP3    H241996   1.213   3.055   0.289  2.2267  0.0303  1.0369
 6861TIP3   OH241997   3.223   5.617   3.669 -0.2538  0.0389 -0.3089
 6861TIP3    H141998   3.234   5.712   3.658  0.3578  0.0064 -0.0094
 6861TIP3    H241999   3.204   5.585   3.581  2.8877 -0.0075 -1.1017
 6862TIP3   OH242000   3.458   0.064  14.180 -0.0157  0.4462 -0.3453
 6862TIP3    H142001   3.547   0.028  14.182  0.4225  1.2707 -2.3051
 6862TIP3    H242002   3.425   0.051  14.269  1.6319 -0.9290  0.1245
 6863TIP3   OH242003   1.291   4.321   3.695 -0.5846 -0.2227 -0.0523
 6863TIP3    H142004   1.239   4.344   3.618 -1.2523  1.6492  0.9079
 6863TIP3    H242005   1.339   4.401   3.716  2.4920 -1.7682 -0.6696
 6864TIP3   OH242006   0.961   2.638  13.767  0.7436  1.0558 -0.0296
 6864TIP3    H142007   0.964   2.549  13.734  0.6057  1.1145 -0.2036
 6864TIP3    H242008   0.904   2.685  13.705 -0.1859  0.9746  0.7313
 6865TIP3   OH242009   0.136   2.546  11.831 -0.2869  0.4130 -0.0888
 6865TIP3    H142010   0.109   2.454  11.843 -0.9392  0.4928 -0.8767
 6865TIP3    H242011   0.169   2.572  11.916 -1.0826 -0.2453  0.4428
 6866TIP3   OH242012   3.675   1.007   1.104 -0.1971 -0.0362 -0.6666
 6866TIP3    H142013   3.601   0.978   1.051  0.2661  1.4112 -2.2129
 6866TIP3    H242014   3.725   1.063   1.046  1.1360  0.4896  0.9068
 6867TIP3   OH242015   2.395   4.006   3.030 -0.1109  0.0743 -0.3438
 6867TIP3    H142016   2.465   3.949   3.061  1.2846  1.3135 -1.0610
 6867TIP3    H242017   2.318   3.981   3.082  1.4915  0.4556  2.4164
 6868TIP3   OH242018   0.056   5.190   4.624 -0.0705  0.1711  0.0951
 6868TIP3    H142019  -0.003   5.116   4.610 -0.0705  0.4378 -1.5141
 6868TIP3    H242020   0.036   5.220   4.713 -1.4762 -0.5146  0.0422
 6869TIP3   OH242021   0.068   6.690   5.888 -0.6984 -0.0152 -0.5550
 6869TIP3    H142022   0.065   6.617   5.950 -1.2659  1.8534  1.7755
 6869TIP3    H242023   0.003   6.669   5.822 -1.2189 -1.3690  0.3506
 6870TIP3   OH242024   0.461   5.068  16.765 -0.3511  0.0916 -0.0904
 6870TIP3    H142025   0.499   4.980  16.755  0.0506  0.2736 -0.1988
 6870TIP3    H242026   0.446   5.098  16.676  0.8524  0.6995 -0.1086
 6871TIP3   OH242027   1.585   2.408   1.509  0.4327  0.3540 -0.4130
 6871TIP3    H142028   1.606   2.458   1.588 -1.2863 -1.3376  1.2308
 6871TIP3    H242029   1.525   2.340   1.539  1.7140 -1.9955 -2.7235
 6872TIP3   OH242030   6.493   3.643  16.046  0.2897  0.6444 -0.1098
 6872TIP3    H142031   6.491   3.636  15.951 -1.2725  0.7566 -0.1045
 6872TIP3    H242032   6.487   3.553  16.077 -2.7361  0.7442 -0.1419
 6873TIP3   OH242033   5.985   2.677  17.292 -0.0133 -0.4323  0.1276
 6873TIP3    H142034   6.058   2.732  17.321  0.3443 -0.3997 -0.8017
 6873TIP3    H242035   5.981   2.607  17.357  0.0299  0.2596  0.8867
 6874TIP3   OH242036   4.612   1.795   3.370  0.3571 -0.1617 -0.3067
 6874TIP3    H142037   4.524   1.829   3.353  0.2311 -0.4579 -0.2477
 6874TIP3    H242038   4.668   1.872   3.364 -0.1615  0.4669  1.9369
 6875TIP3   OH242039   3.401   4.126   2.469  0.0691  0.0396 -0.3099
 6875TIP3    H142040   3.485   4.085   2.448  1.2690  2.8170 -1.3339
 6875TIP3    H242041   3.410   4.154   2.560 -0.0771 -0.3880 -0.1619
 6876TIP3   OH242042   0.209   0.988  13.796  0.6282 -0.0656 -0.7610
 6876TIP3    H142043   0.176   1.034  13.719  2.3742 -1.5214 -2.4531
 6876TIP3    H242044   0.202   0.896  13.774  3.9308 -0.5083 -0.4873
 6877TIP3   OH242045   5.805   1.645   4.041  0.0510 -0.2783 -0.0755
 6877TIP3    H142046   5.875   1.701   4.008 -1.5329  2.1432  0.3485
 6877TIP3    H242047   5.758   1.617   3.963  0.9416 -1.1856 -0.3038
 6878TIP3   OH242048   1.421   5.806   5.236 -0.4359 -0.2808  0.0333
 6878TIP3    H142049   1.433   5.877   5.299 -0.4892 -0.7321  0.5586
 6878TIP3    H242050   1.503   5.757   5.239 -0.1376  0.1596 -0.8408
 6879TIP3   OH242051   6.659   4.640  12.847 -0.2387  0.1052 -0.0084
 6879TIP3    H142052   6.685   4.702  12.915  1.6534 -0.5882 -0.0690
 6879TIP3    H242053   6.722   4.652  12.777 -0.3507 -1.2915 -0.3865
 6880TIP3   OH242054   3.661   4.801  13.407 -0.0930 -0.4443  0.8492
 6880TIP3    H142055   3.623   4.759  13.330  0.6785  0.7878 -0.2475
 6880TIP3    H242056   3.662   4.894  13.386  1.1105 -0.1788  1.9042
 6881TIP3   OH242057   1.455   3.282  10.792 -0.1951  0.4138  0.4682
 6881TIP3    H142058   1.491   3.204  10.835  1.0964  1.2990  1.0487
 6881TIP3    H242059   1.530   3.339  10.777 -1.1173  1.5883  0.1030
 6882TIP3   OH242060   1.275   6.475   4.621  0.5812 -0.5031  0.7118
 6882TIP3    H142061   1.194   6.448   4.664 -0.5036  1.8688  0.2812
 6882TIP3    H242062   1.300   6.556   4.666  0.6457  0.8165 -1.5715
 6883TIP3   OH242063   1.978   2.925   2.347  0.3150 -0.5366 -0.3440
 6883TIP3    H142064   1.976   2.890   2.436  0.7584  0.9360  0.2789
 6883TIP3    H242065   2.055   2.885   2.307  1.2327  0.2446  0.5902
 6884TIP3   OH242066   4.478   0.638  11.263  0.1475 -0.0501  0.0617
 6884TIP3    H142067   4.507   0.717  11.218  0.2752 -0.6144 -0.8712
 6884TIP3    H242068   4.519   0.566  11.215 -0.6837 -0.7268  0.3410
 6885TIP3   OH242069   3.736   5.576  15.163 -0.0947 -0.1551  0.1799
 6885TIP3    H142070   3.770   5.572  15.074  0.3084 -1.3383  0.3706
 6885TIP3    H242071   3.644   5.598  15.153  0.1400  0.6042 -0.4700
 6886TIP3   OH242072   6.307   4.782   1.380 -0.2590 -0.3207 -0.1163
 6886TIP3    H142073   6.256   4.859   1.355 -1.1564 -0.3398  1.5364
 6886TIP3    H242074   6.289   4.770   1.474  1.4594 -1.3401  0.1356
 6887TIP3   OH242075   4.952   2.095  13.362  0.8195 -0.4836  0.4334
 6887TIP3    H142076   4.924   2.016  13.408 -0.8549 -0.6373 -0.7615
 6887TIP3    H242077   4.874   2.151  13.360  1.3502  0.2562 -0.6561
 6888TIP3   OH242078   5.541   2.664   3.312 -0.1633  0.4388  0.2828
 6888TIP3    H142079   5.554   2.746   3.359 -0.3084  0.7162 -0.1502
 6888TIP3    H242080   5.559   2.596   3.376  1.8837  0.7968  0.1624
 6889TIP3   OH242081   4.187   6.398   4.504  0.2670 -0.2315 -0.5845
 6889TIP3    H142082   4.281   6.381   4.501  0.5369  1.2488 -1.2499
 6889TIP3    H242083   4.174   6.476   4.450 -1.1357  0.4598  0.6438
 6890TIP3   OH242084   5.194   0.957  15.953  0.3987 -0.0857 -0.6799
 6890TIP3    H142085   5.148   1.040  15.940 -0.4151 -0.3986  0.1803
 6890TIP3    H242086   5.173   0.906  15.875 -0.8839 -0.2945 -0.2173
 6891TIP3   OH242087   2.879   4.281  10.677  0.1470  0.3914 -0.2954
 6891TIP3    H142088   2.844   4.365  10.650  0.3954  0.6687  0.2203
 6891TIP3    H242089   2.806   4.238  10.722 -0.0620  0.2105 -0.7988
 6892TIP3   OH242090   5.787   3.689   5.821  0.2672  0.5553  0.1085
 6892TIP3    H142091   5.827   3.602   5.823 -0.1518  0.3722  0.6423
 6892TIP3    H242092   5.754   3.698   5.731 -1.0206 -0.4577  0.4428
 6893TIP3   OH242093   3.129   3.536  14.922 -0.1043  0.1982  0.6744
 6893TIP3    H142094   3.039   3.526  14.954 -0.3942  0.3076 -0.0844
 6893TIP3    H242095   3.152   3.627  14.939 -0.1690  0.1890  0.8028
 6894TIP3   OH242096   5.566   0.086   5.373 -0.1232  0.3373  0.1327
 6894TIP3    H142097   5.481   0.117   5.403 -0.1173 -1.0356  1.6966
 6894TIP3    H242098   5.553   0.068   5.280 -1.6911 -0.3078  0.4405
 6895TIP3   OH242099   1.786   5.733   3.279 -0.3324  0.2894  0.1317
 6895TIP3    H142100   1.820   5.817   3.249 -0.6009  0.7926  1.1864
 6895TIP3    H242101   1.810   5.671   3.210 -0.8860  1.3802 -1.0858
 6896TIP3   OH242102   2.260   0.828   0.964 -0.4600  0.0051  0.1459
 6896TIP3    H142103   2.233   0.822   0.872 -1.2471 -0.1667  0.3824
 6896TIP3    H242104   2.338   0.774   0.969 -1.2536 -1.1944 -0.1143
 6897TIP3   OH242105   3.689   2.195   3.720  0.2014 -0.5920 -0.5609
 6897TIP3    H142106   3.618   2.138   3.690  0.6690 -0.9295 -1.0494
 6897TIP3    H242107   3.755   2.190   3.650 -0.0910  1.2071 -1.0150
 6898TIP3   OH242108   2.395   3.195  11.105 -0.0331 -0.3499  0.2721
 6898TIP3    H142109   2.430   3.159  11.186 -2.4179 -0.6520  1.2157
 6898TIP3    H242110   2.429   3.285  11.102  1.4344 -0.8565  0.6904
 6899TIP3   OH242111   2.097   0.275  13.081  0.6917 -0.2131  0.1841
 6899TIP3    H142112   2.169   0.314  13.131  1.0626  0.3050 -0.7376
 6899TIP3    H242113   2.136   0.198  13.040  0.7814  0.1923 -0.4926
 6900TIP3   OH242114   2.183   1.728  16.760  0.2161 -0.7838 -0.2319
 6900TIP3    H142115   2.151   1.760  16.676  2.8311  1.5081 -0.5035
 6900TIP3    H242116   2.268   1.688  16.740 -0.0412 -2.0571  1.0623
 6901TIP3   OH242117   5.349   3.074  13.927 -0.1918  0.1373 -0.4305
 6901TIP3    H142118   5.399   3.059  13.847  0.4191 -2.6540  0.3713
 6901TIP3    H242119   5.292   2.999  13.935 -1.1311  0.9489  1.1452
 6902TIP3   OH242120   6.056   0.639  11.742 -0.3966  0.4940 -0.0392
 6902TIP3    H142121   6.003   0.597  11.674  1.7230  0.0272 -1.4772
 6902TIP3    H242122   6.146   0.628  11.713  0.6754 -0.3240  3.1978
 6903TIP3   OH242123   3.889   5.184  15.943 -0.1579 -0.1577  0.0603
 6903TIP3    H142124   3.904   5.217  16.032  1.1948  0.9835 -0.5534
 6903TIP3    H242125   3.936   5.101  15.940  2.6512  1.3657 -0.5396
 6904TIP3   OH242126   2.770   0.342  13.473  0.3158  0.7151  0.2353
 6904TIP3    H142127   2.832   0.396  13.424  0.2936  0.9399  0.4513
 6904TIP3    H242128   2.693   0.337  13.417 -0.8140  3.3031  1.3726
 6905TIP3   OH242129   4.529   3.604  14.185 -0.7880  0.1217 -0.2085
 6905TIP3    H142130   4.435   3.617  14.191 -0.4198  2.7920  4.1287
 6905TIP3    H242131   4.564   3.693  14.174  1.2618 -0.5053  0.7613
 6906TIP3   OH242132   5.890   2.103   5.833 -0.7458  0.2332 -0.2520
 6906TIP3    H142133   5.840   2.114   5.752  0.5540  0.0698 -1.1116
 6906TIP3    H242134   5.828   2.063   5.895 -1.4914 -0.5527 -1.4627
 6907TIP3   OH242135   0.014   2.801   3.046 -0.1003 -0.2343  0.3442
 6907TIP3    H142136   0.020   2.763   2.958  0.8703  0.2064  0.2019
 6907TIP3    H242137  -0.046   2.875   3.035 -0.7947 -0.7929  0.2892
 6908TIP3   OH242138   6.505   0.316   5.832  0.1012 -0.3390 -1.0555
 6908TIP3    H142139   6.444   0.304   5.905 -0.4447 -0.1060 -1.4610
 6908TIP3    H242140   6.589   0.284   5.865 -0.0769  0.0120 -0.2427
 6909TIP3   OH242141   3.515   6.559  13.582  0.5229  0.0049 -0.0815
 6909TIP3    H142142   3.420   6.564  13.590  0.6743  1.4204  1.0532
 6909TIP3    H242143   3.542   6.647  13.556  1.6120 -0.0716  0.7259
 6910TIP3   OH242144   4.035   1.002   5.346 -0.8739  0.5735 -0.0989
 6910TIP3    H142145   4.057   0.910   5.356  1.1272  0.4778 -3.5450
 6910TIP3    H242146   4.087   1.047   5.413 -0.2169 -0.6749  0.2520
 6911TIP3   OH242147   3.384   6.127   1.185 -0.0121 -0.1908 -0.0609
 6911TIP3    H142148   3.349   6.204   1.141 -1.8816  0.1143  1.7960
 6911TIP3    H242149   3.475   6.122   1.157 -0.5893  1.0435 -2.3955
 6912TIP3   OH242150   0.142   3.678   6.072 -0.3577 -0.2059 -0.3299
 6912TIP3    H142151   0.164   3.628   6.151  0.4981  0.7317  0.0517
 6912TIP3    H242152   0.047   3.678   6.069 -0.3909 -1.8310 -0.3339
 6913TIP3   OH242153   4.502   5.402   5.129  0.0529 -0.1755  0.0942
 6913TIP3    H142154   4.416   5.428   5.163  0.9717  0.0751  2.3915
 6913TIP3    H242155   4.484   5.369   5.041 -2.0826  1.9232 -0.3575
 6914TIP3   OH242156   6.569   1.293  17.168 -0.5111  0.2995 -0.1745
 6914TIP3    H142157   6.528   1.377  17.147 -1.6039  0.2363  1.5433
 6914TIP3    H242158   6.573   1.247  17.084 -1.8943  1.2222 -0.7836
 6915TIP3   OH242159   6.677   6.181   3.813 -0.0094  0.0436  0.1744
 6915TIP3    H142160   6.702   6.264   3.852  0.2206  0.1147 -0.1184
 6915TIP3    H242161   6.600   6.203   3.759  0.6434  0.2681 -0.6860
 6916TIP3   OH242162   5.347   2.833  13.600 -0.1749  0.2551 -0.1536
 6916TIP3    H142163   5.394   2.756  13.570 -0.9576 -1.7910  3.2831
 6916TIP3    H242164   5.415   2.898  13.617  0.8297 -0.6859 -0.4580
 6917TIP3   OH242165   4.661   6.711  11.347  0.4085  0.1773 -0.1326
 6917TIP3    H142166   4.717   6.707  11.270 -2.5412  0.3513 -2.4715
 6917TIP3    H242167   4.640   6.803  11.358 -1.2128 -0.0796 -0.7815
 6918TIP3   OH242168   6.518   3.086   2.080  0.2245 -0.2433 -0.1413
 6918TIP3    H142169   6.590   3.118   2.135 -0.0389  0.1159 -0.0021
 6918TIP3    H242170   6.559   3.069   1.995  0.4505  0.0837 -0.1007
 6919TIP3   OH242171   6.069   5.138  12.249  0.7960  0.0361  0.0959
 6919TIP3    H142172   6.031   5.220  12.281 -1.8179 -0.9889 -0.1502
 6919TIP3    H242173   6.054   5.076  12.321 -0.3412 -1.0047 -0.9996
 6920TIP3   OH242174   3.261   4.043  13.085 -0.2556  0.8742 -0.0591
 6920TIP3    H142175   3.283   4.076  12.998  1.3281 -0.8570 -0.4034
 6920TIP3    H242176   3.314   4.096  13.145 -0.2061  1.0922 -0.2954
 6921TIP3   OH242177   0.101   3.584  14.560 -0.1636 -0.8897 -0.0906
 6921TIP3    H142178   0.088   3.573  14.466  0.6942 -1.0374 -0.1944
 6921TIP3    H242179   0.154   3.509  14.586  2.3286  0.7615 -0.0750
 6922TIP3   OH242180   1.969   5.500   1.642 -0.2829  0.0139  0.4530
 6922TIP3    H142181   1.953   5.579   1.590  1.2981 -0.1191 -0.2719
 6922TIP3    H242182   2.013   5.532   1.721 -0.6923 -0.0295  0.7042
 6923TIP3   OH242183   5.999   1.414  14.521  0.0926  0.3430 -0.8966
 6923TIP3    H142184   5.916   1.432  14.477  0.1078  0.3744 -0.9128
 6923TIP3    H242185   5.999   1.472  14.597 -0.4366 -0.4993 -0.2349
 6924TIP3   OH242186   2.728   2.395   4.560  0.0893 -0.1639  0.5001
 6924TIP3    H142187   2.717   2.410   4.467  0.2552  2.4362  0.8421
 6924TIP3    H242188   2.798   2.329   4.565  1.0178  0.6292 -1.1879
 6925TIP3   OH242189   1.272   0.348  13.224  0.5009  0.3213  0.4228
 6925TIP3    H142190   1.211   0.395  13.168  2.5602  1.8978 -0.6517
 6925TIP3    H242191   1.217   0.306  13.290 -1.9621 -0.8896 -2.2116
 6926TIP3   OH242192   2.993   2.701  11.991 -0.0908  0.3087 -0.4342
 6926TIP3    H142193   2.922   2.668  11.936 -0.6278  0.2996  0.2498
 6926TIP3    H242194   2.996   2.795  11.973 -1.0390  0.5101  0.3542
 6927TIP3   OH242195   0.501   1.156  14.645  0.4928 -0.0554  0.6316
 6927TIP3    H142196   0.584   1.121  14.677  0.9496  0.8446  0.4697
 6927TIP3    H242197   0.466   1.089  14.587  2.0157  0.3027 -0.7688
 6928TIP3   OH242198   3.591   2.289  16.206 -0.3289 -0.0387 -0.4721
 6928TIP3    H142199   3.626   2.377  16.192 -4.1771  1.4874 -1.8095
 6928TIP3    H242200   3.520   2.302  16.270  0.9369 -2.8035  1.7253
 6929TIP3   OH242201   6.639   0.722  12.950 -0.0921  0.1118  0.2470
 6929TIP3    H142202   6.721   0.738  12.905  0.3382 -2.1380  0.1534
 6929TIP3    H242203   6.589   0.664  12.892 -0.7941 -0.3730  1.2887
 6930TIP3   OH242204   1.343   6.571   5.508  0.3259  0.6490 -0.5244
 6930TIP3    H142205   1.370   6.506   5.572  1.4641 -0.0877 -1.6941
 6930TIP3    H242206   1.379   6.654   5.539  1.1054  0.2494 -0.3633
 6931TIP3   OH242207   0.066   3.052  11.728  0.3547  0.2972  0.8388
 6931TIP3    H142208   0.090   3.016  11.642 -0.9488  0.4397  0.3840
 6931TIP3    H242209   0.082   2.981  11.789  0.7075 -0.0203  0.3875
 6932TIP3   OH242210   5.628   2.032   1.627 -0.0737  0.3881  0.2132
 6932TIP3    H142211   5.668   1.946   1.631 -1.5255 -0.3257  0.1928
 6932TIP3    H242212   5.645   2.071   1.713 -1.0354 -0.7141  0.9424
 6933TIP3   OH242213   4.092   6.227  12.648 -0.2194  0.6345  0.3856
 6933TIP3    H142214   4.085   6.137  12.614 -0.1372  1.4602 -1.9646
 6933TIP3    H242215   4.186   6.246  12.647 -0.2893  0.9736  0.2665
 6934TIP3   OH242216   3.959   5.881   2.691  0.3510  0.2236  0.2074
 6934TIP3    H142217   3.928   5.808   2.638  1.9096 -0.5576  0.3194
 6934TIP3    H242218   3.961   5.955   2.631 -0.5426  0.0042 -0.1015
 6935TIP3   OH242219   1.134   0.870   1.088 -0.1106 -0.2849 -0.5255
 6935TIP3    H142220   1.127   0.956   1.128  1.0742 -0.0678 -0.7326
 6935TIP3    H242221   1.052   0.826   1.109 -0.0872  0.3292  0.9197
 6936TIP3   OH242222   3.334   0.599  13.036  0.0372  0.1963  0.4035
 6936TIP3    H142223   3.379   0.567  12.957 -0.8088 -1.2149  0.4552
 6936TIP3    H242224   3.405   0.621  13.096  0.6837 -0.0643 -0.2435
 6937TIP3   OH242225   6.288   2.698  15.102 -0.0496 -0.2517 -0.6676
 6937TIP3    H142226   6.299   2.652  15.186  1.1121 -1.1197 -1.2560
 6937TIP3    H242227   6.224   2.766  15.120  0.7535  0.0871  1.1388
 6938TIP3   OH242228   2.320   0.168   3.270 -0.4264  0.0241 -0.2437
 6938TIP3    H142229   2.285   0.203   3.352 -1.2239 -0.0391 -0.5463
 6938TIP3    H242230   2.386   0.233   3.243  0.1716 -0.1849  0.6645
 6939TIP3   OH242231   1.573   3.778   6.054 -0.8531  0.1795 -0.2933
 6939TIP3    H142232   1.490   3.816   6.084 -0.4153  2.5865 -1.8884
 6939TIP3    H242233   1.564   3.684   6.073 -2.6227  0.7708  2.4499
 6940TIP3   OH242234   1.496   4.464  11.133 -0.6962  0.0571 -0.7161
 6940TIP3    H142235   1.583   4.442  11.169 -0.3289  0.0980 -1.5701
 6940TIP3    H242236   1.459   4.525  11.197 -1.0785 -1.7557  0.8851
 6941TIP3   OH242237   3.365   3.574   0.252 -0.1815 -0.3317  0.3346
 6941TIP3    H142238   3.342   3.517   0.179 -1.1094  0.7986 -0.3028
 6941TIP3    H242239   3.289   3.570   0.310  0.0212 -0.2539  0.6029
 6942TIP3   OH242240   0.754   3.015   2.576 -0.1901 -0.3263 -0.0684
 6942TIP3    H142241   0.812   3.085   2.606  0.0668 -0.4897 -0.1765
 6942TIP3    H242242   0.813   2.941   2.558 -0.2958 -0.1465 -1.2373
 6943TIP3   OH242243   5.154   3.766  13.488 -0.3563  0.6840 -0.4043
 6943TIP3    H142244   5.211   3.708  13.437 -0.0778  0.2606  0.3804
 6943TIP3    H242245   5.202   3.849  13.493  0.2317  0.3115  0.3076
 6944TIP3   OH242246   3.374   6.076  17.194  0.2376  0.3056 -0.0910
 6944TIP3    H142247   3.327   6.154  17.223  1.1697  1.6271 -1.9263
 6944TIP3    H242248   3.431   6.107  17.123  0.5655 -2.0584 -0.9604
 6945TIP3   OH242249   4.390   6.488   4.789 -0.4509  0.1697  0.1935
 6945TIP3    H142250   4.399   6.571   4.743 -0.9996  0.2948  0.2931
 6945TIP3    H242251   4.295   6.478   4.801 -0.4291 -0.7176 -0.2654
 6946TIP3   OH242252   1.210   4.024  11.405 -0.3302  0.4961 -0.1492
 6946TIP3    H142253   1.149   4.023  11.479 -0.6469  2.9277 -0.2962
 6946TIP3    H242254   1.156   4.046  11.329  0.3793  0.5182 -0.6640
 6947TIP3   OH242255   6.180   2.181   4.110  0.0139  0.0602 -0.6138
 6947TIP3    H142256   6.138   2.186   4.024 -0.4055 -0.0481 -0.4168
 6947TIP3    H242257   6.172   2.269   4.145 -0.8236 -0.1608 -0.2190
 6948TIP3   OH242258   6.419   2.234   4.297 -0.4594  0.7329 -0.2180
 6948TIP3    H142259   6.401   2.148   4.258 -1.1955  1.3674 -1.3275
 6948TIP3    H242260   6.454   2.286   4.225 -1.4777  1.8082  0.0371
 6949TIP3   OH242261   2.010   1.264  10.984  0.0380 -0.2266 -0.1463
 6949TIP3    H142262   2.012   1.226  10.896  0.5890 -2.6426  0.8269
 6949TIP3    H242263   2.022   1.358  10.970  0.0735 -0.5295 -2.6287
 6950TIP3   OH242264   1.231   3.922   4.209 -0.2752  0.0058  0.1793
 6950TIP3    H142265   1.309   3.889   4.164 -1.6735 -2.1388 -0.8572
 6950TIP3    H242266   1.205   3.998   4.157  1.6073  1.3763  1.1191
 6951TIP3   OH242267   5.904   3.733  10.442  0.0872 -0.4584 -0.1313
 6951TIP3    H142268   5.816   3.739  10.479  0.0364  0.1867 -0.3373
 6951TIP3    H242269   5.906   3.648  10.398 -0.5886 -0.2851 -0.5175
 6952TIP3   OH242270   3.602   1.589   2.753 -0.0122  0.6052  0.4317
 6952TIP3    H142271   3.677   1.531   2.765 -0.2995 -0.8809 -3.4903
 6952TIP3    H242272   3.527   1.537   2.784  0.1095  0.3048  0.2296
 6953TIP3   OH242273   4.712   5.710  13.519  0.1170 -0.4971  0.7287
 6953TIP3    H142274   4.786   5.709  13.579  0.1787  3.5098  0.9638
 6953TIP3    H242275   4.640   5.748  13.570 -1.4371 -1.9655 -0.2500
 6954TIP3   OH242276   4.357   3.366   0.875  0.0483  0.2097  0.3490
 6954TIP3    H142277   4.354   3.452   0.919 -0.5704  0.7369 -0.6869
 6954TIP3    H242278   4.448   3.358   0.846 -0.0926  0.9214 -0.3157
 6955TIP3   OH242279   5.339   1.677  14.656  0.5394 -0.0548  0.8903
 6955TIP3    H142280   5.246   1.662  14.640  0.7926 -0.8776  0.1237
 6955TIP3    H242281   5.346   1.772  14.670 -0.4156  0.0071  1.0259
 6956TIP3   OH242282   5.777   5.369  12.038  0.2443 -0.0269  0.5280
 6956TIP3    H142283   5.743   5.376  12.127 -2.0794  0.9668 -0.3661
 6956TIP3    H242284   5.701   5.348  11.984  1.2846  0.9436 -1.4299
 6957TIP3   OH242285   3.942   1.894   3.750  0.2132 -0.6511  0.3232
 6957TIP3    H142286   3.881   1.914   3.821  1.8882  0.1118  1.6057
 6957TIP3    H242287   3.919   1.805   3.723 -3.3561  0.5792 -1.2842
 6958TIP3   OH242288   1.390   4.223   1.605 -0.0464 -0.6127  0.0999
 6958TIP3    H142289   1.455   4.290   1.629 -0.6580 -0.0586  0.2446
 6958TIP3    H242290   1.383   4.167   1.682 -2.1611  1.2816  1.4065
 6959TIP3   OH242291   0.349   1.419   2.654  0.6952 -0.1279  0.2863
 6959TIP3    H142292   0.393   1.505   2.660  1.8965 -0.7506  0.9316
 6959TIP3    H242293   0.281   1.423   2.721  2.2806 -0.4758  2.0121
 6960TIP3   OH242294   0.205   0.110   4.788 -0.2881  0.2784  0.4593
 6960TIP3    H142295   0.207   0.099   4.883 -2.3408 -0.4618  0.4645
 6960TIP3    H242296   0.263   0.185   4.772 -0.4838  0.9057  2.3578
 6961TIP3   OH242297   1.053   1.608   5.019 -0.1668 -0.1184 -0.2128
 6961TIP3    H142298   1.057   1.530   4.964  0.2596  1.5941 -2.7323
 6961TIP3    H242299   1.017   1.676   4.963  2.9940  2.4933  0.5959
 6962TIP3   OH242300   5.540   6.363  14.486 -0.2103 -0.0976 -0.3752
 6962TIP3    H142301   5.596   6.300  14.442 -1.5154 -2.1536  0.7495
 6962TIP3    H242302   5.451   6.343  14.454 -0.7992  0.3065  0.9286
 6963TIP3   OH242303   4.779   4.628   5.793 -0.4041  0.3372 -0.2846
 6963TIP3    H142304   4.810   4.549   5.838 -3.3990 -0.3849  0.7357
 6963TIP3    H242305   4.787   4.698   5.858 -2.5403 -0.2424  0.6936
 6964TIP3   OH242306   0.903   0.511  15.949 -0.3756  0.5713  0.1001
 6964TIP3    H142307   0.985   0.554  15.925  0.3607 -1.4519 -1.2800
 6964TIP3    H242308   0.868   0.563  16.021  0.5494  3.2587 -1.2883
 6965TIP3   OH242309   4.112   4.540  12.323  0.2726  0.1696  0.1042
 6965TIP3    H142310   4.173   4.473  12.353  0.7841 -0.2411 -1.7572
 6965TIP3    H242311   4.166   4.604  12.277 -0.3451  1.3541  0.9590
 6966TIP3   OH242312   6.328   1.845  12.247 -0.6375  0.4465 -0.0765
 6966TIP3    H142313   6.335   1.940  12.236  0.0034  0.3808 -0.2655
 6966TIP3    H242314   6.407   1.810  12.205 -0.6349 -0.1396  0.4091
 6967TIP3   OH242315   5.629   0.877   4.281 -0.3800 -0.0202  0.4428
 6967TIP3    H142316   5.579   0.797   4.265  0.5581 -0.6847  0.6911
 6967TIP3    H242317   5.720   0.852   4.262  0.2299  0.3418  2.5683
 6968TIP3   OH242318   0.575   1.366  12.551  0.0539  0.5730 -0.0620
 6968TIP3    H142319   0.638   1.348  12.480 -1.3204 -4.2225 -0.4175
 6968TIP3    H242320   0.628   1.366  12.630  1.0569  1.5566 -0.7010
 6969TIP3   OH242321   4.570   1.436   5.912 -0.2479 -0.2509  0.4788
 6969TIP3    H142322   4.499   1.495   5.938  1.4176  2.0429  0.1259
 6969TIP3    H242323   4.616   1.483   5.842  1.7662 -1.5449  0.8455
 6970TIP3   OH242324   4.005   0.762   5.112 -0.1569  0.2114 -0.6797
 6970TIP3    H142325   3.927   0.816   5.118 -0.3684 -0.1169 -0.4791
 6970TIP3    H242326   3.992   0.692   5.176 -0.2492 -0.5350 -1.4838
 6971TIP3   OH242327   0.948   6.044  14.245 -0.2221 -0.3949  1.1095
 6971TIP3    H142328   0.997   6.124  14.264 -1.7403  1.1912 -1.1955
 6971TIP3    H242329   0.878   6.043  14.310  0.7168 -0.7727  2.1547
 6972TIP3   OH242330   1.683   4.252   0.011  0.3778  0.4973  0.0899
 6972TIP3    H142331   1.766   4.297  -0.002  0.7665  0.8714  3.2433
 6972TIP3    H242332   1.628   4.315   0.056 -0.2808 -0.9834  1.4706
 6973TIP3   OH242333   2.161   0.998   3.123 -0.1360  0.6633  0.1337
 6973TIP3    H142334   2.091   0.937   3.147  0.3403 -0.3562 -0.9527
 6973TIP3    H242335   2.241   0.947   3.133  0.2357  0.9282 -1.3166
 6974TIP3   OH242336   0.828   2.046   5.106  0.0874 -0.0802  0.0232
 6974TIP3    H142337   0.780   2.094   5.174 -0.8878 -1.4192  0.3091
 6974TIP3    H242338   0.761   1.996   5.060  1.1663 -1.8336  0.2870
 6975TIP3   OH242339   6.034   6.235  16.104  0.0376 -0.6392 -0.2213
 6975TIP3    H142340   5.996   6.150  16.081 -0.0753 -0.5996 -0.1814
 6975TIP3    H242341   5.961   6.285  16.141  0.1517 -0.5989 -0.0487
 6976TIP3   OH242342   0.026   3.904   2.236 -0.1765  0.3491  0.0480
 6976TIP3    H142343   0.060   3.916   2.148  2.3166  1.5595  1.0905
 6976TIP3    H242344  -0.014   3.988   2.259 -1.8930 -0.3356 -0.3163
 6977TIP3   OH242345   1.018   0.267   5.486  0.0519  0.5874  0.5367
 6977TIP3    H142346   1.014   0.344   5.542  0.4236  0.3279  0.9255
 6977TIP3    H242347   0.926   0.244   5.470 -0.0650  0.3212  1.5247
 6978TIP3   OH242348   4.032   2.402  16.975  0.0484 -0.5097 -0.1624
 6978TIP3    H142349   3.940   2.420  16.951  0.6255  1.6991 -1.0189
 6978TIP3    H242350   4.078   2.483  16.951  2.4298 -1.9998 -0.8735
 6979TIP3   OH242351   3.843   2.272   4.391  0.0583  0.0241 -0.3023
 6979TIP3    H142352   3.887   2.187   4.386  1.5549  0.8218 -1.6028
 6979TIP3    H242353   3.861   2.303   4.479  1.0282 -0.2478 -0.3938
 6980TIP3   OH242354   2.018   1.308   0.140 -0.3874  0.4633 -0.0891
 6980TIP3    H142355   1.929   1.330   0.169 -0.6692 -1.9921  1.1688
 6980TIP3    H242356   2.022   1.213   0.145  1.9345  0.4228 -1.3724
 6981TIP3   OH242357   4.964   6.553   3.555 -0.1772  0.1786  0.8357
 6981TIP3    H142358   4.940   6.581   3.467  1.7942 -1.3335 -0.2692
 6981TIP3    H242359   4.902   6.598   3.613 -1.5582  1.1700 -1.3031
 6982TIP3   OH242360   2.403   2.776   3.692 -0.0858  0.2766 -0.2438
 6982TIP3    H142361   2.356   2.834   3.751 -1.7659 -1.0644 -0.1782
 6982TIP3    H242362   2.456   2.834   3.637 -1.0253  1.7839  0.3904
 6983TIP3   OH242363   6.401   5.659  11.917  0.2133 -0.3705  0.0047
 6983TIP3    H142364   6.366   5.747  11.930  0.2990 -0.4528  0.8079
 6983TIP3    H242365   6.493   5.674  11.893 -0.0395 -0.2059 -0.8948
 6984TIP3   OH242366   1.932   3.868  12.763  0.0496  0.7170  0.0439
 6984TIP3    H142367   2.001   3.933  12.775 -0.7984  1.8195 -0.8068
 6984TIP3    H242368   1.978   3.784  12.761  1.2629  1.3525  0.3504
 6985TIP3   OH242369   5.642   1.048   6.522 -0.6744  0.1893  0.0670
 6985TIP3    H142370   5.570   1.068   6.581 -1.8560 -0.3127 -1.1331
 6985TIP3    H242371   5.664   1.131   6.480  0.5288  0.6551  1.5365
 6986TIP3   OH242372   5.783   2.324  12.089  0.2685  0.4268  0.6102
 6986TIP3    H142373   5.814   2.236  12.109 -2.4970 -0.8862 -0.2940
 6986TIP3    H242374   5.800   2.335  11.995  0.6893  0.9265  0.7368
 6987TIP3   OH242375   6.025   4.067  14.264  0.1375  0.0715  0.1168
 6987TIP3    H142376   5.967   3.990  14.264 -0.3686  0.4530  0.3472
 6987TIP3    H242377   5.975   4.135  14.308  0.9171  0.2965  0.6745
 6988TIP3   OH242378   6.504   1.769   0.893 -0.1379  0.2347  0.5343
 6988TIP3    H142379   6.508   1.726   0.978  3.1085  1.9679  1.4359
 6988TIP3    H242380   6.511   1.863   0.913  1.7708  0.6423 -1.6070
 6989TIP3   OH242381   2.511   6.543   3.397  0.7385  0.2714  0.0186
 6989TIP3    H142382   2.482   6.624   3.439 -1.5822  0.3005 -1.4712
 6989TIP3    H242383   2.516   6.480   3.469 -2.9995  0.3501  0.5501
 6990TIP3   OH242384   6.078   4.223   4.792 -0.0196  0.3733 -0.4194
 6990TIP3    H142385   6.016   4.201   4.862  0.0665 -0.2378 -0.5305
 6990TIP3    H242386   6.112   4.138   4.763  0.0756  0.6396 -1.0847
 6991TIP3   OH242387   1.594   1.808   4.337  0.5269 -0.2163 -0.1241
 6991TIP3    H142388   1.529   1.865   4.379  0.0074 -0.3909 -0.6853
 6991TIP3    H242389   1.606   1.736   4.399  0.5353  0.0466  0.1886
 6992TIP3   OH242390   2.983   3.165   5.139  0.1997  0.2070  0.0318
 6992TIP3    H142391   3.035   3.149   5.218  0.8290  0.4848 -0.3115
 6992TIP3    H242392   2.945   3.252   5.153 -1.9247 -0.8449  1.2036
 6993TIP3   OH242393   3.164   3.423  13.726  0.1943 -0.6105 -0.4626
 6993TIP3    H142394   3.078   3.449  13.695 -0.0269  0.1921  0.7438
 6993TIP3    H242395   3.147   3.379  13.810  0.9923  0.1664  0.1260
 6994TIP3   OH242396   3.555   0.985  17.221  0.6492  0.3474 -0.2955
 6994TIP3    H142397   3.503   0.905  17.229 -0.9748  1.4649  1.2222
 6994TIP3    H242398   3.558   1.021  17.310  2.0831  1.5259 -0.7732
 6995TIP3   OH242399   6.440   2.647  14.637 -0.4470 -0.2296 -0.1683
 6995TIP3    H142400   6.480   2.563  14.661 -0.5323 -0.6334 -1.3272
 6995TIP3    H242401   6.357   2.648  14.685 -0.2278 -0.6001  0.2237
 6996TIP3   OH242402   2.910   0.355   1.810  0.1561  0.4156  0.9472
 6996TIP3    H142403   2.868   0.424   1.759 -0.1466  0.2483  0.9646
 6996TIP3    H242404   3.003   0.374   1.805  0.1488  0.2730  0.1374
 6997TIP3   OH242405   5.237   0.354  10.669 -0.0152 -0.3183  0.5847
 6997TIP3    H142406   5.176   0.324  10.737  0.7496 -0.8885  1.0395
 6997TIP3    H242407   5.307   0.289  10.670  0.5951  0.3189  0.0605
 6998TIP3   OH242408   0.400   4.497  17.201  0.4114 -0.4396 -0.1412
 6998TIP3    H142409   0.418   4.428  17.137 -2.7086 -1.0021 -0.5634
 6998TIP3    H242410   0.393   4.577  17.148 -0.9170 -0.6901 -0.3693
 6999TIP3   OH242411   1.567   2.933   2.845 -0.5786 -0.3251 -0.5307
 6999TIP3    H142412   1.602   2.965   2.762  0.6331 -0.8811 -0.2507
 6999TIP3    H242413   1.581   2.839   2.843  2.0346 -0.0836  1.4093
 7000TIP3   OH242414   4.878   5.974  15.011  0.2121  0.1231 -0.1078
 7000TIP3    H142415   4.805   6.003  14.955 -0.9145 -0.3249  1.0669
 7000TIP3    H242416   4.888   6.045  15.075  1.4116  0.5809 -0.7895
 7001TIP3   OH242417   1.368   6.207  12.874 -0.0001  0.0702 -0.4200
 7001TIP3    H142418   1.392   6.163  12.792  1.2532 -1.6654  0.7898
 7001TIP3    H242419   1.286   6.253  12.854 -0.0147 -0.7448 -2.4821
 7002TIP3   OH242420   1.951   2.176   2.600 -0.4406 -0.1512 -0.5721
 7002TIP3    H142421   1.925   2.086   2.580 -2.0032  0.2814 -0.5760
 7002TIP3    H242422   1.927   2.189   2.692 -4.6001  1.6532 -1.7006
 7003TIP3   OH242423   6.484   5.947   6.936  0.0188 -0.9299  0.2149
 7003TIP3    H142424   6.555   5.910   6.884 -0.1529 -0.6098 -0.2555
 7003TIP3    H242425   6.421   5.980   6.872 -0.2548 -0.6370  0.6215
 7004TIP3   OH242426   6.419   4.934   1.760 -0.3023 -0.7138  0.3559
 7004TIP3    H142427   6.350   4.881   1.719 -1.0177  0.5036 -0.0793
 7004TIP3    H242428   6.373   4.985   1.827  0.4326 -0.8958  1.0110
 7005TIP3   OH242429   1.541   1.456  14.458  0.1708 -0.1275  0.3056
 7005TIP3    H142430   1.490   1.534  14.484  0.9612  0.0474  1.4210
 7005TIP3    H242431   1.603   1.444  14.530 -0.3724 -2.1968  0.4820
 7006TIP3   OH242432   3.649   6.312  13.602  0.2925 -0.4364 -0.4910
 7006TIP3    H142433   3.599   6.392  13.615  0.1678 -0.6053  0.1033
 7006TIP3    H242434   3.650   6.300  13.507 -0.4513 -0.2146 -0.5349
 7007TIP3   OH242435   5.219   3.956  11.832  0.0594  0.7434 -0.4046
 7007TIP3    H142436   5.223   3.866  11.865  0.1526  0.5781 -0.8630
 7007TIP3    H242437   5.252   4.009  11.904 -1.8739  0.6175  0.6561
 7008TIP3   OH242438   4.268   1.139  14.608 -0.0317 -0.1401  0.1907
 7008TIP3    H142439   4.294   1.178  14.524 -0.4559 -0.7650 -0.2428
 7008TIP3    H242440   4.255   1.047  14.588  0.5410 -0.4307  1.1076
 7009TIP3   OH242441   0.809   0.350  13.266  0.5687  0.0417 -0.2154
 7009TIP3    H142442   0.849   0.264  13.257  0.5678  0.1111 -0.9550
 7009TIP3    H242443   0.752   0.358  13.190 -1.1158 -0.1885  0.9633
 7010TIP3   OH242444   1.950   4.323  10.779 -0.1525 -0.0897 -0.0482
 7010TIP3    H142445   2.003   4.389  10.823 -0.6195  0.8662 -0.8751
 7010TIP3    H242446   2.010   4.281  10.717  0.4126 -1.1930  1.1822
 7011TIP3   OH242447   4.899   1.959  11.906  0.0972  0.9999 -0.1444
 7011TIP3    H142448   4.820   1.904  11.910  1.4891 -1.0655  0.4690
 7011TIP3    H242449   4.939   1.950  11.992  1.9877  0.4492 -1.0217
 7012TIP3   OH242450   6.120   6.659   1.458  0.6137  0.1360  0.2986
 7012TIP3    H142451   6.174   6.609   1.520  2.0150  0.4864 -0.5732
 7012TIP3    H242452   6.034   6.618   1.462  0.7025  0.0506  2.3421
 7013TIP3   OH242453   3.813   6.524   0.595  0.0775 -0.0908  0.3173
 7013TIP3    H142454   3.807   6.498   0.503  0.1810  1.1530 -0.0619
 7013TIP3    H242455   3.777   6.613   0.597 -0.6291 -0.3779  1.6159
 7014TIP3   OH242456   6.706   2.374   5.789 -0.0954  0.3836  0.1326
 7014TIP3    H142457   6.739   2.353   5.876  0.7052 -1.2823 -0.5378
 7014TIP3    H242458   6.660   2.457   5.801 -0.5138 -0.0949  2.2461
 7015TIP3   OH242459   2.984   2.986  14.361 -0.7268  0.3097  0.1725
 7015TIP3    H142460   2.955   2.965  14.273  0.0713  2.9503 -0.8252
 7015TIP3    H242461   3.061   2.931  14.376 -1.3752 -0.7786 -0.3965
 7016TIP3   OH242462   3.975   5.353  13.127  0.5098 -0.2614 -0.7735
 7016TIP3    H142463   3.997   5.275  13.178 -1.1859 -1.9119 -2.3697
 7016TIP3    H242464   3.966   5.423  13.191 -0.3663 -1.9521  1.0297
 7017TIP3   OH242465   4.021   0.482  13.596  0.0463 -0.2493  0.0112
 7017TIP3    H142466   3.930   0.512  13.594  0.2544  0.3830 -0.0039
 7017TIP3    H242467   4.015   0.391  13.626 -0.5562 -0.0714  0.4450
 7018TIP3   OH242468   6.765   5.902   3.794  0.3999 -0.4183 -0.0697
 7018TIP3    H142469   6.676   5.883   3.764  1.1657  0.3209 -3.1756
 7018TIP3    H242470   6.770   5.997   3.795  1.2577 -0.4551 -0.2801
 7019TIP3   OH242471   1.265   4.235  15.725 -0.2749 -0.6484 -0.4694
 7019TIP3    H142472   1.358   4.219  15.741  0.1306  1.2076 -0.7196
 7019TIP3    H242473   1.220   4.179  15.787  1.0005 -1.5644 -0.3177
 7020TIP3   OH242474   1.570   5.758   4.246 -0.4562  0.4531 -0.9957
 7020TIP3    H142475   1.475   5.763   4.236 -0.9461  4.2661  2.7080
 7020TIP3    H242476   1.583   5.689   4.312 -1.2141  2.4818  1.4253
 7021TIP3   OH242477   4.105   0.584   2.311 -0.1448  0.2012 -0.2389
 7021TIP3    H142478   4.070   0.662   2.268  0.0529 -0.0330 -0.8276
 7021TIP3    H242479   4.198   0.601   2.320  0.1634 -0.5813 -1.7200
 7022TIP3   OH242480   0.977   6.197   2.067  0.1418 -0.0251 -0.1016
 7022TIP3    H142481   0.995   6.209   2.161  2.7830  0.3653 -0.5731
 7022TIP3    H242482   1.014   6.275   2.026 -2.6537  0.7607 -1.3955
 7023TIP3   OH242483   3.559   2.047   0.215  0.4130  0.2699 -0.5020
 7023TIP3    H142484   3.647   2.083   0.220  0.5599  0.0235 -1.1945
 7023TIP3    H242485   3.562   1.985   0.142 -0.2707  0.0842 -0.3864
 7024TIP3   OH242486   4.243   4.878  13.610  0.3669 -0.1144 -0.4477
 7024TIP3    H142487   4.259   4.898  13.702  0.9986 -0.0691 -0.5642
 7024TIP3    H242488   4.199   4.793  13.612 -1.0109  0.5808 -0.0348
 7025TIP3   OH242489   1.402   2.864   3.070  0.3732 -0.8019 -0.3773
 7025TIP3    H142490   1.432   2.820   3.150  0.0563  0.2161  0.3220
 7025TIP3    H242491   1.478   2.915   3.041 -0.0736  0.2996  0.3394
 7026TIP3   OH242492   3.959   6.652   0.922  0.3743  0.1577 -0.0508
 7026TIP3    H142493   3.997   6.676   1.007 -1.7813  2.6980  0.2813
 7026TIP3    H242494   3.877   6.608   0.944 -0.2615  0.9430 -0.7870
 7027TIP3   OH242495   4.716   4.662   1.839 -0.1296  0.0470 -0.2074
 7027TIP3    H142496   4.654   4.589   1.834 -0.9704  0.8164 -2.2607
 7027TIP3    H242497   4.801   4.621   1.849 -0.7018 -1.1553 -0.1123
 7028TIP3   OH242498   5.436   4.420  14.645  0.3016  0.6189  0.2771
 7028TIP3    H142499   5.356   4.367  14.642 -0.4953  1.8336 -0.5121
 7028TIP3    H242500   5.469   4.408  14.735 -0.3455 -0.4801  0.3894
 7029TIP3   OH242501   1.126   3.221   2.389  0.3510 -0.3020 -0.4087
 7029TIP3    H142502   1.212   3.212   2.431  0.0374  0.3350  0.4026
 7029TIP3    H242503   1.144   3.214   2.295  1.1762 -1.0002 -0.2067
 7030TIP3   OH242504   0.360   5.351   0.813 -0.2581  0.3131 -0.2174
 7030TIP3    H142505   0.432   5.298   0.779 -0.4019  0.4220 -0.6981
 7030TIP3    H242506   0.396   5.390   0.893  0.4005  0.7626 -0.7142
 7031TIP3   OH242507   4.867   4.257   1.968 -0.3877  0.7058  0.5291
 7031TIP3    H142508   4.938   4.322   1.977 -1.3601  1.6805  1.4571
 7031TIP3    H242509   4.820   4.261   2.051 -0.7860 -0.8580  0.4093
 7032TIP3   OH242510   6.745   1.740  15.526 -0.3499  0.0674  0.9201
 7032TIP3    H142511   6.822   1.691  15.555  1.3466  1.5397 -0.8177
 7032TIP3    H242512   6.769   1.773  15.439 -3.5354 -0.6284 -0.3438
 7033TIP3   OH242513   2.174   5.293   5.175 -0.1889 -0.0509  0.0056
 7033TIP3    H142514   2.100   5.271   5.118 -0.0412 -0.3462 -0.0727
 7033TIP3    H242515   2.251   5.261   5.129  0.3784  2.9355 -1.3872
 7034TIP3   OH242516   4.463   0.337  15.262  0.1348 -0.2741  0.4098
 7034TIP3    H142517   4.374   0.372  15.254 -0.2195 -1.3490 -0.6346
 7034TIP3    H242518   4.455   0.262  15.320  0.3559 -0.3848  0.2995
 7035TIP3   OH242519   0.580   2.116   6.198 -0.2243  0.8307 -0.5882
 7035TIP3    H142520   0.541   2.028   6.203  1.2527  0.1468 -0.7425
 7035TIP3    H242521   0.615   2.121   6.109 -2.2810  2.4847 -1.4000
 7036TIP3   OH242522   6.523   0.116  13.999 -0.2007 -0.6926 -0.1106
 7036TIP3    H142523   6.590   0.182  14.012  0.3404 -0.9972 -1.2671
 7036TIP3    H242524   6.479   0.142  13.918 -0.8749 -1.0161  0.1395
 7037TIP3   OH242525   4.403   6.484  11.137 -0.1870  0.0214 -0.3462
 7037TIP3    H142526   4.453   6.558  11.103 -1.0515 -0.2091 -2.2595
 7037TIP3    H242527   4.404   6.420  11.066 -2.8705 -0.1283 -0.3803
 7038TIP3   OH242528   6.335   6.233   1.434 -0.9896  0.1645 -0.0464
 7038TIP3    H142529   6.357   6.235   1.340 -1.3503  0.3648 -0.1266
 7038TIP3    H242530   6.272   6.161   1.442  0.1452 -0.8283  0.2877
 7039TIP3   OH242531   0.786   3.815  14.340  0.0045 -0.1122  1.1009
 7039TIP3    H142532   0.863   3.759  14.352 -0.3832 -0.8057  0.3968
 7039TIP3    H242533   0.822   3.904  14.332  0.7706 -0.4706  0.4285
 7040TIP3   OH242534   3.215   3.022  11.310 -0.1728  0.4704 -0.2572
 7040TIP3    H142535   3.232   3.023  11.216  0.0393  0.7218 -0.2164
 7040TIP3    H242536   3.269   2.950  11.343  0.0713  0.6454 -0.2702
 7041TIP3   OH242537   1.676   5.270   3.338  0.5121  0.8975 -0.7046
 7041TIP3    H142538   1.747   5.324   3.304  0.2139  2.7902  1.3578
 7041TIP3    H242539   1.703   5.248   3.427 -0.3480 -0.5619 -0.7792
 7042TIP3   OH242540   6.643   4.264  15.415 -0.5908  0.1649 -0.4193
 7042TIP3    H142541   6.601   4.205  15.477  0.1963  0.3823  0.3375
 7042TIP3    H242542   6.570   4.311  15.374 -1.1063  0.3928  0.7223
 7043TIP3   OH242543   2.523   5.758  14.032  0.3075 -0.2477 -0.8053
 7043TIP3    H142544   2.435   5.797  14.040  0.6542  0.5188 -0.6243
 7043TIP3    H242545   2.514   5.672  14.073 -0.1518  0.1683 -0.0036
 7044TIP3   OH242546   0.334   2.756  12.519 -0.0211  0.6205  1.1134
 7044TIP3    H142547   0.242   2.769  12.540 -0.7236 -1.0672 -0.6309
 7044TIP3    H242548   0.364   2.692  12.584 -0.8633 -0.9268  0.0286
 7045TIP3   OH242549   4.512   2.506   3.185 -0.3534  0.0800  0.1435
 7045TIP3    H142550   4.504   2.531   3.277  0.5177  0.1904  0.1914
 7045TIP3    H242551   4.605   2.491   3.172  0.2073  4.0260 -1.7359
 7046TIP3   OH242552   3.354   6.566  16.060  0.1526  0.3736 -0.0229
 7046TIP3    H142553   3.438   6.531  16.090  0.1960 -1.6713 -2.1911
 7046TIP3    H242554   3.371   6.592  15.969 -0.7314  3.2551  0.5496
 7047TIP3   OH242555   0.391   6.138   3.362 -0.5290 -0.4106 -0.0269
 7047TIP3    H142556   0.328   6.187   3.309 -0.0553  0.9504  0.6256
 7047TIP3    H242557   0.380   6.047   3.334 -1.8728 -0.0303 -0.8297
 7048TIP3   OH242558   1.456   6.558   2.594  0.2466 -0.5575  0.0244
 7048TIP3    H142559   1.549   6.541   2.575  0.6287  2.1532 -0.9879
 7048TIP3    H242560   1.418   6.580   2.509 -0.9858 -0.2020  0.6498
 7049TIP3   OH242561   2.665   3.470  12.572  0.2012  0.6685 -0.5161
 7049TIP3    H142562   2.664   3.429  12.486 -1.2694 -3.4970  1.2679
 7049TIP3    H242563   2.747   3.440  12.612 -0.7628 -0.3795  0.7360
 7050TIP3   OH242564   6.729   3.560  12.638  0.2842 -0.2526 -0.3540
 7050TIP3    H142565   6.744   3.652  12.657  0.2161 -0.3666  0.2587
 7050TIP3    H242566   6.648   3.539  12.684  1.5784 -1.2434  1.5667
 7051TIP3   OH242567   5.447   0.316   0.733  0.2688  0.4994  0.4550
 7051TIP3    H142568   5.425   0.335   0.824 -0.4287  3.3222 -0.2106
 7051TIP3    H242569   5.414   0.391   0.684  1.1487 -0.6526 -2.0747
 7052TIP3   OH242570   3.672   0.396   2.350  0.0840  0.3738  0.2784
 7052TIP3    H142571   3.757   0.438   2.360 -0.0670  0.4942  1.0858
 7052TIP3    H242572   3.617   0.463   2.308 -0.1448  0.9869  1.5290
 7053TIP3   OH242573   4.117   0.034  17.139 -0.4656 -0.0848 -0.0625
 7053TIP3    H142574   4.129   0.060  17.048  4.1999 -1.3844 -0.0697
 7053TIP3    H242575   4.059  -0.042  17.135 -1.1620  0.4803 -1.7682
 7054TIP3   OH242576   0.557   4.757  16.774  0.6380 -0.0922 -0.5978
 7054TIP3    H142577   0.636   4.715  16.741  1.1792  0.3321  0.1290
 7054TIP3    H242578   0.509   4.782  16.696  1.2241 -0.3605 -1.0501
 7055TIP3   OH242579   1.998   2.033  15.587 -0.5044 -0.0443  0.0093
 7055TIP3    H142580   1.931   2.069  15.645 -1.5900 -0.1082 -1.1468
 7055TIP3    H242581   2.033   2.109  15.541 -1.3769 -0.2084 -0.9769
 7056TIP3   OH242582   2.350   1.264  17.336  0.4524 -0.4916  0.1314
 7056TIP3    H142583   2.290   1.299  17.271 -0.0783 -2.1380 -0.3072
 7056TIP3    H242584   2.346   1.326  17.409  0.7017  1.1389 -1.1735
 7057TIP3   OH242585   2.702   3.181  13.117  0.1444 -0.4045 -0.1595
 7057TIP3    H142586   2.747   3.214  13.195 -0.4689 -0.1192  0.0875
 7057TIP3    H242587   2.675   3.261  13.070 -1.3842 -0.5154  0.4577
 7058TIP3   OH242588   6.258   5.501   3.304 -0.1175 -0.1379 -1.0014
 7058TIP3    H142589   6.296   5.540   3.226  1.2995  0.0746 -0.2245
 7058TIP3    H242590   6.310   5.423   3.320 -1.4176 -1.0835 -1.1638
 7059TIP3   OH242591   3.200   5.037   4.606  0.7596 -0.8228  0.1598
 7059TIP3    H142592   3.209   5.072   4.695  1.4033  2.7438 -1.1475
 7059TIP3    H242593   3.111   5.059   4.580  1.6588  1.5216 -1.2481
 7060TIP3   OH242594   0.375   1.655   3.204 -0.3644  0.0952 -0.0102
 7060TIP3    H142595   0.408   1.566   3.213  0.9903  0.4646 -0.9700
 7060TIP3    H242596   0.351   1.662   3.111 -0.9224  0.5803  0.1655
 7061TIP3   OH242597   4.426   5.558  12.146 -0.1080 -0.2926 -0.4480
 7061TIP3    H142598   4.463   5.556  12.235  0.7925 -0.4790 -0.8124
 7061TIP3    H242599   4.493   5.515  12.092 -1.2356 -1.3811 -1.0117
 7062TIP3   OH242600   3.773   2.538  12.817  0.2930  0.2789 -0.2250
 7062TIP3    H142601   3.754   2.448  12.790 -1.1582  0.2372  0.8095
 7062TIP3    H242602   3.822   2.576  12.744 -0.3941 -0.8807 -1.3211
 7063TIP3   OH242603   0.890   3.278  10.843 -0.1005 -0.4901  0.0125
 7063TIP3    H142604   0.958   3.340  10.870 -0.3843  0.8306 -2.0311
 7063TIP3    H242605   0.924   3.192  10.866  0.7130  0.3481  2.1480
 7064TIP3   OH242606   4.935   1.637  16.245 -0.4976 -0.3486  0.0333
 7064TIP3    H142607   4.890   1.712  16.205 -0.5484  0.7628  2.0499
 7064TIP3    H242608   4.925   1.566  16.181 -2.3996  0.7371 -0.9608
 7065TIP3   OH242609   3.570   3.884  13.152 -0.1170  0.2340  0.0612
 7065TIP3    H142610   3.590   3.963  13.202 -1.1893  0.3463  0.3280
 7065TIP3    H242611   3.566   3.914  13.061  0.5837  0.2640  0.0310
 7066TIP3   OH242612   1.699   3.477   3.242  0.0779  0.4608  0.2890
 7066TIP3    H142613   1.658   3.561   3.224 -2.2387 -0.3970  1.0867
 7066TIP3    H242614   1.702   3.432   3.158 -1.0724  0.3951  0.2689
 7067TIP3   OH242615   5.789   3.007   3.266 -0.6226 -0.4151  0.3945
 7067TIP3    H142616   5.865   3.035   3.214 -1.4860  1.9630  0.2920
 7067TIP3    H242617   5.729   2.968   3.202 -0.2838 -0.5939  0.1815
 7068TIP3   OH242618   0.796   4.924   3.019  0.0662  0.2059  0.0115
 7068TIP3    H142619   0.709   4.965   3.024  0.2978  1.1895 -2.5203
 7068TIP3    H242620   0.782   4.835   3.050 -1.8686  0.3427 -0.3150
 7069TIP3   OH242621   2.452   5.513  14.099  0.7804 -0.4035  0.1553
 7069TIP3    H142622   2.357   5.511  14.093  0.7277  0.1724  0.7928
 7069TIP3    H242623   2.476   5.425  14.127  0.4312 -0.5195  0.0971
 7070TIP3   OH242624   1.932   3.016  11.454  0.2796  0.0219 -0.3984
 7070TIP3    H142625   1.938   3.057  11.541  0.6332 -2.9473  1.1214
 7070TIP3    H242626   1.838   3.012  11.436  0.0715 -1.0636  0.8047
 7071TIP3   OH242627   5.633   5.336  15.189  0.5560  0.1402  0.0497
 7071TIP3    H142628   5.718   5.299  15.165  1.0808  2.5253 -2.2367
 7071TIP3    H242629   5.654   5.402  15.255  0.0132 -1.2823  1.7357
 7072TIP3   OH242630   1.207   0.120   6.397 -0.1617 -0.6486 -0.2528
 7072TIP3    H142631   1.140   0.071   6.349  0.1845  0.3896 -1.8700
 7072TIP3    H242632   1.256   0.054   6.445  0.0351 -1.8683 -2.0533
 7073TIP3   OH242633   0.041   3.567  11.259 -0.5878 -0.0730 -0.0060
 7073TIP3    H142634   0.015   3.637  11.319  0.2505  1.2740 -1.1708
 7073TIP3    H242635   0.118   3.528  11.301 -1.0349 -0.2871  0.6309
 7074TIP3   OH242636   5.766   3.029   0.395  0.3046  0.0014 -0.0108
 7074TIP3    H142637   5.680   3.000   0.365  0.3243 -0.2477  0.1737
 7074TIP3    H242638   5.751   3.058   0.485  0.1532  1.1717 -0.3913
 7075TIP3   OH242639   6.362   1.537  12.180  0.0685  0.5229 -0.3449
 7075TIP3    H142640   6.410   1.458  12.158  2.1028  0.3488  3.7412
 7075TIP3    H242641   6.406   1.606  12.131  2.3290 -0.1438  0.6188
 7076TIP3   OH242642   2.735   1.184   3.108 -0.0592  0.3550 -0.2234
 7076TIP3    H142643   2.810   1.194   3.049  1.0196  0.1173  1.0522
 7076TIP3    H242644   2.672   1.132   3.058  1.2841 -0.8130 -0.7783
 7077TIP3   OH242645   4.849   6.448  12.420 -0.3448  0.2356  0.4099
 7077TIP3    H142646   4.928   6.421  12.467  0.7519  0.3922 -1.2449
 7077TIP3    H242647   4.826   6.533  12.457 -2.0313 -1.4326  3.5378
 7078TIP3   OH242648   6.559   0.556  12.317 -0.1153 -0.4408 -0.2455
 7078TIP3    H142649   6.514   0.594  12.242 -1.0092  0.5950  0.7740
 7078TIP3    H242650   6.500   0.486  12.346 -0.8531  0.5492  0.7463
 7079TIP3   OH242651   1.030   5.598   2.782  0.1987 -0.7512 -0.5480
 7079TIP3    H142652   1.105   5.539   2.780  1.1598  0.4072 -0.2459
 7079TIP3    H242653   0.987   5.580   2.866  0.2948 -1.2393 -0.6027
 7080TIP3   OH242654   2.785   3.702   1.968 -0.0317  0.6321 -0.2436
 7080TIP3    H142655   2.761   3.669   1.881 -0.2908  0.0345  0.0513
 7080TIP3    H242656   2.707   3.750   1.998  0.0322  0.7770 -0.3057
 7081TIP3   OH242657   3.124   1.038  15.154 -0.1045  0.0628 -0.6858
 7081TIP3    H142658   3.191   1.016  15.219  0.5951 -0.7085 -1.6408
 7081TIP3    H242659   3.171   1.042  15.071 -1.0840  0.4515 -1.2441
 7082TIP3   OH242660   4.490   2.174   3.760 -0.4080 -0.0625  0.1999
 7082TIP3    H142661   4.514   2.210   3.675  0.6073 -0.9365  0.0939
 7082TIP3    H242662   4.537   2.228   3.823  0.4114 -0.6339  0.0896
 7083TIP3   OH242663   2.050   1.309   5.857 -0.0620  0.6233 -0.4951
 7083TIP3    H142664   2.040   1.255   5.779 -1.1745  0.0146  0.0579
 7083TIP3    H242665   2.088   1.391   5.824 -0.6718  0.4481 -1.6915
 7084TIP3   OH242666   5.557   1.780  16.540  0.0083  0.1406  0.2939
 7084TIP3    H142667   5.490   1.842  16.568  0.2646  0.1498  0.9084
 7084TIP3    H242668   5.628   1.835  16.506 -0.0805  0.1506  0.1223
 7085TIP3   OH242669   5.675   6.298   6.220 -0.6888  0.0757  0.1452
 7085TIP3    H142670   5.697   6.232   6.286  2.4597 -0.0959 -0.9494
 7085TIP3    H242671   5.695   6.381   6.262  2.8043 -0.0890 -0.9436
 7086TIP3   OH242672   4.373   4.366   3.761  0.6308  0.2735 -0.0757
 7086TIP3    H142673   4.454   4.345   3.716  0.4146 -1.8828  0.4262
 7086TIP3    H242674   4.317   4.290   3.746 -0.6060  0.8942  1.1536
 7087TIP3   OH242675   1.445   2.492  15.295 -0.2210  0.0915 -0.0847
 7087TIP3    H142676   1.522   2.452  15.255  1.7787  1.4767  2.0819
 7087TIP3    H242677   1.475   2.579  15.324 -3.0841  1.3572 -0.5604
 7088TIP3   OH242678   6.025   4.871   5.493  0.2140 -0.7503 -0.0247
 7088TIP3    H142679   6.030   4.780   5.463 -1.8596 -0.7403 -0.5096
 7088TIP3    H242680   5.935   4.898   5.474  0.8307  1.4755 -0.0639
 7089TIP3   OH242681   0.957   0.123   0.147  0.2804  0.4927  0.3796
 7089TIP3    H142682   0.961   0.133   0.052 -0.6358  0.1022  0.2945
 7089TIP3    H242683   1.030   0.176   0.179 -0.9244  2.7359 -0.3728
 7090TIP3   OH242684   5.679   1.654  15.517  0.4223 -0.1292 -0.1459
 7090TIP3    H142685   5.746   1.675  15.452  0.3334 -1.4846 -0.7301
 7090TIP3    H242686   5.718   1.583  15.569  0.3010  0.6092  0.9907
 7091TIP3   OH242687   0.922   0.141   1.989  0.3675 -0.0313 -0.4060
 7091TIP3    H142688   0.927   0.064   1.932  1.5105 -0.4819  0.2782
 7091TIP3    H242689   1.011   0.155   2.019 -0.0156  0.9169  0.3428
 7092TIP3   OH242690   3.635   3.953  16.214  0.0413 -0.1906  0.6787
 7092TIP3    H142691   3.618   3.931  16.123  0.8516 -0.4335  0.5791
 7092TIP3    H242692   3.695   4.028  16.210  1.3249 -1.1522  0.9806
 7093TIP3   OH242693   1.717   2.943   3.897 -0.2415  0.8431 -0.1115
 7093TIP3    H142694   1.660   2.880   3.941  0.1678 -0.2301 -1.0659
 7093TIP3    H242695   1.732   2.905   3.811 -1.4085  3.0891 -1.4055
 7094TIP3   OH242696   6.484   0.589  14.684  0.3093  0.2769 -0.3597
 7094TIP3    H142697   6.499   0.674  14.643  0.2118  1.5047  1.9896
 7094TIP3    H242698   6.393   0.569  14.663  0.3614  0.6921 -1.0258
 7095TIP3   OH242699   3.866   5.853   3.103  0.6417  0.0567  0.2499
 7095TIP3    H142700   3.810   5.907   3.047 -0.0847  0.2977  1.1834
 7095TIP3    H242701   3.940   5.829   3.047 -0.8049 -1.0268 -1.3395
 7096TIP3   OH242702   6.715   4.103   3.739 -0.1765  0.2777  0.0165
 7096TIP3    H142703   6.740   4.169   3.675  0.0978  1.2271  1.0815
 7096TIP3    H242704   6.796   4.057   3.759 -0.0152  0.8121  0.6080
 7097TIP3   OH242705   4.804   3.300  17.264  0.0037 -0.3242  0.0381
 7097TIP3    H142706   4.854   3.380  17.248 -0.0741 -0.2828  0.0003
 7097TIP3    H242707   4.818   3.281  17.356 -2.3198  1.3785  0.8627
 7098TIP3   OH242708   5.377   1.114  14.261  0.0891  0.1021  0.1121
 7098TIP3    H142709   5.414   1.090  14.176 -0.4586 -2.2858  0.4524
 7098TIP3    H242710   5.373   1.031  14.309 -2.6748  0.7707  1.2428
 7099TIP3   OH242711   0.491   4.681  16.325  0.4529  0.8509  0.2069
 7099TIP3    H142712   0.565   4.628  16.352  0.0032  0.4473  0.6422
 7099TIP3    H242713   0.423   4.618  16.300 -0.2224  1.2092  1.1048
 7100TIP3   OH242714   4.411   4.706  11.141  0.3575 -0.0419  0.2060
 7100TIP3    H142715   4.449   4.621  11.164  1.2867  0.9035  2.5982
 7100TIP3    H242716   4.431   4.718  11.049 -3.0859 -3.9656 -1.3508
 7101TIP3   OH242717   1.424   5.767   1.960 -0.1387  0.1334  0.8826
 7101TIP3    H142718   1.434   5.830   1.888 -0.2467 -1.5806 -0.7255
 7101TIP3    H242719   1.331   5.773   1.985  0.3962  2.4654  2.6436
 7102TIP3   OH242720   6.111   3.908  15.509  0.2709 -0.0707  0.2732
 7102TIP3    H142721   6.193   3.914  15.460  0.0765 -1.6265 -0.2919
 7102TIP3    H242722   6.087   3.999  15.525  1.5326  0.4389 -0.5074
 7103TIP3   OH242723   0.135   0.619  16.427  0.0877 -0.7447 -0.3561
 7103TIP3    H142724   0.097   0.654  16.508 -0.0546 -1.3381 -0.1625
 7103TIP3    H242725   0.204   0.681  16.404  0.5108 -0.8757  0.5322
 7104TIP3   OH242726   3.133   5.218   3.147 -0.1940  0.3920 -0.2661
 7104TIP3    H142727   3.126   5.125   3.125 -0.2767  0.5330 -0.8395
 7104TIP3    H242728   3.046   5.243   3.177 -0.4924  0.5763 -1.2660
 7105TIP3   OH242729   3.869   1.272  16.034 -0.2610 -0.1552 -0.5414
 7105TIP3    H142730   3.902   1.350  15.990 -1.6376  1.1721  0.6970
 7105TIP3    H242731   3.859   1.297  16.126 -0.0437 -2.0187  0.0422
 7106TIP3   OH242732   3.582   4.525   5.794  0.2711  0.5301 -0.0941
 7106TIP3    H142733   3.634   4.496   5.718 -0.6228 -0.7113 -0.2641
 7106TIP3    H242734   3.647   4.542   5.862  1.0314  0.8346 -0.8680
 7107TIP3   OH242735   6.044   2.195   5.583  0.2013 -0.0692  0.0577
 7107TIP3    H142736   6.015   2.107   5.556 -0.7179  0.1860  0.1920
 7107TIP3    H242737   5.968   2.233   5.626  0.6525  0.7347  0.1547
 7108TIP3   OH242738   1.282   0.484  13.786  0.0962 -0.8008  0.0182
 7108TIP3    H142739   1.195   0.516  13.760  0.6511  0.4102 -0.4436
 7108TIP3    H242740   1.277   0.389  13.777 -0.6499 -0.6313 -1.7048
 7109TIP3   OH242741   4.003   4.233   4.170  0.7323  0.0631 -0.0118
 7109TIP3    H142742   4.018   4.139   4.159 -0.7338 -0.3446  1.0454
 7109TIP3    H242743   4.021   4.249   4.263  1.6708  0.9907 -0.3356
 7110TIP3   OH242744   4.317   3.884   1.507 -0.0909  0.3150 -0.1775
 7110TIP3    H142745   4.284   3.800   1.473 -0.3956 -0.1970  1.3334
 7110TIP3    H242746   4.411   3.881   1.489  0.5684 -1.9162  2.8008
 7111TIP3   OH242747   0.721   0.751   4.066  0.2625  0.3091  0.5057
 7111TIP3    H142748   0.694   0.744   4.158 -0.3412 -1.4132  0.2410
 7111TIP3    H242749   0.641   0.771   4.018 -0.1257 -2.1049  0.0235
 7112TIP3   OH242750   3.550   1.973  12.829 -0.2272  0.3168 -0.3061
 7112TIP3    H142751   3.535   2.056  12.875 -2.2392 -1.1876  1.9660
 7112TIP3    H242752   3.497   1.979  12.750 -2.8999  0.1014  1.3618
 7113TIP3   OH242753   3.594   1.320  11.265 -0.3814  0.4153 -0.0188
 7113TIP3    H142754   3.662   1.334  11.199  0.1970  0.3504  0.5469
 7113TIP3    H242755   3.604   1.229  11.291 -0.8746  0.3267 -0.1375
 7114TIP3   OH242756   5.592   3.162  10.931 -0.6523  0.2911  0.6907
 7114TIP3    H142757   5.668   3.218  10.918 -0.6339  0.1562  0.1767
 7114TIP3    H242758   5.625   3.088  10.982 -1.1529  1.7958  3.3811
 7115TIP3   OH242759   1.620   2.457   1.079  0.3158 -0.4971  0.2431
 7115TIP3    H142760   1.565   2.493   1.010  0.1876  0.2025  0.6977
 7115TIP3    H242761   1.704   2.441   1.036  0.1692 -0.2738 -0.1341
 7116TIP3   OH242762   6.390   2.240  11.433  0.3174  0.5201  0.5434
 7116TIP3    H142763   6.303   2.225  11.470  0.2766  0.5198  0.4484
 7116TIP3    H242764   6.383   2.326  11.391  0.4844  0.7026  0.8896
 7117TIP3   OH242765   2.536   0.328   5.013  0.7519 -0.2454 -0.2837
 7117TIP3    H142766   2.446   0.337   4.982  1.1538 -1.4034 -1.9161
 7117TIP3    H242767   2.547   0.234   5.029  1.4187 -0.0067  0.7568
 7118TIP3   OH242768   3.445   6.289   2.360  0.1362 -0.0030  0.5250
 7118TIP3    H142769   3.385   6.350   2.318  0.7169  0.2438  0.0456
 7118TIP3    H242770   3.422   6.203   2.323  0.5878  0.2013 -0.2511
 7119TIP3   OH242771   1.933   0.055   3.715  0.0672  0.0346 -0.4334
 7119TIP3    H142772   1.846   0.053   3.675 -0.0041 -0.7830 -0.2531
 7119TIP3    H242773   1.960   0.146   3.709 -1.0447  0.4097  0.0141
 7120TIP3   OH242774   6.221   4.217  15.009  0.1579  0.4843 -0.0612
 7120TIP3    H142775   6.191   4.233  14.919 -2.6695  1.1279  0.8935
 7120TIP3    H242776   6.223   4.122  15.017  0.2157  0.4219 -0.7289
 7121TIP3   OH242777   3.185   1.042  16.278 -0.5020  0.4824 -0.1054
 7121TIP3    H142778   3.188   0.998  16.193  0.6282  1.4774 -0.6116
 7121TIP3    H242779   3.230   0.983  16.338  1.8414  1.2979 -0.9758
 7122TIP3   OH242780   3.061   5.561  14.680 -0.3968  0.1910  0.1181
 7122TIP3    H142781   3.017   5.586  14.599  1.0465 -0.1464 -0.8122
 7122TIP3    H242782   3.114   5.638  14.703 -0.7485  0.2621  0.7229
 7123TIP3   OH242783   3.354   6.087   6.283 -0.2382  0.8108 -0.4305
 7123TIP3    H142784   3.263   6.088   6.253 -0.1279 -0.0318 -0.8087
 7123TIP3    H242785   3.363   6.168   6.333 -1.3450  0.6521  0.0500
 7124TIP3   OH242786   3.597   3.490   3.928 -0.4076  0.2308  0.2841
 7124TIP3    H142787   3.618   3.475   4.021  2.9137 -3.2858 -0.7496
 7124TIP3    H242788   3.547   3.412   3.903  1.3289 -0.4114 -1.4225
 7125TIP3   OH242789   5.044   0.915  11.372 -0.4026  0.2105  0.5797
 7125TIP3    H142790   5.114   0.868  11.326 -0.7490  0.2740 -0.0294
 7125TIP3    H242791   5.089   0.970  11.435  0.0915  0.1633  0.2750
 7126TIP3   OH242792   3.335   5.757  16.319 -0.3136  0.3084 -0.4052
 7126TIP3    H142793   3.324   5.702  16.397 -0.1256  0.0033 -0.5886
 7126TIP3    H242794   3.332   5.846  16.351  2.8937  0.2422  0.4485
 7127TIP3   OH242795   4.666   2.705  11.745 -0.1761  0.4714 -0.1902
 7127TIP3    H142796   4.760   2.689  11.744 -0.2627 -0.0623 -0.0890
 7127TIP3    H242797   4.641   2.709  11.652 -0.4673 -1.9505 -0.2606
 7128TIP3   OH242798   0.866   3.050  15.227  0.4279 -0.4136 -0.2681
 7128TIP3    H142799   0.860   3.031  15.134 -0.0688 -3.3546  0.2650
 7128TIP3    H242800   0.942   3.000  15.258 -0.7232 -1.3288  1.2470
 7129TIP3   OH242801   4.808   5.728   2.415  0.2797 -0.4971  0.4174
 7129TIP3    H142802   4.800   5.780   2.495 -0.3262 -0.5535  0.3954
 7129TIP3    H242803   4.903   5.715   2.405  0.3384 -0.8597  1.3636
 7130TIP3   OH242804   5.831   4.430  16.693  0.4384  0.2000  0.3968
 7130TIP3    H142805   5.853   4.427  16.600 -1.6603 -1.2307 -0.1335
 7130TIP3    H242806   5.742   4.465  16.696 -0.2431 -1.4588  1.6618
 7131TIP3   OH242807   5.406   3.323  15.493  0.0176 -0.3671  0.5148
 7131TIP3    H142808   5.407   3.324  15.397 -1.0575  1.0211  0.4949
 7131TIP3    H242809   5.440   3.408  15.518 -2.3546  0.4269  1.2922
 7132TIP3   OH242810   3.849   0.119  12.152 -0.1579  0.4161  0.1212
 7132TIP3    H142811   3.853   0.065  12.073  0.4558 -0.0852  0.4897
 7132TIP3    H242812   3.762   0.158  12.149 -0.3948 -0.1304 -0.4605
 7133TIP3   OH242813   0.216   2.103   1.530  0.3285  0.3347 -0.4007
 7133TIP3    H142814   0.210   2.176   1.592  0.0458 -1.3045  1.6083
 7133TIP3    H242815   0.138   2.111   1.475  0.7541  2.0167 -0.8078
 7134TIP3   OH242816   2.507   6.410   3.083  0.5460 -0.1227  0.0593
 7134TIP3    H142817   2.447   6.480   3.056 -1.8261 -1.9519  0.1978
 7134TIP3    H242818   2.528   6.430   3.174  2.2321  1.8677 -0.6966
 7135TIP3   OH242819   4.314   4.773   6.084 -0.0462 -0.3484 -0.0807
 7135TIP3    H142820   4.254   4.820   6.141 -0.5072 -1.2521  0.1947
 7135TIP3    H242821   4.277   4.685   6.076  2.0170 -1.4525  1.3784
 7136TIP3   OH242822   0.598   3.411  17.318  0.3710 -0.5761  0.5431
 7136TIP3    H142823   0.642   3.338  17.275  1.9116  0.9866 -0.7032
 7136TIP3    H242824   0.514   3.419  17.273  1.5528  0.4105 -1.6351
 7137TIP3   OH242825   1.170   1.953   4.169 -0.2102  0.0270  0.0379
 7137TIP3    H142826   1.195   2.044   4.153 -1.5979  0.4175 -0.0609
 7137TIP3    H242827   1.076   1.951   4.152 -0.7583 -0.7929  2.7042
 7138TIP3   OH242828   4.545   3.432  11.820 -0.1438  0.1513  0.2582
 7138TIP3    H142829   4.466   3.485  11.828 -0.3039  0.0057 -0.3192
 7138TIP3    H242830   4.616   3.496  11.821 -0.3365  0.3836 -0.4182
 7139TIP3   OH242831   2.069   3.166  12.801 -0.2287 -0.1679  0.3494
 7139TIP3    H142832   2.126   3.092  12.823 -0.7142 -1.1018 -1.3426
 7139TIP3    H242833   1.981   3.137  12.828 -0.3746 -0.0629 -0.0169
 7140TIP3   OH242834   3.046   5.434   0.047 -0.4009  0.3655  0.3366
 7140TIP3    H142835   3.052   5.383  -0.033  0.7630 -0.8265  1.1351
 7140TIP3    H242836   3.039   5.525   0.018 -2.8291 -0.1970 -1.1472
 7141TIP3   OH242837   3.946   2.145  13.634  0.3075 -0.3105 -0.0539
 7141TIP3    H142838   3.927   2.107  13.548 -3.0169 -1.2168  0.8946
 7141TIP3    H242839   3.940   2.070  13.694 -2.1136  0.9177  1.3898
 7142TIP3   OH242840   5.394   0.574   0.636 -0.3952  0.6061 -0.1721
 7142TIP3    H142841   5.454   0.600   0.706  0.7768  0.1323 -0.9855
 7142TIP3    H242842   5.430   0.613   0.557 -1.2141  0.3739 -0.6734
 7143TIP3   OH242843   5.628   3.061   1.982  0.5713 -0.0212 -0.1539
 7143TIP3    H142844   5.718   3.038   2.005  0.2978 -1.0244 -0.0085
 7143TIP3    H242845   5.635   3.144   1.935  1.4535  0.5271  0.8972
 7144TIP3   OH242846   4.154   5.013   1.053 -0.5794  0.0897 -0.2745
 7144TIP3    H142847   4.174   4.957   0.978 -0.3455 -1.5059  0.9248
 7144TIP3    H242848   4.125   5.095   1.014  1.7719  0.1712 -2.1313
 7145TIP3   OH242849   2.410   3.039   1.405  0.5932  0.4380  0.0683
 7145TIP3    H142850   2.467   2.981   1.354 -0.4371 -0.0574 -0.5579
 7145TIP3    H242851   2.469   3.105   1.441  1.6281 -0.3377 -0.1523
 7146TIP3   OH242852   4.790   3.472   1.736  0.3983 -0.6868 -0.4241
 7146TIP3    H142853   4.852   3.405   1.763  1.3078  0.2148 -0.1760
 7146TIP3    H242854   4.809   3.486   1.643  1.3306  0.3403 -0.0989
 7147TIP3   OH242855   1.450   3.900   1.085  0.3914  0.0532  0.2320
 7147TIP3    H142856   1.463   3.840   1.158 -1.9766 -0.7525  0.0953
 7147TIP3    H242857   1.503   3.977   1.106  0.6220 -0.6059  2.2312
 7148TIP3   OH242858   4.955   6.054   3.154  0.1353 -0.1990 -0.1102
 7148TIP3    H142859   4.912   6.117   3.212 -0.2388 -1.1324  0.6569
 7148TIP3    H242860   5.018   6.009   3.210  3.1818  2.0221 -1.4709
 7149TIP3   OH242861   5.295   6.347   4.086  0.0618 -0.1366 -0.1586
 7149TIP3    H142862   5.341   6.420   4.126  0.4168  0.3097 -1.3368
 7149TIP3    H242863   5.362   6.280   4.072  0.5032  0.6603 -2.2288
 7150TIP3   OH242864   4.292   6.381  12.242 -0.3079  0.0751  0.4361
 7150TIP3    H142865   4.285   6.434  12.322  0.2684 -1.5075  1.5939
 7150TIP3    H242866   4.273   6.442  12.171 -0.8648  1.5382  1.7781
 7151TIP3   OH242867   6.599   0.410   0.512 -0.1003 -0.3017 -0.6872
 7151TIP3    H142868   6.687   0.448   0.512 -0.1798 -0.0974  0.3729
 7151TIP3    H242869   6.595   0.359   0.431  0.5041  0.7986 -1.4386
 7152TIP3   OH242870   6.494   2.276  16.319 -0.3621 -0.7750 -0.0180
 7152TIP3    H142871   6.570   2.237  16.363  0.4967 -2.2754 -2.6614
 7152TIP3    H242872   6.477   2.356  16.370  2.7636 -0.5295  0.9043
 7153TIP3   OH242873   0.203   4.340  11.773 -0.1727  0.5564  0.5075
 7153TIP3    H142874   0.218   4.427  11.735  2.9431  0.0032  0.2252
 7153TIP3    H242875   0.263   4.336  11.847 -0.2106 -1.3805  0.4648
 7154TIP3   OH242876   5.702   1.455  15.853 -0.7758  0.1182 -0.3732
 7154TIP3    H142877   5.627   1.511  15.872 -0.7585 -0.5209  1.7974
 7154TIP3    H242878   5.776   1.515  15.849 -0.8733  0.3821  1.1766
 7155TIP3   OH242879   4.823   5.406  14.983 -0.0089  0.5802 -0.0256
 7155TIP3    H142880   4.789   5.368  14.903 -0.7079 -0.9683  0.9660
 7155TIP3    H242881   4.779   5.492  14.989 -0.9505  0.1586 -0.6280
 7156TIP3   OH242882   5.126   2.630   1.826  0.0322  0.1575  0.2495
 7156TIP3    H142883   5.037   2.630   1.859  0.8460  1.4460  2.6731
 7156TIP3    H242884   5.132   2.709   1.772 -0.2748  0.0922  0.1197
 7157TIP3   OH242885   4.815   2.092  12.526  0.5492 -0.5650  0.7847
 7157TIP3    H142886   4.735   2.142  12.539 -0.1471 -2.2364  3.7344
 7157TIP3    H242887   4.821   2.081  12.431 -2.5905 -0.2288  0.4465
 7158TIP3   OH242888   0.690   2.333  14.976  0.1423 -0.0276  0.0027
 7158TIP3    H142889   0.698   2.410  15.033 -0.1932 -0.1495  0.2185
 7158TIP3    H242890   0.747   2.352  14.902 -0.1634  0.5684 -0.0889
 7159TIP3   OH242891   0.882   6.565   4.874  1.0976 -0.3565  0.4591
 7159TIP3    H142892   0.884   6.493   4.937  1.4596  1.1800  2.3073
 7159TIP3    H242893   0.823   6.630   4.913  1.4861  0.7377 -0.6888
 7160TIP3   OH242894   5.275   6.652  16.503  0.3587  0.1596 -0.0100
 7160TIP3    H142895   5.181   6.656  16.488  0.2388 -0.0976  0.6472
 7160TIP3    H242896   5.310   6.609  16.425 -0.0227  0.5781 -0.4180
 7161TIP3   OH242897   4.391   3.023  12.367  0.1764  0.2404  0.0044
 7161TIP3    H142898   4.357   2.972  12.440 -3.5424  1.0110 -0.9820
 7161TIP3    H242899   4.385   2.965  12.292  1.6788  0.2427 -0.1520
 7162TIP3   OH242900   1.771   3.362   5.959  0.1367 -0.4696  0.0966
 7162TIP3    H142901   1.748   3.275   5.992 -1.2195 -0.0361  0.3487
 7162TIP3    H242902   1.735   3.423   6.023  0.1381  0.3097 -0.6221
 7163TIP3   OH242903   4.200   0.124   2.776 -0.2576 -0.0999  0.3830
 7163TIP3    H142904   4.290   0.152   2.755 -0.7932 -0.1375 -2.3200
 7163TIP3    H242905   4.148   0.157   2.703 -2.0779 -2.0614  0.7173
 7164TIP3   OH242906   0.267   1.364  11.760 -0.4694 -0.2680  0.3797
 7164TIP3    H142907   0.237   1.451  11.786 -0.4950 -0.1035 -0.1818
 7164TIP3    H242908   0.249   1.360  11.666  2.6889  0.4464 -0.3640
 7165TIP3   OH242909   0.175   0.979  12.657 -0.2621  0.0674 -0.1284
 7165TIP3    H142910   0.195   1.026  12.576  0.2185 -0.2130 -0.1727
 7165TIP3    H242911   0.079   0.971  12.656 -0.1982 -0.8050 -1.1644
 7166TIP3   OH242912   2.081   6.704  13.763 -0.3678 -0.1555  0.0966
 7166TIP3    H142913   2.048   6.657  13.839  2.6868 -0.2284  1.5611
 7166TIP3    H242914   2.007   6.710  13.703 -1.7229 -4.0914  1.1128
 7167TIP3   OH242915   0.870   4.812   6.217  0.0567  0.0504  0.0596
 7167TIP3    H142916   0.799   4.789   6.277  0.3448 -0.8523  0.0746
 7167TIP3    H242917   0.949   4.779   6.259  0.1364 -1.7651 -1.3714
 7168TIP3   OH242918   6.019   5.338  16.803 -0.0456  0.0195 -0.4464
 7168TIP3    H142919   5.951   5.362  16.866  0.3794 -0.0905  0.0607
 7168TIP3    H242920   6.070   5.418  16.790 -0.6159  0.2644 -1.2804
 7169TIP3   OH242921   1.320   3.813   0.050 -0.4891 -0.5192 -0.0597
 7169TIP3    H142922   1.320   3.887   0.110 -0.1964 -0.0015 -0.6898
 7169TIP3    H242923   1.245   3.828  -0.007 -1.2911 -1.4604  0.6924
 7170TIP3   OH242924   2.753   3.128  15.957 -0.2744 -0.3631  0.0202
 7170TIP3    H142925   2.690   3.196  15.981 -0.4314 -0.4209 -0.2288
 7170TIP3    H242926   2.786   3.096  16.041 -0.2723 -0.0489  0.1391
 7171TIP3   OH242927   4.752   4.126   2.213 -0.0162 -0.2588 -0.4104
 7171TIP3    H142928   4.688   4.122   2.284 -0.1931  0.1019 -0.5431
 7171TIP3    H242929   4.826   4.074   2.244  1.2116  2.3501  1.3831
 7172TIP3   OH242930   3.868   2.108   5.047  0.2232  0.1946 -0.5616
 7172TIP3    H142931   3.942   2.111   4.986 -0.1191  0.1839 -0.9833
 7172TIP3    H242932   3.792   2.091   4.992  0.0377 -0.8589 -0.0107
 7173TIP3   OH242933   4.731   5.718   1.592 -0.1607 -0.4118  0.3454
 7173TIP3    H142934   4.638   5.725   1.569 -0.1400  1.2124  0.6346
 7173TIP3    H242935   4.734   5.740   1.685  0.5648 -0.0358  0.2382
 7174TIP3   OH242936   5.231   1.895  17.259 -0.0517  0.2830 -0.1102
 7174TIP3    H142937   5.285   1.816  17.266  0.2985  0.2317 -2.5613
 7174TIP3    H242938   5.142   1.862  17.245  0.2879  0.2206 -2.5134
 7175TIP3   OH242939   2.522   5.490  15.902 -0.3210  0.4072  0.2869
 7175TIP3    H142940   2.445   5.455  15.857  0.1154  0.1964 -0.3040
 7175TIP3    H242941   2.585   5.419  15.901 -0.0906  0.6020  0.7093
 7176TIP3   OH242942   2.663   5.090  15.650 -0.2252  0.1661 -0.7857
 7176TIP3    H142943   2.661   5.005  15.694  0.4805 -0.2742 -1.5661
 7176TIP3    H242944   2.572   5.111  15.634 -0.4946  0.2349  0.6678
 7177TIP3   OH242945   3.086   1.301  15.849  0.0823 -0.1584  0.2890
 7177TIP3    H142946   3.025   1.361  15.892  1.3875  0.9035  0.7337
 7177TIP3    H242947   3.171   1.344  15.857  0.6216 -0.7237 -1.9181
 7178TIP3   OH242948   5.170   0.633  15.567  0.3507 -0.2353  1.1521
 7178TIP3    H142949   5.088   0.586  15.583  0.0589 -1.0485 -2.0737
 7178TIP3    H242950   5.234   0.565  15.548  0.8818  0.4912  0.2243
 7179TIP3   OH242951   4.310   5.493   4.431  0.1770  0.0199  0.3728
 7179TIP3    H142952   4.402   5.487   4.456  0.3972  0.5346 -0.2888
 7179TIP3    H242953   4.277   5.403   4.440  0.2767  0.1430  2.2770
 7180TIP3   OH242954   3.914   3.223  10.883 -0.6759 -0.5689 -0.1936
 7180TIP3    H142955   3.822   3.247  10.891 -0.2196  1.1975  0.2164
 7180TIP3    H242956   3.918   3.133  10.916 -2.3447 -0.9258 -0.8584
 7181TIP3   OH242957   1.172   5.759   5.584  0.6564  0.3556  0.1762
 7181TIP3    H142958   1.188   5.843   5.542  0.2562  0.3765  0.0582
 7181TIP3    H242959   1.221   5.763   5.666  2.3094 -0.0952 -0.7486
 7182TIP3   OH242960   4.171   6.167  16.977  0.6986 -0.4265  0.0498
 7182TIP3    H142961   4.212   6.241  16.933 -0.1615 -0.7322 -1.3366
 7182TIP3    H242962   4.178   6.187  17.070  2.4112  0.3411 -0.2061
 7183TIP3   OH242963   3.980   5.699   0.376  0.0177  0.1916  1.0059
 7183TIP3    H142964   3.963   5.777   0.322  3.4084  1.4435  1.5184
 7183TIP3    H242965   3.973   5.626   0.314 -2.1457  0.9021  0.2833
 7184TIP3   OH242966   0.874   0.469  15.039 -0.1323  0.2710  0.1658
 7184TIP3    H142967   0.881   0.420  14.957 -1.6733  1.9318 -1.0579
 7184TIP3    H242968   0.957   0.516  15.045 -0.5943  1.3777 -1.3651
 7185TIP3   OH242969   2.219   3.112   4.369 -0.2629 -0.5955  0.2986
 7185TIP3    H142970   2.193   3.183   4.311 -0.2722 -1.7038 -1.1024
 7185TIP3    H242971   2.286   3.064   4.320  2.2004  0.3227  2.5308
 7186TIP3   OH242972   0.798   1.101   5.240 -0.7170  0.5800 -0.0418
 7186TIP3    H142973   0.804   1.177   5.297  0.1617  0.4266  0.0829
 7186TIP3    H242974   0.720   1.054   5.270 -0.2692  0.4961  1.0532
 7187TIP3   OH242975   5.387   5.776  12.061 -0.7862  0.5668 -0.0245
 7187TIP3    H142976   5.387   5.871  12.076 -2.0904  0.6644 -0.5397
 7187TIP3    H242977   5.359   5.766  11.970  1.2057 -0.2548 -0.6100
 7188TIP3   OH242978   3.509   5.960  15.421  0.3972 -0.0258  0.2663
 7188TIP3    H142979   3.560   5.896  15.472 -0.3003  0.7265  1.9766
 7188TIP3    H242980   3.426   5.916  15.406  0.7781 -0.4414 -0.6984
 7189TIP3   OH242981   2.928   5.565  11.780 -1.0737  0.1080 -0.1239
 7189TIP3    H142982   2.911   5.482  11.825  2.5625 -0.7528 -0.0655
 7189TIP3    H242983   2.910   5.546  11.688 -2.1960 -0.1012  0.1221
 7190TIP3   OH242984   2.038   2.111  14.165 -0.3086  0.5194  0.1661
 7190TIP3    H142985   2.119   2.071  14.196  0.0022  1.2173  0.2876
 7190TIP3    H242986   1.997   2.146  14.245 -1.2631 -0.7260  0.2642
 7191TIP3   OH242987   4.560   5.314   3.298  0.3849  0.0532 -0.9400
 7191TIP3    H142988   4.514   5.302   3.215 -1.3092  1.4611 -0.2718
 7191TIP3    H242989   4.586   5.226   3.324 -2.9940 -1.0616 -0.8102
 7192TIP3   OH242990   1.494   1.970  14.649 -0.0265  0.1796  0.6396
 7192TIP3    H142991   1.468   1.881  14.671 -0.8741  0.1411 -0.4428
 7192TIP3    H242992   1.570   1.987  14.705 -1.2347 -0.3684  2.5343
 7193TIP3   OH242993   3.917   4.520  12.913 -0.1670  0.4385  0.1209
 7193TIP3    H142994   3.900   4.584  12.983  0.8383 -0.6759  1.4643
 7193TIP3    H242995   3.908   4.435  12.956 -0.3006 -0.3026 -1.3265
 7194TIP3   OH242996   5.225   3.554  17.282  1.1163  0.1059  0.0697
 7194TIP3    H142997   5.294   3.601  17.235  1.0332 -0.3411 -0.5052
 7194TIP3    H242998   5.259   3.465  17.292  0.2680 -0.3550 -0.9961
 7195TIP3   OH242999   1.903   5.458   4.337 -0.4691  0.6052  0.3733
 7195TIP3    H143000   1.808   5.452   4.348 -0.4151 -2.3590  0.1631
 7195TIP3    H243001   1.915   5.514   4.260 -1.9617  1.8791  1.0136
 7196TIP3   OH243002   3.206   4.772   3.357  0.3019 -0.3833  0.0848
 7196TIP3    H143003   3.217   4.823   3.437 -6.6847  1.5562  0.4434
 7196TIP3    H243004   3.198   4.681   3.387  1.1157 -0.1609  1.0351
 7197TIP3   OH243005   2.404   2.288  15.390 -0.2644 -0.0354  0.1367
 7197TIP3    H143006   2.375   2.376  15.367  0.4577  0.5854  1.4819
 7197TIP3    H243007   2.433   2.295  15.481 -2.0810 -2.1268  0.9882
 7198TIP3   OH243008   2.888   3.438  12.974  0.3491  0.5096  0.2913
 7198TIP3    H143009   2.810   3.446  13.028  1.1526  0.1994  1.5703
 7198TIP3    H243010   2.891   3.346  12.948 -0.7430  0.9268 -1.4549
 7199TIP3   OH243011   1.992   3.621  14.817  0.1507 -0.0754 -0.2503
 7199TIP3    H143012   1.898   3.612  14.829  0.2250  0.1484  0.5278
 7199TIP3    H243013   2.028   3.535  14.838  0.0948 -0.2406 -0.8256
 7200TIP3   OH243014   2.132   6.271   5.606 -0.8299 -0.2871 -0.2639
 7200TIP3    H143015   2.088   6.354   5.584 -1.5643 -0.5943  0.0278
 7200TIP3    H243016   2.176   6.288   5.689 -1.9194 -0.5258  0.3673
 7201TIP3   OH243017   5.641   2.636   4.852  0.5091 -0.1852  0.4105
 7201TIP3    H143018   5.685   2.710   4.810 -0.0022 -0.5292 -0.7569
 7201TIP3    H243019   5.711   2.592   4.902  1.2820 -0.1463 -0.6008
 7202TIP3   OH243020   3.492   4.854  12.958 -0.5190 -0.0051  0.2622
 7202TIP3    H143021   3.441   4.925  12.995 -2.4618 -0.6282 -1.0366
 7202TIP3    H243022   3.577   4.893  12.936 -0.3315  1.0421  2.5577
 7203TIP3   OH243023   5.415   5.237  14.551  0.2989 -0.6223  0.4407
 7203TIP3    H143024   5.418   5.316  14.497  0.5861  0.0398  1.3984
 7203TIP3    H243025   5.332   5.196  14.528  0.0627  0.0506  0.0499
 7204TIP3   OH243026   4.200   6.280  11.563  0.1287 -0.4030  0.2466
 7204TIP3    H143027   4.294   6.273  11.581  0.1683 -1.2271 -0.2139
 7204TIP3    H243028   4.193   6.261  11.469 -0.3079  1.4671 -0.1556
 7205TIP3   OH243029   5.425   4.523   0.842 -0.0834 -0.5024  0.0737
 7205TIP3    H143030   5.507   4.570   0.857  1.4921 -2.7640 -0.7411
 7205TIP3    H243031   5.440   4.436   0.880 -2.0187 -1.0474 -0.2920
 7206TIP3   OH243032   3.097   0.584   1.326  0.6752 -0.2785  0.2909
 7206TIP3    H143033   3.144   0.514   1.371  1.4757 -1.0206 -1.6184
 7206TIP3    H243034   3.142   0.664   1.353  1.3366 -0.7344  0.5691
 7207TIP3   OH243035   2.240   3.541   3.512  0.6790 -0.1127  0.3835
 7207TIP3    H143036   2.154   3.499   3.520  1.3736 -2.4261 -2.4956
 7207TIP3    H243037   2.295   3.496   3.576  0.9222 -2.5493 -1.3499
 7208TIP3   OH243038   5.181   5.016   1.016  0.2917 -0.0573 -0.7339
 7208TIP3    H143039   5.260   4.966   0.996 -0.7614 -1.2037 -2.3090
 7208TIP3    H243040   5.133   5.020   0.933 -1.8266 -0.3566  0.3959
 7209TIP3   OH243041   1.369   2.161  11.809 -0.1932  0.6395 -0.3934
 7209TIP3    H143042   1.327   2.135  11.727  0.8968 -1.0156 -0.4865
 7209TIP3    H243043   1.453   2.114  11.808  0.8598  2.3965  0.6079
 7210TIP3   OH243044   1.878   5.761   5.616 -0.4308  0.1666  0.7537
 7210TIP3    H143045   1.854   5.673   5.585 -0.4377 -0.1660  1.6515
 7210TIP3    H243046   1.814   5.819   5.576  0.3294 -0.0619 -0.8684
 7211TIP3   OH243047   6.523   4.465  11.875  1.1501 -0.0997 -0.4386
 7211TIP3    H143048   6.457   4.500  11.816  0.8825 -2.6772 -1.8148
 7211TIP3    H243049   6.525   4.526  11.948 -3.2329 -0.1737  0.0165
 7212TIP3   OH243050   3.411   5.224   5.627  0.1050 -0.6731 -0.3372
 7212TIP3    H143051   3.324   5.183   5.635 -0.6249  0.7601 -0.7200
 7212TIP3    H243052   3.469   5.151   5.606 -0.8699 -1.7789  0.6425
 7213TIP3   OH243053   4.239   0.418  13.033  0.1431 -0.1550 -0.2390
 7213TIP3    H143054   4.287   0.498  13.010 -0.1137  0.0965  0.0826
 7213TIP3    H243055   4.217   0.429  13.126  1.8362 -1.4919  0.3739
 7214TIP3   OH243056   3.854   3.802   4.770  0.4016 -0.5932 -0.2096
 7214TIP3    H143057   3.818   3.891   4.765  0.0368 -0.8085 -1.7378
 7214TIP3    H243058   3.800   3.758   4.835  0.4555  0.2320  0.4111
 7215TIP3   OH243059   1.600   3.238   1.947 -0.2165 -0.1294  0.2192
 7215TIP3    H143060   1.591   3.146   1.973 -1.1609  0.4536  2.1881
 7215TIP3    H243061   1.510   3.271   1.948  0.1793  0.9582  0.1656
 7216TIP3   OH243062   1.949   5.576   2.876 -0.2785 -0.3173 -0.1554
 7216TIP3    H143063   1.950   5.551   2.783  3.4476 -0.4294 -0.2345
 7216TIP3    H243064   2.010   5.516   2.917  3.1669  3.5616  1.0772
 7217TIP3   OH243065   3.844   6.443  12.080  0.4145 -0.2013  0.8003
 7217TIP3    H143066   3.763   6.399  12.054 -0.2128  0.2465  1.9559
 7217TIP3    H243067   3.847   6.521  12.025  0.8429 -0.9489 -0.2924
 7218TIP3   OH243068   2.441   1.586   4.956  0.4738 -0.3301 -0.4764
 7218TIP3    H143069   2.416   1.498   4.984 -0.7257 -0.1054 -0.7703
 7218TIP3    H243070   2.392   1.600   4.875 -0.1170  0.9592  0.0751
 7219TIP3   OH243071   0.539   0.070   0.786 -0.2432  0.0579 -0.2003
 7219TIP3    H143072   0.543   0.089   0.692  1.1182  0.3418 -0.1059
 7219TIP3    H243073   0.482  -0.006   0.793 -0.5729  0.1932 -1.2342
 7220TIP3   OH243074   1.224   0.572   3.282  0.0449  0.2125  0.2985
 7220TIP3    H143075   1.301   0.610   3.324 -0.5019 -0.6824  2.2370
 7220TIP3    H243076   1.155   0.638   3.293  0.8036  1.7922 -2.9601
 7221TIP3   OH243077   6.681   3.042  11.466  0.2212 -0.1351 -0.1463
 7221TIP3    H143078   6.691   3.115  11.528  0.4163  0.2554 -0.6361
 7221TIP3    H243079   6.588   3.018  11.473  0.2958 -0.2792  0.4965
 7222TIP3   OH243080   4.573   1.285   0.737 -0.1514 -0.1329  0.2036
 7222TIP3    H143081   4.625   1.285   0.657 -0.8979 -0.4871 -0.2914
 7222TIP3    H243082   4.569   1.377   0.764 -0.1117  0.0199 -0.3104
 7223TIP3   OH243083   0.868   0.205   3.572 -0.1927 -1.0798  0.9158
 7223TIP3    H143084   0.914   0.121   3.578  1.1090 -0.9397 -3.3414
 7223TIP3    H243085   0.936   0.271   3.579 -0.8653 -0.4619  1.8205
 7224TIP3   OH243086   3.258   1.197   5.549 -0.8923 -0.6991  0.2362
 7224TIP3    H143087   3.351   1.206   5.529 -0.6823 -0.4938  1.2580
 7224TIP3    H243088   3.254   1.185   5.644 -1.7474 -3.1177 -0.0377
 7225TIP3   OH243089   0.233   5.293  14.610 -0.1030  0.4065 -0.0995
 7225TIP3    H143090   0.184   5.237  14.551  0.2973  0.2301 -0.2653
 7225TIP3    H243091   0.264   5.235  14.679  2.0658 -0.0124 -1.3342
 7226TIP3   OH243092   5.971   0.016  14.707 -0.3369  0.1426  0.2281
 7226TIP3    H143093   6.017   0.009  14.790 -1.5394 -1.4326  0.8278
 7226TIP3    H243094   5.927  -0.069  14.697 -2.5948  1.3150 -0.5595
 7227TIP3   OH243095   6.720   2.316  15.510  0.4363  0.3113 -0.7900
 7227TIP3    H143096   6.639   2.266  15.517 -0.5936  1.7138 -1.9145
 7227TIP3    H243097   6.786   2.252  15.485 -0.3185 -0.8656  0.1792
 7228TIP3   OH243098   2.028   0.882   2.485  0.0836  0.0079  0.1719
 7228TIP3    H143099   1.946   0.887   2.534 -0.0408 -0.8435  0.0653
 7228TIP3    H243100   2.017   0.808   2.426  1.3651 -0.8911  0.9893
 7229TIP3   OH243101   1.404   5.116  14.763  0.8112  0.2165  0.5854
 7229TIP3    H143102   1.489   5.075  14.780  0.5200 -0.6455  0.0142
 7229TIP3    H243103   1.401   5.128  14.668 -0.0760 -0.6353  0.4805
 7230TIP3   OH243104   5.521   1.556   3.895 -0.8285 -0.3280  0.2885
 7230TIP3    H143105   5.428   1.568   3.877 -1.4096 -2.8551  1.1699
 7230TIP3    H243106   5.565   1.594   3.820 -2.6853 -0.9732 -1.2147
 7231TIP3   OH243107   2.092   6.206  11.469  0.2297  0.6085 -0.1687
 7231TIP3    H143108   2.152   6.182  11.540 -1.4692  0.1546  1.1965
 7231TIP3    H243109   2.059   6.292  11.493 -1.1354  0.0184  0.1961
 7232TIP3   OH243110   5.226   0.839   1.089 -0.4287  0.0631 -0.1127
 7232TIP3    H143111   5.269   0.826   1.173  0.0148 -0.3922 -0.4085
 7232TIP3    H243112   5.195   0.752   1.064  0.2015  0.0303 -0.8252
 7233TIP3   OH243113   4.130   3.078   6.029  0.0208 -0.1258 -0.5164
 7233TIP3    H143114   4.043   3.055   5.996 -0.3147  0.8197 -0.2979
 7233TIP3    H243115   4.115   3.152   6.087  1.0927  0.6930 -1.2550
 7234TIP3   OH243116   1.394   5.320  15.728 -0.1985  0.0938  0.2090
 7234TIP3    H143117   1.458   5.336  15.659  1.0454  0.0913  1.3236
 7234TIP3    H243118   1.425   5.373  15.802 -2.3874  1.3955  0.2932
 7235TIP3   OH243119   2.040   1.319  12.438  0.6149 -0.3327 -0.2500
 7235TIP3    H143120   2.014   1.228  12.423  0.9356 -0.2955 -1.0865
 7235TIP3    H243121   2.120   1.330  12.386  1.0228  0.2021  0.4653
 7236TIP3   OH243122   3.716   3.879  11.485  0.1622 -0.3600  0.2182
 7236TIP3    H143123   3.694   3.947  11.549 -1.9681 -1.0149  0.2515
 7236TIP3    H243124   3.759   3.927  11.414 -1.1846  1.0590  0.2944
 7237TIP3   OH243125   1.671   1.999   0.435 -0.0448 -0.0206 -0.1046
 7237TIP3    H143126   1.627   1.919   0.407 -0.6350  0.3526 -0.2902
 7237TIP3    H243127   1.714   1.977   0.517 -1.6473 -0.0903  0.7710
 7238TIP3   OH243128   4.395   4.781  16.464  0.1356 -0.2051  0.2505
 7238TIP3    H143129   4.390   4.875  16.444 -0.3354 -0.3018 -0.1143
 7238TIP3    H243130   4.485   4.767  16.495  1.1408 -0.1680 -2.4521
 7239TIP3   OH243131   2.358   2.373  16.409 -0.5712  0.1537  0.7048
 7239TIP3    H143132   2.283   2.320  16.437  0.1422 -1.7002 -0.7016
 7239TIP3    H243133   2.320   2.460  16.391 -1.6368  0.4929  3.8223
 7240TIP3   OH243134   1.683   2.534   3.184 -0.6879 -0.0770  0.1400
 7240TIP3    H143135   1.702   2.461   3.244 -0.4010  1.0294  1.4394
 7240TIP3    H243136   1.601   2.571   3.216 -1.4491 -0.4912 -1.2163
 7241TIP3   OH243137   0.706   4.507  16.346 -0.4614  0.3091 -0.0106
 7241TIP3    H143138   0.741   4.427  16.385  1.4626  1.4778  0.8127
 7241TIP3    H243139   0.774   4.537  16.287 -0.9025  1.6217  0.1043
 7242TIP3   OH243140   1.862   4.297  16.707 -0.5637  0.4562 -0.2024
 7242TIP3    H143141   1.774   4.332  16.716 -1.1625 -0.6566 -1.4403
 7242TIP3    H243142   1.874   4.242  16.784 -1.4193 -0.2980 -0.5833
 7243TIP3   OH243143   2.919   0.200   4.204  0.6952  0.2038 -0.3123
 7243TIP3    H143144   2.888   0.126   4.152 -1.0233  1.7330 -1.6189
 7243TIP3    H243145   2.928   0.166   4.292  2.7877 -2.2512 -1.3384
 7244TIP3   OH243146   2.201   0.526   5.575  0.3022 -0.2450 -0.0657
 7244TIP3    H143147   2.251   0.458   5.530 -0.6546 -2.8201  2.4819
 7244TIP3    H243148   2.264   0.567   5.633  0.4254 -0.3979 -0.0909
 7245TIP3   OH243149   3.987   6.553  14.929 -0.5608  0.1254 -1.0083
 7245TIP3    H143150   4.028   6.558  15.015  1.4519 -1.0884 -1.8041
 7245TIP3    H243151   3.968   6.643  14.906  0.8993  0.6737 -0.1803
 7246TIP3   OH243152   4.985   2.182   0.044 -0.2577 -0.1690  0.0089
 7246TIP3    H143153   4.911   2.196   0.104  0.0393  0.9542  0.1346
 7246TIP3    H243154   5.049   2.134   0.096 -0.2674  0.2230  0.3922
 7247TIP3   OH243155   4.842   3.927  17.257 -0.0929  0.4697  0.1029
 7247TIP3    H143156   4.896   3.987  17.307  1.0982 -1.0763  0.7555
 7247TIP3    H243157   4.854   3.954  17.166  0.6915  0.9871  0.3564
 7248TIP3   OH243158   0.311   6.695  12.738  0.2741  0.0441 -0.4219
 7248TIP3    H143159   0.239   6.659  12.791  0.6572 -0.3975 -0.1915
 7248TIP3    H243160   0.317   6.786  12.766  0.0203 -0.0027 -0.2004
 7249TIP3   OH243161   5.662   2.689  16.511  0.0097  0.0267 -0.3679
 7249TIP3    H143162   5.699   2.713  16.426 -0.3821 -0.8823 -0.8114
 7249TIP3    H243163   5.733   2.645  16.556 -0.4910 -1.7331 -1.2254
 7250TIP3   OH243164   5.083   0.287   4.966  0.1068  0.1448  0.1126
 7250TIP3    H143165   5.145   0.237   4.913  0.0125 -0.5919  0.6898
 7250TIP3    H243166   5.070   0.369   4.917  1.8269  0.4859  0.1638
 7251TIP3   OH243167   6.557   6.634   4.897 -0.6497  0.3099 -0.3320
 7251TIP3    H143168   6.544   6.582   4.976 -3.2251  0.0898 -0.8125
 7251TIP3    H243169   6.503   6.712   4.910 -1.1854  0.2358 -1.8687
 7252TIP3   OH243170   0.214   4.302  13.590  0.5264 -0.3587 -0.0604
 7252TIP3    H143171   0.234   4.395  13.598  1.4024 -0.6496  1.5932
 7252TIP3    H243172   0.297   4.262  13.565 -0.0779 -0.6181 -1.8097
 7253TIP3   OH243173   4.984   4.304   4.834  0.6878 -0.2573  0.3572
 7253TIP3    H143174   4.907   4.350   4.867  1.3224  1.0135  0.0857
 7253TIP3    H243175   5.018   4.257   4.910  0.1280 -0.1727  0.6695
 7254TIP3   OH243176   6.201   0.207  14.838 -0.5534  0.3304 -0.6552
 7254TIP3    H143177   6.132   0.260  14.800 -0.8513 -0.4100 -1.1712
 7254TIP3    H243178   6.264   0.270  14.873 -1.5186  1.0153 -0.1070
 7255TIP3   OH243179   2.293   6.221   1.081  0.1642 -0.0235 -0.1912
 7255TIP3    H143180   2.264   6.153   1.020 -0.8337 -2.4299  2.6920
 7255TIP3    H243181   2.383   6.240   1.055  0.1252 -1.6994 -1.7561
 7256TIP3   OH243182   5.554   1.202   1.477  0.5239 -0.3878  0.2704
 7256TIP3    H143183   5.534   1.287   1.439 -1.9314 -1.8161 -1.9728
 7256TIP3    H243184   5.561   1.143   1.402 -0.8511 -2.6960  1.8087
 7257TIP3   OH243185   4.224   0.944  17.280 -0.6032  0.0093 -0.2526
 7257TIP3    H143186   4.170   0.866  17.290 -0.5804 -0.3278 -2.2846
 7257TIP3    H243187   4.274   0.929  17.199 -1.0359  2.3575 -1.0379
 7258TIP3   OH243188   5.842   2.327  13.625 -0.4980  0.1520 -0.5549
 7258TIP3    H143189   5.858   2.374  13.707 -1.1474 -0.2162 -0.2142
 7258TIP3    H243190   5.761   2.278  13.640 -0.0117 -0.8227 -1.0153
 7259TIP3   OH243191   5.421   2.008  17.086 -0.1869  0.1836  0.0135
 7259TIP3    H143192   5.463   2.000  17.171  0.1212  0.1029 -0.1462
 7259TIP3    H243193   5.336   1.965  17.098  0.2464 -0.7079  0.0079
 7260TIP3   OH243194   5.544   1.285   3.413  0.9516 -0.0263  0.1248
 7260TIP3    H143195   5.576   1.211   3.361  0.8586 -0.3677  0.5547
 7260TIP3    H243196   5.624   1.326   3.448  0.9678 -0.3466  0.4669
 7261TIP3   OH243197   3.252   3.564   5.825 -0.4091 -0.2111 -0.0642
 7261TIP3    H143198   3.343   3.592   5.818 -0.2106  0.1452  2.9345
 7261TIP3    H243199   3.204   3.644   5.849 -1.4909 -0.4792 -1.2037
 7262TIP3   OH243200   4.692   0.353   2.788  0.2559  0.1329  0.0069
 7262TIP3    H143201   4.635   0.372   2.863  1.2123 -0.1750  0.8324
 7262TIP3    H243202   4.740   0.274   2.813  0.6978  0.1043 -0.8745
 7263TIP3   OH243203   6.080   2.145   0.498 -0.8744  0.1012  0.6431
 7263TIP3    H143204   6.137   2.069   0.509 -1.2323 -0.2197  0.3036
 7263TIP3    H243205   5.992   2.112   0.515 -0.8470  0.9254  2.7415
 7264TIP3   OH243206   6.345   0.094   6.965  0.4603 -0.0979  0.5090
 7264TIP3    H143207   6.264   0.067   6.923  0.2683 -1.2665  1.5642
 7264TIP3    H243208   6.400   0.015   6.966  1.6934  0.7185 -0.3494
 7265TIP3   OH243209   3.417   6.081   3.210  0.1153 -0.2428 -0.2917
 7265TIP3    H143210   3.401   6.076   3.116 -2.0675  0.6005 -0.0258
 7265TIP3    H243211   3.403   6.173   3.232 -2.1607 -0.8578  1.2267
 7266TIP3   OH243212   2.672   5.096  15.158 -0.1957 -0.2773 -0.6450
 7266TIP3    H143213   2.700   5.014  15.199 -0.7524 -0.1195  0.0608
 7266TIP3    H243214   2.753   5.143  15.141  0.0078  0.5970  2.2477
 7267TIP3   OH243215   2.721   6.118   0.732  0.0385  0.6109 -0.2581
 7267TIP3    H143216   2.627   6.100   0.727 -0.0083  0.8888 -0.4003
 7267TIP3    H243217   2.762   6.031   0.724 -0.1848  0.5487 -0.8391
 7268TIP3   OH243218   5.199   5.189  17.019 -0.0607 -0.8203  0.5211
 7268TIP3    H143219   5.274   5.135  16.994  0.3481 -0.7210  1.4859
 7268TIP3    H243220   5.123   5.144  16.983  0.4795 -0.7393 -0.7753
 7269TIP3   OH243221   6.369   5.485   2.541  0.4309 -0.1743 -0.7162
 7269TIP3    H143222   6.408   5.541   2.608  1.7894  0.4437 -1.9650
 7269TIP3    H243223   6.277   5.478   2.567  1.4246 -2.6815  3.0650
 7270TIP3   OH243224   3.651   0.371   2.679  0.1252 -0.4345 -0.6774
 7270TIP3    H143225   3.624   0.393   2.589 -1.0397  0.3354 -0.1705
 7270TIP3    H243226   3.744   0.392   2.682 -0.1612  1.0274 -1.2684
 7271TIP3   OH243227   3.525   0.711   4.120 -0.0483  0.0310  0.3568
 7271TIP3    H143228   3.475   0.791   4.130 -0.5482 -0.3268  0.7492
 7271TIP3    H243229   3.470   0.643   4.158 -0.9665 -1.0257 -2.5561
 7272TIP3   OH243230   4.638   1.909  11.701 -0.4914 -0.0161 -0.1396
 7272TIP3    H143231   4.650   1.840  11.766 -1.2995 -0.2049 -0.1806
 7272TIP3    H243232   4.657   1.867  11.617 -3.9034 -1.0979 -0.5094
 7273TIP3   OH243233   2.673   0.647   4.002  0.3130  0.3697  0.5201
 7273TIP3    H143234   2.678   0.619   4.093 -1.4284  0.7546  0.7757
 7273TIP3    H243235   2.717   0.732   4.000  0.7370  0.1577  0.9135
 7274TIP3   OH243236   6.424   1.304  11.403  0.8801  0.7262  0.0233
 7274TIP3    H143237   6.369   1.283  11.327  1.6054 -2.0996  0.1474
 7274TIP3    H243238   6.482   1.373  11.372  0.0475  0.8100 -1.4631
 7275TIP3   OH243239   1.288   2.579  15.606  0.2414  0.3051  0.1136
 7275TIP3    H143240   1.237   2.597  15.685  0.2651 -2.0790  0.7702
 7275TIP3    H243241   1.225   2.587  15.534 -0.4265 -0.0044  0.6490
 7276TIP3   OH243242   5.398   1.870   3.661  0.2644  0.1242  0.3971
 7276TIP3    H143243   5.466   1.812   3.695  0.4323 -0.4675 -0.8600
 7276TIP3    H243244   5.361   1.821   3.587 -0.3950  1.1372  0.0468
 7277TIP3   OH243245   1.173   3.442  15.368  0.6210 -0.7513  0.3220
 7277TIP3    H143246   1.231   3.484  15.305  0.6978 -1.5143 -0.1276
 7277TIP3    H243247   1.202   3.351  15.370  0.9806 -0.6304  1.8770
 7278TIP3   OH243248   6.409   4.320   0.359  0.1018 -0.8007  0.0859
 7278TIP3    H143249   6.450   4.375   0.292 -1.4961 -0.4674 -0.6770
 7278TIP3    H243250   6.375   4.381   0.423 -0.5696 -0.9582 -0.1112
 7279TIP3   OH243251   2.899   1.124  13.626 -0.0924  0.1390  0.7593
 7279TIP3    H143252   2.896   1.197  13.687 -1.7017  0.5720  0.2186
 7279TIP3    H243253   2.902   1.165  13.540 -0.9083 -0.4048  0.4546
 7280TIP3   OH243254   5.256   1.223  16.432  0.4684 -0.0399  0.1278
 7280TIP3    H143255   5.204   1.158  16.479 -0.7535  0.5634 -0.3374
 7280TIP3    H243256   5.307   1.268  16.500  1.5696 -1.6673  0.4162
 7281TIP3   OH243257   5.538   1.092  14.016 -0.0608 -0.0019 -0.3161
 7281TIP3    H143258   5.508   1.147  13.943 -1.4815 -1.4343 -0.8710
 7281TIP3    H243259   5.633   1.088  14.005  0.1945  2.7916  0.1126
 7282TIP3   OH243260   6.450   4.497  12.297  0.4307 -0.2674 -0.0444
 7282TIP3    H143261   6.461   4.488  12.392  0.2112  1.3610  0.1653
 7282TIP3    H243262   6.420   4.587  12.285 -0.9349 -0.8747 -1.5544
 7283TIP3   OH243263   2.015   6.694  15.833  0.3224  0.2618  0.0010
 7283TIP3    H143264   1.986   6.628  15.770  0.0960 -0.7529  1.1200
 7283TIP3    H243265   2.068   6.645  15.896  0.2760  1.1726  0.7751
 7284TIP3   OH243266   2.381   1.076  11.530 -0.3034 -0.3353 -0.0383
 7284TIP3    H143267   2.397   0.985  11.507 -0.9261 -0.6652  0.7811
 7284TIP3    H243268   2.398   1.080  11.624  1.5016  0.8165 -0.3633
 7285TIP3   OH243269   4.401   5.202  13.819 -0.5694 -0.4889 -0.6566
 7285TIP3    H143270   4.418   5.265  13.889 -1.0959 -0.7945 -0.2461
 7285TIP3    H243271   4.399   5.255  13.739 -2.8374  0.3381 -0.1367
 7286TIP3   OH243272   2.465   2.342  12.985 -0.4786  0.1682 -0.3529
 7286TIP3    H143273   2.476   2.267  13.043  0.1815 -0.8226 -1.7300
 7286TIP3    H243274   2.370   2.351  12.975 -0.6226  0.5755  1.1245
 7287TIP3   OH243275   0.602   6.659   5.614  0.3780 -0.5607  0.1812
 7287TIP3    H143276   0.663   6.607   5.667  0.4453 -1.9190 -1.1658
 7287TIP3    H243277   0.551   6.594   5.565 -3.9318  0.3406  2.9575
 7288TIP3   OH243278   5.804   0.305  13.983  0.5129  0.1519  0.0105
 7288TIP3    H143279   5.819   0.282  13.891  0.9226 -0.5717  0.2476
 7288TIP3    H243280   5.716   0.273  14.002  1.3664 -2.0991  0.5637
 7289TIP3   OH243281   5.451   3.304   4.519 -0.1027 -0.0938  0.1135
 7289TIP3    H143282   5.489   3.258   4.594 -1.8235  0.5509  1.4518
 7289TIP3    H243283   5.463   3.397   4.540 -1.6727  0.1140  0.2235
 7290TIP3   OH243284   4.519   0.637   4.271  0.3577  0.4344  0.2617
 7290TIP3    H143285   4.596   0.593   4.307 -0.9287 -2.4747 -0.2852
 7290TIP3    H243286   4.455   0.634   4.342 -0.6942 -1.2774 -0.6944
 7291TIP3   OH243287   4.757   3.579  15.005 -0.8245  0.1318  0.3443
 7291TIP3    H143288   4.743   3.486  14.991  0.5475 -0.4839  2.6118
 7291TIP3    H243289   4.718   3.597  15.091 -1.3881  1.7565 -0.1948
 7292TIP3   OH243290   5.542   0.134  15.880 -0.7697 -0.1537  0.0139
 7292TIP3    H143291   5.582   0.088  15.806 -0.0226 -1.3464  1.1201
 7292TIP3    H243292   5.455   0.158  15.848 -0.1712  0.1209 -1.5357
 7293TIP3   OH243293   0.089   0.495  12.823  0.2826  0.2556  0.6192
 7293TIP3    H143294   0.010   0.492  12.878 -0.9073 -1.1114 -1.0684
 7293TIP3    H243295   0.129   0.580  12.844 -2.2741  1.5522  0.6919
 7294TIP3   OH243296   2.715   3.332   3.363  0.0056 -0.0064  0.3156
 7294TIP3    H143297   2.697   3.324   3.269 -1.7244  2.0821  0.3818
 7294TIP3    H243298   2.711   3.242   3.395  1.3953 -0.8600 -1.6963
 7295TIP3   OH243299   4.571   0.042  16.174  0.5891  0.3738  0.8011
 7295TIP3    H143300   4.619  -0.004  16.243 -1.5871  2.1909  3.7257
 7295TIP3    H243301   4.635   0.102  16.136  1.6273 -0.0794  1.7882
 7296TIP3   OH243302   0.941   3.050  17.282 -0.5884 -0.2255  0.9937
 7296TIP3    H143303   0.897   2.974  17.320  0.2590 -1.6668 -0.7456
 7296TIP3    H243304   0.873   3.095  17.232 -0.4718 -1.5543 -0.4060
 7297TIP3   OH243305   4.431   5.459  12.680  0.2650  0.2167  0.0330
 7297TIP3    H143306   4.483   5.394  12.728  2.5105  2.0990  0.3001
 7297TIP3    H243307   4.382   5.506  12.748  1.4530  1.1651  0.2656
 7298TIP3   OH243308   1.313   6.342   2.247  0.0566 -0.1948 -0.1806
 7298TIP3    H143309   1.317   6.278   2.317  1.3361  0.1897  0.1331
 7298TIP3    H243310   1.342   6.294   2.169 -0.0187 -0.2661 -0.1647
 7299TIP3   OH243311   2.308   1.491  12.725 -0.4987  0.0775 -0.2927
 7299TIP3    H143312   2.283   1.400  12.712 -0.0189 -0.0225 -0.5493
 7299TIP3    H243313   2.369   1.509  12.653 -0.2391  0.4652  0.0222
 7300TIP3   OH243314   2.009   1.609   5.754 -0.2537  0.4058  0.0932
 7300TIP3    H143315   2.095   1.577   5.781 -0.7571 -0.6600  0.5025
 7300TIP3    H243316   2.013   1.613   5.658 -0.7996 -3.0161 -0.2033
 7301TIP3   OH243317   2.221   2.474  15.318 -0.2284  0.2998 -0.1283
 7301TIP3    H143318   2.176   2.461  15.402 -1.8014 -1.3884 -1.1625
 7301TIP3    H243319   2.164   2.534  15.270 -0.1262  0.0572 -0.5489
 7302TIP3   OH243320   2.041   4.477  11.399 -0.1613 -0.4820 -0.8851
 7302TIP3    H143321   1.965   4.419  11.404  0.0988 -0.7477  0.1422
 7302TIP3    H243322   2.064   4.478  11.306  0.1329 -2.4368 -0.8880
 7303TIP3   OH243323   4.066   6.120  15.517 -0.1085 -0.4538  0.3358
 7303TIP3    H143324   4.078   6.204  15.560 -3.2644  0.9813 -1.2182
 7303TIP3    H243325   4.012   6.069  15.577  0.4618 -0.7650  0.5899
 7304TIP3   OH243326   2.521   4.240  15.011  0.3605 -0.1904 -0.5902
 7304TIP3    H143327   2.480   4.297  14.946 -1.1259 -1.7351 -1.0997
 7304TIP3    H243328   2.585   4.295  15.055 -0.4686  1.6382 -1.5628
 7305TIP3   OH243329   0.410   4.126   3.825  0.0696 -0.0753  0.0126
 7305TIP3    H143330   0.428   4.159   3.737 -0.1201  0.5675  0.2127
 7305TIP3    H243331   0.345   4.056   3.812  1.2013 -1.0595 -0.5064
 7306TIP3   OH243332   2.610   1.593   2.866 -0.3171  0.1483 -0.5207
 7306TIP3    H143333   2.601   1.515   2.811  3.0445 -1.5817  1.1049
 7306TIP3    H243334   2.602   1.561   2.955 -0.5868  2.0055  0.1624
 7307TIP3   OH243335   5.040   1.376   6.251  0.0660  0.4520  0.5190
 7307TIP3    H143336   5.089   1.437   6.305  0.4359 -0.8270  1.6999
 7307TIP3    H243337   5.101   1.305   6.233 -0.2682  0.5258 -1.0456
 7308TIP3   OH243338   0.036   5.414  14.261 -0.4609  0.3703  0.0194
 7308TIP3    H143339  -0.051   5.383  14.237 -0.5138 -0.8663  1.6506
 7308TIP3    H243340   0.078   5.338  14.302  0.7245  1.4396  0.8682
 7309TIP3   OH243341   6.484   3.930  16.677 -0.3185 -0.1355 -0.1892
 7309TIP3    H143342   6.452   4.019  16.690 -1.5015 -0.4308 -0.8752
 7309TIP3    H243343   6.574   3.940  16.648  0.1057  0.7652  1.3031
 7310TIP3   OH243344   4.676   5.403   1.315 -0.7160 -0.2737 -0.6336
 7310TIP3    H143345   4.594   5.354   1.308  0.5366 -2.6136 -0.0719
 7310TIP3    H243346   4.717   5.394   1.229 -1.5503  2.0211 -1.3538
 7311TIP3   OH243347   5.388   6.300  16.858 -0.0021  0.5459 -0.0518
 7311TIP3    H143348   5.314   6.326  16.914  0.2563  3.3632 -0.8571
 7311TIP3    H243349   5.463   6.300  16.917 -0.5475 -2.5426  0.8206
 7312TIP3   OH243350   5.606   1.813   4.635 -0.0220  0.1113 -0.0013
 7312TIP3    H143351   5.622   1.758   4.559  0.8835  2.5342 -1.6874
 7312TIP3    H243352   5.510   1.815   4.643 -0.2302  1.0939 -2.1330
 7313TIP3   OH243353   6.230   1.996   3.182 -0.3742  0.2701  0.0421
 7313TIP3    H143354   6.319   2.018   3.155 -0.6375 -0.1920 -1.2898
 7313TIP3    H243355   6.229   2.011   3.277  1.1538  0.1269  0.1053
 7314TIP3   OH243356   3.756   0.747   1.845  0.1068  0.0604 -0.1574
 7314TIP3    H143357   3.807   0.814   1.891 -0.4935  0.1899  0.3192
 7314TIP3    H243358   3.799   0.740   1.759  1.1245 -0.0572  0.3419
 7315TIP3   OH243359   3.470   1.925   0.474  0.0239  0.1263  0.2392
 7315TIP3    H143360   3.486   1.838   0.509 -0.5503 -0.2029 -0.2970
 7315TIP3    H243361   3.503   1.922   0.385  1.3578  0.9213  0.6713
 7316TIP3   OH243362   3.686   1.664  14.419 -0.5784 -0.4578  0.2052
 7316TIP3    H143363   3.781   1.676  14.426 -0.5544 -0.2872 -0.3562
 7316TIP3    H243364   3.665   1.601  14.487  0.2918 -2.2715 -1.1133
 7317TIP3   OH243365   3.051   0.041   0.570  0.1342 -0.0573 -0.0622
 7317TIP3    H143366   3.124   0.029   0.510 -0.3405  2.4332 -1.2814
 7317TIP3    H243367   2.985  -0.021   0.540  0.5894 -0.1327 -0.9453
 7318TIP3   OH243368   4.136   4.551   0.184  0.0969 -0.3337  0.1164
 7318TIP3    H143369   4.196   4.483   0.154  0.2006  0.2561 -1.0805
 7318TIP3    H243370   4.057   4.503   0.211  0.6495 -1.0143  0.5356
 7319TIP3   OH243371   3.002   1.232  13.880  0.3251  1.0028 -0.1812
 7319TIP3    H143372   3.068   1.223  13.949 -1.6453 -0.5736  1.5994
 7319TIP3    H243373   2.945   1.303  13.909 -0.8026  0.0082  0.0886
 7320TIP3   OH243374   5.068   4.630   4.843 -0.7025  0.2263  0.1878
 7320TIP3    H143375   4.975   4.609   4.834 -0.5020 -0.5542 -0.2125
 7320TIP3    H243376   5.074   4.723   4.824 -1.2756  0.0763 -0.7687
 7321TIP3   OH243377   0.437   6.098   1.064 -0.1498  0.6217  0.5206
 7321TIP3    H143378   0.427   6.029   1.130 -1.9593  1.6456  1.3884
 7321TIP3    H243379   0.454   6.051   0.983 -0.3814 -0.8021  1.2595
 7322TIP3   OH243380   0.728   6.461  12.975 -0.3847  0.1596  0.1461
 7322TIP3    H143381   0.690   6.470  12.887  3.6344  0.0378 -1.8332
 7322TIP3    H243382   0.705   6.372  13.001  0.1599 -0.6362 -1.8554
 7323TIP3   OH243383   1.900   2.850  16.603  0.0672  0.2061  0.2748
 7323TIP3    H143384   1.870   2.800  16.527  1.9463 -1.9800  0.8552
 7323TIP3    H243385   1.894   2.942  16.576 -0.7332 -0.4368 -1.9311
 7324TIP3   OH243386   6.566   5.358   3.634 -0.4675 -0.1561  0.0214
 7324TIP3    H143387   6.620   5.397   3.565 -1.3072 -0.4272 -0.8043
 7324TIP3    H243388   6.582   5.264   3.627  0.0573 -0.1252  0.7300
 7325TIP3   OH243389   0.848   5.196   6.316 -0.0157  0.0243 -0.0277
 7325TIP3    H143390   0.869   5.214   6.225 -1.6938 -0.7223 -0.5993
 7325TIP3    H243391   0.877   5.275   6.363  2.1724 -0.1508 -0.9509
 7326TIP3   OH243392   0.770   3.401   4.171 -0.0816  0.0827  0.0162
 7326TIP3    H143393   0.848   3.442   4.132 -0.5200 -0.5722 -1.6408
 7326TIP3    H243394   0.771   3.430   4.262  0.9820  1.7494 -0.4683
 7327TIP3   OH243395   2.892   5.922  11.978  0.0492  0.4773  0.3440
 7327TIP3    H143396   2.938   5.873  12.046  1.1770  0.1007 -0.6569
 7327TIP3    H243397   2.852   5.995  12.024 -1.3916 -1.1549  1.8300
 7328TIP3   OH243398   3.404   0.194  14.686  0.3330 -0.0165 -0.4004
 7328TIP3    H143399   3.355   0.229  14.611 -0.8619 -0.3426  0.1969
 7328TIP3    H243400   3.488   0.240  14.683 -0.8089  2.2274 -0.1920
 7329TIP3   OH243401   6.279   4.738  16.960 -0.2764  0.1741 -0.0659
 7329TIP3    H143402   6.242   4.722  16.873 -0.5636  0.5318 -0.0152
 7329TIP3    H243403   6.205   4.730  17.019 -0.8290  3.1276 -0.1765
 7330TIP3   OH243404   2.568   6.417   2.433  1.0153  0.6876  0.3681
 7330TIP3    H143405   2.607   6.385   2.352  0.8344 -0.2205  0.6355
 7330TIP3    H243406   2.623   6.383   2.503 -0.6807 -1.3705  0.8068
 7331TIP3   OH243407   3.100   6.710   4.301 -0.1545  0.3204  0.3573
 7331TIP3    H143408   3.059   6.639   4.251  1.6100 -0.2012 -0.4251
 7331TIP3    H243409   3.100   6.784   4.241 -1.4562  0.8597  0.9693
 7332TIP3   OH243410   5.129   5.690   4.264  0.1090  0.2593 -0.3068
 7332TIP3    H143411   5.136   5.597   4.288 -0.3355  0.4516  0.5900
 7332TIP3    H243412   5.084   5.731   4.338  0.6038  1.2592 -0.5428
 7333TIP3   OH243413   3.300   0.377  12.545 -0.4985 -0.0995  0.4825
 7333TIP3    H143414   3.207   0.392  12.526 -0.2512 -0.3605 -1.0985
 7333TIP3    H243415   3.328   0.317  12.476  0.6451 -0.7380  1.4719
 7334TIP3   OH243416   4.763   1.710  15.454 -0.9353 -0.0337 -0.4356
 7334TIP3    H143417   4.779   1.804  15.464  0.8999 -0.0397 -2.5157
 7334TIP3    H243418   4.818   1.670  15.522  2.7306  0.3024 -2.8710
 7335TIP3   OH243419   1.785   1.312  13.527 -0.2334 -0.0894 -0.2925
 7335TIP3    H143420   1.852   1.339  13.464 -1.1271 -1.0926 -1.7422
 7335TIP3    H243421   1.806   1.221  13.546  0.2636  0.3208  1.2233
 7336TIP3   OH243422   2.374   5.876   6.454 -0.5430  0.2056  0.0978
 7336TIP3    H143423   2.325   5.932   6.515  0.5862  1.7430 -0.3440
 7336TIP3    H243424   2.464   5.906   6.462 -0.0314 -1.0497 -0.7594
 7337TIP3   OH243425   1.481   6.374   3.156  0.2523 -0.0895 -0.6777
 7337TIP3    H143426   1.568   6.347   3.185  0.2751  0.2067 -0.4718
 7337TIP3    H243427   1.427   6.369   3.235  0.4850  1.4633 -0.3996
 7338TIP3   OH243428   1.966   1.292  13.937  0.4686 -0.0054  0.3360
 7338TIP3    H143429   1.895   1.251  13.986 -0.4927  0.6025 -0.5163
 7338TIP3    H243430   1.955   1.262  13.847  0.0438  1.6707 -0.2178
 7339TIP3   OH243431   2.891   0.175  13.649  0.3715 -0.2234 -0.2856
 7339TIP3    H143432   2.838   0.182  13.728  0.0270 -0.5459 -0.4827
 7339TIP3    H243433   2.855   0.241  13.590  0.8874  0.2896 -0.0292
 7340TIP3   OH243434   4.372   6.249  13.017  0.7075 -0.3394 -0.0808
 7340TIP3    H143435   4.418   6.168  12.996  0.4900 -1.0283  1.8144
 7340TIP3    H243436   4.438   6.305  13.057  0.2952 -0.7211  1.2015
 7341TIP3   OH243437   3.115   2.782   5.302  0.6490  0.5111 -0.6988
 7341TIP3    H143438   3.064   2.819   5.229  0.3750  0.6767 -0.4234
 7341TIP3    H243439   3.205   2.779   5.269  0.3021 -0.8994 -1.6408
 7342TIP3   OH243440   6.481   4.283  15.115 -0.6036 -0.2901 -0.6307
 7342TIP3    H143441   6.411   4.235  15.071 -0.5729  0.9800 -2.1550
 7342TIP3    H243442   6.539   4.310  15.044  1.4111 -1.2099  0.5755
 7343TIP3   OH243443   3.080   4.837   3.664  0.4591 -0.5794 -0.4920
 7343TIP3    H143444   3.017   4.884   3.610  0.4975  0.4066  0.2823
 7343TIP3    H243445   3.160   4.891   3.658  0.4488 -0.4347  0.5548
 7344TIP3   OH243446   4.497   6.124  12.262  0.1269  0.4169 -0.1898
 7344TIP3    H143447   4.499   6.207  12.215  1.9606  1.0258  0.8781
 7344TIP3    H243448   4.581   6.120  12.308 -0.4813 -1.3976  0.8723
 7345TIP3   OH243449   6.693   1.197  11.395 -0.1433  0.1682  0.7206
 7345TIP3    H143450   6.704   1.120  11.451  3.3764  0.2348  0.3694
 7345TIP3    H243451   6.709   1.165  11.306  0.9166  1.1628  0.5204
 7346TIP3   OH243452   3.162   1.471   0.327  0.1773  0.0259 -0.2786
 7346TIP3    H143453   3.184   1.564   0.323 -0.3165  0.1808  0.3686
 7346TIP3    H243454   3.128   1.449   0.240 -1.1474  0.8310  0.0121
 7347TIP3   OH243455   5.837   3.557  13.122  0.0846  0.0778 -0.3024
 7347TIP3    H143456   5.907   3.503  13.160 -0.2961 -0.2847 -0.1132
 7347TIP3    H243457   5.793   3.499  13.060 -0.1697  0.2466 -0.2800
 7348TIP3   OH243458   4.994   1.859   4.150  0.0256 -0.4502 -0.0227
 7348TIP3    H143459   5.064   1.828   4.092  0.2598 -0.9905  0.5361
 7348TIP3    H243460   4.913   1.843   4.101  0.3041  0.7777 -0.9499
 7349TIP3   OH243461   5.108   0.846  15.717 -0.0332  0.6927  0.1961
 7349TIP3    H143462   5.133   0.784  15.648 -0.7389  0.9308 -0.2760
 7349TIP3    H243463   5.035   0.803  15.762  1.5998 -0.3259  2.0304
 7350TIP3   OH243464   2.376   1.143   2.736  0.1953 -0.5073  0.1498
 7350TIP3    H143465   2.428   1.123   2.814 -0.3933 -1.4893  0.3079
 7350TIP3    H243466   2.430   1.113   2.663  0.0545 -1.1038  0.2859
 7351TIP3   OH243467   2.728   2.747   0.781  0.1254  0.3520  0.2073
 7351TIP3    H143468   2.694   2.778   0.697 -2.8574  0.1703  1.2535
 7351TIP3    H243469   2.690   2.660   0.793  0.1067  0.5565  1.9383
 7352TIP3   OH243470   2.316   3.717  16.225 -0.3617  0.0716 -0.4437
 7352TIP3    H143471   2.393   3.749  16.271 -0.5394  1.0488 -0.7880
 7352TIP3    H243472   2.265   3.796  16.207 -1.6593 -0.6028  0.1591
 7353TIP3   OH243473   5.674   2.198  16.851 -0.1045  0.3909 -0.2393
 7353TIP3    H143474   5.600   2.241  16.806  0.5643 -0.1056 -1.8908
 7353TIP3    H243475   5.633   2.148  16.922 -1.0520  2.4286  0.7321
 7354TIP3   OH243476   5.889   6.562  13.327  0.5392 -0.0381  0.0344
 7354TIP3    H143477   5.795   6.561  13.313  0.4119  2.6042  0.1282
 7354TIP3    H243478   5.903   6.636  13.387  2.6989 -0.0768 -0.3457
 7355TIP3   OH243479   5.235   2.808   3.690  0.2966  0.2807 -0.0089
 7355TIP3    H143480   5.151   2.815   3.736 -0.7217 -1.0050 -1.5896
 7355TIP3    H243481   5.221   2.853   3.607  0.6707 -1.2256 -0.9260
 7356TIP3   OH243482   1.823   0.275   4.386  0.0289  0.0046 -0.3283
 7356TIP3    H143483   1.825   0.369   4.403 -1.9083  0.0831 -0.3471
 7356TIP3    H243484   1.867   0.266   4.301  1.1433  0.7427  0.1425
 7357TIP3   OH243485   2.986   4.748   1.137 -0.1225  0.5651 -0.3537
 7357TIP3    H143486   2.921   4.754   1.207 -1.4978  0.7718 -1.6068
 7357TIP3    H243487   3.061   4.798   1.170 -2.0358  3.7101 -0.3978
 7358TIP3   OH243488   1.087   1.853   0.475  0.1615 -0.5288  0.1767
 7358TIP3    H143489   1.116   1.891   0.558 -1.7944  0.9886  0.2586
 7358TIP3    H243490   0.994   1.875   0.471 -0.1536 -2.0044 -1.6734
 7359TIP3   OH243491   4.546   2.770  16.613 -0.1412  0.2256 -0.1761
 7359TIP3    H143492   4.569   2.678  16.627 -0.5803  0.2446  0.7316
 7359TIP3    H243493   4.529   2.776  16.519 -1.0996 -0.8523 -0.0910
 7360TIP3   OH243494   2.274   6.061   1.318  0.6643  0.7310  0.4613
 7360TIP3    H143495   2.368   6.047   1.335  0.6475  0.0574  0.0317
 7360TIP3    H243496   2.271   6.140   1.264  0.8543  1.7543  1.8764
 7361TIP3   OH243497   4.804   3.257   5.438 -0.1465  0.2073  0.0228
 7361TIP3    H143498   4.874   3.322   5.445  0.8517 -0.7214 -0.9214
 7361TIP3    H243499   4.819   3.198   5.512 -0.4582  0.4888  0.3130
 7362TIP3   OH243500   6.471   3.587  13.905 -0.0594 -0.1597 -0.0167
 7362TIP3    H143501   6.558   3.627  13.905 -0.4472  0.7087 -0.5866
 7362TIP3    H243502   6.488   3.493  13.905  0.8808 -0.0624  2.4469
 7363TIP3   OH243503   5.447   2.332  11.636  0.5714  0.0796 -0.0261
 7363TIP3    H143504   5.360   2.307  11.668  0.8944 -1.8272 -0.5343
 7363TIP3    H243505   5.491   2.371  11.712 -1.2654  2.7604 -0.1804
 7364TIP3   OH243506   2.840   0.064  13.365  0.5054  0.2381 -0.1227
 7364TIP3    H143507   2.904  -0.006  13.351 -0.0929 -0.2725 -0.3384
 7364TIP3    H243508   2.893   0.142  13.377  1.1950 -0.2898  0.3790
 7365TIP3   OH243509   6.010   0.655   5.787 -0.1255  0.4853  0.4366
 7365TIP3    H143510   6.074   0.588   5.760 -0.8308  0.3754 -1.0587
 7365TIP3    H243511   6.051   0.698   5.862  1.0203 -0.6044  0.4744
 7366TIP3   OH243512   2.128   5.099   1.651  0.5344  0.6559 -0.0372
 7366TIP3    H143513   2.211   5.146   1.641  0.5497  0.5281 -0.5240
 7366TIP3    H243514   2.142   5.041   1.726  0.7921  0.8298  0.0515
 7367TIP3   OH243515   3.569   0.481  12.512 -0.0739  0.0190 -0.0750
 7367TIP3    H143516   3.477   0.457  12.523 -0.9518  3.0807  0.2151
 7367TIP3    H243517   3.570   0.536  12.434  1.3325  0.7338  0.4086
 7368TIP3   OH243518   1.141   1.454  14.397 -0.6528  0.6596  0.7292
 7368TIP3    H143519   1.193   1.523  14.356 -1.3073  0.8433  0.1990
 7368TIP3    H243520   1.164   1.459  14.490  0.8792  0.2189  0.4082
 7369TIP3   OH243521   6.393   4.769  12.330 -0.3194  0.0084  0.6025
 7369TIP3    H143522   6.317   4.819  12.359 -0.0016  1.5693 -1.1095
 7369TIP3    H243523   6.465   4.831  12.332  0.7267 -1.1772  1.2077
 7370TIP3   OH243524   4.160   1.504  14.493  0.2188 -0.0115 -0.6803
 7370TIP3    H143525   4.113   1.469  14.569 -1.8018  1.3715 -1.2154
 7370TIP3    H243526   4.252   1.483  14.510 -0.5349 -2.9029  0.4031
 7371TIP3   OH243527   2.329   2.211   3.976 -0.2152  0.3926 -0.0936
 7371TIP3    H143528   2.305   2.304   3.979 -0.0297  0.5004 -1.4285
 7371TIP3    H243529   2.322   2.187   3.884 -3.4675 -1.7924  0.5313
 7372TIP3   OH243530   3.734   4.260   3.619 -0.1969 -0.0893  0.2327
 7372TIP3    H143531   3.783   4.181   3.598 -0.8190 -0.6074  0.6733
 7372TIP3    H243532   3.729   4.260   3.715 -2.5394 -1.0121  0.1780
 7373TIP3   OH243533   6.092   3.746  13.715 -0.0052  1.2442 -0.7418
 7373TIP3    H143534   6.153   3.748  13.788 -1.3318  1.3101  0.4008
 7373TIP3    H243535   6.131   3.804  13.649  0.5655  2.2412  0.4366
 7374TIP3   OH243536   6.604   6.320  11.546 -0.0631 -0.4327 -0.2320
 7374TIP3    H143537   6.518   6.279  11.537 -0.0982 -0.3266 -0.3792
 7374TIP3    H243538   6.659   6.277  11.481 -1.0010  2.1966 -3.0370
 7375TIP3   OH243539   1.448   1.190  14.664  0.5710 -0.5512 -0.4926
 7375TIP3    H143540   1.506   1.114  14.665 -0.1051 -1.0605  0.3170
 7375TIP3    H243541   1.507   1.264  14.645  1.7665 -0.8490  1.6805
 7376TIP3   OH243542   4.179   3.402   1.221  0.3029 -0.5224  0.9384
 7376TIP3    H143543   4.127   3.375   1.145 -3.0779  0.4043  2.7220
 7376TIP3    H243544   4.214   3.321   1.257 -0.1985 -1.2388 -0.1535
 7377TIP3   OH243545   5.297   0.551  13.271  0.0716 -0.0377 -0.1578
 7377TIP3    H143546   5.336   0.561  13.358 -2.7568  1.1829  1.0886
 7377TIP3    H243547   5.284   0.641  13.240  0.1527 -0.4492 -1.4289
 7378TIP3   OH243548   6.237   4.242  14.251  0.0403  0.3884 -0.7215
 7378TIP3    H143549   6.168   4.223  14.188 -0.2660  0.8272 -0.5257
 7378TIP3    H243550   6.239   4.165  14.309  0.4736 -0.1153 -1.3818
 7379TIP3   OH243551   5.259   4.148  12.046  0.0787 -0.1865 -0.2069
 7379TIP3    H143552   5.211   4.084  12.099  0.7981 -0.2843  0.3600
 7379TIP3    H243553   5.278   4.219  12.107  0.2877  0.0334 -0.5260
 7380TIP3   OH243554   4.609   6.659  15.822  0.3730 -0.4812  0.2327
 7380TIP3    H143555   4.548   6.731  15.807 -0.4807 -1.1980  0.1746
 7380TIP3    H243556   4.690   6.701  15.850  0.3640  0.5690 -1.2735
 7381TIP3   OH243557   2.397   3.578   2.051  0.0723 -0.2909  0.2624
 7381TIP3    H143558   2.472   3.618   2.007 -1.8420 -0.9728 -4.1482
 7381TIP3    H243559   2.420   3.486   2.060 -0.1628 -0.4922 -1.0458
 7382TIP3   OH243560   0.248   1.586  13.178 -0.1762 -0.0989  0.9229
 7382TIP3    H143561   0.201   1.654  13.130  1.4403 -0.3035 -1.0703
 7382TIP3    H243562   0.300   1.633  13.243 -2.3462  0.1862  2.5551
 7383TIP3   OH243563   2.793   4.142  17.163  0.0558  0.6570 -0.2318
 7383TIP3    H143564   2.808   4.203  17.236  0.8717  1.4483 -1.0396
 7383TIP3    H243565   2.873   4.146  17.111  0.0285 -0.9618 -0.4313
 7384TIP3   OH243566   6.484   2.168   5.853  0.1601  0.2154  0.7871
 7384TIP3    H143567   6.556   2.164   5.916 -0.1719 -0.4886  1.1364
 7384TIP3    H243568   6.411   2.124   5.897 -0.3353  0.4773  0.2451
 7385TIP3   OH243569   6.149   1.984   1.994  0.2435 -0.1681 -0.5056
 7385TIP3    H143570   6.229   1.983   1.943  1.0541  1.3323  0.6620
 7385TIP3    H243571   6.135   2.076   2.015 -1.4825 -0.4647 -0.1955
 7386TIP3   OH243572   2.335   3.324  14.725 -0.0919 -0.4027 -0.6930
 7386TIP3    H143573   2.398   3.253  14.737  0.3517  0.2299  1.1642
 7386TIP3    H243574   2.387   3.404  14.736 -0.8335  0.1929 -1.3493
 7387TIP3   OH243575   1.386   2.055   0.329  0.7304 -0.6589  0.1564
 7387TIP3    H143576   1.401   2.081   0.238 -1.9523 -0.9243 -0.4662
 7387TIP3    H243577   1.421   1.966   0.335 -4.0773 -3.1236 -2.5199
 7388TIP3   OH243578   5.209   6.718  14.133 -0.0926  1.0882 -0.2831
 7388TIP3    H143579   5.178   6.772  14.205 -1.6195  0.1330 -0.1597
 7388TIP3    H243580   5.290   6.679  14.164 -0.7736  0.6220  0.9825
 7389TIP3   OH243581   0.495   2.594   1.374  0.1664 -0.4774 -0.4398
 7389TIP3    H143582   0.487   2.567   1.466  1.3424 -0.3937 -0.2908
 7389TIP3    H243583   0.432   2.540   1.327 -0.3986 -0.5731  0.4160
 7390TIP3   OH243584   0.568   4.314  15.018  0.5133 -0.1183  0.0944
 7390TIP3    H143585   0.548   4.280  14.930 -0.0895 -0.7726  0.4690
 7390TIP3    H243586   0.600   4.237  15.066  1.9698  0.4789  0.1192
 7391TIP3   OH243587   4.877   6.533  14.854  0.5934  0.6529  0.8793
 7391TIP3    H143588   4.846   6.624  14.850  0.6084  0.7083  1.8455
 7391TIP3    H243589   4.973   6.541  14.854  0.6438  0.7994  3.2230
 7392TIP3   OH243590   0.408   2.519  14.047  1.0375 -0.1418  0.5136
 7392TIP3    H143591   0.348   2.594  14.050  3.1262  1.6140  1.5583
 7392TIP3    H243592   0.394   2.474  14.130  0.1616 -0.6250  0.1188
 7393TIP3   OH243593   1.803   4.811   2.466  0.2323 -0.3070  0.1662
 7393TIP3    H143594   1.732   4.844   2.521 -0.2050  1.7251 -1.4821
 7393TIP3    H243595   1.877   4.802   2.525 -0.6235  0.3547  1.3819
 7394TIP3   OH243596   6.645   6.673   4.043 -0.1745 -0.3707 -0.1152
 7394TIP3    H143597   6.599   6.722   4.111  0.2056  0.6325 -0.5592
 7394TIP3    H243598   6.718   6.631   4.088 -0.7006 -0.8209  0.3313
 7395TIP3   OH243599   0.175   4.146  15.447 -0.6735  0.7519  0.7690
 7395TIP3    H143600   0.106   4.211  15.437  0.9993  2.5349  0.2199
 7395TIP3    H243601   0.247   4.179  15.393  0.5895 -1.0701  1.2420
 7396TIP3   OH243602   3.443   3.733  11.041  0.0119  0.0791  0.2838
 7396TIP3    H143603   3.537   3.742  11.031 -0.0887 -0.4731 -1.4726
 7396TIP3    H243604   3.419   3.659  10.984 -1.3455 -0.4935  1.5105
 7397TIP3   OH243605   6.397   6.464  14.281 -0.1830  0.1196  1.2138
 7397TIP3    H143606   6.369   6.514  14.205  0.4241 -1.0204  0.2073
 7397TIP3    H243607   6.334   6.487  14.349 -1.2302  0.5523  0.1377
 7398TIP3   OH243608   2.322   3.386  13.443  0.4372 -0.4716 -0.0726
 7398TIP3    H143609   2.337   3.454  13.378  0.6740 -1.1231 -0.7053
 7398TIP3    H243610   2.348   3.427  13.526 -1.6896  1.0252 -0.0676
 7399TIP3   OH243611   6.189   2.544   1.412 -0.0873 -0.1821  0.9825
 7399TIP3    H143612   6.144   2.592   1.481  0.2625 -0.1147  1.1638
 7399TIP3    H243613   6.246   2.608   1.370 -1.6884  0.2565 -0.6234
 7400TIP3   OH243614   2.119   0.666  12.739 -0.5263  0.0867 -0.5317
 7400TIP3    H143615   2.168   0.584  12.746 -1.4318 -0.4382 -0.0521
 7400TIP3    H243616   2.068   0.657  12.658 -1.8037 -0.5178  0.3044
 7401TIP3   OH243617   2.236   1.170  15.812 -0.1817 -0.4611 -0.5141
 7401TIP3    H143618   2.166   1.107  15.798 -2.1069  1.5843 -0.6529
 7401TIP3    H243619   2.226   1.233  15.740  0.2993  1.1490  0.7834
 7402TIP3   OH243620   1.054   3.929  12.616 -0.0640 -0.1873  0.2211
 7402TIP3    H143621   0.994   3.992  12.655  0.1624 -0.4057  0.9466
 7402TIP3    H243622   1.141   3.965  12.633  0.0214  0.1725 -0.9028
 7403TIP3   OH243623   4.269   6.603  12.445 -0.6353 -0.8093  0.5158
 7403TIP3    H143624   4.273   6.539  12.516  0.8551 -1.1258  0.1694
 7403TIP3    H243625   4.231   6.681  12.485  0.3837 -0.9120  1.7410
 7404TIP3   OH243626   4.953   1.528  15.962 -0.3337 -0.1956 -0.2658
 7404TIP3    H143627   4.916   1.616  15.960 -1.2854 -0.5302  1.0169
 7404TIP3    H243628   5.048   1.542  15.955 -0.4952  0.8848 -0.5290
 7405TIP3   OH243629   5.593   6.687   2.231  0.6886 -0.1103 -0.2655
 7405TIP3    H143630   5.528   6.717   2.294  0.5599  0.0833 -0.4905
 7405TIP3    H243631   5.671   6.738   2.252  0.9998 -0.8620  0.4823
 7406TIP3   OH243632   3.672   1.378  12.885  0.1830  0.2456 -0.5299
 7406TIP3    H143633   3.680   1.283  12.895  0.5849  0.3539  0.2853
 7406TIP3    H243634   3.616   1.390  12.808  0.2497 -0.6481 -0.7270
 7407TIP3   OH243635   6.392   6.494  12.700  0.5228 -0.7251  0.1257
 7407TIP3    H143636   6.396   6.422  12.638  0.8795 -1.1978  0.6870
 7407TIP3    H243637   6.320   6.470  12.759 -0.3635  0.1204 -0.5830
 7408TIP3   OH243638   6.546   3.889  16.955  0.0045 -0.1955  0.2240
 7408TIP3    H143639   6.610   3.842  16.902  0.8184  1.1257 -0.0338
 7408TIP3    H243640   6.512   3.957  16.896 -0.8610 -0.2220  0.6761
 7409TIP3   OH243641   4.867   1.232   5.429 -0.3407 -0.9801  0.6372
 7409TIP3    H143642   4.935   1.293   5.459  0.4817 -0.9716 -1.0975
 7409TIP3    H243643   4.839   1.187   5.509  0.3869  0.3098  1.6781
 7410TIP3   OH243644   2.858   5.946  15.357  0.0710  0.0265  0.3360
 7410TIP3    H143645   2.902   5.863  15.342  0.0095 -0.2446  1.5624
 7410TIP3    H243646   2.900   6.007  15.297  0.2346 -0.8386 -0.4530
 7411TIP3   OH243647   4.544   6.607  14.517  0.0344  0.2356  0.1647
 7411TIP3    H143648   4.513   6.537  14.458 -1.1327 -0.8612  1.9823
 7411TIP3    H243649   4.487   6.600  14.594  2.3128  0.7581  1.9998
 7412TIP3   OH243650   2.807   3.346   0.826 -0.4417 -0.0213  0.3857
 7412TIP3    H143651   2.758   3.284   0.771  0.4504 -1.7365  1.4621
 7412TIP3    H243652   2.855   3.292   0.887  1.3666  1.6992  0.5947
 7413TIP3   OH243653   3.377   6.183  12.452 -0.1614 -0.3254  0.5749
 7413TIP3    H143654   3.296   6.135  12.440 -0.6819  0.7059 -0.1186
 7413TIP3    H243655   3.445   6.124  12.419 -0.7572 -0.6962 -0.0060
 7414TIP3   OH243656   3.885   0.033  13.438  0.6157  0.4700  0.2096
 7414TIP3    H143657   3.831   0.109  13.417  0.1618 -0.2105 -1.2043
 7414TIP3    H243658   3.853   0.004  13.523 -2.0221 -0.5128 -1.0053
 7415TIP3   OH243659   5.408   3.639  11.407 -0.2042  0.4188 -0.3523
 7415TIP3    H143660   5.403   3.553  11.448 -1.8798  1.2400  1.3016
 7415TIP3    H243661   5.393   3.623  11.314 -1.5984 -0.9796  0.0762
 7416TIP3   OH243662   1.716   2.391   3.906 -0.3739 -0.4075 -0.9411
 7416TIP3    H143663   1.714   2.322   3.973 -0.4693  0.6961  0.2331
 7416TIP3    H243664   1.809   2.410   3.896 -0.1880 -1.9232 -2.6144
 7417TIP3   OH243665   1.335   4.894   2.419 -0.3134 -0.0098 -0.1950
 7417TIP3    H143666   1.294   4.820   2.464  0.1616 -2.5795 -3.5682
 7417TIP3    H243667   1.261   4.945   2.384 -0.6422  1.2999  2.1818
 7418TIP3   OH243668   1.547   4.137  15.749 -0.1031  0.3287  0.3221
 7418TIP3    H143669   1.577   4.106  15.664  0.8396  1.3918  0.2345
 7418TIP3    H243670   1.628   4.147  15.800 -0.6874 -0.7515  1.5209
 7419TIP3   OH243671   5.815   4.659   4.294 -0.5436 -0.7989  0.2770
 7419TIP3    H143672   5.893   4.623   4.337  0.0931 -0.4700 -0.5762
 7419TIP3    H243673   5.848   4.698   4.213 -1.5605 -0.4020  0.0391
 7420TIP3   OH243674   4.364   1.293  12.172  0.2018  0.1537 -0.3102
 7420TIP3    H143675   4.324   1.229  12.230 -0.0268  0.4107 -0.1821
 7420TIP3    H243676   4.458   1.276  12.179  0.2069  0.4532  0.4640
 7421TIP3   OH243677   3.512   3.311   6.196  0.1888  0.1957  0.2776
 7421TIP3    H143678   3.480   3.329   6.108 -0.8725  2.5454  1.0558
 7421TIP3    H243679   3.455   3.242   6.229 -0.3399  0.3248 -0.3603
 7422TIP3   OH243680   1.979   2.903   3.865 -0.9608 -0.3471 -0.1625
 7422TIP3    H143681   2.031   2.937   3.938 -1.7885  0.9696 -0.1579
 7422TIP3    H243682   1.888   2.922   3.890 -1.2997 -0.5643 -1.1934
 7423TIP3   OH243683   2.145   0.663  14.738 -0.3378  0.1758  0.6170
 7423TIP3    H143684   2.240   0.672  14.733 -0.3701  0.6921  0.9589
 7423TIP3    H243685   2.116   0.738  14.789 -1.2829  2.0939 -2.4819
 7424TIP3   OH243686   4.876   4.833   5.997  0.2594 -0.3515 -0.3355
 7424TIP3    H143687   4.930   4.907   5.969 -0.4113  0.1511 -0.3241
 7424TIP3    H243688   4.826   4.866   6.071  2.0754 -1.6949  1.5872
 7425TIP3   OH243689   2.034   5.947  16.168  0.0538 -0.3267  0.3074
 7425TIP3    H143690   1.948   5.989  16.173  0.1024 -0.1565 -0.1874
 7425TIP3    H243691   2.078   5.974  16.248 -0.5854 -0.9424  0.8786
 7426TIP3   OH243692   2.891   1.408   1.906  0.2974  0.2452  0.3030
 7426TIP3    H143693   2.975   1.365   1.920  0.4824  0.1766 -0.9522
 7426TIP3    H243694   2.830   1.360   1.961  1.3168  1.2283  2.4334
 7427TIP3   OH243695   1.603   1.298  12.611  0.0349  0.2496 -0.3977
 7427TIP3    H143696   1.675   1.304  12.674 -2.4572  0.6461  2.6751
 7427TIP3    H243697   1.598   1.205  12.589  0.8424  0.0537  0.1868
 7428TIP3   OH243698   0.289   3.843  14.586  0.3687  0.0553 -0.3314
 7428TIP3    H143699   0.221   3.786  14.622  0.6091 -0.5421 -0.8006
 7428TIP3    H243700   0.245   3.890  14.515  0.5214 -0.5975 -0.8734
 7429TIP3   OH243701   0.383   2.101   2.617 -0.2175 -0.1212 -0.2148
 7429TIP3    H143702   0.414   2.012   2.599  0.7372  0.3864 -1.1926
 7429TIP3    H243703   0.451   2.158   2.580  0.4121  1.0420  2.4991
 7430TIP3   OH243704   2.492   4.085  14.029 -0.2796  0.3185 -0.1531
 7430TIP3    H143705   2.562   4.032  13.990  0.5621  2.3263 -1.5703
 7430TIP3    H243706   2.474   4.044  14.113  1.9247 -0.8508 -0.1823
 7431TIP3   OH243707   6.126   2.423   4.215 -0.1769 -0.0013 -0.0257
 7431TIP3    H143708   6.134   2.518   4.209  0.7347 -0.0792 -0.1562
 7431TIP3    H243709   6.057   2.408   4.280  1.8616  0.7454  2.4997
 7432TIP3   OH243710   4.847   2.521  16.811  0.5117 -0.6163  0.1302
 7432TIP3    H143711   4.880   2.596  16.762 -1.2639 -0.8212 -1.4602
 7432TIP3    H243712   4.872   2.445  16.758 -1.6218 -0.8238 -0.6559
 7433TIP3   OH243713   6.199   0.903   4.451  0.3899  0.5510 -0.5008
 7433TIP3    H143714   6.196   0.974   4.387  0.1692  1.2993  0.3173
 7433TIP3    H243715   6.134   0.928   4.517 -1.3626 -1.5589 -1.3330
 7434TIP3   OH243716   0.762   0.471  17.244 -0.1641 -0.3321 -0.2151
 7434TIP3    H143717   0.702   0.480  17.171 -2.3000  1.1854  1.6141
 7434TIP3    H243718   0.777   0.560  17.275 -0.1887 -0.9941  1.8513
 7435TIP3   OH243719   2.833   0.167   6.381  0.0658 -0.0226  0.0611
 7435TIP3    H143720   2.773   0.093   6.390  0.3108 -0.5866 -2.3413
 7435TIP3    H243721   2.789   0.227   6.322  0.3401  1.2879  1.1518
 7436TIP3   OH243722   4.179   3.642  10.536 -0.0567  1.0094  0.0425
 7436TIP3    H143723   4.272   3.662  10.527  0.5455 -0.1304  2.6252
 7436TIP3    H243724   4.164   3.644  10.631 -1.7167 -2.5279  0.0292
 7437TIP3   OH243725   5.947   6.290   5.976  0.0504  0.1219  0.4254
 7437TIP3    H143726   5.966   6.252   5.890  1.2354  1.4645  0.0571
 7437TIP3    H243727   5.880   6.356   5.960  2.2358  2.3587 -0.0261
 7438TIP3   OH243728   0.410   5.848  15.065 -0.3530 -0.2169 -0.8096
 7438TIP3    H143729   0.330   5.899  15.055 -0.0374  0.2788 -0.8751
 7438TIP3    H243730   0.476   5.897  15.016  0.3394  0.2135  0.4972
 7439TIP3   OH243731   5.382   3.944  14.314 -0.2760 -0.1039 -0.0705
 7439TIP3    H143732   5.346   3.961  14.227 -1.8346  0.6514  0.6810
 7439TIP3    H243733   5.417   4.028  14.342 -1.7411  0.2186  0.8783
 7440TIP3   OH243734   1.368   4.723   5.145  0.1635  0.2916  0.4615
 7440TIP3    H143735   1.419   4.779   5.086  0.3516 -0.9890 -0.6413
 7440TIP3    H243736   1.297   4.690   5.091 -0.4602  0.1603  1.3433
 7441TIP3   OH243737   2.746   4.719   3.679 -0.0627  0.1838  0.4008
 7441TIP3    H143738   2.822   4.770   3.707  0.0668 -0.6622  1.6645
 7441TIP3    H243739   2.777   4.629   3.678 -0.4261  0.0403 -1.3332
 7442TIP3   OH243740   0.023   5.849  12.388 -1.0151  0.6209  0.0393
 7442TIP3    H143741  -0.000   5.941  12.374 -0.3697  0.5753 -1.5798
 7442TIP3    H243742   0.111   5.852  12.425 -1.6378  0.6751  1.5635
 7443TIP3   OH243743   3.989   4.035  11.845  0.1860 -0.5200 -0.0910
 7443TIP3    H143744   4.078   4.063  11.868 -0.8351  2.3239  0.8373
 7443TIP3    H243745   3.960   4.099  11.780 -1.1629 -1.4360 -0.4306
 7444TIP3   OH243746   0.509   0.569  15.850  0.3417  0.1317 -0.0001
 7444TIP3    H143747   0.438   0.549  15.789 -0.2452  0.5657  0.5406
 7444TIP3    H243748   0.564   0.632  15.803 -0.8886  1.5706  0.4591
 7445TIP3   OH243749   2.541   5.417  11.081  0.1778  0.2851  0.1222
 7445TIP3    H143750   2.566   5.329  11.054  0.4360  0.1239  0.8613
 7445TIP3    H243751   2.518   5.462  11.000  1.5911  0.0414 -0.4369
 7446TIP3   OH243752   5.938   6.192  11.640  0.0544 -0.0295  0.1319
 7446TIP3    H143753   6.010   6.219  11.583  0.7037 -1.4375  0.2456
 7446TIP3    H243754   5.950   6.243  11.721  0.6324  0.0847 -0.0258
 7447TIP3   OH243755   0.885   1.587   4.592 -0.5212  0.2241  0.2548
 7447TIP3    H143756   0.937   1.660   4.560  0.1871  0.6117  2.1417
 7447TIP3    H243757   0.948   1.528   4.633 -1.0408 -1.6263 -1.4428
 7448TIP3   OH243758   2.406   4.424  12.368  0.2970  0.2943 -0.5415
 7448TIP3    H143759   2.477   4.419  12.304  2.9619  0.7289  2.1547
 7448TIP3    H243760   2.369   4.336  12.370  0.5056  0.1390 -2.2457
 7449TIP3   OH243761   1.928   1.683   0.670 -0.6576 -0.7369 -0.5014
 7449TIP3    H143762   1.987   1.668   0.596 -0.9804 -0.3908 -0.8333
 7449TIP3    H243763   1.861   1.615   0.662 -0.7175 -0.6723 -0.5565
 7450TIP3   OH243764   0.738   2.578  15.124  0.2826 -0.0742 -0.1641
 7450TIP3    H143765   0.833   2.586  15.133  0.1778  0.0159  0.9911
 7450TIP3    H243766   0.703   2.656  15.167 -0.2695  1.0486 -2.5175
 7451TIP3   OH243767   1.475   4.804  12.700  0.1512 -0.1970  0.0720
 7451TIP3    H143768   1.414   4.840  12.765  0.6371 -0.7511  0.8429
 7451TIP3    H243769   1.562   4.824  12.735  0.4263 -0.1304 -0.6246
 7452TIP3   OH243770   0.130   4.405   0.159  0.1371 -0.1895 -0.1658
 7452TIP3    H143771   0.124   4.500   0.154  1.9623  0.0494  1.1318
 7452TIP3    H243772   0.091   4.374   0.077  0.9041  1.7448 -1.3387
 7453TIP3   OH243773   0.736   3.521  11.311 -0.1964 -1.0277 -0.3135
 7453TIP3    H143774   0.665   3.555  11.257 -0.3110 -0.8125 -0.0306
 7453TIP3    H243775   0.802   3.492  11.248  0.9440  1.8618 -0.6219
 7454TIP3   OH243776   4.847   4.825  14.241 -0.4625 -0.1204 -0.4773
 7454TIP3    H143777   4.927   4.815  14.189 -0.7472 -2.2342 -0.6224
 7454TIP3    H243778   4.878   4.839  14.331  0.1167 -1.3517 -0.4614
 7455TIP3   OH243779   6.269   6.225  17.248 -0.4896  0.1943  0.1832
 7455TIP3    H143780   6.194   6.178  17.214 -0.0004 -0.8324  0.4915
 7455TIP3    H243781   6.288   6.183  17.332  1.5324 -0.7991 -0.6936
 7456TIP3   OH243782   2.587   6.231   1.875 -0.1307  0.0347  0.2339
 7456TIP3    H143783   2.553   6.221   1.964 -2.1030 -0.8546 -0.5601
 7456TIP3    H243784   2.565   6.321   1.852 -1.6432 -0.3898 -0.1016
 7457TIP3   OH243785   2.478   5.630   2.926 -0.1479 -0.2405 -0.0307
 7457TIP3    H143786   2.407   5.657   2.868  0.0118 -1.0659 -0.6397
 7457TIP3    H243787   2.534   5.707   2.934 -0.6706  0.1639 -0.2110
 7458TIP3   OH243788   4.351   6.476  14.363 -0.1088  0.4428 -0.6784
 7458TIP3    H143789   4.268   6.448  14.401 -0.0584 -0.3484 -1.1378
 7458TIP3    H243790   4.332   6.490  14.270  0.1711  0.6746 -0.7024
 7459TIP3   OH243791   0.779   0.668  10.203  0.3831  0.1322 -0.6112
 7459TIP3    H143792   0.828   0.663  10.285  0.2577  0.3829 -0.5209
 7459TIP3    H243793   0.833   0.722  10.146  0.5315 -0.1473 -0.7378
 7460TIP3   OH243794   4.439   3.321  15.409  0.2413 -0.3811  0.4378
 7460TIP3    H143795   4.474   3.391  15.463  1.5994 -0.4152 -0.3381
 7460TIP3    H243796   4.344   3.336  15.407  0.2830  0.1719  1.9949
 7461TIP3   OH243797   6.602   5.545  16.339 -0.1139  0.4833 -0.3456
 7461TIP3    H143798   6.567   5.633  16.357 -2.0340 -0.2810 -0.1055
 7461TIP3    H243799   6.622   5.546  16.245  0.5713  1.3890 -0.2041
 7462TIP3   OH243800   6.021   5.503  17.205 -0.2977 -0.1802 -0.3670
 7462TIP3    H143801   5.938   5.523  17.162 -0.0358 -0.2212 -0.9048
 7462TIP3    H243802   6.009   5.415  17.241  0.1419 -1.0077 -2.1119
 7463TIP3   OH243803   6.533   0.105  16.056 -0.6724 -0.6764 -0.0357
 7463TIP3    H143804   6.547   0.021  16.013 -0.6517 -0.6309 -0.1204
 7463TIP3    H243805   6.517   0.166  15.983 -0.1463 -0.5000 -0.0034
 7464TIP3   OH243806   1.575   0.131  16.821 -0.4135  0.0086 -0.3986
 7464TIP3    H143807   1.589   0.179  16.902  0.2501 -1.1911  0.2294
 7464TIP3    H243808   1.656   0.082  16.807 -1.8394 -2.8193  0.3495
 7465TIP3   OH243809   4.348   3.174  13.150  0.7464 -0.0462  0.1729
 7465TIP3    H143810   4.380   3.263  13.131  0.1617  0.1762  0.1985
 7465TIP3    H243811   4.265   3.169  13.103 -0.1088  0.0586  1.6164
 7466TIP3   OH243812   2.084   5.210  15.584 -0.0022  0.3985  0.1115
 7466TIP3    H143813   2.124   5.292  15.556  1.5753 -0.3199  0.1273
 7466TIP3    H243814   2.028   5.234  15.658  0.3476  1.4653  0.0446
 7467TIP3   OH243815   0.298   4.943  11.513  0.6163  0.0250  0.1042
 7467TIP3    H143816   0.291   4.988  11.598 -0.5189 -2.7817  1.6164
 7467TIP3    H243817   0.388   4.958  11.486  1.3085  0.1907  2.2973
 7468TIP3   OH243818   0.376   3.122   5.888  0.0644  0.3544  0.4441
 7468TIP3    H143819   0.371   3.217   5.901 -1.0085  0.2862  0.6200
 7468TIP3    H243820   0.387   3.086   5.976  0.8565  0.3193  0.3446
 7469TIP3   OH243821   1.524   1.147   4.252 -0.1965  0.4347 -0.3522
 7469TIP3    H143822   1.477   1.178   4.330 -0.6978  2.1497 -1.2830
 7469TIP3    H243823   1.510   1.053   4.252  0.4484  0.2783  2.0235
 7470TIP3   OH243824   2.276   6.309  14.613  0.7496  0.3240  0.2937
 7470TIP3    H143825   2.196   6.306  14.559  1.8831  0.1808 -1.4732
 7470TIP3    H243826   2.273   6.228  14.664 -1.8735  1.8772  2.8551
 7471TIP3   OH243827   3.766   5.283  15.704 -0.0266 -0.2380 -0.5373
 7471TIP3    H143828   3.718   5.212  15.661  1.3119 -1.2123 -0.4639
 7471TIP3    H243829   3.792   5.247  15.789 -0.6126  0.8682  0.1499
 7472TIP3   OH243830   2.087   5.602  15.149 -0.5591  0.0128 -0.2648
 7472TIP3    H143831   2.003   5.582  15.189 -0.3759  0.7686  0.5078
 7472TIP3    H243832   2.112   5.520  15.104 -1.7744 -0.1565 -0.6625
 7473TIP3   OH243833   1.019   1.163  16.179 -0.4734  0.1798 -0.1488
 7473TIP3    H143834   1.046   1.156  16.088 -2.2175 -1.3226 -0.5948
 7473TIP3    H243835   1.011   1.072  16.209 -2.8390  0.5618  0.5691
 7474TIP3   OH243836   4.653   2.780  12.895  0.5222 -0.2301  0.5383
 7474TIP3    H143837   4.605   2.846  12.846 -0.0479 -0.2351  1.0873
 7474TIP3    H243838   4.662   2.816  12.983  1.5717 -0.2088  0.4365
 7475TIP3   OH243839   6.655   3.536  16.490  0.4465 -0.1497  0.5929
 7475TIP3    H143840   6.617   3.613  16.449  2.2103  0.0672 -0.7936
 7475TIP3    H243841   6.591   3.466  16.475 -0.4204  0.6731  0.3787
 7476TIP3   OH243842   4.241   3.679   1.271  0.6609  0.1312  0.2999
 7476TIP3    H143843   4.226   3.586   1.255  0.4959  0.1018  0.6267
 7476TIP3    H243844   4.167   3.723   1.230  1.0502  0.1640 -0.3885
 7477TIP3   OH243845   2.378   5.235  10.856  0.2670 -0.4554  0.1708
 7477TIP3    H143846   2.307   5.300  10.859 -0.3662 -0.8803 -2.7460
 7477TIP3    H243847   2.415   5.244  10.768  4.0168 -0.1744  1.5776
 7478TIP3   OH243848   6.644   2.372  14.609 -0.3107  0.3016  0.0867
 7478TIP3    H143849   6.622   2.334  14.694 -0.2089 -1.3670 -0.6044
 7478TIP3    H243850   6.697   2.449  14.631 -0.9036  0.3342  1.5455
 7479TIP3   OH243851   1.534   4.404  11.667  0.5575  0.3603  0.0861
 7479TIP3    H143852   1.561   4.357  11.588 -2.1114  0.8648 -1.2715
 7479TIP3    H243853   1.609   4.458  11.690  1.4943  0.0769 -2.0450
 7480TIP3   OH243854   3.525   6.170   5.296 -0.1783 -0.1393  0.3014
 7480TIP3    H143855   3.525   6.086   5.343 -1.1455  0.0637  0.6870
 7480TIP3    H243856   3.570   6.230   5.355  2.6278 -0.8473 -0.9283
 7481TIP3   OH243857   0.505   1.666   0.925  0.0891 -0.0694 -0.4320
 7481TIP3    H143858   0.471   1.748   0.961 -0.4723 -0.3249 -0.3848
 7481TIP3    H243859   0.562   1.632   0.994  0.6878  0.4950 -0.6222
 7482TIP3   OH243860   2.604   2.631   0.319 -0.2459 -0.3720  0.7031
 7482TIP3    H143861   2.527   2.674   0.357 -1.8803 -2.3822 -0.1421
 7482TIP3    H243862   2.573   2.543   0.297  2.3608 -1.2888  0.4344
 7483TIP3   OH243863   1.639   0.935   5.327  0.1393  0.5848 -0.5370
 7483TIP3    H143864   1.606   0.861   5.275  2.6192 -0.3688 -0.8711
 7483TIP3    H243865   1.577   1.005   5.309 -0.6513 -0.5259 -2.6012
 7484TIP3   OH243866   1.194   0.299  15.706  0.3346  0.2837 -0.3830
 7484TIP3    H143867   1.111   0.289  15.659 -0.8978 -0.1654  1.7488
 7484TIP3    H243868   1.258   0.252  15.652 -0.4868  1.6500 -2.6805
 7485TIP3   OH243869   5.545   1.092   1.881  0.4308 -0.0806  0.0031
 7485TIP3    H143870   5.508   1.066   1.797  1.4007 -1.5060 -0.0212
 7485TIP3    H243871   5.588   1.176   1.863  0.3682 -0.2241 -0.8612
 7486TIP3   OH243872   1.860   4.725  14.864  0.0993  0.5234  0.3392
 7486TIP3    H143873   1.812   4.743  14.945  0.0855  2.7780 -0.1106
 7486TIP3    H243874   1.814   4.777  14.798 -0.3404 -1.8219 -1.3236
 7487TIP3   OH243875   4.166   3.517   3.667  0.1824 -0.3536 -0.1332
 7487TIP3    H143876   4.159   3.505   3.572 -2.6990 -2.3220  0.2105
 7487TIP3    H243877   4.116   3.596   3.685 -0.0680 -0.5089 -0.1519
 7488TIP3   OH243878   6.726   0.557   0.723 -0.2115  0.6984 -0.1984
 7488TIP3    H143879   6.765   0.550   0.636  0.3601  3.6523 -0.2824
 7488TIP3    H243880   6.758   0.480   0.771  1.9217  0.5996 -1.6750
 7489TIP3   OH243881   1.833   0.865  11.232 -0.6334 -0.3153 -0.4919
 7489TIP3    H143882   1.894   0.939  11.239 -0.1865 -0.7600  0.4809
 7489TIP3    H243883   1.753   0.903  11.195 -0.0140  0.4175 -1.0990
 7490TIP3   OH243884   5.452   0.244  14.865 -0.6028 -0.9282 -0.1190
 7490TIP3    H143885   5.497   0.161  14.881  1.2785 -0.4180 -2.2527
 7490TIP3    H243886   5.401   0.230  14.785 -1.8912 -0.5793  0.6029
 7491TIP3   OH243887   4.445   5.425   5.764 -0.3486  0.2587 -0.3386
 7491TIP3    H143888   4.355   5.439   5.791  0.0815  0.1409  1.2722
 7491TIP3    H243889   4.496   5.433   5.845  1.0994  0.4420 -1.2243
 7492TIP3   OH243890   2.526   2.845  16.627  0.1717  0.2406 -0.4431
 7492TIP3    H143891   2.608   2.797  16.614 -0.6232 -1.5347  0.6693
 7492TIP3    H243892   2.479   2.835  16.544 -0.0471 -1.1119 -0.1775
 7493TIP3   OH243893   1.922   0.396  12.835 -0.2917  0.0878  0.6779
 7493TIP3    H143894   1.999   0.382  12.891 -0.2656  0.6521  0.7855
 7493TIP3    H243895   1.928   0.326  12.769  1.4498  1.3239 -0.5527
 7494TIP3   OH243896   4.147   3.694  13.374 -0.0991  0.7804  0.1602
 7494TIP3    H143897   4.183   3.626  13.431  0.6485 -0.3121 -1.5113
 7494TIP3    H243898   4.058   3.707  13.404  0.3386  0.4195  1.6927
 7495TIP3   OH243899   0.262   1.285  15.197 -0.0114 -0.5461 -0.9449
 7495TIP3    H143900   0.199   1.214  15.183  0.3156 -1.3915  1.4793
 7495TIP3    H243901   0.217   1.346  15.255 -0.3446  1.4170 -3.1005
 7496TIP3   OH243902   0.722   0.505  16.969  0.2676  0.3945  0.4118
 7496TIP3    H143903   0.663   0.579  16.983  1.2030  1.0333  1.1014
 7496TIP3    H243904   0.808   0.544  16.961  0.6187 -0.5332 -0.5433
 7497TIP3   OH243905   6.725   5.974   4.871  0.3432 -0.1214 -0.8699
 7497TIP3    H143906   6.638   5.936   4.887  0.8017 -0.5604  0.7502
 7497TIP3    H243907   6.777   5.900   4.837  0.2735 -0.0229 -1.1974
 7498TIP3   OH243908   6.367   4.529   1.267 -0.1977 -0.4125 -0.2884
 7498TIP3    H143909   6.384   4.527   1.362  0.7656 -0.6447 -0.4560
 7498TIP3    H243910   6.294   4.589   1.258  0.3139  0.3628  0.5212
 7499TIP3   OH243911   4.486   6.292  15.412  0.1364  0.2502  0.0404
 7499TIP3    H143912   4.428   6.221  15.439  0.8995 -0.4568 -0.1667
 7499TIP3    H243913   4.574   6.255  15.417  0.4948  0.9717 -0.7078
 7500TIP3   OH243914   5.337   3.550   2.435 -0.3781  0.2834 -0.2714
 7500TIP3    H143915   5.410   3.497   2.466 -0.7136 -0.3322 -0.4993
 7500TIP3    H243916   5.301   3.591   2.514 -0.3065 -0.0862 -0.0424
 7501TIP3   OH243917   3.529   2.725   5.574 -0.5639  0.0679  0.0684
 7501TIP3    H143918   3.543   2.788   5.644  0.3668 -1.1561  1.0108
 7501TIP3    H243919   3.440   2.693   5.589 -0.0283 -0.9013  1.3010
 7502TIP3   OH243920   6.222   6.655   3.744  0.0283  0.4547 -0.4445
 7502TIP3    H143921   6.316   6.653   3.727  0.1642 -1.9710  0.1121
 7502TIP3    H243922   6.215   6.656   3.840 -0.4541 -0.3873 -0.4516
 7503TIP3   OH243923   1.836   5.611   1.973 -0.6984 -0.2109  0.2269
 7503TIP3    H143924   1.792   5.547   2.028 -0.2287  0.1346  1.0348
 7503TIP3    H243925   1.791   5.607   1.889 -2.3209  0.1851  1.0442
 7504TIP3   OH243926   2.388   3.028   3.163 -0.9056 -0.2899  0.6687
 7504TIP3    H143927   2.325   3.099   3.157  1.2046  1.7496  1.3009
 7504TIP3    H243928   2.382   2.998   3.253 -0.7292  0.1484  0.8283
 7505TIP3   OH243929   0.478   0.791  11.962 -0.2122 -0.6590  0.6729
 7505TIP3    H143930   0.497   0.871  11.912 -0.1671 -1.1269 -0.0835
 7505TIP3    H243931   0.490   0.816  12.053 -1.7085  0.6325  0.5698
 7506TIP3   OH243932   5.681   5.029  12.322  0.4351 -0.6904 -0.2191
 7506TIP3    H143933   5.758   5.017  12.378  0.7680 -1.3049 -0.7855
 7506TIP3    H243934   5.657   4.941  12.294 -0.3659 -0.4851 -0.2043
 7507TIP3   OH243935   3.081   0.981   3.007  0.2861  0.0276 -0.1642
 7507TIP3    H143936   3.052   0.893   3.030 -1.4138  0.8820  1.2156
 7507TIP3    H243937   3.163   0.993   3.054 -0.1101 -0.3903  0.6503
 7508TIP3   OH243938   5.338   3.876   3.091  0.2501 -0.1190  0.1627
 7508TIP3    H143939   5.327   3.948   3.152  0.3949  0.5183 -0.5510
 7508TIP3    H243940   5.288   3.804   3.130 -0.7162  0.6540  0.3935
 7509TIP3   OH243941   3.977   5.507   5.397  0.1007  0.0968  0.3969
 7509TIP3    H143942   3.920   5.584   5.401  0.0339  0.0955 -0.3131
 7509TIP3    H243943   3.947   5.451   5.468  0.5291  0.9748  1.3060
 7510TIP3   OH243944   3.634   2.002   4.122 -0.0911  0.1732 -0.2304
 7510TIP3    H143945   3.690   2.077   4.142  0.1693 -0.0195 -0.2331
 7510TIP3    H243946   3.592   2.024   4.039  0.7500 -0.1198 -0.7355
 7511TIP3   OH243947   4.256   0.975  11.745  0.3456  0.0060  0.5033
 7511TIP3    H143948   4.332   1.028  11.765 -0.6125  0.7641  2.4245
 7511TIP3    H243949   4.228   1.004  11.658  1.5105  0.5864  0.3086
 7512TIP3   OH243950   1.419   0.981   0.631 -0.0425  0.1317  0.2910
 7512TIP3    H143951   1.451   1.067   0.659  0.1476  1.0843 -2.4454
 7512TIP3    H243952   1.362   0.952   0.702  2.0810  1.1824  2.5679
 7513TIP3   OH243953   1.190   3.570   0.733  0.3318 -0.0487 -0.4757
 7513TIP3    H143954   1.095   3.583   0.734  0.1729 -0.9361 -1.7097
 7513TIP3    H243955   1.222   3.616   0.811 -0.7801  2.7984 -1.5624
 7514TIP3   OH243956   5.884   1.635   4.894 -0.4499 -0.5493  0.0509
 7514TIP3    H143957   5.796   1.669   4.875 -0.2344 -0.1822 -0.3197
 7514TIP3    H243958   5.925   1.705   4.946 -0.0778 -0.3363 -0.5252
 7515TIP3   OH243959   2.004   1.000  11.705 -0.4086 -0.5638  0.1646
 7515TIP3    H143960   1.974   1.046  11.627  0.2493 -0.2528  0.0820
 7515TIP3    H243961   1.966   0.913  11.699 -0.8379 -0.3534 -0.2009
 7516TIP3   OH243962   2.560   2.708   2.518 -0.2150  0.7379  0.2960
 7516TIP3    H143963   2.648   2.743   2.501 -0.4237  1.1368  0.0251
 7516TIP3    H243964   2.571   2.651   2.594  1.5046 -3.8759 -2.9701
 7517TIP3   OH243965   5.600   4.248   0.050 -0.8287 -0.7022 -0.6573
 7517TIP3    H143966   5.646   4.270   0.131  2.8813 -1.9976 -2.1524
 7517TIP3    H243967   5.567   4.159   0.065  0.2029 -1.1012 -0.6354
 7518TIP3   OH243968   5.378   0.858  14.412  0.4474  0.1123 -0.0301
 7518TIP3    H143969   5.472   0.843  14.418  0.2492 -0.6028  2.3803
 7518TIP3    H243970   5.348   0.860  14.503 -2.2768 -2.6173 -0.6860
 7519TIP3   OH243971   0.981   3.986  11.706 -0.4814  0.2507  0.4134
 7519TIP3    H143972   0.937   3.908  11.671 -0.9505  1.2849 -1.3981
 7519TIP3    H243973   0.955   4.056  11.647  2.5500  1.1867  0.0622
 7520TIP3   OH243974   5.913   2.273   2.510 -0.5888  0.0701 -0.2047
 7520TIP3    H143975   5.973   2.320   2.568 -2.1304 -0.5707  2.0593
 7520TIP3    H243976   5.942   2.182   2.515 -1.1089 -0.0832  0.0945
 7521TIP3   OH243977   5.463   6.353   0.155 -0.2930 -0.3955  0.1059
 7521TIP3    H143978   5.387   6.320   0.108  0.8688 -0.7136 -1.6400
 7521TIP3    H243979   5.465   6.302   0.236 -1.8536 -0.4696  0.1128
 7522TIP3   OH243980   6.682   4.063  12.134 -0.3154  0.2305 -0.0637
 7522TIP3    H143981   6.657   3.987  12.082 -0.3889 -0.2630  0.6684
 7522TIP3    H243982   6.601   4.092  12.175 -0.0046 -0.4486  1.1150
 7523TIP3   OH243983   4.329   5.989  11.983 -0.3317 -0.6274  0.7170
 7523TIP3    H143984   4.302   5.959  12.069 -0.3230  0.4972  1.1309
 7523TIP3    H243985   4.247   6.005  11.936 -0.3410 -2.2143  0.1384
 7524TIP3   OH243986   4.075   5.494  12.898 -0.4858 -0.0694 -0.3509
 7524TIP3    H143987   3.996   5.547  12.887  1.0220  2.9598  1.9675
 7524TIP3    H243988   4.068   5.458  12.986  1.2741  1.4907  0.5055
 7525TIP3   OH243989   5.969   3.362  12.217 -0.1592  0.0971  0.0154
 7525TIP3    H143990   5.956   3.456  12.224  0.1101  0.2286 -1.0695
 7525TIP3    H243991   5.934   3.339  12.131 -0.7462 -0.8924  0.4917
 7526TIP3   OH243992   1.447   4.229   3.288 -0.0080 -0.6338  0.1626
 7526TIP3    H143993   1.510   4.210   3.357 -0.4530 -0.8530  0.5188
 7526TIP3    H243994   1.395   4.301   3.323 -1.9600 -2.4250  1.2366
 7527TIP3   OH243995   4.001   0.025   1.894 -0.2141 -0.5250 -0.1526
 7527TIP3    H143996   4.090   0.057   1.876 -0.4850 -0.3033 -1.2009
 7527TIP3    H243997   4.014  -0.060   1.936  0.4964 -0.5530 -0.4166
 7528TIP3   OH243998   5.110   0.518  11.365  0.3527 -0.2638  0.2302
 7528TIP3    H143999   5.167   0.591  11.340 -1.0175  0.0369 -2.3351
 7528TIP3    H244000   5.128   0.451  11.299 -2.0791 -0.2104 -0.5779
 7529TIP3   OH244001   0.696   2.391   6.169  0.4911  0.3514  0.4914
 7529TIP3    H144002   0.761   2.455   6.140 -0.2358  0.9428  0.1022
 7529TIP3    H244003   0.619   2.444   6.189 -0.3573 -0.4501 -0.5071
 7530TIP3   OH244004   4.520   0.174  12.485 -0.0078  0.5747  0.6018
 7530TIP3    H144005   4.512   0.090  12.440  0.5498  0.0810  1.3871
 7530TIP3    H244006   4.447   0.227  12.451 -2.2653 -1.2364  2.2529
 7531TIP3   OH244007   3.019   1.481  15.337 -0.0435 -0.2662  0.3221
 7531TIP3    H144008   3.057   1.513  15.256  0.4575 -2.4021 -0.3258
 7531TIP3    H244009   2.931   1.519  15.339  0.3466  0.7221 -0.6226
 7532TIP3   OH244010   4.655   3.253  15.270 -0.4399 -0.8239 -0.4426
 7532TIP3    H144011   4.565   3.279  15.291 -0.2128  0.4501 -1.0048
 7532TIP3    H244012   4.680   3.309  15.197  0.9098 -0.9872 -0.1266
 7533TIP3   OH244013   0.234   3.353   2.138 -0.1229  0.3677 -0.3529
 7533TIP3    H144014   0.287   3.277   2.158 -0.2977  0.3583  0.0759
 7533TIP3    H244015   0.251   3.370   2.045  0.9318  0.6125 -0.1245
 7534TIP3   OH244016   2.489   6.024   0.263  0.1029 -0.6508 -0.4472
 7534TIP3    H144017   2.571   6.041   0.310 -0.2258 -0.8424  0.2209
 7534TIP3    H244018   2.509   6.040   0.171  0.4898  0.8062 -0.1359
 7535TIP3   OH244019   3.706   0.174  16.488 -0.2194  0.1072 -0.4090
 7535TIP3    H144020   3.700   0.133  16.402  1.3615  2.5549 -1.8286
 7535TIP3    H244021   3.746   0.107  16.544 -0.9580 -1.4207 -1.6266
 7536TIP3   OH244022   1.331   1.208  15.541 -0.0009 -0.1705  0.5890
 7536TIP3    H144023   1.410   1.172  15.582 -0.2509 -0.2418  1.0256
 7536TIP3    H244024   1.290   1.133  15.499  0.0859 -0.1637  0.4921
 7537TIP3   OH244025   5.659   3.605   6.315 -0.0645 -0.1739  0.1542
 7537TIP3    H144026   5.720   3.650   6.375 -0.0886 -0.8560  0.7015
 7537TIP3    H244027   5.685   3.513   6.320 -1.0878 -0.4586  0.3247
 7538TIP3   OH244028   2.656   1.230   5.707 -0.6618  0.6114  0.2001
 7538TIP3    H144029   2.722   1.163   5.696 -1.4364 -0.0693 -0.4197
 7538TIP3    H244030   2.624   1.218   5.796 -1.5293 -0.5422 -0.2501
 7539TIP3   OH244031   4.886   2.013  15.126  0.3832 -0.1295  0.3547
 7539TIP3    H144032   4.955   2.042  15.184  0.8445  0.6805 -0.5726
 7539TIP3    H244033   4.888   1.917  15.132  0.7197 -0.0662  1.3091
 7540TIP3   OH244034   5.081   1.373  12.841  0.3183 -0.1878  0.2522
 7540TIP3    H144035   5.137   1.312  12.794  0.5781  0.3334 -0.1287
 7540TIP3    H244036   5.023   1.409  12.774  0.1799 -0.0085  0.4667
 7541TIP3   OH244037   1.085   5.011   6.080  0.1187 -0.2400 -0.4180
 7541TIP3    H144038   1.032   5.082   6.117  0.2238  0.1269 -0.9640
 7541TIP3    H244039   1.040   4.931   6.109 -0.3613  0.0546 -0.3268
 7542TIP3   OH244040   2.477   1.582  11.253 -0.2593  0.3805 -0.0620
 7542TIP3    H144041   2.494   1.496  11.291 -0.2471  0.7183  0.7182
 7542TIP3    H244042   2.523   1.580  11.169 -2.5392 -1.3758 -1.3959
 7543TIP3   OH244043   4.230   2.633  16.703  0.2750  0.4366  0.5033
 7543TIP3    H144044   4.249   2.581  16.626  1.8954 -0.1100  1.2207
 7543TIP3    H244045   4.135   2.633  16.710  0.1342 -0.0396 -1.1087
 7544TIP3   OH244046   3.550   3.263   3.610 -1.3536 -0.1224  0.4026
 7544TIP3    H144047   3.638   3.296   3.625 -2.0363  1.4540  1.1963
 7544TIP3    H244048   3.531   3.209   3.687 -1.3427  0.1162  0.5722
 7545TIP3   OH244049   0.157   5.125  15.815 -1.4318  0.0973  0.5770
 7545TIP3    H144050   0.187   5.198  15.761 -0.4633 -0.5171  0.2387
 7545TIP3    H244051   0.096   5.077  15.759 -0.7431 -0.3092  0.1667
 7546TIP3   OH244052   4.362   3.083  11.270 -0.3771  0.2498 -0.2737
 7546TIP3    H144053   4.330   3.052  11.355  0.4496  2.8551  1.1218
 7546TIP3    H244054   4.290   3.066  11.209 -1.7633  0.0233  1.3568
 7547TIP3   OH244055   4.086   0.915   0.376  0.2726  0.2152  0.0411
 7547TIP3    H144056   4.101   0.849   0.308 -0.5509 -1.5007  1.4593
 7547TIP3    H244057   4.164   0.971   0.372  0.4229 -0.0593 -2.0262
 7548TIP3   OH244058   6.206   0.442   5.730 -0.0281  0.0604  0.1051
 7548TIP3    H144059   6.188   0.350   5.712  0.9052 -0.1534  0.2131
 7548TIP3    H244060   6.298   0.454   5.705  0.2071  0.6631  1.1944
 7549TIP3   OH244061   2.895   2.482  12.150 -0.0301 -0.2113 -0.3791
 7549TIP3    H144062   2.909   2.577  12.147  0.8469 -0.2788  1.0143
 7549TIP3    H244063   2.879   2.463  12.242 -0.3303 -1.4047 -0.6676
 7550TIP3   OH244064   4.338   2.647   1.600  0.8404 -0.5255 -0.6584
 7550TIP3    H144065   4.345   2.703   1.522  0.0004  1.1110  0.3896
 7550TIP3    H244066   4.280   2.576   1.573  0.2484  0.2330 -1.4151
 7551TIP3   OH244067   5.055   6.352  14.289  0.5193  0.1561 -0.0216
 7551TIP3    H144068   5.087   6.381  14.204 -0.5337 -0.0962 -0.5161
 7551TIP3    H244069   5.041   6.433  14.338 -0.0849  0.3731 -0.5417
 7552TIP3   OH244070   2.406   2.324  11.957 -0.2200  0.6700 -0.1056
 7552TIP3    H144071   2.383   2.258  12.022 -0.4400 -1.1067 -1.8569
 7552TIP3    H244072   2.336   2.389  11.962 -0.2126  0.5862  1.4193
 7553TIP3   OH244073   2.084   6.079   0.163  0.7170  0.5407 -0.3877
 7553TIP3    H144074   2.161   6.083   0.219  1.4572 -1.4169 -1.1515
 7553TIP3    H244075   2.109   6.019   0.093 -2.0066 -1.4281  0.1552
 7554TIP3   OH244076   1.772   6.361   0.312 -0.3286  0.1160  0.0294
 7554TIP3    H144077   1.793   6.300   0.241  0.6144  1.5629 -0.9855
 7554TIP3    H244078   1.683   6.390   0.293 -0.7147 -0.7738  0.4183
 7555TIP3   OH244079   5.127   5.719   1.420 -0.9189  0.5635  0.1968
 7555TIP3    H144080   5.153   5.692   1.332 -0.6338  1.1407  0.0994
 7555TIP3    H244081   5.194   5.782   1.446 -0.2218 -0.6267  1.3773
 7556TIP3   OH244082   5.630   0.463  14.854 -0.1670 -0.0347  0.3612
 7556TIP3    H144083   5.674   0.441  14.936 -0.3924  1.1687  0.8270
 7556TIP3    H244084   5.559   0.400  14.847 -1.5819  1.2434  2.2784
 7557TIP3   OH244085   0.178   6.373   4.683 -0.3277  0.7513  0.4887
 7557TIP3    H144086   0.103   6.315   4.693 -0.8823  1.1058 -1.1948
 7557TIP3    H244087   0.188   6.415   4.768 -0.0822 -1.5761  1.6581
 7558TIP3   OH244088   5.889   2.662   4.486 -0.0523  0.4169  1.0780
 7558TIP3    H144089   5.976   2.696   4.465 -0.7853  2.1507  0.6320
 7558TIP3    H244090   5.833   2.739   4.486 -1.8475 -0.8085  0.0293
 7559TIP3   OH244091   4.763   6.116  16.612  0.3704 -0.0800 -0.0392
 7559TIP3    H144092   4.728   6.187  16.557 -2.5328 -0.8384  0.6982
 7559TIP3    H244093   4.738   6.036  16.567 -0.7537 -0.6892  1.5779
 7560TIP3   OH244094   5.960   4.937   3.391 -0.2226  0.3098 -0.5502
 7560TIP3    H144095   5.944   4.860   3.336 -1.7723  0.2064 -0.0290
 7560TIP3    H244096   5.913   4.917   3.472 -0.0166  1.4926 -0.1304
 7561TIP3   OH244097   0.888   0.885  10.393 -0.2833  0.4433 -0.0703
 7561TIP3    H144098   0.977   0.890  10.356 -0.4986 -0.4936 -0.7581
 7561TIP3    H244099   0.889   0.946  10.466  1.1633 -0.0911  0.3940
 7562TIP3   OH244100   4.464   5.689   2.783 -0.8334  0.4876 -0.0537
 7562TIP3    H144101   4.502   5.645   2.859  0.4598  0.3386 -0.7592
 7562TIP3    H244102   4.427   5.770   2.818 -1.4359 -0.1936  0.9322
 7563TIP3   OH244103   0.478   3.050   4.605 -0.3100 -0.4091 -0.1372
 7563TIP3    H144104   0.462   3.018   4.694 -1.0705  0.3065 -0.0062
 7563TIP3    H244105   0.500   3.142   4.616  0.8868 -0.6236 -0.5974
 7564TIP3   OH244106   1.290   1.874   4.406  0.1998 -0.0589  0.0217
 7564TIP3    H144107   1.259   1.890   4.317 -0.3999 -1.7224 -0.1030
 7564TIP3    H244108   1.256   1.947   4.457  0.1100  0.6416 -1.0014
 7565TIP3   OH244109   6.487   1.579   1.080 -0.0779 -0.2402  0.1828
 7565TIP3    H144110   6.394   1.573   1.101 -0.4877  0.0558 -1.4006
 7565TIP3    H244111   6.511   1.489   1.056 -0.2098 -0.1350 -0.3550
 7566TIP3   OH244112   1.300   1.125  12.258  0.0967  0.0478 -0.4487
 7566TIP3    H144113   1.342   1.211  12.261 -1.9886  1.1860 -1.6936
 7566TIP3    H244114   1.333   1.080  12.335  0.2126  2.5004  1.0520
 7567TIP3   OH244115   3.654   6.698  14.327 -0.3004 -0.1451 -0.4902
 7567TIP3    H144116   3.736   6.677  14.371 -1.0856 -1.2121  0.5330
 7567TIP3    H244117   3.588   6.693  14.396 -1.4464 -0.8718 -1.5940
 7568TIP3   OH244118   2.077   6.399  17.037 -0.4604 -0.4735  0.4713
 7568TIP3    H144119   2.115   6.321  16.997 -0.1273 -0.4704  0.7760
 7568TIP3    H244120   2.105   6.471  16.980 -1.9342 -0.7209 -0.6044
 7569TIP3   OH244121   2.178   4.440  15.019  0.1101  0.4124  0.0655
 7569TIP3    H144122   2.196   4.362  14.966  2.5004 -0.2270  1.6588
 7569TIP3    H244123   2.136   4.406  15.098 -0.5353  0.9810 -0.0241
 7570TIP3   OH244124   6.089   5.697  10.887 -0.2690 -0.5204  0.6464
 7570TIP3    H144125   6.038   5.724  10.964 -0.9223 -0.2641  0.1364
 7570TIP3    H244126   6.057   5.609  10.867 -2.2577  0.4923 -1.0618
 7571TIP3   OH244127   0.062   1.383  13.212 -0.1665 -0.2542  0.1823
 7571TIP3    H144128   0.086   1.328  13.287  1.2892 -0.0054 -0.0582
 7571TIP3    H244129   0.122   1.458  13.217  0.5834 -0.6609 -1.7071
 7572TIP3   OH244130   0.477   3.851  11.708  0.4418  0.2421  0.2762
 7572TIP3    H144131   0.503   3.809  11.625 -1.9349  0.2974 -0.5887
 7572TIP3    H244132   0.491   3.944  11.693  2.4743  0.0863  0.9418
 7573TIP3   OH244133   0.513   5.677   0.887  0.2574  0.6224  0.0760
 7573TIP3    H144134   0.543   5.587   0.871 -0.0857  0.4265  0.4844
 7573TIP3    H244135   0.419   5.667   0.904  0.3411  0.9736  0.7883
 7574TIP3   OH244136   4.178   0.598   3.420 -0.2659  0.2576  0.2237
 7574TIP3    H144137   4.112   0.665   3.401 -0.9690 -0.2334  0.8864
 7574TIP3    H244138   4.188   0.551   3.337 -0.3963  0.6412 -0.0128
 7575TIP3   OH244139   1.647   0.917   4.379  0.2945 -0.1425 -0.1787
 7575TIP3    H144140   1.704   0.844   4.353 -1.4964 -1.8555  0.4324
 7575TIP3    H244141   1.686   0.949   4.461  2.0251  0.7108 -1.2896
 7576TIP3   OH244142   3.774   5.058   4.891 -0.0264  0.1213  0.3190
 7576TIP3    H144143   3.800   5.148   4.874 -0.9298  0.4196  0.4328
 7576TIP3    H244144   3.696   5.065   4.945 -1.6972 -0.6310 -1.8172
 7577TIP3   OH244145   2.275   1.251   2.348  0.0461  0.2847 -0.1441
 7577TIP3    H144146   2.188   1.212   2.340  0.8976 -1.6378 -0.6366
 7577TIP3    H244147   2.331   1.179   2.376  1.5168  1.4464  0.0217
 7578TIP3   OH244148   4.956   5.590   1.135 -0.2736  0.1384 -0.2352
 7578TIP3    H144149   4.932   5.612   1.225 -1.6479  3.2861 -1.2478
 7578TIP3    H244150   4.887   5.531   1.105 -0.7416  0.4198  0.2687
 7579TIP3   OH244151   5.298   6.371  15.082  0.1487  0.0887  0.1761
 7579TIP3    H144152   5.332   6.350  15.169 -1.9511  0.7167  1.2172
 7579TIP3    H244153   5.274   6.464  15.087  1.0408  0.4530 -1.4704
 7580TIP3   OH244154   2.964   0.970  12.852  0.0166 -0.4548 -0.2188
 7580TIP3    H144155   2.917   0.927  12.781 -1.2733 -0.7482  0.7674
 7580TIP3    H244156   2.994   0.898  12.908  0.0628 -0.1904  0.0997
 7581TIP3   OH244157   5.299   4.102  11.126 -0.0656  0.0391  0.4277
 7581TIP3    H144158   5.247   4.039  11.075 -0.5567  0.0235  0.9437
 7581TIP3    H244159   5.256   4.105  11.211  1.5350 -0.9518  1.3073
 7582TIP3   OH244160   4.653   1.930   4.903 -0.6566 -0.6148  0.4556
 7582TIP3    H144161   4.717   1.955   4.836  1.7782 -3.4660  1.4564
 7582TIP3    H244162   4.578   1.897   4.853 -1.6171  2.9155 -0.7602
 7583TIP3   OH244163   1.989   6.503   5.526 -0.5346 -0.5403 -0.0332
 7583TIP3    H144164   2.052   6.566   5.492 -0.7449  0.5017  1.4350
 7583TIP3    H244165   1.908   6.521   5.477 -0.6471  0.4891  0.4952
 7584TIP3   OH244166   0.086   2.862  12.609  0.1804 -0.6311 -0.4904
 7584TIP3    H144167  -0.003   2.888  12.586  0.1190  0.2144  0.6626
 7584TIP3    H244168   0.099   2.893  12.698  1.1551 -1.9785 -0.1217
 7585TIP3   OH244169   2.827   5.745  10.929  0.3912  0.2605  0.3046
 7585TIP3    H144170   2.810   5.679  10.997 -0.9411 -0.1343 -0.3826
 7585TIP3    H244171   2.907   5.789  10.958  0.1118 -0.2156  1.8857
 7586TIP3   OH244172   1.758   3.128  16.270 -0.2482  0.3033 -0.4333
 7586TIP3    H144173   1.681   3.181  16.251 -1.6214 -1.5445 -0.3614
 7586TIP3    H244174   1.831   3.176  16.230 -0.6253  4.3231  3.0784
 7587TIP3   OH244175   5.410   4.558  12.571  0.2171  0.0392 -0.1541
 7587TIP3    H144176   5.359   4.608  12.634  1.3381 -1.1534  1.7726
 7587TIP3    H244177   5.357   4.480  12.553  0.3534 -0.1117  0.1001
 7588TIP3   OH244178   4.060   6.659   3.648 -0.5295 -0.2941  0.7373
 7588TIP3    H144179   4.050   6.586   3.586 -0.6233 -1.1670  1.7447
 7588TIP3    H244180   3.982   6.713   3.633 -0.1650 -0.0548 -0.4357
 7589TIP3   OH244181   1.198   0.908  16.181 -0.1315  0.5045 -0.3042
 7589TIP3    H144182   1.237   0.832  16.224  0.5098  0.4991 -0.8722
 7589TIP3    H244183   1.266   0.938  16.120 -0.3454  1.5824 -0.0323
 7590TIP3   OH244184   3.356   4.968   0.136  0.3918 -0.1289 -0.3227
 7590TIP3    H144185   3.416   5.014   0.195 -2.5675  1.1666  1.9347
 7590TIP3    H244186   3.312   4.904   0.191  0.9541 -2.4241 -2.3584
 7591TIP3   OH244187   5.860   1.512   3.776  0.4193 -0.3760 -0.1500
 7591TIP3    H144188   5.908   1.469   3.705 -1.8526 -0.7936 -1.5115
 7591TIP3    H244189   5.821   1.589   3.735 -0.1855 -0.1081  0.8949
 7592TIP3   OH244190   2.579   2.079   1.776  0.5121  0.0497 -0.5285
 7592TIP3    H144191   2.573   2.160   1.827 -1.8734  0.1232 -0.8104
 7592TIP3    H244192   2.568   2.010   1.841  0.4809  0.0273 -0.5581
 7593TIP3   OH244193   2.785   5.546   5.239 -0.3751  0.0858  0.3223
 7593TIP3    H144194   2.840   5.540   5.161 -2.6405 -0.2244 -1.3374
 7593TIP3    H244195   2.707   5.495   5.218 -2.2290  2.1135  1.7503
 7594TIP3   OH244196   1.551   0.471   1.203  0.1497  0.2689 -0.7722
 7594TIP3    H144197   1.477   0.483   1.262  0.5642  0.2316 -0.2295
 7594TIP3    H244198   1.581   0.560   1.185 -0.0771  0.2875 -1.0568
 7595TIP3   OH244199   6.615   6.732  12.057 -0.2679  0.1893  0.0025
 7595TIP3    H144200   6.695   6.722  12.108  0.5635 -2.0933 -1.5539
 7595TIP3    H244201   6.640   6.790  11.985 -0.3237  0.3162  0.0849
 7596TIP3   OH244202   5.219   4.239  14.918 -0.4422  0.5834  0.1351
 7596TIP3    H144203   5.125   4.229  14.903 -0.1102 -0.2342 -1.6552
 7596TIP3    H244204   5.245   4.156  14.959 -0.4034  0.5579  0.0587
 7597TIP3   OH244205   1.424   1.622  12.791 -0.4184  0.0928 -0.2665
 7597TIP3    H144206   1.381   1.537  12.793 -1.0963  0.4007 -1.2929
 7597TIP3    H244207   1.508   1.605  12.747 -0.8326  0.0681 -1.0615
 7598TIP3   OH244208   6.693   2.642   4.615  0.1887 -0.0913  0.0276
 7598TIP3    H144209   6.659   2.611   4.700  0.6961 -0.9830 -0.0752
 7598TIP3    H244210   6.780   2.677   4.636 -0.5830  1.8345  0.2291
 7599TIP3   OH244211   6.424   4.379  11.471  0.6039 -0.2050 -0.2792
 7599TIP3    H144212   6.458   4.295  11.440  1.2664  0.4329 -1.3529
 7599TIP3    H244213   6.469   4.444  11.417  0.2002  0.8504  0.6257
 7600TIP3   OH244214   6.417   4.794   5.307  0.3472 -0.8029  0.3113
 7600TIP3    H144215   6.360   4.739   5.254  0.2520 -1.1984  0.8126
 7600TIP3    H244216   6.456   4.733   5.370 -0.2109 -0.2029  1.2564
 7601TIP3   OH244217   2.834   4.433  16.562 -0.1237  0.6311  0.9748
 7601TIP3    H144218   2.897   4.365  16.585 -0.2118  0.2844  0.2359
 7601TIP3    H244219   2.815   4.477  16.644  0.0791 -0.1148  1.4321
 7602TIP3   OH244220   0.674   5.184  10.661 -0.3954  0.3360 -0.6685
 7602TIP3    H144221   0.586   5.184  10.624 -0.0541  0.8266 -1.5361
 7602TIP3    H244222   0.674   5.112  10.724 -1.5495  0.6368 -0.3047
 7603TIP3   OH244223   0.082   4.247  13.323  0.2065  0.4524  0.4337
 7603TIP3    H144224   0.067   4.324  13.267  0.3213 -0.0142 -0.2597
 7603TIP3    H244225   0.108   4.283  13.407 -0.2892  1.1875  0.2838
 7604TIP3   OH244226   3.458   0.249   4.371  0.2314 -0.2224 -0.3127
 7604TIP3    H144227   3.464   0.153   4.368  0.3004 -0.2002 -1.5523
 7604TIP3    H244228   3.364   0.267   4.370  0.2240 -0.2714 -0.5870
 7605TIP3   OH244229   1.078   6.472   2.523  0.0900  0.1249  0.4099
 7605TIP3    H144230   1.012   6.434   2.465  0.2661  0.4004  0.0285
 7605TIP3    H244231   1.162   6.454   2.480  0.2794 -0.3661  0.9715
 7606TIP3   OH244232   4.269   6.462  16.577  0.1239 -0.6465 -0.3480
 7606TIP3    H144233   4.324   6.519  16.523 -0.3602 -0.6401 -0.8562
 7606TIP3    H244234   4.278   6.375  16.537  0.8618 -0.9262  0.4273
 7607TIP3   OH244235   5.641   1.597  16.728 -0.7161  0.0317 -0.3331
 7607TIP3    H144236   5.690   1.667  16.771  0.0548 -0.9861  0.5050
 7607TIP3    H244237   5.596   1.640  16.655  1.2391  1.0580 -1.0013
 7608TIP3   OH244238   1.747   6.090   5.866 -0.9194  0.5690  0.3038
 7608TIP3    H144239   1.798   6.014   5.894  0.0026  1.3480  0.8262
 7608TIP3    H244240   1.695   6.114   5.943 -1.9941 -0.1282 -0.1786
 7609TIP3   OH244241   2.306   0.747   5.828  0.0273  0.1874 -0.2338
 7609TIP3    H144242   2.350   0.723   5.746  1.5058  2.9666 -0.3580
 7609TIP3    H244243   2.259   0.827   5.808  0.2958  0.8489  1.5843
 7610TIP3   OH244244   1.158   0.973   4.663  0.3723  0.0249  0.4048
 7610TIP3    H144245   1.165   1.065   4.690  0.2725  0.4438 -0.9247
 7610TIP3    H244246   1.212   0.926   4.726  1.1898  1.1125  0.5509
 7611TIP3   OH244247   3.950   3.335  17.060 -0.3232 -0.0351  0.2860
 7611TIP3    H144248   3.886   3.298  16.999 -0.4838  0.0696  0.3893
 7611TIP3    H244249   4.032   3.338  17.010 -0.3548 -0.3414  0.2123
 7612TIP3   OH244250   1.205   1.171  14.003 -0.6689 -0.2761 -0.1676
 7612TIP3    H144251   1.211   1.076  13.995 -1.0141 -0.3067 -0.0755
 7612TIP3    H244252   1.279   1.195  14.058 -0.0232 -0.3841 -0.9665
 7613TIP3   OH244253   3.189   5.138  16.594  0.1996  0.2616  0.2371
 7613TIP3    H144254   3.250   5.161  16.525  0.6921  0.5066  0.7436
 7613TIP3    H244255   3.244   5.131  16.673 -0.1352 -1.2972  0.3684
 7614TIP3   OH244256   0.707   5.391   2.525 -0.3435 -0.1529  0.3249
 7614TIP3    H144257   0.717   5.483   2.550  2.2071 -0.1602 -0.4131
 7614TIP3    H244258   0.688   5.394   2.431  4.6230 -0.2832 -0.9699
 7615TIP3   OH244259   3.652   4.659  14.164  0.1014 -0.4409 -0.2638
 7615TIP3    H144260   3.621   4.730  14.108 -0.5075  0.4135  1.1117
 7615TIP3    H244261   3.662   4.584  14.105 -3.5554 -0.4950 -1.0087
 7616TIP3   OH244262   1.792   6.471  14.205  0.7080 -0.1777  0.7264
 7616TIP3    H144263   1.762   6.558  14.177 -0.8045 -0.2639  1.9826
 7616TIP3    H244264   1.730   6.444  14.272  0.4239 -2.7718 -0.4705
 7617TIP3   OH244265   5.357   2.297  15.044  0.3900  0.2134 -0.4068
 7617TIP3    H144266   5.445   2.314  15.010 -0.0085 -0.5748 -1.9674
 7617TIP3    H244267   5.304   2.371  15.012  0.7297  1.4607  1.7612
 7618TIP3   OH244268   1.829   0.154  10.715 -0.3528  0.1244  0.5258
 7618TIP3    H144269   1.752   0.161  10.771 -1.4035 -0.0786 -0.8423
 7618TIP3    H244270   1.804   0.089  10.649  1.6930 -1.3970  1.1444
 7619TIP3   OH244271   6.245   1.708   1.624 -0.0982  0.1545 -0.4272
 7619TIP3    H144272   6.289   1.631   1.588  0.4946  1.3306 -2.3570
 7619TIP3    H244273   6.156   1.678   1.645  0.3391 -1.2109 -0.4654
 7620TIP3   OH244274   4.749   5.489   5.874 -0.1294  0.5245  0.5902
 7620TIP3    H144275   4.713   5.542   5.945  1.0875  0.6500  1.1458
 7620TIP3    H244276   4.797   5.551   5.820 -1.4064  0.4991 -0.6195
 7621TIP3   OH244277   6.443   0.848  16.443 -0.0389  0.4166 -0.3467
 7621TIP3    H144278   6.382   0.790  16.398 -0.4841 -0.1173  0.8975
 7621TIP3    H244279   6.484   0.793  16.510 -0.9745  1.6477  1.3182
 7622TIP3   OH244280   5.319   1.341   4.849  0.2017  0.3804 -0.0877
 7622TIP3    H144281   5.404   1.381   4.831 -0.3153  0.9844 -1.3096
 7622TIP3    H244282   5.262   1.373   4.779 -0.9050 -0.4225  0.4132
 7623TIP3   OH244283   1.318   4.885  15.950  0.0849 -0.1563  0.2327
 7623TIP3    H144284   1.253   4.954  15.966 -1.0660 -1.1908  0.2457
 7623TIP3    H244285   1.329   4.842  16.035  1.1259  0.2835  0.3258
 7624TIP3   OH244286   3.987   1.685  15.354 -0.6997  0.0610  0.2965
 7624TIP3    H144287   3.897   1.675  15.385 -0.7995 -0.5247 -0.1689
 7624TIP3    H244288   4.004   1.779  15.361 -1.7517  0.3540 -0.6863
 7625TIP3   OH244289   4.966   5.724  13.328  0.2086 -0.1232 -0.3466
 7625TIP3    H144290   4.964   5.651  13.390  0.3463 -0.4850 -0.7595
 7625TIP3    H244291   4.883   5.769  13.340  0.3265 -0.0572  0.2518
 7626TIP3   OH244292   4.774   5.898  14.688 -0.2803  0.2429  0.3657
 7626TIP3    H144293   4.719   5.883  14.611 -0.8438 -0.8609  0.9529
 7626TIP3    H244294   4.726   5.962  14.740  0.6265  1.8391 -0.6826
 7627TIP3   OH244295   0.759   5.815   3.931 -0.1523  0.2158 -0.4749
 7627TIP3    H144296   0.679   5.774   3.964  0.4265 -0.3910  0.2050
 7627TIP3    H244297   0.769   5.894   3.984 -0.7449  0.7363 -1.1277
 7628TIP3   OH244298   4.441   3.967   4.478  0.5195  0.2695  0.3634
 7628TIP3    H144299   4.398   3.896   4.527  0.4224  1.5731  2.2598
 7628TIP3    H244300   4.520   3.926   4.442  1.0031 -0.6165  2.2746
 7629TIP3   OH244301   1.620   3.152  17.028 -0.4417 -0.6096 -0.3532
 7629TIP3    H144302   1.557   3.216  16.995 -0.6641 -0.2970  0.6210
 7629TIP3    H244303   1.703   3.200  17.030 -0.5302 -0.4659  0.0061
 7630TIP3   OH244304   3.224   5.857   0.149 -0.4540  0.3792 -0.5168
 7630TIP3    H144305   3.280   5.828   0.078  0.8577 -0.4380  0.7923
 7630TIP3    H244306   3.181   5.778   0.181 -0.9864  0.7290 -0.3352
 7631TIP3   OH244307   2.659   2.107   6.649  0.0410  0.5961 -0.1418
 7631TIP3    H144308   2.715   2.035   6.679 -1.4409 -0.3983  0.3099
 7631TIP3    H244309   2.612   2.135   6.727 -0.7341  0.8352 -0.6844
 7632TIP3   OH244310   6.464   4.742  11.534  0.0165 -0.0749 -0.2127
 7632TIP3    H144311   6.534   4.678  11.545  0.6656  0.2827 -1.9171
 7632TIP3    H244312   6.395   4.695  11.486 -0.7259 -0.2814  1.0203
 7633TIP3   OH244313   3.369   2.561   4.872 -0.3730 -0.3313 -0.2004
 7633TIP3    H144314   3.375   2.469   4.900  0.9277 -0.0784  0.4195
 7633TIP3    H244315   3.456   2.582   4.841 -0.1628  1.1841  1.2551
 7634TIP3   OH244316   5.452   1.659   6.598 -0.2591 -0.3852 -0.1216
 7634TIP3    H144317   5.535   1.700   6.571  0.9131 -2.0522  0.7842
 7634TIP3    H244318   5.433   1.595   6.530 -0.7173 -0.1511 -0.2191
 7635TIP3   OH244319   0.002   3.965   4.592  0.1320  0.2413  0.4707
 7635TIP3    H144320   0.029   3.988   4.681  0.4924  0.3014  0.3476
 7635TIP3    H244321  -0.029   4.047   4.554 -2.2539 -0.1802  1.2951
 7636TIP3   OH244322   0.618   1.292   5.638  0.0950 -0.0927  0.0218
 7636TIP3    H144323   0.608   1.317   5.730 -2.6398 -0.5587 -0.0628
 7636TIP3    H244324   0.673   1.361   5.601  0.7672  0.4313  1.8608
 7637TIP3   OH244325   5.880   6.554   1.481  0.1401 -0.5315  0.0947
 7637TIP3    H144326   5.788   6.570   1.460  0.1979 -0.0481  0.1956
 7637TIP3    H244327   5.881   6.465   1.518 -0.6562  0.3251  2.3376
 7638TIP3   OH244328   0.136   4.823  14.289 -0.3691 -0.0667 -0.3183
 7638TIP3    H144329   0.201   4.894  14.291 -0.7947  0.3937 -1.7388
 7638TIP3    H244330   0.098   4.828  14.201 -1.8169 -0.8005  0.2375
 7639TIP3   OH244331   6.526   5.486   0.042  0.1206  0.5882 -0.5271
 7639TIP3    H144332   6.588   5.479  -0.030  0.0610  2.3376 -0.8107
 7639TIP3    H244333   6.580   5.505   0.119 -0.0004  1.5496 -0.6679
 7640TIP3   OH244334   3.824   1.866   1.073  0.0431 -0.7253  0.0763
 7640TIP3    H144335   3.835   1.951   1.116  1.2441 -0.3288 -0.9630
 7640TIP3    H244336   3.775   1.813   1.136  0.5025  0.2904  1.3241
 7641TIP3   OH244337   4.155   3.369  16.875  0.9748 -0.1839 -0.2913
 7641TIP3    H144338   4.130   3.358  16.783 -0.4007 -2.2093  0.2704
 7641TIP3    H244339   4.250   3.364  16.875  1.0743  1.0248 -1.7167
 7642TIP3   OH244340   1.894   4.708  14.014 -0.1450  0.2455 -0.0708
 7642TIP3    H144341   1.943   4.790  14.021  1.9338 -0.9514  0.2977
 7642TIP3    H244342   1.887   4.693  13.920  0.1788  0.4453 -0.1308
 7643TIP3   OH244343   5.792   0.467   6.541 -0.1476 -0.5466  0.1823
 7643TIP3    H144344   5.862   0.429   6.594 -0.3212 -1.8775 -0.5060
 7643TIP3    H244345   5.716   0.411   6.559 -0.2182 -1.0026 -1.4302
 7644TIP3   OH244346   3.333   0.797   3.001  0.4800 -0.3902  0.4619
 7644TIP3    H144347   3.320   0.716   3.051  1.8442  0.5150  2.4452
 7644TIP3    H244348   3.407   0.840   3.045  0.3389  1.5288 -1.0546
 7645TIP3   OH244349   3.486   3.793   0.078 -0.6632  0.0078 -0.8843
 7645TIP3    H144350   3.569   3.748   0.089 -1.2067 -0.5249  1.5561
 7645TIP3    H244351   3.425   3.723   0.053 -1.2780 -0.5487  1.8539
 7646TIP3   OH244352   1.927   3.890   0.869 -0.2509  0.0801  0.3164
 7646TIP3    H144353   1.847   3.843   0.848 -1.6204  0.6638  3.6155
 7646TIP3    H244354   1.997   3.839   0.828 -2.1322 -1.5811 -0.9741
 7647TIP3   OH244355   5.232   3.788   4.555  0.2996 -0.0807 -0.3598
 7647TIP3    H144356   5.260   3.860   4.612  1.7026  0.0321 -1.1562
 7647TIP3    H244357   5.158   3.825   4.506  0.0309  0.3093  0.3239
 7648TIP3   OH244358   0.222   5.196  13.642 -0.8174  0.1919 -0.1185
 7648TIP3    H144359   0.142   5.246  13.656 -0.5314  0.4631  0.5950
 7648TIP3    H244360   0.222   5.131  13.713 -0.6032 -0.0601 -0.3491
 7649TIP3   OH244361   5.452   6.052  16.741  0.6841  0.5432  0.4937
 7649TIP3    H144362   5.414   6.135  16.770 -0.5089 -0.2345  1.2524
 7649TIP3    H244363   5.449   5.995  16.819 -1.1542 -1.1073 -0.6966
 7650TIP3   OH244364   5.893   6.085  15.906 -0.4458 -0.2251 -0.5784
 7650TIP3    H144365   5.873   6.055  15.817 -1.7554 -0.7616 -0.1275
 7650TIP3    H244366   5.835   6.160  15.920  1.0540  1.0391 -0.8017
 7651TIP3   OH244367   0.574   6.633   2.875 -0.5410 -0.4629  0.0926
 7651TIP3    H144368   0.650   6.651   2.820  0.8559 -0.4742  1.9410
 7651TIP3    H244369   0.515   6.582   2.818 -0.3187  1.5893 -2.1491
 7652TIP3   OH244370   2.590   0.659   1.946 -0.2597  0.2093 -0.5306
 7652TIP3    H144371   2.629   0.614   2.021 -1.3672 -0.0450 -0.0871
 7652TIP3    H244372   2.550   0.589   1.894  1.7509  0.2001 -2.1776
 7653TIP3   OH244373   2.867   5.488   5.493 -0.2695  0.2187  0.0303
 7653TIP3    H144374   2.902   5.403   5.468 -0.8180 -0.1210  0.4030
 7653TIP3    H244375   2.830   5.524   5.412  0.0670  0.1579 -0.1519
 7654TIP3   OH244376   1.772   3.022   1.745 -0.5575  0.4476 -0.0073
 7654TIP3    H144377   1.717   2.958   1.699 -0.5857  1.2509 -1.1310
 7654TIP3    H244378   1.730   3.032   1.831 -0.8622 -0.6180 -0.0159
 7655TIP3   OH244379   4.157   3.586  15.846  0.3266 -0.2741 -1.0408
 7655TIP3    H144380   4.175   3.651  15.914 -0.6366  0.9876 -1.9439
 7655TIP3    H244381   4.164   3.502  15.891  0.7649  0.4841  0.3624
 7656TIP3   OH244382   2.838   5.259   2.687 -0.3760  0.1669  0.3899
 7656TIP3    H144383   2.851   5.189   2.750 -1.2185  1.1413  1.6957
 7656TIP3    H244384   2.756   5.301   2.713 -0.6586  0.7196 -1.2451
 7657TIP3   OH244385   0.926   5.371  13.039  0.3268  0.1430 -0.0254
 7657TIP3    H144386   0.834   5.377  13.010  0.5959 -1.2030 -1.3080
 7657TIP3    H244387   0.955   5.462  13.046 -0.9446  0.5813 -0.1236
 7658TIP3   OH244388   1.348   5.935  13.888  0.1020  0.4862  0.2334
 7658TIP3    H144389   1.309   5.986  13.817 -2.8669 -0.6867  0.8831
 7658TIP3    H244390   1.359   5.999  13.959 -3.6431  0.4467  1.0715
 7659TIP3   OH244391   6.189   3.843   3.909 -0.0260  0.0171  0.2913
 7659TIP3    H144392   6.224   3.840   3.998 -0.7129  1.1202  0.6141
 7659TIP3    H244393   6.267   3.852   3.854  0.3191  1.1138  0.9134
 7660TIP3   OH244394   4.843   1.177  11.239 -0.8580 -0.2733  0.5364
 7660TIP3    H144395   4.935   1.175  11.265 -1.4055 -2.2804  2.6878
 7660TIP3    H244396   4.845   1.164  11.145  1.0624 -1.9568  0.7268
 7661TIP3   OH244397   5.954   1.110  13.087 -0.6036  0.4297  0.5327
 7661TIP3    H144398   6.040   1.107  13.128 -1.7908  0.5810  3.3062
 7661TIP3    H244399   5.960   1.179  13.022  1.3287  0.4865  0.7258
 7662TIP3   OH244400   4.633   0.695  15.025 -0.1485 -0.1209  0.2467
 7662TIP3    H144401   4.664   0.632  15.090 -0.6779  1.2799  1.9479
 7662TIP3    H244402   4.569   0.748  15.073  0.2958  1.7016 -1.1003
 7663TIP3   OH244403   5.795   2.675  12.123  0.2577 -0.0185 -0.5436
 7663TIP3    H144404   5.819   2.676  12.030 -0.7850  0.4183 -0.8240
 7663TIP3    H244405   5.875   2.649  12.168  0.8334 -0.0475 -1.5494
 7664TIP3   OH244406   3.469   1.902  11.701 -0.0485  0.6761 -0.1060
 7664TIP3    H144407   3.546   1.945  11.740  1.4437  0.5860 -2.7146
 7664TIP3    H244408   3.437   1.966  11.637 -0.7698 -0.1993 -0.6343
 7665TIP3   OH244409   5.598   6.721  12.601  0.2755  0.0643 -0.4080
 7665TIP3    H144410   5.657   6.694  12.531 -0.1778 -0.1487 -0.7125
 7665TIP3    H244411   5.517   6.745  12.556  0.1961  0.5493 -0.0099
 7666TIP3   OH244412   2.937   1.213   5.437  0.2993  0.3694 -0.0710
 7666TIP3    H144413   3.002   1.167   5.385  1.3861  0.5289  1.0878
 7666TIP3    H244414   2.889   1.144   5.482  0.9131  0.2905  0.4863
 7667TIP3   OH244415   0.615   4.407   0.503 -0.8270  0.1320  0.2666
 7667TIP3    H144416   0.590   4.446   0.587 -0.2843  0.1951  0.4029
 7667TIP3    H244417   0.707   4.430   0.493 -0.4788 -1.1611  0.3749
 7668TIP3   OH244418   5.326   0.459  16.754 -0.0383  0.0519 -0.1184
 7668TIP3    H144419   5.240   0.417  16.745  0.1559 -0.3191 -0.2975
 7668TIP3    H244420   5.359   0.465  16.664  0.3101 -0.2228 -0.0132
 7669TIP3   OH244421   5.222   2.153   4.549 -0.0019 -0.2334 -0.3951
 7669TIP3    H144422   5.228   2.130   4.642 -1.5760 -0.3483 -0.2924
 7669TIP3    H244423   5.270   2.084   4.504  0.3259 -0.4620  0.2878
 7670TIP3   OH244424   2.617   3.213  13.848  0.1664  0.7352 -0.2846
 7670TIP3    H144425   2.611   3.118  13.837  0.6858  0.3171  2.3614
 7670TIP3    H244426   2.526   3.243  13.845 -0.0240  0.1388 -0.8011
 7671TIP3   OH244427   5.949   1.427  11.780  0.3244 -0.1582  0.0546
 7671TIP3    H144428   6.038   1.419  11.813 -0.2517 -0.6785  1.5720
 7671TIP3    H244429   5.957   1.481  11.701  2.2100 -1.7804 -0.9335
 7672TIP3   OH244430   2.651   2.412  11.778 -0.1251  0.2830 -0.8871
 7672TIP3    H144431   2.578   2.430  11.837  1.1444 -1.5161  1.4252
 7672TIP3    H244432   2.611   2.394  11.693 -2.3145 -0.0824  0.1730
 7673TIP3   OH244433   2.703   5.630   0.056  0.5085  0.7467 -0.0696
 7673TIP3    H144434   2.650   5.645  -0.022  0.7400 -1.6404 -0.7469
 7673TIP3    H244435   2.675   5.545   0.089  2.8425  0.0690  0.3954
 7674TIP3   OH244436   5.581   6.729  13.073  0.5674 -0.3443  0.1114
 7674TIP3    H144437   5.590   6.665  13.144 -1.5458 -2.9407 -1.7478
 7674TIP3    H244438   5.500   6.777  13.093  0.4004 -0.5314 -0.0989
 7675TIP3   OH244439   0.072   4.264   2.036  0.6193 -0.1394  0.3153
 7675TIP3    H144440   0.083   4.346   2.083  0.6516 -0.7125  1.3545
 7675TIP3    H244441   0.010   4.214   2.089 -2.1449  0.5238 -2.0741
 7676TIP3   OH244442   1.213   0.182   1.575 -0.3349  0.0385 -0.1489
 7676TIP3    H144443   1.258   0.204   1.493 -1.4933  0.0554 -0.7937
 7676TIP3    H244444   1.195   0.267   1.615 -0.0268  0.0398 -0.0065
 7677TIP3   OH244445   2.906   5.357   3.250  0.6429  0.6010 -0.4902
 7677TIP3    H144446   2.924   5.429   3.310  0.3277  0.8800 -0.7205
 7677TIP3    H244447   2.839   5.305   3.293  2.2681 -0.7117  0.5868
 7678TIP3   OH244448   4.606   1.966  11.354 -0.3706 -0.0015 -0.9427
 7678TIP3    H144449   4.683   1.915  11.380  1.9115  3.4335 -0.2956
 7678TIP3    H244450   4.603   1.959  11.259  0.9005 -0.0410 -0.9926
 7679TIP3   OH244451   5.411   3.569   6.044 -0.3869 -0.4627  0.6249
 7679TIP3    H144452   5.363   3.565   6.127  1.7827  0.6659  2.0369
 7679TIP3    H244453   5.371   3.501   5.990 -1.6825 -1.4621  2.7125
 7680TIP3   OH244454   6.323   3.519   5.352  0.0492  0.0835  0.0184
 7680TIP3    H144455   6.281   3.582   5.410 -0.2320 -0.9358  0.9673
 7680TIP3    H244456   6.402   3.492   5.399  1.0562  0.9705 -1.1383
 7681TIP3   OH244457   4.431   3.757  11.768  0.2312  0.6061 -0.0464
 7681TIP3    H144458   4.392   3.781  11.685 -1.5987  0.1333  0.6325
 7681TIP3    H244459   4.383   3.679  11.796  1.9864 -0.2875  0.6399
 7682TIP3   OH244460   4.804   0.375  12.592 -0.5930  0.1925  0.5027
 7682TIP3    H144461   4.869   0.321  12.637  0.9849  0.5493 -1.2130
 7682TIP3    H244462   4.726   0.370  12.647 -0.1020 -2.7305  1.1220
 7683TIP3   OH244463   1.771   6.774  16.016 -0.1905  0.0548  0.8542
 7683TIP3    H144464   1.766   6.791  15.922 -0.8757  1.4619  1.1072
 7683TIP3    H244465   1.864   6.761  16.033 -0.2855 -2.9660 -0.4084
 7684TIP3   OH244466   4.065   1.244   0.618  0.0754 -0.0723  0.0408
 7684TIP3    H144467   4.105   1.258   0.532  0.1286 -0.5742 -0.0203
 7684TIP3    H244468   4.138   1.248   0.679  0.1117 -0.2346  0.0082
 7685TIP3   OH244469   2.182   1.127   1.037 -0.6618  0.2813  0.6500
 7685TIP3    H144470   2.266   1.171   1.052 -0.2340  0.0889 -0.9447
 7685TIP3    H244471   2.189   1.045   1.086  0.5830 -0.2645 -0.3820
 7686TIP3   OH244472   6.089   6.115   3.326  0.5313 -0.2298  0.8492
 7686TIP3    H144473   5.998   6.090   3.344  0.8603 -2.2362  0.0450
 7686TIP3    H244474   6.128   6.126   3.412 -0.4538  0.5787  1.2049
 7687TIP3   OH244475   3.859   5.483   0.208  0.3530  0.1818  0.4272
 7687TIP3    H144476   3.765   5.495   0.198  0.1249  0.6258  2.5616
 7687TIP3    H244477   3.888   5.449   0.124 -1.8448 -0.8437  0.0124
 7688TIP3   OH244478   1.137   1.272   3.760 -0.2883  0.2692 -0.9036
 7688TIP3    H144479   1.138   1.285   3.665 -1.1598  0.4757 -0.8974
 7688TIP3    H244480   1.185   1.346   3.795 -0.3508  0.4353 -1.1659
 7689TIP3   OH244481   4.102   1.741   1.438 -0.0764  0.5799 -0.1408
 7689TIP3    H144482   4.192   1.715   1.457 -0.2260  0.3781  0.3205
 7689TIP3    H244483   4.107   1.787   1.355  0.2064 -0.9072 -0.9788
 7690TIP3   OH244484   6.770   5.375   3.421  0.2488  0.2030  0.5191
 7690TIP3    H144485   6.817   5.291   3.424 -0.0295  0.0604  0.9135
 7690TIP3    H244486   6.811   5.422   3.348  0.2491 -0.3672  0.1443
 7691TIP3   OH244487   1.312   5.858  15.036  0.0818  0.3910 -0.6057
 7691TIP3    H144488   1.313   5.792  14.966  1.0147  1.3300 -1.5063
 7691TIP3    H244489   1.272   5.935  14.996 -0.7047  0.4936  0.3472
 7692TIP3   OH244490   0.693   4.438   4.361 -0.0293 -0.1465  0.3257
 7692TIP3    H144491   0.784   4.457   4.383 -0.3840  0.2503  1.5631
 7692TIP3    H244492   0.683   4.469   4.271  0.2594  2.7996  1.1957
 7693TIP3   OH244493   4.872   5.658   5.249 -0.4361 -0.8956  0.1838
 7693TIP3    H144494   4.839   5.737   5.207 -0.7108 -1.3653 -0.5135
 7693TIP3    H244495   4.943   5.688   5.306 -0.8583 -0.0976  0.2971
 7694TIP3   OH244496   2.944   3.444   2.060 -0.1505 -0.2120  0.4187
 7694TIP3    H144497   3.031   3.422   2.025  0.5239  0.5143  1.5678
 7694TIP3    H244498   2.957   3.527   2.106 -1.1348 -0.7833  1.7971
 7695TIP3   OH244499   0.065   3.142  17.283 -0.1144 -0.2619 -0.0345
 7695TIP3    H144500   0.059   3.158  17.377 -0.0211 -2.4175  0.4024
 7695TIP3    H244501   0.147   3.094  17.272 -0.8661 -1.3982 -0.9598
 7696TIP3   OH244502   4.218   0.152  11.462  0.4377  0.4132 -0.7181
 7696TIP3    H144503   4.136   0.197  11.443  0.3225  1.1891  1.2792
 7696TIP3    H244504   4.195   0.086  11.527  1.1509 -0.3932 -1.2697
 7697TIP3   OH244505   5.159   3.380  14.785  0.3777 -0.6748 -0.2504
 7697TIP3    H144506   5.144   3.474  14.787 -2.7761 -1.1067  0.9679
 7697TIP3    H244507   5.240   3.370  14.734 -0.8323  2.4644 -3.1122
 7698TIP3   OH244508   6.355   3.739  17.068  0.3356 -0.0445 -0.2167
 7698TIP3    H144509   6.285   3.734  17.003 -0.7382 -1.8525  0.9935
 7698TIP3    H244510   6.421   3.797  17.028  0.0699 -1.6193 -3.1960
 7699TIP3   OH244511   4.651   1.192  13.084 -0.1584 -0.1405 -0.0927
 7699TIP3    H144512   4.579   1.133  13.065 -0.0818 -0.9064  1.8303
 7699TIP3    H244513   4.729   1.147  13.051 -0.3566 -0.0281 -0.7333
 7700TIP3   OH244514   2.854   1.347   0.953  0.2370  0.0822  0.0622
 7700TIP3    H144515   2.818   1.261   0.934  0.4575 -0.5229  2.1111
 7700TIP3    H244516   2.949   1.337   0.941  0.2201  0.1539 -0.1245
 7701TIP3   OH244517   4.173   1.539  11.677 -0.3282 -0.0162  0.4627
 7701TIP3    H144518   4.191   1.453  11.640  1.6452  0.2174  0.7790
 7701TIP3    H244519   4.087   1.530  11.718 -0.5077 -1.5869 -0.1806
 7702TIP3   OH244520   2.545   4.412  13.872  1.1830 -0.1035  0.0343
 7702TIP3    H144521   2.599   4.404  13.792  1.8643 -0.5522  0.5272
 7702TIP3    H244522   2.596   4.470  13.929  0.9727 -0.2479  0.3703
 7703TIP3   OH244523   2.353   2.853  13.272  0.3370  0.1321 -0.6978
 7703TIP3    H144524   2.272   2.804  13.263  0.4836  0.1010 -2.0523
 7703TIP3    H244525   2.326   2.937  13.310 -0.6710  0.9306 -2.9914
 7704TIP3   OH244526   4.177   0.158  15.656  0.4826 -0.2836  0.2596
 7704TIP3    H144527   4.204   0.150  15.564 -0.6666  0.7928 -0.2119
 7704TIP3    H244528   4.116   0.085  15.669 -1.2066  0.8860 -0.6037
 7705TIP3   OH244529   6.405   5.458  13.815  0.7894 -0.5301 -0.0411
 7705TIP3    H144530   6.344   5.472  13.743  1.9657 -0.1141 -0.9841
 7705TIP3    H244531   6.379   5.375  13.853  0.1278 -0.7390 -0.9294
 7706TIP3   OH244532   5.385   1.038   2.202 -0.0419 -0.5332 -0.0928
 7706TIP3    H144533   5.430   0.965   2.160 -0.0391  0.6454 -2.3196
 7706TIP3    H244534   5.452   1.106   2.210 -0.5193 -0.0661  0.0140
 7707TIP3   OH244535   3.557   3.927   1.051  0.3536  0.0417  0.0238
 7707TIP3    H144536   3.511   3.909   0.969  0.6794 -1.1486  0.0800
 7707TIP3    H244537   3.518   4.008   1.083 -0.0328  0.3273 -1.1197
 7708TIP3   OH244538   3.788   2.106   1.436 -0.4029 -0.1674  0.1241
 7708TIP3    H144539   3.820   2.085   1.348  1.3141 -2.0810  1.1120
 7708TIP3    H244540   3.695   2.086   1.433 -0.2580 -0.7757 -1.0904
 7709TIP3   OH244541   3.592   0.899  11.660  0.2099  0.0262 -0.1548
 7709TIP3    H144542   3.656   0.860  11.600 -0.0651 -1.0665  0.2340
 7709TIP3    H244543   3.533   0.950  11.604  0.4655 -0.2769 -0.7038
 7710TIP3   OH244544   5.284   6.764  11.760  0.4462  0.0057 -0.7838
 7710TIP3    H144545   5.234   6.802  11.833 -0.2038 -0.4527 -0.9815
 7710TIP3    H244546   5.350   6.709  11.802  0.4308  0.1771 -0.5325
 7711TIP3   OH244547   4.895   6.011  15.579  0.0392 -0.0438 -0.5399
 7711TIP3    H144548   4.816   6.019  15.526 -0.9379  2.0879  1.1008
 7711TIP3    H244549   4.863   5.993  15.667  1.6270 -3.4718 -0.5008
 7712TIP3   OH244550   4.278   4.578   1.423  0.1554  0.0386 -0.3559
 7712TIP3    H144551   4.246   4.607   1.338 -0.1631 -2.7768 -1.2834
 7712TIP3    H244552   4.373   4.578   1.414  0.1488  0.3427 -0.4645
 7713TIP3   OH244553   5.541   4.631  15.045  0.0079 -0.1548 -0.0375
 7713TIP3    H144554   5.557   4.666  14.958 -2.8960  0.1097 -0.5641
 7713TIP3    H244555   5.628   4.624  15.085  1.4699 -0.6105 -3.0299
 7714TIP3   OH244556   3.540   0.787   2.330  0.2379 -0.0926  0.1315
 7714TIP3    H144557   3.546   0.723   2.259  0.0845  2.0326 -1.9205
 7714TIP3    H244558   3.472   0.753   2.387 -0.3575 -1.4104 -1.2832
 7715TIP3   OH244559   6.008   5.316   4.940 -0.4265  0.0970  0.0197
 7715TIP3    H144560   5.949   5.244   4.917 -0.7659  0.7451 -1.3027
 7715TIP3    H244561   6.061   5.283   5.012 -0.6727 -1.4149 -0.4603
 7716TIP3   OH244562   0.865   2.590  17.146  0.2049 -0.3776  0.5298
 7716TIP3    H144563   0.850   2.503  17.109 -0.5545  0.2897 -0.8146
 7716TIP3    H244564   0.778   2.620  17.174  0.6313 -0.5004  2.0940
 7717TIP3   OH244565   5.677   4.220  11.999 -0.4995  0.1605  0.4041
 7717TIP3    H144566   5.738   4.257  11.936 -2.3432 -0.8151 -2.0939
 7717TIP3    H244567   5.718   4.139  12.028 -0.7851 -0.8224 -1.7447
 7718TIP3   OH244568   2.534   5.293   3.659 -0.1556  0.0993  0.3438
 7718TIP3    H144569   2.468   5.362   3.649  0.5487  0.8416  0.6611
 7718TIP3    H244570   2.485   5.217   3.690 -0.9130  0.5293  0.2330
 7719TIP3   OH244571   3.082   6.547  13.822 -0.1815  0.0768  0.6375
 7719TIP3    H144572   3.008   6.548  13.883 -1.0908 -0.8438 -0.4087
 7719TIP3    H244573   3.071   6.626  13.770  1.1634  1.4064  2.2547
 7720TIP3   OH244574   3.891   1.920   2.279 -0.0893  0.3974 -0.1354
 7720TIP3    H144575   3.981   1.893   2.259  1.2113  1.4331  3.5915
 7720TIP3    H244576   3.892   2.015   2.271 -0.5462  0.4976  0.8968
 7721TIP3   OH244577   0.970   5.177   1.277 -0.1108  0.0461  1.3365
 7721TIP3    H144578   0.966   5.218   1.363 -0.4272  0.6401  1.0452
 7721TIP3    H244579   0.885   5.134   1.266 -0.3521  0.5968  1.0200
 7722TIP3   OH244580   3.312   3.952   4.831 -0.2749 -0.4992 -0.3817
 7722TIP3    H144581   3.393   3.925   4.788  1.5855  3.2203  0.3050
 7722TIP3    H244582   3.276   4.020   4.775  0.0262  1.5996  1.7944
 7723TIP3   OH244583   2.406   2.187   5.757  0.1012 -0.5787 -0.8259
 7723TIP3    H144584   2.481   2.191   5.698  0.8716 -1.4396  0.0515
 7723TIP3    H244585   2.356   2.110   5.727 -1.6389  1.1623 -2.7267
 7724TIP3   OH244586   1.461   6.456  16.261 -0.4965  0.2514 -0.0175
 7724TIP3    H144587   1.391   6.521  16.259 -0.9830 -0.2785 -1.6262
 7724TIP3    H244588   1.485   6.444  16.169 -1.1456 -2.6051  0.1188
 7725TIP3   OH244589   4.868   1.829  14.341 -0.4841  0.1295  0.2463
 7725TIP3    H144590   4.902   1.743  14.317 -1.0791 -0.1637  0.4371
 7725TIP3    H244591   4.909   1.849  14.425  0.7349  0.6618 -0.4435
 7726TIP3   OH244592   1.681   3.895  11.469  0.2942  0.2867  0.3158
 7726TIP3    H144593   1.621   3.924  11.537  0.4048 -1.0436  0.9998
 7726TIP3    H244594   1.627   3.845  11.408  0.3273  0.8847 -0.2228
 7727TIP3   OH244595   5.172   3.339   5.733  0.0508 -0.1696  0.1818
 7727TIP3    H144596   5.128   3.260   5.700 -0.3935 -0.9132  2.3656
 7727TIP3    H244597   5.141   3.347   5.824  0.2545  2.4248  0.0839
 7728TIP3   OH244598   0.534   1.478   4.624 -0.0190 -0.5398 -0.1039
 7728TIP3    H144599   0.591   1.492   4.699 -0.0197 -0.7987 -0.0575
 7728TIP3    H244600   0.446   1.475   4.661 -0.3242  2.0533 -0.3773
 7729TIP3   OH244601   4.105   1.877  13.537 -0.5339  0.6533  0.1391
 7729TIP3    H144602   4.066   1.791  13.523  1.2546  0.1386 -2.6306
 7729TIP3    H244603   4.043   1.938  13.496 -1.7321  0.7431  1.9773
 7730TIP3   OH244604   1.498   5.578   2.617 -0.3602  0.0479 -0.5390
 7730TIP3    H144605   1.430   5.646   2.616 -1.5484 -1.0495  1.0600
 7730TIP3    H244606   1.487   5.532   2.534 -1.1168  0.3285 -0.6046
 7731TIP3   OH244607   0.616   1.728  12.464  0.1865 -0.1799 -0.0789
 7731TIP3    H144608   0.541   1.728  12.404  0.9973 -2.0178 -1.1618
 7731TIP3    H244609   0.687   1.687  12.414  1.8638  1.2123  1.0196
 7732TIP3   OH244610   3.151   3.715   3.182  0.1111  0.6516 -0.2916
 7732TIP3    H144611   3.149   3.731   3.088 -1.0544 -0.4423 -0.4969
 7732TIP3    H244612   3.227   3.762   3.214 -0.2838  2.2229 -1.5581
 7733TIP3   OH244613   0.175   1.543   1.578 -0.1112  0.3254  0.2520
 7733TIP3    H144614   0.188   1.634   1.606  2.4309  0.0726  0.1206
 7733TIP3    H244615   0.250   1.496   1.613 -0.5250 -1.4159 -1.0402
 7734TIP3   OH244616   0.835   3.161  14.537  0.0020 -0.1201 -0.6011
 7734TIP3    H144617   0.792   3.201  14.612  0.6275 -0.9966  0.2344
 7734TIP3    H244618   0.873   3.080  14.570 -0.7275 -1.1446 -2.1124
 7735TIP3   OH244619   2.935   0.716  11.948 -0.1685 -0.2963  0.2323
 7735TIP3    H144620   3.016   0.746  11.906 -2.1278  2.6778 -1.8351
 7735TIP3    H244621   2.922   0.776  12.021 -1.2875  0.3004 -0.4430
 7736TIP3   OH244622   3.772   0.456  13.101 -0.3842 -0.3508  0.6433
 7736TIP3    H144623   3.731   0.460  13.015 -0.2471  0.9760  0.6143
 7736TIP3    H244624   3.855   0.503  13.091  0.1940 -1.2076  1.2158
 7737TIP3   OH244625   1.281   1.084  16.896  0.0721  0.0848  0.0487
 7737TIP3    H144626   1.225   1.007  16.895 -1.0825  0.8958 -0.2551
 7737TIP3    H244627   1.244   1.142  16.829  2.0301  0.1560 -1.0635
 7738TIP3   OH244628   2.016   1.120   2.347 -0.2105  0.0712 -0.0580
 7738TIP3    H144629   2.012   1.048   2.410  0.5922 -1.0269 -1.1955
 7738TIP3    H244630   1.936   1.170   2.362 -1.5302 -1.8960 -0.1902
 7739TIP3   OH244631   4.788   2.945  16.984 -0.2269  0.9097 -0.2541
 7739TIP3    H144632   4.778   3.040  16.977 -1.7782  0.9299  1.4549
 7739TIP3    H244633   4.705   2.910  16.949 -0.1875  0.2508  0.2920
 7740TIP3   OH244634   0.516   0.496   3.123  0.3752 -0.0683  0.2264
 7740TIP3    H144635   0.515   0.434   3.195 -0.6704 -0.1398  0.1538
 7740TIP3    H244636   0.603   0.485   3.083  0.2030 -1.4711  0.2178
 7741TIP3   OH244637   2.630   5.485   1.629  0.5004  0.4417 -0.6982
 7741TIP3    H144638   2.633   5.534   1.547  0.2802  1.8145  0.0783
 7741TIP3    H244639   2.639   5.552   1.697 -1.6097 -0.3519  0.4709
 7742TIP3   OH244640   5.482   4.505  11.547  0.0968  0.5762 -0.1584
 7742TIP3    H144641   5.459   4.499  11.640 -0.8992  0.7514 -0.3788
 7742TIP3    H244642   5.575   4.529  11.547  0.1106  0.5804  0.7891
 7743TIP3   OH244643   4.604   2.499  16.918  0.6799 -0.2960 -0.5336
 7743TIP3    H144644   4.625   2.465  17.005 -0.3774 -2.4715 -1.0468
 7743TIP3    H244645   4.687   2.531  16.884  0.8387  2.2723  1.8716
 7744TIP3   OH244646   6.337   5.461  15.571  0.3602 -0.0090 -0.2150
 7744TIP3    H144647   6.424   5.500  15.562  0.3379  1.3692  3.5904
 7744TIP3    H244648   6.350   5.388  15.632 -0.6164 -2.3890 -2.6814
 7745TIP3   OH244649   6.617   5.265  16.972 -0.3680  0.4626  0.4630
 7745TIP3    H144650   6.679   5.209  17.020 -0.7052  0.2344  0.6384
 7745TIP3    H244651   6.531   5.238  17.005 -0.4931  1.6094  1.1102
 7746TIP3   OH244652   6.210   4.826   4.025  0.7733 -0.0397  0.2422
 7746TIP3    H144653   6.197   4.890   4.094 -0.1459 -0.3994  0.4101
 7746TIP3    H244654   6.297   4.846   3.989  1.0523  0.4460  1.1763
 7747TIP3   OH244655   0.815   0.622   5.531 -0.0226  0.0139 -0.1965
 7747TIP3    H144656   0.900   0.655   5.559  0.7734 -0.0738 -2.3175
 7747TIP3    H244657   0.762   0.619   5.611  2.5969 -1.9767  1.6019
 7748TIP3   OH244658   4.725   2.213   6.448 -0.0057  0.4508  0.0312
 7748TIP3    H144659   4.716   2.210   6.543  2.7321 -1.5477  0.3251
 7748TIP3    H244660   4.658   2.152   6.416 -0.3104  0.4168  0.7120
 7749TIP3   OH244661   3.870   5.543  16.332 -0.5640  0.1137 -0.0118
 7749TIP3    H144662   3.922   5.559  16.410  0.5760 -0.1079 -0.6994
 7749TIP3    H244663   3.848   5.450  16.336  0.0805 -0.0573 -0.2839
 7750TIP3   OH244664   3.513   1.656   5.091  0.5110 -0.3018 -0.1864
 7750TIP3    H144665   3.604   1.668   5.119  0.6558 -1.0140 -0.3388
 7750TIP3    H244666   3.471   1.614   5.166  0.0831  0.8079  0.2231
 7751TIP3   OH244667   5.631   5.410   4.914 -0.3969 -0.3502  0.0894
 7751TIP3    H144668   5.649   5.340   4.976  1.5398 -0.2680 -0.3124
 7751TIP3    H244669   5.668   5.379   4.831  1.1072  1.3818  0.0535
 7752TIP3   OH244670   6.296   1.497  15.909 -0.0288  0.3528  0.3760
 7752TIP3    H144671   6.244   1.421  15.881  0.0647  0.5440 -0.3445
 7752TIP3    H244672   6.387   1.472  15.893  0.2141 -0.3779  2.6014
 7753TIP3   OH244673   3.464   1.972   1.920  0.3586 -0.0216 -0.3229
 7753TIP3    H144674   3.465   1.908   1.991 -1.8584  0.1825 -0.0215
 7753TIP3    H244675   3.516   2.046   1.952 -0.0513 -0.2174  0.8235
 7754TIP3   OH244676   0.583   0.960  13.404 -0.1579  0.1994 -0.3234
 7754TIP3    H144677   0.656   1.018  13.428 -0.3549  0.7400 -1.0155
 7754TIP3    H244678   0.534   0.949  13.486 -0.3934  1.4085 -0.2853
 7755TIP3   OH244679   4.526   1.408  11.727  0.2450 -0.1316  0.0290
 7755TIP3    H144680   4.481   1.490  11.750  0.7277  0.5852 -1.4379
 7755TIP3    H244681   4.607   1.410  11.777  0.2096  0.2446  0.0749
 7756TIP3   OH244682   1.156   6.663  14.135  0.7987  0.2330 -0.1992
 7756TIP3    H144683   1.225   6.721  14.102 -1.3955  2.3487 -1.3557
 7756TIP3    H244684   1.083   6.675  14.075 -1.3595 -0.2706  2.1484
 7757TIP3   OH244685   6.508   1.259   2.640 -0.6763 -0.6917  0.1919
 7757TIP3    H144686   6.440   1.194   2.653 -1.0820 -0.0896  1.1906
 7757TIP3    H244687   6.566   1.247   2.715  0.0180 -0.8170 -0.3516
 7758TIP3   OH244688   5.308   1.154   0.371 -0.3891 -0.0448 -0.0451
 7758TIP3    H144689   5.399   1.184   0.370 -0.9480  1.7598 -0.2349
 7758TIP3    H244690   5.309   1.073   0.321  1.0403  0.1767 -0.4243
 7759TIP3   OH244691   5.728   0.559   0.040 -0.4515 -0.2462  0.0150
 7759TIP3    H144692   5.734   0.487  -0.023 -1.0369 -0.6784  0.4434
 7759TIP3    H244693   5.783   0.530   0.114  0.1744  0.2263 -0.2556
 7760TIP3   OH244694   1.609   0.706  16.608  0.8237  0.1889  0.1040
 7760TIP3    H144695   1.676   0.709  16.540 -0.0088  0.3051 -0.7172
 7760TIP3    H244696   1.560   0.626  16.592  0.7771  0.0808  0.7284
 7761TIP3   OH244697   2.151   0.332  12.177 -0.6584  0.1105  0.1774
 7761TIP3    H144698   2.193   0.371  12.254 -0.8633 -1.1981  0.9718
 7761TIP3    H244699   2.119   0.247  12.207  0.4312 -1.0204 -1.7003
 7762TIP3   OH244700   4.030   1.295  11.429  0.6016 -0.0066 -0.3114
 7762TIP3    H144701   4.044   1.217  11.375  1.0430  0.1253 -0.3892
 7762TIP3    H244702   4.001   1.361  11.367 -0.5775 -0.3255 -0.1262
 7763TIP3   OH244703   2.899   4.143  16.070 -0.3774 -0.7757  0.3643
 7763TIP3    H144704   2.931   4.184  16.150  1.2572 -0.7491 -0.2560
 7763TIP3    H244705   2.947   4.188  16.000  0.4411 -2.7827 -0.4289
 7764TIP3   OH244706   5.391   2.333   2.487  0.2649  0.4785 -0.2356
 7764TIP3    H144707   5.426   2.420   2.505  0.1054  0.8453 -1.5991
 7764TIP3    H244708   5.468   2.276   2.481  0.2913  0.1380  2.3821
 7765TIP3   OH244709   4.334   2.139  15.362 -0.2110 -0.4893  0.1451
 7765TIP3    H144710   4.245   2.161  15.333 -0.7193 -0.4509  1.6775
 7765TIP3    H244711   4.322   2.078  15.435  1.1015 -2.5832 -1.2732
 7766TIP3   OH244712   1.227   6.495   4.074  0.2189  0.3187  0.0712
 7766TIP3    H144713   1.279   6.505   3.994 -1.1617 -0.3975 -0.9640
 7766TIP3    H244714   1.280   6.535   4.143  1.7784  0.2857 -1.0677
 7767TIP3   OH244715   0.446   5.865   3.200  0.3905 -0.4350  0.1800
 7767TIP3    H144716   0.505   5.801   3.238  0.9230  0.1944  0.4401
 7767TIP3    H244717   0.503   5.925   3.152 -0.0373  0.1161  0.3407
 7768TIP3   OH244718   6.046   3.843   1.735 -0.3916  0.2349 -0.1353
 7768TIP3    H144719   5.982   3.809   1.797 -0.5563 -0.2124 -0.5535
 7768TIP3    H244720   6.002   3.918   1.694 -0.0608  0.9286  0.7164
 7769TIP3   OH244721   0.565   4.161   3.148  0.2302 -0.3776  0.4012
 7769TIP3    H144722   0.490   4.204   3.106  0.5657 -0.3761 -0.2144
 7769TIP3    H244723   0.531   4.075   3.173  0.4628 -1.0588 -1.4436
 7770TIP3   OH244724   1.000   6.034  13.731  0.0718 -0.1456 -0.0546
 7770TIP3    H144725   1.020   6.024  13.824 -1.0586  0.5438  0.2705
 7770TIP3    H244726   0.965   5.949  13.704  0.8131 -0.4868  0.0261
 7771TIP3   OH244727   6.603   2.613   1.438 -0.0719  0.0027  0.7110
 7771TIP3    H144728   6.669   2.681   1.451  0.3032 -0.1442 -0.3565
 7771TIP3    H244729   6.528   2.660   1.401  0.6012 -0.2973 -1.1603
 7772TIP3   OH244730   1.107   6.035  16.599  0.2656  0.1557  0.2357
 7772TIP3    H144731   1.107   6.055  16.693  1.6895 -0.6175  0.4224
 7772TIP3    H244732   1.039   5.968  16.590  0.9799 -0.7101  0.9636
 7773TIP3   OH244733   3.785   4.196  13.663 -0.2519  0.4587  0.7164
 7773TIP3    H144734   3.803   4.248  13.742 -1.8426  2.6929 -0.2980
 7773TIP3    H244735   3.695   4.165  13.675  0.3159 -1.2608  0.8128
 7774TIP3   OH244736   4.034   4.349  16.715 -0.1016  0.5025 -0.1959
 7774TIP3    H144737   4.001   4.262  16.692  1.2147 -0.4505  1.3100
 7774TIP3    H244738   3.962   4.390  16.763 -0.7414  0.2758 -0.9371
 7775TIP3   OH244739   2.176   6.711   3.687  0.1964 -0.1676  0.3137
 7775TIP3    H144740   2.097   6.755   3.719  0.8434  0.4536  1.0934
 7775TIP3    H244741   2.144   6.648   3.623 -0.9088  0.2650  0.4216
 7776TIP3   OH244742   2.786   1.405  16.742  0.3290 -0.2264  0.2737
 7776TIP3    H144743   2.807   1.349  16.668  0.6787  0.1144  0.1109
 7776TIP3    H244744   2.704   1.448  16.718  0.7598  0.3492 -0.1864
 7777TIP3   OH244745   4.874   2.419   4.299 -0.3602 -0.4526 -0.3158
 7777TIP3    H144746   4.864   2.347   4.362  1.1104 -1.0524 -0.7147
 7777TIP3    H244747   4.794   2.470   4.308 -0.8345 -1.3597  0.9800
 7778TIP3   OH244748   2.448   5.588  10.411  0.5987  0.2121 -0.1009
 7778TIP3    H144749   2.476   5.558  10.497 -0.1753 -2.2668 -0.6197
 7778TIP3    H244750   2.353   5.598  10.419 -0.0661 -3.3467 -1.3758
 7779TIP3   OH244751   3.552   6.491   5.185 -0.2385  0.1710  0.2321
 7779TIP3    H144752   3.563   6.408   5.230 -1.7358  0.1150  0.5477
 7779TIP3    H244753   3.640   6.531   5.185  0.2997 -0.9821  0.8800
 7780TIP3   OH244754   4.958   3.968   3.360  0.0278 -0.4388 -0.2559
 7780TIP3    H144755   4.951   4.062   3.341  0.2599 -0.3243  0.2146
 7780TIP3    H244756   4.967   3.963   3.455  1.0730 -0.8716 -0.3617
 7781TIP3   OH244757   5.581   5.931  15.823  0.1025  0.8159  0.2227
 7781TIP3    H144758   5.654   5.869  15.829 -1.0609 -0.6782 -0.4749
 7781TIP3    H244759   5.551   5.941  15.913  1.5610  1.9729  0.6122
 7782TIP3   OH244760   0.525   5.732  13.722  0.0733  0.6787 -0.2004
 7782TIP3    H144761   0.505   5.679  13.799 -0.9280  2.7476  1.0309
 7782TIP3    H244762   0.525   5.669  13.649 -0.7484 -1.0363  1.2124
 7783TIP3   OH244763   1.466   1.488   5.420  0.1600  0.1904 -0.0355
 7783TIP3    H144764   1.430   1.528   5.341  0.9718 -2.5648 -1.9429
 7783TIP3    H244765   1.431   1.541   5.492 -0.9087  2.5935 -2.1857
 7784TIP3   OH244766   2.111   6.476  15.420  0.2241  0.1093  0.2192
 7784TIP3    H144767   2.195   6.454  15.459  0.8250  1.9869  0.0912
 7784TIP3    H244768   2.127   6.557  15.371 -1.1146 -0.7040 -1.7323
 7785TIP3   OH244769   5.694   0.068  14.934 -0.2075 -1.0490  0.5094
 7785TIP3    H144770   5.753  -0.002  14.905 -0.7029 -1.4648  0.4877
 7785TIP3    H244771   5.673   0.116  14.854  0.2177 -0.8107  0.5408
 7786TIP3   OH244772   6.383   1.346   0.086 -0.3088  0.2641 -0.1924
 7786TIP3    H144773   6.338   1.424   0.056 -2.6276 -1.4942 -1.6839
 7786TIP3    H244774   6.454   1.333   0.024 -1.5845 -0.2314 -1.6083
 7787TIP3   OH244775   4.089   4.545   4.356  0.1349 -0.0888  0.1001
 7787TIP3    H144776   4.162   4.565   4.296  0.8535  1.1847  1.3327
 7787TIP3    H244777   4.107   4.456   4.386  0.2017 -0.4465 -0.9422
 7788TIP3   OH244778   6.134   6.773   4.977  0.4871 -0.0043  0.0221
 7788TIP3    H144779   6.109   6.792   5.067  0.2581 -0.2526  0.0140
 7788TIP3    H244780   6.057   6.796   4.925  1.5173  2.7412 -0.4447
 7789TIP3   OH244781   3.330   4.080   4.165  0.5091 -0.2730  0.4270
 7789TIP3    H144782   3.274   4.027   4.221 -2.0061  0.8693 -0.8693
 7789TIP3    H244783   3.333   4.032   4.082 -0.1798  0.5902 -0.1215
 7790TIP3   OH244784   4.568   3.329   2.174  0.7512 -0.5177 -0.2445
 7790TIP3    H144785   4.484   3.373   2.181  0.6366 -0.6897 -0.5380
 7790TIP3    H244786   4.612   3.371   2.100  0.5739 -1.0028 -0.6301
 7791TIP3   OH244787   4.150   6.094   1.669  0.2070 -0.1717  0.5566
 7791TIP3    H144788   4.132   6.000   1.669  0.4857 -0.2337 -0.1664
 7791TIP3    H244789   4.124   6.124   1.756  0.2802 -0.9521  0.8528
 7792TIP3   OH244790   4.120   3.080   1.231  0.2316 -0.1164 -0.3168
 7792TIP3    H144791   4.133   2.998   1.183  1.1192 -1.0300  1.3931
 7792TIP3    H244792   4.192   3.082   1.295 -0.6844  1.2269  0.7350
 7793TIP3   OH244793   2.566   5.611  14.593 -0.1494 -0.3187 -0.0524
 7793TIP3    H144794   2.619   5.687  14.571  1.6425 -0.5589  2.8587
 7793TIP3    H244795   2.476   5.644  14.593  0.5300  1.6831  0.6227
 7794TIP3   OH244796   1.993   3.217   1.178  0.6412 -0.9055 -0.1707
 7794TIP3    H144797   1.963   3.272   1.251 -1.7702 -2.0241 -0.2299
 7794TIP3    H244798   2.073   3.177   1.210  0.6329  0.0516  1.1583
 7795TIP3   OH244799   6.418   1.581  15.475  0.0617  0.2379  0.2780
 7795TIP3    H144800   6.466   1.646  15.526 -0.7405 -0.5330  2.1039
 7795TIP3    H244801   6.331   1.619  15.463 -0.6102 -0.7025  1.8950
 7796TIP3   OH244802   6.616   3.380  16.078  0.0821  0.3444 -0.0187
 7796TIP3    H144803   6.667   3.452  16.041 -0.6097  0.8297 -0.0333
 7796TIP3    H244804   6.668   3.351  16.154 -0.3613  1.8790  0.9208
 7797TIP3   OH244805   1.364   5.450  11.427 -0.2414 -0.3177 -0.1471
 7797TIP3    H144806   1.442   5.439  11.373 -0.2497  0.6302 -0.3667
 7797TIP3    H244807   1.369   5.540  11.460 -0.0693 -0.9524  1.7013
 7798TIP3   OH244808   5.281   3.262  16.088 -0.2550 -0.2028 -0.1680
 7798TIP3    H144809   5.291   3.189  16.149  0.5597  0.3872  0.4227
 7798TIP3    H244810   5.229   3.327  16.136  0.4026  0.2699 -0.0749
 7799TIP3   OH244811   4.165   5.996  11.177 -0.4182  0.0614 -0.4778
 7799TIP3    H144812   4.098   5.948  11.226 -1.2466  2.0611  0.4743
 7799TIP3    H244813   4.182   6.074  11.230  0.9192  0.7855 -1.9006
 7800TIP3   OH244814   4.971   4.560   1.562  0.3934  0.7837 -0.5655
 7800TIP3    H144815   5.048   4.600   1.520  1.5783 -1.4321 -0.6572
 7800TIP3    H244816   4.983   4.466   1.549 -2.6516  0.3696 -1.0212
 7801TIP3   OH244817   2.354   1.952   0.061 -0.1049  0.5268 -0.4096
 7801TIP3    H144818   2.346   1.869   0.014 -1.7044  0.7373 -0.5454
 7801TIP3    H244819   2.375   2.016  -0.006 -0.8835  0.5717 -0.6130
 7802TIP3   OH244820   0.859   6.309   4.629  0.0041 -0.1199  0.2941
 7802TIP3    H144821   0.935   6.251   4.619  1.3816  1.5818  0.5683
 7802TIP3    H244822   0.827   6.291   4.718  1.6843  0.9360  1.1689
 7803TIP3   OH244823   6.630   3.386   4.957  0.1292 -0.4540  0.0293
 7803TIP3    H144824   6.681   3.335   4.895 -2.1875 -1.7887 -0.9074
 7803TIP3    H244825   6.587   3.320   5.012 -0.7637  0.6006  0.6318
 7804TIP3   OH244826   5.984   5.003   0.044 -0.5875  0.9089 -0.6112
 7804TIP3    H144827   5.960   4.934   0.106 -0.5153  2.0737  0.7740
 7804TIP3    H244828   6.036   4.959  -0.023 -0.2361 -0.3131  0.4340
 7805TIP3   OH244829   1.978   6.110   3.239 -0.3440  0.1796 -0.3458
 7805TIP3    H144830   1.902   6.145   3.192 -0.8463  0.0510  0.3614
 7805TIP3    H244831   2.048   6.107   3.173 -1.1308 -0.3242 -1.1805
 7806TIP3   OH244832   3.479   6.548   4.533  0.5821 -0.2411 -0.0000
 7806TIP3    H144833   3.554   6.550   4.473 -0.0814 -0.4829 -0.8528
 7806TIP3    H244834   3.461   6.640   4.551  0.2334 -0.1275 -0.8854
 7807TIP3   OH244835   6.564   1.339   0.972  0.1813 -0.6024  0.4518
 7807TIP3    H144836   6.596   1.287   1.045  2.9463  0.1744 -0.0750
 7807TIP3    H244837   6.609   1.303   0.895  0.2239  0.9238 -0.2799
 7808TIP3   OH244838   4.255   1.722  15.562  0.1748  0.0573 -0.2486
 7808TIP3    H144839   4.244   1.692  15.652  0.3767 -3.7495 -1.3167
 7808TIP3    H244840   4.168   1.711  15.523  0.3026  0.8324 -0.7652
 7809TIP3   OH244841   5.209   0.731   0.761  0.1718 -0.1500  0.4875
 7809TIP3    H144842   5.249   0.658   0.713 -0.0408 -0.1610  0.3257
 7809TIP3    H244843   5.119   0.703   0.777  0.0083  0.1990  0.1753
 7810TIP3   OH244844   0.805   0.079   4.664  0.2669 -0.0755  0.3425
 7810TIP3    H144845   0.817   0.033   4.581  1.5559  0.2880  0.3076
 7810TIP3    H244846   0.893   0.090   4.698 -0.1486  0.9122  1.1433
 7811TIP3   OH244847   5.572   2.249  14.646 -0.1921 -0.2308 -0.3034
 7811TIP3    H144848   5.603   2.164  14.676 -2.1008 -0.4431  1.3092
 7811TIP3    H244849   5.536   2.231  14.558 -1.1051 -1.2632  0.2476
 7812TIP3   OH244850   0.165   2.862   5.597  0.4641 -0.5154  0.1133
 7812TIP3    H144851   0.165   2.942   5.545  1.0831 -0.5322  0.0854
 7812TIP3    H244852   0.110   2.882   5.672 -0.2473 -0.4118 -0.4237
 7813TIP3   OH244853   5.620   0.461  15.241  0.0333  0.2043 -0.3303
 7813TIP3    H144854   5.566   0.508  15.178 -1.7332 -1.3005 -0.0209
 7813TIP3    H244855   5.670   0.399  15.189 -2.0593 -1.6391 -0.2784
 7814TIP3   OH244856   2.613   6.386   0.563 -0.3916 -1.1509 -0.3461
 7814TIP3    H144857   2.590   6.368   0.472 -1.8510 -1.7138  0.0914
 7814TIP3    H244858   2.542   6.346   0.613 -0.2197  0.1481  0.9955
 7815TIP3   OH244859   0.262   0.872  17.242 -0.5651  0.1858  0.4822
 7815TIP3    H144860   0.323   0.858  17.315  1.1415  2.8377 -0.3017
 7815TIP3    H244861   0.296   0.818  17.171 -0.1307  0.3085  0.5925
 7816TIP3   OH244862   0.937   3.446  16.234 -0.4058  0.0980 -0.2025
 7816TIP3    H144863   0.892   3.495  16.165  0.7686  2.9251  0.8792
 7816TIP3    H244864   0.991   3.512  16.278  1.0684 -2.1852  1.5971
 7817TIP3   OH244865   5.833   6.565  14.831  0.3984 -0.4309  0.2371
 7817TIP3    H144866   5.818   6.536  14.741  0.1489 -2.5368  0.9103
 7817TIP3    H244867   5.771   6.514  14.884  1.3073 -0.0611  1.7263
 7818TIP3   OH244868   0.384   4.283   4.062 -0.3980  0.4080  0.1794
 7818TIP3    H144869   0.338   4.353   4.015 -0.5323 -0.0442 -0.3636
 7818TIP3    H244870   0.410   4.221   3.994  0.0726  0.1234  0.6113
 7819TIP3   OH244871   0.098   3.617  11.540  0.0454  0.4927  0.1620
 7819TIP3    H144872   0.181   3.579  11.512 -0.3552 -0.9627  0.8715
 7819TIP3    H244873   0.044   3.542  11.567 -0.5778  1.5656  2.1350
 7820TIP3   OH244874   5.484   1.512   1.691 -0.5232  0.0329  0.0907
 7820TIP3    H144875   5.494   1.477   1.603  0.1825  1.9592 -0.6589
 7820TIP3    H244876   5.546   1.585   1.695 -0.3777 -0.1285  2.2629
 7821TIP3   OH244877   5.307   2.301   4.193 -0.0511  0.4323 -0.0351
 7821TIP3    H144878   5.269   2.346   4.117 -2.5504 -0.9933  0.2435
 7821TIP3    H244879   5.270   2.347   4.268  1.6761  1.2461  0.3644
 7822TIP3   OH244880   1.646   4.621  16.595  0.2084  0.2413 -0.0080
 7822TIP3    H144881   1.603   4.548  16.641 -0.6311  0.5448 -0.2956
 7822TIP3    H244882   1.674   4.583  16.512 -1.9176  0.6703 -0.9826
 7823TIP3   OH244883   5.073   1.135  15.629  0.1042  0.0137 -0.0034
 7823TIP3    H144884   5.121   1.193  15.688 -0.8286  0.5764  0.2128
 7823TIP3    H244885   5.131   1.059  15.618 -0.0103 -0.4552  2.2190
 7824TIP3   OH244886   5.116   0.361  14.518 -0.2489  0.3316  0.3880
 7824TIP3    H144887   5.113   0.455  14.531  0.3083  0.2761  0.9506
 7824TIP3    H244888   5.028   0.331  14.540  0.0202  0.5288  1.8304
 7825TIP3   OH244889   5.683   5.146   5.690  0.4976  0.3121 -0.0787
 7825TIP3    H144890   5.720   5.110   5.770 -0.3437 -1.0829 -0.2839
 7825TIP3    H244891   5.750   5.132   5.624  0.5348 -0.0831  0.0386
 7826TIP3   OH244892   0.771   3.145   2.962 -0.1473 -0.1182  0.3719
 7826TIP3    H144893   0.696   3.129   2.905 -0.0880  1.2060 -0.1107
 7826TIP3    H244894   0.735   3.138   3.051 -0.1056 -2.8171  0.2550
 7827TIP3   OH244895   0.461   3.705   4.005 -0.0400 -0.2083 -0.4471
 7827TIP3    H144896   0.466   3.612   4.025 -0.1310 -0.3001 -0.8391
 7827TIP3    H244897   0.371   3.718   3.974 -0.2516  0.1535  0.3023
 7828TIP3   OH244898   4.197   5.531  15.613 -0.1840 -0.4518 -0.0712
 7828TIP3    H144899   4.209   5.483  15.530 -0.5290  0.6134 -0.7634
 7828TIP3    H244900   4.173   5.619  15.585  1.7549  0.5128  1.1356
 7829TIP3   OH244901   5.140   5.337  14.663 -0.3494 -0.1147  0.2751
 7829TIP3    H144902   5.192   5.376  14.733 -0.9226 -1.4140  1.4839
 7829TIP3    H244903   5.106   5.256  14.701 -1.9866 -0.0790 -0.9941
 7830TIP3   OH244904   4.635   6.487   4.323  0.0953 -0.1025  0.0702
 7830TIP3    H144905   4.646   6.582   4.328  1.6758 -0.2936  1.1320
 7830TIP3    H244906   4.664   6.464   4.235  0.1874  0.3527 -0.0227
 7831TIP3   OH244907   0.106   1.733   3.285 -0.6222  0.9232 -0.3715
 7831TIP3    H144908   0.128   1.806   3.227 -1.1369 -0.0930 -1.9323
 7831TIP3    H244909   0.189   1.687   3.299 -0.6525  0.5966 -1.1836
 7832TIP3   OH244910   1.415   2.409  13.885  0.1643 -0.4365 -0.1546
 7832TIP3    H144911   1.337   2.430  13.937  1.2489 -0.8091  1.6832
 7832TIP3    H244912   1.383   2.409  13.794 -2.3178 -2.0716  0.6143
 7833TIP3   OH244913   1.149   4.777   5.599  0.2819 -0.4285 -0.7072
 7833TIP3    H144914   1.090   4.711   5.562 -2.8105  0.8472  1.5676
 7833TIP3    H244915   1.192   4.816   5.523  0.7288 -3.5878 -2.2452
 7834TIP3   OH244916   3.451   4.121   3.525  0.0277  0.3661 -0.0614
 7834TIP3    H144917   3.382   4.067   3.564 -0.5058  0.0036 -1.4622
 7834TIP3    H244918   3.528   4.065   3.525 -0.6476 -0.6379 -1.9809
 7835TIP3   OH244919   0.573   1.450  11.515 -1.1306  0.5658  0.0582
 7835TIP3    H144920   0.650   1.446  11.459 -1.4101  0.8048 -0.3450
 7835TIP3    H244921   0.579   1.371  11.570 -1.3863 -0.1979 -0.9886
 7836TIP3   OH244922   4.182   3.332   5.582 -0.4251  0.9287  0.0154
 7836TIP3    H144923   4.230   3.409   5.611  1.8753 -0.8633  1.3177
 7836TIP3    H244924   4.169   3.346   5.488 -0.7249  3.1780  0.3355
 7837TIP3   OH244925   5.325   2.290  13.165 -0.8706  0.1322  0.1886
 7837TIP3    H144926   5.250   2.348  13.162 -0.0893  1.1285 -0.4162
 7837TIP3    H244927   5.385   2.323  13.098 -0.4484 -1.4326 -0.2518
 7838TIP3   OH244928   6.583   1.558  15.917 -0.2842  0.1157  0.5773
 7838TIP3    H144929   6.524   1.619  15.961  0.7411  1.0623  0.6936
 7838TIP3    H244930   6.662   1.559  15.971  0.7138  0.7009 -0.8500
 7839TIP3   OH244931   3.064   1.315   1.579 -0.2252  0.1832 -0.6011
 7839TIP3    H144932   3.016   1.394   1.556 -0.9112 -0.1330 -0.2924
 7839TIP3    H244933   3.031   1.248   1.518 -0.3209 -0.0892 -0.2502
 7840TIP3   OH244934   6.054   4.274  16.771  0.3440  0.1943  0.4354
 7840TIP3    H144935   6.030   4.213  16.841  0.7835  0.3467  0.7199
 7840TIP3    H244936   5.980   4.335  16.765 -0.1186 -0.3913  0.1178
 7841TIP3   OH244937   1.864   1.753  11.330 -0.0299  1.1148 -0.0556
 7841TIP3    H144938   1.799   1.804  11.282  0.7081  2.4579  0.3172
 7841TIP3    H244939   1.909   1.702  11.262  0.6240  2.5661 -0.7572
 7842TIP3   OH244940   5.728   2.961  12.931 -0.3606  0.3420  0.0011
 7842TIP3    H144941   5.690   2.995  12.850 -0.7915 -0.4954 -0.1588
 7842TIP3    H244942   5.730   3.036  12.990  0.5153  1.1124 -0.9761
 7843TIP3   OH244943   4.046   5.701  11.184 -0.4276 -0.6891  0.2228
 7843TIP3    H144944   4.074   5.763  11.250 -1.0067 -0.4296  0.2345
 7843TIP3    H244945   3.963   5.666  11.217 -0.4076 -1.0226 -0.0671
 7844TIP3   OH244946   1.021   1.520  13.374  0.3461  0.1372 -0.4866
 7844TIP3    H144947   1.000   1.465  13.299  1.1767 -0.9137  0.0361
 7844TIP3    H244948   1.115   1.536  13.366  0.0904  1.6748 -0.7408
 7845TIP3   OH244949   2.344   4.211   6.409  0.4962  0.0830  0.2978
 7845TIP3    H144950   2.250   4.204   6.427  0.5557 -0.8832  0.2878
 7845TIP3    H244951   2.349   4.246   6.320  0.1634  0.8290  0.5631
 7846TIP3   OH244952   4.125   2.840  16.050  0.6694 -0.0044  0.0474
 7846TIP3    H144953   4.173   2.792  16.118  1.1487 -1.4278 -1.2396
 7846TIP3    H244954   4.189   2.900  16.012 -0.1417  2.4426  2.2335
 7847TIP3   OH244955   2.093   1.815   3.612 -0.0042 -0.7490 -0.2821
 7847TIP3    H144956   2.157   1.886   3.602 -0.8779 -0.2534 -3.9559
 7847TIP3    H244957   2.146   1.737   3.629  1.0112  0.5201  3.2154
 7848TIP3   OH244958   4.375   3.291   4.558  0.0823  0.3027  0.5243
 7848TIP3    H144959   4.427   3.352   4.507  0.3408  1.7196  2.3639
 7848TIP3    H244960   4.428   3.273   4.635 -1.5511  0.7562  1.8262
 7849TIP3   OH244961   5.813   1.664  11.966  0.1383 -0.3508  0.1869
 7849TIP3    H144962   5.722   1.674  11.993  0.3532  0.4685  0.6284
 7849TIP3    H244963   5.849   1.598  12.026 -0.0551 -0.3860  0.2632
 7850TIP3   OH244964   0.702   6.587   2.624 -0.7861  0.1962  0.0831
 7850TIP3    H144965   0.795   6.571   2.640 -1.0010 -0.0274  1.1950
 7850TIP3    H244966   0.697   6.678   2.597 -0.4445  0.8300  2.0407
 7851TIP3   OH244967   2.756   3.091  13.440 -0.2197 -0.2891  0.1604
 7851TIP3    H144968   2.745   3.120  13.531  0.4412  0.4887  0.0042
 7851TIP3    H244969   2.839   3.130  13.413 -1.1921  0.8755 -1.3111
 7852TIP3   OH244970   4.122   2.744   2.379  0.3633 -0.2560  0.4630
 7852TIP3    H144971   4.190   2.798   2.339  0.6547 -0.0083  1.2717
 7852TIP3    H244972   4.164   2.706   2.456  0.0943 -1.4659  0.0366
 7853TIP3   OH244973   5.828   2.113   0.046 -0.8442 -0.2223 -0.1584
 7853TIP3    H144974   5.903   2.113  -0.014 -1.6332  0.5859 -1.1740
 7853TIP3    H244975   5.864   2.081   0.129  1.2682  2.6000  0.1606
 7854TIP3   OH244976   0.506   3.409  14.374 -0.1345 -0.3253 -0.0619
 7854TIP3    H144977   0.501   3.422  14.279 -0.6842  0.2565  0.0448
 7854TIP3    H244978   0.514   3.497  14.410  1.2563 -0.5974  0.3821
 7855TIP3   OH244979   4.579   6.654   3.898 -0.1927  0.8886 -0.3343
 7855TIP3    H144980   4.652   6.656   3.835  1.6016  0.2157  1.6275
 7855TIP3    H244981   4.527   6.579   3.871  0.2099  0.9513 -1.3565
 7856TIP3   OH244982   1.484   2.425  13.341  0.6596  0.0328  0.5109
 7856TIP3    H144983   1.576   2.398  13.345  0.9260  0.9634  1.0564
 7856TIP3    H244984   1.435   2.353  13.380  1.3199  0.1858  1.6685
 7857TIP3   OH244985   2.901   0.343   3.032 -0.2461 -0.4528  0.2717
 7857TIP3    H144986   2.890   0.281   3.104 -0.4146 -1.0605 -0.2700
 7857TIP3    H244987   2.995   0.358   3.028 -0.0631 -1.6590 -0.3933
 7858TIP3   OH244988   4.451   2.414   4.621 -0.2941 -0.7769  0.3399
 7858TIP3    H144989   4.357   2.397   4.630  0.0717 -3.3332  0.2406
 7858TIP3    H244990   4.470   2.483   4.684 -2.2222 -0.2741  0.4145
 7859TIP3   OH244991   5.314   3.162  11.527  0.3852 -0.5269  0.3892
 7859TIP3    H144992   5.288   3.158  11.435 -1.5968 -0.0144  0.8774
 7859TIP3    H244993   5.301   3.073  11.559 -1.4535 -0.1845  0.7464
 7860TIP3   OH244994   2.652   0.262   6.216 -0.2419  0.8513 -0.5289
 7860TIP3    H144995   2.570   0.225   6.187 -0.0255  0.8830 -1.1859
 7860TIP3    H244996   2.660   0.344   6.168 -0.4917  1.5366  0.5591
 7861TIP3   OH244997   1.813   1.933  16.398 -0.0976  0.4332  0.6938
 7861TIP3    H144998   1.821   1.838  16.395 -0.6610  0.4165 -1.3084
 7861TIP3    H244999   1.791   1.951  16.490 -0.4980 -1.4060  1.0143
 7862TIP3   OH245000   1.150   3.049  14.259  0.2128  0.3980 -0.2378
 7862TIP3    H145001   1.242   3.046  14.284  0.5218 -2.6443 -1.3325
 7862TIP3    H245002   1.143   3.125  14.202  1.6667  1.5538  1.0380
 7863TIP3   OH245003   2.309   2.522  15.703  0.1830  0.7919  0.6380
 7863TIP3    H145004   2.258   2.441  15.702  0.6231  0.4915  1.2259
 7863TIP3    H245005   2.297   2.556  15.791  1.9979  0.0299  1.2341
 7864TIP3   OH245006   4.964   1.029   0.963  0.2420 -0.6398  0.5394
 7864TIP3    H145007   4.884   1.029   0.911  0.1244  1.0238  0.6660
 7864TIP3    H245008   4.951   0.959   1.027 -1.0907 -0.4220  0.5329
 7865TIP3   OH245009   6.577   1.644   5.561  0.2792  0.0128 -0.4109
 7865TIP3    H145010   6.511   1.699   5.603  0.9226  1.2774 -1.0210
 7865TIP3    H245011   6.610   1.696   5.488  1.1408 -1.0563 -0.8182
 7866TIP3   OH245012   1.415   1.168   2.405  0.3378  0.0446  0.1328
 7866TIP3    H145013   1.480   1.237   2.410  0.9339 -0.5587  1.8818
 7866TIP3    H245014   1.347   1.201   2.347  2.7033  0.2316 -2.7369
 7867TIP3   OH245015   6.643   5.451  15.099 -0.4135 -0.3104 -0.7521
 7867TIP3    H145016   6.700   5.518  15.137  0.1568 -0.8507 -0.6317
 7867TIP3    H245017   6.576   5.436  15.166 -0.0080 -0.5244 -0.3943
 7868TIP3   OH245018   4.198   4.876   2.099 -0.3493  0.4552 -0.8169
 7868TIP3    H145019   4.152   4.919   2.171 -1.5432 -0.7314 -0.8301
 7868TIP3    H245020   4.265   4.939   2.073 -1.7877  2.1526 -0.6180
 7869TIP3   OH245021   5.834   6.236  10.482  0.4931 -0.0813  0.2333
 7869TIP3    H145022   5.766   6.170  10.492  0.8732 -0.5083  0.0335
 7869TIP3    H245023   5.916   6.190  10.500  0.7725  0.3049 -0.0201
 7870TIP3   OH245024   0.774   1.368   6.060  0.1252 -0.0083  0.0695
 7870TIP3    H145025   0.752   1.293   6.006 -2.2124  0.8169 -0.2306
 7870TIP3    H245026   0.833   1.333   6.127 -0.7127 -2.0455 -0.1994
 7871TIP3   OH245027   5.989   2.225   1.748  0.7917 -0.0028  0.0007
 7871TIP3    H145028   5.984   2.133   1.725 -0.3154 -0.1905  0.8967
 7871TIP3    H245029   6.051   2.263   1.685  0.7284 -1.2064 -0.8069
 7872TIP3   OH245030   1.938   0.329   3.737 -0.0946  0.0750 -0.1308
 7872TIP3    H145031   2.001   0.382   3.787  0.0300 -0.0688 -0.1329
 7872TIP3    H245032   1.890   0.392   3.684  0.0009  0.1945 -0.0769
 7873TIP3   OH245033   5.574   6.012  13.988  0.1314 -0.4929  0.1599
 7873TIP3    H145034   5.601   5.941  13.930 -1.2420 -0.1077 -1.0079
 7873TIP3    H245035   5.480   5.999  14.000 -0.4628  1.9439 -1.3116
 7874TIP3   OH245036   2.888   5.263  15.165 -0.6237 -0.5494 -0.3838
 7874TIP3    H145037   2.936   5.221  15.236 -0.8961  0.9666  0.7530
 7874TIP3    H245038   2.955   5.314  15.118 -0.6817 -0.4292 -0.3368
 7875TIP3   OH245039   0.548   0.723  10.993  0.7616  0.3659 -0.4396
 7875TIP3    H145040   0.533   0.817  11.000  1.9305  0.5646 -0.3554
 7875TIP3    H245041   0.553   0.705  10.899 -0.8690  0.1278 -0.5039
 7876TIP3   OH245042   1.938   0.538   4.450  0.1845 -0.3024 -0.1477
 7876TIP3    H145043   2.004   0.525   4.382  0.4273 -2.4823  0.4463
 7876TIP3    H245044   1.985   0.524   4.532 -0.6476 -0.1311  0.3727
 7877TIP3   OH245045   4.195   4.536  13.976 -0.2403 -0.0447  0.0119
 7877TIP3    H145046   4.220   4.578  14.058  3.8137 -1.9053 -0.0067
 7877TIP3    H245047   4.133   4.468  14.002 -0.0548  0.2660  1.3566
 7878TIP3   OH245048   2.672   6.714  12.884  0.8179  0.5485  0.0906
 7878TIP3    H145049   2.634   6.626  12.883  2.0721 -0.0264 -0.3179
 7878TIP3    H245050   2.643   6.752  12.967 -0.6455  0.1756 -0.2238
 7879TIP3   OH245051   6.124   2.834  16.273  0.0694 -0.0054 -0.4084
 7879TIP3    H145052   6.091   2.918  16.241  0.1593 -0.4326 -1.6492
 7879TIP3    H245053   6.046   2.785  16.298  0.0063  0.3723  0.1475
 7880TIP3   OH245054   4.003   4.482  16.036  0.2319  0.2645 -0.1042
 7880TIP3    H145055   3.931   4.443  15.986  0.6459 -1.6045  0.6650
 7880TIP3    H245056   4.078   4.481  15.976  0.4524 -0.9750  0.1585
 7881TIP3   OH245057   1.182   2.894  15.687  0.2276  0.4037  0.5074
 7881TIP3    H145058   1.273   2.874  15.708  0.8279  1.0458 -1.3156
 7881TIP3    H245059   1.183   2.986  15.659 -0.7500  0.0832 -0.6972
 7882TIP3   OH245060   1.098   0.055   5.915 -0.7025 -0.3553  0.1531
 7882TIP3    H145061   1.119  -0.036   5.933  0.3460  0.3088  2.6519
 7882TIP3    H245062   1.032   0.079   5.980  0.1554  1.0629  0.5563
 7883TIP3   OH245063   1.060   4.327  12.063  0.2437  0.3816 -0.0087
 7883TIP3    H145064   1.014   4.357  12.141  0.9571 -1.6134  1.2419
 7883TIP3    H245065   1.152   4.319  12.090  0.3975 -0.9693 -0.8356
 7884TIP3   OH245066   0.844   3.790   4.118  1.1221 -0.1819  0.1951
 7884TIP3    H145067   0.840   3.710   4.170  0.9484  0.3286  0.9798
 7884TIP3    H245068   0.757   3.797   4.078  0.4004  0.7101  1.8194
 7885TIP3   OH245069   4.141   3.179  12.544 -0.5764 -0.3404  0.4599
 7885TIP3    H145070   4.070   3.218  12.596 -1.5257 -0.6031 -0.5902
 7885TIP3    H245071   4.106   3.175  12.455  1.2182  0.6587 -0.3499
 7886TIP3   OH245072   4.255   1.939   3.901 -0.6172  0.1792 -0.5715
 7886TIP3    H145073   4.262   2.024   3.945  1.1183  0.0895 -0.5908
 7886TIP3    H245074   4.338   1.895   3.920 -0.5632 -0.6148 -2.4090
 7887TIP3   OH245075   0.192   5.309  13.117 -0.4035 -0.6194 -0.1125
 7887TIP3    H145076   0.204   5.403  13.107  0.3378 -0.7713 -0.7461
 7887TIP3    H245077   0.097   5.297  13.118 -0.5113  0.2202  0.9379
 7888TIP3   OH245078   5.820   2.594   5.316  0.0520 -0.0333  0.3924
 7888TIP3    H145079   5.759   2.564   5.248  0.5620 -1.6611  0.6017
 7888TIP3    H245080   5.783   2.558   5.397 -0.3675  1.6059  0.9612
 7889TIP3   OH245081   4.598   1.119   0.455  0.7632 -0.1643 -0.7889
 7889TIP3    H145082   4.646   1.178   0.396  1.8823 -0.3153 -0.0618
 7889TIP3    H245083   4.651   1.039   0.457  1.0059  0.0099  0.7834
 7890TIP3   OH245084   4.295   0.933   0.725 -0.2487 -0.0536  0.5475
 7890TIP3    H145085   4.314   1.027   0.722  0.6175 -0.2373 -0.4265
 7890TIP3    H245086   4.200   0.928   0.726 -0.3681  0.8149 -1.6164
 7891TIP3   OH245087   1.171   3.472  14.109 -0.5177 -0.5417  0.2256
 7891TIP3    H145088   1.165   3.557  14.065 -0.2463 -0.5313  0.2048
 7891TIP3    H245089   1.262   3.467  14.140 -0.0845 -1.4556 -1.0884
 7892TIP3   OH245090   6.601   1.600  17.260 -0.2291  0.5633 -0.1245
 7892TIP3    H145091   6.630   1.592  17.169 -1.5738  1.2980 -0.6473
 7892TIP3    H245092   6.508   1.624  17.253 -0.3089  0.7640  1.4403
 7893TIP3   OH245093   2.385   0.234  15.408 -0.6068  0.2432  0.1241
 7893TIP3    H145094   2.372   0.140  15.423  1.4341 -0.1283 -0.0650
 7893TIP3    H245095   2.455   0.258  15.469  0.1023  1.2194 -1.0138
 7894TIP3   OH245096   0.038   4.260  13.801  0.4867  0.3417 -0.1602
 7894TIP3    H145097   0.023   4.332  13.862 -1.3820  1.5089 -1.8868
 7894TIP3    H245098   0.088   4.298  13.730  0.1717 -0.2764 -0.7238
 7895TIP3   OH245099   4.525   5.551   0.642 -0.8091  0.2960  0.7117
 7895TIP3    H145100   4.484   5.589   0.565  1.4942  1.3394 -0.0909
 7895TIP3    H245101   4.606   5.600   0.653  0.9888 -2.5334  1.2976
 7896TIP3   OH245102   5.388   3.684  14.404  0.0725  0.1444 -0.1118
 7896TIP3    H145103   5.464   3.627  14.392  0.7339  1.0548 -0.3356
 7896TIP3    H245104   5.418   3.771  14.376 -0.6512  0.7928  1.0394
 7897TIP3   OH245105   6.438   2.643   1.006  0.4819 -0.2117  0.2231
 7897TIP3    H145106   6.345   2.630   0.988  0.7641 -0.5119 -1.1789
 7897TIP3    H245107   6.467   2.704   0.938  0.6295  2.6586  2.6585
 7898TIP3   OH245108   0.627   4.907  13.943 -0.4612  0.0177 -0.5760
 7898TIP3    H145109   0.722   4.918  13.931 -0.2889  0.5611  1.0864
 7898TIP3    H245110   0.597   4.872  13.859  1.1127  0.4085 -1.3496
 7899TIP3   OH245111   3.776   2.894  12.689  0.0022  0.2478  0.4295
 7899TIP3    H145112   3.760   2.897  12.594  1.3283  1.3976  0.1982
 7899TIP3    H245113   3.848   2.832  12.699 -1.2532 -1.1691  0.8981
 7900TIP3   OH245114   6.054   6.471   0.101  0.0803  0.1932  0.0958
 7900TIP3    H145115   6.010   6.528   0.164 -1.3210 -1.3829  0.6430
 7900TIP3    H245116   6.040   6.512   0.016 -0.9093  0.6567  0.4701
 7901TIP3   OH245117   6.211   6.045   1.797 -0.5614  0.5501  0.4112
 7901TIP3    H145118   6.147   6.081   1.735  0.5750  0.4789 -0.8306
 7901TIP3    H245119   6.295   6.079   1.768  0.2207 -0.9446  0.8342
 7902TIP3   OH245120   0.605   6.503  11.851 -0.9301 -0.3797  0.2062
 7902TIP3    H145121   0.552   6.485  11.773 -0.0645 -1.0367 -0.2606
 7902TIP3    H245122   0.586   6.594  11.873  0.8630  0.7569 -2.4695
 7903TIP3   OH245123   4.175   2.644   5.901  0.9614  0.0806  0.6636
 7903TIP3    H145124   4.199   2.601   5.819  0.4940 -0.1858  0.6648
 7903TIP3    H245125   4.093   2.688   5.882 -0.1527 -1.5436  1.5012
 7904TIP3   OH245126   2.675   2.738  15.334 -0.1305  1.1139 -0.1543
 7904TIP3    H145127   2.645   2.790  15.408 -1.1388 -0.9659  0.9864
 7904TIP3    H245128   2.721   2.664  15.373 -0.1656  0.2625 -1.6254
 7905TIP3   OH245129   6.623   0.818  16.000 -0.6129  0.0059  0.4361
 7905TIP3    H145130   6.678   0.860  15.934 -1.0644  0.9523  0.6358
 7905TIP3    H245131   6.556   0.773  15.950 -0.0190 -0.6448  0.2092
 7906TIP3   OH245132   4.069   2.711  14.427  0.4477 -0.4697  0.3368
 7906TIP3    H145133   4.155   2.712  14.387  1.6721  0.1427  2.7863
 7906TIP3    H245134   4.085   2.688  14.519 -1.9776 -0.1891  0.9102
 7907TIP3   OH245135   1.407   6.752  16.497 -0.1016  0.6420 -0.5049
 7907TIP3    H145136   1.406   6.845  16.521 -0.0068  0.6336 -0.4664
 7907TIP3    H245137   1.322   6.719  16.525 -0.6548  1.0096 -1.6934
 7908TIP3   OH245138   1.351   1.266  11.959  0.3266  0.2419 -0.0574
 7908TIP3    H145139   1.445   1.257  11.943  0.2153 -1.6006  0.0557
 7908TIP3    H245140   1.338   1.230  12.046 -0.3320  1.7318  0.4947
 7909TIP3   OH245141   6.651   5.608   1.585 -0.8882  0.2303 -0.1860
 7909TIP3    H145142   6.649   5.534   1.645 -1.3734 -1.3584 -2.0533
 7909TIP3    H245143   6.732   5.654   1.607 -0.5820 -0.8445  1.0455
 7910TIP3   OH245144   2.422   2.746   2.060  0.2046  0.3536 -0.1008
 7910TIP3    H145145   2.456   2.737   2.149 -1.1712 -0.1637  0.3986
 7910TIP3    H245146   2.459   2.671   2.013  0.3586  0.2220  0.2285
 7911TIP3   OH245147   2.964   1.337  11.336 -0.4209  0.2314  0.3895
 7911TIP3    H145148   2.962   1.242  11.342 -2.0723  0.2586  0.7087
 7911TIP3    H245149   2.967   1.355  11.242  0.8066 -0.1173  0.3462
 7912TIP3   OH245150   4.566   0.628  14.353 -0.2055  0.0814  0.2530
 7912TIP3    H145151   4.520   0.578  14.286 -0.8864  0.1450  0.6675
 7912TIP3    H245152   4.650   0.582  14.363 -0.1220  0.0424 -0.5939
 7913TIP3   OH245153   4.799   1.066  14.790 -0.5048  0.3977  0.2976
 7913TIP3    H145154   4.712   1.104  14.779 -1.1242  0.1037  3.2626
 7913TIP3    H245155   4.853   1.110  14.725 -2.2785  2.6132  0.2118
 7914TIP3   OH245156   2.207   3.324   2.449 -0.1225  0.4905 -0.5178
 7914TIP3    H145157   2.229   3.413   2.421 -0.6932  0.7742 -0.0901
 7914TIP3    H245158   2.124   3.305   2.407  0.9062 -0.6044 -2.1735
 7915TIP3   OH245159   4.949   1.565  14.286  0.6948  0.0875  0.6591
 7915TIP3    H145160   4.880   1.501  14.302  2.0917 -1.5684  0.3427
 7915TIP3    H245161   5.014   1.548  14.354  2.1052 -0.3745 -0.7280
 7916TIP3   OH245162   6.587   3.520  11.160 -0.1228  0.5661 -0.3433
 7916TIP3    H145163   6.601   3.559  11.074 -1.2464 -0.8110 -1.2074
 7916TIP3    H245164   6.674   3.517  11.200  0.6083  0.2927 -1.8752
 7917TIP3   OH245165   5.752   4.445   3.052  0.1316 -1.0623 -0.1639
 7917TIP3    H145166   5.778   4.390   3.126  1.8296  1.3385  1.1526
 7917TIP3    H245167   5.666   4.479   3.077 -0.4750 -2.2438 -0.5375
 7918TIP3   OH245168   3.462   4.842   1.240 -0.1925  0.3713 -0.4311
 7918TIP3    H145169   3.462   4.920   1.185  0.2370 -0.4504 -1.6312
 7918TIP3    H245170   3.550   4.841   1.279 -1.0142  1.8586  1.6785
 7919TIP3   OH245171   3.828   5.334  12.846 -0.0056 -0.1345  0.4496
 7919TIP3    H145172   3.908   5.285  12.866  1.1191  1.1393 -0.7187
 7919TIP3    H245173   3.835   5.414  12.898 -0.9262 -0.3404  0.9227
 7920TIP3   OH245174   2.141   1.782  14.097  0.2293 -0.1830 -0.3562
 7920TIP3    H145175   2.208   1.714  14.103 -0.1239 -0.6343 -1.3848
 7920TIP3    H245176   2.060   1.737  14.119  0.2196  0.3316  0.7446
 7921TIP3   OH245177   3.796   1.959  12.709  1.0422 -0.1632  0.2298
 7921TIP3    H145178   3.768   1.984  12.621  2.4532  0.1374 -0.1615
 7921TIP3    H245179   3.717   1.967  12.762 -0.5321 -2.9065 -1.4630
 7922TIP3   OH245180   2.801   4.469  10.924  0.3541  0.5603 -0.1207
 7922TIP3    H145181   2.779   4.561  10.908  1.7136  1.1575  1.1267
 7922TIP3    H245182   2.866   4.448  10.857  0.8230  0.8534  0.2354
 7923TIP3   OH245183   0.357   5.507   1.154  0.1414 -0.0791 -0.4456
 7923TIP3    H145184   0.449   5.511   1.181 -0.1413  0.5012  0.4709
 7923TIP3    H245185   0.310   5.555   1.222 -0.6897  0.7655 -1.5815
 7924TIP3   OH245186   5.871   1.059   2.755  0.1693  0.1804 -0.1327
 7924TIP3    H145187   5.820   1.042   2.676 -0.7087  1.7494  0.0740
 7924TIP3    H245188   5.828   1.134   2.796  3.1310  2.2004 -0.4206
 7925TIP3   OH245189   2.185   1.232  12.931 -0.3511 -0.1888  0.1049
 7925TIP3    H145190   2.191   1.142  12.897 -1.8072 -0.5917  0.8636
 7925TIP3    H245191   2.125   1.276  12.872 -1.3117 -0.3260  0.9661
 7926TIP3   OH245192   6.039   4.092  13.955 -0.1625  0.0277  0.5991
 7926TIP3    H145193   6.062   4.054  14.040 -0.2076 -0.8769  0.2247
 7926TIP3    H245194   6.111   4.066  13.897 -0.2802  0.3832  0.2920
 7927TIP3   OH245195   6.283   4.223  11.755  0.1451 -0.0681  0.3317
 7927TIP3    H145196   6.370   4.187  11.734  0.7014  1.3766  0.0148
 7927TIP3    H245197   6.227   4.146  11.763  1.3465 -1.0177  0.0381
 7928TIP3   OH245198   4.682   2.383   0.393 -0.0211 -0.3342 -0.0598
 7928TIP3    H145199   4.749   2.368   0.460 -0.7224 -1.2478  0.4587
 7928TIP3    H245200   4.707   2.324   0.322 -1.0297 -1.7512  0.7090
 7929TIP3   OH245201   1.399   4.626  15.476  0.4793 -0.4576  0.3237
 7929TIP3    H145202   1.338   4.685  15.521  0.0647 -1.9273  1.7633
 7929TIP3    H245203   1.370   4.627  15.385 -1.4326 -0.7607  0.8845
 7930TIP3   OH245204   2.036   1.253   1.608 -0.5594 -0.0173  0.5032
 7930TIP3    H145205   2.018   1.200   1.685 -0.6489  0.3774  0.7573
 7930TIP3    H245206   2.124   1.226   1.580 -0.9716 -0.9557  0.0821
 7931TIP3   OH245207   6.209   0.796  11.173 -0.3844 -0.0967 -0.6544
 7931TIP3    H145208   6.141   0.862  11.163 -0.6698 -0.5982 -2.2389
 7931TIP3    H245209   6.271   0.835  11.235 -0.9948  1.2744 -0.8688
 7932TIP3   OH245210   5.644   1.339   6.026 -0.4689  0.2057  0.9403
 7932TIP3    H145211   5.558   1.344   6.067 -0.5361  1.3421  0.7004
 7932TIP3    H245212   5.628   1.297   5.941 -0.6674 -0.2146  1.1826
 7933TIP3   OH245213   1.462   1.912   0.769  0.4764 -0.6993  0.7798
 7933TIP3    H145214   1.431   1.946   0.853  1.8391 -0.0873  1.0557
 7933TIP3    H245215   1.428   1.974   0.704  0.0138 -0.7820  0.9406
 7934TIP3   OH245216   1.920   6.073  11.294 -0.1335  0.2948 -0.2532
 7934TIP3    H145217   1.988   6.125  11.336  0.9339 -0.0399 -1.5015
 7934TIP3    H245218   1.873   6.135  11.238 -1.5701  0.7456  1.3512
 7935TIP3   OH245219   2.025   1.785  16.559  0.0328  0.1979 -0.0529
 7935TIP3    H145220   1.992   1.701  16.526 -0.0209 -0.3881  1.4376
 7935TIP3    H245221   2.098   1.806  16.500  0.6550 -1.3698  0.1044
 7936TIP3   OH245222   0.104   3.857  12.344  0.3231 -0.4292  0.5127
 7936TIP3    H145223   0.139   3.839  12.257 -0.6591 -0.2405  0.0599
 7936TIP3    H245224   0.098   3.771  12.386  0.7306 -0.5270  0.3733
 7937TIP3   OH245225   5.020   0.007   2.622 -0.4313 -0.1098 -0.3950
 7937TIP3    H145226   4.997  -0.024   2.709  1.5964  0.9342  0.5997
 7937TIP3    H245227   5.074  -0.063   2.584 -1.6143 -0.7212 -0.9907
 7938TIP3   OH245228   0.816   0.135   3.036  0.3560  0.3186  0.2027
 7938TIP3    H145229   0.822   0.105   2.945 -0.6806  0.8538 -0.0601
 7938TIP3    H245230   0.726   0.167   3.044  1.0561  2.2434  0.7999
 7939TIP3   OH245231   4.411   4.164  10.712 -0.1254 -0.4217 -0.3446
 7939TIP3    H145232   4.345   4.226  10.680 -1.4058 -0.8371  1.3658
 7939TIP3    H245233   4.489   4.184  10.660 -1.5209  0.1881 -2.3448
 7940TIP3   OH245234   2.112   0.704   0.051 -0.9462 -0.7469 -0.3663
 7940TIP3    H145235   2.167   0.782   0.041 -1.9884 -0.1295 -1.4725
 7940TIP3    H245236   2.172   0.638   0.086  0.0339  0.4477  0.3092
 7941TIP3   OH245237   1.296   5.099   2.663  0.1812  0.5006  0.5508
 7941TIP3    H145238   1.369   5.142   2.706  1.7487  0.2675 -1.6966
 7941TIP3    H245239   1.333   5.018   2.628 -0.3796  1.6054 -2.9241
 7942TIP3   OH245240   3.786   4.445  13.510  0.0546 -0.0978  0.1536
 7942TIP3    H145241   3.709   4.487  13.547  0.2981  0.7599 -0.2744
 7942TIP3    H245242   3.787   4.358  13.549 -0.8695  0.0384  0.5165
 7943TIP3   OH245243   2.474   0.504   1.739 -0.0727  0.0948 -0.3385
 7943TIP3    H145244   2.465   0.490   1.645 -0.9420  1.2745 -0.4476
 7943TIP3    H245245   2.386   0.528   1.769  0.5042  1.3017  0.4866
 7944TIP3   OH245246   1.844   2.400   0.930  0.4522  0.4712 -0.4227
 7944TIP3    H145247   1.899   2.327   0.902 -0.1013  0.3259 -1.1436
 7944TIP3    H245248   1.801   2.431   0.850  1.1579  1.9999 -0.2489
 7945TIP3   OH245249   2.955   3.919  12.314 -0.3713  0.2555 -0.2135
 7945TIP3    H145250   2.979   3.854  12.380 -1.0929 -0.2431 -0.4384
 7945TIP3    H245251   2.868   3.893  12.284  0.1798  0.1092 -1.7980
 7946TIP3   OH245252   4.822   3.626   5.728 -0.3181 -0.1113 -0.3050
 7946TIP3    H145253   4.778   3.711   5.721  1.3450  0.8847  0.7200
 7946TIP3    H245254   4.882   3.624   5.653  0.1434 -0.0649  0.0607
 7947TIP3   OH245255   6.274   4.485  16.823 -0.5296 -0.1224  0.4424
 7947TIP3    H145256   6.281   4.493  16.918 -1.5478  0.6938  0.4704
 7947TIP3    H245257   6.184   4.513  16.803 -0.1907  0.1469 -0.7976
 7948TIP3   OH245258   1.283   1.215  11.658 -0.5904  0.5552 -0.3805
 7948TIP3    H145259   1.344   1.152  11.695 -0.4988  0.3571 -0.8619
 7948TIP3    H245260   1.199   1.193  11.698 -0.3664  0.7780  0.2231
 7949TIP3   OH245261   3.319   4.141  14.866  0.1547 -0.4679 -0.0376
 7949TIP3    H145262   3.342   4.095  14.947 -1.8732 -0.6352  0.4967
 7949TIP3    H245263   3.287   4.072  14.808  0.6940 -0.2118 -0.6491
 7950TIP3   OH245264   4.808   4.535  15.405 -0.1195  0.3782 -0.2507
 7950TIP3    H145265   4.897   4.555  15.431 -0.8192  2.5960  0.6992
 7950TIP3    H245266   4.815   4.455  15.352  2.4464  0.7762 -0.6255
 7951TIP3   OH245267   0.093   6.470   2.328  0.7076 -0.1232  0.2210
 7951TIP3    H145268   0.144   6.426   2.260 -0.0891  0.3479 -0.7111
 7951TIP3    H245269   0.072   6.401   2.390  0.0782 -0.9219 -0.8473
 7952TIP3   OH245270   2.145   2.543   4.624 -0.4573 -0.2404 -0.7666
 7952TIP3    H145271   2.057   2.517   4.653 -0.0686 -1.7311 -0.8100
 7952TIP3    H245272   2.188   2.574   4.703 -0.6570 -0.6016 -0.5129
 7953TIP3   OH245273   0.427   0.831   4.539 -0.0085  0.3968  0.1490
 7953TIP3    H145274   0.416   0.867   4.627 -1.0395  0.1630  0.1307
 7953TIP3    H245275   0.401   0.902   4.481  0.4831  0.4848  0.0308
 7954TIP3   OH245276   3.047   6.327   0.943 -0.1546  0.6310 -0.0714
 7954TIP3    H145277   3.096   6.339   0.861 -0.9801 -0.4689 -0.7633
 7954TIP3    H245278   3.100   6.264   0.993  1.5222  2.9755  1.2989
 7955TIP3   OH245279   1.313   5.012  15.175 -0.7889  0.0450  0.4812
 7955TIP3    H145280   1.355   5.080  15.121  0.2887 -0.9329  0.0503
 7955TIP3    H245281   1.222   5.041  15.182 -0.7195  0.7423 -0.9933
 7956TIP3   OH245282   3.791   3.769   1.595 -0.1022  0.7176  0.0606
 7956TIP3    H145283   3.786   3.726   1.680 -1.6080  0.4399 -0.1308
 7956TIP3    H245284   3.855   3.839   1.606  0.4577  0.0546  1.1241
 7957TIP3   OH245285   6.514   4.979   0.386  0.3137  0.2986  0.2764
 7957TIP3    H145286   6.561   5.005   0.307 -0.3066  0.4596 -0.0485
 7957TIP3    H245287   6.428   5.020   0.377  0.8148  1.8540  1.8938
 7958TIP3   OH245288   1.528   1.793   0.328 -0.3667  0.1634 -0.1604
 7958TIP3    H145289   1.559   1.756   0.245 -0.7987 -0.2271 -0.1523
 7958TIP3    H245290   1.444   1.749   0.344 -0.1044 -0.0518  0.6759
 7959TIP3   OH245291   6.476   4.249   3.464  0.1497 -0.6155 -0.2565
 7959TIP3    H145292   6.388   4.254   3.426  0.6002  0.0619 -1.2384
 7959TIP3    H245293   6.509   4.163   3.435  0.8190  0.2458 -2.2068
 7960TIP3   OH245294   5.073   6.088  16.674 -0.0100 -0.0976 -0.4156
 7960TIP3    H145295   4.984   6.117  16.697 -1.4254 -1.9861 -2.9502
 7960TIP3    H245296   5.089   6.014  16.733  0.0250  0.4034  0.2213
 7961TIP3   OH245297   6.311   3.294   3.781  0.2030 -0.2981  0.0094
 7961TIP3    H145298   6.349   3.231   3.720  1.6459 -1.1346  1.6733
 7961TIP3    H245299   6.374   3.366   3.782 -0.6577  0.4869 -0.7096
 7962TIP3   OH245300   1.722   3.848   4.313  0.1950 -0.0684  0.2502
 7962TIP3    H145301   1.687   3.772   4.266 -0.0030  1.0122 -1.4457
 7962TIP3    H245302   1.801   3.815   4.356  0.4799 -1.0884 -0.9839
 7963TIP3   OH245303   0.852   5.249   0.605 -0.0048  0.1645 -0.4249
 7963TIP3    H145304   0.797   5.240   0.527  0.3825  2.9808 -1.1368
 7963TIP3    H245305   0.842   5.166   0.652 -3.3828 -0.1419 -1.4444
 7964TIP3   OH245306   6.492   1.447  14.797  0.2108  0.6506  0.0284
 7964TIP3    H145307   6.487   1.359  14.760 -0.3277  0.7378 -0.1164
 7964TIP3    H245308   6.536   1.436  14.881  1.1222  0.3968 -0.4720
 7965TIP3   OH245309   5.424   1.315  16.644  0.0626 -0.0951 -0.7522
 7965TIP3    H145310   5.417   1.262  16.723  1.3387  1.9476  0.8416
 7965TIP3    H245311   5.516   1.307  16.618  0.2590  1.1685 -0.5428
 7966TIP3   OH245312   6.597   1.545  12.813 -0.0356 -0.0633  0.2351
 7966TIP3    H145313   6.625   1.463  12.854  1.0993 -0.7076 -1.6892
 7966TIP3    H245314   6.637   1.613  12.867  0.1943 -0.8039  1.0286
 7967TIP3   OH245315   5.179   1.174   1.727  0.8453 -0.3708  0.5436
 7967TIP3    H145316   5.273   1.188   1.741  1.1006 -1.6646  0.1896
 7967TIP3    H245317   5.137   1.228   1.794  1.8680 -0.6021  1.4020
 7968TIP3   OH245318   4.729   0.050   3.127 -0.1937  0.4987 -0.3510
 7968TIP3    H145319   4.689   0.135   3.145 -3.0414 -0.3687 -1.9098
 7968TIP3    H245320   4.693  -0.009   3.193 -1.0176 -0.1565 -1.3473
 7969TIP3   OH245321   3.165   3.513   0.469 -0.1147 -0.1295 -0.0368
 7969TIP3    H145322   3.218   3.481   0.542 -1.3796 -0.8291  0.6188
 7969TIP3    H245323   3.079   3.529   0.508 -0.1795  1.8072 -0.8827
 7970TIP3   OH245324   4.022   4.550  13.515 -0.0202  0.0353 -0.4791
 7970TIP3    H145325   4.006   4.635  13.473 -1.9095 -0.3469 -0.6325
 7970TIP3    H245326   3.937   4.506  13.512  0.5857 -1.3008  0.8781
 7971TIP3   OH245327   3.063   3.285  15.847 -0.0468  0.4324  0.3568
 7971TIP3    H145328   2.998   3.235  15.798 -0.3889  0.8388  0.3838
 7971TIP3    H245329   3.129   3.307  15.782 -0.5464  1.0502  0.0423
 7972TIP3   OH245330   0.455   6.523  11.605  0.1187  0.2151  0.5139
 7972TIP3    H145331   0.472   6.463  11.532 -0.4060 -0.7182  1.1397
 7972TIP3    H245332   0.472   6.610  11.569 -0.4616 -0.2001 -0.8141
 7973TIP3   OH245333   2.127   1.458   6.202  0.2369  0.3297  0.0589
 7973TIP3    H145334   2.078   1.378   6.184  0.4328  0.3550 -0.6430
 7973TIP3    H245335   2.063   1.517   6.242 -1.5023  1.7471 -4.2132
 7974TIP3   OH245336   5.080   1.422  11.070 -0.2287 -0.2720 -0.3736
 7974TIP3    H145337   5.159   1.397  11.022  0.4429  0.5656  0.2439
 7974TIP3    H245338   5.018   1.450  11.003  0.1306 -0.6077 -0.8456
 7975TIP3   OH245339   2.348   1.362  16.366 -0.2733 -0.2071 -0.1037
 7975TIP3    H145340   2.346   1.295  16.434 -0.4550  0.2190  0.3144
 7975TIP3    H245341   2.352   1.445  16.413 -1.4759  0.1438 -0.5793
 7976TIP3   OH245342   6.431   5.203   4.854 -0.2559 -0.0067  0.0890
 7976TIP3    H145343   6.421   5.181   4.947  2.4535 -1.5339  0.1159
 7976TIP3    H245344   6.523   5.229   4.845 -1.0672  2.7122 -1.7363
 7977TIP3   OH245345   1.123   4.887   4.931  0.1468  0.6646  0.5190
 7977TIP3    H145346   1.147   4.795   4.940 -0.4285  0.5581  1.1032
 7977TIP3    H245347   1.203   4.935   4.954  0.1042  0.3146  1.4663
 7978TIP3   OH245348   4.691   3.131  15.654  0.2511  0.1934 -0.1522
 7978TIP3    H145349   4.655   3.159  15.738  2.7153 -0.0054  1.0648
 7978TIP3    H245350   4.693   3.035  15.659  0.7032  0.1916 -0.2759
 7979TIP3   OH245351   6.554   1.123   5.960  0.3116 -0.3818 -0.3443
 7979TIP3    H145352   6.584   1.150   6.047  0.7153 -0.1395 -0.5554
 7979TIP3    H245353   6.546   1.028   5.966  1.6148 -0.5241 -0.4145
 7980TIP3   OH245354   4.634   4.577   3.512  0.0124 -0.0774 -0.2571
 7980TIP3    H145355   4.672   4.619   3.590 -0.1866  0.8200 -0.6250
 7980TIP3    H245356   4.540   4.583   3.526 -0.0342  0.5939 -0.8123
 7981TIP3   OH245357   0.690   5.701   0.294 -0.3453  0.3448  0.2629
 7981TIP3    H145358   0.756   5.636   0.268  0.3797  1.0150  0.3893
 7981TIP3    H245359   0.627   5.652   0.346  0.8733 -0.0366  1.4519
 7982TIP3   OH245360   4.813   5.593   0.185  0.3592  0.0734 -0.1870
 7982TIP3    H145361   4.890   5.556   0.228  0.0334  1.7362  1.9985
 7982TIP3    H245362   4.739   5.548   0.224  0.0208  2.0685  1.7008
 7983TIP3   OH245363   1.430   2.708  13.322  0.1994 -0.0987 -0.2120
 7983TIP3    H145364   1.423   2.616  13.347 -2.3150 -0.2949 -1.3717
 7983TIP3    H245365   1.503   2.711  13.260 -1.2940 -1.8895 -2.2231
 7984TIP3   OH245366   2.533   0.655  15.017 -0.2640 -0.0991 -0.3700
 7984TIP3    H145367   2.473   0.639  14.944 -2.2505  0.9737  0.9492
 7984TIP3    H245368   2.579   0.735  14.993  1.1511 -1.2294 -1.6479
 7985TIP3   OH245369   4.671   5.357   2.314 -0.4549 -0.1104 -0.0479
 7985TIP3    H145370   4.693   5.377   2.405  0.2370 -2.6635  0.4388
 7985TIP3    H245371   4.620   5.432   2.284 -0.0440  1.1460  2.1902
 7986TIP3   OH245372   5.188   5.392   2.176 -0.4606 -0.3388  0.1092
 7986TIP3    H145373   5.176   5.309   2.222 -0.3880 -1.5750 -1.9748
 7986TIP3    H245374   5.107   5.439   2.190 -1.6455 -1.9686 -0.9222
 7987TIP3   OH245375   0.774   4.394   0.149 -0.0923  0.6706  0.2683
 7987TIP3    H145376   0.840   4.460   0.131 -0.8581  1.1035 -1.0567
 7987TIP3    H245377   0.691   4.439   0.137 -0.6298 -0.2465  0.4345
 7988TIP3   OH245378   4.615   1.419  12.393 -0.2990  0.3431 -0.1644
 7988TIP3    H145379   4.554   1.453  12.459  1.9883  1.5914  1.4241
 7988TIP3    H245380   4.628   1.327  12.417 -1.1724  0.1764 -0.2734
 7989TIP3   OH245381   0.526   6.529  12.780 -0.2294  0.0890 -0.2255
 7989TIP3    H145382   0.585   6.566  12.714  0.0774 -0.1832 -0.1045
 7989TIP3    H245383   0.441   6.570  12.762 -0.5198 -1.1135 -1.7410
 7990TIP3   OH245384   4.712   6.466   3.270  0.1911 -0.4047  0.4794
 7990TIP3    H145385   4.745   6.389   3.316 -0.1127 -1.3352 -0.7990
 7990TIP3    H245386   4.782   6.530   3.276  1.1219 -1.3741  0.1780
 7991TIP3   OH245387   4.675   2.154   4.235  0.5160  0.4417 -0.2915
 7991TIP3    H145388   4.770   2.145   4.244  0.7075  2.4171 -0.0026
 7991TIP3    H245389   4.663   2.232   4.182 -0.9677 -0.8459 -1.9686
 7992TIP3   OH245390   0.104   1.170   4.097 -0.0319 -0.0187 -0.0256
 7992TIP3    H145391   0.061   1.253   4.119 -0.4473  0.0657 -1.1177
 7992TIP3    H245392   0.149   1.145   4.178  1.1832  1.9242 -0.0510
 7993TIP3   OH245393   4.460   2.309  14.249 -0.1099 -1.1005 -0.2110
 7993TIP3    H145394   4.549   2.293  14.219 -0.9104 -0.0095 -3.5958
 7993TIP3    H245395   4.461   2.397  14.285 -0.0615 -0.4768 -1.6696
 7994TIP3   OH245396   5.544   2.265   5.820  0.3066 -0.4039  0.3085
 7994TIP3    H145397   5.613   2.323   5.787 -0.1147 -0.0153  0.0984
 7994TIP3    H245398   5.580   2.177   5.811  0.9454 -0.1787  0.6145
 7995TIP3   OH245399   3.449   3.825   5.223  0.1479  0.3679 -0.3235
 7995TIP3    H145400   3.513   3.764   5.184 -0.7252 -1.3055  0.7479
 7995TIP3    H245401   3.372   3.817   5.167  0.0247  0.4865 -0.1691
 7996TIP3   OH245402   5.659   4.961   1.933  0.0111 -0.2921 -0.1830
 7996TIP3    H145403   5.700   5.025   1.874 -0.2370 -0.0311 -0.0768
 7996TIP3    H245404   5.585   4.927   1.882  0.2918 -0.6779 -0.3322
 7997TIP3   OH245405   5.540   2.164   5.463  0.3036  0.3370 -0.2688
 7997TIP3    H145406   5.450   2.197   5.455  0.4369  0.5805 -0.8429
 7997TIP3    H245407   5.570   2.156   5.372  0.2306 -1.5210 -0.1693
 7998TIP3   OH245408   0.511   5.597   1.353 -0.4221 -0.3094  0.4622
 7998TIP3    H145409   0.586   5.580   1.410  0.1600 -0.9315 -0.4477
 7998TIP3    H245410   0.436   5.558   1.398  0.0000 -0.6294  0.8891
 7999TIP3   OH245411   0.369   1.452  14.154 -0.1162 -0.4523 -0.1416
 7999TIP3    H145412   0.282   1.491  14.143 -0.7094 -1.9186 -0.9416
 7999TIP3    H245413   0.376   1.434  14.248 -0.8288 -0.6310 -0.1201
 8000TIP3   OH245414   0.515   5.878   2.560 -0.0717 -0.0470  0.6057
 8000TIP3    H145415   0.420   5.888   2.551 -0.0739 -0.9134 -0.7130
 8000TIP3    H245416   0.532   5.888   2.653 -1.3338  1.0393  0.7513
 8001TIP3   OH245417   6.416   1.832  14.333 -0.0586 -0.1690 -0.0726
 8001TIP3    H145418   6.479   1.897  14.362 -1.4498  0.3574  2.0108
 8001TIP3    H245419   6.463   1.780  14.267  2.3887  0.3906  1.1271
 8002TIP3   OH245420   3.989   3.089  11.392 -0.0995 -0.0868 -0.0166
 8002TIP3    H145421   3.914   3.071  11.336 -1.9355  0.1540  2.2140
 8002TIP3    H245422   3.952   3.127  11.472  2.3341 -0.4169  1.4031
 8003TIP3   OH245423   1.256   5.894  15.645  0.3645 -0.2763 -0.4541
 8003TIP3    H145424   1.174   5.870  15.602  1.4064 -0.5248 -2.4120
 8003TIP3    H245425   1.312   5.926  15.574  2.2679 -0.9299  0.6724
 8004TIP3   OH245426   6.384   3.748  12.865  0.0296  0.0977  0.1777
 8004TIP3    H145427   6.440   3.826  12.859  0.1417 -0.0106 -0.2350
 8004TIP3    H245428   6.300   3.782  12.895  0.8104  0.0247  2.6784
 8005TIP3   OH245429   2.653   4.573   5.829 -0.0929 -0.2134  0.3136
 8005TIP3    H145430   2.695   4.617   5.903  0.9484 -0.3511 -0.1704
 8005TIP3    H245431   2.651   4.481   5.854  1.1811 -0.4039 -0.2298
 8006TIP3   OH245432   4.829   1.192  16.528  0.1750  0.8163  0.2942
 8006TIP3    H145433   4.899   1.228  16.584  1.1273  0.3605 -0.5835
 8006TIP3    H245434   4.852   1.220  16.440  0.8122 -1.6778 -0.4049
 8007TIP3   OH245435   6.027   0.156   2.567  0.0445  0.1291 -0.1656
 8007TIP3    H145436   6.055   0.129   2.480 -1.8413 -0.2407 -0.6938
 8007TIP3    H245437   5.994   0.245   2.555  0.1600  0.2377  0.2768
 8008TIP3   OH245438   1.425   6.683  16.845 -0.3790  0.2165  0.3279
 8008TIP3    H145439   1.492   6.652  16.906  1.2280  0.0936 -1.4248
 8008TIP3    H245440   1.463   6.761  16.805 -0.7436 -0.5381 -1.5818
 8009TIP3   OH245441   6.373   3.049   4.501 -0.7791 -0.0990 -0.2082
 8009TIP3    H145442   6.350   2.985   4.434  0.1458  0.7535 -1.3749
 8009TIP3    H245443   6.306   3.039   4.568  0.5620 -3.9112  0.8192
 8010TIP3   OH245444   3.035   2.364  13.605  0.5771  0.3621  0.2639
 8010TIP3    H145445   2.976   2.316  13.663 -1.6490 -2.2368 -3.6938
 8010TIP3    H245446   3.020   2.456  13.628 -1.8891 -0.4048  2.2085
 8011TIP3   OH245447   3.101   3.616   2.638  0.2370  0.1580  0.2328
 8011TIP3    H145448   3.009   3.605   2.617  0.8186 -1.0811 -2.0712
 8011TIP3    H245449   3.133   3.527   2.653  0.9446  0.6272  1.6458
 8012TIP3   OH245450   3.699   2.921   3.527  0.6607  0.0753  0.3848
 8012TIP3    H145451   3.699   2.931   3.432 -0.0724  2.4508  0.5645
 8012TIP3    H245452   3.752   2.994   3.559  0.2253 -0.1997  1.8325
 8013TIP3   OH245453   0.253   4.673   0.728 -0.9142  0.4190  0.4113
 8013TIP3    H145454   0.246   4.670   0.823 -0.8624 -2.7222  0.4068
 8013TIP3    H245455   0.340   4.709   0.712 -0.7130  0.4799  1.5725
 8014TIP3   OH245456   0.665   1.806  16.551 -0.0860  0.3928 -0.1236
 8014TIP3    H145457   0.745   1.757  16.534 -2.0647 -2.5373 -1.9451
 8014TIP3    H245458   0.677   1.889  16.505  1.3603 -0.5311 -1.5011
 8015TIP3   OH245459   2.010   4.681   5.931 -0.5993  0.1219  0.7176
 8015TIP3    H145460   2.039   4.772   5.942 -2.1397  0.4915  2.4385
 8015TIP3    H245461   1.944   4.670   6.000 -2.2051 -1.5561 -0.9977
 8016TIP3   OH245462   6.228   1.232  13.909 -0.0016 -0.0873  0.0239
 8016TIP3    H145463   6.191   1.292  13.843  1.0716  0.3480 -0.2049
 8016TIP3    H245464   6.271   1.290  13.971 -1.0695 -0.4955  1.1776
 8017TIP3   OH245465   5.084   0.488  17.324  0.1154  0.2675  0.0866
 8017TIP3    H145466   5.178   0.503  17.317  0.0860  0.8177  0.7938
 8017TIP3    H245467   5.076   0.401  17.362  0.3378  0.2323  0.0528
 8018TIP3   OH245468   2.732   3.811   2.293  0.2766 -0.0624 -0.6181
 8018TIP3    H145469   2.776   3.729   2.269 -0.9346 -0.5837 -1.1527
 8018TIP3    H245470   2.640   3.788   2.301 -0.1280  1.2947 -1.0086
 8019TIP3   OH245471   0.843   2.386  14.744 -0.0401  0.0921  0.1370
 8019TIP3    H145472   0.818   2.477  14.754 -0.5375 -0.0168 -0.0860
 8019TIP3    H245473   0.870   2.378  14.652 -1.3854 -0.3047 -0.2455
 8020TIP3   OH245474   1.261   0.292   5.412 -0.2211 -0.7232  0.2179
 8020TIP3    H145475   1.247   0.316   5.320  0.3322 -1.0096  0.0509
 8020TIP3    H245476   1.173   0.288   5.449 -0.4707 -0.8269 -0.3612
 8021TIP3   OH245477   3.168   2.217  15.851  0.7460  0.0892  0.0950
 8021TIP3    H145478   3.250   2.170  15.839  0.7045 -0.0295  0.2734
 8021TIP3    H245479   3.188   2.286  15.914  0.4812 -0.5355  0.8799
 8022TIP3   OH245480   4.860   5.155  15.037  0.1722  0.4400 -0.0418
 8022TIP3    H145481   4.806   5.139  15.114 -3.0395 -0.4276 -2.2963
 8022TIP3    H245482   4.864   5.250  15.030 -1.6558  0.5382 -0.1416
 8023TIP3   OH245483   2.351   0.453   2.077 -0.4143  0.0153 -0.0280
 8023TIP3    H145484   2.323   0.377   2.027 -0.1773  0.3290 -0.6393
 8023TIP3    H245485   2.302   0.527   2.039 -0.9553  0.1187  0.8256
 8024TIP3   OH245486   1.042   0.014   5.653 -0.7607 -0.4228 -0.4610
 8024TIP3    H145487   1.011   0.093   5.608 -1.9263 -0.4683  0.2172
 8024TIP3    H245488   1.072   0.045   5.738 -0.9506 -0.6623 -0.3041
 8025TIP3   OH245489   4.746   5.028  13.044 -0.1182 -0.2088  0.1069
 8025TIP3    H145490   4.687   5.059  12.975 -0.6304 -0.6099  0.3563
 8025TIP3    H245491   4.730   5.087  13.117 -1.4701 -1.3141  0.7608
 8026TIP3   OH245492   5.166   1.058   2.636  0.2626 -0.4936 -0.2249
 8026TIP3    H145493   5.238   1.007   2.598  0.7344  0.3088 -0.4443
 8026TIP3    H245494   5.205   1.143   2.655  0.0533 -0.8615  2.1449
 8027TIP3   OH245495   5.145   4.819   2.515  0.2531 -0.0791  0.1955
 8027TIP3    H145496   5.229   4.777   2.501  0.5002 -0.1052  1.6112
 8027TIP3    H245497   5.083   4.766   2.465  0.9704 -0.4851 -0.2775
 8028TIP3   OH245498   2.151   4.635  15.676 -0.0706  0.8344 -0.4574
 8028TIP3    H145499   2.097   4.564  15.712 -1.5176  1.4053 -1.3971
 8028TIP3    H245500   2.119   4.645  15.586  2.8048  0.0506 -1.6655
 8029TIP3   OH245501   6.037   3.690   4.134  0.3608 -0.4114  0.0886
 8029TIP3    H145502   6.077   3.604   4.123 -0.9961 -0.8066 -2.6345
 8029TIP3    H245503   6.107   3.752   4.113  0.7644 -0.9154 -0.0629
 8030TIP3   OH245504   0.901   5.872   4.958 -0.1448 -0.3805  0.4600
 8030TIP3    H145505   0.902   5.859   4.863  2.0342  2.5894 -0.0777
 8030TIP3    H245506   0.810   5.856   4.984 -1.2927  0.6988 -2.4833
 8031TIP3   OH245507   3.956   0.611  15.550  0.3049 -0.3100  0.8381
 8031TIP3    H145508   4.037   0.645  15.511  0.5612 -1.1831  0.5878
 8031TIP3    H245509   3.926   0.681  15.607  0.2511  0.7543 -0.4501
 8032TIP3   OH245510   4.638   0.885   5.028 -0.0711 -0.1290  0.0971
 8032TIP3    H145511   4.700   0.945   4.986 -0.4933 -0.5103 -1.1015
 8032TIP3    H245512   4.606   0.933   5.104  0.3729  0.7613 -0.2643
 8033TIP3   OH245513   3.905   4.217   0.216  0.3972 -0.0320 -0.0102
 8033TIP3    H145514   3.881   4.292   0.162  1.3761  0.3137  0.0195
 8033TIP3    H245515   3.913   4.253   0.305  0.8067 -0.1799  0.0153
 8034TIP3   OH245516   0.441   3.244   1.000  0.2120 -0.0300 -0.3274
 8034TIP3    H145517   0.467   3.259   0.910 -1.0973 -1.2892 -0.9570
 8034TIP3    H245518   0.351   3.276   1.006  0.8172  1.6116  1.0313
 8035TIP3   OH245519   4.402   0.529   1.019  1.1815  0.2132 -0.1116
 8035TIP3    H145520   4.411   0.559   0.929 -0.1202  0.8593 -0.0405
 8035TIP3    H245521   4.475   0.570   1.065 -1.2949  4.7665  0.3309
 8036TIP3   OH245522   2.906   3.903   1.584  0.2359  0.4583  0.2494
 8036TIP3    H145523   2.823   3.941   1.610 -0.0630 -0.7832  1.2256
 8036TIP3    H245524   2.934   3.955   1.509 -0.4032  2.2043  1.1604
 8037TIP3   OH245525   4.949   0.471  13.831  0.5020 -0.5544 -0.1939
 8037TIP3    H145526   5.014   0.540  13.818 -0.3615 -0.1220 -2.7156
 8037TIP3    H245527   4.901   0.497  13.909  0.5129  1.4619 -0.7990
 8038TIP3   OH245528   3.670   5.894   0.742 -0.0996  0.1688 -0.2110
 8038TIP3    H145529   3.736   5.828   0.763  1.4121  2.0553  1.4210
 8038TIP3    H245530   3.659   5.944   0.823 -2.3650  0.9545 -0.9169
 8039TIP3   OH245531   6.355   4.496  15.817 -0.4475 -0.3574  0.1970
 8039TIP3    H145532   6.371   4.535  15.732 -0.4642  1.1195  0.8372
 8039TIP3    H245533   6.400   4.553  15.879  0.6892 -2.1232  1.0955
 8040TIP3   OH245534   2.424   1.754  13.470  0.2190  0.0810  0.1118
 8040TIP3    H145535   2.401   1.750  13.377  0.7629 -2.0673  0.0020
 8040TIP3    H245536   2.377   1.830  13.503 -2.1433 -0.6206 -1.3513
 8041TIP3   OH245537   5.112   2.467  13.141 -0.2099 -0.7962  0.0240
 8041TIP3    H145538   5.146   2.555  13.159 -1.7839 -0.4020  1.3833
 8041TIP3    H245539   5.018   2.475  13.153 -0.3436 -2.8083  0.8220
 8042TIP3   OH245540   3.545   4.716   2.109 -0.0487  0.2269 -0.0562
 8042TIP3    H145541   3.573   4.804   2.132  0.7547 -0.5611  2.3465
 8042TIP3    H245542   3.459   4.728   2.069  0.3823  2.1415 -0.5034
 8043TIP3   OH245543   3.983   1.747  14.486 -0.7429 -0.0014  0.0786
 8043TIP3    H145544   4.058   1.687  14.476 -2.2485 -1.6520 -2.6504
 8043TIP3    H245545   4.011   1.826  14.439 -0.0819  0.0686  0.5699
 8044TIP3   OH245546   6.317   0.607  12.890  0.2020  0.5498 -0.2334
 8044TIP3    H145547   6.387   0.560  12.845  0.4097  0.9525 -0.3280
 8044TIP3    H245548   6.247   0.542  12.899  1.3538 -0.5320  1.7549
 8045TIP3   OH245549   2.039   2.086   0.704 -0.8781 -0.7663 -0.5501
 8045TIP3    H145550   2.086   2.028   0.644  0.8675  1.0838 -1.0846
 8045TIP3    H245551   2.009   2.158   0.649  0.9382  1.0726  0.7422
 8046TIP3   OH245552   3.549   2.974   0.128  0.1269 -0.3044 -0.3768
 8046TIP3    H145553   3.556   2.994   0.221 -0.6153  0.3561 -0.4542
 8046TIP3    H245554   3.457   2.950   0.115  0.1989 -0.2900 -0.9518
 8047TIP3   OH245555   1.458   1.978  14.393 -0.0137 -0.6104 -0.1780
 8047TIP3    H145556   1.495   1.978  14.481 -1.3170 -0.2660  0.3771
 8047TIP3    H245557   1.372   1.938  14.402 -0.8820  0.9844 -0.9727
 8048TIP3   OH245558   3.796   0.267  13.591  0.6125  0.0835 -0.0708
 8048TIP3    H145559   3.822   0.302  13.506  3.5964  1.1574  1.1380
 8048TIP3    H245560   3.705   0.292  13.601  0.6709  1.3777 -2.2447
 8049TIP3   OH245561   2.658   3.462  13.120 -0.1249 -0.2200 -0.6953
 8049TIP3    H145562   2.686   3.523  13.188  1.0026 -1.3773 -0.0763
 8049TIP3    H245563   2.590   3.509  13.072 -1.1326  0.5661  1.3653
 8050TIP3   OH245564   2.140   4.681   1.386 -0.0013  0.0185 -0.3663
 8050TIP3    H145565   2.176   4.648   1.468  1.8081  0.7541 -0.7939
 8050TIP3    H245566   2.067   4.736   1.412  0.9028  0.7163  0.8193
 8051TIP3   OH245567   0.286   3.559  10.363 -0.4278  0.0827  0.3957
 8051TIP3    H145568   0.381   3.551  10.359 -0.4088  0.3977  0.1405
 8051TIP3    H245569   0.270   3.646  10.400 -0.6064  0.3809 -0.3469
 8052TIP3   OH245570   5.453   3.817  10.649  0.1783  0.5424  0.0625
 8052TIP3    H145571   5.521   3.815  10.717  0.2645 -0.2657 -0.0405
 8052TIP3    H245572   5.384   3.760  10.682 -0.4258  1.3001  0.1281
 8053TIP3   OH245573   6.352   1.441   3.063  0.4530  0.0746  0.0185
 8053TIP3    H145574   6.336   1.496   3.140  0.2046 -1.1515  0.8540
 8053TIP3    H245575   6.390   1.361   3.098  0.4347 -0.4622 -1.1557
 8054TIP3   OH245576   2.709   4.343  13.319  0.2439  0.1758 -0.0781
 8054TIP3    H145577   2.680   4.286  13.390  1.0293 -0.5756 -0.3495
 8054TIP3    H245578   2.637   4.406  13.308  0.0654  0.2478  1.2995
 8055TIP3   OH245579   2.283   1.741   5.757 -0.0689 -0.8845 -0.4981
 8055TIP3    H145580   2.303   1.679   5.687  0.7762 -1.0548 -0.1139
 8055TIP3    H245581   2.279   1.826   5.713 -1.4678 -1.2175 -1.0706
 8056TIP3   OH245582   3.669   4.405   4.636 -0.3991  0.3388  0.6114
 8056TIP3    H145583   3.693   4.427   4.727  0.2926  0.3785  0.4289
 8056TIP3    H245584   3.578   4.431   4.628 -0.3050  0.8539  1.1357
 8057TIP3   OH245585   3.473   5.407  13.566 -0.1351  0.0926  0.1610
 8057TIP3    H145586   3.486   5.439  13.477 -0.2492  0.8934  0.4202
 8057TIP3    H245587   3.434   5.320  13.556  0.4963 -0.1180 -0.5718
 8058TIP3   OH245588   4.270   5.683   0.456 -0.5192  0.7899  0.2021
 8058TIP3    H145589   4.181   5.680   0.421  0.3080 -0.4145 -1.9575
 8058TIP3    H245590   4.271   5.615   0.523 -1.1626  0.6511  0.0788
 8059TIP3   OH245591   3.378   2.401   4.528  0.4104  0.4749  0.4659
 8059TIP3    H145592   3.335   2.438   4.606 -0.6424 -0.8341  0.5516
 8059TIP3    H245593   3.306   2.385   4.467  0.7031 -1.8562  0.6370
 8060TIP3   OH245594   6.226   2.787   0.614  0.1993 -0.0471  0.3283
 8060TIP3    H145595   6.255   2.864   0.662 -0.2783  0.8501 -0.7844
 8060TIP3    H245596   6.280   2.786   0.535 -0.5058 -0.2499 -0.1617
 8061TIP3   OH245597   2.589   0.038  16.775 -0.5617 -0.0734 -0.3876
 8061TIP3    H145598   2.683   0.059  16.772 -0.7114  0.8920  0.8752
 8061TIP3    H245599   2.545   0.123  16.777 -1.3864 -0.5055  0.6310
 8062TIP3   OH245600   3.866   2.172  15.057 -0.2286  0.2666  0.0837
 8062TIP3    H145601   3.844   2.084  15.027  0.4703  0.2983 -0.5436
 8062TIP3    H245602   3.804   2.229  15.013  1.1139  0.3691 -1.7872
 8063TIP3   OH245603   2.987   5.352  11.335 -0.8244 -0.0166 -0.1376
 8063TIP3    H145604   2.958   5.273  11.288 -0.4140 -0.3453  0.1553
 8063TIP3    H245605   3.042   5.398  11.272  0.9358 -1.1895  0.4605
 8064TIP3   OH245606   2.817   0.222  10.749  0.1644  0.1278 -0.2416
 8064TIP3    H145607   2.801   0.263  10.664  2.0604  0.6619 -0.3893
 8064TIP3    H245608   2.905   0.251  10.773 -0.5618  0.5167  2.2243
 8065TIP3   OH245609   6.257   2.947  11.601 -0.0590 -0.0838 -0.0614
 8065TIP3    H145610   6.291   2.863  11.571  0.9547  0.2647  0.0921
 8065TIP3    H245611   6.163   2.943  11.580  0.2230 -0.6936 -1.3075
 8066TIP3   OH245612   4.933   3.345  14.067 -0.3090  0.1266 -0.0646
 8066TIP3    H145613   5.007   3.344  14.006 -0.9131  1.9029 -0.8795
 8066TIP3    H245614   4.922   3.253  14.092  0.6951 -0.4935 -1.7355
 8067TIP3   OH245615   2.902   2.028   2.666  0.5130 -0.2029 -0.1925
 8067TIP3    H145616   2.991   1.996   2.677  0.5314  0.1370  0.7644
 8067TIP3    H245617   2.854   1.992   2.741  0.5111  1.8610  0.8710
 8068TIP3   OH245618   0.445   1.890   6.198  0.1544  0.6263 -0.1677
 8068TIP3    H145619   0.357   1.860   6.179  0.7402  0.0652 -2.3081
 8068TIP3    H245620   0.469   1.845   6.279 -0.9673 -0.4091 -0.3801
 8069TIP3   OH245621   4.678   2.307   0.704  0.2699  0.0930 -0.7712
 8069TIP3    H145622   4.585   2.299   0.684  0.2492 -2.2987  0.0324
 8069TIP3    H245623   4.716   2.223   0.679  2.1454  0.8418 -0.6163
 8070TIP3   OH245624   1.754   4.327  15.440  0.0473 -0.4544  0.3308
 8070TIP3    H145625   1.676   4.362  15.397 -1.3857 -0.4462  2.7804
 8070TIP3    H245626   1.781   4.395  15.501  1.9289 -0.5365 -0.3215
 8071TIP3   OH245627   4.355   6.008   4.372 -0.1174  0.1351 -0.4025
 8071TIP3    H145628   4.434   5.972   4.411 -0.1744 -0.0831 -0.4845
 8071TIP3    H245629   4.284   5.974   4.426 -0.2623 -0.8479 -1.1620
 8072TIP3   OH245630   5.554   0.335  16.100  0.4257 -0.4363 -0.6368
 8072TIP3    H145631   5.562   0.429  16.080  1.6303 -0.3093  0.3464
 8072TIP3    H245632   5.470   0.327  16.144  1.5093  0.6894  1.8047
 8073TIP3   OH245633   3.058   0.404  15.134 -0.0390 -0.5947 -0.1629
 8073TIP3    H145634   2.990   0.418  15.199  1.0710 -0.3076  0.9724
 8073TIP3    H245635   3.094   0.318  15.154  0.0733 -0.6621 -0.6301
 8074TIP3   OH245636   0.765   6.352  16.291 -0.2706  0.4510 -0.1061
 8074TIP3    H145637   0.797   6.268  16.258  0.4915  0.8454 -0.4019
 8074TIP3    H245638   0.803   6.417  16.232  2.2643  1.3001  2.2076
 8075TIP3   OH245639   6.287   5.903  12.024 -0.2042 -0.1420 -0.0428
 8075TIP3    H145640   6.334   5.987  12.016 -0.5572 -0.1137 -5.1382
 8075TIP3    H245641   6.200   5.922  11.990 -1.0226 -2.1553  0.8283
 8076TIP3   OH245642   1.568   0.102   4.739 -0.1501  0.0931  0.1959
 8076TIP3    H145643   1.519   0.146   4.808  0.0261 -2.0773  1.7908
 8076TIP3    H245644   1.660   0.110   4.766  0.2454  1.9369 -1.4678
 8077TIP3   OH245645   4.260   6.168  15.213 -0.2323  0.1873  0.1891
 8077TIP3    H145646   4.266   6.245  15.270 -2.2806 -0.6845  1.6972
 8077TIP3    H245647   4.167   6.157  15.196 -0.0180 -1.9999  0.1169
 8078TIP3   OH245648   1.053   2.901  13.943 -0.3022  0.4645  0.1583
 8078TIP3    H145649   1.098   2.831  13.896 -1.5386 -0.3934  0.2054
 8078TIP3    H245650   1.113   2.976  13.938  0.8460 -0.4550 -0.2821
 8079TIP3   OH245651   2.585   5.373   0.054 -0.2080 -0.1950  0.3461
 8079TIP3    H145652   2.596   5.279   0.036  1.8925 -0.5830  3.0815
 8079TIP3    H245653   2.496   5.380   0.088 -1.1333 -0.7868 -1.7865
 8080TIP3   OH245654   5.093   3.480  13.076  0.5274 -0.3330 -0.6420
 8080TIP3    H145655   5.139   3.563  13.082 -1.4484  0.7653  0.3424
 8080TIP3    H245656   5.063   3.462  13.165  1.1050 -2.2422 -0.7832
 8081TIP3   OH245657   1.597   1.708   4.609  0.3189  0.4736  0.0465
 8081TIP3    H145658   1.535   1.635   4.608 -0.9251  1.4935  0.4729
 8081TIP3    H245659   1.557   1.773   4.667  1.2332  1.6377 -0.5806
 8082TIP3   OH245660   0.739   2.362   5.639  0.4540 -0.0394 -0.1708
 8082TIP3    H145661   0.706   2.452   5.632 -1.4836 -0.6101  0.9690
 8082TIP3    H245662   0.762   2.352   5.731 -0.1363 -0.9682 -0.1189
 8083TIP3   OH245663   6.460   6.137   4.309  0.3039 -0.6656 -0.0388
 8083TIP3    H145664   6.529   6.193   4.275  0.2581  0.1974  1.2269
 8083TIP3    H245665   6.427   6.184   4.386  0.1189 -2.3290  0.9371
 8084TIP3   OH245666   0.812   5.666  15.266 -0.5596  0.0116  0.1243
 8084TIP3    H145667   0.835   5.696  15.178  0.5458  2.2519  1.0828
 8084TIP3    H245668   0.723   5.631  15.257 -0.4897  0.2455 -1.8570
 8085TIP3   OH245669   1.054   3.547  14.742 -0.2864  0.1073 -0.5174
 8085TIP3    H145670   1.104   3.626  14.758  1.2665 -0.8217 -0.6156
 8085TIP3    H245671   1.071   3.525  14.650 -0.1344 -0.7185 -0.2990
 8086TIP3   OH245672   0.499   5.774   5.583 -0.0485  0.2525 -0.0352
 8086TIP3    H145673   0.580   5.726   5.573  0.5609  1.1246  0.5494
 8086TIP3    H245674   0.504   5.844   5.517 -0.9216 -0.4608 -0.8807
 8087TIP3   OH245675   3.105   1.552  14.027 -0.1003  0.3288 -0.0120
 8087TIP3    H145676   3.144   1.537  13.941  0.3875 -2.7230  0.6090
 8087TIP3    H245677   3.012   1.533  14.014  0.0809 -0.7973  0.2233
 8088TIP3   OH245678   1.736   3.444  12.227 -0.4131 -0.6551  0.0648
 8088TIP3    H145679   1.686   3.441  12.144 -1.5185 -0.8605  0.7122
 8088TIP3    H245680   1.815   3.492  12.205 -1.2435  0.3675 -0.8293
 8089TIP3   OH245681   4.233   5.449  16.559  0.0830  0.2813 -0.1223
 8089TIP3    H145682   4.267   5.410  16.478  1.8793 -0.9340  1.1509
 8089TIP3    H245683   4.233   5.544  16.541  1.9591  0.1600 -1.0404
 8090TIP3   OH245684   4.883   3.074  14.920 -0.0380 -0.3163 -0.4752
 8090TIP3    H145685   4.919   3.072  15.009  2.1621 -0.7501 -1.3395
 8090TIP3    H245686   4.959   3.070  14.862 -1.4928 -1.6516 -2.4150
 8091TIP3   OH245687   5.985   1.042   0.284  0.3191 -0.7832 -0.3867
 8091TIP3    H145688   5.922   0.987   0.330 -1.3726  0.4860 -1.0587
 8091TIP3    H245689   5.993   1.120   0.339 -1.0367  0.3599 -1.7431
 8092TIP3   OH245690   4.922   3.298  12.052  0.2627 -0.4995 -0.3591
 8092TIP3    H145691   4.894   3.268  11.966  1.2858 -1.3675 -0.4091
 8092TIP3    H245692   4.884   3.385  12.061 -0.3800 -0.6595 -1.4236
 8093TIP3   OH245693   0.712   0.595  16.655 -0.2824 -0.1001 -0.2674
 8093TIP3    H145694   0.704   0.517  16.601  0.4022 -0.4612  0.1359
 8093TIP3    H245695   0.621   0.619  16.676 -0.5357 -0.1856 -1.2233
 8094TIP3   OH245696   2.030   0.683  11.696 -0.0262  0.2520  0.2692
 8094TIP3    H145697   1.981   0.619  11.748 -0.5281  1.5615  1.4892
 8094TIP3    H245698   1.983   0.687  11.613 -0.9852  0.2270  0.7896
 8095TIP3   OH245699   5.424   1.705  17.268  0.0891 -0.1976  0.3087
 8095TIP3    H145700   5.393   1.671  17.185  0.4146 -2.4786  1.0567
 8095TIP3    H245701   5.511   1.739  17.249  0.4298 -1.3020 -0.1853
 8096TIP3   OH245702   3.181   3.921  11.298  0.0802 -0.3988  0.4851
 8096TIP3    H145703   3.186   3.831  11.331  0.5661 -0.5368  0.0560
 8096TIP3    H245704   3.178   3.912  11.203 -0.5145  0.0212  0.4606
 8097TIP3   OH245705   0.653   6.508  15.343 -0.0303 -0.0179 -0.5587
 8097TIP3    H145706   0.677   6.582  15.287  2.5557  1.1218  1.7861
 8097TIP3    H245707   0.668   6.540  15.432  1.1915 -3.3074  0.5693
 8098TIP3   OH245708   5.954   6.763  12.496 -0.7080  0.4422 -0.7454
 8098TIP3    H145709   6.009   6.764  12.418  0.5234  0.6223  0.0918
 8098TIP3    H245710   5.948   6.670  12.520 -1.2882  0.3629 -1.1789
 8099TIP3   OH245711   5.917   6.381   1.818 -0.5081  0.1749  0.0318
 8099TIP3    H145712   5.999   6.428   1.817  1.1091 -2.2408  2.6803
 8099TIP3    H245713   5.866   6.421   1.889  0.1700 -0.8998  1.1599
 8100TIP3   OH245714   2.686   4.353  12.703  0.1103 -0.0080 -0.9779
 8100TIP3    H145715   2.733   4.281  12.746  1.3902  0.5620 -1.3801
 8100TIP3    H245716   2.630   4.311  12.639  1.3768 -0.6386 -1.7116
 8101TIP3   OH245717   0.044   4.160  14.359 -0.3540 -0.2329 -0.2507
 8101TIP3    H145718   0.130   4.140  14.323  1.0858 -0.5747  3.0049
 8101TIP3    H245719   0.023   4.247  14.326  0.8398 -0.4530 -1.6963
 8102TIP3   OH245720   3.179   3.349  17.169  0.0211 -0.5585  0.1686
 8102TIP3    H145721   3.099   3.336  17.118 -1.3556  2.1718  1.4520
 8102TIP3    H245722   3.160   3.308  17.253 -0.0557  0.1713  0.5060
 8103TIP3   OH245723   3.412   5.722  11.374 -0.3398  0.1355  0.8494
 8103TIP3    H145724   3.348   5.793  11.370 -0.2338  0.1857 -1.6807
 8103TIP3    H245725   3.472   5.740  11.302  0.2924 -1.9546  0.7911
 8104TIP3   OH245726   0.296   3.623   4.316  0.0347 -0.1363  0.0872
 8104TIP3    H145727   0.331   3.575   4.240 -0.0815  0.7080 -0.5122
 8104TIP3    H245728   0.233   3.563   4.355 -1.1998  0.0571 -1.5055
 8105TIP3   OH245729   0.028   5.500  13.474 -0.5844  0.0357 -0.3263
 8105TIP3    H145730  -0.042   5.540  13.422  0.0662  1.8109  0.1027
 8105TIP3    H245731   0.108   5.539  13.441 -0.1937  1.8649  2.4785
 8106TIP3   OH245732   4.971   0.626   0.838  0.4573  0.2157 -0.1225
 8106TIP3    H145733   4.981   0.548   0.783  1.4596  0.2924 -0.0663
 8106TIP3    H245734   4.888   0.664   0.811  0.3252 -0.4576 -0.6857
 8107TIP3   OH245735   5.249   5.053   1.888 -0.2103 -0.2277  0.4231
 8107TIP3    H145736   5.207   5.001   1.957 -1.2124 -1.8087 -1.2989
 8107TIP3    H245737   5.312   5.108   1.935  0.4644 -2.5313  2.4347
 8108TIP3   OH245738   2.351   3.805  12.144  0.6675  0.3581  0.7256
 8108TIP3    H145739   2.318   3.894  12.142  0.8121  0.4136 -1.3154
 8108TIP3    H245740   2.368   3.787  12.237 -0.3038  2.0720  1.2716
 8109TIP3   OH245741   0.190   1.119   3.162  0.4395  0.6808 -0.0994
 8109TIP3    H145742   0.097   1.101   3.175  0.2007 -0.1258 -2.4220
 8109TIP3    H245743   0.192   1.209   3.129  0.5268  0.8364  0.3268
 8110TIP3   OH245744   2.154   1.121   1.331 -0.2808 -0.3330 -0.1831
 8110TIP3    H145745   2.188   1.207   1.354 -1.4323 -0.0224  0.4373
 8110TIP3    H245746   2.099   1.096   1.405 -0.9010 -1.0774 -0.8746
 8111TIP3   OH245747   6.609   1.979   0.611  0.5260 -0.0782  0.1060
 8111TIP3    H145748   6.572   2.023   0.535 -1.0073  2.1619  2.0207
 8111TIP3    H245749   6.653   2.048   0.661  0.7715 -1.3065  1.6961
 8112TIP3   OH245750   5.526   3.889  12.460 -0.5593  0.0068 -0.4760
 8112TIP3    H145751   5.559   3.959  12.516  0.7536 -1.3679  0.5665
 8112TIP3    H245752   5.589   3.885  12.388  0.2463 -1.0310  0.2489
 8113TIP3   OH245753   0.752   1.967   2.915  0.1178 -0.1605 -0.2585
 8113TIP3    H145754   0.781   2.019   2.840 -0.3449 -0.9558 -1.0055
 8113TIP3    H245755   0.706   1.893   2.876 -0.1381 -0.5808  0.8198
 8114TIP3   OH245756   1.419   3.954   5.260  0.4996 -0.3894  0.6330
 8114TIP3    H145757   1.360   4.012   5.212  0.4767 -0.1929  0.9014
 8114TIP3    H245758   1.499   4.005   5.271  0.9435 -0.8640 -0.2570
 8115TIP3   OH245759   5.027   5.478   0.352  0.3677  0.0885  0.3785
 8115TIP3    H145760   5.105   5.449   0.305 -0.3793 -1.4555  0.0216
 8115TIP3    H245761   4.998   5.400   0.401 -0.1398  1.0328  1.6525
 8116TIP3   OH245762   3.482   2.520  12.721 -0.4557 -0.2745 -0.5034
 8116TIP3    H145763   3.546   2.575  12.766 -0.5309 -0.5251 -0.0820
 8116TIP3    H245764   3.529   2.487  12.644  0.5713 -1.9418  0.7522
 8117TIP3   OH245765   6.140   3.680  15.229  0.5121  1.0624 -0.4966
 8117TIP3    H145766   6.123   3.615  15.297  0.3408  0.7884 -0.7968
 8117TIP3    H245767   6.053   3.704  15.197  0.5359  1.9884  0.1167
 8118TIP3   OH245768   5.604   6.197   3.889  0.1190 -0.2246  0.3794
 8118TIP3    H145769   5.619   6.114   3.934  1.5226  1.0792  2.5281
 8118TIP3    H245770   5.656   6.261   3.939  0.2607  1.7122 -2.0380
 8119TIP3   OH245771   5.037   0.545  10.687 -0.3429  0.7931 -0.2075
 8119TIP3    H145772   5.109   0.565  10.628  0.5369  2.0899  1.2209
 8119TIP3    H245773   5.060   0.459  10.724  0.3873  1.1127  0.1026
 8120TIP3   OH245774   5.118   1.100  14.719  0.3076  0.1247  0.2831
 8120TIP3    H145775   5.079   1.142  14.643 -0.0559  2.3018  1.6073
 8120TIP3    H245776   5.208   1.132  14.721 -0.7529  3.4707  2.9575
 8121TIP3   OH245777   6.100   3.335  17.014 -0.2310 -0.0859  0.2597
 8121TIP3    H145778   6.028   3.299  17.066  0.4086 -1.0189  0.5330
 8121TIP3    H245779   6.173   3.341  17.075  0.9254 -2.4207 -0.7525
 8122TIP3   OH245780   4.562   1.737  15.665  0.1867  0.2615  0.2009
 8122TIP3    H145781   4.652   1.746  15.697  1.2524  0.3549 -2.5013
 8122TIP3    H245782   4.571   1.740  15.569 -2.5246 -1.3055 -0.2065
 8123TIP3   OH245783   5.806   4.507   3.418 -0.4683 -0.3052  0.0854
 8123TIP3    H145784   5.808   4.416   3.389 -0.5217 -0.0661 -0.6907
 8123TIP3    H245785   5.832   4.503   3.510  0.0756 -1.0432 -0.0896
 8124TIP3   OH245786   6.484   5.389  16.542  0.0671  0.1643 -0.0966
 8124TIP3    H145787   6.534   5.325  16.593 -1.1002 -0.3442  0.4632
 8124TIP3    H245788   6.550   5.442  16.498  1.0922 -0.3435  0.7807
 8125TIP3   OH245789   3.919   0.878  13.967  0.7055 -0.6763 -0.0761
 8125TIP3    H145790   3.961   0.797  13.937  1.5924  0.0866 -0.9614
 8125TIP3    H245791   3.962   0.947  13.917  0.1812  0.3832  0.8964
 8126TIP3   OH245792   0.404   1.194   2.812 -0.2813 -0.2489  0.3321
 8126TIP3    H145793   0.410   1.263   2.746  2.3134 -1.1007 -0.4327
 8126TIP3    H245794   0.355   1.234   2.884  0.0017  1.9302 -0.6106
 8127TIP3   OH245795   0.938   0.727   1.183 -0.1839  0.0341 -0.2158
 8127TIP3    H145796   0.884   0.650   1.200  1.4388 -1.0828  0.0866
 8127TIP3    H245797   0.933   0.778   1.264 -2.5200  1.1187 -0.9465
 8128TIP3   OH245798   6.260   0.238   6.482 -0.1432 -0.0644 -0.0714
 8128TIP3    H145799   6.339   0.247   6.429 -0.6597 -1.1624 -1.0848
 8128TIP3    H245800   6.292   0.232   6.572  1.1419 -2.5685 -0.6151
 8129TIP3   OH245801   3.431   4.959   4.168 -0.4818  0.2659  0.1674
 8129TIP3    H145802   3.356   5.018   4.161 -0.4067  0.5277  1.3833
 8129TIP3    H245803   3.412   4.889   4.106 -1.0864  1.0071 -0.5192
 8130TIP3   OH245804   5.320   5.714  16.964  0.4718  0.2913  0.0426
 8130TIP3    H145805   5.364   5.789  17.005 -2.1994  0.2598  3.3614
 8130TIP3    H245806   5.366   5.637  16.997 -0.4306  0.3406  1.4859
 8131TIP3   OH245807   6.275   3.143   0.999 -0.5909 -0.5350  0.0798
 8131TIP3    H145808   6.314   3.217   1.046 -0.5146 -1.3147  1.2757
 8131TIP3    H245809   6.339   3.073   1.006 -0.4947 -0.6312 -1.3760
 8132TIP3   OH245810   1.363   2.540   6.424 -0.3927  0.1928 -0.2102
 8132TIP3    H145811   1.410   2.612   6.465 -0.4156  0.5536 -0.8014
 8132TIP3    H245812   1.364   2.561   6.330  0.4709 -1.0851 -0.5062
 8133TIP3   OH245813   3.765   1.672   5.199 -0.4904 -0.2177  0.4696
 8133TIP3    H145814   3.830   1.739   5.220 -0.6297 -0.2193  0.9049
 8133TIP3    H245815   3.737   1.638   5.284  0.4004 -1.6205  0.2423
 8134TIP3   OH245816   6.166   1.770  14.075 -0.1014 -0.1396 -0.2292
 8134TIP3    H145817   6.110   1.708  14.122 -0.0316  0.2662  0.3983
 8134TIP3    H245818   6.253   1.730  14.075 -0.3312 -0.6709 -1.0189
 8135TIP3   OH245819   0.070   0.462  11.409 -0.5178  0.1639  0.1241
 8135TIP3    H145820   0.089   0.372  11.434 -1.6607  0.1470  1.0244
 8135TIP3    H245821   0.151   0.510  11.426 -0.2573 -0.4788  0.7411
 8136TIP3   OH245822   3.771   3.444  16.681 -0.0711 -0.5061  0.1414
 8136TIP3    H145823   3.791   3.365  16.731  0.1178 -0.7839 -0.3681
 8136TIP3    H245824   3.685   3.472  16.713 -0.0706 -0.8312  0.4274
 8137TIP3   OH245825   5.189   1.913   0.668 -0.1235  0.1104 -0.4666
 8137TIP3    H145826   5.188   1.826   0.708 -0.0181 -0.1364 -0.9962
 8137TIP3    H245827   5.202   1.973   0.742 -1.1861 -0.2456  0.0354
 8138TIP3   OH245828   6.540   1.177  13.824  0.4433 -0.2945 -0.4205
 8138TIP3    H145829   6.596   1.253  13.841  1.0367 -0.6176 -0.8788
 8138TIP3    H245830   6.504   1.155  13.909  0.0633  0.6527 -0.3226
 8139TIP3   OH245831   0.425   5.459  12.581  0.0197 -0.8591 -0.4515
 8139TIP3    H145832   0.430   5.512  12.661  2.0066 -0.3252 -0.8632
 8139TIP3    H245833   0.341   5.415  12.586 -1.2791  1.5272  0.4456
 8140TIP3   OH245834   0.237   4.877   4.732  0.0995 -0.4340 -0.1840
 8140TIP3    H145835   0.153   4.920   4.743 -0.2789 -0.8583 -1.2412
 8140TIP3    H245836   0.216   4.791   4.694  1.0010 -0.5075 -0.5648
 8141TIP3   OH245837   5.004   4.006  10.800 -0.4536  0.1093 -0.1572
 8141TIP3    H145838   5.028   3.917  10.825  1.2841  0.5934 -0.0299
 8141TIP3    H245839   4.909   4.003  10.789 -0.4081 -1.7689 -0.2207
 8142TIP3   OH245840   4.561   4.947   2.839  0.3220  0.0112  0.5727
 8142TIP3    H145841   4.619   4.882   2.877  1.2378 -0.2895 -1.2149
 8142TIP3    H245842   4.577   4.941   2.745 -2.5459 -0.0069  0.0030
 8143TIP3   OH245843   3.536   4.979  13.628  0.5006  0.1152  0.7304
 8143TIP3    H145844   3.616   5.030  13.620  0.7327 -0.2410  0.7647
 8143TIP3    H245845   3.545   4.910  13.562 -0.1348  0.5453  0.1736
 8144TIP3   OH245846   1.702   6.142   0.727 -0.1364 -0.0917  0.2607
 8144TIP3    H145847   1.633   6.203   0.756  0.4979  0.7625 -0.0156
 8144TIP3    H245848   1.761   6.195   0.674  1.2243 -0.5994  1.2051
 8145TIP3   OH245849   5.597   6.501   1.908 -0.0115  0.2325 -0.5798
 8145TIP3    H145850   5.633   6.565   1.846  1.4868  0.6196  0.6277
 8145TIP3    H245851   5.594   6.419   1.858  0.7583  0.6244 -1.2990
 8146TIP3   OH245852   2.668   3.955  16.089  0.0513 -0.1405 -0.2041
 8146TIP3    H145853   2.595   4.016  16.081  0.4510  0.5012  0.8443
 8146TIP3    H245854   2.738   4.006  16.130  1.2413 -0.6287 -1.5589
 8147TIP3   OH245855   2.187   0.704  13.546 -0.6507  0.0875 -1.0976
 8147TIP3    H145856   2.092   0.697  13.558 -0.3682  1.3086  4.0686
 8147TIP3    H245857   2.203   0.799  13.546  0.6592 -0.1268 -0.6081
 8148TIP3   OH245858   2.414   5.641   0.878 -0.4165  0.3827 -0.7913
 8148TIP3    H145859   2.368   5.557   0.881  0.2100 -0.0216 -1.9862
 8148TIP3    H245860   2.357   5.701   0.926 -0.7910 -0.7516  0.2414
 8149TIP3   OH245861   0.289   0.553  11.937  0.3593  0.2251  0.2982
 8149TIP3    H145862   0.352   0.625  11.937 -0.5717  1.0778 -1.5335
 8149TIP3    H245863   0.210   0.589  11.976  0.3562 -0.2903  0.7998
 8150TIP3   OH245864   2.966   1.584  16.664  0.1050 -0.5399  0.9726
 8150TIP3    H145865   2.997   1.544  16.583 -1.4208  0.1336  0.0227
 8150TIP3    H245866   2.903   1.521  16.699 -1.4566  0.4440  0.0576
 8151TIP3   OH245867   4.608   6.723  12.717  0.2292 -0.2507 -0.1737
 8151TIP3    H145868   4.566   6.640  12.695  0.0294 -0.3081  0.3954
 8151TIP3    H245869   4.538   6.777  12.753  0.8668 -0.9071  2.2975
 8152TIP3   OH245870   6.483   5.693  14.469  0.4771  0.6819 -0.1433
 8152TIP3    H145871   6.428   5.681  14.391  1.8546  1.7360 -1.3374
 8152TIP3    H245872   6.491   5.788  14.478  0.3501  0.5748  1.3046
 8153TIP3   OH245873   1.091   6.392  13.479 -0.0305 -0.2747 -0.2396
 8153TIP3    H145874   1.087   6.397  13.384  2.5421  1.9693 -0.3264
 8153TIP3    H245875   1.177   6.356  13.499  1.0548  2.7325  1.1579
 8154TIP3   OH245876   2.313   6.139  12.484  0.2866  0.4311 -0.3128
 8154TIP3    H145877   2.235   6.084  12.481 -1.6336  3.0514 -1.9690
 8154TIP3    H245878   2.377   6.092  12.430 -1.1987 -0.3307 -1.4931
 8155TIP3   OH245879   4.824   5.888  11.273 -0.2148  0.2739 -0.0695
 8155TIP3    H145880   4.767   5.811  11.266  2.1133 -1.5001 -0.8800
 8155TIP3    H245881   4.824   5.926  11.185  0.4001 -0.1832 -0.2756
 8156TIP3   OH245882   6.733   1.227   1.202 -0.5060  0.2900  0.2235
 8156TIP3    H145883   6.798   1.277   1.152  0.6680 -0.5959  0.8161
 8156TIP3    H245884   6.783   1.156   1.241 -2.4626 -2.8260 -2.4954
 8157TIP3   OH245885   5.398   1.188  15.674  0.1257  0.2740 -0.4526
 8157TIP3    H145886   5.450   1.111  15.697  0.4089  0.7246  0.4419
 8157TIP3    H245887   5.393   1.240  15.755  1.1725  1.9118 -1.3724
 8158TIP3   OH245888   0.862   3.533  15.558  0.2373  0.2960  0.3048
 8158TIP3    H145889   0.919   3.460  15.583 -0.9638 -0.1889  1.7867
 8158TIP3    H245890   0.877   3.544  15.464  2.0963 -0.3733  0.4776
 8159TIP3   OH245891   4.310   3.391   1.974  0.0321  0.3179  0.1401
 8159TIP3    H145892   4.332   3.480   2.000 -1.6057  0.4924  1.0757
 8159TIP3    H245893   4.232   3.400   1.919  0.6915 -0.4415 -0.9585
 8160TIP3   OH245894   2.974   1.903   4.023 -0.0783  0.4283  0.0840
 8160TIP3    H145895   3.059   1.898   4.067 -0.5626 -0.6947  0.9312
 8160TIP3    H245896   2.920   1.838   4.067 -1.8971  2.1949  0.6063
 8161TIP3   OH245897   1.073   1.071   1.794  0.0507  0.0292 -0.1754
 8161TIP3    H145898   1.089   1.052   1.887 -1.4575  0.1513  0.1387
 8161TIP3    H245899   0.980   1.092   1.790 -0.0051 -0.4194 -1.8097
 8162TIP3   OH245900   6.147   4.955  12.809 -0.1284  0.7649 -0.8042
 8162TIP3    H145901   6.072   4.979  12.754 -1.1163  0.4654  0.3654
 8162TIP3    H245902   6.155   4.860  12.798 -1.5703  0.3705  0.9839
 8163TIP3   OH245903   2.116   5.371   1.148 -0.2192  0.2775  0.0022
 8163TIP3    H145904   2.037   5.391   1.198 -0.8795 -0.6375 -0.6418
 8163TIP3    H245905   2.156   5.298   1.194 -0.8840 -0.6349 -0.8339
 8164TIP3   OH245906   0.085   2.405   5.519  0.6470  0.5335 -1.1418
 8164TIP3    H145907   0.135   2.331   5.552  0.0152  0.1237 -1.0965
 8164TIP3    H245908  -0.005   2.373   5.511  0.1410  1.6030 -0.0831
 8165TIP3   OH245909   5.785   5.206  16.346  0.0149 -0.6393 -0.1198
 8165TIP3    H145910   5.827   5.123  16.321  0.0823 -0.5106 -0.4401
 8165TIP3    H245911   5.707   5.211  16.291  0.7661  0.1918 -1.1408
 8166TIP3   OH245912   5.563   1.964  11.929  0.0482 -0.2206 -0.9082
 8166TIP3    H145913   5.657   1.963  11.909  0.0719 -0.4700 -0.7954
 8166TIP3    H245914   5.559   1.983  12.023 -0.0227  0.0046 -0.9572
 8167TIP3   OH245915   3.222   0.111  13.597 -0.2933  0.0923  0.5442
 8167TIP3    H145916   3.229   0.198  13.558  0.6939 -0.0281  0.4243
 8167TIP3    H245917   3.132   0.107  13.630 -0.6182  0.8295 -0.2020
 8168TIP3   OH245918   3.562   2.977  14.473  0.4963  0.0518  0.2036
 8168TIP3    H145919   3.651   2.966  14.506 -0.3249 -1.5399  2.0697
 8168TIP3    H245920   3.530   3.057  14.514  0.1594 -0.8722  1.8415
 8169TIP3   OH245921   2.127   2.408  16.113  0.5429  0.2562  0.0643
 8169TIP3    H145922   2.122   2.470  16.186  0.5739  1.7087 -1.1236
 8169TIP3    H245923   2.122   2.321  16.154 -1.0014  1.0520  1.6650
 8170TIP3   OH245924   5.238   3.786   2.584  0.4351 -0.4366  0.6003
 8170TIP3    H145925   5.146   3.792   2.608  0.0919  0.9125 -0.8472
 8170TIP3    H245926   5.285   3.830   2.654 -0.3738  1.9197 -0.2439
 8171TIP3   OH245927   3.647   0.517   5.327  0.1153  0.1772 -0.3684
 8171TIP3    H145928   3.567   0.560   5.297  1.6122  2.6002 -1.1373
 8171TIP3    H245929   3.626   0.490   5.417 -2.0167 -0.5861 -1.0344
 8172TIP3   OH245930   4.959   2.125   4.275 -0.0276  0.0784 -0.3075
 8172TIP3    H145931   4.991   2.042   4.240  0.5385  1.2888 -2.8512
 8172TIP3    H245932   4.997   2.192   4.219 -0.0547  2.1510  1.9759
 8173TIP3   OH245933   0.610   4.823   2.431 -0.1423  0.2757 -0.6119
 8173TIP3    H145934   0.621   4.905   2.382  1.8541 -0.3501 -1.3244
 8173TIP3    H245935   0.616   4.848   2.523  0.1863  0.9652 -0.8162
 8174TIP3   OH245936   2.103   0.858  14.944  0.5201 -0.5031 -0.2517
 8174TIP3    H145937   2.189   0.880  14.981  0.4359  0.7577 -0.7340
 8174TIP3    H245938   2.096   0.913  14.866 -0.8736 -0.2953 -0.0089
 8175TIP3   OH245939   2.615   6.697  15.642  0.0640 -0.1124 -0.7556
 8175TIP3    H145940   2.524   6.726  15.648 -0.2396 -1.1630  0.0328
 8175TIP3    H245941   2.618   6.643  15.563 -0.2231 -0.7934 -0.3110
 8176TIP3   OH245942   5.932   6.519  11.630 -0.0086 -0.1615 -0.5037
 8176TIP3    H145943   5.889   6.456  11.571 -3.7869  1.1782  0.5178
 8176TIP3    H245944   5.944   6.598  11.577  0.0029 -0.1244 -0.4462
 8177TIP3   OH245945   6.743   6.588  15.297 -0.1409 -0.1930  0.1809
 8177TIP3    H145946   6.679   6.527  15.260  0.8500 -1.4113  0.4016
 8177TIP3    H245947   6.793   6.535  15.360 -1.5545  1.7254  3.0981
 8178TIP3   OH245948   4.779   6.649  13.663  0.0897 -0.3902  0.3809
 8178TIP3    H145949   4.731   6.663  13.744 -0.4444 -0.3943  0.0753
 8178TIP3    H245950   4.801   6.556  13.664 -0.4045 -0.5150  0.2715
 8179TIP3   OH245951   6.299   2.178  17.011 -0.2018  0.7366  0.2442
 8179TIP3    H145952   6.267   2.265  16.986  0.3779  1.1081  0.7438
 8179TIP3    H245953   6.373   2.197  17.069  1.6214 -0.0389 -1.6737
 8180TIP3   OH245954   6.145   5.154  16.616 -0.0533 -0.3729 -0.5104
 8180TIP3    H145955   6.155   5.214  16.690  0.8393 -0.8490 -0.2232
 8180TIP3    H245956   6.116   5.210  16.544  1.0354  0.4834 -0.3262
 8181TIP3   OH245957   0.203   4.261   6.635 -0.6483 -0.4539  0.5473
 8181TIP3    H145958   0.179   4.331   6.695  1.2914  2.0192 -1.2872
 8181TIP3    H245959   0.268   4.209   6.683 -0.1023  0.6745  1.0715
 8182TIP3   OH245960   6.574   0.943   0.831  0.5767 -0.1678  0.0130
 8182TIP3    H145961   6.488   0.970   0.863 -0.0058 -3.0698  1.2483
 8182TIP3    H245962   6.564   0.936   0.736 -0.2611  0.3569  0.0538
 8183TIP3   OH245963   5.244   1.447  11.751 -0.4003  0.2842 -0.6618
 8183TIP3    H145964   5.241   1.370  11.807  0.6252  0.6169 -0.1153
 8183TIP3    H245965   5.208   1.418  11.667 -2.8913  0.0336  0.4332
 8184TIP3   OH245966   4.128   0.897   3.436 -0.5250  0.2460 -0.8492
 8184TIP3    H145967   4.177   0.943   3.504 -0.2014  0.0984 -0.9797
 8184TIP3    H245968   4.187   0.896   3.361 -0.0181 -1.4420 -0.4774
 8185TIP3   OH245969   3.864   1.897  13.721  0.0096  0.2366  0.0286
 8185TIP3    H145970   3.876   1.842  13.644  0.2853 -0.9706  0.8959
 8185TIP3    H245971   3.829   1.837  13.788  1.1914  0.8855  1.2858
 8186TIP3   OH245972   1.842   6.436   5.207  0.4463 -0.0042  0.1438
 8186TIP3    H145973   1.892   6.359   5.236 -0.1979 -0.7414 -0.6544
 8186TIP3    H245974   1.794   6.464   5.285  1.2505  0.0382  0.6303
 8187TIP3   OH245975   5.685   3.362   2.888 -0.2697 -0.1487 -0.0494
 8187TIP3    H145976   5.680   3.269   2.910 -0.4552 -0.3479 -0.8832
 8187TIP3    H245977   5.701   3.363   2.793  1.2917  0.6500  0.1815
 8188TIP3   OH245978   5.610   3.990   4.594  0.0052  0.2212  0.0117
 8188TIP3    H145979   5.550   3.986   4.668 -0.7733 -0.1782 -0.6319
 8188TIP3    H245980   5.693   3.957   4.629  0.0622  1.4135  1.0836
 8189TIP3   OH245981   1.735   3.517  14.883 -0.1958  0.1377  0.0763
 8189TIP3    H145982   1.654   3.535  14.931 -0.1528 -1.4031  0.7852
 8189TIP3    H245983   1.746   3.422  14.890  1.0805  0.1859 -0.9802
 8190TIP3   OH245984   4.792   1.197  14.487  0.2994  0.4418  0.1999
 8190TIP3    H145985   4.851   1.132  14.451 -0.5085  0.1377 -0.6301
 8190TIP3    H245986   4.848   1.270  14.513  1.3097 -0.8983  1.9285
 8191TIP3   OH245987   1.403   6.526  11.610 -0.7064 -0.1008  0.1380
 8191TIP3    H145988   1.372   6.576  11.534 -1.5072 -2.0586 -0.8905
 8191TIP3    H245989   1.413   6.592  11.679  0.9396  1.9127 -1.8648
 8192TIP3   OH245990   0.526   0.162   4.620  0.3621  0.4466  0.5594
 8192TIP3    H145991   0.511   0.249   4.581  1.0667  0.9684  1.4283
 8192TIP3    H245992   0.620   0.161   4.640  0.9112 -1.4646 -1.6918
 8193TIP3   OH245993   4.922   6.198  14.606 -0.2053 -0.0413 -0.0390
 8193TIP3    H145994   5.010   6.234  14.617 -0.4022  0.5408 -0.2894
 8193TIP3    H245995   4.866   6.256  14.657 -0.6234  0.4471 -1.0203
 8194TIP3   OH245996   1.328   6.470  13.883  0.3395 -0.2288 -0.1905
 8194TIP3    H145997   1.296   6.509  13.802  1.3889  0.1424 -0.4486
 8194TIP3    H245998   1.250   6.439  13.928 -0.2828 -0.1770 -1.2085
 8195TIP3   OH245999   3.921   0.677  15.220 -0.1382  0.4105  0.0316
 8195TIP3    H146000   3.829   0.681  15.247 -0.3549 -0.1400 -0.5675
 8195TIP3    H246001   3.953   0.594  15.256 -0.2466 -0.0085 -0.7990
 8196TIP3   OH246002   2.098   4.459  12.265  0.1272 -0.5217 -0.6284
 8196TIP3    H146003   2.044   4.518  12.213  1.4134  2.5987  1.2513
 8196TIP3    H246004   2.181   4.455  12.217  0.8909  1.3477  0.4485
 8197TIP3   OH246005   2.157   5.436  10.980  0.3962  0.3091 -0.2480
 8197TIP3    H146006   2.100   5.513  10.987  0.9391  0.5910  1.4731
 8197TIP3    H246007   2.097   5.362  10.969 -0.1470  0.9110 -1.4991
 8198TIP3   OH246008   4.731   0.691   2.359 -0.1207  0.0576 -0.2956
 8198TIP3    H146009   4.685   0.744   2.424  1.7241  1.1850  0.1665
 8198TIP3    H246010   4.804   0.746   2.330 -1.3103 -0.0756 -3.9968
 8199TIP3   OH246011   3.711   3.391   0.180 -0.4841 -0.4295 -0.0446
 8199TIP3    H146012   3.753   3.445   0.113  0.5518  0.0870  0.9822
 8199TIP3    H246013   3.643   3.342   0.133  1.4739 -1.5597 -1.8643
 8200TIP3   OH246014   3.854   5.869   5.219  0.5237 -0.1613  0.4811
 8200TIP3    H146015   3.891   5.791   5.179  2.2489  1.0156 -0.3415
 8200TIP3    H246016   3.878   5.940   5.160 -2.9988  0.7894 -0.0489
 8201TIP3   OH246017   0.543   3.251   3.151  0.1450  0.2866 -0.3573
 8201TIP3    H146018   0.585   3.165   3.151 -0.3950  0.0136  0.1884
 8201TIP3    H246019   0.450   3.232   3.158  0.0548  0.9323  0.2529
 8202TIP3   OH246020   6.350   6.227  15.034  0.2421 -0.3901  0.0655
 8202TIP3    H146021   6.288   6.226  15.107  0.3677  0.2150  0.1830
 8202TIP3    H246022   6.328   6.149  14.984 -1.1404  0.2110 -0.3240
 8203TIP3   OH246023   0.385   5.570  10.590  0.0695  0.4441 -0.3708
 8203TIP3    H146024   0.450   5.613  10.534 -0.0992  1.1161 -0.0634
 8203TIP3    H246025   0.396   5.611  10.676  0.4706 -0.7276  0.1576
 8204TIP3   OH246026   2.427   5.847   3.196 -0.3829 -0.2702 -0.0511
 8204TIP3    H146027   2.435   5.926   3.250 -1.2785 -1.4721  1.9614
 8204TIP3    H246028   2.428   5.775   3.259 -1.6132 -1.7528 -1.6411
 8205TIP3   OH246029   2.938   1.576   0.453  0.4293 -0.4422 -0.1243
 8205TIP3    H146030   3.005   1.541   0.395  1.5088  2.8171 -1.0567
 8205TIP3    H246031   2.941   1.671   0.439 -4.3207 -0.0474 -0.1468
 8206TIP3   OH246032   5.275   2.140   3.969 -0.4716 -0.2932  0.0081
 8206TIP3    H146033   5.234   2.190   4.039  0.0926  0.1272  0.0500
 8206TIP3    H246034   5.317   2.066   4.012 -0.9912 -0.6008 -0.0098
 8207TIP3   OH246035   5.657   1.768  13.232 -0.4926  0.0852 -0.6601
 8207TIP3    H146036   5.679   1.807  13.148  0.9328 -0.5350 -0.6059
 8207TIP3    H246037   5.734   1.716  13.255 -1.2149 -0.4694  0.6033
 8208TIP3   OH246038   4.320   2.052  14.981  0.3739  0.1052 -0.0793
 8208TIP3    H146039   4.289   2.115  14.916  1.1890 -1.0634 -1.6620
 8208TIP3    H246040   4.373   2.104  15.041  0.3093  1.0838 -0.8420
 8209TIP3   OH246041   0.725   6.146   4.265  0.0727 -0.0039 -0.2765
 8209TIP3    H146042   0.757   6.234   4.285  1.3096 -1.1427  3.7552
 8209TIP3    H246043   0.643   6.160   4.218  0.4096  3.2557 -0.1148
 8210TIP3   OH246044   3.492   4.306   4.328  0.1620 -0.0905 -0.4753
 8210TIP3    H146045   3.427   4.367   4.363  0.8281  0.6315 -0.4424
 8210TIP3    H246046   3.449   4.263   4.254 -0.4713  0.1027 -0.2164
 8211TIP3   OH246047   5.446   5.746  14.991  0.0077  0.1341  0.1878
 8211TIP3    H146048   5.440   5.823  14.934  2.6071  0.0471 -0.3338
 8211TIP3    H246049   5.407   5.675  14.939 -0.6738  0.7090 -0.1077
 8212TIP3   OH246050   3.104   3.096  12.674  0.3545  0.3864  0.5856
 8212TIP3    H146051   3.085   3.011  12.635  1.1836  0.4874 -0.0610
 8212TIP3    H246052   3.200   3.100  12.678  0.3269  0.0247  3.4533
 8213TIP3   OH246053   6.172   3.400  15.281  0.2834 -0.0291  0.6090
 8213TIP3    H146054   6.185   3.364  15.369  0.1906  0.2964  0.7584
 8213TIP3    H246055   6.208   3.334  15.222  1.1909  0.1635  0.9380
 8214TIP3   OH246056   4.713   6.176   1.048 -0.2752 -0.3012 -0.7080
 8214TIP3    H146057   4.776   6.233   1.005 -1.5866  1.6955 -0.1049
 8214TIP3    H246058   4.630   6.195   1.005 -0.9252 -1.0517  0.1781
 8215TIP3   OH246059   3.945   6.260  11.136  0.8594  0.1792  0.8276
 8215TIP3    H146060   3.960   6.177  11.090  0.2040 -0.7094  2.1391
 8215TIP3    H246061   3.935   6.324  11.066  0.7342 -0.9580 -0.2493
 8216TIP3   OH246062   3.559   4.226  11.238 -0.1430  0.2417  0.1772
 8216TIP3    H146063   3.650   4.209  11.263  0.0691 -0.3016 -0.9120
 8216TIP3    H246064   3.526   4.141  11.209 -0.7226  0.6106 -0.2605
 8217TIP3   OH246065   6.534   1.047   2.365  1.0146  0.0637 -0.0720
 8217TIP3    H146066   6.565   1.005   2.445  3.0058  1.6493  0.0628
 8217TIP3    H246067   6.584   1.005   2.295  0.3010 -0.3468 -0.3410
 8218TIP3   OH246068   0.726   5.110  15.461 -0.0089  0.8556  0.0161
 8218TIP3    H146069   0.806   5.148  15.425  1.6968 -2.2894  0.0820
 8218TIP3    H246070   0.661   5.121  15.392  1.6937 -0.1758 -1.8729
 8219TIP3   OH246071   5.325   2.449  13.402 -0.0567  0.2366  0.6293
 8219TIP3    H146072   5.229   2.449  13.398 -0.1356 -2.7767  0.1000
 8219TIP3    H246073   5.352   2.396  13.327  1.8961 -0.6701  1.8815
 8220TIP3   OH246074   0.988   0.561  11.419  0.3626 -0.4699  0.0314
 8220TIP3    H146075   0.967   0.632  11.479  0.6493  0.8266 -1.3441
 8220TIP3    H246076   1.023   0.492  11.475  0.5892  0.6768  1.3569
 8221TIP3   OH246077   2.574   0.451   4.484  0.0757  0.6418 -0.4266
 8221TIP3    H146078   2.501   0.487   4.534  0.0411  0.8188 -0.5979
 8221TIP3    H246079   2.602   0.374   4.532  1.2029  1.7947  0.8439
 8222TIP3   OH246080   0.703   2.953   5.960  0.4208  0.6596 -0.5632
 8222TIP3    H146081   0.658   2.963   5.876  0.3501 -0.3295 -0.6512
 8222TIP3    H246082   0.771   2.888   5.944  0.7593  0.8628  0.0171
 8223TIP3   OH246083   1.189   1.244  16.668  0.2152  0.1480  0.1083
 8223TIP3    H146084   1.095   1.247  16.687  0.3375  2.0728  0.6853
 8223TIP3    H246085   1.194   1.234  16.573 -0.5735 -0.1781  0.0954
 8224TIP3   OH246086   4.258   1.207  14.343  0.2566  0.2403  0.2035
 8224TIP3    H146087   4.179   1.252  14.314 -0.1583 -1.1322 -0.8884
 8224TIP3    H246088   4.327   1.272  14.333 -0.6831  1.4197  1.0372
 8225TIP3   OH246089   1.855   0.423  16.633  0.4233  0.0313 -0.2262
 8225TIP3    H146090   1.864   0.497  16.573  0.9955  1.3800  1.4357
 8225TIP3    H246091   1.939   0.377  16.626  0.4669  0.1441 -0.4931
 8226TIP3   OH246092   0.524   3.383   4.967  0.5592 -0.0534 -0.2157
 8226TIP3    H146093   0.429   3.369   4.968  0.6983 -1.3891  1.6963
 8226TIP3    H246094   0.536   3.474   4.993 -0.2146 -0.4507  1.7171
 8227TIP3   OH246095   6.200   5.357   2.270 -0.0120  0.3343 -0.6529
 8227TIP3    H146096   6.134   5.314   2.326  0.1461  0.6994 -0.1867
 8227TIP3    H246097   6.249   5.284   2.231  0.6316  0.0870  0.5874
 8228TIP3   OH246098   2.494   6.127   5.829  0.2842 -0.1021  0.3757
 8228TIP3    H146099   2.532   6.088   5.908 -0.4502 -1.1547  0.2413
 8228TIP3    H246100   2.569   6.157   5.778  1.0695 -2.8816 -0.2719
 8229TIP3   OH246101   6.195   0.978  13.763 -0.0429 -0.2041  0.1971
 8229TIP3    H146102   6.221   1.047  13.824  0.3986  0.2168 -0.4586
 8229TIP3    H246103   6.276   0.957  13.715  0.4222 -2.7153  1.8481
 8230TIP3   OH246104   0.849   6.438   0.310  0.0809  0.1609 -0.8258
 8230TIP3    H146105   0.799   6.486   0.376  1.0688 -3.6969  3.2329
 8230TIP3    H246106   0.783   6.396   0.255 -0.9422  0.1768  0.3639
 8231TIP3   OH246107   5.707   1.013   5.327  0.2403  0.1855  0.0193
 8231TIP3    H146108   5.723   1.076   5.398  0.3513  2.6197 -2.0214
 8231TIP3    H246109   5.698   0.929   5.372 -0.5800  1.6957  2.9843
 8232TIP3   OH246110   5.999   6.523  11.287  0.2032 -0.5294 -0.1022
 8232TIP3    H146111   5.923   6.529  11.229  1.2167  0.4744 -1.3909
 8232TIP3    H246112   6.069   6.568  11.239  1.8734 -2.2220  0.6462
 8233TIP3   OH246113   0.523   5.732  16.909 -0.7798 -0.1202 -0.0628
 8233TIP3    H146114   0.501   5.802  16.970  0.0740  0.4338 -0.3664
 8233TIP3    H246115   0.610   5.704  16.935 -0.4974 -0.0334 -0.8769
 8234TIP3   OH246116   0.835   4.549   3.657  0.6483  0.4300  0.1071
 8234TIP3    H146117   0.837   4.463   3.699 -1.7750  0.1982 -0.1145
 8234TIP3    H246118   0.878   4.607   3.720  4.7255 -1.2511 -0.8340
 8235TIP3   OH246119   4.621   0.557  15.548  0.7863  0.2610  0.2600
 8235TIP3    H146120   4.595   0.482  15.602  2.6630 -0.0385  0.8312
 8235TIP3    H246121   4.554   0.623  15.565 -0.9410 -1.2698 -0.2900
 8236TIP3   OH246122   5.482   3.418  13.217 -0.3248  0.0570 -0.2789
 8236TIP3    H146123   5.532   3.415  13.136  1.9660  1.0638  1.0236
 8236TIP3    H246124   5.525   3.356  13.275 -0.4863  1.0223  0.9272
 8237TIP3   OH246125   5.164   0.076   2.303 -0.1568  0.3316 -0.8929
 8237TIP3    H146126   5.107   0.116   2.369  1.3984 -0.7955  1.2436
 8237TIP3    H246127   5.226   0.145   2.280 -0.8717  0.8153 -1.4227
 8238TIP3   OH246128   2.371   2.050  13.334 -0.3017 -0.8869  0.2827
 8238TIP3    H146129   2.356   2.041  13.240 -1.1295 -0.2891  0.3448
 8238TIP3    H246130   2.287   2.078  13.369  0.9990  3.6072  0.5321
 8239TIP3   OH246131   4.433   3.787   2.474  0.2448 -0.6490  0.0862
 8239TIP3    H146132   4.431   3.751   2.563  0.4517 -2.5949 -0.6457
 8239TIP3    H246133   4.448   3.880   2.487 -1.3413 -0.5836  2.1622
 8240TIP3   OH246134   6.086   2.551   2.978  0.1128  0.0336 -0.2638
 8240TIP3    H146135   6.076   2.516   2.889 -0.4589  3.0154 -1.4955
 8240TIP3    H246136   6.170   2.515   3.008  0.7767 -0.3583 -2.3901
 8241TIP3   OH246137   0.272   4.060  11.366 -0.2241  0.4908  0.3353
 8241TIP3    H146138   0.229   3.982  11.400  1.4360  0.4692  2.6541
 8241TIP3    H246139   0.365   4.048  11.389  0.1349  2.9670  0.4653
 8242TIP3   OH246140   4.062   5.662   4.331 -0.5857 -0.1016  0.0023
 8242TIP3    H146141   4.150   5.623   4.340 -0.9931 -1.1862 -0.4402
 8242TIP3    H246142   4.073   5.753   4.356  0.4741 -0.4486  0.8925
 8243TIP3   OH246143   2.002   2.041   4.559 -0.8194 -0.0703  0.9341
 8243TIP3    H146144   1.966   2.006   4.478 -1.8471 -1.1027  1.8081
 8243TIP3    H246145   2.097   2.035   4.548 -0.8962  1.1228 -0.7350
 8244TIP3   OH246146   0.671   0.431  14.403  0.0663  0.5806  0.2732
 8244TIP3    H146147   0.597   0.475  14.361  0.0205 -1.2501 -1.7503
 8244TIP3    H246148   0.733   0.416  14.331  2.2078  1.5623  1.8099
 8245TIP3   OH246149   3.194   4.497   3.952  0.8634  0.4307 -0.5264
 8245TIP3    H146150   3.201   4.518   3.859 -1.0751  2.5385 -0.2868
 8245TIP3    H246151   3.112   4.447   3.959  0.7387  0.7151  0.1141
 8246TIP3   OH246152   2.344   1.487   0.184 -0.2317  0.3222 -0.4054
 8246TIP3    H146153   2.396   1.543   0.241 -1.6818  2.1671 -0.7892
 8246TIP3    H246154   2.273   1.543   0.153 -1.2369 -1.4817 -1.5914
 8247TIP3   OH246155   6.164   5.844   2.447  0.4134 -0.0707 -0.1251
 8247TIP3    H146156   6.240   5.859   2.392  1.5600 -0.9483  1.1501
 8247TIP3    H246157   6.117   5.773   2.404 -0.3036  1.1603 -1.4773
 8248TIP3   OH246158   5.453   0.175  12.884  0.2019 -0.0422 -0.1276
 8248TIP3    H146159   5.512   0.214  12.819  1.0915 -0.4686  0.3981
 8248TIP3    H246160   5.494   0.092  12.906 -0.5517 -0.2979  0.3405
 8249TIP3   OH246161   0.012   0.358   5.352  0.4342 -0.5210  0.3038
 8249TIP3    H146162  -0.050   0.356   5.425  1.2012 -1.6310  0.9419
 8249TIP3    H246163  -0.020   0.291   5.291  1.7702 -2.1111  1.2991
 8250TIP3   OH246164   3.375   3.263   0.888  0.5438 -0.2392 -0.1298
 8250TIP3    H146165   3.468   3.279   0.869  0.6627 -0.7297  0.0241
 8250TIP3    H246166   3.333   3.267   0.802  0.6941  0.0581 -0.1924
 8251TIP3   OH246167   4.978   6.091   5.380  0.2108  0.6178  0.3921
 8251TIP3    H146168   5.053   6.075   5.322 -0.0981 -2.2644  0.6364
 8251TIP3    H246169   5.013   6.079   5.468 -0.1431  1.1931  0.6168
 8252TIP3   OH246170   3.862   1.417   0.777  0.0349 -0.2546 -0.1788
 8252TIP3    H146171   3.850   1.491   0.837 -0.1308  0.3233 -0.9051
 8252TIP3    H246172   3.956   1.408   0.768  0.0582 -0.2573  0.0627
 8253TIP3   OH246173   6.213   4.642  11.431 -0.2698 -0.0830 -0.0301
 8253TIP3    H146174   6.130   4.689  11.442  0.3526  1.0379  0.1294
 8253TIP3    H246175   6.188   4.554  11.406 -1.4849  0.8682 -2.4920
 8254TIP3   OH246176   5.344   4.301  17.128 -0.2448  0.3574 -0.1245
 8254TIP3    H146177   5.383   4.387  17.109  1.6075  0.1537  2.2922
 8254TIP3    H246178   5.254   4.321  17.155 -0.0086  1.4890 -0.1321
 8255TIP3   OH246179   6.536   4.017  17.232  0.6359 -0.2232 -0.1730
 8255TIP3    H146180   6.550   3.954  17.162 -0.0863 -1.4767  0.7625
 8255TIP3    H246181   6.466   4.074  17.200  1.8044  0.6312 -1.3288
 8256TIP3   OH246182   3.083   0.962  17.244  0.2758  0.1266 -0.5683
 8256TIP3    H146183   3.043   1.043  17.277  2.5693  0.9164  0.4501
 8256TIP3    H246184   3.013   0.897  17.252 -0.4169  1.0766  2.6086
 8257TIP3   OH246185   3.698   3.164  12.735 -0.6810 -0.1078 -0.0761
 8257TIP3    H146186   3.637   3.181  12.806  0.9557  1.2057  1.0981
 8257TIP3    H246187   3.720   3.071  12.743 -0.8525 -0.0715  0.8634
 8258TIP3   OH246188   4.699   2.185   5.829 -0.4553  0.5577 -0.6475
 8258TIP3    H146189   4.743   2.171   5.913  0.8399  0.5089 -1.2999
 8258TIP3    H246190   4.606   2.194   5.851 -0.3036 -0.6912  0.6498
 8259TIP3   OH246191   1.260   0.920   3.197 -0.4593 -0.2186 -0.5489
 8259TIP3    H146192   1.354   0.926   3.177 -0.4766 -0.4844 -0.7252
 8259TIP3    H246193   1.223   1.002   3.165  0.1432  1.1840  2.0436
 8260TIP3   OH246194   2.791   3.195  16.632 -0.9697  0.5406 -0.1811
 8260TIP3    H146195   2.831   3.196  16.719 -0.8090 -0.7222 -0.2166
 8260TIP3    H246196   2.810   3.107  16.598 -0.8150  1.1059 -1.6007
 8261TIP3   OH246197   3.801   5.266  15.143 -0.3524 -0.0946  0.2450
 8261TIP3    H146198   3.765   5.344  15.186 -1.0250  0.5704 -1.4215
 8261TIP3    H246199   3.885   5.251  15.187  0.8213  2.8458 -0.7215
 8262TIP3   OH246200   4.252   3.401   2.318 -0.1352  0.1823 -0.8257
 8262TIP3    H146201   4.268   3.494   2.297 -0.0170 -0.3078 -3.1672
 8262TIP3    H246202   4.157   3.393   2.319 -0.1432  0.2500 -0.9830
 8263TIP3   OH246203   5.734   3.083   2.846  0.3057 -0.1512 -0.1854
 8263TIP3    H146204   5.671   3.037   2.790  0.1606  0.2454 -0.3542
 8263TIP3    H246205   5.820   3.055   2.814  0.2207 -0.9027  0.2177
 8264TIP3   OH246206   6.589   6.630  14.386 -0.2196 -0.1947  0.0056
 8264TIP3    H146207   6.524   6.601  14.322  0.1646  0.1638 -0.5479
 8264TIP3    H246208   6.542   6.625  14.470 -0.7379 -0.6222 -0.2974
 8265TIP3   OH246209   0.344   2.534  13.145  0.0200 -0.1531  0.6107
 8265TIP3    H146210   0.364   2.628  13.141 -0.1281 -0.0761  1.3684
 8265TIP3    H246211   0.426   2.493  13.173  0.0028 -0.2173  0.5665
 8266TIP3   OH246212   1.325   6.599   2.336  0.1418  0.0012  0.3804
 8266TIP3    H146213   1.246   6.652   2.326  1.9375  2.4152 -2.8242
 8266TIP3    H246214   1.310   6.521   2.282 -1.7887 -2.1643  3.6860
 8267TIP3   OH246215   2.232   3.331  13.934  0.2355  0.5447 -0.1661
 8267TIP3    H146216   2.204   3.247  13.970 -2.4691  1.2522 -0.3739
 8267TIP3    H246217   2.220   3.393  14.006  0.6057  1.0315 -0.5175
 8268TIP3   OH246218   6.577   0.896  13.967  0.3351  0.3639 -0.4308
 8268TIP3    H146219   6.549   0.972  14.017 -2.0804 -0.7163  0.0079
 8268TIP3    H246220   6.553   0.917  13.876  2.2528  1.2136 -0.7925
 8269TIP3   OH246221   4.757   2.473   1.297 -0.2136  0.2190  0.2401
 8269TIP3    H146222   4.798   2.509   1.376  0.1076  0.7792 -0.1703
 8269TIP3    H246223   4.831   2.453   1.239 -0.2581 -2.5962  1.0273
 8270TIP3   OH246224   5.667   2.193   0.412  0.5801  0.0414  0.5628
 8270TIP3    H146225   5.584   2.234   0.436 -0.0511 -0.8352 -0.0860
 8270TIP3    H246226   5.725   2.267   0.391  0.2823  0.7008  1.9563
 8271TIP3   OH246227   3.859   5.804   1.902  0.4332  0.4324  0.2414
 8271TIP3    H146228   3.866   5.844   1.988 -0.0956  0.4504  0.2780
 8271TIP3    H246229   3.949   5.786   1.876  0.6391  1.1650  0.4482
 8272TIP3   OH246230   5.185   2.171   5.613 -0.4130 -0.1824  0.5340
 8272TIP3    H146231   5.207   2.258   5.581 -1.0496  0.2250  1.1800
 8272TIP3    H246232   5.090   2.174   5.628 -0.9558 -1.8338 -2.0039
 8273TIP3   OH246233   5.899   1.723   4.322 -0.4835  0.0440  0.2974
 8273TIP3    H146234   5.894   1.634   4.287  1.4044  0.3250 -0.8356
 8273TIP3    H246235   5.936   1.712   4.409  1.9628 -0.2137 -0.6775
 8274TIP3   OH246236   1.783   4.025   2.449  0.5074 -0.0335  0.0218
 8274TIP3    H146237   1.855   4.060   2.397  0.0893 -1.4574 -1.6296
 8274TIP3    H246238   1.767   4.091   2.517  2.4868  0.9033 -0.3538
 8275TIP3   OH246239   5.564   0.037   5.987 -0.0418  0.7597  0.2102
 8275TIP3    H146240   5.541   0.031   5.894  1.9339 -0.8261 -0.2692
 8275TIP3    H246241   5.603   0.124   5.997  1.4443  0.2706 -0.9424
 8276TIP3   OH246242   5.769   5.199   1.809 -0.2587  0.2973  0.2055
 8276TIP3    H146243   5.795   5.126   1.753 -0.5449  0.3818 -0.0367
 8276TIP3    H246244   5.851   5.241   1.834 -0.2191  1.8879 -2.3004
 8277TIP3   OH246245   0.886   2.018   2.088 -0.0662  0.2285  0.0743
 8277TIP3    H146246   0.977   2.036   2.110 -0.3831  2.7066 -0.3100
 8277TIP3    H246247   0.837   2.044   2.166 -0.5990  1.4697 -0.6399
 8278TIP3   OH246248   0.260   2.595   4.516 -0.3195  0.2339 -0.1167
 8278TIP3    H146249   0.355   2.609   4.524 -0.1948  0.2643 -1.3960
 8278TIP3    H246250   0.221   2.660   4.574  0.4309  0.3092  0.3271
 8279TIP3   OH246251   4.667   3.148  13.038 -0.0215  0.3734 -0.3361
 8279TIP3    H146252   4.677   3.114  12.949  0.8364  1.3401 -0.6276
 8279TIP3    H246253   4.581   3.190  13.037 -0.0984  0.2212 -0.6475
 8280TIP3   OH246254   4.272   1.315  13.695  0.3518  0.4725  0.6420
 8280TIP3    H146255   4.300   1.290  13.607 -1.4563  2.8961 -0.7591
 8280TIP3    H246256   4.352   1.316  13.747  1.3920 -1.5209 -0.8182
 8281TIP3   OH246257   0.598   0.231   6.451 -0.4133  0.0306  0.6840
 8281TIP3    H146258   0.626   0.141   6.469 -0.4615  0.3651  2.6447
 8281TIP3    H246259   0.505   0.232   6.473 -0.6521  0.3275 -0.3007
 8282TIP3   OH246260   0.983   1.545  16.897 -0.1237 -0.4752  0.5883
 8282TIP3    H146261   1.014   1.598  16.971  1.9797  0.0934 -0.6141
 8282TIP3    H246262   1.029   1.582  16.821 -3.3190 -0.0587 -1.3029
 8283TIP3   OH246263   0.064   6.284  12.617  0.2690  0.3858 -0.1370
 8283TIP3    H146264   0.063   6.316  12.708  0.5101  2.3942 -0.7983
 8283TIP3    H246265   0.048   6.362  12.564  1.1060 -0.5839 -1.8870
 8284TIP3   OH246266   6.754   2.214   1.665 -0.0231 -0.0895 -0.3596
 8284TIP3    H146267   6.839   2.252   1.686 -0.7044  1.7311 -0.7784
 8284TIP3    H246268   6.730   2.163   1.743  1.2057 -0.1949 -0.0409
 8285TIP3   OH246269   1.549   6.745   3.866  0.6390  0.7489  0.1278
 8285TIP3    H146270   1.531   6.787   3.950 -2.3157  1.1894 -0.5969
 8285TIP3    H246271   1.573   6.816   3.807 -0.0983  0.8437 -0.0646
 8286TIP3   OH246272   0.071   0.943  11.512 -0.4988 -0.2162 -0.3914
 8286TIP3    H146273   0.152   0.907  11.476 -0.4341 -0.1086 -0.3540
 8286TIP3    H246274   0.098   0.987  11.592 -0.5726 -0.0585 -0.4523
 8287TIP3   OH246275   0.142   5.580  15.313 -0.1165  0.1091  0.4507
 8287TIP3    H146276   0.130   5.536  15.397 -0.4093 -0.4072  0.1421
 8287TIP3    H246277   0.138   5.673  15.334  1.5253  0.0281  1.2625
 8288TIP3   OH246278   0.479   6.181   2.445 -0.2364  0.4101 -0.0810
 8288TIP3    H146279   0.513   6.156   2.531 -1.6584 -0.1584  0.3388
 8288TIP3    H246280   0.523   6.264   2.426 -1.9920  2.0967  2.5293
 8289TIP3   OH246281   3.980   5.328   0.005  0.3080 -0.4279 -0.2187
 8289TIP3    H146282   3.966   5.324  -0.090 -3.9957 -0.2325  0.1858
 8289TIP3    H246283   3.992   5.237   0.031  0.0291 -0.6410 -0.8124
 8290TIP3   OH246284   5.021   5.082  12.548  0.1497 -0.2041 -0.4797
 8290TIP3    H146285   5.024   5.057  12.456  2.2042 -0.8448 -0.2867
 8290TIP3    H246286   5.019   4.999  12.595  3.1917 -0.0610  0.0864
 8291TIP3   OH246287   2.998   5.210  13.013 -0.5379 -0.3059 -0.8770
 8291TIP3    H146288   2.921   5.152  13.013  0.2300 -1.3856  0.3288
 8291TIP3    H246289   2.994   5.255  13.097 -0.4945  0.5686 -1.3264
 8292TIP3   OH246290   6.098   1.660  11.979 -0.1748 -0.3264  0.0041
 8292TIP3    H146291   6.116   1.635  12.070 -1.5939 -0.2975  0.3103
 8292TIP3    H246292   6.004   1.675  11.976  0.0795  1.2540 -1.0946
 8293TIP3   OH246293   2.384   1.355   4.642 -0.1754  0.1123  0.8646
 8293TIP3    H146294   2.365   1.448   4.644  0.0798  0.2508 -1.1599
 8293TIP3    H246295   2.307   1.313   4.681 -1.0063  1.0813  0.2997
 8294TIP3   OH246296   5.765   3.068  16.354 -0.2802 -0.4890 -0.3905
 8294TIP3    H146297   5.782   3.156  16.388  0.3158 -0.9823  0.6236
 8294TIP3    H246298   5.700   3.031  16.415 -0.4229 -0.8042 -0.7297
 8295TIP3   OH246299   3.093   6.236  13.007  0.6383 -0.0005  0.1498
 8295TIP3    H146300   3.043   6.168  13.052  1.3118  0.6058  1.9219
 8295TIP3    H246301   3.176   6.193  12.984  0.4585 -0.1982 -0.1355
 8296TIP3   OH246302   0.406   1.226   0.058  0.7421  0.2471 -0.1009
 8296TIP3    H146303   0.492   1.210   0.096  1.0228  1.4033 -0.2208
 8296TIP3    H246304   0.421   1.229  -0.036  0.7145  1.2080 -0.0841
 8297TIP3   OH246305   2.957   5.561  13.793 -0.8346 -0.1654  0.2952
 8297TIP3    H146306   2.934   5.476  13.829 -1.3503 -0.7363 -1.3122
 8297TIP3    H246307   3.050   5.570  13.810 -0.5068 -1.6068 -0.5713
 8298TIP3   OH246308   4.426   3.258  12.856 -0.0718  0.0336  0.8548
 8298TIP3    H146309   4.331   3.264  12.869  0.0419 -1.5288  2.8295
 8298TIP3    H246310   4.436   3.245  12.762 -2.0309 -2.4314  0.8723
 8299TIP3   OH246311   4.025   0.696  10.984 -0.2271 -0.0671 -0.7648
 8299TIP3    H146312   4.106   0.647  10.995 -0.2011  0.2437  0.5579
 8299TIP3    H246313   4.034   0.739  10.899  1.0266  0.0197 -0.5959
 8300TIP3   OH246314   2.007   6.214   2.210  0.4142 -0.8950 -0.0798
 8300TIP3    H146315   2.075   6.203   2.276  3.1545 -1.1362 -2.7391
 8300TIP3    H246316   1.969   6.127   2.199  1.1305 -1.2206 -0.0000
 8301TIP3   OH246317   4.903   4.438   4.604 -0.0514 -0.8124  0.4571
 8301TIP3    H146318   4.850   4.517   4.612  0.1762 -0.4551 -1.2632
 8301TIP3    H246319   4.948   4.431   4.688  0.4806  1.3098  0.4009
 8302TIP3   OH246320   4.270   6.186   0.617  0.2997 -0.1741 -0.1813
 8302TIP3    H146321   4.261   6.214   0.708  3.2764 -1.5914  0.6592
 8302TIP3    H246322   4.233   6.098   0.615 -1.7383  0.6323 -0.9417
 8303TIP3   OH246323   2.438   5.730  16.498 -0.0394  0.2853 -0.0673
 8303TIP3    H146324   2.369   5.770  16.551 -2.1979 -0.9849 -1.7436
 8303TIP3    H246325   2.440   5.783  16.418  2.9296  1.9726  0.9817
 8304TIP3   OH246326   4.880   5.752   2.096 -0.4709 -0.0748  0.0735
 8304TIP3    H146327   4.786   5.771   2.102 -0.4083 -0.1127  1.4413
 8304TIP3    H246328   4.887   5.660   2.120 -0.1087 -0.1738 -0.3975
 8305TIP3   OH246329   4.615   6.286   2.433 -0.6257  0.4922 -0.2445
 8305TIP3    H146330   4.586   6.354   2.372  2.7387  2.1472 -0.2056
 8305TIP3    H246331   4.666   6.332   2.499  1.1800 -1.9655  0.2315
 8306TIP3   OH246332   3.059   3.533  15.477 -0.2333  0.4387 -0.0091
 8306TIP3    H146333   3.013   3.468  15.530 -3.5459  3.0369  0.6951
 8306TIP3    H246334   3.150   3.503  15.475 -0.7744 -2.1101  3.4832
 8307TIP3   OH246335   6.294   0.555   2.656  0.6129  0.2131 -0.0438
 8307TIP3    H146336   6.213   0.568   2.605  0.1576 -1.6785  0.1033
 8307TIP3    H246337   6.281   0.470   2.698  3.2683 -0.8253 -1.1541
 8308TIP3   OH246338   0.287   2.828   5.304 -0.3246 -0.2780  0.0635
 8308TIP3    H146339   0.338   2.867   5.374 -0.8857  0.3187  0.1546
 8308TIP3    H246340   0.337   2.751   5.277  0.3330 -0.0167  0.5178
 8309TIP3   OH246341   3.204   2.865   1.884 -0.5034 -0.5661 -0.0110
 8309TIP3    H146342   3.163   2.895   1.802  1.1982 -0.7520 -0.9705
 8309TIP3    H246343   3.279   2.813   1.856  1.8183  1.6510  1.6193
 8310TIP3   OH246344   4.162   4.906  15.754 -0.3261 -0.1514 -0.1290
 8310TIP3    H146345   4.245   4.953  15.760 -0.7142  0.5414 -0.1065
 8310TIP3    H246346   4.180   4.832  15.696  0.0018  0.6816 -1.1169
 8311TIP3   OH246347   5.912   4.812   0.246 -0.6279 -0.2448  0.3416
 8311TIP3    H146348   5.972   4.741   0.222  3.1795  1.6412  3.2286
 8311TIP3    H246349   5.887   4.792   0.336 -0.4032  1.4441  0.7981
 8312TIP3   OH246350   1.240   2.201   3.724  0.0512 -0.9618 -0.1801
 8312TIP3    H146351   1.310   2.265   3.737 -1.3548  0.6662 -0.1284
 8312TIP3    H246352   1.161   2.245   3.757 -1.1605 -2.3234 -1.1041
 8313TIP3   OH246353   2.549   4.696  11.686  0.1711 -0.1801 -0.1313
 8313TIP3    H146354   2.591   4.782  11.679 -0.2419  0.0741  0.4096
 8313TIP3    H246355   2.458   4.712  11.661 -0.1255 -0.2624  0.8504
 8314TIP3   OH246356   2.320   4.090  10.772 -0.1993 -0.2733 -0.9486
 8314TIP3    H146357   2.389   4.026  10.794  0.6662  0.9850  0.1878
 8314TIP3    H246358   2.366   4.159  10.725 -0.5356  0.8686  0.3288
 8315TIP3   OH246359   3.761   4.991  14.228 -0.0889 -1.2425 -0.1990
 8315TIP3    H146360   3.844   4.968  14.187 -0.3692 -0.6659 -1.1025
 8315TIP3    H246361   3.758   4.936  14.307  2.3637  0.6146  1.3167
 8316TIP3   OH246362   5.505   6.295   1.462 -0.4384 -0.3183  0.0371
 8316TIP3    H146363   5.547   6.380   1.470 -0.7187 -0.3824  3.3291
 8316TIP3    H246364   5.417   6.314   1.428  0.2183  0.4083 -1.3348
 8317TIP3   OH246365   1.142   5.293   0.344  0.1752  0.2409 -0.0142
 8317TIP3    H146366   1.073   5.300   0.410  0.1079 -1.7877  0.2132
 8317TIP3    H246367   1.211   5.352   0.375 -1.0921  1.6902  0.1833
 8318TIP3   OH246368   2.861   3.510  15.053 -0.3321  0.5068 -0.1410
 8318TIP3    H146369   2.791   3.570  15.027 -0.2018  0.8037  0.1772
 8318TIP3    H246370   2.845   3.493  15.146 -1.1188 -0.9857 -0.5258
 8319TIP3   OH246371   4.381   4.927  11.669 -0.6006  0.3563  0.1491
 8319TIP3    H146372   4.314   4.864  11.643 -0.2629 -0.3502  0.9301
 8319TIP3    H246373   4.408   4.898  11.756  1.1896  0.2059 -0.3997
 8320TIP3   OH246374   0.015   4.603  17.017  0.0726 -0.0479  0.1602
 8320TIP3    H146375   0.040   4.692  16.991  1.5377 -0.6302 -0.5063
 8320TIP3    H246376  -0.074   4.613  17.051  0.7778  1.9392  1.6440
 8321TIP3   OH246377   0.771   5.220   2.742 -0.8184  0.3919  0.2525
 8321TIP3    H146378   0.820   5.291   2.784 -0.5027  0.5666 -0.4059
 8321TIP3    H246379   0.761   5.248   2.651  0.4347 -0.9782 -0.3580
 8322TIP3   OH246380   5.362   5.349  13.447 -0.1800  0.4723 -0.1891
 8322TIP3    H146381   5.307   5.417  13.485 -0.6145  0.3823 -0.6438
 8322TIP3    H246382   5.349   5.273  13.504 -1.2677  0.1642 -0.8067
 8323TIP3   OH246383   1.116   1.169   2.492  0.0535 -0.2739  0.7235
 8323TIP3    H146384   1.021   1.153   2.492  0.1035 -0.7509 -0.4817
 8323TIP3    H246385   1.134   1.200   2.403  0.8070  1.3383  1.4175
 8324TIP3   OH246386   2.692   5.166  14.471 -0.3534  0.5852  0.0902
 8324TIP3    H146387   2.614   5.221  14.473 -0.1638  0.8687 -0.3119
 8324TIP3    H246388   2.766   5.227  14.473 -0.1331  0.4064 -1.3499
 8325TIP3   OH246389   4.358   5.865   0.786  0.3749  0.7813 -0.6708
 8325TIP3    H146390   4.263   5.862   0.779  0.2264 -1.5300  1.0412
 8325TIP3    H246391   4.388   5.881   0.697 -1.5777 -3.3167 -2.3194
 8326TIP3   OH246392   5.317   6.501  11.407  0.3393 -0.0272 -0.5067
 8326TIP3    H146393   5.312   6.411  11.436 -2.8447  0.6532  1.6431
 8326TIP3    H246394   5.403   6.532  11.435  0.7931 -1.8990  0.2818
 8327TIP3   OH246395   2.419   1.706  13.811 -0.7312  0.3977 -0.2945
 8327TIP3    H146396   2.357   1.648  13.768 -1.1731  0.4234  0.2912
 8327TIP3    H246397   2.504   1.664  13.800 -0.8396  0.3888 -1.1508
 8328TIP3   OH246398   4.023   0.864  14.260  0.7089 -0.1435 -0.2950
 8328TIP3    H146399   3.969   0.901  14.329 -1.6950 -1.8429 -1.1402
 8328TIP3    H246400   3.984   0.897  14.179  1.0564 -1.2139 -0.9200
 8329TIP3   OH246401   0.806   2.998  14.797 -0.2792 -0.0217  0.2200
 8329TIP3    H146402   0.733   2.939  14.774 -0.6444 -0.0033  1.2748
 8329TIP3    H246403   0.764   3.083  14.811  0.4525  1.0166 -3.0504
 8330TIP3   OH246404   0.981   6.700  13.920  0.3358  0.2602 -0.2536
 8330TIP3    H146405   0.965   6.786  13.881 -0.5690  0.7329  1.0830
 8330TIP3    H246406   1.006   6.645  13.847  1.7219  1.8448 -1.0402
 8331TIP3   OH246407   0.194   6.226   3.808  0.5954  0.3384  0.7939
 8331TIP3    H146408   0.267   6.284   3.787  1.1940 -0.1812  1.3784
 8331TIP3    H246409   0.235   6.154   3.857 -0.5173  0.7915  2.4649
 8332TIP3   OH246410   2.343   2.722  14.613  0.6456  0.1263 -0.2529
 8332TIP3    H146411   2.284   2.730  14.687 -0.8115  2.4637 -1.5281
 8332TIP3    H246412   2.356   2.627  14.602 -0.2767 -0.3170  2.0041
 8333TIP3   OH246413   4.953   1.773  15.258  0.3435  0.4530  0.4080
 8333TIP3    H146414   4.872   1.752  15.304  0.8041 -0.8935  0.6401
 8333TIP3    H246415   5.006   1.820  15.322 -0.6295  2.3373 -0.0654
 8334TIP3   OH246416   0.014   3.723  13.267 -0.4373 -0.2905 -0.2170
 8334TIP3    H146417   0.003   3.709  13.361 -0.7897 -1.9358 -0.4709
 8334TIP3    H246418  -0.059   3.780  13.243  0.0625  0.7280  0.6105
 8335TIP3   OH246419   4.168   3.749   0.899  0.1824  0.0470  0.0600
 8335TIP3    H146420   4.129   3.671   0.860 -0.6385  0.3525  0.2531
 8335TIP3    H246421   4.131   3.753   0.987  0.3586  0.5528  0.1148
 8336TIP3   OH246422   4.369   2.348   1.116  0.2044  0.1087  0.2429
 8336TIP3    H146423   4.356   2.281   1.183  0.5259 -0.8738 -0.6482
 8336TIP3    H246424   4.410   2.302   1.043 -1.7340  0.7175 -1.3430
 8337TIP3   OH246425   6.461   3.855   1.605  0.1079 -0.0548  0.5754
 8337TIP3    H146426   6.376   3.826   1.570 -0.0151  0.5474  0.3634
 8337TIP3    H246427   6.520   3.781   1.588 -0.3729 -0.4749  0.7199
 8338TIP3   OH246428   1.735   4.730   0.754  0.4649  0.4870  0.2377
 8338TIP3    H146429   1.657   4.688   0.791 -0.5222  2.7827  0.9135
 8338TIP3    H246430   1.704   4.769   0.672  1.4736 -0.3899 -0.5968
 8339TIP3   OH246431   1.230   5.633  11.019  0.2132  0.0327 -0.8812
 8339TIP3    H146432   1.198   5.705  10.965  1.0069  0.9972 -0.1058
 8339TIP3    H246433   1.163   5.565  11.011 -0.8540  1.0833 -1.1377
 8340TIP3   OH246434   1.200   4.283   1.247  0.1499  0.1411 -0.0087
 8340TIP3    H146435   1.217   4.355   1.308  1.8973  0.2177 -0.5371
 8340TIP3    H246436   1.275   4.225   1.257 -0.1124 -0.4458 -1.2420
 8341TIP3   OH246437   4.069   1.517   4.580  0.6406  0.0094 -0.3142
 8341TIP3    H146438   4.026   1.454   4.638  1.4291 -1.8008 -1.6033
 8341TIP3    H246439   4.156   1.530   4.618  0.6125  0.0491 -0.2621
 8342TIP3   OH246440   2.266   2.799   2.769  0.0967  0.4714  0.0755
 8342TIP3    H146441   2.354   2.797   2.806  0.0120  0.6326  0.2888
 8342TIP3    H246442   2.238   2.889   2.780 -0.8402  0.0172  1.7887
 8343TIP3   OH246443   2.097   1.201  16.292 -0.5544  0.7363  0.3446
 8343TIP3    H146444   2.053   1.244  16.219  1.9094  3.0340  0.0481
 8343TIP3    H246445   2.188   1.229  16.285  0.2775 -0.9528  2.8969
 8344TIP3   OH246446   5.418   3.592   4.501 -0.4436 -0.0927 -0.6274
 8344TIP3    H146447   5.355   3.660   4.523 -0.4360 -0.9907  2.5509
 8344TIP3    H246448   5.503   3.634   4.516 -0.4313 -0.5647  0.7490
 8345TIP3   OH246449   5.681   0.148  12.144  0.5590 -0.1074 -0.4927
 8345TIP3    H146450   5.752   0.094  12.179  2.0890 -0.2747 -3.5165
 8345TIP3    H246451   5.684   0.228  12.196  1.0559 -1.2122  1.2811
 8346TIP3   OH246452   5.828   6.191   5.738 -0.0041 -0.0450  0.0268
 8346TIP3    H146453   5.743   6.147   5.729 -0.4095  0.3107  1.7657
 8346TIP3    H246454   5.806   6.283   5.749  0.2864 -0.2818  3.9028
 8347TIP3   OH246455   0.260   6.155  17.261 -0.1237  0.9520 -0.1371
 8347TIP3    H146456   0.216   6.074  17.233 -1.4001  1.1302  1.2454
 8347TIP3    H246457   0.218   6.223  17.209 -0.7849  0.9986  0.4431
 8348TIP3   OH246458   2.772   3.660   3.008 -0.1752 -0.8007 -0.4289
 8348TIP3    H146459   2.832   3.597   2.968  0.0211 -0.3027 -0.9354
 8348TIP3    H246460   2.809   3.678   3.094  0.2743 -0.6747 -0.6458
 8349TIP3   OH246461   1.435   4.041  16.614  0.6636  0.4587 -0.2164
 8349TIP3    H146462   1.490   4.038  16.536  3.1402 -0.9814  1.4310
 8349TIP3    H246463   1.384   3.960  16.610  1.0106  0.2366 -0.2141
 8350TIP3   OH246464   4.049   4.978   3.839 -0.7183  0.1194  0.0030
 8350TIP3    H146465   4.041   5.025   3.922 -3.5303  0.4127 -0.3244
 8350TIP3    H246466   4.139   4.992   3.812  0.2573  0.1175  2.9228
 8351TIP3   OH246467   2.889   1.934   3.462  0.0286 -0.1896  0.2672
 8351TIP3    H146468   2.971   1.912   3.506 -0.6806 -2.5330  0.5521
 8351TIP3    H246469   2.828   1.865   3.489 -1.9424  1.2574 -0.2429
 8352TIP3   OH246470   0.054   5.445   6.084  1.0587  0.1654 -0.3095
 8352TIP3    H146471  -0.027   5.412   6.046  0.4755  0.2054  0.8616
 8352TIP3    H246472   0.027   5.520   6.137  1.8614  0.1909  0.0792
 8353TIP3   OH246473   1.750   6.558   0.861 -0.5636  0.1878  0.3397
 8353TIP3    H146474   1.714   6.637   0.902  0.5746  0.8524  0.0856
 8353TIP3    H246475   1.795   6.590   0.783 -0.4376 -0.7682  0.0119
 8354TIP3   OH246476   5.947   3.463   5.392  0.1036  0.0959 -0.6652
 8354TIP3    H146477   5.893   3.437   5.317 -0.7911  0.8402 -0.3082
 8354TIP3    H246478   6.022   3.404   5.389 -0.3367 -0.4521 -1.6451
 8355TIP3   OH246479   0.251   3.609  12.750  0.0858  0.1702  0.0989
 8355TIP3    H146480   0.321   3.558  12.710  0.7206  1.6237 -0.7461
 8355TIP3    H246481   0.196   3.545  12.794  1.6685 -1.0628  0.3609
 8356TIP3   OH246482   3.569   1.192  12.450  0.2457 -0.0772 -0.1796
 8356TIP3    H146483   3.480   1.156  12.451 -0.0709  0.7043 -0.0173
 8356TIP3    H246484   3.620   1.130  12.502 -0.3681 -0.1199  0.3809
 8357TIP3   OH246485   0.445   3.405  16.018  0.0947 -0.4019 -0.2383
 8357TIP3    H146486   0.525   3.378  16.063 -0.5840  0.2682  1.4630
 8357TIP3    H246487   0.414   3.481  16.067 -1.6114 -0.6797 -0.8053
 8358TIP3   OH246488   0.532   2.868   3.600  0.0735 -0.2615  0.4844
 8358TIP3    H146489   0.524   2.772   3.595 -0.4263 -0.2214  0.4413
 8358TIP3    H246490   0.623   2.883   3.623 -0.0185 -0.7717  1.2042
 8359TIP3   OH246491   0.962   1.585  10.877 -0.2162 -0.7260 -0.5483
 8359TIP3    H146492   0.975   1.655  10.813  0.2651 -0.8854 -0.6264
 8359TIP3    H246493   1.045   1.579  10.924 -0.9904  0.3150  1.0362
 8360TIP3   OH246494   1.011   4.435  16.645  0.6616 -0.4678 -0.5461
 8360TIP3    H146495   1.074   4.447  16.716 -1.0811  1.1497  0.8603
 8360TIP3    H246496   1.061   4.448  16.565  2.1091  0.8398  0.5172
 8361TIP3   OH246497   0.988   0.629   2.459  0.3495 -0.5892 -0.6132
 8361TIP3    H146498   1.044   0.655   2.387  1.9998  0.1853  0.8685
 8361TIP3    H246499   0.960   0.711   2.499 -0.1263 -1.0047 -0.0774
 8362TIP3   OH246500   2.405   4.211   3.710  0.0489  0.4088 -0.2376
 8362TIP3    H146501   2.331   4.180   3.657  0.5367  0.4418 -0.9431
 8362TIP3    H246502   2.443   4.130   3.746  0.2550  0.3222 -0.6523
 8363TIP3   OH246503   5.308   3.544  15.830 -0.2265 -0.3310 -0.1304
 8363TIP3    H146504   5.354   3.459  15.829  0.0854 -0.1612 -0.5280
 8363TIP3    H246505   5.266   3.549  15.744 -0.8016 -0.3781  0.1452
 8364TIP3   OH246506   5.868   2.405  12.991  0.6882 -0.1864  0.8201
 8364TIP3    H146507   5.843   2.315  12.970 -1.2977 -0.0380  2.3402
 8364TIP3    H246508   5.835   2.457  12.917 -0.4198 -0.4308  1.1254
 8365TIP3   OH246509   2.611   1.215   5.978  0.1766 -0.2592  0.0283
 8365TIP3    H146510   2.681   1.200   6.041 -0.5158 -1.9694  0.4478
 8365TIP3    H246511   2.542   1.156   6.005 -0.8638  0.3246 -1.2624
 8366TIP3   OH246512   3.531   2.042  15.462  0.2063  0.0784 -0.3973
 8366TIP3    H146513   3.501   1.972  15.404 -0.0598  0.7115 -1.0422
 8366TIP3    H246514   3.454   2.097  15.475  0.5197  0.4905 -0.2550
 8367TIP3   OH246515   2.148   4.706   3.458  0.1490 -0.0736 -0.4854
 8367TIP3    H146516   2.170   4.622   3.498 -1.8377 -0.3188  0.1889
 8367TIP3    H246517   2.081   4.686   3.393 -0.3906  0.9879 -0.2830
 8368TIP3   OH246518   0.104   4.848  15.241 -0.7254  0.0771 -0.2344
 8368TIP3    H146519   0.139   4.845  15.152 -2.9395  0.4535 -1.1840
 8368TIP3    H246520   0.057   4.931  15.246 -1.7430 -0.5218  0.8213
 8369TIP3   OH246521   3.345   3.390  14.979 -0.1624 -0.0381  0.1255
 8369TIP3    H146522   3.407   3.461  14.994  1.9798 -1.0934 -2.6741
 8369TIP3    H246523   3.262   3.434  14.958  0.8711  1.6227 -0.6849
 8370TIP3   OH246524   0.482   5.522  14.490 -0.2389  0.3241  0.1713
 8370TIP3    H146525   0.548   5.457  14.515 -0.1028  1.1197  1.9930
 8370TIP3    H246526   0.421   5.473  14.434 -0.5224 -1.5948  2.0227
 8371TIP3   OH246527   6.089   3.398   1.074 -0.0424  0.3058 -0.0899
 8371TIP3    H146528   6.057   3.326   1.128 -0.7047 -0.3943 -1.3608
 8371TIP3    H246529   6.036   3.473   1.100 -0.7461 -0.1598 -0.1516
 8372TIP3   OH246530   6.652   0.393  14.999  0.1013  0.4728 -0.1164
 8372TIP3    H146531   6.745   0.409  15.008 -0.0092  1.6253 -0.8227
 8372TIP3    H246532   6.610   0.467  15.043 -0.4588  0.9650 -1.4270
 8373TIP3   OH246533   4.854   5.909   0.476  0.2933  0.1524 -1.0778
 8373TIP3    H146534   4.948   5.927   0.481  0.2462  0.2935 -0.6634
 8373TIP3    H246535   4.836   5.901   0.382  0.8566 -0.6354 -1.1264
 8374TIP3   OH246536   5.378   2.972  12.004 -0.0603 -0.1330 -0.6249
 8374TIP3    H146537   5.304   3.006  11.954 -0.7812 -0.7653 -0.0139
 8374TIP3    H246538   5.386   3.031  12.079 -1.6107 -1.4997  0.6899
 8375TIP3   OH246539   5.524   0.207   4.219  0.7179  0.5337 -0.1240
 8375TIP3    H146540   5.603   0.180   4.173  0.8853  0.1891  0.3629
 8375TIP3    H246541   5.555   0.245   4.301  0.4159  1.0400 -0.2385
 8376TIP3   OH246542   1.596   5.996  13.789 -0.1401  0.0196 -0.0098
 8376TIP3    H146543   1.524   5.943  13.822 -0.2872 -0.3488 -0.9053
 8376TIP3    H246544   1.654   6.007  13.864  0.5024 -2.4187 -0.0741
 8377TIP3   OH246545   6.028   1.095  11.437  0.3929  0.1092  0.0728
 8377TIP3    H146546   5.950   1.075  11.488 -0.2141  1.6607 -0.1760
 8377TIP3    H246547   6.057   1.180  11.471  2.8160 -1.0472  1.1360
 8378TIP3   OH246548   0.078   3.307   3.629  0.0359  0.3282  0.1650
 8378TIP3    H146549   0.027   3.363   3.688  0.3837 -0.0841  0.8773
 8378TIP3    H246550   0.169   3.326   3.651  0.2165  1.1268 -1.1676
 8379TIP3   OH246551   1.762   0.160   5.408 -0.1103  0.2550 -0.4472
 8379TIP3    H146552   1.769   0.199   5.495  1.9699  0.8252 -0.8284
 8379TIP3    H246553   1.668   0.166   5.387 -0.5684  0.5748  1.5104
 8380TIP3   OH246554   0.850   5.331   4.751 -0.0050  0.3869  0.3273
 8380TIP3    H146555   0.894   5.397   4.805  0.7385  0.8829 -0.8389
 8380TIP3    H246556   0.767   5.371   4.727 -0.2171  0.2757  0.8635
 8381TIP3   OH246557   0.136   4.269  15.701  0.1226 -0.1951  0.5643
 8381TIP3    H146558   0.196   4.201  15.671  1.5057  0.5984  1.4007
 8381TIP3    H246559   0.123   4.325  15.624 -1.5890 -1.7100 -0.3373
 8382TIP3   OH246560   5.419   1.796   3.260 -0.4679 -0.0674  0.4739
 8382TIP3    H146561   5.480   1.771   3.191 -0.4616  0.9035  0.1122
 8382TIP3    H246562   5.420   1.722   3.321 -1.6697 -1.6993 -1.3409
 8383TIP3   OH246563   5.524   0.853  17.273 -0.1767 -0.2742 -0.0033
 8383TIP3    H146564   5.524   0.938  17.228  1.1407  0.0965  0.6344
 8383TIP3    H246565   5.536   0.789  17.202  1.7553  0.2935 -0.2594
 8384TIP3   OH246566   6.287   6.748  12.992  0.2300  0.8289 -0.1312
 8384TIP3    H146567   6.195   6.766  12.972  0.3988  1.0712 -0.7152
 8384TIP3    H246568   6.290   6.653  13.006 -0.2995  0.9551  0.9833
 8385TIP3   OH246569   1.440   6.632   3.592  0.1267  0.4448 -0.1963
 8385TIP3    H146570   1.515   6.573   3.601 -0.7151 -0.6135 -0.0438
 8385TIP3    H246571   1.416   6.655   3.682 -1.4333 -1.4256 -0.0798
 8386TIP3   OH246572   5.388   0.372   4.632  0.5105  0.4922 -0.1536
 8386TIP3    H146573   5.392   0.281   4.603 -1.4825  0.2024  0.3277
 8386TIP3    H246574   5.429   0.371   4.719  1.3079  0.2475 -0.5233
 8387TIP3   OH246575   2.514   0.933   1.764  0.0663  0.3558  0.1143
 8387TIP3    H146576   2.459   0.872   1.715  1.0669 -0.7703  0.3404
 8387TIP3    H246577   2.602   0.897   1.756  0.2062 -0.3744  3.3336
 8388TIP3   OH246578   3.325   5.736   4.036 -0.1905 -0.7278  0.3506
 8388TIP3    H146579   3.337   5.760   4.128 -1.2745  1.2512  0.0441
 8388TIP3    H246580   3.353   5.814   3.987 -0.0084 -1.5956 -0.9752
 8389TIP3   OH246581   3.021   2.082   1.478  0.4632 -0.2255 -0.2468
 8389TIP3    H146582   2.961   2.156   1.483  0.7594  0.1739 -1.9452
 8389TIP3    H246583   2.968   2.006   1.502  0.4231  0.6099  2.5693
 8390TIP3   OH246584   1.271   1.511  16.301 -0.0472  0.8818 -0.1101
 8390TIP3    H146585   1.286   1.420  16.323  1.1895  0.7595 -1.3261
 8390TIP3    H246586   1.258   1.511  16.206 -1.0378  1.8550  0.0063
 8391TIP3   OH246587   0.296   2.549   3.864  0.3661 -0.1942 -0.5801
 8391TIP3    H146588   0.232   2.596   3.918 -0.1583 -0.2819 -1.1074
 8391TIP3    H246589   0.351   2.618   3.826 -0.0388 -0.0426 -0.8990
 8392TIP3   OH246590   0.556   1.434  12.035  0.3369 -0.0412  0.4938
 8392TIP3    H146591   0.589   1.523  12.042 -0.6450  0.4780 -0.8521
 8392TIP3    H246592   0.599   1.399  11.957 -1.8254  0.5076 -1.0441
 8393TIP3   OH246593   2.317   4.381  11.767  0.0598  0.7566 -0.6739
 8393TIP3    H146594   2.392   4.415  11.817  0.1622 -0.5375  0.1050
 8393TIP3    H246595   2.263   4.337  11.832  0.0025 -0.6503 -1.6347
 8394TIP3   OH246596   4.892   2.914   0.574 -0.7864  0.3070  0.4023
 8394TIP3    H146597   4.920   2.865   0.652 -1.0546 -2.7229 -1.2775
 8394TIP3    H246598   4.974   2.936   0.530 -0.5595 -3.7452 -1.6700
 8395TIP3   OH246599   0.014   2.668  14.745  0.5259  0.0996  0.9077
 8395TIP3    H146600   0.071   2.612  14.798  1.3096  1.6106  1.7388
 8395TIP3    H246601  -0.023   2.730  14.808  0.7734  1.3777 -0.1611
 8396TIP3   OH246602   1.699   4.220  10.807  0.3591  0.4486  0.0196
 8396TIP3    H146603   1.733   4.158  10.742 -1.0169 -1.7609  1.2654
 8396TIP3    H246604   1.775   4.274  10.830  0.8843  1.4221 -3.3967
 8397TIP3   OH246605   1.846   1.779   5.295 -0.0180 -0.7010 -0.0069
 8397TIP3    H146606   1.776   1.839   5.320  1.8745  2.6415 -2.0210
 8397TIP3    H246607   1.815   1.738   5.214 -1.7921 -3.5558  1.9545
 8398TIP3   OH246608   4.936   2.845  13.058 -0.1627 -0.1747 -0.2596
 8398TIP3    H146609   4.933   2.774  12.994 -0.3626  0.1357 -0.6057
 8398TIP3    H246610   4.853   2.839  13.105  1.0327 -2.0251  1.8041
 8399TIP3   OH246611   2.345   5.343  15.525 -0.2260 -0.3217 -0.2217
 8399TIP3    H146612   2.427   5.344  15.476  0.0384  0.2655  0.2304
 8399TIP3    H246613   2.289   5.406  15.481 -0.2497 -0.3344 -0.2100
 8400TIP3   OH246614   6.725   5.340   4.066  0.7252 -0.1362 -0.1016
 8400TIP3    H146615   6.726   5.411   4.002  1.3473  0.0403  0.0922
 8400TIP3    H246616   6.803   5.356   4.119 -0.2682  0.2517  1.2869
 8401TIP3   OH246617   6.732   2.946  15.811  0.0736  0.4544 -0.8624
 8401TIP3    H146618   6.766   3.036  15.809  1.0479  0.1886  1.0590
 8401TIP3    H246619   6.798   2.897  15.860 -1.4021 -0.8806 -0.1173
 8402TIP3   OH246620   0.280   3.638   1.971 -0.1332  0.2510  0.0627
 8402TIP3    H146621   0.278   3.562   1.912 -0.2054 -1.2639  1.9359
 8402TIP3    H246622   0.373   3.655   1.984 -0.0969  1.3212 -1.3093
 8403TIP3   OH246623   1.508   4.554   2.405 -0.3726 -0.2834 -0.0044
 8403TIP3    H146624   1.518   4.609   2.327 -1.2809  0.5661  0.4630
 8403TIP3    H246625   1.519   4.464   2.372  1.5652  0.1503 -0.7103
 8404TIP3   OH246626   5.632   1.002   1.291  0.0213 -0.5501 -0.3032
 8404TIP3    H146627   5.693   0.967   1.356 -0.4410  1.8387  1.5887
 8404TIP3    H246628   5.551   0.952   1.304 -0.2096  0.1955  1.3676
 8405TIP3   OH246629   5.991   3.857   2.072  0.5798  0.1901 -0.4258
 8405TIP3    H146630   5.959   3.766   2.074 -1.8044  0.9712  1.1784
 8405TIP3    H246631   5.987   3.885   2.163  2.2652  1.6421 -0.7502
 8406TIP3   OH246632   0.739   5.066   3.351 -0.2616  0.2288  0.1565
 8406TIP3    H146633   0.769   4.982   3.386 -0.6014  0.0208 -0.0440
 8406TIP3    H246634   0.810   5.127   3.371 -0.0758 -0.0736  0.4356
 8407TIP3   OH246635   5.235   6.195  12.847  0.0218  0.1841 -0.1421
 8407TIP3    H146636   5.243   6.114  12.797  1.8655  0.5623 -0.5132
 8407TIP3    H246637   5.195   6.168  12.929  1.4575 -1.2998  0.1279
 8408TIP3   OH246638   2.916   1.065  11.654 -0.9024  0.6280 -0.5891
 8408TIP3    H146639   2.947   0.975  11.647  1.4301  1.4541 -2.2818
 8408TIP3    H246640   2.986   1.110  11.701 -2.2663  1.5001  0.6955
 8409TIP3   OH246641   3.336   1.316   6.031  0.0489 -0.2037  0.1490
 8409TIP3    H146642   3.417   1.356   6.063  1.0566 -0.2117 -2.1859
 8409TIP3    H246643   3.283   1.303   6.110  2.5690 -0.8199  1.8847
 8410TIP3   OH246644   5.868   4.857  13.011 -0.0523  0.4174 -0.3408
 8410TIP3    H146645   5.787   4.831  13.055 -0.8262  0.5442 -1.6457
 8410TIP3    H246646   5.925   4.889  13.082 -0.8602 -0.3450  0.6799
 8411TIP3   OH246647   2.113   0.252  16.562  0.0236  0.0581 -0.4692
 8411TIP3    H146648   2.068   0.293  16.489  0.8216 -0.7267 -1.4397
 8411TIP3    H246649   2.150   0.171  16.525  2.5483  0.8383  0.1494
 8412TIP3   OH246650   2.610   0.956   3.777 -0.2375  1.2107 -0.0291
 8412TIP3    H146651   2.681   1.017   3.796 -0.2890  1.0196  0.7948
 8412TIP3    H246652   2.548   1.007   3.724 -0.3229  1.9003  0.7195
 8413TIP3   OH246653   2.529   3.883   3.412 -0.3540  0.4803  0.5066
 8413TIP3    H146654   2.484   3.851   3.334 -0.2160  2.5016 -0.4651
 8413TIP3    H246655   2.622   3.871   3.392 -0.2736  1.9491 -0.1307
 8414TIP3   OH246656   2.881   3.852  14.586  0.0487  0.8829  0.4448
 8414TIP3    H146657   2.805   3.908  14.605  1.0008  1.7931  1.8261
 8414TIP3    H246658   2.863   3.770  14.632 -1.5254 -0.1879 -1.8920
 8415TIP3   OH246659   1.555   3.558   2.668  0.0268  0.2146  0.1180
 8415TIP3    H146660   1.463   3.563   2.644 -0.9019 -1.1702  2.9704
 8415TIP3    H246661   1.599   3.619   2.608 -2.6688  0.7490 -1.4637
 8416TIP3   OH246662   6.544   0.292   9.075 -0.0673 -0.2337  0.2856
 8416TIP3    H146663   6.569   0.357   9.010  1.6573 -0.3332  0.8212
 8416TIP3    H246664   6.602   0.218   9.059 -0.6010 -0.8266  1.0170
 8417TIP3   OH246665   0.261   1.696   6.318  0.3826  0.1433 -0.1793
 8417TIP3    H146666   0.225   1.751   6.389 -0.2748 -1.6540  0.9473
 8417TIP3    H246667   0.184   1.656   6.279  0.9308 -1.0544 -0.0510
 8418TIP3   OH246668   4.578   6.169  10.492  0.3444 -0.1345  0.5075
 8418TIP3    H146669   4.642   6.100  10.510 -2.3316 -2.8020  0.5177
 8418TIP3    H246670   4.529   6.178  10.573 -0.4250  0.5563 -0.0221
 8419TIP3   OH246671   4.358   5.400   0.346 -0.0477  0.4540  0.5729
 8419TIP3    H146672   4.273   5.358   0.362 -0.2003  0.4646 -0.1681
 8419TIP3    H246673   4.339   5.471   0.285  0.9371 -1.6459 -2.4403
 8420TIP3   OH246674   1.217   0.352   0.800  0.3517 -0.5976  0.2010
 8420TIP3    H146675   1.191   0.269   0.839  1.2306 -0.8528  0.2550
 8420TIP3    H246676   1.219   0.334   0.706  1.8755 -1.0380  0.2962
 8421TIP3   OH246677   0.314   5.281   4.939 -0.0258 -0.0627  0.4236
 8421TIP3    H146678   0.390   5.244   4.984 -0.6784 -2.3207 -0.2141
 8421TIP3    H246679   0.351   5.349   4.882  1.2507  0.1861  1.5015
 8422TIP3   OH246680   3.091   1.701   2.119  0.0065  0.4660 -0.2104
 8422TIP3    H146681   3.123   1.748   2.042 -0.2703  1.0364  0.0174
 8422TIP3    H246682   3.162   1.641   2.142 -0.2245 -0.3003 -1.3944
 8423TIP3   OH246683   2.576   4.443  15.373 -0.4183 -0.5033 -0.7163
 8423TIP3    H146684   2.561   4.537  15.378  1.1589 -0.2781  0.6423
 8423TIP3    H246685   2.671   4.434  15.364 -0.5327 -1.9726 -0.7719
 8424TIP3   OH246686   6.153   4.889  12.090  0.0642 -0.2231  0.3403
 8424TIP3    H146687   6.187   4.977  12.109  0.8159 -0.5993  0.7588
 8424TIP3    H246688   6.160   4.881  11.995 -0.5749  0.3939  0.2324
 8425TIP3   OH246689   2.820   1.919  12.362  0.5509  0.0993 -0.1482
 8425TIP3    H146690   2.904   1.929  12.317 -0.3142  3.3967 -1.3422
 8425TIP3    H246691   2.761   1.883  12.295  0.6073 -0.7197  0.2248
 8426TIP3   OH246692   2.429   3.224  12.954 -0.1137  0.4454 -0.1559
 8426TIP3    H146693   2.449   3.140  12.996  0.3838  0.0244 -1.1999
 8426TIP3    H246694   2.346   3.251  12.993 -1.1743 -1.3716 -1.0151
 8427TIP3   OH246695   6.726   4.815  16.172 -0.1823 -0.5807 -0.4784
 8427TIP3    H146696   6.703   4.857  16.255 -0.4798 -2.7527  0.6127
 8427TIP3    H246697   6.742   4.888  16.112 -2.5036  1.0883  0.7526
 8428TIP3   OH246698   2.993   2.394  16.270 -0.5179 -0.0683  0.3670
 8428TIP3    H146699   2.915   2.357  16.229 -0.3503  0.0037 -0.0191
 8428TIP3    H246700   3.014   2.470  16.217  0.1098 -0.3753  0.1741
 8429TIP3   OH246701   3.572   1.710  13.662  0.3978  0.0040 -0.2795
 8429TIP3    H146702   3.539   1.646  13.725  1.9713 -1.5110 -0.9192
 8429TIP3    H246703   3.661   1.729  13.692  0.1309  1.5311 -0.3996
 8430TIP3   OH246704   0.706   0.339   4.458  0.2236 -0.0542 -0.4789
 8430TIP3    H146705   0.752   0.363   4.538  0.7296  1.0659 -1.0883
 8430TIP3    H246706   0.775   0.328   4.392 -0.2547 -0.0638 -0.9864
 8431TIP3   OH246707   2.251   4.256   4.503  0.4017 -0.7811 -0.1950
 8431TIP3    H146708   2.279   4.305   4.581 -2.0628 -0.9657  0.8976
 8431TIP3    H246709   2.276   4.166   4.522  0.1721 -0.7605  0.2431
 8432TIP3   OH246710   0.502   0.162   5.103 -0.4759 -0.3257  0.3586
 8432TIP3    H146711   0.497   0.191   5.012 -1.5241  2.1011  1.1022
 8432TIP3    H246712   0.419   0.190   5.142  0.5690  0.1162  2.4197
 8433TIP3   OH246713   2.710   1.388   5.506 -0.9431 -0.6428 -0.0040
 8433TIP3    H146714   2.792   1.339   5.506 -1.3643 -1.3722  0.2442
 8433TIP3    H246715   2.660   1.352   5.580 -1.9855 -1.0933 -0.8946
 8434TIP3   OH246716   1.846   3.799   3.981  0.2182  0.4976 -0.2370
 8434TIP3    H146717   1.927   3.846   3.959 -0.7561  2.2485 -0.2961
 8434TIP3    H246718   1.777   3.853   3.943 -1.0506 -0.2835  0.9010
 8435TIP3   OH246719   0.749   1.050  12.949  0.4727  0.4284  0.1754
 8435TIP3    H146720   0.764   0.975  12.892  1.8773  0.1997  0.8135
 8435TIP3    H246721   0.660   1.037  12.982 -0.3413  0.5261 -1.8584
 8436TIP3   OH246722   3.803   2.004   4.730 -0.2649  0.1899 -0.0485
 8436TIP3    H146723   3.723   1.953   4.718  0.0421 -0.6749  1.3482
 8436TIP3    H246724   3.856   1.951   4.790  1.2295  0.8868 -0.7114
 8437TIP3   OH246725   4.207   5.369  14.608  0.5859 -0.6879 -0.0015
 8437TIP3    H146726   4.158   5.440  14.567 -2.7873 -1.3677  2.3949
 8437TIP3    H246727   4.215   5.395  14.700  0.4021 -2.7952  0.6674
 8438TIP3   OH246728   2.618   1.138   1.143  0.0241  0.4624 -0.3237
 8438TIP3    H146729   2.699   1.091   1.120 -0.1388  0.3468 -0.6692
 8438TIP3    H246730   2.560   1.070   1.178  0.0688  0.5420 -0.0942
 8439TIP3   OH246731   6.257   2.511  13.417 -0.0269 -0.3566 -0.6105
 8439TIP3    H146732   6.172   2.468  13.426 -0.1588 -0.3384 -1.6371
 8439TIP3    H246733   6.293   2.475  13.336  1.0795 -0.5781 -0.0384
 8440TIP3   OH246734   0.158   2.070   2.352 -0.1658 -0.6344 -0.3473
 8440TIP3    H146735   0.160   2.129   2.277 -0.2478 -0.0504  0.1104
 8440TIP3    H246736   0.073   2.085   2.393 -0.7313 -1.9801 -0.9458
 8441TIP3   OH246737   0.785   4.812   3.478 -0.5448 -0.6028 -0.0930
 8441TIP3    H146738   0.764   4.803   3.571  1.0764  2.9833  0.8139
 8441TIP3    H246739   0.879   4.799   3.473 -0.3664  0.7813 -0.8983
 8442TIP3   OH246740   0.794   6.405   4.347 -0.2029  0.2521  0.3381
 8442TIP3    H146741   0.829   6.427   4.434 -0.0293 -0.4938  0.4628
 8442TIP3    H246742   0.853   6.449   4.286  0.0499  0.2589  0.5839
 8443TIP3   OH246743   4.550   1.117  16.385  0.1832  0.2321 -0.0383
 8443TIP3    H146744   4.526   1.027  16.404 -1.7569  0.6279 -0.4790
 8443TIP3    H246745   4.625   1.110  16.326  0.3409 -1.0732  0.2954
 8444TIP3   OH246746   6.428   2.656   2.873  0.1748  0.0829 -0.2823
 8444TIP3    H146747   6.411   2.566   2.900 -1.3890  0.1392 -0.9807
 8444TIP3    H246748   6.397   2.709   2.947 -1.0228  0.1090 -0.7786
 8445TIP3   OH246749   0.834   4.104   6.568 -0.5364  0.0437  0.6932
 8445TIP3    H146750   0.854   4.026   6.620  2.1236 -0.6162 -1.1006
 8445TIP3    H246751   0.741   4.097   6.550 -0.2728 -3.2650 -0.1196
 8446TIP3   OH246752   0.290   5.378  10.944  0.2944 -0.8894  0.1528
 8446TIP3    H146753   0.355   5.448  10.936 -1.7812  1.2731  1.2875
 8446TIP3    H246754   0.226   5.397  10.875 -0.4449 -1.5147  0.6592
 8447TIP3   OH246755   3.030   4.242   2.199  0.0881 -0.3047  0.4444
 8447TIP3    H146756   2.972   4.166   2.207 -0.7853 -0.0008 -2.2648
 8447TIP3    H246757   2.980   4.314   2.236 -0.8439 -0.2695 -0.8209
 8448TIP3   OH246758   3.980   4.876   3.549 -0.4379 -0.0176 -0.2415
 8448TIP3    H146759   3.940   4.839   3.628 -1.0047  0.4453 -0.3090
 8448TIP3    H246760   3.999   4.967   3.571  1.8093 -0.5233  0.2422
 8449TIP3   OH246761   6.379   2.453   5.984  0.1726  0.3690  0.2340
 8449TIP3    H146762   6.302   2.508   5.966 -0.5233 -0.5160  0.3943
 8449TIP3    H246763   6.358   2.369   5.944  1.6841  0.5159 -0.9370
 8450TIP3   OH246764   4.441   2.167  16.880 -0.2022  0.3096 -0.0869
 8450TIP3    H146765   4.522   2.207  16.847  1.7526 -1.0514  2.6441
 8450TIP3    H246766   4.425   2.211  16.964 -1.3070 -0.6203  0.2166
 8451TIP3   OH246767   2.970   4.284  16.309  0.2017  0.2708 -0.0657
 8451TIP3    H146768   2.976   4.376  16.335 -0.3559  0.4941 -0.7145
 8451TIP3    H246769   3.022   4.237  16.375  0.1479  1.0028  0.5090
 8452TIP3   OH246770   0.076   5.401  10.768  0.1220 -0.2841 -0.3852
 8452TIP3    H146771   0.026   5.398  10.850 -0.4050  1.6432 -0.5770
 8452TIP3    H246772   0.027   5.346  10.707 -0.7780  0.1291 -0.0510
 8453TIP3   OH246773   2.036   6.527  10.764 -0.0104 -0.5009 -0.0477
 8453TIP3    H146774   2.127   6.535  10.792  0.4590 -3.5377 -0.3714
 8453TIP3    H246775   1.991   6.493  10.841  0.2330 -3.7996 -1.1942
 8454TIP3   OH246776   2.735   4.112  12.824 -0.3909  0.1310 -0.3466
 8454TIP3    H146777   2.639   4.115  12.833 -0.4002 -0.9982  0.1096
 8454TIP3    H246778   2.767   4.122  12.914 -0.1015 -0.1687 -0.4163
 8455TIP3   OH246779   4.509   3.507  10.915 -0.5825  0.7319 -0.1481
 8455TIP3    H146780   4.457   3.527  10.993  2.3531  1.2858  1.8119
 8455TIP3    H246781   4.532   3.592  10.878 -0.8719  0.4953 -0.9089
 8456TIP3   OH246782   3.532   6.381  14.320  0.7557  0.3505  0.2788
 8456TIP3    H146783   3.583   6.324  14.377 -0.4127 -1.8830 -0.7754
 8456TIP3    H246784   3.547   6.347  14.232 -0.0761  1.6293 -0.3942
 8457TIP3   OH246785   0.266   5.753  11.684 -1.3370  0.1649 -0.3733
 8457TIP3    H146786   0.288   5.660  11.681  0.1457  0.5160 -1.1583
 8457TIP3    H246787   0.298   5.783  11.770 -0.1634  0.3284 -0.8590
 8458TIP3   OH246788   4.503   5.138   4.601 -0.4009 -0.1671 -0.6728
 8458TIP3    H146789   4.537   5.051   4.625 -1.7691 -0.0604  1.9143
 8458TIP3    H246790   4.423   5.119   4.552 -0.5075 -0.3824 -0.4217
 8459TIP3   OH246791   1.320   3.539   5.821  0.0699 -0.0695 -0.4193
 8459TIP3    H146792   1.337   3.595   5.897  0.4523  0.6734 -1.0390
 8459TIP3    H246793   1.287   3.457   5.858 -1.8693  1.0303  0.4650
 8460TIP3   OH246794   2.905   3.122   3.651  0.3405  0.1516 -0.1603
 8460TIP3    H146795   2.862   3.146   3.569  1.3945 -1.7496 -1.3346
 8460TIP3    H246796   2.976   3.186   3.660  0.9017 -0.2708 -1.3496
 8461TIP3   OH246797   6.091   0.553  11.257  0.2327  0.7959 -0.0578
 8461TIP3    H146798   6.164   0.528  11.314  0.5953 -1.3229 -1.3455
 8461TIP3    H246799   6.130   0.617  11.197  0.7395  0.5491 -0.0036
 8462TIP3   OH246800   5.437   3.550   0.692 -0.0638  0.1913  0.6899
 8462TIP3    H146801   5.496   3.590   0.755  0.7011 -0.0969  0.1692
 8462TIP3    H246802   5.444   3.606   0.614 -1.6693  1.0601  1.1317
 8463TIP3   OH246803   6.507   1.880  16.422 -0.0698 -0.3926  0.1486
 8463TIP3    H146804   6.476   1.851  16.509  0.0613 -2.8048 -0.5251
 8463TIP3    H246805   6.591   1.923  16.440 -0.5756  0.1484  1.3235
 8464TIP3   OH246806   2.566   6.046   1.274 -0.0825  0.1680 -0.1015
 8464TIP3    H146807   2.639   6.048   1.212 -1.8806 -0.2172 -2.3692
 8464TIP3    H246808   2.607   6.058   1.360  2.3441  2.5796 -1.4603
 8465TIP3   OH246809   3.671   5.672  11.483 -0.1259 -0.2920 -0.2214
 8465TIP3    H146810   3.711   5.696  11.400 -0.5058  0.9570 -0.0564
 8465TIP3    H246811   3.577   5.674  11.467 -0.1869 -1.9059 -0.2484
 8466TIP3   OH246812   0.047   2.259  16.127 -0.1078 -0.7431  0.4062
 8466TIP3    H146813   0.114   2.198  16.097  1.4842  1.1312 -0.0370
 8466TIP3    H246814   0.011   2.297  16.047  1.2121  1.2151  0.6840
 8467TIP3   OH246815   6.394   3.917  11.739  0.0926 -1.0383  0.5538
 8467TIP3    H146816   6.365   3.891  11.826  1.2851  1.2029  1.7058
 8467TIP3    H246817   6.479   3.957  11.753  0.4139 -0.7943 -1.7044
 8468TIP3   OH246818   2.502   2.481   4.688  0.1946 -0.0306 -0.3356
 8468TIP3    H146819   2.584   2.464   4.642 -0.7053 -2.2767 -1.2543
 8468TIP3    H246820   2.525   2.472   4.781  1.1213 -0.0036 -0.5488
 8469TIP3   OH246821   5.809   2.429   4.621 -0.2736  0.1872 -0.2755
 8469TIP3    H146822   5.895   2.389   4.630  0.7691  2.3205 -0.1022
 8469TIP3    H246823   5.826   2.511   4.573 -2.7038 -0.9775 -3.5028
 8470TIP3   OH246824   6.496   3.325  12.539 -0.2783  0.0004  0.3537
 8470TIP3    H146825   6.529   3.290  12.622  0.9769  1.3676  0.4800
 8470TIP3    H246826   6.412   3.365  12.561  0.6020  1.4304  1.2605
 8471TIP3   OH246827   4.184   3.236  15.689  0.2171  0.1729 -0.0355
 8471TIP3    H146828   4.233   3.159  15.659 -0.4082  0.5487 -2.1583
 8471TIP3    H246829   4.102   3.233  15.640 -0.3837  1.4945  0.8371
 8472TIP3   OH246830   3.337   1.299  15.452  0.0171 -0.0256  0.7783
 8472TIP3    H146831   3.327   1.277  15.359 -1.7754 -0.7581  1.0957
 8472TIP3    H246832   3.431   1.295  15.468  0.2324 -1.5496 -0.6232
 8473TIP3   OH246833   4.051   2.826   4.533 -0.4544 -0.4210 -0.1439
 8473TIP3    H146834   4.069   2.916   4.507  0.0714  0.0818  1.7919
 8473TIP3    H246835   4.130   2.798   4.580 -1.0554 -1.4927  0.2624
 8474TIP3   OH246836   4.122   1.547   0.777 -0.0801 -0.0895 -0.4055
 8474TIP3    H146837   4.103   1.640   0.768  0.4161  0.4383  2.8660
 8474TIP3    H246838   4.193   1.531   0.715 -0.9448  1.3906 -1.8627
 8475TIP3   OH246839   2.186   6.589  14.521  0.7361  0.2811  0.0532
 8475TIP3    H146840   2.114   6.620  14.466  0.6297 -0.4193 -0.2123
 8475TIP3    H246841   2.248   6.549  14.459  0.7725 -0.2105  0.4020
 8476TIP3   OH246842   1.123   6.357   0.823 -0.0182 -0.1467 -0.2813
 8476TIP3    H146843   1.108   6.307   0.743  0.4447  1.0119 -1.1131
 8476TIP3    H246844   1.148   6.291   0.888 -0.7912 -1.1475 -0.9694
 8477TIP3   OH246845   6.560   0.643   5.303 -0.3012 -0.2753  0.6106
 8477TIP3    H146846   6.557   0.737   5.290 -3.4670 -0.2580  0.7452
 8477TIP3    H246847   6.585   0.608   5.217  0.9820  0.6411  0.5844
 8478TIP3   OH246848   4.202   2.403   1.579  0.0096 -0.3079  0.4022
 8478TIP3    H146849   4.172   2.347   1.651  0.9773 -0.1336  0.9602
 8478TIP3    H246850   4.150   2.375   1.503 -0.5588 -0.9446  1.0104
 8479TIP3   OH246851   0.008   1.237   2.677  0.0513 -0.3735 -0.4640
 8479TIP3    H146852   0.030   1.195   2.594 -2.0043 -1.7024 -0.4328
 8479TIP3    H246853  -0.034   1.167   2.728 -2.6098  1.3856 -0.0153
 8480TIP3   OH246854   6.560   4.482   1.493  0.3439  0.2792 -0.5809
 8480TIP3    H146855   6.641   4.469   1.542 -0.0978  1.6104  0.5728
 8480TIP3    H246856   6.586   4.530   1.414  0.8337 -0.3961 -0.8345
 8481TIP3   OH246857   0.736   5.590   1.523 -0.7518  0.3763  0.0814
 8481TIP3    H146858   0.769   5.505   1.550 -0.3111  0.4484 -0.2185
 8481TIP3    H246859   0.764   5.650   1.593 -1.9704  0.1041  0.8221
 8482TIP3   OH246860   5.020   4.599  16.333 -0.2869 -0.3254 -0.5146
 8482TIP3    H146861   4.936   4.553  16.339 -0.4769  0.0913  0.1704
 8482TIP3    H246862   5.069   4.569  16.409  0.6621 -1.4780 -1.5589
 8483TIP3   OH246863   4.670   3.133  14.245  0.5228  0.1789  0.2177
 8483TIP3    H146864   4.662   3.045  14.283 -0.6441  0.2870  0.2300
 8483TIP3    H246865   4.758   3.134  14.206  0.1848 -1.3397 -0.6507
 8484TIP3   OH246866   2.261   1.761   1.964  0.6938 -0.1387 -0.0758
 8484TIP3    H146867   2.268   1.829   1.898  0.1029 -0.4087 -0.4217
 8484TIP3    H246868   2.265   1.809   2.048  1.3254  0.2102 -0.2937
 8485TIP3   OH246869   0.311   2.529   4.238  0.4914 -0.0762 -0.0549
 8485TIP3    H146870   0.251   2.514   4.311 -1.0053  2.6215 -0.5930
 8485TIP3    H246871   0.393   2.489   4.266 -0.8938 -1.8857  1.7160
 8486TIP3   OH246872   0.640   5.056   6.120  0.3246 -0.3308  0.4845
 8486TIP3    H146873   0.699   5.010   6.060  1.0227  1.5577 -0.3539
 8486TIP3    H246874   0.688   5.061   6.202  0.6877 -0.1447  0.2608
 8487TIP3   OH246875   1.967   3.482  16.113 -0.2479  0.0241  0.3031
 8487TIP3    H146876   1.994   3.490  16.021 -1.3666  0.3927 -0.0070
 8487TIP3    H246877   1.912   3.558  16.129 -0.6048 -0.3841  1.0871
 8488TIP3   OH246878   4.826   2.487  13.112 -0.3663 -0.1792  0.6625
 8488TIP3    H146879   4.806   2.510  13.021  0.2845 -2.0615 -0.0031
 8488TIP3    H246880   4.770   2.411  13.130 -1.3109  0.8257  2.2402
 8489TIP3   OH246881   5.355   6.637  15.150 -0.0651 -0.2324  0.1096
 8489TIP3    H146882   5.297   6.705  15.183  0.7805  1.2022 -1.1928
 8489TIP3    H246883   5.431   6.640  15.208 -1.3335 -2.3278  2.0091
 8490TIP3   OH246884   2.834   6.699   5.475 -0.3650  0.1046 -0.3674
 8490TIP3    H146885   2.860   6.790   5.459  1.4037 -0.4630 -0.9483
 8490TIP3    H246886   2.911   6.648   5.450 -1.5385 -1.5979 -0.6340
 8491TIP3   OH246887   3.428   2.150   5.134 -0.1453  0.1370 -0.0712
 8491TIP3    H146888   3.487   2.154   5.209  0.5060 -0.7749 -0.5174
 8491TIP3    H246889   3.405   2.058   5.126 -3.2319  0.6946  1.2597
 8492TIP3   OH246890   2.072   3.262   5.788  0.0787 -0.2005 -0.4533
 8492TIP3    H146891   2.150   3.207   5.788  0.1039 -0.2636  1.7308
 8492TIP3    H246892   2.026   3.238   5.708  1.9696 -0.6076 -1.4760
 8493TIP3   OH246893   0.313   4.076   6.850  0.1525  0.5693 -0.1700
 8493TIP3    H146894   0.334   4.154   6.901  0.0328 -0.4188  1.4801
 8493TIP3    H246895   0.248   4.029   6.904  0.5815 -0.8928 -0.8724
 8494TIP3   OH246896   4.980   5.326   5.849  0.3655  0.0474  0.3075
 8494TIP3    H146897   4.954   5.263   5.781  1.4648  0.2905 -0.3686
 8494TIP3    H246898   4.899   5.372   5.871  0.1211  0.6014 -1.5199
 8495TIP3   OH246899   0.114   1.052  15.134 -0.0464 -0.0391 -0.1294
 8495TIP3    H146900   0.074   1.048  15.047 -0.5485  0.7553  0.0465
 8495TIP3    H246901   0.187   0.991  15.131 -0.4045 -0.4370 -0.9301
 8496TIP3   OH246902   1.666   1.816  12.522 -0.3526  0.4445 -0.1779
 8496TIP3    H146903   1.603   1.859  12.464 -0.0131  1.3015  0.0730
 8496TIP3    H246904   1.635   1.726  12.529 -0.7307  0.4876 -1.2129
 8497TIP3   OH246905   5.441   5.917   2.284  0.9735 -0.3362  0.3547
 8497TIP3    H146906   5.472   5.885   2.369  0.9890 -0.4192  0.3175
 8497TIP3    H246907   5.463   5.848   2.222  1.3931 -0.0700  0.2010
 8498TIP3   OH246908   5.840   5.096  16.730 -0.1857  0.0813 -0.2581
 8498TIP3    H146909   5.887   5.066  16.807  0.7346 -0.7124 -1.0931
 8498TIP3    H246910   5.908   5.132  16.673 -1.0945  2.6506  0.1508
 8499TIP3   OH246911   3.149   4.619  12.387  0.6168 -0.3187 -0.0767
 8499TIP3    H146912   3.137   4.581  12.300  2.2593  0.5295 -0.7137
 8499TIP3    H246913   3.069   4.670  12.403  0.9437  0.7925 -1.7781
 8500TIP3   OH246914   5.558   0.007   5.111  0.0171  0.5585 -0.3435
 8500TIP3    H146915   5.512  -0.044   5.044  0.4708  0.8053 -0.8570
 8500TIP3    H246916   5.642  -0.036   5.121  0.2660  0.9935 -0.5236
 8501TIP3   OH246917   0.151   1.349  12.068 -0.5133 -0.2538 -0.1469
 8501TIP3    H146918   0.157   1.389  11.981  1.0071 -0.7481 -0.2908
 8501TIP3    H246919   0.135   1.256  12.051  2.6664 -0.9268 -0.0575
 8502TIP3   OH246920   1.132   4.724   2.603  0.4248 -0.6162 -0.6543
 8502TIP3    H146921   1.057   4.665   2.605 -0.0707 -0.0947 -2.3794
 8502TIP3    H246922   1.206   4.669   2.632 -0.6810 -0.9177  1.8479
 8503TIP3   OH246923   0.284   3.491  11.355 -0.4136  0.2500 -0.2013
 8503TIP3    H146924   0.328   3.561  11.306 -0.8814  0.1754 -0.7275
 8503TIP3    H246925   0.295   3.413  11.301 -1.0165  0.1866 -0.2349
 8504TIP3   OH246926   5.351   0.555  14.808  0.0759 -0.3374 -0.0687
 8504TIP3    H146927   5.439   0.563  14.845  0.5623 -0.8707 -1.0788
 8504TIP3    H246928   5.321   0.646  14.799  0.9530 -0.0927 -0.7019
 8505TIP3   OH246929   1.046   3.801  11.173  0.6131 -0.1372 -0.5753
 8505TIP3    H146930   1.124   3.851  11.147 -0.5353  3.3845  1.9901
 8505TIP3    H246931   0.975   3.838  11.121  0.1302 -1.1513 -0.6605
 8506TIP3   OH246932   6.669   2.529  16.222  0.1178  0.1311  0.3384
 8506TIP3    H146933   6.702   2.552  16.308  1.1130  0.3923 -0.0936
 8506TIP3    H246934   6.736   2.471  16.185 -0.5021 -0.3326 -0.0928
 8507TIP3   OH246935   1.537   4.420  15.677 -0.0238 -0.5277 -0.0638
 8507TIP3    H146936   1.478   4.345  15.683 -0.0065 -0.7289 -1.9556
 8507TIP3    H246937   1.492   4.482  15.619  0.0868  0.8255  1.2352
 8508TIP3   OH246938   2.072   1.812  13.242 -0.4066  0.3710  0.1094
 8508TIP3    H146939   2.047   1.819  13.150 -1.5281  0.1440  0.3787
 8508TIP3    H246940   1.993   1.778  13.286  0.3346 -0.2151  1.0363
 8509TIP3   OH246941   6.352   4.503   2.967  0.2097  0.0095 -0.0538
 8509TIP3    H146942   6.381   4.560   2.896 -2.1078 -0.0797 -1.1752
 8509TIP3    H246943   6.411   4.428   2.964  1.9888  1.3396  0.0813
 8510TIP3   OH246944   6.180   3.561  13.100 -0.2997 -0.0366 -0.4018
 8510TIP3    H146945   6.191   3.607  13.183  2.1706 -0.6384 -0.3133
 8510TIP3    H246946   6.193   3.469  13.122 -1.4677 -0.4081 -1.1843
 8511TIP3   OH246947   2.255   1.384   1.395 -0.5329  0.3633  0.6695
 8511TIP3    H146948   2.276   1.467   1.352 -2.1780 -0.0682 -1.1022
 8511TIP3    H246949   2.317   1.378   1.468  2.0548  1.4163 -1.2959
 8512TIP3   OH246950   4.094   5.552   2.979 -0.1410  0.3537  0.4007
 8512TIP3    H146951   4.076   5.643   2.957 -0.9758 -0.1073 -0.9954
 8512TIP3    H246952   4.109   5.552   3.073  0.3431  1.9928  0.3502
 8513TIP3   OH246953   1.762   3.254   4.861  0.0227  0.2796 -0.7821
 8513TIP3    H146954   1.758   3.202   4.941 -0.1479 -1.2310 -1.7344
 8513TIP3    H246955   1.833   3.316   4.875  0.6732 -0.6515  0.1405
 8514TIP3   OH246956   6.612   3.407   0.063 -0.3430  0.4717 -0.1345
 8514TIP3    H146957   6.602   3.315   0.088 -1.8678  1.0124  1.4747
 8514TIP3    H246958   6.701   3.430   0.092 -0.5509 -0.0744  0.9823
 8515TIP3   OH246959   0.503   4.593   3.176 -0.1379  0.4876 -0.0877
 8515TIP3    H146960   0.516   4.512   3.226 -0.3771  0.1868 -0.5128
 8515TIP3    H246961   0.409   4.597   3.161 -0.2178  1.2205  0.5585
 8516TIP3   OH246962   2.491   2.985  14.118  0.0987 -0.8938  0.3827
 8516TIP3    H146963   2.490   2.954  14.027  1.6129 -0.6500  0.2460
 8516TIP3    H246964   2.404   3.022  14.132  0.3598  0.6018 -1.5297
 8517TIP3   OH246965   1.198   0.791  16.935 -0.0996 -0.2224 -0.0116
 8517TIP3    H146966   1.286   0.763  16.911 -0.5984 -1.8336 -0.1213
 8517TIP3    H246967   1.167   0.723  16.995 -1.2786  0.2862 -0.0183
 8518TIP3   OH246968   4.012   4.352   4.867  0.3786 -0.1903  0.2954
 8518TIP3    H146969   4.094   4.302   4.872  0.4906 -0.0342  0.0354
 8518TIP3    H246970   3.944   4.285   4.866  0.4871 -0.3078  0.8701
 8519TIP3   OH246971   3.275   6.724  11.478  0.1391  0.7940 -0.8462
 8519TIP3    H146972   3.254   6.734  11.571 -1.0573  1.7835 -1.1931
 8519TIP3    H246973   3.363   6.685  11.477  0.4381  1.3572  0.6965
 8520TIP3   OH246974   0.483   2.552  16.986  0.0714  0.3316 -0.4202
 8520TIP3    H146975   0.410   2.608  17.014  0.8461  0.7398  0.8569
 8520TIP3    H246976   0.454   2.463  17.005  0.2584  0.5499  0.9920
 8521TIP3   OH246977   4.884   2.758  15.491  0.2086 -0.4482 -0.0788
 8521TIP3    H146978   4.840   2.796  15.414 -0.7245 -2.6722 -0.7384
 8521TIP3    H246979   4.819   2.764  15.561 -0.4526 -1.9005 -0.5255
 8522TIP3   OH246980   1.150   3.862   1.270  0.3343 -0.8108 -0.4279
 8522TIP3    H146981   1.188   3.939   1.312 -3.4231  1.3344 -0.5098
 8522TIP3    H246982   1.204   3.847   1.193  1.4185  1.5420 -0.2045
 8523TIP3   OH246983   4.579   2.537  17.280  0.2329  0.1162 -0.2200
 8523TIP3    H146984   4.490   2.545  17.313 -0.4674  0.4730 -2.0784
 8523TIP3    H246985   4.610   2.627  17.271  0.8159 -0.0065  0.4596
 8524TIP3   OH246986   5.044   5.632   6.147 -0.2587 -0.0191  0.1185
 8524TIP3    H146987   4.967   5.574   6.144 -0.9952  0.8454  1.1632
 8524TIP3    H246988   5.039   5.673   6.234  0.6972  0.9905 -0.2832
 8525TIP3   OH246989   2.261   4.107   5.334 -0.0746 -0.3845 -0.5326
 8525TIP3    H146990   2.349   4.141   5.322 -0.6910  1.0591 -1.2252
 8525TIP3    H246991   2.213   4.178   5.375 -1.0198 -1.0048 -0.5292
 8526TIP3   OH246992   2.607   4.134   3.473  0.0298  1.0205  0.0392
 8526TIP3    H146993   2.576   4.046   3.450 -0.5049  0.9670  0.9338
 8526TIP3    H246994   2.557   4.193   3.417  1.3446  0.7024 -1.5410
 8527TIP3   OH246995   0.992   5.276   2.519  0.0418  0.3785 -0.5156
 8527TIP3    H146996   1.012   5.280   2.613 -0.0261 -1.4003 -0.3756
 8527TIP3    H246997   0.955   5.361   2.498  0.8761  1.1148  0.8779
 8528TIP3   OH246998   1.708   4.577  14.432  0.4018  0.2370  0.2890
 8528TIP3    H146999   1.659   4.497  14.454  0.5941 -0.4088 -1.4744
 8528TIP3    H247000   1.660   4.647  14.476 -0.7550 -0.6572  0.4984
 8529TIP3   OH247001   2.487   4.268   1.962  0.2731  0.0644  0.8229
 8529TIP3    H147002   2.494   4.334   2.031  0.5954  1.4845 -0.5146
 8529TIP3    H247003   2.393   4.264   1.943  0.3392  0.8435  0.2775
 8530TIP3   OH247004   2.066   2.135   0.033 -0.0171 -0.5126 -0.3596
 8530TIP3    H147005   2.129   2.071   0.067  0.2682 -0.0458  0.0051
 8530TIP3    H247006   1.983   2.113   0.076  0.2603 -0.1540  0.3694
 8531TIP3   OH247007   6.598   4.458  13.671 -0.4662  0.2348 -0.0747
 8531TIP3    H147008   6.587   4.546  13.636  1.5596  0.4103 -0.3966
 8531TIP3    H247009   6.684   4.460  13.714  0.6361 -2.1150 -1.9311
 8532TIP3   OH247010   5.488   2.347   3.955 -0.0653  0.0371 -0.3321
 8532TIP3    H147011   5.566   2.307   3.994  0.3024 -0.9129 -1.9089
 8532TIP3    H247012   5.420   2.280   3.962 -0.4971  0.5234  0.2274
 8533TIP3   OH247013   1.767   0.230  14.726 -0.1878 -0.2143  0.0920
 8533TIP3    H147014   1.819   0.266  14.654 -1.2790 -1.4977 -1.4359
 8533TIP3    H247015   1.691   0.289  14.732 -0.8996 -0.9832 -0.9496
 8534TIP3   OH247016   0.305   3.375   3.372  0.4790  0.4501  0.2163
 8534TIP3    H147017   0.392   3.352   3.404  1.1670  1.2924 -0.9447
 8534TIP3    H247018   0.290   3.317   3.297  1.1338  1.9047 -1.1149
 8535TIP3   OH247019   6.500   2.360   1.511  0.5019  0.1232  0.2610
 8535TIP3    H147020   6.555   2.425   1.467  0.5361  0.2972  0.5541
 8535TIP3    H247021   6.538   2.353   1.599  0.1838  0.0857  0.3949
 8536TIP3   OH247022   2.820   5.908   4.796 -0.1972 -0.4668  0.5326
 8536TIP3    H147023   2.907   5.945   4.814 -0.0628  0.3080 -1.4486
 8536TIP3    H247024   2.762   5.984   4.795 -0.4142 -0.6265 -0.7876
 8537TIP3   OH247025   5.191   2.309  10.863 -0.4772  0.1279  0.1535
 8537TIP3    H147026   5.276   2.337  10.896 -0.5077  0.9753 -0.4361
 8537TIP3    H247027   5.158   2.385  10.815 -1.0398 -0.6021 -0.6461
 8538TIP3   OH247028   5.013   0.904   5.599  0.2981  0.2486 -0.0444
 8538TIP3    H147029   4.938   0.953   5.632  1.3016  0.9648  1.2602
 8538TIP3    H247030   5.071   0.972   5.564  0.9803 -0.1630  0.2829
 8539TIP3   OH247031   4.348   3.158  14.025  0.2792  0.3706 -0.1447
 8539TIP3    H147032   4.260   3.192  14.010 -0.1675 -0.5659  0.2669
 8539TIP3    H247033   4.378   3.204  14.103  0.8012  1.8523 -1.1645
 8540TIP3   OH247034   2.430   4.505   0.538 -0.3898  0.2314 -0.3900
 8540TIP3    H147035   2.473   4.590   0.527  0.2825 -0.1739 -0.9442
 8540TIP3    H247036   2.426   4.493   0.633 -2.7961  2.0185 -0.1737
 8541TIP3   OH247037   2.861   0.229   2.084 -0.2675 -0.2370  0.1302
 8541TIP3    H147038   2.950   0.197   2.071 -0.9564 -1.6960 -1.2004
 8541TIP3    H247039   2.838   0.272   2.002  0.4082  3.4263  1.6343
 8542TIP3   OH247040   2.261   6.652   4.979  0.0233  0.5516 -0.2465
 8542TIP3    H147041   2.271   6.673   4.886 -1.7625 -1.6282 -1.0353
 8542TIP3    H247042   2.168   6.631   4.989  0.2895  0.1148  1.9080
 8543TIP3   OH247043   0.444   2.589   2.861  0.7704  0.1181  0.4663
 8543TIP3    H147044   0.501   2.642   2.805 -0.0580 -0.4415 -0.9460
 8543TIP3    H247045   0.398   2.530   2.801 -1.2289  0.4745  1.5485
 8544TIP3   OH247046   1.665   3.702  11.955 -0.5361  0.0057  0.4557
 8544TIP3    H147047   1.713   3.761  11.897  0.7539  0.8081  2.2343
 8544TIP3    H247048   1.643   3.627  11.901  0.3512  0.8374 -1.1219
 8545TIP3   OH247049   3.277   2.087  13.386  0.0481 -0.1057  0.4647
 8545TIP3    H147050   3.217   2.119  13.318 -1.4806 -1.3042  1.1664
 8545TIP3    H247051   3.301   2.165  13.436 -1.3835  0.3628  0.4647
 8546TIP3   OH247052   2.000   0.959  16.908  0.1289 -0.1389  0.5010
 8546TIP3    H147053   1.962   1.047  16.910  1.4792  0.4721  0.0426
 8546TIP3    H247054   2.072   0.962  16.970  1.1632 -0.4535 -0.6537
 8547TIP3   OH247055   0.944   3.492   4.549 -0.3461  0.4874  0.5702
 8547TIP3    H147056   0.993   3.412   4.566  0.6734  0.6119 -1.4891
 8547TIP3    H247057   0.852   3.464   4.547  0.0991 -1.0958 -2.1297
 8548TIP3   OH247058   2.304   2.924   3.898 -0.0461 -0.6685  0.3498
 8548TIP3    H147059   2.318   2.878   3.980 -1.2956 -0.5711  0.6473
 8548TIP3    H247060   2.263   3.007   3.924  2.5617  0.8809 -0.1300
 8549TIP3   OH247061   3.200   4.975   5.930 -0.9117 -0.2733 -0.3397
 8549TIP3    H147062   3.109   4.995   5.950 -1.4091 -0.3235 -2.3914
 8549TIP3    H247063   3.215   4.888   5.969 -1.2848  0.3364  1.2223
 8550TIP3   OH247064   1.322   3.447  12.433 -0.3482 -0.3156  0.1144
 8550TIP3    H147065   1.292   3.464  12.522 -2.4687  0.4079 -0.6788
 8550TIP3    H247066   1.297   3.357  12.416 -0.8191 -0.1523 -0.0682
 8551TIP3   OH247067   2.489   6.771   1.208 -0.3395 -0.1002  0.0698
 8551TIP3    H147068   2.447   6.791   1.291  1.5933  0.3243  1.0010
 8551TIP3    H247069   2.418   6.743   1.151 -1.7308 -0.2553  1.8101
 8552TIP3   OH247070   1.074   0.645  12.039  0.5857  1.0854  0.0085
 8552TIP3    H147071   1.045   0.737  12.036 -1.1435  0.5652 -0.4420
 8552TIP3    H247072   0.996   0.596  12.064  0.6655 -0.5628 -2.6006
 8553TIP3   OH247073   3.255   1.236  12.984 -0.5420 -0.0401 -0.2091
 8553TIP3    H147074   3.185   1.180  13.017 -0.4634  0.3562  0.6739
 8553TIP3    H247075   3.328   1.176  12.968 -0.1856 -0.1257  1.4979
 8554TIP3   OH247076   0.804   5.804   4.711  0.0235  0.2845 -0.0101
 8554TIP3    H147077   0.846   5.870   4.655  0.4707  0.9171  1.0382
 8554TIP3    H247078   0.736   5.765   4.656 -0.5545  1.9298 -0.5192
 8555TIP3   OH247079   0.278   2.331   3.541 -0.0116 -0.0430 -0.1487
 8555TIP3    H147080   0.228   2.402   3.582  0.3122 -0.4813  1.0436
 8555TIP3    H247081   0.351   2.316   3.601 -1.0944 -2.6388  0.6391
 8556TIP3   OH247082   0.292   6.544  16.682  0.1683  0.6294 -0.0604
 8556TIP3    H147083   0.341   6.491  16.744  0.8410 -0.5501 -1.5320
 8556TIP3    H247084   0.200   6.530  16.705  0.3751 -0.3833  0.2015
 8557TIP3   OH247085   1.786   2.965  14.090 -0.1279 -0.2214  0.2107
 8557TIP3    H147086   1.747   2.966  14.177 -0.4212  2.0895  0.1062
 8557TIP3    H247087   1.711   2.953  14.031 -0.0274 -0.9769  0.2312
 8558TIP3   OH247088   4.303   5.203   1.431  0.0003  0.0210  0.5390
 8558TIP3    H147089   4.325   5.287   1.473 -0.0597 -0.2442  1.1059
 8558TIP3    H247090   4.377   5.185   1.374  0.3281  0.1351  0.9202
 8559TIP3   OH247091   4.342   6.375  12.605  0.1040  0.1193  0.6641
 8559TIP3    H147092   4.349   6.283  12.630 -0.6798  0.2940  1.5567
 8559TIP3    H247093   4.432   6.403  12.591  0.5297 -0.1832  2.6211
 8560TIP3   OH247094   5.862   6.624   3.095  0.2594  0.3190 -0.6642
 8560TIP3    H147095   5.773   6.641   3.064 -0.4713 -2.2202 -0.1863
 8560TIP3    H247096   5.873   6.530   3.085  2.5324  0.4262  0.2923
 8561TIP3   OH247097   4.735   5.042   3.978 -0.7150 -0.6196 -0.4387
 8561TIP3    H147098   4.679   5.091   4.038  0.1860  0.3173 -0.3342
 8561TIP3    H247099   4.719   5.082   3.892 -0.4837 -0.5887 -0.4683
 8562TIP3   OH247100   5.179   4.212   3.792  0.4386  0.0763  0.1989
 8562TIP3    H147101   5.089   4.218   3.824 -0.3533  1.4212 -2.0551
 8562TIP3    H247102   5.221   4.151   3.851 -1.5151  0.6135  2.2934
 8563TIP3   OH247103   1.939   6.384   3.303 -0.1304  0.4729 -0.4825
 8563TIP3    H147104   1.854   6.341   3.311  0.9601 -2.0714 -1.5733
 8563TIP3    H247105   1.949   6.399   3.209  1.0536 -0.1811 -0.4719
 8564TIP3   OH247106   2.466   4.042   2.098  0.3296 -0.0840  0.5835
 8564TIP3    H147107   2.419   4.055   2.180  0.8468  3.2292  0.4938
 8564TIP3    H247108   2.480   4.131   2.064  1.5446 -1.2520 -2.2939
 8565TIP3   OH247109   2.425   0.161  11.561 -0.2399  0.3169  0.0539
 8565TIP3    H147110   2.353   0.216  11.592 -0.0231  0.1382  0.8999
 8565TIP3    H247111   2.460   0.121  11.640 -0.8664 -1.6455 -0.5830
 8566TIP3   OH247112   6.642   2.031   2.277 -0.2666  0.6286 -0.3262
 8566TIP3    H147113   6.641   2.073   2.363 -1.1058  1.2072 -0.6077
 8566TIP3    H247114   6.564   2.063   2.233 -0.7476 -0.9329 -0.7016
 8567TIP3   OH247115   2.378   3.193  15.682 -0.3877 -0.2674  0.2321
 8567TIP3    H147116   2.359   3.279  15.719 -2.3107 -0.7154  0.3479
 8567TIP3    H247117   2.336   3.131  15.742  1.6760 -1.3870  0.6256
 8568TIP3   OH247118   1.821   3.881   1.233 -0.1957  0.4270  0.2019
 8568TIP3    H147119   1.895   3.825   1.213 -0.4185 -0.2456  1.1844
 8568TIP3    H247120   1.793   3.853   1.320 -1.0884  1.2272  0.1855
 8569TIP3   OH247121   4.916   6.441   2.978 -0.1582  0.5109  0.7315
 8569TIP3    H147122   4.912   6.373   2.910 -0.1040  0.5957  0.6436
 8569TIP3    H247123   5.000   6.426   3.022  0.4736  1.3409 -0.1476
 8570TIP3   OH247124   0.991   1.639   4.236  0.0218  0.2295 -0.4059
 8570TIP3    H147125   1.005   1.658   4.328  0.0905 -0.2852 -0.3035
 8570TIP3    H247126   0.923   1.572   4.235  0.1057  0.1438 -0.7201
 8571TIP3   OH247127   3.603   2.395   1.272  0.1707 -0.7181 -0.2361
 8571TIP3    H147128   3.677   2.387   1.212  0.1878  0.6113 -0.4201
 8571TIP3    H247129   3.531   2.350   1.227  0.4684 -0.6935 -0.7432
 8572TIP3   OH247130   0.988   0.577  14.640 -0.0302 -0.2152 -0.4396
 8572TIP3    H147131   0.997   0.637  14.715 -0.0833  0.5894 -1.0603
 8572TIP3    H247132   0.909   0.526  14.660 -0.1716  0.1457 -0.0505
 8573TIP3   OH247133   4.400   4.198   6.661 -0.0933 -0.0749  0.7184
 8573TIP3    H147134   4.490   4.227   6.676 -0.9830  1.7440  3.2943
 8573TIP3    H247135   4.391   4.120   6.715 -0.2881  0.2786  1.2079
 8574TIP3   OH247136   3.078   3.617  16.528  0.0223  0.0531 -0.1454
 8574TIP3    H147137   3.078   3.661  16.443 -0.8709  0.5996  0.1195
 8574TIP3    H247138   3.007   3.553  16.522  1.8785 -2.0602 -0.8451
 8575TIP3   OH247139   4.306   2.731   1.099  0.4822  0.2315  1.4348
 8575TIP3    H147140   4.345   2.650   1.131  1.6692  0.0671 -0.3368
 8575TIP3    H247141   4.380   2.788   1.078 -0.3175  1.4588  1.7855
 8576TIP3   OH247142   1.707   0.602   5.622  0.3119  0.7531 -0.3042
 8576TIP3    H147143   1.629   0.557   5.591  0.1511  0.9076 -0.1310
 8576TIP3    H247144   1.724   0.563   5.708  1.8653 -1.0292 -1.3519
 8577TIP3   OH247145   3.648   2.735   2.465  0.0987 -0.4708  0.6283
 8577TIP3    H147146   3.703   2.725   2.388  1.1125 -0.8862  1.3874
 8577TIP3    H247147   3.633   2.829   2.472  0.2896 -0.4018  0.1361
 8578TIP3   OH247148   1.890   5.313  11.975  0.2418  0.2693  0.5103
 8578TIP3    H147149   1.926   5.328  11.888 -0.9773 -1.3317 -0.3317
 8578TIP3    H247150   1.962   5.333  12.035  1.2079  1.0829 -0.8686
 8579TIP3   OH247151   5.953   5.655  14.303  0.2203  0.2644  0.0477
 8579TIP3    H147152   5.878   5.689  14.353 -0.0294 -1.1064  0.6498
 8579TIP3    H247153   5.935   5.683  14.213 -0.3133  1.1202  0.3981
 8580TIP3   OH247154   2.193   6.011   3.119  0.6351 -0.2300 -0.1188
 8580TIP3    H147155   2.216   5.960   3.197  0.7005 -0.0918 -0.0467
 8580TIP3    H247156   2.146   5.949   3.062  0.5209 -0.3098  0.0622
 8581TIP3   OH247157   1.757   3.098   5.685 -0.5768 -0.5500 -0.4213
 8581TIP3    H147158   1.676   3.124   5.642 -0.5836  0.3536  0.1087
 8581TIP3    H247159   1.785   3.018   5.639 -0.5361  0.4044 -2.1326
 8582TIP3   OH247160   0.952   0.073   5.135 -0.7318 -0.2100 -0.4952
 8582TIP3    H147161   0.905   0.154   5.158  1.9080  0.5706  2.8706
 8582TIP3    H247162   0.917   0.007   5.195  0.6358 -0.2233  0.3230
 8583TIP3   OH247163   4.102   2.631   4.834 -0.1906 -0.0679 -0.0479
 8583TIP3    H147164   4.141   2.568   4.895  0.7175  1.1585  0.6863
 8583TIP3    H247165   4.050   2.689   4.890 -1.5877 -0.5526 -0.8042
 8584TIP3   OH247166   0.922   4.488   3.402  0.4548 -0.0871  0.1981
 8584TIP3    H147167   0.910   4.529   3.488  0.0410 -0.5464  0.3640
 8584TIP3    H247168   0.833   4.466   3.374  0.7149 -1.4759  0.4173
 8585TIP3   OH247169   1.203   5.118   4.534  0.3284 -0.3926  0.1894
 8585TIP3    H147170   1.174   5.063   4.608  2.3835  0.0141  1.3691
 8585TIP3    H247171   1.215   5.056   4.462  2.1214 -1.4984  1.3594
 8586TIP3   OH247172   6.651   1.088   2.865 -0.2594 -0.2161  0.5864
 8586TIP3    H147173   6.693   1.011   2.905  0.2734 -0.2086  0.0518
 8586TIP3    H247174   6.561   1.084   2.896 -0.1856 -0.9394  0.7405
 8587TIP3   OH247175   0.518   6.054  15.666 -0.2573  0.0040 -0.3875
 8587TIP3    H147176   0.505   6.049  15.760 -1.7963  1.7340 -0.4535
 8587TIP3    H247177   0.613   6.041  15.654  0.3856  2.1592  1.6318
 8588TIP3   OH247178   5.749   1.283  14.140 -0.1348  0.1809 -0.7140
 8588TIP3    H147179   5.697   1.303  14.062 -1.0374 -1.0449 -0.4570
 8588TIP3    H247180   5.840   1.291  14.111 -0.4451  1.6336 -1.3715
 8589TIP3   OH247181   3.087   3.345  16.655 -0.1789  0.7803  0.2704
 8589TIP3    H147182   3.144   3.411  16.695  1.7603 -0.8837  0.4362
 8589TIP3    H247183   3.066   3.285  16.726  1.9769 -1.3192 -0.7271
 8590TIP3   OH247184   6.502   0.023   3.818 -0.2989  0.2038  0.4940
 8590TIP3    H147185   6.516  -0.033   3.895 -2.4972 -0.6723  0.3179
 8590TIP3    H247186   6.587   0.025   3.775  0.6541 -0.3667  2.2323
 8591TIP3   OH247187   4.700   4.609  15.926 -0.8858  0.0737 -0.0805
 8591TIP3    H147188   4.663   4.639  15.844 -1.1370  2.3180  0.7882
 8591TIP3    H247189   4.791   4.639  15.924 -0.4607 -1.1579 -0.1364
 8592TIP3   OH247190   5.039   6.714  15.369  0.0468  0.3521  0.2510
 8592TIP3    H147191   5.009   6.803  15.387 -1.3500  0.0440 -0.4496
 8592TIP3    H247192   5.132   6.714  15.395 -0.1036  1.8138  0.8648
 8593TIP3   OH247193   2.220   6.087  15.699  0.4473  0.1620 -0.2391
 8593TIP3    H147194   2.291   6.143  15.729 -0.5624  1.6595 -0.4838
 8593TIP3    H247195   2.141   6.140  15.714 -0.4759 -0.8761 -1.2584
 8594TIP3   OH247196   1.787   6.121  15.326 -0.7651 -0.4562 -0.4811
 8594TIP3    H147197   1.769   6.168  15.407  1.9566  2.0094 -1.1580
 8594TIP3    H247198   1.865   6.069  15.345 -0.6836 -0.6244 -1.2551
 8595TIP3   OH247199   5.578   3.330   6.488  0.5260 -0.0649 -1.0763
 8595TIP3    H147200   5.622   3.390   6.547 -1.3807  1.9303 -1.5441
 8595TIP3    H247201   5.527   3.272   6.545  1.1361 -0.2103 -0.6750
 8596TIP3   OH247202   0.956   6.532   2.126  0.1977 -0.2556 -0.0162
 8596TIP3    H147203   0.906   6.478   2.187  0.3555  1.1214  1.3989
 8596TIP3    H247204   0.972   6.613   2.174  0.3792  0.8639 -1.8912
 8597TIP3   OH247205   1.180   6.226   3.933 -0.1481  0.3658 -0.1895
 8597TIP3    H147206   1.167   6.153   3.994 -0.2484 -1.7102 -2.5381
 8597TIP3    H247207   1.216   6.296   3.987 -0.3297 -1.2867  2.2502
 8598TIP3   OH247208   5.857   5.128  10.561 -0.0561  0.4503  0.2289
 8598TIP3    H147209   5.864   5.217  10.595 -0.7429  0.6274 -0.0899
 8598TIP3    H247210   5.934   5.083  10.597  0.6091  1.3129 -0.0770
 8599TIP3   OH247211   5.542   4.153  15.212  0.0371 -0.0116  0.1379
 8599TIP3    H147212   5.458   4.114  15.234  0.8568 -1.0867  1.5362
 8599TIP3    H247213   5.603   4.119  15.279  1.5010  1.0086 -0.6145
 8600TIP3   OH247214   3.764   5.648  11.216 -0.2779  0.4756  0.1712
 8600TIP3    H147215   3.784   5.555  11.208 -1.3135  0.1508  1.1274
 8600TIP3    H247216   3.713   5.669  11.138 -0.9279 -0.0136  0.4595
 8601TIP3   OH247217   2.443   4.618   4.164  0.3499 -0.3298  0.0166
 8601TIP3    H147218   2.405   4.651   4.246  0.1687 -2.2153  0.7466
 8601TIP3    H247219   2.369   4.618   4.103  0.2240  0.0927  0.1642
 8602TIP3   OH247220   6.743   2.801   2.543 -0.2063  0.5217  1.0391
 8602TIP3    H147221   6.763   2.779   2.635  0.9632  0.8669  0.8825
 8602TIP3    H247222   6.713   2.891   2.546 -0.8697  0.3042  1.1592
 8603TIP3   OH247223   4.105   6.547   5.879  0.1319  0.4361  0.9912
 8603TIP3    H147224   4.103   6.642   5.868 -1.6641  0.4755  1.4154
 8603TIP3    H247225   4.016   6.518   5.858  0.4335 -1.0623  1.6550
 8604TIP3   OH247226   6.260   5.314  17.083 -0.0384  0.1866  0.0962
 8604TIP3    H147227   6.209   5.291  17.005 -1.7259  1.0298  0.9029
 8604TIP3    H247228   6.273   5.408  17.075 -0.0265  0.2368  0.7223
 8605TIP3   OH247229   5.702   6.349   3.387  0.8851  0.1334  0.5107
 8605TIP3    H147230   5.710   6.444   3.389  1.3669  0.1440 -0.7399
 8605TIP3    H247231   5.678   6.325   3.476 -0.9378  1.5608  0.4711
 8606TIP3   OH247232   3.616   4.025   5.288  0.2590 -0.0890 -0.0608
 8606TIP3    H147233   3.550   3.957   5.274  0.6051 -1.1543  2.8160
 8606TIP3    H247234   3.700   3.978   5.284  0.5366  0.2440  1.3498
 8607TIP3   OH247235   4.955   3.286   1.833  0.0949  0.9910  0.3003
 8607TIP3    H147236   4.968   3.243   1.918 -1.0857  2.1328  1.0999
 8607TIP3    H247237   5.002   3.231   1.771  1.4463  0.4158  1.7702
 8608TIP3   OH247238   2.326   2.296  12.458 -0.4471 -0.1865  0.3492
 8608TIP3    H147239   2.382   2.337  12.524  0.3397 -0.0652 -0.3683
 8608TIP3    H247240   2.387   2.250  12.400 -1.1215 -0.3500 -0.2448
 8609TIP3   OH247241   4.249   4.795   5.683 -0.3930 -0.4134 -0.1061
 8609TIP3    H147242   4.212   4.800   5.595  0.6946  2.2409 -0.5076
 8609TIP3    H247243   4.174   4.811   5.741 -0.5523  1.4459 -0.7563
 8610TIP3   OH247244   1.103   1.019  11.798 -0.1883 -0.4399 -0.4430
 8610TIP3    H147245   1.192   0.985  11.786  1.1772  2.1221  1.4058
 8610TIP3    H247246   1.086   1.009  11.891 -1.4064  0.1197 -0.5888
 8611TIP3   OH247247   6.145   2.712   4.409 -0.1787 -0.1557  0.3628
 8611TIP3    H147248   6.166   2.728   4.318 -0.2249 -1.1885  0.1534
 8611TIP3    H247249   6.229   2.721   4.455 -0.0595 -0.1360  0.1433
 8612TIP3   OH247250   2.212   3.218  14.331 -0.1718 -0.1790  0.0624
 8612TIP3    H147251   2.306   3.216  14.348 -0.0808 -0.1579 -0.4260
 8612TIP3    H247252   2.190   3.129  14.304  0.0345  0.1997 -1.4781
 8613TIP3   OH247253   5.564   3.951  16.589  0.7476 -0.0746  0.5239
 8613TIP3    H147254   5.578   3.883  16.655  1.0182 -1.3386 -0.7660
 8613TIP3    H247255   5.649   3.996  16.582  1.2175 -1.0187 -0.0919
 8614TIP3   OH247256   0.737   1.060  14.745 -0.0207 -0.2193  0.2334
 8614TIP3    H147257   0.763   0.986  14.800  1.1470  0.7825  1.0632
 8614TIP3    H247258   0.813   1.076  14.689 -0.8404 -0.6027 -1.0291
 8615TIP3   OH247259   6.029   6.627  11.849  0.6221 -0.3520  0.0705
 8615TIP3    H147260   6.057   6.703  11.799 -0.4126  0.5261  0.7817
 8615TIP3    H247261   5.980   6.573  11.787  1.3230 -0.4296 -0.4237
 8616TIP3   OH247262   4.227   3.803  14.709 -0.1574 -0.3082 -0.0169
 8616TIP3    H147263   4.294   3.742  14.740  1.3597  1.5067  0.4621
 8616TIP3    H247264   4.276   3.875  14.670 -1.8175  1.0878  0.3428
 8617TIP3   OH247265   2.913   4.459   3.953  0.2717  0.0649 -0.7520
 8617TIP3    H147266   2.946   4.370   3.960 -0.0828  0.0592  1.4644
 8617TIP3    H247267   2.879   4.465   3.863  1.5838 -1.5348 -1.4064
 8618TIP3   OH247268   3.163   6.502  10.838  0.4026  0.0977 -0.1910
 8618TIP3    H147269   3.173   6.580  10.893 -0.8925  0.0578  0.1386
 8618TIP3    H247270   3.097   6.527  10.773 -0.3348 -0.8481  0.1722
 8619TIP3   OH247271   2.622   6.057   4.990  0.2832 -0.1077  0.0896
 8619TIP3    H147272   2.588   6.066   5.079  0.7575 -0.3457  0.2985
 8619TIP3    H247273   2.570   5.988   4.950 -1.5280  1.5630 -0.6117
 8620TIP3   OH247274   5.457   4.526  16.987 -0.0781  0.6013 -0.9545
 8620TIP3    H147275   5.440   4.481  16.904  1.0619 -0.2783 -0.7377
 8620TIP3    H247276   5.497   4.610  16.962 -0.5218  0.7051 -1.3153
 8621TIP3   OH247277   3.574   6.661  12.127  0.0899 -0.3686  0.3788
 8621TIP3    H147278   3.564   6.748  12.088  0.7667 -1.1827 -1.7402
 8621TIP3    H247279   3.623   6.676  12.208 -0.5393  1.2882  0.4944
 8622TIP3   OH247280   1.531   4.586   3.460 -0.5006  0.1407  0.1119
 8622TIP3    H147281   1.472   4.572   3.386 -0.9502  0.5210  0.3925
 8622TIP3    H247282   1.561   4.498   3.483  0.1419  0.0802 -0.9212
 8623TIP3   OH247283   4.843   4.865   5.233 -0.0751 -0.3306  0.1915
 8623TIP3    H147284   4.790   4.916   5.171  3.2098  1.4820 -1.3972
 8623TIP3    H247285   4.905   4.817   5.178  1.1486 -0.8750  1.9693
 8624TIP3   OH247286   0.586   5.637   3.552  0.3834  0.6830 -0.5746
 8624TIP3    H147287   0.608   5.663   3.463 -0.1638  0.7020 -0.7077
 8624TIP3    H247288   0.670   5.634   3.598  0.6137  1.1623 -0.9584
 8625TIP3   OH247289   2.307   6.309  15.998 -0.5215  0.6740  0.6148
 8625TIP3    H147290   2.289   6.218  16.021 -0.4782  0.0652 -1.5536
 8625TIP3    H247291   2.402   6.316  15.998 -0.5320  0.9303  1.4614
 8626TIP3   OH247292   2.294   4.635  14.618  0.0354  0.2112  0.2294
 8626TIP3    H147293   2.310   4.580  14.542 -3.0107  0.8705 -1.0183
 8626TIP3    H247294   2.199   4.633  14.631  0.2783  1.3430  3.1181
 8627TIP3   OH247295   1.931   2.260  15.798  0.3502 -0.4968 -0.3630
 8627TIP3    H147296   1.883   2.253  15.881  2.0644 -0.0890  0.7270
 8627TIP3    H247297   1.962   2.350  15.796  0.5213 -0.5696 -1.3441
 8628TIP3   OH247298   1.697   6.197  16.566 -0.6427  0.1719  0.0148
 8628TIP3    H147299   1.764   6.131  16.550 -0.2411  0.4130  0.6778
 8628TIP3    H247300   1.637   6.189  16.491 -0.3623 -0.6416 -0.1288
 8629TIP3   OH247301   4.064   4.893  15.426  0.0491 -0.1921  0.0685
 8629TIP3    H147302   3.979   4.880  15.385 -0.5600  1.1371  0.8479
 8629TIP3    H247303   4.046   4.942  15.506  1.4026 -1.1525  1.0140
 8630TIP3   OH247304   2.668   0.717  11.167 -0.2886  0.1558 -1.1557
 8630TIP3    H147305   2.680   0.647  11.231  0.8247  1.3689  0.0413
 8630TIP3    H247306   2.678   0.674  11.082 -0.9766 -1.3609 -0.5083
 8631TIP3   OH247307   5.909   0.375  12.323 -0.3164  0.3467  0.1926
 8631TIP3    H147308   5.966   0.447  12.297 -0.6465  0.3405 -0.5539
 8631TIP3    H247309   5.934   0.356  12.414  1.4053 -0.1837 -0.3629
 8632TIP3   OH247310   3.726   4.445  11.581 -0.6300 -0.0381  0.5043
 8632TIP3    H147311   3.643   4.408  11.551  0.2172 -1.2088 -0.4800
 8632TIP3    H247312   3.790   4.417  11.516  0.4356  1.4342  0.8614
 8633TIP3   OH247313   1.314   1.399   0.290  0.2277  0.2273  0.0506
 8633TIP3    H147314   1.359   1.452   0.356  0.8868 -0.2785  0.0145
 8633TIP3    H247315   1.337   1.308   0.312 -0.4714 -0.0159 -0.1931
 8634TIP3   OH247316   3.574   0.444  13.389 -0.3661 -0.6556  0.0638
 8634TIP3    H147317   3.495   0.392  13.373 -0.3597 -0.4604 -0.6596
 8634TIP3    H247318   3.645   0.379  13.385 -0.4589 -0.7713  0.3150
 8635TIP3   OH247319   5.829   2.353  14.171 -0.2819  0.2499  0.1414
 8635TIP3    H147320   5.854   2.431  14.221  0.0416  0.1278  0.1703
 8635TIP3    H247321   5.783   2.298  14.234 -0.7635  0.5400  0.0502
 8636TIP3   OH247322   3.402   5.607  15.143 -0.0842  0.0581 -0.1885
 8636TIP3    H147323   3.427   5.626  15.234  1.3378 -1.5973 -0.1859
 8636TIP3    H247324   3.310   5.636  15.137  0.1678  1.3251  1.3968
 8637TIP3   OH247325   3.300   6.285  16.085  0.3006 -0.1408 -0.1658
 8637TIP3    H147326   3.375   6.226  16.075  0.5616  0.3686 -1.5081
 8637TIP3    H247327   3.335   6.372  16.064 -1.0577 -0.1435 -2.9320
 8638TIP3   OH247328   2.845   2.435   5.639 -0.1601 -0.1963 -0.3948
 8638TIP3    H147329   2.929   2.393   5.619  0.5479  1.8803 -2.1845
 8638TIP3    H247330   2.862   2.485   5.719  0.2768  0.0754 -0.6532
 8639TIP3   OH247331   3.569   1.145   3.773 -0.2799 -0.5565 -0.7318
 8639TIP3    H147332   3.656   1.181   3.753  0.1622 -1.8485 -1.2129
 8639TIP3    H247333   3.545   1.095   3.696 -1.2021 -0.6946 -0.3640
 8640TIP3   OH247334   4.780   3.485  14.579  0.1303  0.7070 -0.0682
 8640TIP3    H147335   4.700   3.461  14.532  0.2280  0.1811  0.0258
 8640TIP3    H247336   4.765   3.453  14.668  1.1081 -0.9047 -0.4486
 8641TIP3   OH247337   4.396   1.673   3.937  0.0683  0.3515 -0.2235
 8641TIP3    H147338   4.306   1.664   3.970  0.3064 -4.0700 -0.1541
 8641TIP3    H247339   4.450   1.673   4.015  0.2343 -1.5087 -0.2876
 8642TIP3   OH247340   2.677   3.707  15.534  0.2438 -0.0650 -0.3982
 8642TIP3    H147341   2.758   3.722  15.485  1.8994  1.0135  2.3975
 8642TIP3    H247342   2.703   3.649  15.605 -1.7361 -0.5809 -0.0454
 8643TIP3   OH247343   5.589   1.407   0.841  0.1235  0.0691  0.0950
 8643TIP3    H147344   5.654   1.384   0.908  0.6129 -0.6329 -0.6166
 8643TIP3    H247345   5.504   1.391   0.884  0.3833  1.1743  1.0958
 8644TIP3   OH247346   0.710   5.321   3.868 -0.3707  0.3836  0.1755
 8644TIP3    H147347   0.770   5.250   3.847  0.0710  0.7439  0.2195
 8644TIP3    H247348   0.684   5.304   3.958  1.2364  1.3326  0.8603
 8645TIP3   OH247349   5.123   2.612   1.142 -0.2447  0.0889 -0.0244
 8645TIP3    H147350   5.061   2.685   1.148 -0.0069  0.5346 -2.0945
 8645TIP3    H247351   5.193   2.634   1.202  0.1952  1.9884 -1.1579
 8646TIP3   OH247352   4.759   3.206   4.055 -0.3713  0.1341  0.1975
 8646TIP3    H147353   4.757   3.301   4.066 -1.7365  0.0547  0.9447
 8646TIP3    H247354   4.682   3.186   4.002 -0.2748 -0.5787  0.3067
 8647TIP3   OH247355   2.496   2.319   3.279  0.7107 -0.1852  0.0041
 8647TIP3    H147356   2.465   2.253   3.216 -1.6757  0.0502  0.8425
 8647TIP3    H247357   2.495   2.273   3.363 -2.1567  1.1106  0.8098
 8648TIP3   OH247358   2.153   4.527  16.485  0.1056 -0.1116  0.1159
 8648TIP3    H147359   2.109   4.477  16.416  0.1852 -0.5082  0.3503
 8648TIP3    H247360   2.135   4.618  16.464  0.0958 -0.2338 -0.4097
 8649TIP3   OH247361   2.633   0.657   4.292  0.7008  0.3606 -0.3682
 8649TIP3    H147362   2.657   0.747   4.315 -0.6544  0.1780  2.1367
 8649TIP3    H247363   2.660   0.605   4.368  0.5782 -1.2082 -1.3529
 8650TIP3   OH247364   1.562   2.373   5.137 -0.3273  0.8239 -0.1009
 8650TIP3    H147365   1.508   2.425   5.078 -2.2942  0.6385  1.4534
 8650TIP3    H247366   1.573   2.289   5.092 -2.0312  0.5864 -0.1414
 8651TIP3   OH247367   0.325   0.209  12.844  0.7750 -0.3175  0.3529
 8651TIP3    H147368   0.345   0.192  12.936  0.5732 -0.8360  0.3084
 8651TIP3    H247369   0.409   0.232  12.805  0.6828  0.9782  0.8861
 8652TIP3   OH247370   0.585   6.479   4.765 -0.3112 -0.6273 -0.1008
 8652TIP3    H147371   0.541   6.559   4.793 -0.8299 -0.1445 -2.0916
 8652TIP3    H247372   0.678   6.495   4.783 -0.5724 -0.2066  0.9018
 8653TIP3   OH247373   6.660   3.409  17.090  0.5295 -0.2663 -0.4169
 8653TIP3    H147374   6.637   3.502  17.101 -3.0549 -0.9683 -0.6136
 8653TIP3    H247375   6.680   3.379  17.179  1.6837  0.6460 -0.3466
 8654TIP3   OH247376   4.664   5.292  14.306  0.0112 -0.2728 -0.4983
 8654TIP3    H147377   4.581   5.299  14.353 -0.5954 -4.6422 -0.4735
 8654TIP3    H247378   4.730   5.309  14.372 -0.7993  1.3529 -0.0513
 8655TIP3   OH247379   1.132   0.168  11.882  0.3118  0.4886  0.9486
 8655TIP3    H147380   1.116   0.261  11.872 -0.3652  0.3859  1.0224
 8655TIP3    H247381   1.200   0.162  11.950  0.5091  0.9265  0.7905
 8656TIP3   OH247382   3.780   6.164   6.408 -0.6723 -0.1127 -0.5259
 8656TIP3    H147383   3.734   6.248   6.418 -0.1853 -0.0130  1.1786
 8656TIP3    H247384   3.739   6.107   6.473  1.4513 -0.0656  0.9321
 8657TIP3   OH247385   4.003   2.893   3.340  0.3214 -0.2470  0.0082
 8657TIP3    H147386   3.969   2.930   3.422 -0.1273 -0.7323  0.0491
 8657TIP3    H247387   4.018   2.969   3.284 -0.9673 -0.0057 -0.0487
 8658TIP3   OH247388   5.587   2.975   6.341 -0.3410  0.2928  0.2511
 8658TIP3    H147389   5.502   2.944   6.308 -0.0046 -0.1313 -0.2371
 8658TIP3    H247390   5.651   2.917   6.300  0.5241  3.0247 -2.6612
 8659TIP3   OH247391   4.485   4.087  15.977  0.5276 -0.4935  0.7237
 8659TIP3    H147392   4.496   4.170  16.023 -2.7311  0.0495  0.7283
 8659TIP3    H247393   4.518   4.105  15.889 -0.3359  0.9316  0.6534
 8660TIP3   OH247394   5.126   3.023  12.820 -0.6906 -0.2468 -0.3928
 8660TIP3    H147395   5.168   2.954  12.871 -1.0059  0.7874  1.3756
 8660TIP3    H247396   5.137   3.102  12.874 -0.1080  1.1567 -2.4451
 8661TIP3   OH247397   4.526   3.301   1.118  0.2772 -0.0226 -0.3362
 8661TIP3    H147398   4.596   3.345   1.069 -0.6468 -0.6844 -2.3848
 8661TIP3    H247399   4.450   3.305   1.059 -0.9462 -0.7727  1.1361
 8662TIP3   OH247400   6.087   2.832   6.205  0.5897  0.2058 -0.7750
 8662TIP3    H147401   6.131   2.886   6.270  2.9144 -2.1056 -0.2383
 8662TIP3    H247402   6.125   2.858   6.121  0.3123  0.6676 -0.7594
 8663TIP3   OH247403   6.734   6.362   5.811  0.5385 -0.4703 -0.0661
 8663TIP3    H147404   6.793   6.306   5.761  1.1076  0.7733 -0.8470
 8663TIP3    H247405   6.702   6.426   5.747  1.6096  1.4296  1.2168
 8664TIP3   OH247406   3.724   1.475   4.024 -0.1608  0.0331  0.1978
 8664TIP3    H147407   3.748   1.389   3.989 -0.2049  0.3502 -0.6413
 8664TIP3    H247408   3.790   1.493   4.091  1.3711  0.4184 -1.3189
 8665TIP3   OH247409   5.547   6.667   2.550  0.2871  0.0375  0.0056
 8665TIP3    H147410   5.466   6.705   2.583  0.6189  0.7566  0.0047
 8665TIP3    H247411   5.524   6.577   2.527 -0.3171 -0.0067  0.7576
 8666TIP3   OH247412   5.000   3.104   2.039  0.2580 -0.0914  0.3147
 8666TIP3    H147413   5.064   3.038   2.014  0.9073  0.1995  1.1777
 8666TIP3    H247414   5.027   3.133   2.126  0.0717  1.4248 -0.1032
 8667TIP3   OH247415   6.399   1.849   2.203  0.1184  0.2817 -0.0179
 8667TIP3    H147416   6.409   1.943   2.190  0.2987  0.3160  0.3448
 8667TIP3    H247417   6.482   1.821   2.241 -0.3852  0.2156  1.1003
 8668TIP3   OH247418   6.033   5.647  16.784  0.2860  0.5769  0.1039
 8668TIP3    H147419   6.046   5.658  16.690 -0.0832  1.1353  0.1188
 8668TIP3    H247420   5.939   5.658  16.797  0.3522  0.6251  0.5542
 8669TIP3   OH247421   3.726   4.431   3.384  0.1571  0.0305  0.2351
 8669TIP3    H147422   3.773   4.396   3.308  0.4760  1.6345 -0.3432
 8669TIP3    H247423   3.788   4.423   3.456  1.1632  1.6044 -0.4023
 8670TIP3   OH247424   6.298   5.671   0.629 -0.2461 -0.0033  0.9099
 8670TIP3    H147425   6.306   5.683   0.534 -1.1494 -0.8967  0.6966
 8670TIP3    H247426   6.357   5.735   0.667  2.0167 -1.2397 -0.3010
 8671TIP3   OH247427   3.284   1.635   0.750 -0.1155 -0.6306 -0.6314
 8671TIP3    H147428   3.311   1.647   0.659  1.6078  1.5658  0.0899
 8671TIP3    H247429   3.262   1.723   0.781 -0.5261 -1.3065  1.1472
 8672TIP3   OH247430   2.452   6.606  16.572  0.4224 -0.1679 -0.2799
 8672TIP3    H147431   2.484   6.635  16.657  2.7454 -2.1753 -0.3615
 8672TIP3    H247432   2.394   6.533  16.592 -0.3273  0.3920 -0.3727
 8673TIP3   OH247433   2.981   0.253   6.042 -0.2622  0.8261  0.5530
 8673TIP3    H147434   2.921   0.178   6.034  0.2087  0.6048 -1.3327
 8673TIP3    H247435   2.934   0.325   6.000  0.6296  0.7287 -0.6548
 8674TIP3   OH247436   3.142   4.152  13.600  0.3288 -0.0473  0.1025
 8674TIP3    H147437   3.235   4.130  13.593  0.2113 -0.9077  1.1057
 8674TIP3    H247438   3.109   4.142  13.510  1.2256  0.4373 -0.3006
 8675TIP3   OH247439   2.506   0.886  14.381 -0.3257 -0.1567  0.4650
 8675TIP3    H147440   2.480   0.795  14.396 -2.3167  0.4249  0.8663
 8675TIP3    H247441   2.478   0.932  14.460  1.5905  0.6680  0.7253
 8676TIP3   OH247442   0.405   6.693   4.082 -0.5520 -0.0241 -0.2719
 8676TIP3    H147443   0.361   6.778   4.078 -1.5277 -0.5664 -1.6187
 8676TIP3    H247444   0.423   6.670   3.991 -0.2733 -1.2458  0.0697
 8677TIP3   OH247445   4.418   1.076  16.656 -0.1827  0.4599  0.7098
 8677TIP3    H147446   4.395   0.984  16.667 -0.5255  0.5159  0.4809
 8677TIP3    H247447   4.336   1.123  16.669 -0.4665  0.5947 -1.1799
 8678TIP3   OH247448   5.142   0.554   3.288  0.1295 -0.0927  0.2130
 8678TIP3    H147449   5.160   0.507   3.369 -0.0717  0.9534  0.8839
 8678TIP3    H247450   5.052   0.587   3.299  0.3341  0.6027 -0.1461
 8679TIP3   OH247451   0.504   0.610   5.348  0.1490  0.5398  0.1693
 8679TIP3    H147452   0.590   0.650   5.356 -0.0004  1.9851 -3.4184
 8679TIP3    H247453   0.467   0.649   5.269 -4.9512  2.0260  2.8392
 8680TIP3   OH247454   1.171   1.938  15.618 -0.3554  0.3702 -0.0855
 8680TIP3    H147455   1.159   1.987  15.537 -0.6840  0.2518 -0.1078
 8680TIP3    H247456   1.183   1.847  15.589  1.0629  0.5398 -0.0977
 8681TIP3   OH247457   6.393   1.967  15.371 -0.0057 -0.7083  0.3272
 8681TIP3    H147458   6.384   1.959  15.276 -1.3510 -0.2028  0.3856
 8681TIP3    H247459   6.327   1.907  15.406 -2.6051  2.1717  0.8416
 8682TIP3   OH247460   1.303   1.779  12.063 -0.3613 -0.0143  0.4266
 8682TIP3    H147461   1.319   1.699  12.012 -3.2712 -0.1888 -0.3478
 8682TIP3    H247462   1.301   1.849  11.998  3.5754  1.0873  1.2265
 8683TIP3   OH247463   1.258   5.245  13.837  0.7579  0.1963  0.0483
 8683TIP3    H147464   1.332   5.262  13.779  1.0599 -0.3705  0.2552
 8683TIP3    H247465   1.219   5.331  13.854  1.3275  0.4867 -0.1140
 8684TIP3   OH247466   3.897   2.791  11.416 -0.6236  0.2540  0.2384
 8684TIP3    H147467   3.850   2.832  11.344 -2.3095 -4.0846 -1.4394
 8684TIP3    H247468   3.836   2.793  11.490  0.3182  2.8167  1.0727
 8685TIP3   OH247469   3.182   5.911  11.902 -0.4754  0.0315  0.6727
 8685TIP3    H147470   3.136   5.990  11.875  1.5822  2.2744  3.1864
 8685TIP3    H247471   3.250   5.899  11.836 -0.1652  0.9702  0.8128
 8686TIP3   OH247472   1.913   5.198  12.457 -0.0645  0.2503  0.2891
 8686TIP3    H147473   1.867   5.280  12.441 -1.0913 -0.2636  0.5287
 8686TIP3    H247474   1.849   5.130  12.436  0.7889 -0.5020  0.0200
 8687TIP3   OH247475   2.641   1.285  15.383  0.0493  0.3465 -0.1743
 8687TIP3    H147476   2.614   1.198  15.413 -0.6207  0.2005 -1.1540
 8687TIP3    H247477   2.631   1.282  15.288  0.8141  1.2367 -0.3014
 8688TIP3   OH247478   0.281   6.000  13.387  0.5935 -0.1271  0.1866
 8688TIP3    H147479   0.336   5.952  13.449  1.3870 -1.5321 -1.5422
 8688TIP3    H247480   0.200   6.015  13.435 -0.6310 -5.1586  0.2261
 8689TIP3   OH247481   4.970   3.849  13.811 -0.2112  0.8753 -0.0437
 8689TIP3    H147482   4.938   3.760  13.829 -0.5283  1.0347  0.1904
 8689TIP3    H247483   4.995   3.883  13.897  1.3158  0.4793 -0.3161
 8690TIP3   OH247484   4.252   1.544   0.173 -0.6879  0.3301  0.7796
 8690TIP3    H147485   4.202   1.477   0.221  0.2969  0.1739  1.6091
 8690TIP3    H247486   4.341   1.509   0.168 -0.8094  0.1975 -1.4568
 8691TIP3   OH247487   0.049   2.799  14.992  0.3210  0.8754 -0.6939
 8691TIP3    H147488   0.094   2.871  14.946  2.3347  0.5594  0.6708
 8691TIP3    H247489   0.081   2.804  15.081 -0.6689 -0.8363 -0.2068
 8692TIP3   OH247490   3.291   0.961   2.177 -0.5608  0.2569  0.4046
 8692TIP3    H147491   3.284   0.867   2.193  0.5755  0.1817  0.5514
 8692TIP3    H247492   3.225   0.979   2.110  0.9760 -1.1397 -1.6053
 8693TIP3   OH247493   2.445   5.831   1.127 -0.0273  0.1116  0.4705
 8693TIP3    H147494   2.403   5.819   1.212  0.2674  0.5824  0.6873
 8693TIP3    H247495   2.502   5.907   1.139 -0.6172  0.7158 -0.3827
 8694TIP3   OH247496   2.684   4.830   4.141  0.0281  0.4221 -0.2739
 8694TIP3    H147497   2.617   4.800   4.203  2.7321  0.2989  2.8376
 8694TIP3    H247498   2.743   4.756   4.131  1.6909  1.6453  0.0501
 8695TIP3   OH247499   1.783   6.693  15.293  0.4028  0.6247 -0.3022
 8695TIP3    H147500   1.865   6.649  15.317 -0.7616 -0.9389  1.0365
 8695TIP3    H247501   1.763   6.660  15.205  1.3746  1.2938 -0.7859
 8696TIP3   OH247502   6.280   0.347   0.450  0.1087 -0.0905  0.1285
 8696TIP3    H147503   6.313   0.417   0.393  0.1863  0.5409  0.9341
 8696TIP3    H247504   6.185   0.358   0.449 -0.0152 -1.0152 -1.0456
 8697TIP3   OH247505   6.431   6.377   2.289 -0.4357 -0.2280  0.6843
 8697TIP3    H147506   6.463   6.353   2.202  1.5440 -0.2789  1.3766
 8697TIP3    H247507   6.468   6.310   2.347 -1.6757 -0.1598  1.5852
 8698TIP3   OH247508   3.283   3.372  15.483 -0.0248  0.1902  0.0005
 8698TIP3    H147509   3.274   3.377  15.578  1.1686  1.8759  0.0756
 8698TIP3    H247510   3.332   3.291  15.467 -1.0713 -0.6071  0.7218
 8699TIP3   OH247511   3.318   6.316   0.979  0.1701 -0.0468 -0.8351
 8699TIP3    H147512   3.364   6.245   0.933 -0.9973 -0.3632 -1.5431
 8699TIP3    H247513   3.304   6.383   0.912  1.4495  0.9812 -0.1238
 8700TIP3   OH247514   3.803   4.893   6.337 -0.1680  0.1670  0.5002
 8700TIP3    H147515   3.735   4.889   6.405  0.2523 -0.6846  0.8898
 8700TIP3    H247516   3.803   4.806   6.298  0.0805  0.4410 -0.1206
 8701TIP3   OH247517   4.843   0.712   5.086  0.6104 -0.2420 -0.1984
 8701TIP3    H147518   4.766   0.764   5.107  1.9056  1.0972  1.5070
 8701TIP3    H247519   4.821   0.669   5.002 -2.3830 -0.8319  0.7602
 8702TIP3   OH247520   3.814   1.139   0.901 -0.3256 -0.0372  0.6899
 8702TIP3    H147521   3.863   1.220   0.881  0.4316 -0.4835  0.7024
 8702TIP3    H247522   3.862   1.070   0.855 -0.9938 -0.4805  0.6467
 8703TIP3   OH247523   5.172   6.402  13.647  0.3765 -0.1799 -0.5888
 8703TIP3    H147524   5.166   6.330  13.710  0.0229 -1.0137 -1.5411
 8703TIP3    H247525   5.219   6.471  13.693 -1.0615 -0.2265  1.0671
 8704TIP3   OH247526   6.773   6.634  16.425  0.1322  0.4969  0.3701
 8704TIP3    H147527   6.851   6.598  16.468 -0.2391 -0.2215  0.4591
 8704TIP3    H247528   6.701   6.582  16.460 -0.2211  0.1294 -0.8586
 8705TIP3   OH247529   6.320   6.440   0.134 -0.0293 -0.3237 -0.5881
 8705TIP3    H147530   6.227   6.450   0.115 -0.0931  1.5185  0.4110
 8705TIP3    H247531   6.335   6.345   0.134 -2.2750 -0.7587  0.8039
 8706TIP3   OH247532   5.101   6.430   3.912  0.2038  0.0286  0.5581
 8706TIP3    H147533   5.024   6.373   3.912  1.4443 -1.6973  0.4650
 8706TIP3    H247534   5.165   6.386   3.967  1.4905  0.9248 -0.1532
 8707TIP3   OH247535   6.495   2.796   2.044 -0.4254  0.4492 -0.1839
 8707TIP3    H147536   6.587   2.776   2.060 -0.4467 -0.0133 -0.6203
 8707TIP3    H247537   6.449   2.715   2.065 -0.8585  0.9920  1.0687
 8708TIP3   OH247538   5.574   5.647  15.232 -0.3590  0.6045 -0.0089
 8708TIP3    H147539   5.538   5.684  15.151 -2.2046 -0.4739  0.2617
 8708TIP3    H247540   5.501   5.650  15.294  0.1298 -1.2956  0.7173
 8709TIP3   OH247541   2.596   4.854  15.789  0.3219 -0.1388 -0.8167
 8709TIP3    H147542   2.597   4.884  15.880 -0.2023  0.2722 -0.9428
 8709TIP3    H247543   2.504   4.857  15.764  0.4301 -0.5401 -1.2711
 8710TIP3   OH247544   1.562   5.746   3.104  0.2040 -0.2854 -0.4228
 8710TIP3    H147545   1.594   5.676   3.161  0.4154  0.7049  0.7078
 8710TIP3    H247546   1.635   5.765   3.045  0.4481 -0.4283 -0.1650
 8711TIP3   OH247547   2.321   1.451  13.265  0.3037 -0.3276  0.4538
 8711TIP3    H147548   2.403   1.435  13.312  0.7930  1.1496  0.1758
 8711TIP3    H247549   2.333   1.538  13.227 -0.3233 -1.1846 -1.8791
 8712TIP3   OH247550   2.054   3.015   5.370  0.3687  0.6340 -0.3778
 8712TIP3    H147551   2.096   3.033   5.286 -0.6164  2.1354 -0.5794
 8712TIP3    H247552   2.018   3.099   5.398  0.0807  0.0233  1.2325
 8713TIP3   OH247553   4.786   6.477   0.171 -0.1410 -0.0843 -0.7113
 8713TIP3    H147554   4.740   6.427   0.103 -2.2621 -2.4226  2.1462
 8713TIP3    H247555   4.851   6.416   0.206  0.4191  0.8070 -0.1479
 8714TIP3   OH247556   5.496   5.347   5.630  0.1321  0.2205 -0.0327
 8714TIP3    H147557   5.569   5.287   5.645 -0.4843 -0.6610 -0.4652
 8714TIP3    H247558   5.537   5.425   5.591  0.6541 -1.0004 -2.0707
 8715TIP3   OH247559   6.397   1.370  11.766 -0.0954 -0.8093  0.0542
 8715TIP3    H147560   6.333   1.373  11.837  0.4074 -1.9490  0.5771
 8715TIP3    H247561   6.381   1.451  11.716  1.0299  1.2363  2.7413
 8716TIP3   OH247562   1.737   1.437   6.048 -0.1060 -0.0746 -0.4819
 8716TIP3    H147563   1.777   1.431   6.134 -0.4973  0.7408 -0.2293
 8716TIP3    H247564   1.643   1.429   6.064 -0.0652 -3.1050 -1.1843
 8717TIP3   OH247565   5.277   5.070   0.719 -0.2764 -0.2622  0.0373
 8717TIP3    H147566   5.231   5.046   0.638  0.0869 -0.7322 -0.0279
 8717TIP3    H247567   5.344   5.004   0.729  0.0107  0.0913  0.4558
 8718TIP3   OH247568   3.901   5.818  13.371 -0.0572  0.0442  0.3139
 8718TIP3    H147569   3.975   5.845  13.426 -0.6337  1.6165  0.3939
 8718TIP3    H247570   3.885   5.894  13.315 -0.5281 -0.9208 -0.9004
 8719TIP3   OH247571   6.490   5.552   2.776 -0.0389 -0.8157 -0.4088
 8719TIP3    H147572   6.484   5.644   2.799 -0.6554 -0.4299 -1.9899
 8719TIP3    H247573   6.577   5.543   2.736 -0.3920 -0.6791 -1.2179
 8720TIP3   OH247574   6.627   1.227   5.031 -0.0500 -0.1289  0.4321
 8720TIP3    H147575   6.552   1.264   4.985 -1.1640 -0.5207  1.8536
 8720TIP3    H247576   6.641   1.141   4.990 -0.8409 -0.3543  0.6122
 8721TIP3   OH247577   0.562   3.574  10.411  0.1507 -0.4710  0.4020
 8721TIP3    H147578   0.574   3.645  10.474 -0.4331  0.1324 -0.1514
 8721TIP3    H247579   0.649   3.561  10.373  0.7667 -1.5901  2.0894
 8722TIP3   OH247580   4.245   1.536  12.283 -0.2523 -0.3759  0.0937
 8722TIP3    H147581   4.201   1.520  12.366  1.6273  0.2359  1.2787
 8722TIP3    H247582   4.280   1.451  12.257  0.7184 -0.2458  0.9116
 8723TIP3   OH247583   5.117   1.376   5.598  0.4107 -0.2649 -0.3263
 8723TIP3    H147584   5.082   1.454   5.642  0.9176 -0.4324  0.3812
 8723TIP3    H247585   5.204   1.402   5.569 -0.8894  0.8133 -3.8388
 8724TIP3   OH247586   0.359   6.686   0.418  0.0998 -0.2382 -0.0967
 8724TIP3    H147587   0.390   6.596   0.428  1.1992  0.3469  2.5732
 8724TIP3    H247588   0.269   6.677   0.388  0.3342 -2.2119 -0.3161
 8725TIP3   OH247589   2.320   6.492  13.797 -0.5584 -0.2536  0.3501
 8725TIP3    H147590   2.283   6.447  13.720 -0.9700 -0.5297  0.7018
 8725TIP3    H247591   2.271   6.574  13.803  0.8123  0.6972 -0.8294
 8726TIP3   OH247592   5.210   0.143   5.656 -0.3508 -0.2366 -0.3424
 8726TIP3    H147593   5.158   0.174   5.731  0.1283 -1.4471  0.5346
 8726TIP3    H247594   5.148   0.094   5.603 -0.4016 -0.5857  0.0292
 8727TIP3   OH247595   4.769   0.822  16.936  0.1526  0.3799  0.5465
 8727TIP3    H147596   4.720   0.826  16.854 -1.2394 -1.9045  1.1865
 8727TIP3    H247597   4.855   0.859  16.914 -0.7014  1.3453 -1.4755
 8728TIP3   OH247598   4.487   3.280   1.574 -0.6970 -0.1495  0.0358
 8728TIP3    H147599   4.499   3.265   1.668 -1.8561 -1.2905  0.0361
 8728TIP3    H247600   4.572   3.258   1.535 -0.7744 -1.6897  0.6376
 8729TIP3   OH247601   0.829   4.382   1.029 -0.0387 -0.1150 -0.2688
 8729TIP3    H147602   0.893   4.312   1.041  1.1647  0.9505 -0.2561
 8729TIP3    H247603   0.774   4.352   0.957  1.7093 -0.2377 -1.6437
 8730TIP3   OH247604   5.025   5.358  14.265  0.1908  0.0356 -0.0464
 8730TIP3    H147605   5.076   5.333  14.188 -0.9075 -1.2509 -0.3938
 8730TIP3    H247606   5.042   5.289  14.329  1.5323  1.3833  1.1068
 8731TIP3   OH247607   0.065   5.182  12.093 -0.0218  0.5149  0.3376
 8731TIP3    H147608  -0.015   5.188  12.041  0.6545 -0.4288 -0.8613
 8731TIP3    H247609   0.130   5.146  12.033  1.0421  0.2789  1.5829
 8732TIP3   OH247610   6.390   2.578   3.434 -0.1111 -0.3139 -0.2991
 8732TIP3    H147611   6.368   2.670   3.418 -1.1028 -0.3926  0.5193
 8732TIP3    H247612   6.430   2.577   3.521  1.2857 -0.4740 -0.9080
 8733TIP3   OH247613   4.222   0.197  16.632  0.0192 -0.4797 -0.2166
 8733TIP3    H147614   4.246   0.172  16.543  2.2553  1.5829 -0.2971
 8733TIP3    H247615   4.219   0.293  16.629 -0.8566 -0.4069  1.7077
 8734TIP3   OH247616   2.005   4.704  15.443  0.5478  0.4076 -0.0663
 8734TIP3    H147617   1.911   4.717  15.458  0.6008  1.5461 -0.6520
 8734TIP3    H247618   2.009   4.640  15.372  0.1947  1.1111 -0.7253
 8735TIP3   OH247619   2.514   3.735  16.867  0.4519  0.0846 -0.7010
 8735TIP3    H147620   2.483   3.727  16.776 -0.9861  0.7007 -0.2858
 8735TIP3    H247621   2.570   3.813  16.866  2.2952 -1.1727 -1.5096
 8736TIP3   OH247622   6.269   5.545  16.923 -0.1400  0.3904 -0.0940
 8736TIP3    H147623   6.325   5.621  16.904  0.1690  0.0347 -0.6053
 8736TIP3    H247624   6.180   5.581  16.922 -0.0048  0.7251 -0.4610
 8737TIP3   OH247625   4.881   6.383   5.913 -0.6275 -0.4520  0.0786
 8737TIP3    H147626   4.969   6.398   5.948 -0.9006  0.1449  0.5271
 8737TIP3    H247627   4.893   6.388   5.818 -0.4069  1.0863  0.1552
 8738TIP3   OH247628   0.073   5.048   0.741 -0.2264 -0.4430  0.5468
 8738TIP3    H147629   0.053   5.108   0.669 -2.0379 -1.2907  0.3042
 8738TIP3    H247630   0.082   5.105   0.817  0.4376  0.3396 -0.0927
 8739TIP3   OH247631   0.002   5.228  14.946  0.1217 -0.1666 -0.3058
 8739TIP3    H147632  -0.020   5.284  15.020 -0.9190 -0.8312 -0.0987
 8739TIP3    H247633  -0.082   5.198  14.912  0.6142 -0.3769 -1.3652
 8740TIP3   OH247634   1.793   3.768  12.194 -0.2541 -0.0740  0.0375
 8740TIP3    H147635   1.740   3.755  12.116 -1.4488 -0.0440  0.8173
 8740TIP3    H247636   1.863   3.827  12.166 -0.2477 -0.6270 -1.1727
 8741TIP3   OH247637   6.388   6.509  11.112 -0.2688 -0.3597  0.3829
 8741TIP3    H147638   6.479   6.499  11.139  0.1423 -0.3354 -0.9001
 8741TIP3    H247639   6.367   6.425  11.070 -0.5846 -0.0971  0.0094
 8742TIP3   OH247640   2.187   4.992   5.260 -0.4859 -0.2407  0.1362
 8742TIP3    H147641   2.163   5.073   5.305  1.1272  0.7250 -0.6492
 8742TIP3    H247642   2.265   4.961   5.306 -0.7116 -1.0120  0.0152
 8743TIP3   OH247643   2.133   3.863   2.568 -0.3453 -0.4314  0.2786
 8743TIP3    H147644   2.203   3.919   2.533 -0.0630 -0.1358  1.2593
 8743TIP3    H247645   2.117   3.898   2.656 -1.9063 -0.3396 -0.0039
 8744TIP3   OH247646   6.419   5.778   1.316 -0.7791  0.6974  0.4944
 8744TIP3    H147647   6.404   5.792   1.410  1.8155  1.7787  0.8249
 8744TIP3    H247648   6.341   5.731   1.286 -1.1764 -0.7280  3.4170
 8745TIP3   OH247649   3.151   1.687  16.013  0.2665 -0.0620  0.2605
 8745TIP3    H147650   3.133   1.683  15.919  0.5034 -1.0796  0.2383
 8745TIP3    H247651   3.099   1.761  16.045  0.0389  0.1798 -0.6378
 8746TIP3   OH247652   6.699   4.346   4.039  0.7914  0.5591 -0.1962
 8746TIP3    H147653   6.764   4.288   4.000  0.3335  0.0443 -0.2031
 8746TIP3    H247654   6.744   4.430   4.047  1.0361  0.5590 -1.4282
 8747TIP3   OH247655   4.580   4.301  16.577  0.6150  0.2020  0.5411
 8747TIP3    H147656   4.541   4.238  16.637  0.5822 -0.6826 -0.3928
 8747TIP3    H247657   4.551   4.273  16.490  1.1894  1.0778  0.0495
 8748TIP3   OH247658   2.440   0.228  11.236  0.0026 -0.5415  0.6432
 8748TIP3    H147659   2.516   0.237  11.294  0.4414  0.1293 -0.0206
 8748TIP3    H247660   2.440   0.136  11.211  2.0040 -0.1267 -1.1891
 8749TIP3   OH247661   4.451   1.332   1.670  0.3114  0.3013  0.5904
 8749TIP3    H147662   4.489   1.284   1.744  2.5263 -2.0189 -1.7935
 8749TIP3    H247663   4.453   1.423   1.696  2.2361 -0.3093  2.9147
 8750TIP3   OH247664   0.686   4.924  12.994 -0.0447  0.0792  0.4952
 8750TIP3    H147665   0.730   4.862  13.053 -0.2945 -0.7421 -0.1578
 8750TIP3    H247666   0.617   4.963  13.046 -1.0398 -1.5250  0.4345
 8751TIP3   OH247667   6.367   6.671   4.654  0.1908  0.3928 -0.5487
 8751TIP3    H147668   6.305   6.665   4.582  1.8633 -1.7035 -1.9604
 8751TIP3    H247669   6.450   6.693   4.612  1.4860 -2.1632  0.4475
 8752TIP3   OH247670   6.539   6.246   3.178 -0.0304 -0.3374 -0.2374
 8752TIP3    H147671   6.480   6.318   3.156  1.5658  1.4989  1.1310
 8752TIP3    H247672   6.525   6.232   3.272  0.5602 -0.9491 -0.2356
 8753TIP3   OH247673   4.613   1.588   1.985  0.1010 -0.3400  0.4744
 8753TIP3    H147674   4.707   1.570   1.985  0.1021 -0.3984  1.4781
 8753TIP3    H247675   4.574   1.511   2.028 -0.3621 -0.1147  0.4611
 8754TIP3   OH247676   2.450   4.108  11.874  0.3223  0.3291 -0.0540
 8754TIP3    H147677   2.374   4.109  11.815 -0.4961 -0.7106  0.9304
 8754TIP3    H247678   2.512   4.049  11.832 -0.4498 -0.7837  0.3158
 8755TIP3   OH247679   5.257   0.823   0.285  0.1109  0.3575  0.1680
 8755TIP3    H147680   5.208   0.742   0.274  1.2002 -0.0251 -3.0660
 8755TIP3    H247681   5.261   0.837   0.380 -0.9464 -2.8099  0.7885
 8756TIP3   OH247682   4.470   2.583  14.976 -0.4018 -0.1661 -0.4450
 8756TIP3    H147683   4.560   2.582  14.944 -0.3231 -2.9197 -0.4168
 8756TIP3    H247684   4.431   2.660  14.935  1.7155  0.6397 -1.1129
 8757TIP3   OH247685   3.985   3.731   3.702 -0.2752  0.2404 -0.3779
 8757TIP3    H147686   3.925   3.774   3.642 -0.9208  0.7389  0.5945
 8757TIP3    H247687   4.034   3.802   3.743 -1.2896  0.1003  1.1784
 8758TIP3   OH247688   2.350   2.752  13.899 -0.3794 -0.3368  0.3312
 8758TIP3    H147689   2.322   2.797  13.979 -2.2684 -0.1102 -0.4193
 8758TIP3    H247690   2.269   2.731  13.853  0.6261 -1.3657 -1.0578
 8759TIP3   OH247691   5.715   4.991   0.162 -0.2313  0.2661 -0.0762
 8759TIP3    H147692   5.766   4.912   0.181 -0.0454  0.7221  1.4277
 8759TIP3    H247693   5.644   4.961   0.104 -0.0278 -0.9550  0.2926
 8760TIP3   OH247694   6.578   6.227  12.516  0.0072  0.5132 -0.2080
 8760TIP3    H147695   6.640   6.270  12.576  1.0648  2.0670 -2.2848
 8760TIP3    H247696   6.495   6.227  12.564  1.3368 -0.8096  2.3171
 8761TIP3   OH247697   2.043   6.627  12.421 -0.3990 -0.0648 -0.3396
 8761TIP3    H147698   2.083   6.552  12.378 -2.3697 -1.5798  0.3420
 8761TIP3    H247699   2.032   6.600  12.512 -0.6404  1.2827  0.0609
 8762TIP3   OH247700   4.900   0.566  15.454  0.1494 -0.1080  0.0637
 8762TIP3    H147701   4.834   0.541  15.519 -0.5155  0.6071 -0.3239
 8762TIP3    H247702   4.866   0.647  15.416  0.8781 -0.1492 -0.6803
 8763TIP3   OH247703   1.510   5.682  14.533 -0.2173 -0.1405 -0.3258
 8763TIP3    H147704   1.539   5.773  14.540  0.7130 -0.5307  1.4057
 8763TIP3    H247705   1.421   5.688  14.498 -1.4992  1.6921  2.8860
 8764TIP3   OH247706   2.680   5.411   2.978  0.3046 -0.8038  0.4755
 8764TIP3    H147707   2.637   5.477   3.032 -0.1213  0.0473 -0.8793
 8764TIP3    H247708   2.629   5.407   2.898  1.2879 -1.6002 -0.1411
 8765TIP3   OH247709   1.204   5.535   3.055  0.0828  0.1136 -0.9073
 8765TIP3    H147710   1.247   5.586   3.124  0.0841  1.3056 -1.7643
 8765TIP3    H247711   1.262   5.460   3.041  0.1820 -0.0453  0.2359
 8766TIP3   OH247712   3.809   4.562  12.348 -0.2912  0.3269  0.1440
 8766TIP3    H147713   3.898   4.528  12.344 -0.5796 -0.4053 -0.2721
 8766TIP3    H247714   3.778   4.556  12.258 -0.2815  1.9185  0.0043
 8767TIP3   OH247715   0.909   2.579  16.787  0.6360 -0.6916 -0.0440
 8767TIP3    H147716   0.886   2.488  16.770  2.5308 -0.8142 -2.5118
 8767TIP3    H247717   0.998   2.575  16.823  0.4390  0.1699  0.5857
 8768TIP3   OH247718   5.156   6.682   6.031 -0.7147 -0.5385  0.5900
 8768TIP3    H147719   5.154   6.645   6.119  0.0537  1.0405  1.3203
 8768TIP3    H247720   5.242   6.659   5.996  0.0316  1.0549  1.3062
 8769TIP3   OH247721   4.183   5.870   4.533  0.3134  0.1165  0.3377
 8769TIP3    H147722   4.167   5.779   4.556  1.4396  0.0303  0.8842
 8769TIP3    H247723   4.139   5.921   4.601 -0.0363 -0.0331  0.2192
 8770TIP3   OH247724   2.556   0.363  14.307  0.1697 -0.0652 -0.0228
 8770TIP3    H147725   2.557   0.451  14.346 -0.5960  0.4726 -1.1735
 8770TIP3    H247726   2.475   0.360  14.257  0.1086 -1.5000  0.1293
 8771TIP3   OH247727   2.230   0.544   3.120  0.6743 -0.7100  0.1320
 8771TIP3    H147728   2.299   0.513   3.178  2.0675  1.2426 -0.3959
 8771TIP3    H247729   2.196   0.622   3.163 -1.0997 -1.5062  0.2659
 8772TIP3   OH247730   0.254   0.965   2.320  0.3405  0.0202 -0.2972
 8772TIP3    H147731   0.184   1.008   2.368  0.1916 -2.2043  1.6519
 8772TIP3    H247732   0.301   1.036   2.277 -1.5391  1.7988  0.4285
 8773TIP3   OH247733   0.945   5.160  11.933  0.3665 -0.6407  0.3389
 8773TIP3    H147734   0.921   5.252  11.918  0.8637  0.0858  3.2714
 8773TIP3    H247735   1.040   5.163  11.948  0.7360 -1.9882 -1.3985
 8774TIP3   OH247736   3.280   2.916  15.114 -0.7455  0.6305 -0.3982
 8774TIP3    H147737   3.198   2.878  15.148 -1.2251  3.3504  1.9388
 8774TIP3    H247738   3.255   3.004  15.087  0.8710  0.4569 -2.6614
 8775TIP3   OH247739   5.731   2.880  14.768  0.7164  0.0977 -0.5665
 8775TIP3    H147740   5.773   2.794  14.760  1.4602  0.4017 -0.1279
 8775TIP3    H247741   5.804   2.941  14.784  0.1041  0.6240  0.3729
 8776TIP3   OH247742   2.509   1.501   1.235 -0.4313 -0.0778  0.6072
 8776TIP3    H147743   2.597   1.530   1.209 -0.3484 -0.8442  0.0115
 8776TIP3    H247744   2.523   1.416   1.276 -0.8194  0.1393  1.2003
 8777TIP3   OH247745   3.593   2.142   5.376 -0.2816 -0.5307  0.1719
 8777TIP3    H147746   3.531   2.094   5.431 -1.1414  0.8842  0.4847
 8777TIP3    H247747   3.674   2.144   5.427  0.0917 -2.4412 -0.2677
 8778TIP3   OH247748   3.327   0.926  14.397  0.1870 -0.2619  0.2156
 8778TIP3    H147749   3.340   1.018  14.421  0.5972 -0.4594  0.7959
 8778TIP3    H247750   3.359   0.877  14.473 -0.5359 -0.8773  0.1355
 8779TIP3   OH247751   5.201   3.625   3.092 -0.0204  0.8368  0.3180
 8779TIP3    H147752   5.166   3.538   3.075  0.2331  0.2276  2.6678
 8779TIP3    H247753   5.183   3.673   3.011 -3.5547 -0.3084  0.2162
 8780TIP3   OH247754   3.975   1.487  16.813  0.5035  0.3710  0.3048
 8780TIP3    H147755   3.990   1.581  16.802  1.8443  0.0421 -1.0112
 8780TIP3    H247756   3.982   1.451  16.724 -1.2156 -0.8294  0.6127
 8781TIP3   OH247757   5.027   0.455   6.451  0.3716 -0.2599 -0.6457
 8781TIP3    H147758   4.975   0.531   6.478  0.1411 -0.5464 -0.2843
 8781TIP3    H247759   5.109   0.493   6.418  0.4756  0.1221  0.0320
 8782TIP3   OH247760   6.552   6.696  16.848  0.3270  0.2874  0.9883
 8782TIP3    H147761   6.540   6.785  16.881 -3.2259  0.5797 -0.6699
 8782TIP3    H247762   6.610   6.706  16.773 -2.2251  1.8172 -0.9478
 8783TIP3   OH247763   3.694   5.457  14.876 -0.0527  0.3324 -0.3590
 8783TIP3    H147764   3.740   5.373  14.880 -0.7658 -0.1096 -1.0406
 8783TIP3    H247765   3.738   5.505  14.806 -0.6035 -0.0877 -1.0070
 8784TIP3   OH247766   2.720   2.572   3.745 -0.3705  0.5519  0.2625
 8784TIP3    H147767   2.685   2.587   3.833 -1.7733 -0.3801 -0.1185
 8784TIP3    H247768   2.762   2.486   3.750 -1.5015 -0.0573 -0.2585
 8785TIP3   OH247769   2.663   5.454  15.079  0.0953  0.9885  0.4612
 8785TIP3    H147770   2.686   5.515  15.009 -0.7128  1.1420  0.3197
 8785TIP3    H247771   2.717   5.377  15.064  1.4704  1.8347  0.8978
 8786TIP3   OH247772   2.436   5.504   5.913  0.1769 -0.1055 -0.2298
 8786TIP3    H147773   2.413   5.484   6.003 -3.2255 -0.2585 -1.0039
 8786TIP3    H247774   2.444   5.600   5.911  3.5942 -0.2569  0.8032
 8787TIP3   OH247775   3.880   2.809  16.985  0.1279  0.4274 -0.1883
 8787TIP3    H147776   3.960   2.857  16.964  0.1011  1.4159  1.6827
 8787TIP3    H247777   3.909   2.738  17.042 -0.2105  0.1123 -0.4024
 8788TIP3   OH247778   5.416   4.668   1.107 -0.0762  0.6015 -0.7203
 8788TIP3    H147779   5.321   4.667   1.115 -0.0542 -2.1493  0.8324
 8788TIP3    H247780   5.447   4.705   1.190  0.1378 -0.7930 -0.1345
 8789TIP3   OH247781   4.889   0.648   3.369  0.1484 -0.5226  0.1418
 8789TIP3    H147782   4.866   0.736   3.397 -2.0742 -1.2374  0.7555
 8789TIP3    H247783   4.824   0.625   3.303  0.6554 -1.7089  0.0251
 8790TIP3   OH247784   5.426   6.112  13.096  0.3688  0.2449 -0.3736
 8790TIP3    H147785   5.335   6.082  13.101  0.6634 -0.5476  0.6744
 8790TIP3    H247786   5.434   6.152  13.010 -0.8979  0.0666 -0.5851
 8791TIP3   OH247787   4.673   5.514  11.945 -0.4729 -0.8576 -0.0106
 8791TIP3    H147788   4.763   5.505  11.976 -0.8741  0.6053  1.7783
 8791TIP3    H247789   4.670   5.602  11.907 -1.6085 -0.0197  1.8756
 8792TIP3   OH247790   5.823   4.699   2.286 -0.0778  0.5082  0.0022
 8792TIP3    H147791   5.852   4.710   2.377 -0.7723  0.3055  0.2526
 8792TIP3    H247792   5.903   4.676   2.238  0.1897  0.0009  0.6746
 8793TIP3   OH247793   2.795   0.540  15.304  0.4611  0.0188  0.1591
 8793TIP3    H147794   2.731   0.488  15.255 -0.4357  0.6791  0.6036
 8793TIP3    H247795   2.745   0.615  15.337  1.5237  0.6937  0.2967
 8794TIP3   OH247796   6.116   1.205  15.185 -0.1012  0.2540  0.2251
 8794TIP3    H147797   6.178   1.226  15.114  0.9566 -4.6408 -0.6402
 8794TIP3    H247798   6.169   1.204  15.264  0.4232 -1.2628 -0.1089
 8795TIP3   OH247799   2.163   4.052  15.914  0.3595  0.2314 -0.2476
 8795TIP3    H147800   2.145   4.109  15.840  1.1929 -1.1945 -1.6274
 8795TIP3    H247801   2.251   4.077  15.943  0.3436  0.2800 -0.2421
 8796TIP3   OH247802   5.426   6.622  14.879  0.0925  0.4755 -0.1248
 8796TIP3    H147803   5.480   6.544  14.893 -0.3935 -0.2131 -1.8137
 8796TIP3    H247804   5.395   6.646  14.967  2.5684  0.5305  0.8187
 8797TIP3   OH247805   6.368   6.675   5.427 -0.3640 -0.4951 -0.3024
 8797TIP3    H147806   6.340   6.583   5.430 -0.3906 -0.4954 -0.4961
 8797TIP3    H247807   6.373   6.703   5.518  0.4120 -0.9189 -0.2039
 8798TIP3   OH247808   5.811   4.438   1.358 -0.2297  0.3693  0.1291
 8798TIP3    H147809   5.791   4.469   1.269 -2.1692  0.4472  0.5528
 8798TIP3    H247810   5.727   4.409   1.393  0.1670  1.8225  2.5163
 8799TIP3   OH247811   0.337   3.542  15.808 -0.2043  0.3936  0.0689
 8799TIP3    H147812   0.382   3.486  15.872  0.6214 -1.6875 -2.1842
 8799TIP3    H247813   0.402   3.608  15.784  0.2182 -0.0952 -0.1427
 8800TIP3   OH247814   1.255   1.906  14.801  0.0883  0.1667 -0.2769
 8800TIP3    H147815   1.201   1.950  14.865 -0.1839  1.9024 -1.6191
 8800TIP3    H247816   1.203   1.831  14.772 -0.4423  0.2786  0.3839
 8801TIP3   OH247817   5.565   0.291  12.669 -0.1078  0.0170 -0.2275
 8801TIP3    H147818   5.561   0.351  12.594  1.6295 -0.7372 -0.9717
 8801TIP3    H247819   5.636   0.231  12.648  2.6279  1.6232  3.3323
 8802TIP3   OH247820   1.061   4.702  14.954 -0.1946 -0.2757 -0.2072
 8802TIP3    H147821   1.118   4.777  14.970  0.1902 -0.8256  1.2271
 8802TIP3    H247822   1.122   4.628  14.944 -0.5862 -0.9280  1.6773
 8803TIP3   OH247823   0.953   1.527   1.999 -0.4554  0.2604 -0.3383
 8803TIP3    H147824   1.028   1.467   1.999 -0.8867 -0.3340 -2.2661
 8803TIP3    H247825   0.879   1.473   2.028 -0.6680  0.0860 -1.1866
 8804TIP3   OH247826   6.436   0.058   1.715 -0.1479  0.3557  0.0434
 8804TIP3    H147827   6.439   0.154   1.709  0.1843  0.3199 -0.4507
 8804TIP3    H247828   6.501   0.029   1.651  0.9356 -0.1609  1.3436
 8805TIP3   OH247829   1.322   1.522   3.170 -0.0983  0.3376 -0.1667
 8805TIP3    H147830   1.230   1.537   3.149  0.1252  1.3300 -0.4924
 8805TIP3    H247831   1.349   1.451   3.112 -0.6082  0.1511 -0.1810
 8806TIP3   OH247832   3.756   1.166   2.370 -0.3334 -0.1626 -0.4204
 8806TIP3    H147833   3.831   1.190   2.315  0.1962  0.2172  0.4448
 8806TIP3    H247834   3.746   1.240   2.430 -2.6365  0.7171 -1.7421
 8807TIP3   OH247835   5.567   6.082  14.378 -0.4377 -0.9656  0.4954
 8807TIP3    H147836   5.537   5.991  14.372 -1.5664 -0.8816  3.6050
 8807TIP3    H247837   5.488   6.135  14.370  0.1170 -0.2547 -0.5072
 8808TIP3   OH247838   2.990   5.554   0.742  0.5955  0.1157 -0.4122
 8808TIP3    H147839   2.989   5.620   0.812 -0.4887 -0.4575  0.1418
 8808TIP3    H247840   2.917   5.579   0.685  0.9858  0.1311 -0.9042
 8809TIP3   OH247841   6.495   4.813   2.410 -0.3611 -0.6361  0.1335
 8809TIP3    H147842   6.573   4.759   2.422 -1.3926 -2.0798  0.6260
 8809TIP3    H247843   6.477   4.811   2.316 -0.3968 -1.1714  0.1523
 8810TIP3   OH247844   3.138   5.052  13.237 -0.1297  0.6365  0.0372
 8810TIP3    H147845   3.180   5.137  13.244 -0.9756  1.0179  0.7618
 8810TIP3    H247846   3.175   5.012  13.159 -0.3688  2.0309 -0.8091
 8811TIP3   OH247847   0.495   4.544   0.997  0.0691  0.3719 -0.4576
 8811TIP3    H147848   0.518   4.523   1.088 -2.2108 -1.4495 -0.2133
 8811TIP3    H247849   0.416   4.597   1.004  1.5882  2.9052 -1.3677
 8812TIP3   OH247850   1.405   3.589  12.680  0.3118 -0.2332 -0.6661
 8812TIP3    H147851   1.475   3.531  12.652  1.2067  0.7143 -0.4393
 8812TIP3    H247852   1.422   3.671  12.634 -0.0551  0.3256  0.1622
 8813TIP3   OH247853   5.629   6.030  15.230  0.1697 -0.6238 -0.3316
 8813TIP3    H147854   5.719   6.021  15.198  0.5437 -1.2023  0.8169
 8813TIP3    H247855   5.629   6.112  15.279 -0.1612 -0.1954 -1.0377
 8814TIP3   OH247856   4.635   0.391   1.315  0.0367 -0.0516 -0.5419
 8814TIP3    H147857   4.614   0.302   1.345  1.1972 -0.0789  0.2689
 8814TIP3    H247858   4.560   0.417   1.261 -0.5088 -1.3619 -0.4492
 8815TIP3   OH247859   5.943   1.647   4.587 -0.7461  0.7180 -0.1301
 8815TIP3    H147860   5.878   1.646   4.658 -0.4019  1.4035  0.1973
 8815TIP3    H247861   6.019   1.601   4.624 -1.5972 -1.6266 -1.0815
 8816TIP3   OH247862   0.741   2.105   2.313  0.3438 -0.2485 -0.0099
 8816TIP3    H147863   0.646   2.118   2.315  0.3272 -0.4309  0.6099
 8816TIP3    H247864   0.776   2.194   2.318  0.2241  0.0912 -3.2719
 8817TIP3   OH247865   6.596   0.015   4.666 -0.3003 -0.3878 -0.4761
 8817TIP3    H147866   6.592  -0.049   4.737 -1.0611  0.6770  0.4662
 8817TIP3    H247867   6.614   0.099   4.710  0.9729  0.0228 -1.7050
 8818TIP3   OH247868   3.951   2.683   1.281 -0.1321  0.3911  0.0030
 8818TIP3    H147869   3.899   2.621   1.333  0.3294  0.2550  0.3101
 8818TIP3    H247870   3.991   2.741   1.346  0.1652  0.4422 -0.2240
 8819TIP3   OH247871   3.176   6.277  14.633 -0.5876  0.2679 -0.2317
 8819TIP3    H147872   3.218   6.301  14.551  0.5155 -1.1995 -0.1422
 8819TIP3    H247873   3.235   6.312  14.701 -2.3851  3.0694  0.0660
 8820TIP3   OH247874   5.127   0.181  15.575  0.0709  0.3989  0.1151
 8820TIP3    H147875   5.132   0.256  15.517 -1.5170  1.0918  0.7940
 8820TIP3    H247876   5.037   0.183  15.608  0.1584 -1.4716  0.5935
 8821TIP3   OH247877   4.571   6.374   2.765  0.2238 -0.1304 -0.3769
 8821TIP3    H147878   4.633   6.429   2.718  0.3654 -0.8324 -1.0231
 8821TIP3    H247879   4.592   6.388   2.857  1.1570 -0.1410 -0.5798
 8822TIP3   OH247880   3.189   4.116   5.222 -0.2098  0.4439  0.2050
 8822TIP3    H147881   3.214   4.029   5.191  2.6422  1.3222 -0.2270
 8822TIP3    H247882   3.256   4.140   5.286  0.5942  3.2654 -1.5065
 8823TIP3   OH247883   2.370   5.037  15.652  0.3260  0.3925  0.1066
 8823TIP3    H147884   2.318   5.091  15.592  0.7319 -0.2949 -0.8802
 8823TIP3    H247885   2.351   4.947  15.627  1.8666  0.1273 -0.1804
 8824TIP3   OH247886   5.594   6.701  17.264  0.0765 -0.1085 -0.2938
 8824TIP3    H147887   5.632   6.762  17.201 -0.6025  2.3506  1.4864
 8824TIP3    H247888   5.508   6.680  17.230 -0.0160  0.6468 -0.5323
 8825TIP3   OH247889   0.407   1.895  16.079  0.8134 -0.2593  0.6470
 8825TIP3    H147890   0.332   1.930  16.031 -0.7063 -2.1028  1.5253
 8825TIP3    H247891   0.481   1.903  16.018 -0.3931  0.3017 -0.7881
 8826TIP3   OH247892   6.644   3.264   0.970 -0.4373 -0.0593  0.4985
 8826TIP3    H147893   6.564   3.281   1.019 -0.5558  0.0073  0.2848
 8826TIP3    H247894   6.643   3.328   0.898 -0.2140 -0.0838  0.4699
 8827TIP3   OH247895   2.486   0.212  12.541  0.5401  0.0998 -0.1960
 8827TIP3    H147896   2.547   0.142  12.518 -0.2146 -0.8914  0.7455
 8827TIP3    H247897   2.536   0.269  12.600  0.4893 -0.8630  0.7977
 8828TIP3   OH247898   1.011   2.911  14.619 -0.2893 -0.2680  0.1769
 8828TIP3    H147899   0.969   2.954  14.694  0.9590 -0.3023  0.9228
 8828TIP3    H247900   0.948   2.844  14.592 -1.3846  0.6721  0.2744
 8829TIP3   OH247901   4.095   0.817  15.818 -0.4414 -0.1755 -0.4062
 8829TIP3    H147902   4.133   0.905  15.826 -0.9574  0.0432 -0.2905
 8829TIP3    H247903   4.016   0.831  15.766 -0.0538 -0.7155 -1.1442
 8830TIP3   OH247904   1.342   0.645  11.929  0.4420  0.0489  0.2608
 8830TIP3    H147905   1.344   0.740  11.933 -0.0955  0.0262  1.6139
 8830TIP3    H247906   1.261   0.620  11.973  0.6787 -1.0413  0.1196
 8831TIP3   OH247907   0.726   5.264  16.910 -0.0746 -0.5843  0.0910
 8831TIP3    H147908   0.820   5.269  16.928 -0.1592  0.7870  0.2200
 8831TIP3    H247909   0.686   5.321  16.975 -0.7937  0.6396 -1.3669
 8832TIP3   OH247910   3.685   0.990   2.161 -0.1501  0.4491  0.1999
 8832TIP3    H147911   3.691   1.055   2.231 -0.2057 -0.6702  1.2829
 8832TIP3    H247912   3.643   0.914   2.202 -1.0800  0.0929 -1.3014
 8833TIP3   OH247913   2.246   1.853  12.385 -0.1436  0.3721  0.5383
 8833TIP3    H147914   2.320   1.912  12.397 -0.0065  0.0802  1.1951
 8833TIP3    H247915   2.208   1.844  12.472  0.0473 -0.7673  0.5222
 8834TIP3   OH247916   2.946   0.553  14.646 -0.2246 -0.0924 -0.0779
 8834TIP3    H147917   2.904   0.613  14.584  0.9020  0.1827 -0.6042
 8834TIP3    H247918   2.876   0.526  14.705 -0.8313  1.5057 -0.0138
 8835TIP3   OH247919   4.257   1.047  15.735  0.5047  0.1201 -0.4238
 8835TIP3    H147920   4.264   1.020  15.644  2.9152  2.2111 -0.9829
 8835TIP3    H247921   4.346   1.042  15.769 -0.5204 -2.0521  2.3660
 8836TIP3   OH247922   4.373   6.076  14.140 -0.3994  0.2218  0.2041
 8836TIP3    H147923   4.429   6.145  14.104 -0.9376  0.5829  0.0570
 8836TIP3    H247924   4.420   6.045  14.218 -1.1026  2.1610  1.4711
 8837TIP3   OH247925   6.014   5.588   3.883 -0.1157  0.3409  0.4808
 8837TIP3    H147926   6.024   5.666   3.829  4.3634  1.5364  2.5724
 8837TIP3    H247927   6.065   5.520   3.839 -1.1245 -0.4026  0.4199
 8838TIP3   OH247928   0.405   3.032   1.167  0.5860 -0.5689 -0.3309
 8838TIP3    H147929   0.341   3.089   1.210  0.5007 -0.8367 -0.0915
 8838TIP3    H247930   0.448   3.087   1.102  1.5814  0.1895  0.9296
 8839TIP3   OH247931   4.465   4.964   1.059 -0.3811 -0.8238  0.1586
 8839TIP3    H147932   4.370   4.960   1.050 -0.3022 -1.1033 -0.6210
 8839TIP3    H247933   4.489   4.876   1.086 -0.2009 -1.2264 -1.2272
 8840TIP3   OH247934   2.044   5.044  14.999 -0.1061  0.0950 -0.5382
 8840TIP3    H147935   2.079   4.956  14.988  0.0520 -0.0143  0.7095
 8840TIP3    H247936   2.059   5.087  14.915  1.5038 -0.4754 -0.5620
 8841TIP3   OH247937   4.216   2.379  11.771  0.0137  0.1387  0.4538
 8841TIP3    H147938   4.302   2.410  11.800  0.8440 -0.0180 -1.6308
 8841TIP3    H247939   4.163   2.458  11.765  0.3352  0.3828  0.7933
 8842TIP3   OH247940   4.250   4.048   2.799 -0.0821 -0.0864  0.2507
 8842TIP3    H147941   4.232   4.109   2.728  0.4004 -0.8383 -0.5484
 8842TIP3    H247942   4.311   3.984   2.761 -1.0470 -1.4246  0.8530
 8843TIP3   OH247943   1.735   3.652   0.138 -0.5927  0.5389 -0.1446
 8843TIP3    H147944   1.802   3.583   0.142  0.6480  1.7511  1.8059
 8843TIP3    H247945   1.652   3.605   0.141  0.1744 -0.9610 -1.1630
 8844TIP3   OH247946   4.694   2.931   5.608  0.3690 -0.1872  0.2352
 8844TIP3    H147947   4.722   2.926   5.516 -0.3945 -0.6929  0.0161
 8844TIP3    H247948   4.600   2.914   5.605  0.0460  1.3683  0.9567
 8845TIP3   OH247949   3.436   5.105  12.714 -0.1573  0.3441 -0.0007
 8845TIP3    H147950   3.500   5.095  12.784 -1.2209  0.6395  1.0541
 8845TIP3    H247951   3.382   5.025  12.720 -0.1699  0.3083 -0.5726
 8846TIP3   OH247952   0.469   6.452   0.537 -0.4188 -0.0582  0.4727
 8846TIP3    H147953   0.466   6.392   0.611 -1.0653 -0.5367  0.0746
 8846TIP3    H247954   0.466   6.395   0.460 -0.9056  0.4750  0.0878
 8847TIP3   OH247955   0.657   4.819   3.706  0.1999 -0.6068 -0.4841
 8847TIP3    H147956   0.613   4.902   3.690  0.7837 -0.1267  0.2949
 8847TIP3    H247957   0.591   4.752   3.690 -0.6614  0.0707  0.1843
 8848TIP3   OH247958   5.685   4.937  10.667  0.2276 -0.9619 -0.1702
 8848TIP3    H147959   5.726   5.004  10.613  0.2368 -0.2863  0.6597
 8848TIP3    H247960   5.621   4.896  10.609  0.7029 -0.7096 -0.8900
 8849TIP3   OH247961   3.286   3.841  14.451 -0.4018  0.4290  0.3890
 8849TIP3    H147962   3.279   3.764  14.395  2.1857  0.0673  0.4476
 8849TIP3    H247963   3.196   3.871  14.462 -1.3803 -1.9511 -0.5015
 8850TIP3   OH247964   3.201   0.522  15.354 -0.2783  0.2440  0.6535
 8850TIP3    H147965   3.173   0.451  15.295 -1.7133  0.8122  0.6168
 8850TIP3    H247966   3.283   0.490  15.392  0.7352 -0.1352 -1.6564
 8851TIP3   OH247967   2.744   2.662  16.514 -0.4477 -0.5533  0.0840
 8851TIP3    H147968   2.831   2.703  16.509  0.9271 -3.2577 -0.5011
 8851TIP3    H247969   2.715   2.655  16.423 -2.0523  1.6754  0.3544
 8852TIP3   OH247970   3.899   5.532  14.718  0.1026 -0.0125 -0.4957
 8852TIP3    H147971   3.962   5.571  14.658  2.2622 -0.2015  1.4634
 8852TIP3    H247972   3.874   5.449  14.678  0.1518  0.6308 -1.8845
 8853TIP3   OH247973   5.004   2.123   4.738 -0.5476 -0.0588  0.0120
 8853TIP3    H147974   5.085   2.124   4.789 -1.0696 -0.5694  0.8738
 8853TIP3    H247975   4.976   2.032   4.739  0.7510 -0.6291 -3.4066
 8854TIP3   OH247976   5.352   0.307   2.517 -0.2565 -0.3750 -0.8962
 8854TIP3    H147977   5.376   0.318   2.610 -1.0203 -0.4648 -0.6813
 8854TIP3    H247978   5.259   0.285   2.519  0.1049 -2.1389 -1.5828
 8855TIP3   OH247979   4.742   0.343   1.611  0.0978 -0.4263  0.6673
 8855TIP3    H147980   4.805   0.415   1.619 -0.8214  0.6048 -0.8286
 8855TIP3    H247981   4.659   0.380   1.641 -0.4302 -0.7761 -0.2991
 8856TIP3   OH247982   0.066   1.619  16.079 -0.8288 -0.3241 -0.7724
 8856TIP3    H147983   0.050   1.704  16.037  0.5520  0.4407  0.1862
 8856TIP3    H247984   0.109   1.641  16.162  0.4248 -1.9861 -0.9315
 8857TIP3   OH247985   2.585   1.036   2.556 -0.1822 -0.6444  0.1113
 8857TIP3    H147986   2.592   1.093   2.479 -2.5072  1.0881  1.0455
 8857TIP3    H247987   2.670   1.043   2.599  0.1456  0.8172 -0.6860
 8858TIP3   OH247988   5.776   1.894   5.214 -0.6067  0.2978 -0.2360
 8858TIP3    H147989   5.837   1.830   5.178 -0.9935  0.4282 -1.1600
 8858TIP3    H247990   5.702   1.843   5.246  0.1926  0.0905  1.3979
 8859TIP3   OH247991   0.586   6.692  14.839 -0.2754  0.2086 -0.0503
 8859TIP3    H147992   0.570   6.598  14.837  0.4654  0.0713 -2.3632
 8859TIP3    H247993   0.681   6.700  14.849 -0.0893  0.6230 -1.8662
 8860TIP3   OH247994   6.306   3.026   0.723  0.2397 -0.3000  0.3646
 8860TIP3    H147995   6.226   3.077   0.722  1.1731  1.3612  2.4533
 8860TIP3    H247996   6.320   3.005   0.816  1.8528 -1.1496 -0.0245
 8861TIP3   OH247997   6.214   1.534  17.343  0.0395  0.4059 -0.2470
 8861TIP3    H147998   6.139   1.479  17.319  0.1977  0.4688 -0.9056
 8861TIP3    H247999   6.217   1.601  17.275  0.7575  0.3480 -0.2778
 8862TIP3   OH248000   0.982   4.254   2.005 -0.1303  0.8174  0.3537
 8862TIP3    H148001   0.940   4.267   1.920 -1.5398  0.5191  0.9848
 8862TIP3    H248002   0.928   4.304   2.067  0.9949  1.2017  1.0535
 8863TIP3   OH248003   0.150   5.685   0.276  0.2586  0.4132  0.1009
 8863TIP3    H148004   0.110   5.766   0.306  0.3859  0.1473  1.0468
 8863TIP3    H248005   0.096   5.616   0.316  0.6058  0.0415 -0.0649
 8864TIP3   OH248006   0.873   1.820   0.015  0.6971 -0.2092  0.0061
 8864TIP3    H148007   0.837   1.821   0.103  1.6396 -0.2247  0.4077
 8864TIP3    H248008   0.959   1.779   0.025  0.4076 -1.1554 -1.0862
 8865TIP3   OH248009   1.424   2.020   1.523 -0.0025 -0.0767  0.0309
 8865TIP3    H148010   1.429   2.095   1.464 -0.3300  0.5802  0.8173
 8865TIP3    H248011   1.369   1.957   1.477  0.5474  0.0222 -0.7831
 8866TIP3   OH248012   3.237   3.239   1.435 -0.6945 -0.1752  0.5931
 8866TIP3    H148013   3.165   3.289   1.474 -1.1592 -0.6083  0.3041
 8866TIP3    H248014   3.241   3.270   1.345  0.5578  1.0234  1.0202
 8867TIP3   OH248015   1.338   4.632  10.944  0.0184 -0.1034  0.0262
 8867TIP3    H148016   1.256   4.677  10.966  0.7863  0.3284  2.1273
 8867TIP3    H248017   1.353   4.572  11.017  1.4609 -0.3566 -0.4534
 8868TIP3   OH248018   6.753   3.651   1.653  0.4401 -0.3491 -0.2798
 8868TIP3    H148019   6.828   3.629   1.597  1.0202  0.4981  0.1510
 8868TIP3    H248020   6.681   3.597   1.618  1.0374 -0.5767 -1.2051
 8869TIP3   OH248021   1.798   5.867  17.011  0.0079  0.0876  0.6364
 8869TIP3    H148022   1.736   5.905  16.948 -0.4266 -0.2528  0.8537
 8869TIP3    H248023   1.794   5.773  16.994 -0.4994 -0.0558  1.5269
 8870TIP3   OH248024   1.134   3.918   0.687 -0.2169  0.0351  0.4766
 8870TIP3    H148025   1.185   3.945   0.764  0.1662 -2.7359  1.2986
 8870TIP3    H248026   1.189   3.940   0.613  1.2634 -0.9084  1.2418
 8871TIP3   OH248027   3.740   6.067  15.890 -0.2106  0.1348 -0.6326
 8871TIP3    H148028   3.800   6.036  15.823 -0.9822 -1.7443 -0.5061
 8871TIP3    H248029   3.672   6.115  15.842  0.5956  1.0327 -0.9041
 8872TIP3   OH248030   4.267   3.466  13.244  0.4288 -0.1180 -0.6279
 8872TIP3    H148031   4.338   3.482  13.181  0.0552  1.6175 -0.6479
 8872TIP3    H248032   4.230   3.552  13.262  0.3855 -0.5696  1.8496
 8873TIP3   OH248033   1.556   0.977  16.629  0.1224  0.4479 -0.0959
 8873TIP3    H148034   1.581   0.885  16.630 -1.4197  0.0044  0.3990
 8873TIP3    H248035   1.460   0.976  16.628  0.0604  2.0414  0.9746
 8874TIP3   OH248036   6.199   3.955   3.548  0.0365  0.4697 -0.0799
 8874TIP3    H148037   6.137   3.929   3.615 -0.0579  2.9920  0.9115
 8874TIP3    H248038   6.151   3.949   3.466 -1.4247  1.8856  0.6203
 8875TIP3   OH248039   1.971   5.769   0.236 -0.8659  0.5765  0.6352
 8875TIP3    H148040   2.022   5.846   0.208 -0.6431 -0.5316 -2.3867
 8875TIP3    H248041   1.890   5.806   0.270 -1.1221  2.2288 -1.5333
 8876TIP3   OH248042   3.764   3.765  16.432  0.2402  0.3083  0.5585
 8876TIP3    H148043   3.718   3.829  16.378  0.4753  0.8423  0.9838
 8876TIP3    H248044   3.713   3.760  16.513 -1.0889 -1.7392 -0.3055
 8877TIP3   OH248045   2.861   3.386  15.588 -0.2828  0.1386  0.0612
 8877TIP3    H148046   2.831   3.301  15.619  0.6139  0.2220  1.1927
 8877TIP3    H248047   2.796   3.448  15.622  0.2887  0.1470  1.1613
 8878TIP3   OH248048   0.069   6.186   0.962 -0.0103 -0.7394 -0.2008
 8878TIP3    H148049   0.022   6.133   1.025  1.7061 -1.0370  0.9022
 8878TIP3    H248050   0.095   6.125   0.892 -1.9391 -0.4024 -1.2790
 8879TIP3   OH248051   2.661   2.165   5.642  0.7676  1.3439  0.0152
 8879TIP3    H148052   2.747   2.204   5.623  0.5254  1.7834 -0.1956
 8879TIP3    H248053   2.669   2.074   5.613  0.2886  2.0559 -2.6261
 8880TIP3   OH248054   6.666   0.700  13.565  0.1227 -0.0686  0.4524
 8880TIP3    H148055   6.644   0.608  13.552  0.9409 -0.2029 -0.0918
 8880TIP3    H248056   6.664   0.737  13.477  1.9333 -0.0798  0.3643
 8881TIP3   OH248057   5.413   6.154   0.904 -0.1265 -0.3950 -0.1285
 8881TIP3    H148058   5.465   6.182   0.979 -0.4903  1.1229 -0.3997
 8881TIP3    H248059   5.336   6.111   0.941  0.2833 -0.7377  0.3288
 8882TIP3   OH248060   1.858   3.721  16.195  0.5083 -0.3728  0.6415
 8882TIP3    H148061   1.865   3.803  16.244 -0.7438  0.1733 -0.0693
 8882TIP3    H248062   1.888   3.742  16.107  0.2607 -0.6970  0.4746
 8883TIP3   OH248063   0.173   0.612  11.078 -1.0681  0.2324  0.8469
 8883TIP3    H148064   0.123   0.684  11.040 -0.1613  0.4725  0.0537
 8883TIP3    H248065   0.214   0.569  11.003  0.5577  0.5614  1.4957
 8884TIP3   OH248066   3.644   3.907  13.505 -0.3311 -0.0322 -0.1473
 8884TIP3    H148067   3.629   3.858  13.586  0.0588 -1.3267 -0.8311
 8884TIP3    H248068   3.735   3.887  13.482 -0.0957  1.2053 -0.3230
 8885TIP3   OH248069   6.538   5.987   4.567 -0.4216  0.2941 -0.1402
 8885TIP3    H148070   6.572   6.073   4.545 -0.9374  0.3447 -0.7763
 8885TIP3    H248071   6.581   5.927   4.505  0.6813 -0.0647  0.9284
 8886TIP3   OH248072   3.619   6.586  15.626 -0.5388 -0.9957 -0.3849
 8886TIP3    H148073   3.582   6.545  15.547 -0.7266 -1.2226 -0.1837
 8886TIP3    H248074   3.711   6.561  15.625 -0.2706 -0.0483 -1.1336
 8887TIP3   OH248075   1.573   1.982  12.871  0.2879  0.1971  0.6307
 8887TIP3    H148076   1.516   1.905  12.879 -0.5622  0.8319  0.7982
 8887TIP3    H248077   1.640   1.955  12.807  0.0950 -0.7269  0.7947
 8888TIP3   OH248078   3.009   6.367   1.653  0.0575  0.1600  0.0019
 8888TIP3    H148079   3.031   6.376   1.746 -1.1814  0.5233  0.2824
 8888TIP3    H248080   2.961   6.284   1.648  2.3439 -1.2048 -0.7880
 8889TIP3   OH248081   5.362   5.834   0.986 -0.3998 -0.1178  0.0917
 8889TIP3    H148082   5.278   5.791   1.000  0.7148 -2.9390 -1.1511
 8889TIP3    H248083   5.372   5.838   0.890  1.1949 -0.6125  0.1954
 8890TIP3   OH248084   5.649   2.890   1.210  0.3321 -0.1719  0.2669
 8890TIP3    H148085   5.719   2.942   1.170  0.2368 -0.3679 -0.1586
 8890TIP3    H248086   5.677   2.799   1.198  0.4845 -0.2279  0.9824
 8891TIP3   OH248087   5.019   2.841   5.189  0.0258  0.0792 -0.5381
 8891TIP3    H148088   5.054   2.926   5.163 -0.5591  0.2620 -0.7389
 8891TIP3    H248089   5.063   2.778   5.131  0.8377  0.1824 -0.0485
 8892TIP3   OH248090   5.957   3.999   2.360 -0.0213 -0.8314 -0.3247
 8892TIP3    H148091   6.027   4.062   2.343 -1.7660  1.2252 -0.3740
 8892TIP3    H248092   5.920   4.026   2.444  0.0338 -2.6739  0.3395
 8893TIP3   OH248093   4.936   2.576  15.754  0.3283  0.6681  0.1250
 8893TIP3    H148094   4.870   2.614  15.697  0.7096 -0.7306 -1.3325
 8893TIP3    H248095   4.925   2.622  15.837 -0.7724  2.2340 -0.8161
 8894TIP3   OH248096   5.586   0.006  15.655 -0.2621 -0.0746 -0.7468
 8894TIP3    H148097   5.650   0.046  15.595 -2.5800  1.4440 -2.3922
 8894TIP3    H248098   5.575  -0.083  15.621  0.1051  0.0402 -1.1865
 8895TIP3   OH248099   0.506   6.692  14.443  0.5219  0.0533  0.4767
 8895TIP3    H148100   0.432   6.636  14.419  0.2428  0.0121  1.3842
 8895TIP3    H248101   0.541   6.653  14.523  2.2772 -0.6023 -0.5717
 8896TIP3   OH248102   3.087   2.302   5.565 -0.0309 -0.7560 -0.1474
 8896TIP3    H148103   3.177   2.318   5.538  0.8085 -1.3135  2.1009
 8896TIP3    H248104   3.091   2.224   5.620 -1.8619 -0.6967  0.1617
 8897TIP3   OH248105   2.227   2.666  12.907  0.6605  0.2164  0.2712
 8897TIP3    H148106   2.319   2.653  12.882  0.2200 -0.9053 -0.8698
 8897TIP3    H248107   2.208   2.594  12.966  1.3251  2.1413  3.0181
 8898TIP3   OH248108   3.114   3.119   5.402 -0.0049 -0.3704  0.8417
 8898TIP3    H148109   3.130   3.061   5.476 -0.8222 -2.2103 -0.3325
 8898TIP3    H248110   3.040   3.174   5.430  1.9606  1.5090  2.6722
 8899TIP3   OH248111   2.188   6.539   1.627  0.1993  0.6448 -0.2061
 8899TIP3    H148112   2.231   6.468   1.675  1.6240  1.4343 -0.2720
 8899TIP3    H248113   2.097   6.536   1.657  0.4713 -0.5406  0.5689
 8900TIP3   OH248114   0.096   6.384   1.353 -0.0154 -0.2550  0.1654
 8900TIP3    H148115   0.003   6.359   1.350  0.0587 -0.8851  2.2214
 8900TIP3    H248116   0.143   6.303   1.330  0.0739 -0.5497  1.3573
 8901TIP3   OH248117   6.358   3.953   2.574 -0.1591 -0.0383  0.1898
 8901TIP3    H148118   6.319   3.924   2.491 -1.1779  0.8302  0.3412
 8901TIP3    H248119   6.333   3.886   2.637  1.0511 -0.9711 -0.2833
 8902TIP3   OH248120   3.599   5.498   2.811 -0.2037 -0.0500 -0.1387
 8902TIP3    H148121   3.601   5.507   2.907 -1.0762  0.5747 -0.1696
 8902TIP3    H248122   3.688   5.520   2.783 -0.4168  1.5884  0.3840
 8903TIP3   OH248123   6.593   1.744   1.251  0.3708 -0.3151  0.1292
 8903TIP3    H148124   6.523   1.768   1.312  0.6900 -0.4620  0.5559
 8903TIP3    H248125   6.548   1.700   1.179 -0.0731  0.3666 -0.0199
 8904TIP3   OH248126   0.917   1.940   3.133 -0.0792 -0.0856 -0.3630
 8904TIP3    H148127   0.837   1.947   3.080  0.9036  1.7882 -1.7150
 8904TIP3    H248128   0.988   1.946   3.070  1.1506  2.3791  1.1290
 8905TIP3   OH248129   5.938   1.232   2.469  0.4336  0.0151 -1.0880
 8905TIP3    H148130   5.977   1.151   2.502 -1.2846  0.7963  3.5894
 8905TIP3    H248131   6.013   1.285   2.443  1.8279 -1.7189 -0.8394
 8906TIP3   OH248132   6.216   3.842   5.054  0.3109  0.2919 -0.4772
 8906TIP3    H148133   6.167   3.916   5.019 -0.7812 -0.0624  0.2600
 8906TIP3    H248134   6.251   3.873   5.137  1.0043  0.4047 -0.8019
 8907TIP3   OH248135   4.353   5.318  13.023 -0.5943  0.2005 -0.2588
 8907TIP3    H148136   4.348   5.258  13.098 -0.0519  0.4853  0.0079
 8907TIP3    H248137   4.297   5.277  12.957 -1.1745  0.0037  0.3373
 8908TIP3   OH248138   3.931   5.902   6.579  0.3311  0.0501  0.2285
 8908TIP3    H148139   3.984   5.919   6.657 -0.7486  2.9364  0.4323
 8908TIP3    H248140   3.883   5.822   6.600  2.2533 -0.9003  1.2679
 8909TIP3   OH248141   3.713   0.932   4.484 -0.4841 -0.3164  0.1440
 8909TIP3    H148142   3.784   0.884   4.527 -1.2507 -1.6571 -0.0221
 8909TIP3    H248143   3.751   0.962   4.401  0.2384  0.0565  0.5955
 8910TIP3   OH248144   0.050   2.691  12.296 -0.2428 -0.0878  0.2084
 8910TIP3    H148145   0.056   2.633  12.372  0.8533 -1.2241 -0.7103
 8910TIP3    H248146   0.010   2.771  12.330 -1.8721 -1.3899  1.4978
 8911TIP3   OH248147   6.495   6.680  12.510  0.5057 -0.4111  0.2641
 8911TIP3    H148148   6.420   6.686  12.568  1.6065 -0.2675  1.7231
 8911TIP3    H248149   6.469   6.731  12.433 -1.6343 -1.9993 -0.1715
 8912TIP3   OH248150   3.547   6.413   0.189  0.0812  0.3037  0.7786
 8912TIP3    H148151   3.531   6.406   0.095  0.1424  1.3531  0.6747
 8912TIP3    H248152   3.460   6.406   0.229 -0.0454  0.7009  0.5802
 8913TIP3   OH248153   5.670   0.478   0.994 -0.7161  0.3457  0.4736
 8913TIP3    H148154   5.634   0.395   1.026  1.1991 -0.8024 -0.2442
 8913TIP3    H248155   5.701   0.522   1.074  0.6063 -0.8228  0.6495
 8914TIP3   OH248156   0.345   0.082   1.974  0.0773 -0.8949 -0.0886
 8914TIP3    H148157   0.292   0.088   2.053  0.2512 -0.6772  0.0133
 8914TIP3    H248158   0.322  -0.002   1.935  1.1879 -1.7475  1.0418
 8915TIP3   OH248159   0.571   3.397  11.880  0.0554  0.3778  0.3933
 8915TIP3    H148160   0.501   3.429  11.823 -0.7572  0.6180  1.5018
 8915TIP3    H248161   0.601   3.475  11.927  0.7242  0.1824  0.3050
 8916TIP3   OH248162   5.644   3.332  11.367 -1.0202 -0.0073  0.1864
 8916TIP3    H148163   5.602   3.293  11.290 -0.4274  1.2104 -0.7942
 8916TIP3    H248164   5.723   3.373  11.332  0.0980 -0.7670  1.7131
 8917TIP3   OH248165   1.334   4.567   0.259  0.1370  0.0266  0.7892
 8917TIP3    H148166   1.247   4.556   0.297  0.5661 -1.6464  1.3853
 8917TIP3    H248167   1.386   4.604   0.330  0.1653  0.0486  0.7571
 8918TIP3   OH248168   6.633   5.636   0.666  0.4113 -0.0213  0.8693
 8918TIP3    H148169   6.620   5.725   0.634  0.1631 -0.0341  0.9313
 8918TIP3    H248170   6.698   5.598   0.607 -0.2127 -0.1204  0.2251
 8919TIP3   OH248171   4.975   5.024  12.887 -0.4169  0.0284  0.0543
 8919TIP3    H148172   4.902   5.042  12.946  0.6056  1.0417  1.0764
 8919TIP3    H248173   4.998   4.933  12.904 -1.6148 -0.3912 -0.4984
 8920TIP3   OH248174   3.542   2.822  14.198  0.1985  0.1407 -0.6867
 8920TIP3    H148175   3.576   2.860  14.279  0.5602 -0.8635 -0.3615
 8920TIP3    H248176   3.619   2.789  14.153 -0.1595 -0.6817 -0.7160
 8921TIP3   OH248177   0.944   3.320  11.590  0.4676 -0.3390  0.1172
 8921TIP3    H148178   1.008   3.268  11.637  1.1759 -0.9018 -1.4100
 8921TIP3    H248179   0.913   3.262  11.520 -1.0343  0.2385  0.2731
 8922TIP3   OH248180   4.341   0.419   5.032  0.0393 -0.4258  0.1340
 8922TIP3    H148181   4.421   0.471   5.037  0.2207 -0.6194 -0.6367
 8922TIP3    H248182   4.278   0.476   4.989  0.6056 -1.2328 -1.9055
 8923TIP3   OH248183   1.697   1.192   5.465 -0.2696 -0.2274  0.9106
 8923TIP3    H148184   1.609   1.180   5.502 -1.1189  0.5153 -0.7227
 8923TIP3    H248185   1.707   1.120   5.403  0.0149  0.0343  0.6511
 8924TIP3   OH248186   1.547   3.300   3.508 -0.0094 -0.0509  0.4414
 8924TIP3    H148187   1.531   3.322   3.416 -2.7024 -1.8779  0.3288
 8924TIP3    H248188   1.633   3.258   3.508 -0.4792 -1.1609 -1.5234
 8925TIP3   OH248189   1.829   5.263  17.232 -0.2836  0.1579 -0.0158
 8925TIP3    H148190   1.778   5.183  17.225  0.1952 -0.1189 -0.3871
 8925TIP3    H248191   1.795   5.319  17.162 -0.1289  0.0010 -0.2179
 8926TIP3   OH248192   6.226   5.920   5.831  0.0045  0.3530  0.3948
 8926TIP3    H148193   6.257   6.006   5.859  0.2133  0.5297 -0.3438
 8926TIP3    H248194   6.286   5.895   5.761 -0.2008 -0.2862  0.4466
 8927TIP3   OH248195   5.033   6.374  13.230 -0.4996  0.1701  0.7765
 8927TIP3    H148196   5.012   6.461  13.263  2.1248  1.8422 -1.4912
 8927TIP3    H248197   4.961   6.353  13.170  0.0203  2.0365 -0.6146
 8928TIP3   OH248198   3.559   2.479  15.692 -0.1995  0.0511  0.3511
 8928TIP3    H148199   3.591   2.491  15.603 -2.2130 -0.0310 -0.4296
 8928TIP3    H248200   3.464   2.477  15.683 -0.4861  0.9254  2.6191
 8929TIP3   OH248201   0.593   6.645   1.090 -0.2954 -0.0916  0.2115
 8929TIP3    H148202   0.598   6.740   1.084  0.0749 -0.0203  1.3618
 8929TIP3    H248203   0.631   6.624   1.176 -0.3070 -1.2790 -0.0512
 8930TIP3   OH248204   1.663   3.912  15.274  0.8194  0.7643 -0.0518
 8930TIP3    H148205   1.574   3.936  15.248  1.1525  0.5359 -1.4769
 8930TIP3    H248206   1.664   3.816  15.270  1.0165  0.7439  0.3912
 8931TIP3   OH248207   1.963   4.474   0.860 -0.0265 -0.0132  0.3116
 8931TIP3    H148208   2.029   4.441   0.799  1.3465 -0.7313  2.0914
 8931TIP3    H248209   1.974   4.569   0.858  0.2707 -0.0555 -0.2518
 8932TIP3   OH248210   0.000   5.460   5.002 -0.0237 -0.7000  0.0460
 8932TIP3    H148211   0.049   5.422   5.074 -0.4516 -0.9090  0.2246
 8932TIP3    H248212   0.055   5.533   4.972  0.6891 -1.3090 -0.1529
 8933TIP3   OH248213   6.037   2.771  13.910 -0.2134 -0.4822  0.6651
 8933TIP3    H148214   6.056   2.852  13.863  0.1540 -1.1955 -0.4607
 8933TIP3    H248215   5.978   2.723  13.851  0.4341 -1.4947  0.8135
 8934TIP3   OH248216   0.661   4.599   4.870  0.0963  0.4835  0.6629
 8934TIP3    H148217   0.691   4.523   4.920 -1.0722  1.6270  3.2646
 8934TIP3    H248218   0.721   4.669   4.893 -0.5170  1.0603  0.5498
 8935TIP3   OH248219   0.622   0.693   2.403 -0.3695  0.3759 -0.4769
 8935TIP3    H148220   0.655   0.698   2.493 -0.8335 -3.1609  0.0367
 8935TIP3    H248221   0.533   0.726   2.408  0.1584  1.8000 -0.0400
 8936TIP3   OH248222   1.699   2.135   1.643  0.7209 -0.0075 -0.2726
 8936TIP3    H148223   1.672   2.099   1.558 -0.3594 -1.3790  0.6114
 8936TIP3    H248224   1.780   2.089   1.663  0.5591 -0.2613 -0.1997
 8937TIP3   OH248225   5.769   3.410  14.772 -0.4383 -0.3885  0.1001
 8937TIP3    H148226   5.855   3.438  14.802 -0.4047  0.5388 -0.7848
 8937TIP3    H248227   5.739   3.482  14.716 -0.7052 -1.7517 -1.6125
 8938TIP3   OH248228   1.456   1.886   1.767 -0.3271 -0.1021  0.0601
 8938TIP3    H148229   1.514   1.818   1.733 -0.9890 -0.8296  0.3313
 8938TIP3    H248230   1.427   1.935   1.690 -0.1488 -0.3848 -0.1867
 8939TIP3   OH248231   4.985   1.407   2.897 -0.0355  0.2488  0.1931
 8939TIP3    H148232   4.894   1.436   2.901 -0.1002 -0.0687  2.8293
 8939TIP3    H248233   5.028   1.453   2.969  2.2578  1.4061 -1.7750
 8940TIP3   OH248234   3.851   6.668   2.498 -0.4043  0.7889  0.0589
 8940TIP3    H148235   3.768   6.711   2.522 -1.1903 -0.2793 -0.6209
 8940TIP3    H248236   3.893   6.649   2.582 -2.8962 -2.4953  0.7830
 8941TIP3   OH248237   3.797   1.151  15.437  0.4975 -0.2046 -0.6145
 8941TIP3    H148238   3.872   1.125  15.490  1.1046  1.6376 -0.5179
 8941TIP3    H248239   3.833   1.158  15.348  0.6606  1.4744 -0.4336
 8942TIP3   OH248240   3.832   6.408  13.958 -0.0561 -0.2242  0.3603
 8942TIP3    H148241   3.793   6.492  13.983 -0.5828 -0.0832 -0.8947
 8942TIP3    H248242   3.772   6.372  13.893 -0.2379 -1.9304  1.4022
 8943TIP3   OH248243   0.659   0.962  16.907 -0.4026 -0.1786 -0.4611
 8943TIP3    H148244   0.607   0.893  16.947 -2.3790  0.2417 -2.1151
 8943TIP3    H248245   0.657   1.033  16.970 -2.3555  0.0113 -0.6698
 8944TIP3   OH248246   6.460   1.272   4.726  0.6460 -0.0107  0.2333
 8944TIP3    H148247   6.402   1.259   4.651 -0.5004 -1.0467  1.2705
 8944TIP3    H248248   6.413   1.235   4.800  2.4460 -0.4770  1.1999
 8945TIP3   OH248249   1.963   3.603  11.164 -0.2905  0.0574  0.0651
 8945TIP3    H148250   1.963   3.507  11.156  0.6455  0.1343 -1.2219
 8945TIP3    H248251   1.872   3.629  11.149 -0.3539 -0.5666 -0.6932
 8946TIP3   OH248252   1.408   6.051  13.101 -0.3761  0.5092  0.0554
 8946TIP3    H148253   1.466   6.093  13.165 -1.9622  0.9092  1.2708
 8946TIP3    H248254   1.419   6.104  13.022  0.5597  0.8598  0.3987
 8947TIP3   OH248255   5.030   0.255   5.845 -0.0038  0.2782  0.0063
 8947TIP3    H148256   5.038   0.334   5.791 -0.7597  0.6926  0.4846
 8947TIP3    H248257   4.986   0.285   5.924 -0.2077 -0.6139  0.2383
 8948TIP3   OH248258   0.561   5.061   4.048 -0.5237 -0.2396  0.0819
 8948TIP3    H148259   0.524   5.081   3.961 -1.5749 -1.4175  0.2322
 8948TIP3    H248260   0.611   5.139   4.070  0.8995 -0.4240 -2.1597
 8949TIP3   OH248261   1.223   3.135  14.545  0.2203 -0.1979 -0.0897
 8949TIP3    H148262   1.169   3.059  14.564 -0.7492  0.9879  2.2501
 8949TIP3    H248263   1.161   3.208  14.539  1.3089  0.7502 -0.1534
 8950TIP3   OH248264   5.844   5.135  11.860 -0.1441  0.3334  0.2867
 8950TIP3    H148265   5.891   5.219  11.861  0.3515  0.0820 -0.6589
 8950TIP3    H248266   5.904   5.075  11.816 -1.3261 -0.0202 -0.8956
 8951TIP3   OH248267   2.405   1.279   1.026  0.5815 -0.3728 -0.6398
 8951TIP3    H148268   2.483   1.233   1.057  0.1214 -0.1629  0.9103
 8951TIP3    H248269   2.408   1.364   1.070  1.0389  0.8758 -2.8912
 8952TIP3   OH248270   4.125   5.759  13.828  0.4414 -0.3755 -0.3032
 8952TIP3    H148271   4.168   5.829  13.878 -0.3956  1.4821 -2.0086
 8952TIP3    H248272   4.060   5.723  13.888  0.2858  0.9349  0.3595
 8953TIP3   OH248273   1.749   1.053  14.862 -0.5022 -0.4671  0.1602
 8953TIP3    H148274   1.819   1.032  14.924 -2.3704 -2.8644  1.6569
 8953TIP3    H248275   1.749   0.979  14.801 -0.7644  0.2858 -0.7729
 8954TIP3   OH248276   4.641   0.408  16.586 -0.5852  0.1061  0.3725
 8954TIP3    H148277   4.560   0.460  16.586 -0.0858  0.9470 -1.7611
 8954TIP3    H248278   4.631   0.351  16.662 -2.4901  1.2566  1.0760
 8955TIP3   OH248279   3.528   3.197  15.634 -0.2450  0.3940  0.0794
 8955TIP3    H148280   3.597   3.132  15.648 -0.0441  0.8244  1.1946
 8955TIP3    H248281   3.574   3.281  15.630 -0.5831  0.5589 -0.4413
 8956TIP3   OH248282   3.445   4.056  12.390  0.2269  0.2731  0.3421
 8956TIP3    H148283   3.448   4.149  12.367 -0.9296  0.2232 -0.0815
 8956TIP3    H248284   3.358   4.042  12.426 -1.5289 -1.5402 -3.8751
 8957TIP3   OH248285   0.136   1.595  11.497 -0.0812 -0.4535 -0.2421
 8957TIP3    H148286   0.139   1.500  11.500 -1.2590 -0.4818  1.7692
 8957TIP3    H248287   0.228   1.622  11.489  0.1608 -1.7182 -2.4850
 8958TIP3   OH248288   0.664   5.883  16.626  0.5010  0.9286 -0.4503
 8958TIP3    H148289   0.580   5.846  16.653  1.5606 -0.8748  0.5662
 8958TIP3    H248290   0.653   5.977  16.636 -0.7563  0.6252  1.6603
 8959TIP3   OH248291   5.476   5.153   3.120 -0.0386  0.3822  0.1424
 8959TIP3    H148292   5.444   5.084   3.179 -1.1005 -1.0716 -2.0157
 8959TIP3    H248293   5.451   5.234   3.163 -0.5758 -0.6039  1.8081
 8960TIP3   OH248294   1.292   1.248   6.466 -0.0040  0.2912  0.0758
 8960TIP3    H148295   1.385   1.261   6.482  0.2243 -0.8445 -0.2470
 8960TIP3    H248296   1.287   1.210   6.379 -0.8831  1.5602 -0.4680
 8961TIP3   OH248297   3.291   2.902   0.004  0.0616  0.3027  0.0299
 8961TIP3    H148298   3.227   2.916  -0.066  0.1636 -1.3912 -0.4518
 8961TIP3    H248299   3.261   2.823   0.049  0.3182  1.0356  1.5649
 8962TIP3   OH248300   0.615   1.786  13.510 -0.2113 -0.5277  0.2668
 8962TIP3    H148301   0.644   1.695  13.502 -0.0615 -0.3642 -1.6481
 8962TIP3    H248302   0.695   1.835  13.531 -0.2841 -0.8236  1.2541
 8963TIP3   OH248303   0.959   1.774   1.899  0.0112 -0.2295 -0.3487
 8963TIP3    H148304   1.054   1.788   1.895  0.0464 -0.7259 -1.7214
 8963TIP3    H248305   0.949   1.685   1.931 -0.0153 -0.0675  0.1092
 8964TIP3   OH248306   3.234   6.167   4.447  0.0208 -0.1703 -0.6013
 8964TIP3    H148307   3.315   6.208   4.478 -0.9392  1.3389  0.0287
 8964TIP3    H248308   3.229   6.190   4.354 -0.4433  1.1199 -0.2835
 8965TIP3   OH248309   6.423   6.668  11.847 -0.1367  0.2115  0.4389
 8965TIP3    H148310   6.512   6.687  11.877  0.0064 -0.7245  0.6356
 8965TIP3    H248311   6.432   6.649  11.754  0.3384 -2.6221  0.9733
 8966TIP3   OH248312   5.605   1.932  12.996 -0.7789 -0.0627  0.1487
 8966TIP3    H148313   5.511   1.920  12.978 -0.7985  0.7550 -0.3696
 8966TIP3    H248314   5.646   1.926  12.910 -0.5044  0.7776  0.2066
 8967TIP3   OH248315   5.459   2.262   2.881  0.0945 -0.5211  0.2961
 8967TIP3    H148316   5.492   2.173   2.894 -0.1976 -0.5049  1.1781
 8967TIP3    H248317   5.428   2.289   2.967  1.9042  1.1522  0.4955
 8968TIP3   OH248318   2.593   6.299  16.033  0.2111 -0.1886  0.2001
 8968TIP3    H148319   2.652   6.325  16.104 -1.5526 -0.4377  1.8640
 8968TIP3    H248320   2.639   6.230  15.986  2.6538  1.9806 -0.7993
 8969TIP3   OH248321   6.122   0.533  12.249 -0.3771  0.2265 -0.1441
 8969TIP3    H148322   6.123   0.453  12.197  1.3332  0.3161 -0.3041
 8969TIP3    H248323   6.213   0.564  12.248 -1.2009  2.9365 -1.2842
 8970TIP3   OH248324   4.120   4.649  13.754  0.3247 -0.5079 -0.6932
 8970TIP3    H148325   4.088   4.584  13.690  0.0950 -0.0876 -1.0092
 8970TIP3    H248326   4.163   4.596  13.821  1.7408 -0.8844 -1.8409
 8971TIP3   OH248327   6.646   4.709   3.771  0.0566 -0.1989 -0.3193
 8971TIP3    H148328   6.677   4.629   3.729  0.0688 -1.8099  2.5083
 8971TIP3    H248329   6.575   4.680   3.828  1.8749  1.2313  2.9471
 8972TIP3   OH248330   3.379   0.252  11.717  0.0674  0.4915 -0.1997
 8972TIP3    H148331   3.341   0.191  11.780 -0.6989 -1.4363 -2.3794
 8972TIP3    H248332   3.467   0.218  11.699 -0.4246 -0.1743 -1.5497
 8973TIP3   OH248333   5.599   2.007   5.849  0.3985 -0.2219  0.2979
 8973TIP3    H148334   5.612   1.996   5.944 -2.8069 -1.7486  0.7054
 8973TIP3    H248335   5.644   1.931   5.810 -1.1006 -1.5021  0.9613
 8974TIP3   OH248336   1.869   3.785  11.705 -0.5938 -0.0293 -0.1752
 8974TIP3    H148337   1.813   3.852  11.664  0.4164  1.0680  0.1798
 8974TIP3    H248338   1.890   3.725  11.634  2.7767  2.9096 -1.9947
 8975TIP3   OH248339   6.623   0.775  11.518 -0.0839 -0.1666  0.0499
 8975TIP3    H148340   6.569   0.825  11.457 -1.1280 -0.8462  0.3869
 8975TIP3    H248341   6.713   0.800  11.497 -0.4865  0.4177 -1.0433
 8976TIP3   OH248342   2.174   2.539   1.991  0.2794 -0.2085  0.1998
 8976TIP3    H148343   2.234   2.567   1.922 -0.2422  0.8146  0.1395
 8976TIP3    H248344   2.088   2.564   1.958 -0.0250 -0.2385  0.9697
 8977TIP3   OH248345   0.236   5.929   2.772 -0.1779  0.5419 -0.2509
 8977TIP3    H148346   0.230   5.845   2.817  1.4123 -0.9684 -2.6489
 8977TIP3    H248347   0.249   5.993   2.842 -2.0844 -1.0546  1.7033
 8978TIP3   OH248348   4.349   4.717  14.172  0.0272 -0.0847  0.8305
 8978TIP3    H148349   4.340   4.732  14.266  1.8955  0.0957  1.0138
 8978TIP3    H248350   4.342   4.804  14.133 -0.2174 -0.0981  0.8407
 8979TIP3   OH248351   5.152   6.640  14.843 -0.2244  0.0130 -0.2916
 8979TIP3    H148352   5.161   6.727  14.881  0.4631  0.9039 -2.3491
 8979TIP3    H248353   5.218   6.587  14.888 -0.1540  0.7215  0.4644
 8980TIP3   OH248354   6.582   3.563   1.233 -0.1542 -0.3857  0.3381
 8980TIP3    H148355   6.540   3.559   1.147  1.4014 -0.8703 -0.4247
 8980TIP3    H248356   6.624   3.649   1.235  1.3631 -1.0842 -0.1671
 8981TIP3   OH248357   3.133   5.050   0.025 -0.0232 -0.0420  0.4563
 8981TIP3    H148358   3.165   5.077  -0.061  0.4297  0.0547  0.6546
 8981TIP3    H248359   3.211   5.028   0.075 -0.1491  1.3943  1.3499
 8982TIP3   OH248360   4.383   0.122  13.837 -0.0455 -0.5060 -0.7044
 8982TIP3    H148361   4.362   0.214  13.857  3.4966 -0.2164  3.0364
 8982TIP3    H248362   4.355   0.074  13.915  0.5799 -2.1851 -1.4834
 8983TIP3   OH248363   6.541   0.680   2.765 -0.2736  0.1635 -0.4775
 8983TIP3    H148364   6.590   0.599   2.779 -0.3792  0.4771  2.4070
 8983TIP3    H248365   6.451   0.651   2.749  0.1332 -0.3131 -2.0364
 8984TIP3   OH248366   4.440   5.526   2.532  0.7375  0.4680  0.3178
 8984TIP3    H148367   4.434   5.541   2.627  1.8201  2.7509  0.0888
 8984TIP3    H248368   4.381   5.452   2.516 -0.7954  1.1010  2.5194
 8985TIP3   OH248369   2.152   6.384   3.719 -0.0442 -0.1273 -0.0417
 8985TIP3    H148370   2.124   6.376   3.811  1.4359  1.4244  0.5959
 8985TIP3    H248371   2.077   6.423   3.675 -1.3434 -2.2578  0.1306
 8986TIP3   OH248372   1.780   1.946  16.689 -0.1701  0.5425 -0.5130
 8986TIP3    H148373   1.742   1.990  16.764  0.4293  2.2424 -1.1549
 8986TIP3    H248374   1.874   1.940  16.709 -0.1007  0.4594 -0.8554
 8987TIP3   OH248375   0.618   0.402   4.061  0.2676 -0.3571  0.4373
 8987TIP3    H148376   0.613   0.358   3.976  2.1268  0.0845  0.0496
 8987TIP3    H248377   0.537   0.377   4.106  0.0679 -2.0729 -0.7575
 8988TIP3   OH248378   4.226   3.092   3.517  0.5501 -0.7007 -0.5968
 8988TIP3    H148379   4.224   3.012   3.570  0.0151 -0.3836 -0.1290
 8988TIP3    H248380   4.175   3.155   3.568  2.6457  0.5679  0.0431
 8989TIP3   OH248381   6.494   1.963   4.995  0.1226  0.0489 -0.2605
 8989TIP3    H148382   6.456   2.051   5.002 -0.1207 -0.0974  0.2509
 8989TIP3    H248383   6.586   1.976   5.020 -0.1932 -0.0513  0.9760
 8990TIP3   OH248384   2.897   1.214  11.961  0.3396  0.3110 -0.2390
 8990TIP3    H148385   2.826   1.196  11.899  0.9956 -0.2257 -0.8503
 8990TIP3    H248386   2.864   1.181  12.045 -0.1958  0.2052 -0.4847
 8991TIP3   OH248387   5.635   6.247  15.400  0.2828  0.1154  0.0665
 8991TIP3    H148388   5.668   6.204  15.479 -0.9642  0.1160  0.6160
 8991TIP3    H248389   5.691   6.323  15.389  0.7676 -0.1422  0.6871
 8992TIP3   OH248390   2.117   5.866  15.150 -0.2440 -0.0949 -0.1076
 8992TIP3    H148391   2.155   5.879  15.063 -0.0934 -0.6571 -0.1333
 8992TIP3    H248392   2.082   5.777  15.147  0.8883 -0.5900  0.8223
 8993TIP3   OH248393   3.433   4.455  11.153 -0.1413  0.2427 -0.0068
 8993TIP3    H148394   3.478   4.375  11.181 -1.1672 -1.0875 -1.9410
 8993TIP3    H248395   3.492   4.526  11.178  1.9064 -1.2767 -0.2964
 8994TIP3   OH248396   5.835   1.799  14.216  0.3124  0.4053 -0.2303
 8994TIP3    H148397   5.851   1.837  14.302 -0.6323 -0.0974  0.1809
 8994TIP3    H248398   5.806   1.709  14.234 -1.4697  0.7833 -0.9628
 8995TIP3   OH248399   5.801   3.444  16.103  0.4325 -0.3253 -0.5747
 8995TIP3    H148400   5.816   3.480  16.190  0.7181  0.1785 -0.8276
 8995TIP3    H248401   5.707   3.457  16.087  0.5331  0.3332 -0.6675
 8996TIP3   OH248402   1.971   4.478   0.263  0.0599 -0.2850  0.5785
 8996TIP3    H148403   2.050   4.516   0.223  0.4640  0.5456  2.0914
 8996TIP3    H248404   1.999   4.450   0.350 -1.1042 -0.8317  0.7969
 8997TIP3   OH248405   2.177   4.381  14.594 -0.3676  0.0726 -0.1493
 8997TIP3    H148406   2.237   4.327  14.544  0.5190  0.3667  0.5559
 8997TIP3    H248407   2.148   4.449  14.533  1.1151  0.7477 -0.1537
 8998TIP3   OH248408   6.468   0.826   3.730  0.1769 -0.9364  1.3026
 8998TIP3    H148409   6.436   0.738   3.711  1.4562 -1.0343 -0.6268
 8998TIP3    H248410   6.400   0.865   3.786 -2.0783 -1.9727 -0.5666
 8999TIP3   OH248411   2.012   3.619   3.344 -0.6787 -0.6989 -0.2714
 8999TIP3    H148412   2.082   3.587   3.287 -1.3292 -2.4610 -0.1500
 8999TIP3    H248413   1.959   3.674   3.287  2.0645  2.8031  0.1995
 9000TIP3   OH248414   6.013   6.634  10.990  1.0336  0.3420  0.7483
 9000TIP3    H148415   5.919   6.631  10.974  0.7641  3.4496  0.9968
 9000TIP3    H248416   6.052   6.615  10.904  0.1571 -0.0915  0.4338
 9001TIP3   OH248417   1.393   5.646   1.093  0.8783  0.2050  0.3759
 9001TIP3    H148418   1.405   5.575   1.029  0.3617 -1.2181  1.7789
 9001TIP3    H248419   1.316   5.620   1.144  0.0945  2.2796  0.3478
 9002TIP3   OH248420   5.401   2.795   5.665 -0.3238  0.3179  0.2769
 9002TIP3    H148421   5.447   2.868   5.624 -0.2390  0.4712  0.6347
 9002TIP3    H248422   5.470   2.732   5.684 -0.3242  0.3543  0.4038
 9003TIP3   OH248423   2.540   4.291   5.837 -0.0405 -0.4566  0.0057
 9003TIP3    H148424   2.567   4.286   5.745  1.3085  0.1800  0.3386
 9003TIP3    H248425   2.444   4.297   5.834 -0.2119 -2.6998 -1.2470
 9004TIP3   OH248426   6.331   0.340  16.782 -0.8243  0.2702 -0.1909
 9004TIP3    H148427   6.324   0.427  16.741 -1.6512  0.0242 -0.5964
 9004TIP3    H248428   6.297   0.280  16.715  0.9875 -0.5322 -0.4390
 9005TIP3   OH248429   2.775   6.507   5.698  0.8369  0.4211  0.5898
 9005TIP3    H148430   2.713   6.538   5.632  0.2455 -1.4404  0.2100
 9005TIP3    H248431   2.861   6.531   5.664  0.4423  1.2000  0.1064
 9006TIP3   OH248432   6.003   2.119   3.894 -0.5624  0.3815 -0.2018
 9006TIP3    H148433   6.063   2.107   3.821  0.2172  0.7135  0.3762
 9006TIP3    H248434   5.933   2.055   3.878  0.2729 -0.4838 -0.5340
 9007TIP3   OH248435   3.830   2.567   1.710  0.2020  0.4356 -0.3103
 9007TIP3    H148436   3.925   2.569   1.708  0.2361  0.5317  0.7888
 9007TIP3    H248437   3.806   2.613   1.791 -0.7648  0.3274 -0.5203
 9008TIP3   OH248438   6.637   4.218   4.680  0.1055  1.0324  0.1816
 9008TIP3    H148439   6.715   4.249   4.635  0.5093 -1.3150 -0.8720
 9008TIP3    H248440   6.570   4.213   4.611  0.0024 -0.1717  0.3497
 9009TIP3   OH248441   1.585   2.177  15.471 -1.0756  0.2463 -0.2395
 9009TIP3    H148442   1.598   2.250  15.532 -0.0262 -0.1624  0.0557
 9009TIP3    H248443   1.672   2.139  15.461 -1.3703 -0.1899 -1.3832
 9010TIP3   OH248444   0.898   0.132  15.278  0.4441  0.2899  0.8470
 9010TIP3    H148445   0.963   0.197  15.251 -1.4390  1.6308 -0.7289
 9010TIP3    H248446   0.855   0.172  15.353  0.1047  0.3131  0.6410
 9011TIP3   OH248447   2.788   1.325   1.257 -0.5545  0.3200 -0.1149
 9011TIP3    H148448   2.746   1.303   1.340 -1.6789  2.0440 -0.1736
 9011TIP3    H248449   2.736   1.280   1.191  0.5076 -1.2829  0.0804
 9012TIP3   OH248450   4.677   6.368   1.775 -0.4392 -0.1871 -0.2517
 9012TIP3    H148451   4.689   6.325   1.691 -2.4686  1.2142 -1.3439
 9012TIP3    H248452   4.734   6.445   1.771 -2.4247  1.2950 -1.4911
 9013TIP3   OH248453   1.389   3.810  11.398  0.1599  0.4210 -0.1136
 9013TIP3    H148454   1.437   3.834  11.318 -0.4660  1.1735 -0.2665
 9013TIP3    H248455   1.317   3.873  11.403 -0.2476 -0.0948  0.6424
 9014TIP3   OH248456   2.764   4.981  13.702  0.3325  0.1096 -0.1334
 9014TIP3    H148457   2.737   5.010  13.615 -0.9775 -0.7004 -0.0211
 9014TIP3    H248458   2.808   4.897  13.688  0.9471  0.4153 -0.0914
 9015TIP3   OH248459   1.319   3.318   2.804  0.1544 -0.4368 -0.3013
 9015TIP3    H148460   1.260   3.351   2.872 -1.2553 -0.1679 -1.6190
 9015TIP3    H248461   1.345   3.396   2.755 -1.1117 -0.9296 -1.8138
 9016TIP3   OH248462   3.528   0.587  11.586  0.8605 -1.2202  0.2786
 9016TIP3    H148463   3.528   0.492  11.577 -0.9563 -1.3930  1.6738
 9016TIP3    H248464   3.557   0.603  11.676 -1.1776 -0.6162  0.8690
 9017TIP3   OH248465   1.963   1.355  16.516  0.0700 -0.0683 -0.4224
 9017TIP3    H148466   1.995   1.284  16.460  1.1905 -0.3905  0.5963
 9017TIP3    H248467   1.992   1.331  16.604  0.5029  1.6806 -0.0577
 9018TIP3   OH248468   2.600   0.058   5.816  0.4550 -0.6927 -0.5512
 9018TIP3    H148469   2.540  -0.014   5.798  1.1921 -0.7198 -3.1625
 9018TIP3    H248470   2.561   0.133   5.771 -0.4036  0.7274  2.2692
 9019TIP3   OH248471   3.375   2.147   3.668  0.0317 -0.1147  0.3234
 9019TIP3    H148472   3.398   2.117   3.755  1.9463 -1.7797 -0.6727
 9019TIP3    H248473   3.279   2.149   3.668 -0.0441 -1.5558  1.9866
 9020TIP3   OH248474   1.234   3.002   1.099 -0.3814 -0.4893  0.0547
 9020TIP3    H148475   1.176   2.991   1.024 -1.1351 -0.1034  0.5747
 9020TIP3    H248476   1.293   3.074   1.073 -1.8182  0.9104  0.5302
 9021TIP3   OH248477   3.335   2.099   0.655 -0.0209 -0.1118 -0.3520
 9021TIP3    H148478   3.360   2.178   0.606 -0.6755  0.7425  0.6503
 9021TIP3    H248479   3.377   2.028   0.608  0.8853  0.8713 -1.0809
 9022TIP3   OH248480   2.677   2.157  13.175  0.4969 -0.5117  0.9385
 9022TIP3    H148481   2.646   2.079  13.222 -1.5358 -0.4495 -0.1503
 9022TIP3    H248482   2.628   2.229  13.215  0.9570 -0.0522  0.6810
 9023TIP3   OH248483   3.237   3.166   3.152  0.0320 -0.0660  0.1664
 9023TIP3    H148484   3.281   3.144   3.234 -0.9466 -2.1629  0.2030
 9023TIP3    H248485   3.207   3.082   3.118  0.0668  0.7986 -2.1664
 9024TIP3   OH248486   5.687   4.608   4.602  0.0259  0.0944 -0.1909
 9024TIP3    H148487   5.617   4.556   4.563  0.5044 -2.5753  2.1720
 9024TIP3    H248488   5.668   4.609   4.696  2.3850  0.4449  0.3657
 9025TIP3   OH248489   1.217   4.248   2.297  0.3111  0.4719  0.0650
 9025TIP3    H148490   1.128   4.213   2.288  0.5945 -0.2445 -0.0133
 9025TIP3    H248491   1.204   4.339   2.324 -0.4486  0.4753 -0.2769
 9026TIP3   OH248492   5.012   4.002  13.578 -0.2077 -0.2149 -0.3372
 9026TIP3    H148493   5.076   4.061  13.537 -1.0822  0.2052 -1.1479
 9026TIP3    H248494   5.058   3.966  13.654  1.3403 -0.7329 -1.4753
 9027TIP3   OH248495   1.192   0.275  12.693 -0.3215 -0.3209 -0.4872
 9027TIP3    H148496   1.245   0.353  12.709  0.6351 -0.6718 -1.7855
 9027TIP3    H248497   1.102   0.305  12.702  0.0089  1.0816 -1.4777
 9028TIP3   OH248498   3.227   5.027  14.782 -0.8282  0.0011  0.0877
 9028TIP3    H148499   3.179   5.089  14.727 -0.3931 -0.1848 -0.5103
 9028TIP3    H248500   3.203   5.051  14.871 -0.1229  1.4952 -0.0957
 9029TIP3   OH248501   1.477   2.702   0.932 -0.2317  0.3397  0.2159
 9029TIP3    H148502   1.456   2.718   1.025  0.8195 -1.9101  0.9066
 9029TIP3    H248503   1.559   2.749   0.918 -1.1245  1.8943 -0.0281
 9030TIP3   OH248504   2.501   0.842  12.555  0.2955  0.4469 -0.0322
 9030TIP3    H148505   2.482   0.904  12.625 -0.1101 -0.1360  0.3874
 9030TIP3    H248506   2.531   0.763  12.601  1.0118  0.3953 -0.5635
 9031TIP3   OH248507   3.104   1.829  15.314 -0.1713 -0.2498 -0.5660
 9031TIP3    H148508   3.189   1.838  15.272 -0.3248 -1.1804 -1.1280
 9031TIP3    H248509   3.045   1.803  15.243 -1.4045  2.4049 -0.6222
 9032TIP3   OH248510   0.869   5.533   4.031  0.1289 -0.6362 -0.2892
 9032TIP3    H148511   0.809   5.578   3.973  1.4425  1.0932 -0.3736
 9032TIP3    H248512   0.919   5.475   3.973  0.3557 -0.0899 -0.6479
 9033TIP3   OH248513   1.860   2.167  16.055  0.1617 -0.3331 -0.0259
 9033TIP3    H148514   1.922   2.192  16.123  0.8509 -0.4145 -0.6170
 9033TIP3    H248515   1.849   2.073  16.065 -1.1310 -0.0866  1.1149
 9034TIP3   OH248516   2.017   1.071   4.717 -0.3838 -0.0213 -0.7412
 9034TIP3    H148517   2.046   1.160   4.736 -0.9983  0.2706 -1.1489
 9034TIP3    H248518   2.061   1.017   4.782 -0.6997  0.6879  0.0760
 9035TIP3   OH248519   0.336   2.365   1.277 -0.0601 -0.0706  0.0095
 9035TIP3    H148520   0.373   2.279   1.299  1.2679  0.8626  1.5979
 9035TIP3    H248521   0.257   2.371   1.330 -0.3015 -0.4111 -0.3064
 9036TIP3   OH248522   1.840   4.586   2.323 -0.2492  0.0397 -0.1210
 9036TIP3    H148523   1.839   4.666   2.376  0.4529 -0.8987  1.3973
 9036TIP3    H248524   1.765   4.536   2.354  0.4815 -0.7557  0.4133
 9037TIP3   OH248525   3.673   6.570  16.950 -0.2092  0.4361  0.1498
 9037TIP3    H148526   3.655   6.646  17.006  0.5395  0.3538  0.5112
 9037TIP3    H248527   3.622   6.586  16.871 -1.6309  0.3573  1.0063
 9038TIP3   OH248528   2.254   3.602  14.244  0.4066 -0.4279 -0.0413
 9038TIP3    H148529   2.328   3.640  14.196 -0.2109  0.4900 -0.2821
 9038TIP3    H248530   2.190   3.672  14.250 -0.0593 -0.9266  1.0189
 9039TIP3   OH248531   3.362   6.370  11.099  0.0304  0.2848 -0.5119
 9039TIP3    H148532   3.439   6.315  11.114 -0.1470 -0.1579 -1.1753
 9039TIP3    H248533   3.381   6.415  11.017 -0.2464  0.4803 -0.4671
 9040TIP3   OH248534   0.837   4.310  14.763 -0.1108 -0.3639  0.7924
 9040TIP3    H148535   0.807   4.362  14.838  0.8482  0.4921  0.6065
 9040TIP3    H248536   0.763   4.254  14.742 -1.8597  2.1022 -0.0488
 9041TIP3   OH248537   6.517   0.072   2.951  0.1962 -0.0414  0.0605
 9041TIP3    H148538   6.521   0.128   2.873  1.2774 -0.6011 -0.3114
 9041TIP3    H248539   6.480  -0.010   2.919 -1.3403  0.4130  0.5953
 9042TIP3   OH248540   5.349   6.401  15.598 -0.2423  0.3811 -0.5011
 9042TIP3    H148541   5.377   6.388  15.689 -1.0845 -0.3328 -0.3266
 9042TIP3    H248542   5.253   6.405  15.603 -0.4043 -1.3030 -1.5386
 9043TIP3   OH248543   1.116   5.519  14.038  0.0282 -0.2627  0.1045
 9043TIP3    H148544   1.040   5.575  14.050 -0.5734 -1.3289  1.7228
 9043TIP3    H248545   1.184   5.576  14.003 -1.5726  0.6513 -1.6464
 9044TIP3   OH248546   5.817   1.238   3.145  1.0158 -0.8265 -0.2647
 9044TIP3    H148547   5.819   1.329   3.115  0.4324 -0.6948  0.0783
 9044TIP3    H248548   5.908   1.211   3.145  1.2972  0.0547  0.5059
 9045TIP3   OH248549   1.613   1.148  11.960  0.6366 -0.1552 -0.5240
 9045TIP3    H148550   1.627   1.186  11.873  1.5822  1.0640  0.1300
 9045TIP3    H248551   1.633   1.219  12.021  0.5105 -1.1405  0.7079
 9046TIP3   OH248552   5.822   3.521   0.541 -0.1975 -0.3210 -0.2258
 9046TIP3    H148553   5.816   3.504   0.635 -0.0957 -0.5745 -0.2648
 9046TIP3    H248554   5.915   3.515   0.521 -0.1204  0.5750 -0.1895
 9047TIP3   OH248555   5.022   6.442  12.651  0.6637  0.2727  0.1060
 9047TIP3    H148556   5.046   6.531  12.678  1.2300 -0.2414  1.3303
 9047TIP3    H248557   5.103   6.403  12.619  0.7572 -0.3166  1.0318
 9048TIP3   OH248558   0.672   2.254  16.232  0.0121  0.1616 -0.0632
 9048TIP3    H148559   0.621   2.185  16.273  0.7769 -0.0786  0.5006
 9048TIP3    H248560   0.745   2.209  16.189 -0.7105  0.4169 -1.6039
 9049TIP3   OH248561   6.679   1.825  10.855  0.0446 -0.1342 -0.1629
 9049TIP3    H148562   6.692   1.902  10.910  1.9750  0.9909 -2.0191
 9049TIP3    H248563   6.591   1.837  10.818 -0.6611 -0.1327  1.4299
 9050TIP3   OH248564   5.018   2.346  12.542  0.2988 -0.0882  0.7924
 9050TIP3    H148565   4.995   2.312  12.456  0.4063 -1.3378  1.2362
 9050TIP3    H248566   4.970   2.429  12.549 -1.1480 -0.8497  0.2455
 9051TIP3   OH248567   3.566   0.085  11.307  0.6332 -0.0739 -0.1093
 9051TIP3    H148568   3.505   0.157  11.320  1.3542  0.5987 -0.3792
 9051TIP3    H248569   3.553   0.057  11.217  0.8199  0.1679 -0.2128
 9052TIP3   OH248570   0.209   1.804  17.296 -0.2039 -0.4965  0.0741
 9052TIP3    H148571   0.214   1.713  17.326  0.3752 -0.9141 -1.2024
 9052TIP3    H248572   0.117   1.819  17.278 -0.1031 -1.4239 -1.3620
 9053TIP3   OH248573   2.533   0.091  14.444 -0.5125  0.0843 -0.8389
 9053TIP3    H148574   2.578   0.009  14.422  0.2111  0.0258  0.7379
 9053TIP3    H248575   2.603   0.156  14.450 -0.7166  0.1955  0.6866
 9054TIP3   OH248576   6.007   5.579  15.385  0.0287 -0.3021 -0.0871
 9054TIP3    H148577   6.045   5.615  15.305 -2.0831  1.2021 -0.4703
 9054TIP3    H248578   5.931   5.633  15.403  0.5113 -0.4655  3.0774
 9055TIP3   OH248579   4.205   6.137   5.017  0.5100 -0.1575 -0.4486
 9055TIP3    H148580   4.286   6.175   5.051  0.4486  1.1424 -1.6215
 9055TIP3    H248581   4.233   6.058   4.971  1.3188  0.8227 -1.7494
 9056TIP3   OH248582   5.557   3.753  12.919 -0.0445 -0.2062 -0.1647
 9056TIP3    H148583   5.471   3.765  12.879  0.7973 -1.2182 -2.4448
 9056TIP3    H248584   5.615   3.807  12.866  0.6130  1.3983  2.0643
 9057TIP3   OH248585   3.132   0.571  16.760  0.2398  0.0710 -0.2336
 9057TIP3    H148586   3.126   0.588  16.854 -0.1734  0.3333 -0.3057
 9057TIP3    H248587   3.207   0.513  16.751 -0.0442 -0.3944  0.3208
 9058TIP3   OH248588   4.155   0.492   0.925 -0.0682  0.3848 -0.5489
 9058TIP3    H148589   4.197   0.432   0.864 -1.7881 -0.0351 -1.3861
 9058TIP3    H248590   4.227   0.537   0.968  1.2133 -0.2100 -1.9868
 9059TIP3   OH248591   0.092   2.929  14.325 -0.3804 -0.2994  0.1315
 9059TIP3    H148592   0.069   3.007  14.275 -2.1068 -0.2000  0.9802
 9059TIP3    H248593   0.087   2.858  14.262 -0.0463  0.1136 -0.3735
 9060TIP3   OH248594   1.495   0.284   1.502 -0.3476  0.0484  0.2778
 9060TIP3    H148595   1.482   0.253   1.413 -1.4735  0.8998  0.1258
 9060TIP3    H248596   1.582   0.252   1.526 -0.1383 -0.4157 -1.0216
 9061TIP3   OH248597   3.776   3.356   3.421  0.6424 -0.4666 -0.5350
 9061TIP3    H148598   3.692   3.396   3.442  0.8669 -0.3499  0.2009
 9061TIP3    H248599   3.794   3.299   3.496  1.2661 -0.4035 -0.6307
 9062TIP3   OH248600   3.581   0.192   2.885  0.6233 -1.4465 -0.1116
 9062TIP3    H148601   3.643   0.191   2.958 -2.2352  0.6373  2.6318
 9062TIP3    H248602   3.612   0.263   2.829  0.5445 -0.0335  1.5314
 9063TIP3   OH248603   0.029   2.040   5.409 -0.4102  0.8901  0.4545
 9063TIP3    H148604  -0.031   2.088   5.465 -0.2415  1.2978  0.2903
 9063TIP3    H248605   0.041   2.097   5.333 -2.1777 -0.4720 -0.9376
 9064TIP3   OH248606   0.301   3.460   2.396  0.4640 -0.0976 -0.1142
 9064TIP3    H148607   0.215   3.503   2.389  0.8559  0.8001  0.3354
 9064TIP3    H248608   0.301   3.395   2.326 -0.9115 -0.7110  0.4175
 9065TIP3   OH248609   2.803   5.048   5.509 -0.1292 -0.0969  0.2284
 9065TIP3    H148610   2.739   4.981   5.533 -1.5663  0.9304 -0.5921
 9065TIP3    H248611   2.877   5.031   5.567 -0.0230 -2.9668 -0.6051
 9066TIP3   OH248612   3.448   4.935  12.084  0.2557 -0.0841 -0.1285
 9066TIP3    H148613   3.402   4.983  12.153  0.2746  0.4971 -0.5109
 9066TIP3    H248614   3.524   4.897  12.127  2.6012  3.6273 -0.5420
 9067TIP3   OH248615   5.181   5.458   3.953  0.7974  0.1330  0.1005
 9067TIP3    H148616   5.147   5.499   4.033 -1.5933 -2.2569  0.4421
 9067TIP3    H248617   5.267   5.424   3.979  1.0959  1.4227  0.9118
 9068TIP3   OH248618   2.990   4.476   1.414  0.5655 -0.0435  0.2980
 9068TIP3    H148619   3.068   4.480   1.469  1.3827  0.2102 -0.8479
 9068TIP3    H248620   2.969   4.567   1.394 -0.7468 -0.0395  1.5601
 9069TIP3   OH248621   0.984   6.291  14.375  0.2482  0.7508  0.0867
 9069TIP3    H148622   1.025   6.326  14.454  0.1961  0.1696  0.3799
 9069TIP3    H248623   0.940   6.366  14.335  1.1057  1.2618  0.0784
 9070TIP3   OH248624   3.225   1.509  12.878  0.3448  0.1184 -0.0727
 9070TIP3    H148625   3.308   1.505  12.925 -0.0756  1.7803  0.9222
 9070TIP3    H248626   3.187   1.422  12.889  0.8034  0.0978  1.6763
 9071TIP3   OH248627   2.658   6.563  14.610  0.6479 -0.7710  0.4401
 9071TIP3    H148628   2.605   6.489  14.637 -0.2033 -0.5639 -0.5995
 9071TIP3    H248629   2.749   6.535  14.625  0.2945 -1.4739  1.3586
 9072TIP3   OH248630   1.455   2.295   5.616  0.1806 -0.2269 -0.2915
 9072TIP3    H148631   1.448   2.212   5.663 -0.6303 -0.5884 -1.0211
 9072TIP3    H248632   1.435   2.272   5.525  1.7048  0.4455 -0.8388
 9073TIP3   OH248633   0.982   5.580  16.817 -0.4301  0.1117  0.3495
 9073TIP3    H148634   1.053   5.640  16.840  0.1000 -0.0379 -0.8511
 9073TIP3    H248635   0.994   5.505  16.876  1.0798 -0.3931 -0.5626
 9074TIP3   OH248636   1.757   5.264   3.640 -0.2429 -0.0252 -0.0236
 9074TIP3    H148637   1.823   5.319   3.682 -0.6807  0.4116  0.1053
 9074TIP3    H248638   1.781   5.175   3.663 -0.7796  0.2286  1.6081
 9075TIP3   OH248639   0.046   4.549  13.837  0.3943 -0.5823  0.2418
 9075TIP3    H148640  -0.007   4.618  13.876 -0.3034 -0.6284 -0.5899
 9075TIP3    H248641   0.102   4.518  13.908 -1.3068 -1.1444  1.3899
 9076TIP3   OH248642   4.788   0.557  14.541 -0.0031  0.0946 -0.0569
 9076TIP3    H148643   4.856   0.522  14.598 -0.9160 -0.4194  0.7638
 9076TIP3    H248644   4.761   0.639  14.583 -0.0710  0.1649 -0.2360
 9077TIP3   OH248645   5.027   1.751  12.409  0.2498 -0.5668 -0.3320
 9077TIP3    H148646   4.973   1.673  12.396  0.9305 -0.9510 -0.9216
 9077TIP3    H248647   5.020   1.799  12.327  1.1202 -0.8296 -0.5744
 9078TIP3   OH248648   3.642   4.652  12.578 -0.6963  0.1045  0.0656
 9078TIP3    H148649   3.685   4.614  12.501  0.1353  1.3130 -0.1102
 9078TIP3    H248650   3.632   4.579  12.639 -0.2843 -0.6343 -0.7250
 9079TIP3   OH248651   2.122   2.705   2.539 -0.4269  0.4802 -0.2893
 9079TIP3    H148652   2.181   2.741   2.606 -0.3142  3.0091 -1.6125
 9079TIP3    H248653   2.180   2.684   2.466 -0.7446 -0.7042 -0.2132
 9080TIP3   OH248654   0.145   0.213  11.547 -0.2380  0.3692  0.9218
 9080TIP3    H148655   0.132   0.178  11.458 -1.5652 -0.9210  1.5824
 9080TIP3    H248656   0.221   0.270  11.539 -0.9437  1.1114 -1.2785
 9081TIP3   OH248657   1.551   0.151  11.133 -0.4492  0.1692 -0.0197
 9081TIP3    H148658   1.619   0.097  11.174 -0.3955 -0.4179 -0.8552
 9081TIP3    H248659   1.483   0.089  11.106 -0.9717  0.6647  0.1363
 9082TIP3   OH248660   1.591   5.717  13.379  0.2765  0.4729  0.3138
 9082TIP3    H148661   1.504   5.742  13.410  0.4828  0.2366  1.1083
 9082TIP3    H248662   1.648   5.729  13.455  0.3427 -2.6805  0.8948
 9083TIP3   OH248663   4.821   3.741   0.118 -0.7129 -0.0737  0.0197
 9083TIP3    H148664   4.831   3.804   0.047 -0.3278 -2.0585 -1.7595
 9083TIP3    H248665   4.910   3.715   0.140 -0.8573  0.1069  0.8876
 9084TIP3   OH248666   1.266   4.645   4.901 -0.8620 -0.4434 -0.7716
 9084TIP3    H148667   1.278   4.560   4.858 -1.8512  0.2354 -2.5324
 9084TIP3    H248668   1.320   4.705   4.850 -2.4872  0.4887 -1.4910
 9085TIP3   OH248669   3.490   4.254   3.017  0.4942  0.4193 -0.2257
 9085TIP3    H148670   3.449   4.340   3.009  0.9635  0.5492 -1.3735
 9085TIP3    H248671   3.577   4.265   2.979  0.4649 -0.6349 -0.6220
 9086TIP3   OH248672   5.887   5.480  13.400  0.3526 -0.3704  0.4926
 9086TIP3    H148673   5.921   5.433  13.475  2.1514  0.6565  0.3726
 9086TIP3    H248674   5.898   5.573  13.422 -2.1126  0.0405  0.2866
 9087TIP3   OH248675   0.259   1.525   0.955 -0.1600 -0.5693 -0.0558
 9087TIP3    H148676   0.341   1.563   0.985  0.2556 -1.7154  0.3168
 9087TIP3    H248677   0.218   1.492   1.035 -0.9053 -0.1542 -0.2607
 9088TIP3   OH248678   3.594   0.174  13.271  0.8100  0.1536 -0.1554
 9088TIP3    H148679   3.512   0.131  13.298  0.8683  1.1409  1.7394
 9088TIP3    H248680   3.575   0.210  13.184  0.2250 -2.1632 -1.0822
 9089TIP3   OH248681   0.096   4.640   4.611 -0.1142  0.7702 -0.3190
 9089TIP3    H148682   0.003   4.659   4.599 -0.2653  0.1986 -0.0812
 9089TIP3    H248683   0.098   4.559   4.661  0.4959 -0.2307 -1.8919
 9090TIP3   OH248684   0.174   2.536   5.980 -0.0297  0.6849  0.4889
 9090TIP3    H148685   0.197   2.607   6.040 -1.4619  3.3505 -1.8706
 9090TIP3    H248686   0.113   2.481   6.029  1.0105  1.1067  2.3486
 9091TIP3   OH248687   2.419   0.824  11.444  0.0845  0.3745 -0.0570
 9091TIP3    H148688   2.373   0.741  11.439  1.2978 -0.2896 -0.5808
 9091TIP3    H248689   2.388   0.874  11.368 -0.2385  0.1962 -0.0431
 9092TIP3   OH248690   4.583   2.004   5.589 -0.1218  0.1144  0.3694
 9092TIP3    H148691   4.640   1.976   5.518 -0.4135  0.7018 -0.1112
 9092TIP3    H248692   4.522   2.065   5.548 -0.3682  0.3785  1.1025
 9093TIP3   OH248693   0.487   5.261  14.341 -0.3446 -0.2509  0.5875
 9093TIP3    H148694   0.522   5.234  14.256  0.3134 -0.9058  1.0371
 9093TIP3    H248695   0.422   5.194  14.363 -1.1427  0.3960  0.2161
 9094TIP3   OH248696   4.020   6.334   1.621  0.3835  0.3399 -0.0724
 9094TIP3    H148697   4.017   6.379   1.537 -0.5640  1.6343  0.6155
 9094TIP3    H248698   4.086   6.266   1.609 -0.0541  0.2016 -1.9848
 9095TIP3   OH248699   2.571   2.914  15.556 -0.5672 -0.2017  0.1325
 9095TIP3    H148700   2.537   3.002  15.574  1.0625  0.5199 -0.1545
 9095TIP3    H248701   2.583   2.875  15.643 -2.1136 -0.5029  0.2443
 9096TIP3   OH248702   0.221   3.878   4.287  0.1622  0.1934  0.0997
 9096TIP3    H148703   0.299   3.930   4.266  0.7628 -0.3934  0.8266
 9096TIP3    H248704   0.256   3.795   4.319 -0.7757 -0.2953 -0.1182
 9097TIP3   OH248705   4.784   0.211  11.573  0.0434 -0.5566  0.2810
 9097TIP3    H148706   4.765   0.124  11.607 -1.6066 -0.4497 -0.2778
 9097TIP3    H248707   4.749   0.271  11.639  2.3124 -0.2612  1.2879
 9098TIP3   OH248708   6.315   5.272   0.595 -0.0638 -0.1607 -0.3805
 9098TIP3    H148709   6.262   5.347   0.621  0.9608  0.4726 -0.1071
 9098TIP3    H248710   6.350   5.296   0.509  1.8493  0.5411  0.5457
 9099TIP3   OH248711   5.391   1.798   1.262  0.5439 -0.2323 -0.2791
 9099TIP3    H148712   5.388   1.893   1.251  0.8230 -0.1858  0.0216
 9099TIP3    H248713   5.482   1.780   1.286  0.9207 -0.7456 -1.9569
 9100TIP3   OH248714   0.099   4.677   6.535  0.4514  0.0531 -0.5283
 9100TIP3    H148715   0.031   4.613   6.515  1.0224 -0.9018  0.4767
 9100TIP3    H248716   0.169   4.658   6.472 -0.4743  1.5469 -2.0880
 9101TIP3   OH248717   2.231   0.597   2.351  0.2923  0.2280  0.3031
 9101TIP3    H148718   2.259   0.599   2.260  1.6979  2.1391  0.7125
 9101TIP3    H248719   2.137   0.581   2.348  0.4722 -0.6735 -1.4181
 9102TIP3   OH248720   1.603   5.620   1.805  0.5019  0.2170 -0.3079
 9102TIP3    H148721   1.650   5.698   1.778 -0.6505  1.4817  1.1510
 9102TIP3    H248722   1.516   5.651   1.831 -0.3883 -1.7051 -0.7423
 9103TIP3   OH248723   6.212   1.816  13.145  0.6794  0.0079 -0.0872
 9103TIP3    H148724   6.134   1.869  13.165 -0.9512 -1.1098 -2.8873
 9103TIP3    H248725   6.260   1.868  13.081  1.1053 -0.2553  0.0179
 9104TIP3   OH248726   1.135   2.047   2.196 -0.2205  0.5362 -0.3230
 9104TIP3    H148727   1.122   1.981   2.264 -1.0104  0.4051 -0.5987
 9104TIP3    H248728   1.230   2.060   2.194 -0.2314  1.1843  1.4174
 9105TIP3   OH248729   2.119   4.039   1.386 -0.4487  0.2847 -0.5588
 9105TIP3    H148730   2.214   4.050   1.384 -0.4201  0.2298  0.2158
 9105TIP3    H248731   2.104   3.952   1.347 -0.1505  0.1460 -0.3682
 9106TIP3   OH248732   4.253   3.988   0.701 -0.1570  0.6782 -0.1551
 9106TIP3    H148733   4.271   3.901   0.738  2.8678  0.7885 -1.0650
 9106TIP3    H248734   4.211   3.969   0.617  3.2483 -0.2482 -1.8487
 9107TIP3   OH248735   2.222   2.695   5.566 -0.0231  0.2727  0.5732
 9107TIP3    H148736   2.268   2.618   5.531 -0.6729  0.9827 -2.0252
 9107TIP3    H248737   2.247   2.696   5.659  3.6030 -0.5239 -0.2018
 9108TIP3   OH248738   1.034   4.794  12.290 -0.2277 -0.3367 -0.3713
 9108TIP3    H148739   1.038   4.731  12.361 -3.9856  0.8389  1.1435
 9108TIP3    H248740   1.027   4.741  12.211 -0.5824 -1.7719  0.5931
 9109TIP3   OH248741   4.978   5.023   0.254 -0.6735 -0.6060  0.0359
 9109TIP3    H148742   4.892   4.989   0.228 -0.8826  0.5675 -0.8892
 9109TIP3    H248743   4.998   5.090   0.189  3.1048 -3.9328 -2.7810
 9110TIP3   OH248744   0.321   4.305  12.872 -0.0943  0.2318 -0.3401
 9110TIP3    H148745   0.377   4.290  12.796  0.3455 -1.1707  0.2329
 9110TIP3    H248746   0.235   4.324  12.835  0.1264 -0.3671 -1.1899
 9111TIP3   OH248747   0.728   2.532   1.206 -0.4601  0.2834 -0.2864
 9111TIP3    H148748   0.790   2.604   1.212 -1.3364  1.1194 -1.0953
 9111TIP3    H248749   0.653   2.560   1.258 -0.5798 -0.2905 -0.1427
 9112TIP3   OH248750   3.782   6.361  17.080  0.4521  0.0315  0.8013
 9112TIP3    H148751   3.750   6.438  17.032 -0.0010 -0.1307  0.8326
 9112TIP3    H248752   3.789   6.391  17.171 -1.9565 -0.5537  1.2711
 9113TIP3   OH248753   4.930   5.784  13.698  0.4525 -0.0199  0.6743
 9113TIP3    H148754   4.989   5.788  13.622 -0.4748 -0.2867 -0.0785
 9113TIP3    H248755   4.889   5.870  13.701 -2.0863 -1.0342 -1.2844
 9114TIP3   OH248756   5.425   1.376   2.615 -0.3981  0.1489  0.2537
 9114TIP3    H148757   5.403   1.283   2.618 -0.6529  0.1082 -1.8849
 9114TIP3    H248758   5.372   1.416   2.684 -1.1673 -1.1084  0.4043
 9115TIP3   OH248759   5.340   3.587  11.131  0.2881  0.1461  0.5613
 9115TIP3    H148760   5.405   3.517  11.128 -0.1450 -0.2393 -0.0482
 9115TIP3    H248761   5.276   3.564  11.064 -0.9492  0.0532  1.7325
 9116TIP3   OH248762   2.235   4.898  15.168  0.1575  0.4137  0.2144
 9116TIP3    H148763   2.175   4.942  15.229  1.3709  0.2515  1.5841
 9116TIP3    H248764   2.184   4.826  15.132 -0.1817 -0.3820  2.1691
 9117TIP3   OH248765   2.549   6.335   4.454  0.0918 -0.3743 -0.5973
 9117TIP3    H148766   2.607   6.379   4.392 -0.9596  3.2433  0.6669
 9117TIP3    H248767   2.464   6.380   4.443 -1.0550 -1.9825  1.0625
 9118TIP3   OH248768   5.061   5.944   2.471 -0.2332  0.8069  0.0538
 9118TIP3    H148769   5.011   6.004   2.525 -2.7720 -0.9291 -0.1708
 9118TIP3    H248770   5.041   5.969   2.381 -1.3706 -0.3268 -0.0435
 9119TIP3   OH248771   4.333   5.765  13.427  0.1140 -0.0521 -0.5096
 9119TIP3    H148772   4.255   5.797  13.472  0.9588 -0.8015  1.5918
 9119TIP3    H248773   4.403   5.771  13.492  1.6683 -0.1180 -2.1006
 9120TIP3   OH248774   4.274   0.290  17.057 -0.4133 -0.0029  0.0397
 9120TIP3    H148775   4.325   0.343  17.119 -1.4166  1.2929 -0.1964
 9120TIP3    H248776   4.298   0.200  17.077 -0.3957  0.3979  2.0329
 9121TIP3   OH248777   5.324   1.007   0.103 -0.2088 -0.4050 -0.4985
 9121TIP3    H148778   5.291   0.956   0.177 -0.8274 -0.3116 -0.7028
 9121TIP3    H248779   5.378   0.945   0.054  0.6244 -0.3355  0.2904
 9122TIP3   OH248780   2.373   0.728   4.479 -0.7253  0.4669 -0.0742
 9122TIP3    H148781   2.455   0.694   4.444 -0.0628  0.5943  1.2878
 9122TIP3    H248782   2.321   0.749   4.402  0.5887  0.5383 -0.9713
 9123TIP3   OH248783   2.656   2.807  14.288  0.1095  0.3102 -0.0477
 9123TIP3    H148784   2.602   2.865  14.234 -1.4708 -0.9149  0.1578
 9123TIP3    H248785   2.640   2.838  14.378 -1.5342 -0.9962  0.1593
 9124TIP3   OH248786   4.642   1.217  12.066  0.7000  0.1204 -0.1372
 9124TIP3    H148787   4.618   1.144  12.123 -0.1644  0.9169  0.5470
 9124TIP3    H248788   4.584   1.208  11.990 -0.4735  0.9344  0.6337
 9125TIP3   OH248789   5.905   1.841   2.997  0.1535  0.2882 -0.1540
 9125TIP3    H148790   5.897   1.875   2.908 -0.1367  0.2572 -0.1409
 9125TIP3    H248791   5.985   1.789   2.996  2.0318  2.9750  0.4812
 9126TIP3   OH248792   5.961   1.228  16.323  0.2749  0.6119  0.5675
 9126TIP3    H148793   5.948   1.286  16.398 -1.4580 -0.2755  0.9931
 9126TIP3    H248794   6.039   1.263  16.279  0.9298  1.5558  2.3778
 9127TIP3   OH248795   1.337   1.021  12.906  0.5062 -0.0546 -0.3614
 9127TIP3    H148796   1.392   1.043  12.982  0.2872 -0.8938  0.0498
 9127TIP3    H248797   1.247   1.032  12.938  0.4153  0.1766 -0.6870
 9128TIP3   OH248798   3.050   2.106   5.750  0.7865 -0.4523  0.2745
 9128TIP3    H148799   3.105   2.027   5.748 -0.3754 -1.3001  0.7957
 9128TIP3    H248800   2.962   2.073   5.767  0.2396  0.9550  0.2597
 9129TIP3   OH248801   6.052   3.074   4.426  0.1323  0.8144  0.3543
 9129TIP3    H148802   6.036   2.995   4.373  0.6683  1.3069 -0.5639
 9129TIP3    H248803   5.969   3.090   4.470  0.0034 -0.2537  0.5412
 9130TIP3   OH248804   5.761   2.932  11.694  0.5001 -0.0342 -0.5261
 9130TIP3    H148805   5.721   2.943  11.781  0.4957 -1.0689 -0.3868
 9130TIP3    H248806   5.697   2.970  11.634 -0.4168 -1.0745 -0.2451
 9131TIP3   OH248807   5.973   6.736  17.231 -0.2584  0.2749  0.4396
 9131TIP3    H148808   6.064   6.731  17.204  0.0362  1.9116  1.0275
 9131TIP3    H248809   5.923   6.710  17.154  0.6735  0.6721 -0.3100
 9132TIP3   OH248810   3.141   5.194  15.824  0.2099  0.0496  0.0506
 9132TIP3    H148811   3.144   5.150  15.740 -2.0595 -2.1227  0.9619
 9132TIP3    H248812   3.050   5.223  15.833  0.5862  0.9379  1.4165
 9133TIP3   OH248813   0.069   0.361   0.277  0.2754 -0.5690  0.0852
 9133TIP3    H148814   0.016   0.327   0.205 -1.7362  0.6596  0.9117
 9133TIP3    H248815   0.120   0.285   0.307  1.4183 -1.0415 -2.7630
 9134TIP3   OH248816   0.496   6.014   5.447 -0.0486 -0.4434  0.0494
 9134TIP3    H148817   0.524   6.087   5.393  1.9236 -1.1333  0.0572
 9134TIP3    H248818   0.409   6.038   5.478 -1.0424  0.2078 -2.9868
 9135TIP3   OH248819   5.015   3.046   0.127 -0.0310  0.4325 -0.6434
 9135TIP3    H148820   5.041   2.966   0.173  1.0393 -0.0431 -1.9838
 9135TIP3    H248821   4.953   3.089   0.186 -0.8275 -1.5003  0.0024
 9136TIP3   OH248822   6.670   1.439   4.646 -0.2490  0.3175 -1.0204
 9136TIP3    H148823   6.759   1.438   4.682 -0.0227  0.8061 -1.5457
 9136TIP3    H248824   6.614   1.411   4.718  0.4463 -1.1869 -1.0298
 9137TIP3   OH248825   2.035   1.565  11.199  0.0083  0.0310  0.2376
 9137TIP3    H148826   2.057   1.551  11.107 -0.3105  0.6105  0.0730
 9137TIP3    H248827   2.119   1.553  11.245  0.5831  1.6433 -0.3275
 9138TIP3   OH248828   3.216   5.824  12.899 -0.5807 -0.0377 -0.2743
 9138TIP3    H148829   3.220   5.807  12.994 -0.4524  0.6150 -0.1623
 9138TIP3    H248830   3.250   5.912  12.889  1.3286 -0.8324 -1.1486
 9139TIP3   OH248831   2.098   2.106  13.438 -0.1959  0.4159  0.3423
 9139TIP3    H148832   2.013   2.149  13.434 -0.1892  0.3558 -2.2345
 9139TIP3    H248833   2.077   2.014  13.455 -0.8271  0.1376 -1.6351
 9140TIP3   OH248834   0.649   4.867  13.388 -0.3786  0.3962 -0.2206
 9140TIP3    H148835   0.662   4.924  13.464  1.2342 -0.0247 -0.1499
 9140TIP3    H248836   0.642   4.928  13.314 -0.3894  0.7491  0.0672
 9141TIP3   OH248837   3.920   3.463   4.026  0.4409 -0.1371 -0.6458
 9141TIP3    H148838   3.850   3.402   4.003 -0.0403 -0.0140  0.4442
 9141TIP3    H248839   3.881   3.550   4.017 -0.2641 -0.0955  2.0021
 9142TIP3   OH248840   2.235   0.296   4.935 -0.0825  0.0174  0.2924
 9142TIP3    H148841   2.282   0.242   4.872  0.9232  1.9443 -0.7390
 9142TIP3    H248842   2.145   0.266   4.932  0.3406 -1.2232 -0.6071
 9143TIP3   OH248843   1.387   6.046   2.249 -0.5209 -0.0171  0.3460
 9143TIP3    H148844   1.362   6.062   2.158 -2.8528 -0.1319  0.9003
 9143TIP3    H248845   1.456   5.979   2.243 -0.1522  0.4626 -1.3393
 9144TIP3   OH248846   5.829   0.082   2.244 -0.0001  0.5911 -0.7855
 9144TIP3    H148847   5.803   0.174   2.250 -1.4016  0.2253 -0.8993
 9144TIP3    H248848   5.922   0.085   2.220  0.7785  1.9782  1.9979
 9145TIP3   OH248849   0.778   1.780   2.219 -0.1234  0.2599  0.2952
 9145TIP3    H148850   0.865   1.765   2.255  0.3146  0.8717 -0.4894
 9145TIP3    H248851   0.736   1.839   2.282 -0.3644 -0.8620  1.2191
 9146TIP3   OH248852   2.057   1.370   4.610 -0.1213  0.2806  0.0146
 9146TIP3    H148853   2.109   1.403   4.536  0.2980  2.3354  1.1448
 9146TIP3    H248854   1.981   1.329   4.569  0.9569 -0.2171 -1.5948
 9147TIP3   OH248855   3.498   0.262   0.371  0.0679  0.8215 -0.2478
 9147TIP3    H148856   3.506   0.349   0.411 -0.3359  1.5692 -1.7516
 9147TIP3    H248857   3.586   0.242   0.339  1.2609 -1.1611  3.5535
 9148TIP3   OH248858   1.550   1.180  11.388  0.1924 -0.1840 -0.7372
 9148TIP3    H148859   1.602   1.160  11.467 -1.4903  0.3386  0.5645
 9148TIP3    H248860   1.554   1.275  11.381 -0.7448 -0.1227 -0.5005
 9149TIP3   OH248861   4.416   6.284   0.286 -0.5994  0.1610  0.4793
 9149TIP3    H148862   4.464   6.340   0.225  3.0847 -2.9747  0.0796
 9149TIP3    H248863   4.357   6.233   0.230  0.9259 -0.9221 -0.2250
 9150TIP3   OH248864   1.010   1.275   4.194 -0.2328  0.5339  0.7645
 9150TIP3    H148865   0.941   1.211   4.210  0.7029 -1.1063 -1.3440
 9150TIP3    H248866   0.983   1.320   4.114  0.7088  0.4959  0.4140
 9151TIP3   OH248867   2.591   2.130   2.768  0.5347  0.4740  0.2125
 9151TIP3    H148868   2.646   2.054   2.749 -0.4641 -0.2086 -0.0386
 9151TIP3    H248869   2.613   2.193   2.700 -0.0298 -0.3577 -0.7604
 9152TIP3   OH248870   3.384   2.320  13.544 -0.4269  0.3506 -0.1461
 9152TIP3    H148871   3.388   2.297  13.637  0.1956  0.8079 -0.0616
 9152TIP3    H248872   3.306   2.374  13.537 -0.1558  0.7922  0.2155
 9153TIP3   OH248873   4.530   1.134  16.052 -0.1594  0.1832 -0.2000
 9153TIP3    H148874   4.605   1.184  16.022 -0.8107  0.9530 -0.5944
 9153TIP3    H248875   4.468   1.200  16.083 -0.6097 -0.4459  0.2741
 9154TIP3   OH248876   4.533   3.641   3.323 -0.2902  0.4772 -0.0348
 9154TIP3    H148877   4.568   3.626   3.235  4.3334 -2.4605  1.9452
 9154TIP3    H248878   4.486   3.560   3.345 -1.5337  1.2403  0.2597
 9155TIP3   OH248879   4.171   2.417   4.587 -0.6405 -0.5702 -0.5021
 9155TIP3    H148880   4.090   2.421   4.639  0.1362 -0.4042  0.7173
 9155TIP3    H248881   4.168   2.330   4.546 -0.6944 -1.2024  0.7990
 9156TIP3   OH248882   3.187   6.762   2.772  0.0072  0.2305  0.1526
 9156TIP3    H148883   3.221   6.753   2.683 -0.2097  1.6541 -0.0971
 9156TIP3    H248884   3.263   6.752   2.828  0.1078 -0.9333 -0.1641
 9157TIP3   OH248885   1.718   4.192   0.782  0.3682 -0.0736  0.7732
 9157TIP3    H148886   1.716   4.259   0.850  2.7730 -0.4300  1.2961
 9157TIP3    H248887   1.751   4.238   0.704 -1.2745  0.0715  0.1253
 9158TIP3   OH248888   6.756   5.689   1.957 -0.4266  0.2191  0.3765
 9158TIP3    H148889   6.801   5.693   2.041 -0.5222 -0.4806  0.4652
 9158TIP3    H248890   6.665   5.670   1.979 -0.0378 -2.4167  0.0475
 9159TIP3   OH248891   6.772   0.530   3.523 -0.2185 -0.2934 -0.4695
 9159TIP3    H148892   6.747   0.449   3.478  2.0259 -2.0273  1.1379
 9159TIP3    H248893   6.808   0.586   3.454 -0.2280 -1.3711 -1.3767
 9160TIP3   OH248894   4.863   0.863  13.717  0.1559 -0.4304  0.4533
 9160TIP3    H148895   4.813   0.943  13.700  0.0780 -0.7350 -0.8475
 9160TIP3    H248896   4.938   0.868  13.657  0.0254 -1.4374  0.1869
 9161TIP3   OH248897   0.243   5.434  11.212  0.3074  0.1470  0.0195
 9161TIP3    H148898   0.291   5.392  11.140 -0.5568 -1.4494  0.3199
 9161TIP3    H248899   0.154   5.445  11.178  0.3002  0.9188  0.2809
 9162TIP3   OH248900   6.274   0.521  16.364 -0.3129 -0.3727  0.1945
 9162TIP3    H148901   6.317   0.521  16.279 -0.7816 -1.9919 -0.0736
 9162TIP3    H248902   6.247   0.430  16.377 -1.9715  0.2262  1.1983
 9163TIP3   OH248903   0.921   1.149  13.914 -0.1273 -0.3684  0.3746
 9163TIP3    H148904   0.890   1.190  13.995  1.2120 -1.3940  1.4417
 9163TIP3    H248905   1.008   1.116  13.935  0.0541 -1.0903 -1.3462
 9164TIP3   OH248906   2.929   6.709  14.964 -0.2626 -0.3539 -0.2014
 9164TIP3    H148907   2.906   6.763  15.040  0.7588 -0.6295  0.3161
 9164TIP3    H248908   2.932   6.770  14.891  1.5429  0.4535  0.4914
 9165TIP3   OH248909   5.835   3.787   5.331 -0.1893  0.5798 -0.0128
 9165TIP3    H148910   5.756   3.812   5.283  0.2228  0.0489 -0.9878
 9165TIP3    H248911   5.802   3.736   5.405 -0.8828  2.0394  0.7333
 9166TIP3   OH248912   6.528   1.099  16.305 -0.7243  0.8297 -0.6847
 9166TIP3    H148913   6.542   1.005  16.314  2.2274  1.0861 -1.4875
 9166TIP3    H248914   6.473   1.122  16.380 -0.3160 -1.3196  0.3718
 9167TIP3   OH248915   4.898   2.687  11.544 -0.1517 -0.0204 -0.3892
 9167TIP3    H148916   4.936   2.656  11.627  0.7747  2.3396  0.1600
 9167TIP3    H248917   4.973   2.721  11.495 -0.8430 -0.3923 -1.7539
 9168TIP3   OH248918   0.622   6.016   2.074  0.3400 -0.1857  0.1274
 9168TIP3    H148919   0.696   6.035   2.016 -0.8079  0.8054 -1.0670
 9168TIP3    H248920   0.583   5.936   2.038 -0.7600  0.7816 -0.9260
 9169TIP3   OH248921   4.492   3.921  16.557  0.5210 -0.4283  0.1612
 9169TIP3    H148922   4.525   3.893  16.643 -1.6740 -0.2101  1.1449
 9169TIP3    H248923   4.401   3.891  16.556  0.1202  0.7331 -1.5588
 9170TIP3   OH248924   4.027   6.391  13.192  0.2375  0.7223 -0.5183
 9170TIP3    H148925   3.996   6.459  13.132 -0.4456 -0.6848 -1.8430
 9170TIP3    H248926   4.030   6.312  13.138  2.2295 -0.0578  0.6436
 9171TIP3   OH248927   5.824   6.377  16.272 -0.0672  0.1332  0.5738
 9171TIP3    H148928   5.746   6.432  16.278  0.4870  1.1596 -1.0571
 9171TIP3    H248929   5.897   6.436  16.291  0.4594 -0.2626 -0.1644
 9172TIP3   OH248930   3.646   0.025   2.643  0.7488  0.0753  0.6734
 9172TIP3    H148931   3.588   0.073   2.584 -1.8111 -0.9656  2.1433
 9172TIP3    H248932   3.623   0.056   2.731  1.9033 -0.9378  1.3788
 9173TIP3   OH248933   0.876   1.221  14.203  0.0022  0.3339  0.3790
 9173TIP3    H148934   0.818   1.174  14.262  0.7876 -1.3342 -0.1215
 9173TIP3    H248935   0.962   1.219  14.245  0.3213  0.1631 -0.2578
 9174TIP3   OH248936   0.240   5.718   4.313  0.1433  0.1739  0.2222
 9174TIP3    H148937   0.254   5.804   4.354  0.6274  0.8504 -1.2755
 9174TIP3    H248938   0.153   5.724   4.275  0.8222  0.6536 -1.3279
 9175TIP3   OH248939   5.707   6.016   0.888 -0.4283 -0.5070  0.9678
 9175TIP3    H148940   5.629   6.017   0.944 -0.2907 -0.6522  1.1628
 9175TIP3    H248941   5.724   6.108   0.868 -0.9438 -0.5062  0.5161
 9176TIP3   OH248942   4.203   4.840   4.817 -0.6130 -0.4284  0.3436
 9176TIP3    H148943   4.242   4.915   4.772  1.1501 -0.3548  1.8641
 9176TIP3    H248944   4.175   4.782   4.747  0.6103  0.3764 -0.8640
 9177TIP3   OH248945   2.766   4.922  11.203  0.1438  0.1755 -0.7690
 9177TIP3    H148946   2.761   4.826  11.194  0.5463  0.1804 -1.1150
 9177TIP3    H248947   2.756   4.954  11.113  0.1571  0.4526 -0.6701
 9178TIP3   OH248948   0.902   4.493  13.132  0.0338 -0.8000 -0.5363
 9178TIP3    H148949   0.924   4.448  13.051 -2.4479 -2.3257 -0.4845
 9178TIP3    H248950   0.877   4.423  13.192 -1.3083  0.4505  0.4505
 9179TIP3   OH248951   3.125   3.479  14.603 -0.5706  0.3220 -0.5671
 9179TIP3    H148952   3.203   3.534  14.610 -0.5434  0.3197 -0.8202
 9179TIP3    H248953   3.130   3.421  14.678  0.8375 -1.1570 -1.7135
 9180TIP3   OH248954   3.624   4.624  13.641 -0.3906 -0.7623 -0.2595
 9180TIP3    H148955   3.669   4.682  13.579 -0.4604 -1.5921 -1.0981
 9180TIP3    H248956   3.671   4.636  13.724 -3.2062  4.2024  1.1072
 9181TIP3   OH248957   6.412   1.374   0.352 -0.0929  0.0646  0.9013
 9181TIP3    H148958   6.428   1.359   0.259 -0.4608  0.5972  0.7502
 9181TIP3    H248959   6.432   1.466   0.365 -1.2587  0.3039  1.0864
 9182TIP3   OH248960   2.994   4.448   2.016  0.5944  0.2391 -0.1126
 9182TIP3    H148961   3.045   4.391   2.073  1.6060  1.4427  0.2281
 9182TIP3    H248962   2.933   4.493   2.074 -0.8614 -1.1137 -0.5028
 9183TIP3   OH248963   6.104   5.437  11.762  0.4777  0.3588  0.4629
 9183TIP3    H148964   6.150   5.355  11.743 -1.0462 -0.0155 -2.1222
 9183TIP3    H248965   6.156   5.505  11.718  0.4243  0.4266  0.5039
 9184TIP3   OH248966   0.559   5.562  11.989  0.6190  0.3492  0.0474
 9184TIP3    H148967   0.481   5.576  11.935 -0.5093  1.0819  1.7598
 9184TIP3    H248968   0.608   5.643  11.983 -0.5696  1.2576  1.6738
 9185TIP3   OH248969   4.344   3.012  14.315  0.2343  0.3141  0.0428
 9185TIP3    H148970   4.396   3.085  14.281  0.7225  0.3351  0.8188
 9185TIP3    H248971   4.302   3.047  14.394  0.9781 -0.4169  0.7869
 9186TIP3   OH248972   5.187   1.706   0.844  0.0623 -0.2833 -0.0847
 9186TIP3    H148973   5.206   1.620   0.806  0.1612 -0.8966  1.3164
 9186TIP3    H248974   5.267   1.730   0.890  0.8834  1.6187 -2.2537
 9187TIP3   OH248975   3.166   0.065  14.496 -0.0438 -0.2801 -0.8729
 9187TIP3    H148976   3.092   0.005  14.488 -0.1339 -0.1219 -1.2287
 9187TIP3    H248977   3.145   0.138  14.437  1.3999 -1.2481 -2.6937
 9188TIP3   OH248978   4.243   1.923   5.925  0.1104  0.1154  0.4647
 9188TIP3    H148979   4.289   1.899   6.005 -1.4827 -0.7057  1.1913
 9188TIP3    H248980   4.161   1.873   5.929  0.4649 -0.8587 -2.2260
 9189TIP3   OH248981   4.932   5.633   5.704 -0.2244 -0.4734 -0.5063
 9189TIP3    H148982   5.003   5.670   5.756 -1.3619  0.7493  0.2629
 9189TIP3    H248983   4.974   5.570   5.646  1.7209  1.4695 -1.3129
 9190TIP3   OH248984   3.161   1.125  13.395 -0.0204  0.2939 -0.4512
 9190TIP3    H148985   3.141   1.217  13.380  0.4638  0.7922  1.5941
 9190TIP3    H248986   3.179   1.089  13.308 -2.8313  1.4333 -1.6323
 9191TIP3   OH248987   1.908   0.386  15.233 -0.4436  0.0324 -0.4079
 9191TIP3    H148988   1.992   0.363  15.273 -1.0175  0.2761  0.9981
 9191TIP3    H248989   1.907   0.338  15.150  0.9742 -0.1572 -0.3402
 9192TIP3   OH248990   5.223   4.999  16.027 -0.0553  0.2261  0.3199
 9192TIP3    H148991   5.192   4.915  16.062 -1.1559  0.9118  1.0237
 9192TIP3    H248992   5.145   5.039  15.988  0.3469  1.1762  0.4872
 9193TIP3   OH248993   0.160   4.907   4.134 -0.5429  0.5253  0.2326
 9193TIP3    H148994   0.096   4.977   4.123 -1.2734 -0.0500  0.6909
 9193TIP3    H248995   0.167   4.896   4.229 -0.3770  0.0333  0.1669
 9194TIP3   OH248996   2.309   6.476  16.228 -0.1865  0.0700 -0.4407
 9194TIP3    H148997   2.367   6.442  16.296 -0.8674 -0.0694  0.0852
 9194TIP3    H248998   2.331   6.426  16.150 -0.2994 -0.7035  0.0103
 9195TIP3   OH248999   6.568   1.776   4.618 -0.1149 -0.7153  0.1628
 9195TIP3    H149000   6.596   1.761   4.709  1.6967 -0.2994 -0.2837
 9195TIP3    H249001   6.480   1.813   4.626  0.3295  0.0862  1.7980
 9196TIP3   OH249002   6.320   5.620  11.624  0.1267  0.2122 -0.5236
 9196TIP3    H149003   6.373   5.561  11.569  0.6112  1.0706 -0.9916
 9196TIP3    H249004   6.358   5.612  11.711  0.6974  0.4099 -0.7450
 9197TIP3   OH249005   1.806   1.065   0.132  0.4050  0.6395  0.0477
 9197TIP3    H149006   1.837   1.101   0.049 -2.3650 -0.1217 -1.4429
 9197TIP3    H249007   1.807   0.970   0.119 -0.4876  0.5261  0.6896
 9198TIP3   OH249008   2.111   4.303  15.766  0.3778  0.3884 -0.9005
 9198TIP3    H149009   2.020   4.287  15.792  0.8106 -1.1061 -0.2144
 9198TIP3    H249010   2.105   4.332  15.675 -0.6969 -1.6219 -1.5282
 9199TIP3   OH249011   1.504   5.941  17.111  0.2573  0.3396 -0.3308
 9199TIP3    H149012   1.417   5.932  17.149  0.1484 -0.6711 -0.7863
 9199TIP3    H249013   1.557   5.875  17.156  0.5908  0.4096 -0.6172
 9200TIP3   OH249014   3.694   4.264  16.682 -0.1710  0.4328 -0.1333
 9200TIP3    H149015   3.767   4.229  16.631  0.6227  1.2817  0.3961
 9200TIP3    H249016   3.622   4.269  16.620 -0.6797 -3.0959 -0.0178
 9201TIP3   OH249017   1.990   3.648  16.430  0.1427  0.1430 -0.3338
 9201TIP3    H149018   2.002   3.735  16.467 -0.3948  0.5713 -1.1280
 9201TIP3    H249019   1.991   3.661  16.335 -0.4039 -0.6410 -0.4648
 9202TIP3   OH249020   5.196   0.586  10.448 -0.0325  0.4019  0.1680
 9202TIP3    H149021   5.212   0.585  10.353 -0.7321 -0.0633  0.0481
 9202TIP3    H249022   5.278   0.554  10.486  0.3635  0.8835 -0.2609
 9203TIP3   OH249023   4.294   4.795  12.610 -0.2309  0.3411  0.4265
 9203TIP3    H149024   4.297   4.737  12.686  0.9103 -0.8005 -0.4424
 9203TIP3    H249025   4.242   4.747  12.545  0.0021  0.6657 -0.0077
 9204TIP3   OH249026   0.002   2.377  15.151 -0.8067 -0.0212 -0.0827
 9204TIP3    H149027  -0.073   2.326  15.182 -0.4042 -0.8602 -0.4759
 9204TIP3    H249028   0.023   2.341  15.065  0.7422 -0.5663  0.4823
 9205TIP3   OH249029   3.847   0.561  16.794 -0.1403 -0.0332 -0.3969
 9205TIP3    H149030   3.846   0.497  16.723 -1.9568 -0.3395 -0.1482
 9205TIP3    H249031   3.901   0.633  16.761  0.7598 -1.0479 -1.2440
 9206TIP3   OH249032   4.014   0.996  14.765  0.5401  0.1752  0.8082
 9206TIP3    H149033   3.994   0.943  14.687  1.0055  1.7019 -0.4108
 9206TIP3    H249034   3.930   1.003  14.811  0.3041 -0.9407  0.5815
 9207TIP3   OH249035   3.784   6.346  15.640 -0.0255 -0.0705  0.0400
 9207TIP3    H149036   3.877   6.362  15.653 -0.6251  1.8183  2.7296
 9207TIP3    H249037   3.767   6.378  15.551  2.1026 -1.9119 -1.1252
 9208TIP3   OH249038   0.816   5.667  13.835 -0.3404  0.4033 -0.0553
 9208TIP3    H149039   0.843   5.730  13.768  1.6675 -0.5704 -0.2363
 9208TIP3    H249040   0.720   5.673  13.836 -0.2727  2.6042 -0.8551
 9209TIP3   OH249041   2.402   1.302   3.856 -0.0507 -0.2380  0.1062
 9209TIP3    H149042   2.313   1.281   3.883  0.4993  0.3415  2.5939
 9209TIP3    H249043   2.446   1.329   3.936  2.1547  0.2957 -1.1935
 9210TIP3   OH249044   0.870   4.372  15.648  0.1450  0.1343  0.2552
 9210TIP3    H149045   0.870   4.310  15.575 -0.4248 -0.3537  0.6533
 9210TIP3    H249046   0.920   4.447  15.617  2.9345 -1.4705  0.5885
 9211TIP3   OH249047   2.406   2.953  11.848 -0.1445  0.2474  0.1261
 9211TIP3    H149048   2.356   2.956  11.766  0.7939  1.0419 -0.4410
 9211TIP3    H249049   2.469   2.882  11.836 -0.4384 -0.0692  0.4296
 9212TIP3   OH249050   1.338   3.561  13.791 -0.0600 -0.1033 -0.1195
 9212TIP3    H149051   1.294   3.518  13.865 -1.3628  1.8770  0.3598
 9212TIP3    H249052   1.268   3.577  13.728  0.8584 -0.8811 -1.3694
 9213TIP3   OH249053   0.062   4.000  14.967 -0.4036  0.3333  0.0883
 9213TIP3    H149054   0.138   3.944  14.981  0.7852  1.2492 -2.0450
 9213TIP3    H249055   0.027   4.016  15.054  2.5405  0.7599  1.3154
 9214TIP3   OH249056   2.609   4.397  17.126  0.1110 -0.2803 -0.4094
 9214TIP3    H149057   2.528   4.369  17.084  0.2313  0.8559 -1.4394
 9214TIP3    H249058   2.671   4.326  17.109 -0.0579 -0.1771 -1.5157
 9215TIP3   OH249059   2.786   0.370  14.967 -0.4554  0.4451  0.3157
 9215TIP3    H149060   2.877   0.352  14.988  0.2382  0.7537 -2.1473
 9215TIP3    H249061   2.788   0.454  14.921 -1.6950 -0.4654 -1.5242
 9216TIP3   OH249062   2.315   3.113   2.551 -0.6482 -0.9930  0.1332
 9216TIP3    H149063   2.261   3.116   2.629 -2.7476  1.0076 -1.2690
 9216TIP3    H249064   2.287   3.188   2.499  2.9996 -0.2970 -1.0858
 9217TIP3   OH249065   5.884   2.163   4.904  0.1144  0.1188  0.4570
 9217TIP3    H149066   5.839   2.129   4.826 -0.6131 -1.7389  1.6209
 9217TIP3    H249067   5.975   2.134   4.893 -0.0707 -0.4870  0.4637
 9218TIP3   OH249068   3.232   1.888   4.125 -0.0128  0.1011 -0.0551
 9218TIP3    H149069   3.317   1.877   4.082  0.2232  2.1112 -0.1941
 9218TIP3    H249070   3.252   1.887   4.218 -0.0515 -0.8595 -0.0499
 9219TIP3   OH249071   6.253   2.676   4.089  0.4783 -0.2721  0.5519
 9219TIP3    H149072   6.264   2.642   4.000  0.7001 -0.0031  0.4760
 9219TIP3    H249073   6.301   2.759   4.090  0.1233 -0.0661  0.8009
 9220TIP3   OH249074   2.908   5.845   5.463 -0.0392  0.4313 -0.2289
 9220TIP3    H149075   2.963   5.904   5.412 -3.3029  2.6592 -1.5402
 9220TIP3    H249076   2.873   5.784   5.398 -0.0181 -0.2391  0.3755
 9221TIP3   OH249077   3.232   1.753   0.246  0.3505 -0.0148  0.1759
 9221TIP3    H149078   3.272   1.839   0.233 -0.6578  0.6369  1.2146
 9221TIP3    H249079   3.182   1.737   0.166  0.6320  0.3165 -0.0662
 9222TIP3   OH249080   4.958   0.309   1.447 -0.0880  0.0361  0.1482
 9222TIP3    H149081   5.001   0.393   1.461  0.0720  0.2257 -1.3386
 9222TIP3    H249082   4.866   0.324   1.469 -0.3378  0.9968 -1.4482
 9223TIP3   OH249083   4.401   6.690   4.457  0.3724 -0.3026  0.0623
 9223TIP3    H149084   4.343   6.751   4.409 -0.0012  2.3954  3.5563
 9223TIP3    H249085   4.489   6.717   4.431  0.1600 -0.1071 -0.4851
 9224TIP3   OH249086   6.034   2.301   4.656  0.3536 -0.3182  0.5438
 9224TIP3    H149087   6.051   2.305   4.750 -0.2448 -0.3033  0.6538
 9224TIP3    H249088   6.121   2.298   4.616  0.6199 -2.0550  1.1608
 9225TIP3   OH249089   1.127   3.464  15.637  0.2129 -0.4391 -0.0642
 9225TIP3    H149090   1.205   3.506  15.672 -0.2256 -0.6141  1.1591
 9225TIP3    H249091   1.127   3.487  15.544  0.3448  1.6852  0.4218
 9226TIP3   OH249092   0.261   6.698  15.212  0.6815  0.6064  0.1719
 9226TIP3    H149093   0.327   6.733  15.151 -0.1329  1.9413  0.0208
 9226TIP3    H249094   0.213   6.634  15.160  1.0274  0.5732 -0.1113
 9227TIP3   OH249095   4.862   5.567   1.407  0.1810 -0.0686  0.3740
 9227TIP3    H149096   4.791   5.503   1.398 -0.9462  1.2795 -0.9041
 9227TIP3    H249097   4.826   5.637   1.461 -0.6302  2.0385 -2.6507
 9228TIP3   OH249098   2.684   1.636  13.462 -0.3923 -0.4964  0.4305
 9228TIP3    H149099   2.742   1.709  13.482 -1.9454  0.1063  3.0245
 9228TIP3    H249100   2.605   1.676  13.427 -0.6348 -1.0754  0.2972
 9229TIP3   OH249101   2.332   5.863   1.959 -0.1639  0.5422 -0.5156
 9229TIP3    H149102   2.378   5.793   2.004 -2.8729  0.5855  2.7046
 9229TIP3    H249103   2.365   5.943   1.999 -1.2039  0.6979  0.0851
 9230TIP3   OH249104   1.043   2.597   2.049 -0.0072 -0.4160  0.5733
 9230TIP3    H149105   1.048   2.501   2.055 -1.5297 -0.4784  1.5006
 9230TIP3    H249106   0.972   2.613   1.987  1.7365  0.1718 -1.3795
 9231TIP3   OH249107   0.617   3.054   0.494 -0.3877 -0.4383 -0.2474
 9231TIP3    H149108   0.542   3.091   0.542  0.0004  0.9732 -0.6866
 9231TIP3    H249109   0.647   3.125   0.438 -0.2233 -1.7478 -1.9109
 9232TIP3   OH249110   2.125   5.202   1.371  0.2060 -0.3657 -0.4207
 9232TIP3    H149111   2.139   5.108   1.359  2.4151 -0.2715  0.7321
 9232TIP3    H249112   2.092   5.210   1.461 -1.4897 -0.1009 -1.0343
 9233TIP3   OH249113   4.565   5.598  16.259 -0.4749  0.2488 -0.4343
 9233TIP3    H149114   4.486   5.567  16.303 -0.3522  1.1837  0.4843
 9233TIP3    H249115   4.626   5.617  16.330  0.3705  0.1025 -1.1079
 9234TIP3   OH249116   1.668   1.545   0.892  0.3261 -0.3517 -0.5205
 9234TIP3    H149117   1.723   1.467   0.904 -0.5998 -0.7380  1.9985
 9234TIP3    H249118   1.694   1.603   0.964  2.0269  2.4170 -3.1747
 9235TIP3   OH249119   4.288   0.578  13.529 -0.2861  0.5719  0.4476
 9235TIP3    H149120   4.308   0.610  13.617 -0.0542  0.6741  0.3587
 9235TIP3    H249121   4.201   0.540  13.537 -0.0201  0.0242  0.8679
 9236TIP3   OH249122   3.515   2.394  11.208 -0.2425  0.3013 -0.4090
 9236TIP3    H149123   3.607   2.421  11.211 -0.4004  0.7500  0.9314
 9236TIP3    H249124   3.491   2.400  11.116  0.8224  1.0438 -0.6539
 9237TIP3   OH249125   5.370   5.516  14.860 -0.6606 -0.2822  0.1796
 9237TIP3    H149126   5.285   5.536  14.900  0.0414 -0.1906  1.6923
 9237TIP3    H249127   5.397   5.433  14.901 -0.1723 -0.5034 -0.5584
 9238TIP3   OH249128   1.487   1.407   4.596  0.0527  0.6406  0.3710
 9238TIP3    H149129   1.432   1.332   4.574 -0.0412  1.1563 -1.2770
 9238TIP3    H249130   1.488   1.409   4.692 -0.9542 -0.7091  0.4331
 9239TIP3   OH249131   0.554   5.975  16.234  0.2529 -0.3913  0.1787
 9239TIP3    H149132   0.589   6.064  16.244 -0.5962  0.0067 -0.2731
 9239TIP3    H249133   0.629   5.922  16.208  0.4103  0.5832 -1.5091
 9240TIP3   OH249134   0.475   4.340  11.888  0.0458  0.0429 -0.2983
 9240TIP3    H149135   0.518   4.289  11.820 -0.1620 -0.0270 -0.3797
 9240TIP3    H249136   0.546   4.377  11.939  0.2029 -0.3156 -0.2496
 9241TIP3   OH249137   0.837   5.277   0.193 -0.0552 -0.3603 -0.2608
 9241TIP3    H149138   0.849   5.347   0.129  2.1988 -2.5313 -2.4158
 9241TIP3    H249139   0.750   5.292   0.229 -1.0018  1.6064 -3.0625
 9242TIP3   OH249140   2.327   5.457   3.080 -0.3134  0.1421 -0.4246
 9242TIP3    H149141   2.385   5.394   3.123 -0.8179 -0.0144  0.0464
 9242TIP3    H249142   2.386   5.517   3.034  0.1782 -0.5629 -0.7301
 9243TIP3   OH249143   2.032   1.370  12.723  0.1680 -0.0642 -0.4373
 9243TIP3    H149144   1.978   1.442  12.691  0.4423  0.6059  0.5346
 9243TIP3    H249145   2.011   1.296  12.666 -1.5118  0.2636 -0.3109
 9244TIP3   OH249146   0.505   0.094   1.640  0.0464  0.0203  0.6498
 9244TIP3    H149147   0.515   0.002   1.614  0.2629  0.5439 -1.1922
 9244TIP3    H249148   0.584   0.112   1.692  0.1142 -0.7595  0.8325
 9245TIP3   OH249149   4.607   4.539  14.099  0.4036 -0.4726 -0.4334
 9245TIP3    H149150   4.588   4.620  14.147  1.8899 -0.4514  0.1807
 9245TIP3    H249151   4.528   4.486  14.111 -0.4315  0.6964 -0.4845
 9246TIP3   OH249152   5.705   6.300   4.782  0.3302 -0.6262 -0.5844
 9246TIP3    H149153   5.761   6.349   4.722  0.9928 -2.3122 -1.4106
 9246TIP3    H249154   5.633   6.269   4.727 -0.3645 -0.1439  0.0439
 9247TIP3   OH249155   2.384   0.424  11.883  0.4430 -0.0108 -0.5076
 9247TIP3    H149156   2.301   0.383  11.905 -1.0304  2.5368 -0.8932
 9247TIP3    H249157   2.364   0.480  11.808  2.5035  0.7049 -0.5956
 9248TIP3   OH249158   1.171   4.363  10.953 -0.0931  0.1577 -0.0789
 9248TIP3    H149159   1.086   4.393  10.922 -1.1938 -1.2000  1.4563
 9248TIP3    H249160   1.208   4.316  10.878 -1.7030 -1.1530 -0.1122
 9249TIP3   OH249161   3.906   0.931   2.003 -0.0432  0.2624 -0.1844
 9249TIP3    H149162   3.960   1.010   2.008  0.8668 -0.2580 -1.3046
 9249TIP3    H249163   3.821   0.957   2.039  0.2987  1.6902 -0.3613
 9250TIP3   OH249164   5.164   2.506  15.067  0.2146 -0.4744  0.2590
 9250TIP3    H149165   5.085   2.555  15.088  0.5110 -0.1898  0.7140
 9250TIP3    H249166   5.236   2.559  15.102  0.6822 -0.2727 -0.9479
 9251TIP3   OH249167   2.390   4.766  15.591  0.3052  0.5272 -0.2180
 9251TIP3    H149168   2.394   4.742  15.498  2.0676  1.2364 -0.3690
 9251TIP3    H249169   2.312   4.721  15.624 -0.6567  0.6694 -2.1480
 9252TIP3   OH249170   2.859   3.114  11.565  0.0154 -0.1835  0.3795
 9252TIP3    H149171   2.913   3.042  11.532 -0.5728 -0.6693  0.4561
 9252TIP3    H249172   2.804   3.074  11.632 -1.1797  0.0578 -0.4113
 9253TIP3   OH249173   4.766   0.244  12.346 -0.2331 -0.1015  0.3332
 9253TIP3    H149174   4.674   0.218  12.359  0.0565 -0.6354  1.4229
 9253TIP3    H249175   4.786   0.297  12.423  0.5782 -0.5782  0.4572
 9254TIP3   OH249176   5.121   3.566  16.056  1.0343  0.0391 -0.2272
 9254TIP3    H149177   5.179   3.576  15.980  0.6857 -3.2822 -1.1061
 9254TIP3    H249178   5.179   3.570  16.132  1.8476  0.4781 -0.8639
 9255TIP3   OH249179   0.132   5.358   5.849 -0.4420  0.1596  0.6283
 9255TIP3    H149180   0.079   5.389   5.776  0.9913  1.7578  0.1820
 9255TIP3    H249181   0.090   5.395   5.927 -0.6823  0.3719  0.3996
 9256TIP3   OH249182   6.176   1.968  13.891  0.2511 -0.1746  0.3637
 9256TIP3    H149183   6.215   2.049  13.925  1.9952 -1.5412  1.8152
 9256TIP3    H249184   6.155   1.917  13.970 -0.3003 -1.3569 -0.5226
 9257TIP3   OH249185   2.787   1.247  12.672 -0.0405 -1.0842  0.1975
 9257TIP3    H149186   2.816   1.338  12.661  1.6724 -1.5781  0.3187
 9257TIP3    H249187   2.739   1.246  12.755  2.9869 -0.9236  2.1004
 9258TIP3   OH249188   1.683   3.490  11.792 -0.2124  0.1648 -0.2307
 9258TIP3    H149189   1.764   3.477  11.742 -0.5881 -1.4682 -0.4931
 9258TIP3    H249190   1.614   3.489  11.726 -0.4515  1.7398 -0.0274
 9259TIP3   OH249191   1.890   4.238   6.010  0.2213 -0.2993 -0.0828
 9259TIP3    H149192   1.816   4.268   6.062  0.6904  0.3185  0.2356
 9259TIP3    H249193   1.913   4.313   5.954  0.6587 -0.4524 -0.1158
 9260TIP3   OH249194   3.763   4.389  13.899 -0.0383 -0.5166 -0.0436
 9260TIP3    H149195   3.801   4.475  13.889  1.3817 -1.0967  0.1983
 9260TIP3    H249196   3.710   4.395  13.979 -1.9008  0.7598 -1.2725
 9261TIP3   OH249197   6.098   0.521  15.662  0.0271 -0.0615  0.0797
 9261TIP3    H149198   6.091   0.497  15.754 -0.9053  1.9575  0.5928
 9261TIP3    H249199   6.018   0.570  15.643 -1.1080 -2.5676 -2.5684
 9262TIP3   OH249200   6.303   1.880   4.638  0.1639 -0.3271 -0.1695
 9262TIP3    H149201   6.230   1.891   4.700 -0.0411 -0.7261 -0.3353
 9262TIP3    H249202   6.264   1.897   4.553  0.6362  1.0522 -0.1269
 9263TIP3   OH249203   5.959   1.527   1.243  0.4605 -0.0486  0.3285
 9263TIP3    H149204   5.962   1.606   1.297  1.7834  0.5754 -0.5872
 9263TIP3    H249205   5.959   1.454   1.305 -1.4515  0.6472  1.2100
 9264TIP3   OH249206   3.625   5.814   2.575 -0.5734 -0.2593 -0.2062
 9264TIP3    H149207   3.671   5.891   2.541 -0.1467 -0.4253 -0.0218
 9264TIP3    H249208   3.695   5.752   2.595 -0.9048 -0.6298 -0.1931
 9265TIP3   OH249209   4.691   1.503   4.595  0.0131  0.1870  0.4727
 9265TIP3    H149210   4.724   1.561   4.527  1.7415  2.4142  3.0133
 9265TIP3    H249211   4.769   1.467   4.637 -0.9533 -0.4251  1.8502
 9266TIP3   OH249212   1.740   6.424  17.210  0.2511  0.1446  0.6002
 9266TIP3    H149213   1.733   6.382  17.124 -1.1199  0.3107  0.6059
 9266TIP3    H249214   1.687   6.369  17.268 -0.2354  0.9623  0.9564
 9267TIP3   OH249215   4.076   2.920   5.439  1.0850 -0.2748  0.3524
 9267TIP3    H149216   4.030   2.864   5.501  1.5727  0.5140  1.4428
 9267TIP3    H249217   4.140   2.862   5.397  1.7803 -0.4994  1.6775
 9268TIP3   OH249218   0.461   2.512  15.281  0.1560  0.2932 -0.6477
 9268TIP3    H149219   0.515   2.589  15.302 -0.9343  0.6280  1.1924
 9268TIP3    H249220   0.424   2.531  15.195  1.6765  0.7704 -1.2437
 9269TIP3   OH249221   6.217   0.632   4.912  0.2882 -0.6390 -0.0297
 9269TIP3    H149222   6.295   0.674   4.875 -0.4237 -2.2699 -3.7468
 9269TIP3    H249223   6.150   0.700   4.909  0.7950 -0.0981  0.4667
 9270TIP3   OH249224   6.078   6.657  10.732  0.3457  0.1980 -0.1413
 9270TIP3    H149225   6.145   6.590  10.743 -1.4731 -2.0292 -1.6605
 9270TIP3    H249226   6.023   6.625  10.660 -0.3989  3.5600 -1.2675
 9271TIP3   OH249227   2.146   4.058   2.856  0.1152  0.1172  0.5011
 9271TIP3    H149228   2.068   4.112   2.870 -1.0365 -1.4117  0.2818
 9271TIP3    H249229   2.159   4.012   2.939 -0.8093 -1.5533 -0.2193
 9272TIP3   OH249230   4.363   6.641  14.743 -0.4520 -0.5324 -0.4341
 9272TIP3    H149231   4.371   6.584  14.819  0.4105  0.0400 -0.0760
 9272TIP3    H249232   4.271   6.633  14.716 -0.8320 -0.5412  0.8167
 9273TIP3   OH249233   6.086   0.466   4.465 -0.0446 -0.0731  0.1896
 9273TIP3    H149234   6.052   0.488   4.552 -0.1476 -0.8888  0.3588
 9273TIP3    H249235   6.076   0.547   4.415 -0.7363  0.1711  0.7064
 9274TIP3   OH249236   2.922   2.039   0.029 -0.5064  0.0467  0.4898
 9274TIP3    H149237   2.859   1.975   0.063 -0.4394 -0.5174 -0.4114
 9274TIP3    H249238   2.868   2.104  -0.016 -0.5314  0.2838  0.8599
 9275TIP3   OH249239   3.558   0.459   5.574  0.1095  0.0290 -0.2705
 9275TIP3    H149240   3.555   0.477   5.668  0.2352 -0.4835 -0.1631
 9275TIP3    H249241   3.466   0.446   5.550 -0.0473  1.4141 -0.4816
 9276TIP3   OH249242   6.482   1.493  16.743  0.5706  0.1486 -0.2216
 9276TIP3    H149243   6.555   1.534  16.698  1.0675 -1.2517 -0.7594
 9276TIP3    H249244   6.445   1.432  16.679  0.2774 -0.7114  0.7268
 9277TIP3   OH249245   3.608   1.066  14.410  0.2856  0.5685  0.1976
 9277TIP3    H149246   3.563   1.150  14.400 -0.4026  0.0032 -1.8016
 9277TIP3    H249247   3.654   1.053  14.327  1.2073 -0.5884  0.8488
 9278TIP3   OH249248   0.623   4.397   2.622 -0.2644  0.7293  0.6583
 9278TIP3    H149249   0.630   4.460   2.551  0.7884 -0.2272 -0.1390
 9278TIP3    H249250   0.676   4.433   2.692 -0.8082  1.3847  0.7433
 9279TIP3   OH249251   0.060   4.421   5.100  0.0008  0.0087 -0.0175
 9279TIP3    H149252   0.142   4.460   5.070  0.3124 -1.1778 -0.8226
 9279TIP3    H249253   0.084   4.330   5.122 -0.1170  0.8175  4.3031
 9280TIP3   OH249254   5.750   3.885   4.310 -0.4490 -0.0084  0.1842
 9280TIP3    H149255   5.751   3.822   4.237  2.6608  1.1078 -0.9380
 9280TIP3    H249256   5.765   3.832   4.388 -0.2247 -0.8930 -0.4459
 9281TIP3   OH249257   5.521   2.564   5.909  0.0738 -0.4458 -0.4602
 9281TIP3    H149258   5.448   2.503   5.897 -1.2884  1.0513 -0.1739
 9281TIP3    H249259   5.517   2.590   6.001  0.6182  0.0761 -0.5691
 9282TIP3   OH249260   6.417   0.422  13.888 -0.4389  0.1934  0.7871
 9282TIP3    H149261   6.372   0.507  13.893  0.2298  0.5845  0.3401
 9282TIP3    H249262   6.413   0.399  13.795  1.7603  1.0815  0.4032
 9283TIP3   OH249263   4.445   2.337  14.649  0.1971  0.5414 -0.0880
 9283TIP3    H149264   4.480   2.339  14.738  0.6286 -1.6186 -0.1610
 9283TIP3    H249265   4.456   2.427  14.618  0.4656  1.2427  1.8494
 9284TIP3   OH249266   4.050   1.863  11.597  0.1437  0.4428  0.0972
 9284TIP3    H149267   3.984   1.867  11.665  0.5455  0.5804  0.4808
 9284TIP3    H249268   4.041   1.946  11.549 -0.5695  0.0762 -0.4338
 9285TIP3   OH249269   3.255   6.094   1.667 -0.3033 -0.4278  0.0424
 9285TIP3    H149270   3.216   6.126   1.586  0.6224 -1.0138 -0.6576
 9285TIP3    H249271   3.233   6.001   1.670 -0.7624 -0.3033  0.7272
 9286TIP3   OH249272   6.591   0.823  15.060 -0.3061 -0.3295 -0.0659
 9286TIP3    H149273   6.678   0.807  15.024 -0.7381 -0.2191 -1.1807
 9286TIP3    H249274   6.567   0.740  15.102  0.6024 -0.1512  0.8536
 9287TIP3   OH249275   2.107   0.357  15.530  0.4270  0.1614 -0.2494
 9287TIP3    H149276   2.172   0.298  15.492 -1.2639 -1.4085 -0.8809
 9287TIP3    H249277   2.060   0.303  15.593 -1.8482  0.4811 -1.5681
 9288TIP3   OH249278   5.215   3.659   0.860  0.7609 -0.3204  0.0915
 9288TIP3    H149279   5.217   3.583   0.802  1.2068 -0.7821  0.6874
 9288TIP3    H249280   5.247   3.731   0.807 -1.5436 -0.0811 -1.0917
 9289TIP3   OH249281   5.118   4.784   1.745 -0.0571  0.6986  0.6332
 9289TIP3    H149282   5.214   4.776   1.748 -0.0743 -2.7642 -1.8020
 9289TIP3    H249283   5.087   4.733   1.820  0.0803 -1.4989 -0.7250
 9290TIP3   OH249284   0.281   5.653   3.522  0.5129 -0.5322  0.2251
 9290TIP3    H149285   0.375   5.669   3.514  0.1183  1.7130 -0.5674
 9290TIP3    H249286   0.242   5.740   3.520 -1.8205 -1.5285 -2.3562
 9291TIP3   OH249287   3.973   0.067   0.728  0.3017 -0.4054  0.3438
 9291TIP3    H149288   4.006   0.023   0.806  0.5811 -0.4161  0.2188
 9291TIP3    H249289   4.008   0.016   0.655  1.5508  0.6634  0.1715
 9292TIP3   OH249290   2.955   4.361  12.574 -0.1384  0.4679 -0.1360
 9292TIP3    H149291   2.946   4.310  12.494 -0.4074  1.2605 -0.6237
 9292TIP3    H249292   2.869   4.355  12.616  0.0391 -0.0466  0.1551
 9293TIP3   OH249293   3.567   5.884  16.716 -0.0026  0.0039 -0.1958
 9293TIP3    H149294   3.641   5.884  16.776 -1.1265 -2.4167  1.3640
 9293TIP3    H249295   3.597   5.835  16.639  0.1645 -0.5824  0.2411
 9294TIP3   OH249296   5.944   4.132   2.639  0.1010  0.8211 -0.3182
 9294TIP3    H149297   5.983   4.204   2.589  0.8238  1.4771  1.1522
 9294TIP3    H249298   5.894   4.175   2.708 -0.3750 -0.0803 -0.0910
 9295TIP3   OH249299   5.079   3.122  14.754 -0.1952 -0.4203 -0.0852
 9295TIP3    H149300   5.087   3.062  14.680 -0.8489  0.2034 -0.6853
 9295TIP3    H249301   5.136   3.196  14.732 -1.0788  0.1799 -0.4074
 9296TIP3   OH249302   1.946   0.558  13.545  0.0713 -0.1822 -0.4639
 9296TIP3    H149303   2.005   0.510  13.488  0.5244  1.7394 -1.7064
 9296TIP3    H249304   1.879   0.593  13.486  0.3845  1.6095  0.1738
 9297TIP3   OH249305   0.788   5.211  11.285 -0.3485  0.0472  0.3092
 9297TIP3    H149306   0.773   5.162  11.204  0.0978  0.7897 -0.2324
 9297TIP3    H249307   0.787   5.303  11.258  1.0110  0.2667  0.9420
 9298TIP3   OH249308   3.576   5.693   3.651 -0.3973 -0.0099 -0.0753
 9298TIP3    H149309   3.593   5.727   3.739  1.5507  0.0015 -0.4119
 9298TIP3    H249310   3.537   5.607   3.665 -0.3814  0.1172  0.7859
 9299TIP3   OH249311   4.054   0.198  14.203  0.4697 -0.3917 -0.4085
 9299TIP3    H149312   4.143   0.213  14.236  0.5939  2.0610 -1.6396
 9299TIP3    H249313   4.052   0.242  14.118 -1.3738 -2.0929 -1.3347
 9300TIP3   OH249314   3.497   5.475   5.713 -0.0666 -0.0964 -1.1166
 9300TIP3    H149315   3.430   5.509   5.772  0.1859  0.9104 -1.3888
 9300TIP3    H249316   3.465   5.389   5.688  0.1961 -0.8964  1.0855
 9301TIP3   OH249317   3.730   1.465   3.052  0.1336  0.4984  0.2473
 9301TIP3    H149318   3.740   1.425   3.138  0.8597  0.0968 -0.0212
 9301TIP3    H249319   3.684   1.548   3.070 -0.4074  0.0656  0.9222
 9302TIP3   OH249320   5.451   6.548   4.226  0.2886 -0.6437 -0.1575
 9302TIP3    H149321   5.514   6.597   4.279 -1.4594  0.1638  1.2761
 9302TIP3    H249322   5.482   6.560   4.136  0.8147  1.8315  0.2719
 9303TIP3   OH249323   1.290   6.771  13.725 -0.1971 -0.4859 -0.1472
 9303TIP3    H149324   1.353   6.712  13.683 -1.4768 -1.4619 -0.7682
 9303TIP3    H249325   1.257   6.826  13.655  1.3331  1.3752  0.5111
 9304TIP3   OH249326   5.332   4.724   3.211 -0.0789  0.4884 -1.0208
 9304TIP3    H149327   5.406   4.781   3.191 -0.0028  0.3906 -1.0196
 9304TIP3    H249328   5.256   4.769   3.173  0.1050  0.1566 -1.7944
 9305TIP3   OH249329   5.833   6.276   4.121  0.1910  0.2834  0.2219
 9305TIP3    H149330   5.837   6.364   4.158  0.7935  0.7167 -0.8374
 9305TIP3    H249331   5.872   6.285   4.034  0.8081 -1.1468  0.3231
 9306TIP3   OH249332   4.542   5.489  15.517  0.1971 -0.0914  0.8695
 9306TIP3    H149333   4.548   5.443  15.434  1.4105  0.5531  0.5635
 9306TIP3    H249334   4.491   5.568  15.498  0.7609  0.2260  0.6341
 9307TIP3   OH249335   0.895   5.116   3.954 -0.1734  0.1679 -0.1541
 9307TIP3    H149336   0.828   5.055   3.923  0.9865 -1.1075 -0.2918
 9307TIP3    H249337   0.912   5.089   4.044  0.6774 -0.0453 -0.3646
 9308TIP3   OH249338   2.395   6.211  11.417 -0.1432  0.5076  0.0625
 9308TIP3    H149339   2.478   6.169  11.395 -0.2328  0.1361  0.4127
 9308TIP3    H249340   2.355   6.152  11.481 -0.1469  1.2717  0.7867
 9309TIP3   OH249341   3.205   1.338   0.574 -0.6674 -0.8738  0.5042
 9309TIP3    H149342   3.202   1.245   0.550 -2.0078 -0.8069  0.3393
 9309TIP3    H249343   3.209   1.385   0.491 -0.4511 -0.7758  0.5709
 9310TIP3   OH249344   5.368   3.463   1.022 -0.1023  0.1167  1.0567
 9310TIP3    H149345   5.368   3.531   0.955  0.3829 -0.2236  0.7122
 9310TIP3    H249346   5.409   3.387   0.981 -0.7823 -0.4438  1.3893
 9311TIP3   OH249347   0.153   3.413  15.319 -0.2844  0.2446 -1.0669
 9311TIP3    H149348   0.153   3.463  15.400 -0.6951 -0.1625 -0.8099
 9311TIP3    H249349   0.215   3.459  15.262  2.4312 -1.1595  0.5225
 9312TIP3   OH249350   4.677   4.275   0.833 -0.9854 -0.3317  0.1905
 9312TIP3    H149351   4.703   4.366   0.851 -0.5435 -0.8999  2.8396
 9312TIP3    H249352   4.604   4.259   0.893 -3.7301 -0.6202 -2.9345
 9313TIP3   OH249353   1.386   1.092   3.518 -0.0796  0.5397  0.2019
 9313TIP3    H149354   1.310   1.151   3.511  0.7924  1.7828  0.8253
 9313TIP3    H249355   1.411   1.074   3.427 -1.0627  0.1770 -0.0075
 9314TIP3   OH249356   4.894   3.263   2.858  0.1940 -0.0366  0.1614
 9314TIP3    H149357   4.822   3.206   2.884  0.4649 -0.0319  0.9386
 9314TIP3    H249358   4.940   3.215   2.789 -0.7233  0.0901 -0.5656
 9315TIP3   OH249359   0.121   4.734   5.011  0.4001  0.6283 -0.1882
 9315TIP3    H149360   0.177   4.754   5.085  0.3119  1.7946 -0.4215
 9315TIP3    H249361   0.172   4.673   4.958  0.8474  0.5428  0.3357
 9316TIP3   OH249362   6.138   1.711   2.924 -0.1259 -0.1739  0.3373
 9316TIP3    H149363   6.108   1.715   2.833  1.0469 -0.2939 -0.0681
 9316TIP3    H249364   6.220   1.662   2.921  0.1276  0.1474  1.4024
 9317TIP3   OH249365   2.583   0.123   2.091  0.2588  0.6024 -0.3980
 9317TIP3    H149366   2.540   0.192   2.040 -0.7777  0.4393  0.2196
 9317TIP3    H249367   2.676   0.135   2.074 -0.0796 -0.4198 -3.5757
 9318TIP3   OH249368   3.034   4.293  12.849 -0.2866  0.3007 -0.0424
 9318TIP3    H149369   2.987   4.226  12.800  1.9158  0.3865 -2.5023
 9318TIP3    H249370   2.968   4.359  12.869 -1.9350 -1.2906  0.0269
 9319TIP3   OH249371   1.838   0.597   4.899 -0.4017 -0.0355 -0.0311
 9319TIP3    H149372   1.912   0.657   4.897 -0.8317  0.5487  0.9380
 9319TIP3    H249373   1.814   0.592   4.992 -0.6955 -1.3077 -0.1586
 9320TIP3   OH249374   3.362   5.554  12.434 -0.1217  0.1103 -0.0135
 9320TIP3    H149375   3.406   5.493  12.493 -0.6925 -0.4575 -0.1612
 9320TIP3    H249376   3.323   5.620  12.492  1.3533  0.9393  0.0893
 9321TIP3   OH249377   2.601   0.395   0.006 -0.5476  0.2057  0.0368
 9321TIP3    H149378   2.646   0.477   0.025  0.2238 -0.0754 -0.5497
 9321TIP3    H249379   2.663   0.344  -0.046 -1.0887 -0.6747  0.2245
 9322TIP3   OH249380   5.488   5.518   3.389 -0.3732  0.1281 -0.1998
 9322TIP3    H149381   5.442   5.436   3.408 -2.1127  0.7036 -1.6352
 9322TIP3    H249382   5.572   5.509   3.433 -0.5684 -2.3700 -0.2016
 9323TIP3   OH249383   1.406   3.718   0.614  0.2990  0.7112  0.1896
 9323TIP3    H149384   1.449   3.765   0.686  3.4446 -1.5661 -0.0014
 9323TIP3    H249385   1.322   3.692   0.650  0.1054  3.0042  1.6234
 9324TIP3   OH249386   1.614   6.320  12.138  0.3491  0.4396 -1.0325
 9324TIP3    H149387   1.662   6.402  12.129 -0.2075  0.8715 -0.2138
 9324TIP3    H249388   1.536   6.343  12.189 -1.2655 -0.0382 -3.1604
 9325TIP3   OH249389   3.562   3.214   3.026  0.1679 -0.2747  0.8726
 9325TIP3    H149390   3.549   3.307   3.040 -0.2286 -0.3307  0.8880
 9325TIP3    H249391   3.643   3.194   3.073  0.7813  0.2500  0.0526
 9326TIP3   OH249392   5.810   3.068   3.798  0.0071  0.0908 -0.1631
 9326TIP3    H149393   5.744   3.132   3.769 -2.0974 -1.7363  0.2810
 9326TIP3    H249394   5.799   3.063   3.893  1.2160  0.1635 -0.0061
 9327TIP3   OH249395   2.410   2.998  16.373  0.1100  0.6395 -0.0920
 9327TIP3    H149396   2.438   3.087  16.352  0.5129  1.4997  3.4587
 9327TIP3    H249397   2.334   3.009  16.430  0.6244 -1.2222  1.0675
 9328TIP3   OH249398   2.740   2.577   1.941  0.5299  0.2277 -0.3593
 9328TIP3    H149399   2.825   2.536   1.955 -0.1056 -1.1675 -0.4258
 9328TIP3    H249400   2.730   2.637   2.015  1.1341 -0.3445  0.1985
 9329TIP3   OH249401   5.946   2.698  15.258  0.2397 -0.7424 -0.1907
 9329TIP3    H149402   5.875   2.746  15.302 -0.2489 -0.4372 -1.2767
 9329TIP3    H249403   6.013   2.687  15.326  1.8175  4.2831 -0.4930
 9330TIP3   OH249404   0.241   0.348   4.940 -0.7695 -0.1196  0.5380
 9330TIP3    H149405   0.232   0.420   4.877  0.1947 -0.6632 -0.2500
 9330TIP3    H249406   0.248   0.392   5.024  3.3345  1.0541 -0.1844
 9331TIP3   OH249407   0.646   0.532   1.888 -0.2500 -0.2907 -0.0960
 9331TIP3    H149408   0.728   0.488   1.866  1.5342  1.2344  2.8827
 9331TIP3    H249409   0.615   0.486   1.966 -1.0083  0.5894  0.1414
 9332TIP3   OH249410   4.514   6.139   1.842  0.3217 -0.1532 -0.0508
 9332TIP3    H149411   4.578   6.207   1.823 -0.2905  0.0939 -1.3111
 9332TIP3    H249412   4.496   6.097   1.758 -0.9423 -0.4087  0.3125
 9333TIP3   OH249413   2.213   3.837  13.881 -0.5126  0.0782 -0.4028
 9333TIP3    H149414   2.147   3.787  13.929  0.8941 -1.2857  0.2211
 9333TIP3    H249415   2.292   3.784  13.888  0.2751  0.8685 -2.4633
 9334TIP3   OH249416   5.489   1.376  14.898  0.4598 -0.8486 -0.3150
 9334TIP3    H149417   5.515   1.434  14.827  2.4956 -1.9981 -0.5720
 9334TIP3    H249418   5.428   1.428  14.951 -0.3070  0.3624 -2.3061
 9335TIP3   OH249419   4.940   4.346  12.465 -1.1611  0.4162  0.2652
 9335TIP3    H149420   4.933   4.267  12.411 -1.4852 -0.4713  1.5514
 9335TIP3    H249421   4.972   4.414  12.405 -0.2924 -0.8308 -0.7388
 9336TIP3   OH249422   6.726   2.101   2.538 -0.1774 -0.2592 -0.0639
 9336TIP3    H149423   6.661   2.126   2.603 -2.0217  0.5690 -2.1035
 9336TIP3    H249424   6.753   2.013   2.564 -2.4166 -0.8007  0.6717
 9337TIP3   OH249425   6.712   0.729   2.333 -0.5724  0.6601 -0.0870
 9337TIP3    H149426   6.751   0.652   2.374 -2.4289 -0.6881 -0.6772
 9337TIP3    H249427   6.680   0.781   2.406 -0.2400  0.3352  0.2980
 9338TIP3   OH249428   2.267   5.877  14.532  0.1925  0.5489 -0.6448
 9338TIP3    H149429   2.185   5.835  14.507 -0.4122  1.8350 -0.9199
 9338TIP3    H249430   2.242   5.940  14.599  0.9893  0.7815 -0.5569
 9339TIP3   OH249431   2.788   6.756  14.197  0.3687  0.4280  0.5801
 9339TIP3    H149432   2.817   6.811  14.269  2.2573 -1.2175  1.1693
 9339TIP3    H249433   2.709   6.712  14.230 -0.3884  1.7287  0.5700
 9340TIP3   OH249434   5.165   2.700  13.297 -0.0475  0.1613  0.5177
 9340TIP3    H149435   5.258   2.702  13.273  0.7879  0.0831  3.4319
 9340TIP3    H249436   5.142   2.792  13.311 -0.8555  0.3189 -1.4079
 9341TIP3   OH249437   1.700   2.069   1.959  0.0185  0.1198  0.2080
 9341TIP3    H149438   1.794   2.053   1.957 -0.0058 -0.0284 -1.7165
 9341TIP3    H249439   1.685   2.136   1.893 -1.2467  0.0573  0.3979
 9342TIP3   OH249440   1.433   4.291  10.772 -0.3859 -0.0794  0.1982
 9342TIP3    H149441   1.436   4.376  10.728 -0.5978 -0.7916 -1.2416
 9342TIP3    H249442   1.518   4.283  10.815 -0.4389  0.9409  0.4994
 9343TIP3   OH249443   0.401   3.681  14.914  0.1318 -0.1255  0.4920
 9343TIP3    H149444   0.451   3.751  14.873  1.4420 -0.3291  1.6452
 9343TIP3    H249445   0.313   3.691  14.880  0.2700  2.1181  0.6441
 9344TIP3   OH249446   4.008   0.798  12.986  0.3637 -0.2411 -0.0113
 9344TIP3    H149447   3.995   0.882  13.030 -1.0102 -0.5189  0.1549
 9344TIP3    H249448   3.995   0.733  13.055 -1.6830 -0.6822 -0.7557
 9345TIP3   OH249449   1.007   5.723  15.472 -0.2432  0.5250  0.2659
 9345TIP3    H149450   1.051   5.772  15.402  0.6211 -1.8660 -0.9640
 9345TIP3    H249451   0.933   5.680  15.429 -0.4041 -0.0411  1.0822
 9346TIP3   OH249452   0.848   6.642   5.313 -0.0976 -0.3272  0.6975
 9346TIP3    H149453   0.838   6.570   5.250  1.2584 -0.4034  0.5244
 9346TIP3    H249454   0.855   6.599   5.398  0.4640 -0.4063  0.6201
 9347TIP3   OH249455   5.107   2.972  12.531 -1.0684 -0.7549 -0.6763
 9347TIP3    H149456   5.125   2.979  12.625  0.8046  0.0817 -1.0593
 9347TIP3    H249457   5.012   2.956  12.526 -1.2090 -0.8187  1.3368
 9348TIP3   OH249458   4.443   6.328   4.429  0.1465  0.0942 -0.6410
 9348TIP3    H149459   4.505   6.387   4.386 -0.8222  0.2628 -1.8630
 9348TIP3    H249460   4.452   6.245   4.381 -0.8150  0.2332 -1.0920
 9349TIP3   OH249461   5.214   3.749  13.041 -0.1613 -0.3735 -0.2152
 9349TIP3    H149462   5.293   3.748  13.095 -0.0504 -2.9544 -0.2689
 9349TIP3    H249463   5.229   3.818  12.977  0.4293  1.6230  1.9564
 9350TIP3   OH249464   6.681   5.894   5.231  0.4498  0.3229 -0.0245
 9350TIP3    H149465   6.640   5.883   5.316  0.8012  1.5004  0.3158
 9350TIP3    H249466   6.699   5.988   5.225  2.7523 -0.0696 -0.2832
 9351TIP3   OH249467   1.001   5.592  15.724 -0.3741 -0.0351 -0.1327
 9351TIP3    H149468   1.028   5.642  15.648  0.0701 -0.7555 -0.4575
 9351TIP3    H249469   0.941   5.526  15.689 -1.5982  0.7594  0.4014
 9352TIP3   OH249470   6.773   0.173   5.974 -0.0240 -0.3933  0.1547
 9352TIP3    H149471   6.819   0.094   5.947  0.2766 -0.2948  0.3727
 9352TIP3    H249472   6.706   0.142   6.035 -0.4735 -0.5753 -0.4240
 9353TIP3   OH249473   4.940   5.149  11.279  0.3400 -0.1383  0.1296
 9353TIP3    H149474   4.907   5.164  11.190 -1.5848 -0.0864  0.8176
 9353TIP3    H249475   4.868   5.174  11.336  1.1649 -1.1766  1.6918
 9354TIP3   OH249476   6.056   1.007  16.571  0.0563  0.1461 -0.1724
 9354TIP3    H149477   6.137   1.044  16.537 -0.2433 -0.1069 -1.2227
 9354TIP3    H249478   6.004   0.989  16.492 -0.9094  0.0671  0.4669
 9355TIP3   OH249479   5.184   3.328  14.230 -0.0400  0.9181  0.2775
 9355TIP3    H149480   5.245   3.277  14.177  0.7505  2.2927 -0.1877
 9355TIP3    H249481   5.114   3.354  14.170 -0.5458  0.2511  0.5600
 9356TIP3   OH249482   1.137   5.049   5.785  1.0400 -0.3571 -0.1128
 9356TIP3    H149483   1.155   5.137   5.817 -2.1432  1.6439 -3.1298
 9356TIP3    H249484   1.070   5.015   5.845  0.3629  0.4011 -0.4198
 9357TIP3   OH249485   3.374   4.220   5.736  0.1856 -0.0531  0.4477
 9357TIP3    H149486   3.281   4.197   5.738 -0.2692  1.6217  0.4686
 9357TIP3    H249487   3.388   4.270   5.817  0.4464  1.8836 -0.7162
 9358TIP3   OH249488   6.133   2.802   5.514  0.0229 -0.1861 -0.9114
 9358TIP3    H149489   6.142   2.877   5.456 -0.9186  0.1491 -0.6312
 9358TIP3    H249490   6.084   2.737   5.463  0.3401 -0.3964 -0.9523
 9359TIP3   OH249491   0.646   5.489   1.891  0.3083  0.2677 -0.3015
 9359TIP3    H149492   0.731   5.521   1.861  1.6838 -1.4240  1.5190
 9359TIP3    H249493   0.658   5.470   1.984 -1.9294 -0.4753 -0.0872
 9360TIP3   OH249494   1.585   2.461   5.872 -0.0318 -0.0469 -0.6732
 9360TIP3    H149495   1.500   2.468   5.829 -0.3810  2.6649  0.2390
 9360TIP3    H249496   1.645   2.436   5.802 -1.2801 -0.2137 -1.7275
 9361TIP3   OH249497   0.375   2.609  15.018 -0.1761  0.1525 -0.3153
 9361TIP3    H149498   0.448   2.598  14.958  0.4883 -0.2969  0.5432
 9361TIP3    H249499   0.359   2.703  15.021 -0.4441  0.1590 -1.4321
 9362TIP3   OH249500   1.775   1.054  13.582 -0.6143 -0.0922  0.0056
 9362TIP3    H149501   1.848   1.005  13.544 -0.1640 -0.2761  1.0692
 9362TIP3    H249502   1.721   0.986  13.624 -0.0107  0.2918  1.4516
 9363TIP3   OH249503   3.866   5.443   2.812  0.2743 -0.5773 -0.0768
 9363TIP3    H149504   3.834   5.368   2.861 -0.1650 -0.9780 -0.9555
 9363TIP3    H249505   3.953   5.460   2.847 -0.6823  0.2400  2.0428
 9364TIP3   OH249506   1.465   5.788  15.292  0.1141 -0.5207  0.4197
 9364TIP3    H149507   1.417   5.777  15.210  2.3710  0.5106 -1.1434
 9364TIP3    H249508   1.442   5.710  15.343 -1.0099 -1.4441 -1.3806
 9365TIP3   OH249509   2.479   6.066   3.377 -0.5302  0.0753 -0.3803
 9365TIP3    H149510   2.560   6.069   3.427 -1.0738 -0.9888  0.5899
 9365TIP3    H249511   2.435   6.149   3.398 -1.5279 -1.0345  2.2984
 9366TIP3   OH249512   0.208   3.491  17.332 -0.4543 -0.0424 -0.4205
 9366TIP3    H149513   0.192   3.540  17.412  1.4768  0.7267 -0.4448
 9366TIP3    H249514   0.231   3.403  17.362 -1.1604 -0.1570 -0.2154
 9367TIP3   OH249515   6.381   2.371  15.115  0.0099 -0.2956 -0.3366
 9367TIP3    H149516   6.449   2.358  15.180 -0.5105  0.7998  0.4616
 9367TIP3    H249517   6.322   2.297  15.126 -0.7817  0.5398  1.3890
 9368TIP3   OH249518   0.510   1.382   3.256  0.5286  0.7507  0.0637
 9368TIP3    H149519   0.475   1.303   3.298  1.0892  0.9934  1.0082
 9368TIP3    H249520   0.526   1.356   3.165  3.6835 -1.2175  1.0171
 9369TIP3   OH249521   3.338   2.900  11.627  0.6762 -0.4764  0.2032
 9369TIP3    H149522   3.363   2.851  11.705  0.7344 -1.9841 -0.7175
 9369TIP3    H249523   3.319   2.833  11.561 -1.6550  0.6895 -0.4213
 9370TIP3   OH249524   2.735   0.518   1.619 -0.5635  0.4615  0.3369
 9370TIP3    H149525   2.651   0.518   1.665 -0.0133 -0.9520  1.4317
 9370TIP3    H249526   2.724   0.455   1.549 -0.4896  0.4339  0.3497
 9371TIP3   OH249527   4.471   0.601  13.994 -0.0784  0.3168  0.2858
 9371TIP3    H149528   4.538   0.665  13.971 -1.3849  1.3098 -0.8900
 9371TIP3    H249529   4.521   0.522  14.016  1.4582  0.6466 -1.6783
 9372TIP3   OH249530   4.106   6.047   3.992 -0.0551  0.1615 -0.2461
 9372TIP3    H149531   4.114   6.119   3.930  1.3918 -0.7385 -1.1723
 9372TIP3    H249532   4.021   6.007   3.971 -0.4706  1.0378 -0.2990
 9373TIP3   OH249533   4.225   5.875  14.489  0.2080  0.0914  0.3069
 9373TIP3    H149534   4.226   5.966  14.459  0.4838 -0.4288 -1.3583
 9373TIP3    H249535   4.289   5.831  14.433  1.7862 -0.7005  2.6021
 9374TIP3   OH249536   6.323   2.766  11.937 -0.1205  0.0102  0.1082
 9374TIP3    H149537   6.230   2.752  11.956  0.0834 -1.1642  0.2994
 9374TIP3    H249538   6.360   2.795  12.021 -0.1089 -0.6393  0.3371
 9375TIP3   OH249539   1.365   0.842   3.616  0.6346 -0.3588 -0.4148
 9375TIP3    H149540   1.356   0.932   3.584  1.1396 -0.3007 -0.4026
 9375TIP3    H249541   1.359   0.851   3.711 -0.6524 -0.5064 -0.4546
 9376TIP3   OH249542   4.579   5.400   6.651 -0.4230  0.2007  0.4990
 9376TIP3    H149543   4.495   5.426   6.689 -1.7271 -1.1373 -1.2840
 9376TIP3    H249544   4.597   5.314   6.689 -0.3816  0.0291  0.0898
 9377TIP3   OH249545   5.425   0.111   0.525  0.2276  0.7489 -0.4985
 9377TIP3    H149546   5.465   0.156   0.451  0.3169  2.0573  0.3031
 9377TIP3    H249547   5.415   0.179   0.592 -3.1960  0.4860 -0.5679
 9378TIP3   OH249548   1.575   4.563   3.994 -0.5751 -0.5296  0.6146
 9378TIP3    H149549   1.582   4.469   4.008 -2.9695 -1.1064 -1.4168
 9378TIP3    H249550   1.666   4.593   3.984  0.3422 -2.2737  2.8609
 9379TIP3   OH249551   0.476   1.254   5.272  0.0469 -0.0163 -0.1912
 9379TIP3    H149552   0.564   1.272   5.304 -0.2068  2.3927 -0.6811
 9379TIP3    H249553   0.471   1.158   5.269  2.5307 -0.2246  0.1253
 9380TIP3   OH249554   6.727   0.728   6.240  0.2476 -0.5132  0.4152
 9380TIP3    H149555   6.657   0.674   6.204 -0.0632  0.7701 -0.9771
 9380TIP3    H249556   6.773   0.670   6.301 -1.5912 -1.5858  0.8624
 9381TIP3   OH249557   6.480   2.365  12.657 -0.1961  0.2218 -0.1528
 9381TIP3    H149558   6.517   2.453  12.671  1.4937 -0.5182  0.2321
 9381TIP3    H249559   6.463   2.362  12.563  1.3627  0.3869 -0.4772
 9382TIP3   OH249560   0.595   0.629  11.750 -0.1424 -0.3435 -0.6464
 9382TIP3    H149561   0.550   0.660  11.829  2.1493 -1.5447  1.3057
 9382TIP3    H249562   0.548   0.668  11.677 -1.6806  1.7946  1.3625
 9383TIP3   OH249563   5.849   2.731  11.870 -0.4442 -0.9809 -0.3545
 9383TIP3    H149564   5.754   2.733  11.859 -0.6436  0.2392  1.2037
 9383TIP3    H249565   5.883   2.786  11.799 -1.1859  1.3865  1.0279
 9384TIP3   OH249566   6.421   4.533   3.817  0.2309  0.4421 -0.2825
 9384TIP3    H149567   6.352   4.508   3.756 -1.3284  1.2344  1.0697
 9384TIP3    H249568   6.383   4.519   3.903  1.8264  0.7840  0.5116
 9385TIP3   OH249569   0.309   2.196   0.678  0.0138 -0.2436 -0.1934
 9385TIP3    H149570   0.273   2.189   0.590 -1.2948 -1.6830  0.4199
 9385TIP3    H249571   0.285   2.284   0.707  0.4566  0.2439 -1.2424
 9386TIP3   OH249572   5.196   3.193   1.406  0.0487 -0.0248  0.0264
 9386TIP3    H149573   5.284   3.163   1.430 -0.2374  0.5399  1.9353
 9386TIP3    H249574   5.192   3.283   1.438 -1.2985 -0.1147  0.1471
 9387TIP3   OH249575   1.831   4.797   0.009  0.0734 -0.3517  0.7764
 9387TIP3    H149576   1.764   4.761  -0.049 -0.1291  0.0589  0.7510
 9387TIP3    H249577   1.896   4.836  -0.050 -0.0337 -0.1072  0.8194
 9388TIP3   OH249578   3.998   6.532   0.337  0.3579 -0.4238  0.3343
 9388TIP3    H149579   4.009   6.548   0.243  0.3583 -2.9478 -0.1601
 9388TIP3    H249580   3.915   6.485   0.344  0.7921 -1.0581  1.4928
 9389TIP3   OH249581   6.375   1.334  13.045  0.5864  0.1889  0.2001
 9389TIP3    H149582   6.439   1.353  13.114 -0.6556  0.4343  1.3132
 9389TIP3    H249583   6.379   1.410  12.987  0.7125  0.5906  0.7277
 9390TIP3   OH249584   5.821   0.740   0.783 -0.0098 -0.8913 -0.6712
 9390TIP3    H149585   5.815   0.812   0.721  0.7726 -1.3403 -1.2875
 9390TIP3    H249586   5.915   0.727   0.795 -0.1486 -1.0792  0.2975
 9391TIP3   OH249587   5.523   0.320  17.184 -0.2133 -0.0838  0.2859
 9391TIP3    H149588   5.531   0.226  17.167  1.7008 -0.2997  1.9335
 9391TIP3    H249589   5.598   0.358  17.138 -0.0313  0.4027  0.9796
 9392TIP3   OH249590   4.754   6.368   6.441  0.0941 -0.4821  0.0677
 9392TIP3    H149591   4.848   6.381   6.427  0.2740 -2.7059 -1.3630
 9392TIP3    H249592   4.720   6.455   6.461  2.7450  0.0972  2.8031
 9393TIP3   OH249593   1.397   0.318   6.189 -0.1908  0.5116  1.1331
 9393TIP3    H149594   1.420   0.273   6.271 -1.7406  1.6001  2.2238
 9393TIP3    H249595   1.399   0.250   6.122  1.4166 -0.3508  1.9996
 9394TIP3   OH249596   5.786   5.662  11.366  0.1562  0.0970  0.1103
 9394TIP3    H149597   5.842   5.677  11.442  1.3420  1.9293 -1.0435
 9394TIP3    H249598   5.752   5.749  11.344 -0.1299 -0.3783 -1.4575
 9395TIP3   OH249599   1.475   1.060  13.168  0.2437 -0.5030  0.5910
 9395TIP3    H149600   1.491   0.973  13.203  1.1925  0.1798  1.9477
 9395TIP3    H249601   1.467   1.116  13.246  0.9543  0.8236 -0.2521
 9396TIP3   OH249602   5.681   1.746  16.134  0.0814  0.0668  0.4848
 9396TIP3    H149603   5.746   1.704  16.191  1.6499  1.4883 -0.1699
 9396TIP3    H249604   5.733   1.786  16.065 -1.7886 -2.0806 -2.3797
 9397TIP3   OH249605   0.595   4.101   2.601 -0.3992  0.1552  0.0005
 9397TIP3    H149606   0.520   4.099   2.661  1.7034  0.0206  2.8279
 9397TIP3    H249607   0.620   4.193   2.597 -0.8027  0.2330 -1.1318
 9398TIP3   OH249608   1.963   3.768  15.541  0.3742 -0.2052  0.0127
 9398TIP3    H149609   1.971   3.779  15.446  1.1682  1.1301  0.2014
 9398TIP3    H249610   1.902   3.696  15.552  1.1845 -1.1712 -1.5241
 9399TIP3   OH249611   6.415   4.488  15.515 -0.2894 -0.4591 -0.8925
 9399TIP3    H149612   6.364   4.408  15.500  0.5122 -0.7740 -2.0402
 9399TIP3    H249613   6.442   4.516  15.427  1.1945 -0.0839 -0.3323
 9400TIP3   OH249614   4.951   2.401   1.028  0.0711 -0.1774 -0.1455
 9400TIP3    H149615   5.022   2.443   1.076  0.0339 -0.1769 -0.0905
 9400TIP3    H249616   4.918   2.470   0.969  1.3431 -0.7034 -1.5333
 9401TIP3   OH249617   2.438   4.050   5.548  0.2317 -0.2791 -0.0671
 9401TIP3    H149618   2.374   4.121   5.550  0.1806 -0.3266  1.1756
 9401TIP3    H249619   2.518   4.091   5.517  0.0130  0.1552 -0.0684
 9402TIP3   OH249620   1.303   5.484   2.083 -0.0681  0.5764 -0.0503
 9402TIP3    H149621   1.299   5.485   1.987  0.2725 -0.9701 -0.1033
 9402TIP3    H249622   1.222   5.525   2.111 -0.3690  0.6583 -1.0007
 9403TIP3   OH249623   6.697   2.904  12.398  0.1728  0.2800 -0.1553
 9403TIP3    H149624   6.751   2.982  12.398  1.9518 -0.8847  0.6136
 9403TIP3    H249625   6.608   2.936  12.415  0.7423  2.1577 -0.5005
 9404TIP3   OH249626   0.322   3.097  10.953  0.0091  0.4451  0.1944
 9404TIP3    H149627   0.335   3.005  10.933 -1.6804 -0.3310  2.2939
 9404TIP3    H249628   0.302   3.138  10.869 -1.3999 -1.5252 -0.4912
 9405TIP3   OH249629   0.896   1.076   1.194  0.6754 -0.3242 -0.6627
 9405TIP3    H149630   0.911   1.047   1.284  1.9828  2.2792  0.0696
 9405TIP3    H249631   0.801   1.082   1.186  0.5214  1.4635  1.3762
 9406TIP3   OH249632   2.303   0.503  15.651 -0.2102 -0.0415 -0.6278
 9406TIP3    H149633   2.228   0.463  15.608 -0.5527  1.1474 -1.1820
 9406TIP3    H249634   2.378   0.479  15.597 -0.2674 -0.7704 -0.3858
 9407TIP3   OH249635   4.304   3.037   1.736 -0.5631  0.1762 -0.5522
 9407TIP3    H149636   4.380   3.073   1.782  0.3625  1.1394 -2.7071
 9407TIP3    H249637   4.312   2.942   1.745 -0.8942  0.3265  1.9135
 9408TIP3   OH249638   6.542   6.245  14.039  0.2035 -0.0221  0.0183
 9408TIP3    H149639   6.525   6.185  14.111  0.3228  1.5428  1.4195
 9408TIP3    H249640   6.459   6.292  14.027  0.4841  0.4422 -0.1530
 9409TIP3   OH249641   4.532   1.168  11.072 -0.5045  0.4651 -0.0758
 9409TIP3    H149642   4.512   1.243  11.015 -0.7744  1.4243  1.2313
 9409TIP3    H249643   4.625   1.152  11.058 -0.8507 -0.2492 -1.8311
 9410TIP3   OH249644   1.292   1.658  16.551  0.3905  1.1659 -0.1529
 9410TIP3    H149645   1.311   1.623  16.464  1.8752  0.7764  0.2955
 9410TIP3    H249646   1.207   1.620  16.574  0.2621  0.7962 -1.1818
 9411TIP3   OH249647   2.643   2.899   1.457 -0.6538  0.3454  0.9282
 9411TIP3    H149648   2.711   2.948   1.504  0.3860 -0.5023  0.3349
 9411TIP3    H249649   2.675   2.895   1.367 -1.9554  0.7366  0.4250
 9412TIP3   OH249650   0.149   6.550   4.461 -0.5555  0.5875 -0.2840
 9412TIP3    H149651   0.184   6.502   4.536 -0.5967 -1.5485 -1.5535
 9412TIP3    H249652   0.226   6.591   4.421 -0.2628  0.2107 -0.1102
 9413TIP3   OH249653   0.239   1.780  12.050 -0.3233 -0.6480  0.4632
 9413TIP3    H149654   0.188   1.835  11.991  0.0070 -0.6633  0.1547
 9413TIP3    H249655   0.175   1.726  12.096 -0.6693  0.1299  0.9130
 9414TIP3   OH249656   0.111   1.051  11.758 -0.4309 -0.0162  0.2384
 9414TIP3    H149657   0.175   1.007  11.815 -0.3422  1.3388  1.2562
 9414TIP3    H249658   0.111   1.142  11.789 -1.3889  0.4599 -1.0744
 9415TIP3   OH249659   5.323   1.651   1.912 -0.4289  0.1398  0.1918
 9415TIP3    H149660   5.383   1.592   1.866 -1.6804 -1.4297  0.4447
 9415TIP3    H249661   5.320   1.730   1.858  0.9006 -0.2352 -0.4577
 9416TIP3   OH249662   0.539   2.412  13.616  0.3505  0.4404  0.6721
 9416TIP3    H149663   0.626   2.385  13.588 -0.3949  0.0405 -1.4564
 9416TIP3    H249664   0.482   2.392  13.542 -2.1211 -2.0170  2.9658
 9417TIP3   OH249665   4.029   0.588  14.168 -0.1025  0.1494  0.5997
 9417TIP3    H149666   4.021   0.674  14.210  1.0238  0.6515 -0.1855
 9417TIP3    H249667   4.012   0.526  14.239 -4.2253  0.9333  0.5733
 9418TIP3   OH249668   6.235   1.118   4.305 -0.3299 -0.3437 -0.1775
 9418TIP3    H149669   6.329   1.114   4.289 -0.4867  1.2165 -1.8702
 9418TIP3    H249670   6.205   1.191   4.251 -2.7467 -1.7361 -0.8567
 9419TIP3   OH249671   3.899   3.225  11.893  0.2586 -0.2308  0.0475
 9419TIP3    H149672   3.889   3.295  11.957  1.8424  0.4227 -0.3473
 9419TIP3    H249673   3.810   3.196  11.874 -0.5442  2.3831 -0.5388
 9420TIP3   OH249674   5.715   1.302  11.661 -0.4655  0.5906 -0.1541
 9420TIP3    H149675   5.646   1.352  11.706 -0.1393  0.0457  0.9874
 9420TIP3    H249676   5.797   1.335  11.700 -0.1460  0.4433 -0.6981
 9421TIP3   OH249677   2.264   0.714  11.993  0.1052 -0.1999  0.3432
 9421TIP3    H149678   2.286   0.683  11.906  0.7372  1.2707 -0.0603
 9421TIP3    H249679   2.215   0.795  11.978 -1.2527 -0.8072  1.3349
 9422TIP3   OH249680   3.248   5.179  17.163  0.3144 -0.1460  0.3378
 9422TIP3    H149681   3.294   5.252  17.204  0.0257 -0.6449  1.6030
 9422TIP3    H249682   3.317   5.117  17.140  0.4654  0.0629  0.2256
 9423TIP3   OH249683   1.302   3.484  13.483  0.2534  0.5538  0.2481
 9423TIP3    H149684   1.222   3.526  13.513  1.9639  3.3229  1.4047
 9423TIP3    H249685   1.324   3.422  13.552 -1.0411 -0.5214 -0.2699
 9424TIP3   OH249686   4.445   6.555  15.376 -0.0232  0.4151  0.2229
 9424TIP3    H149687   4.471   6.463  15.376 -0.4634  0.2828 -0.3006
 9424TIP3    H249688   4.365   6.558  15.428 -0.2180  0.4326 -0.0720
 9425TIP3   OH249689   3.406   2.162  14.213 -0.3157  0.0910 -0.3147
 9425TIP3    H149690   3.414   2.122  14.126  1.1762  0.0813 -0.1847
 9425TIP3    H249691   3.482   2.133  14.261 -1.7259 -0.8752  1.4517
 9426TIP3   OH249692   5.158   0.580   4.185  0.4625 -0.1256 -0.5890
 9426TIP3    H149693   5.161   0.543   4.274  1.8486  0.2587 -0.4411
 9426TIP3    H249694   5.077   0.629   4.182 -0.1518 -1.0549  0.0905
 9427TIP3   OH249695   3.651   3.949   4.892  0.0516 -0.7242  0.2580
 9427TIP3    H149696   3.588   3.954   4.819  0.1153 -0.5878  0.2129
 9427TIP3    H249697   3.646   3.858   4.921 -0.0124 -0.7667  0.1162
 9428TIP3   OH249698   0.502   6.573   1.557 -0.1595 -1.1201  0.3379
 9428TIP3    H149699   0.545   6.581   1.472  1.6101 -0.1715  1.2411
 9428TIP3    H249700   0.411   6.552   1.537 -0.5458  2.0358 -1.9038
 9429TIP3   OH249701   6.467   2.966   1.076  0.1785  0.5540  0.0026
 9429TIP3    H149702   6.553   2.973   1.118  0.4046 -1.8690  0.1254
 9429TIP3    H249703   6.484   2.917   0.996 -1.0838 -0.0011  0.0498
 9430TIP3   OH249704   6.619   5.345   0.752  0.0360 -0.6918  0.2797
 9430TIP3    H149705   6.582   5.346   0.664 -2.8646  2.1856  1.3627
 9430TIP3    H249706   6.698   5.400   0.746 -0.7717  0.4303 -0.3156
 9431TIP3   OH249707   1.914   0.026  17.138  0.6074 -0.2146  0.3706
 9431TIP3    H149708   1.935   0.002  17.228 -1.1490 -1.2649  0.5432
 9431TIP3    H249709   1.992   0.001  17.088  0.5515 -2.2293  1.2099
 9432TIP3   OH249710   6.738   5.634  12.231 -0.3991 -0.3874  0.2559
 9432TIP3    H149711   6.777   5.710  12.273 -1.2640  0.1233  0.1614
 9432TIP3    H249712   6.653   5.623  12.274  0.0205 -1.7664  0.7956
 9433TIP3   OH249713   2.924   1.837   3.757  0.3866  0.4874  0.0960
 9433TIP3    H149714   3.010   1.833   3.715  0.7397  0.0418  0.8323
 9433TIP3    H249715   2.939   1.888   3.837  0.3742 -1.0106  1.1114
 9434TIP3   OH249716   0.489   3.321   0.362  0.3347 -0.0553  0.3163
 9434TIP3    H149717   0.582   3.301   0.366  0.6011  1.0052 -0.0873
 9434TIP3    H249718   0.486   3.413   0.333 -0.8681 -0.9083 -2.5961
 9435TIP3   OH249719   2.572   5.735   1.780  0.0276  0.0890 -0.1338
 9435TIP3    H149720   2.659   5.775   1.767  0.5775 -1.1474 -0.4067
 9435TIP3    H249721   2.566   5.723   1.875  0.0136  0.4923 -0.0837
 9436TIP3   OH249722   1.955   6.398   5.915  0.5864 -0.3533 -0.1860
 9436TIP3    H149723   1.928   6.316   5.956  2.0142 -1.2455 -0.9487
 9436TIP3    H249724   1.997   6.448   5.985 -1.1518  0.1763  0.5125
 9437TIP3   OH249725   6.341   6.494   6.795  0.1769  0.4889 -0.6165
 9437TIP3    H149726   6.398   6.418   6.790  0.0699  0.4236 -0.8626
 9437TIP3    H249727   6.376   6.546   6.868  1.6373  1.3298 -1.8524
 9438TIP3   OH249728   4.055   4.330  14.078 -0.1325  0.8982 -0.1499
 9438TIP3    H149729   4.036   4.286  14.162  1.8827 -0.1609 -0.1686
 9438TIP3    H249730   4.067   4.258  14.016  2.6875  1.4040 -0.3285
 9439TIP3   OH249731   0.767   0.871   2.240 -0.5888 -0.0839 -0.3328
 9439TIP3    H149732   0.771   0.832   2.153  0.4627  1.0115 -0.7940
 9439TIP3    H249733   0.702   0.818   2.287 -0.6420 -1.1319 -1.5460
 9440TIP3   OH249734   1.826   5.543  15.236  0.2844  0.1265  0.0171
 9440TIP3    H149735   1.795   5.453  15.230  1.7268 -0.4279  0.4315
 9440TIP3    H249736   1.755   5.595  15.199 -0.4902 -1.1885 -0.4316
 9441TIP3   OH249737   5.891   4.748   5.867  0.1540  0.2172 -0.7092
 9441TIP3    H149738   5.859   4.771   5.954  0.8545 -0.7766 -0.1729
 9441TIP3    H249739   5.834   4.677   5.838  2.0374 -1.9085  0.4571
 9442TIP3   OH249740   6.064   1.849   5.155  0.2098  0.2792 -0.1272
 9442TIP3    H149741   6.102   1.911   5.217  2.5611 -1.6259  0.4922
 9442TIP3    H249742   6.139   1.814   5.107 -1.1612 -1.0759 -1.3992
 9443TIP3   OH249743   2.576   5.457   4.205 -0.1671 -0.2985  0.7188
 9443TIP3    H149744   2.653   5.492   4.161 -1.3666 -0.2063 -1.4517
 9443TIP3    H249745   2.585   5.362   4.199 -1.4304 -0.3378 -2.0061
 9444TIP3   OH249746   3.579   0.166  12.160  0.2831  0.0388  0.0914
 9444TIP3    H149747   3.523   0.160  12.238 -0.0446  1.4500  0.0021
 9444TIP3    H249748   3.601   0.259  12.154  3.1465 -0.5008  0.4498
 9445TIP3   OH249749   4.091   6.391  15.577  0.3906 -0.0517  0.0347
 9445TIP3    H149750   4.029   6.457  15.545  0.6483 -0.3330 -1.1005
 9445TIP3    H249751   4.152   6.440  15.633 -1.0275  0.1665  1.4447
 9446TIP3   OH249752   0.991   4.157  17.074 -0.5187 -0.2614 -0.1810
 9446TIP3    H149753   0.935   4.188  17.004 -0.5658  0.7130  0.2748
 9446TIP3    H249754   1.054   4.227  17.088 -0.9062 -0.1470  1.1723
 9447TIP3   OH249755   2.360   4.475  12.060  0.0084  0.0228 -0.0862
 9447TIP3    H149756   2.335   4.555  12.107 -0.4395 -1.8170  3.0533
 9447TIP3    H249757   2.438   4.500  12.011 -0.3298  2.4626  0.4861
 9448TIP3   OH249758   4.930   6.212   0.263 -0.7300  0.8449  0.8160
 9448TIP3    H149759   4.963   6.140   0.209 -0.6562  0.3088  1.5609
 9448TIP3    H249760   4.842   6.184   0.288 -0.7089  1.0252  1.0857
 9449TIP3   OH249761   4.021   5.500  10.881  0.3984  0.3859  0.2498
 9449TIP3    H149762   4.003   5.410  10.907 -0.5581  0.7765  1.0057
 9449TIP3    H249763   4.024   5.549  10.963 -1.1696  1.3924 -0.2372
 9450TIP3   OH249764   4.304   5.724  14.274  0.4501  0.2588 -0.3582
 9450TIP3    H149765   4.272   5.634  14.284 -1.6088  0.9147 -0.4782
 9450TIP3    H249766   4.376   5.718  14.212 -0.9531 -1.1044 -1.9505
 9451TIP3   OH249767   3.934   4.109  15.039  0.5930  0.3376  0.2018
 9451TIP3    H149768   3.990   4.048  14.991 -1.7038 -1.2714 -0.5886
 9451TIP3    H249769   3.874   4.143  14.974 -1.3041 -0.3483  1.5060
 9452TIP3   OH249770   4.813   0.326   3.410 -0.1186 -0.5822  0.7963
 9452TIP3    H149771   4.725   0.311   3.378  1.1561 -1.8449 -2.5817
 9452TIP3    H249772   4.828   0.420   3.400 -1.0096 -0.3643  1.3757
 9453TIP3   OH249773   3.722   6.381  11.738 -0.2835  0.1904 -0.2065
 9453TIP3    H149774   3.713   6.325  11.815  1.5131  0.5185  0.3029
 9453TIP3    H249775   3.708   6.323  11.663  2.3373 -1.2065  0.2839
 9454TIP3   OH249776   3.975   3.923  12.377 -0.2096  0.2576 -0.5207
 9454TIP3    H149777   4.042   3.858  12.397 -0.0772  0.6609  0.4597
 9454TIP3    H249778   3.930   3.890  12.300 -0.8929 -1.5689  0.6082
 9455TIP3   OH249779   6.569   0.514   0.071  0.1068 -0.5144 -0.0360
 9455TIP3    H149780   6.625   0.576   0.025  0.3996 -0.3579  0.5130
 9455TIP3    H249781   6.630   0.457   0.118 -0.1823 -0.4780  0.3955
 9456TIP3   OH249782   2.349   4.539   6.689  0.6894 -0.1290 -0.4954
 9456TIP3    H149783   2.269   4.573   6.650 -0.2397  0.2740  1.6606
 9456TIP3    H249784   2.397   4.616   6.720  2.5153 -0.2635 -2.6956
 9457TIP3   OH249785   0.881   6.553  14.363  0.4701  0.6417  0.1823
 9457TIP3    H149786   0.941   6.537  14.436  0.3740  0.0906  0.1452
 9457TIP3    H249787   0.804   6.592  14.403  1.0053  1.7459  0.1808
 9458TIP3   OH249788   3.183   5.746  12.618  0.2523  1.2110  0.1167
 9458TIP3    H149789   3.088   5.757  12.617  0.0681 -0.1456  0.8811
 9458TIP3    H249790   3.210   5.777  12.705 -0.0629 -2.1615  1.5947
 9459TIP3   OH249791   1.205   1.248   2.889  1.1595 -0.2796 -0.1368
 9459TIP3    H149792   1.268   1.185   2.853  0.5189 -0.1197 -1.6233
 9459TIP3    H249793   1.183   1.214   2.975  1.5865 -1.5404 -0.5082
 9460TIP3   OH249794   0.273   4.089  16.586  0.0360 -0.2796 -0.1256
 9460TIP3    H149795   0.262   4.088  16.681  0.2873  0.1073 -0.0912
 9460TIP3    H249796   0.229   4.010  16.556  0.3397 -0.6341  0.3585
 9461TIP3   OH249797   5.531   0.636  16.761  0.4921 -0.2906 -0.1209
 9461TIP3    H149798   5.446   0.598  16.783  0.6313 -0.2294  0.5598
 9461TIP3    H249799   5.510   0.710  16.705 -0.1582  1.3632  2.1355
 9462TIP3   OH249800   1.486   4.566   2.999  0.4430  0.1959 -0.0893
 9462TIP3    H149801   1.498   4.487   2.946 -0.7172  0.1074 -0.2453
 9462TIP3    H249802   1.543   4.631   2.958  1.5197 -0.5866  0.1303
 9463TIP3   OH249803   5.427   4.262  16.842 -0.0734  0.3250 -0.0306
 9463TIP3    H149804   5.395   4.273  16.932  1.1906  2.2260  0.2399
 9463TIP3    H249805   5.412   4.170  16.823  0.8354 -0.4869  2.6455
 9464TIP3   OH249806   3.219   0.449   0.773 -0.0750  0.6868 -0.1718
 9464TIP3    H149807   3.204   0.395   0.696 -0.9456 -0.5816  0.8333
 9464TIP3    H249808   3.261   0.528   0.740  1.1278 -0.5354 -1.7291
 9465TIP3   OH249809   0.954   4.896  15.620 -0.7671 -0.1097 -0.1696
 9465TIP3    H149810   0.966   4.937  15.534 -0.7433 -0.1450 -0.1830
 9465TIP3    H249811   0.956   4.969  15.682  0.1091 -0.1759 -0.1175
 9466TIP3   OH249812   2.567   4.843  13.851  0.6986  0.0658  0.5623
 9466TIP3    H149813   2.602   4.814  13.935  2.1865 -4.8204 -1.4443
 9466TIP3    H249814   2.637   4.894  13.811  0.0239  2.3210  2.0124
 9467TIP3   OH249815   3.548   1.850   4.615  0.1666  0.0723  0.0479
 9467TIP3    H149816   3.469   1.798   4.629  0.0052  0.3180  0.0586
 9467TIP3    H249817   3.588   1.814   4.536  1.0264 -1.2630  1.0396
 9468TIP3   OH249818   0.336   4.598   1.737 -0.3439  0.2664 -0.7953
 9468TIP3    H149819   0.327   4.511   1.776  0.2661  1.4575  2.3475
 9468TIP3    H249820   0.254   4.643   1.758 -0.9550  0.3274 -3.0091
 9469TIP3   OH249821   5.618   6.578   0.216 -0.7452  0.1440  0.3569
 9469TIP3    H149822   5.544   6.523   0.190 -1.7451  0.7130  1.8297
 9469TIP3    H249823   5.657   6.532   0.290  1.6999 -1.1678 -1.6079
 9470TIP3   OH249824   1.485   1.054  10.641 -0.4034 -0.6408  0.1459
 9470TIP3    H149825   1.499   1.057  10.736  2.2423 -0.2137 -0.1778
 9470TIP3    H249826   1.562   1.008  10.607 -0.6467  0.3480 -1.8936
 9471TIP3   OH249827   4.787   4.635  13.449 -0.3370  0.8697 -0.2470
 9471TIP3    H149828   4.698   4.669  13.442 -1.1212 -1.3566 -3.0321
 9471TIP3    H249829   4.778   4.551  13.493  0.5334  0.9980  0.2053
 9472TIP3   OH249830   5.505   0.501  12.504 -0.6874  0.3036 -0.0341
 9472TIP3    H149831   5.419   0.542  12.493 -0.7516  0.0490 -0.5121
 9472TIP3    H249832   5.567   0.574  12.500 -0.9709  0.7121  2.0090
 9473TIP3   OH249833   0.422   2.674  15.779  0.5057 -0.6484 -0.4340
 9473TIP3    H149834   0.499   2.621  15.758  0.8827 -1.3119  2.2389
 9473TIP3    H249835   0.454   2.764  15.781  0.7904 -0.7320 -1.0073
 9474TIP3   OH249836   3.987   2.080  11.204  0.6698 -0.1454 -0.7913
 9474TIP3    H149837   3.971   2.042  11.118  0.7663  1.0540 -1.3580
 9474TIP3    H249838   4.077   2.111  11.200  0.4443  0.5620 -0.5195
 9475TIP3   OH249839   0.194   2.057  12.628 -0.5016  0.6231  0.5951
 9475TIP3    H149840   0.248   1.981  12.650  1.7547  2.1812  0.7808
 9475TIP3    H249841   0.111   2.041  12.672  0.2602 -1.2728  1.4421
 9476TIP3   OH249842   2.625   0.067  14.722 -0.0450  0.2252 -0.0483
 9476TIP3    H149843   2.530   0.059  14.729 -0.0526 -0.5358 -0.8221
 9476TIP3    H249844   2.654  -0.022  14.701  0.6355  0.8558 -1.9106
 9477TIP3   OH249845   0.546   0.941  16.500 -0.6160  0.5459  0.1396
 9477TIP3    H149846   0.629   0.946  16.548  0.1795  0.3042 -1.1703
 9477TIP3    H249847   0.523   1.032  16.483 -0.3939  0.6036  0.1409
 9478TIP3   OH249848   0.997   0.885  15.780 -0.0439  0.3517  0.0073
 9478TIP3    H149849   1.087   0.913  15.760 -0.1298  0.7040  0.1061
 9478TIP3    H249850   0.979   0.815  15.717  0.2641  0.3462 -0.0772
 9479TIP3   OH249851   3.838   4.480   0.182 -0.9176  0.0854  0.3231
 9479TIP3    H149852   3.783   4.502   0.257 -0.8419  3.1342 -0.3927
 9479TIP3    H249853   3.814   4.543   0.114  0.4836 -1.2287 -1.5367
 9480TIP3   OH249854   4.678   1.590  17.065 -0.1857 -0.0551  0.2643
 9480TIP3    H149855   4.722   1.525  17.011  0.2238 -1.1523  1.8358
 9480TIP3    H249856   4.601   1.616  17.015  0.6877 -0.2851 -1.2488
 9481TIP3   OH249857   6.358   2.807   6.606  0.0536 -0.0411  0.0823
 9481TIP3    H149858   6.417   2.883   6.611 -0.5162  0.4442 -0.3923
 9481TIP3    H249859   6.293   2.832   6.542  0.1128 -1.1294 -0.4228
 9482TIP3   OH249860   3.055   5.123   0.659  0.0028 -0.2631 -0.1741
 9482TIP3    H149861   3.087   5.201   0.615 -2.8112  0.5026 -1.1098
 9482TIP3    H249862   3.113   5.053   0.631  1.1149  1.0586 -1.2907
 9483TIP3   OH249863   1.267   2.820  13.737 -0.1140  0.4781 -0.7678
 9483TIP3    H149864   1.304   2.880  13.672  0.4651 -0.0422 -0.9192
 9483TIP3    H249865   1.275   2.867  13.820  1.2222  0.2319 -0.7404
 9484TIP3   OH249866   0.796   0.483   1.459  0.2359  0.7442  0.6619
 9484TIP3    H149867   0.776   0.576   1.446 -0.3269  0.6626  0.9335
 9484TIP3    H249868   0.720   0.448   1.507  0.1909  0.0258  0.0839
 9485TIP3   OH249869   3.278   4.231   1.947  0.2584  0.1590  0.0352
 9485TIP3    H149870   3.205   4.205   2.004  1.3787  0.7888  1.8677
 9485TIP3    H249871   3.277   4.167   1.876 -1.6051 -0.2840  0.4022
 9486TIP3   OH249872   6.614   1.546  12.405 -0.0489 -0.3982  0.2763
 9486TIP3    H149873   6.544   1.563  12.342 -0.2603  1.6007  0.9756
 9486TIP3    H249874   6.692   1.528  12.351 -0.5341 -0.1368 -0.5281
 9487TIP3   OH249875   2.097   6.176   4.136 -0.8222 -0.2842  0.4866
 9487TIP3    H149876   2.169   6.132   4.181 -1.1906 -0.5075  0.8750
 9487TIP3    H249877   2.040   6.207   4.207 -2.4163 -2.3160  0.2159
 9488TIP3   OH249878   2.729   3.746  12.882  0.7471 -0.1606  0.7129
 9488TIP3    H149879   2.738   3.660  12.842 -1.0968  0.1916 -0.6064
 9488TIP3    H249880   2.634   3.758  12.891  0.9986  1.2910  1.8986
 9489TIP3   OH249881   3.712   5.962  14.266  0.5477 -0.1698 -0.2976
 9489TIP3    H149882   3.662   5.885  14.241  0.8456 -0.2598 -0.6280
 9489TIP3    H249883   3.795   5.927  14.300  1.2611  0.0318 -1.7457
 9490TIP3   OH249884   4.729   0.061   4.067  0.7620 -0.4708  0.0360
 9490TIP3    H149885   4.682   0.000   4.010  1.4925  1.1929 -2.4936
 9490TIP3    H249886   4.820   0.032   4.062  0.6112 -1.6474  2.2753
 9491TIP3   OH249887   4.563   1.532  12.137 -0.1338  0.2341  0.2776
 9491TIP3    H149888   4.609   1.547  12.219 -1.9564  0.6941  1.2892
 9491TIP3    H249889   4.531   1.442  12.142  0.2714  0.0576 -0.2151
 9492TIP3   OH249890   1.454   2.252  15.840 -0.0483 -0.0074  0.4174
 9492TIP3    H149891   1.549   2.256  15.844 -0.1060  0.5266  2.2309
 9492TIP3    H249892   1.424   2.315  15.906 -1.6534 -0.1887 -0.0797
 9493TIP3   OH249893   3.549   1.912  12.501  0.1591 -0.1354 -0.2108
 9493TIP3    H149894   3.520   1.917  12.410 -0.7781  1.4088  0.1377
 9493TIP3    H249895   3.477   1.948  12.551  1.1602  0.2013  1.0476
 9494TIP3   OH249896   1.025   1.654   1.646 -0.1537  0.6139 -0.0153
 9494TIP3    H149897   0.999   1.683   1.734 -1.2226  0.1910 -0.1837
 9494TIP3    H249898   1.096   1.592   1.662 -0.9014 -0.1016  0.6203
 9495TIP3   OH249899   4.651   4.577   0.636  0.3933 -0.3197 -0.5727
 9495TIP3    H149900   4.700   4.495   0.645  1.1945  0.2360  0.1566
 9495TIP3    H249901   4.639   4.587   0.542 -0.2668 -1.5927 -0.6576
 9496TIP3   OH249902   1.664   4.770  16.824  0.0418 -0.4259  0.0025
 9496TIP3    H149903   1.740   4.747  16.877 -1.2028 -1.8702  1.2837
 9496TIP3    H249904   1.673   4.717  16.745  2.3058  2.3019 -1.7487
 9497TIP3   OH249905   2.357   2.954   4.192 -0.2252 -0.2976 -0.1061
 9497TIP3    H149906   2.429   2.993   4.142 -1.7124 -0.3041 -2.4358
 9497TIP3    H249907   2.383   2.863   4.203  1.6164  0.4037  2.1537
 9498TIP3   OH249908   2.724   0.654   5.036  0.0469  0.7515 -0.6426
 9498TIP3    H149909   2.777   0.731   5.013  1.8277  0.1493  1.0864
 9498TIP3    H249910   2.719   0.603   4.955  2.1927  0.8463 -0.8929
 9499TIP3   OH249911   4.310   0.382  12.475  0.3355 -0.2265 -0.3690
 9499TIP3    H149912   4.370   0.451  12.503  0.1117 -0.0426 -0.3492
 9499TIP3    H249913   4.235   0.389  12.534  0.2634 -0.4149 -0.4374
 9500TIP3   OH249914   4.184   4.779   5.399 -0.0829 -0.3290  0.4820
 9500TIP3    H149915   4.223   4.851   5.350 -0.9230 -0.6745 -0.7410
 9500TIP3    H249916   4.240   4.703   5.380 -2.3726 -1.3526 -3.0450
 9501TIP3   OH249917   1.536   2.055   2.629  0.0286  0.4397 -0.2023
 9501TIP3    H149918   1.564   2.099   2.710 -0.3751 -0.8173  0.6471
 9501TIP3    H249919   1.533   1.962   2.652 -2.0089  0.2453 -1.1000
 9502TIP3   OH249920   4.848   2.602   1.870 -0.2845  0.8092 -0.3875
 9502TIP3    H149921   4.796   2.677   1.900 -3.1315  0.8116 -4.5345
 9502TIP3    H249922   4.815   2.529   1.922 -1.4414  1.5411 -0.0449
 9503TIP3   OH249923   4.466   6.142  11.801 -0.0730  0.0252  0.0038
 9503TIP3    H149924   4.468   6.229  11.842  1.0063 -0.3100  0.6954
 9503TIP3    H249925   4.443   6.083  11.872 -1.7989 -0.1824 -0.6676
 9504TIP3   OH249926   5.564   0.907   4.730 -0.0387  0.2071  0.1962
 9504TIP3    H149927   5.589   0.819   4.757  1.1836  1.0498  2.0415
 9504TIP3    H249928   5.474   0.916   4.760  0.2721  0.0135  1.2586
 9505TIP3   OH249929   4.007   6.482  13.717 -0.4312  0.1589 -0.0849
 9505TIP3    H149930   3.980   6.466  13.626  0.4848 -1.2686 -0.1363
 9505TIP3    H249931   3.976   6.406  13.765  2.4199 -1.0579  0.0352
 9506TIP3   OH249932   0.606   2.130  13.416 -0.4726  0.4252 -0.0192
 9506TIP3    H149933   0.645   2.214  13.439 -0.3327  0.1687  0.7074
 9506TIP3    H249934   0.569   2.144  13.328 -0.5641  1.2778  0.1444
 9507TIP3   OH249935   4.397   3.926   1.125  0.4323  0.6375 -0.6928
 9507TIP3    H149936   4.405   3.880   1.042 -0.4811  0.3936 -0.6563
 9507TIP3    H249937   4.371   3.858   1.188  0.6429  0.9110 -0.3011
 9508TIP3   OH249938   5.374   3.357   0.026 -0.1543 -0.0877 -0.5309
 9508TIP3    H149939   5.351   3.265   0.035  0.5829 -0.4584 -2.0659
 9508TIP3    H249940   5.425   3.361  -0.055 -1.5619  1.9065 -1.4131
 9509TIP3   OH249941   0.542   5.556  13.233 -0.0089 -0.8515  0.1199
 9509TIP3    H149942   0.541   5.615  13.157  1.4487 -0.4817  0.3664
 9509TIP3    H249943   0.459   5.508  13.226  0.7641 -1.9914 -2.6309
 9510TIP3   OH249944   6.287   1.802   3.479 -0.1317  0.2928  0.2028
 9510TIP3    H149945   6.248   1.799   3.567  0.7805  1.6147  0.6862
 9510TIP3    H249946   6.313   1.893   3.467  1.0410 -0.1466 -0.8737
 9511TIP3   OH249947   1.555   1.457  11.436 -0.2795 -0.0761 -0.1579
 9511TIP3    H149948   1.542   1.503  11.518  2.5018 -0.3090  0.5187
 9511TIP3    H249949   1.525   1.517  11.368  0.2625  1.4066  0.8838
 9512TIP3   OH249950   2.977   2.386  14.235 -0.1174  0.5734  0.3518
 9512TIP3    H149951   2.922   2.323  14.188 -1.0165  1.6409 -0.0687
 9512TIP3    H249952   2.918   2.458  14.257  0.7049  0.9356  1.5206
 9513TIP3   OH249953   1.983   6.302  16.280  0.4361 -0.1095 -0.0503
 9513TIP3    H149954   1.936   6.219  16.287 -2.1891  1.0801 -1.9113
 9513TIP3    H249955   1.960   6.335  16.193  1.6874  2.4136  0.4961
 9514TIP3   OH249956   4.931   5.365  11.917 -0.3564  0.0369 -0.4025
 9514TIP3    H149957   5.015   5.396  11.882  0.4948 -0.7401  0.8711
 9514TIP3    H249958   4.885   5.330  11.841  0.7662 -0.1711 -1.0094
 9515TIP3   OH249959   1.521   4.673  13.784  0.2646  0.0732  0.4090
 9515TIP3    H149960   1.513   4.582  13.813  0.1705  0.3676  1.3546
 9515TIP3    H249961   1.467   4.679  13.706 -0.6326 -0.4196  0.9795
 9516TIP3   OH249962   0.205   1.510   2.049  0.1235 -0.0071 -0.1562
 9516TIP3    H149963   0.136   1.470   2.102 -0.3475  1.0505  0.0513
 9516TIP3    H249964   0.283   1.457   2.068 -0.6031 -1.1957 -0.3601
 9517TIP3   OH249965   5.326   3.855   0.696 -0.0109 -0.2309 -0.0233
 9517TIP3    H149966   5.398   3.850   0.633 -1.1221  0.7920 -1.4416
 9517TIP3    H249967   5.351   3.925   0.756 -0.0584  0.5418 -0.8781
 9518TIP3   OH249968   6.306   3.541  14.476  0.2042 -0.0381  0.0701
 9518TIP3    H149969   6.318   3.633  14.501  0.1550 -0.0109 -0.0057
 9518TIP3    H249970   6.227   3.514  14.522  0.8587 -0.3782  1.0199
 9519TIP3   OH249971   4.513   5.766   1.232  0.2079 -0.0001 -0.2972
 9519TIP3    H149972   4.581   5.809   1.179 -0.6263  2.7983  0.7260
 9519TIP3    H249973   4.432   5.780   1.183 -0.1485 -0.0979  0.2561
 9520TIP3   OH249974   3.139   2.146   5.339 -0.0389 -0.0436  0.0960
 9520TIP3    H149975   3.120   2.236   5.365  1.1750  0.6644 -1.3312
 9520TIP3    H249976   3.213   2.153   5.279  0.2870 -2.0325  0.1913
 9521TIP3   OH249977   5.260   3.907   2.064  0.5385 -0.4563  0.4090
 9521TIP3    H149978   5.319   3.897   2.139  0.0512 -1.5978  0.6682
 9521TIP3    H249979   5.313   3.883   1.988  0.5155 -1.1684  0.6075
 9522TIP3   OH249980   0.327   3.309  12.421 -0.4130  0.1148  0.2523
 9522TIP3    H149981   0.262   3.271  12.480 -0.4911 -1.0142 -0.5243
 9522TIP3    H249982   0.349   3.238  12.361  0.8540  0.7624 -0.0805
 9523TIP3   OH249983   5.444   3.447  13.970 -0.4247  0.0234 -0.1167
 9523TIP3    H149984   5.439   3.362  14.014  1.3023 -0.1376 -0.1791
 9523TIP3    H249985   5.537   3.466  13.966 -0.8093  2.2898  0.5707
 9524TIP3   OH249986   6.555   6.705  11.317  0.2299 -0.0972 -0.2766
 9524TIP3    H149987   6.635   6.735  11.360 -0.0280  0.5246 -0.2201
 9524TIP3    H249988   6.535   6.621  11.360  1.5770 -0.9403 -1.2198
 9525TIP3   OH249989   6.451   4.781   3.295 -0.0991 -0.1962  1.1068
 9525TIP3    H149990   6.359   4.805   3.308 -0.2547  0.4775 -0.7995
 9525TIP3    H249991   6.453   4.686   3.308 -1.1634 -0.2741  0.8114
 9526TIP3   OH249992   2.729   0.238  17.048 -0.3391  0.5775 -0.2803
 9526TIP3    H149993   2.783   0.165  17.020  1.4231  0.0133  3.8492
 9526TIP3    H249994   2.792   0.303  17.080 -1.9872  1.7646  0.6880
 9527TIP3   OH249995   3.648   2.081  13.292 -0.1145  0.2086  0.0886
 9527TIP3    H149996   3.587   2.155  13.287 -0.8729 -0.2818  1.4998
 9527TIP3    H249997   3.597   2.011  13.334  0.4458 -1.2840 -1.5939
 9528TIP3   OH249998   5.343   0.055  13.132  0.0624 -0.3562  0.0251
 9528TIP3    H149999   5.303   0.114  13.067  0.6331 -0.2812 -0.2675
 9528TIP3    H250000   5.269   0.006  13.168 -0.4025  0.3870  0.1226
 9529TIP3   OH250001   3.095   0.183  15.919 -0.1334  0.1021  0.5505
 9529TIP3    H150002   3.131   0.270  15.902 -1.5361  0.9612  1.6552
 9529TIP3    H250003   3.038   0.165  15.844 -0.8728  0.7529  0.9397
 9530TIP3   OH250004   6.180   4.289   1.120 -0.6260  0.8749 -0.2263
 9530TIP3    H150005   6.196   4.384   1.116  0.7848  0.6753  0.1180
 9530TIP3    H250006   6.215   4.263   1.205 -0.6547 -0.0263 -0.4876
 9531TIP3   OH250007   1.580   2.783  11.257 -0.5958  0.1230 -0.1410
 9531TIP3    H150008   1.597   2.859  11.202 -1.5582  1.6600  1.5264
 9531TIP3    H250009   1.577   2.709  11.197  0.6210  1.3568 -1.8094
 9532TIP3   OH250010   4.285   4.707  13.214 -0.1982 -0.0907 -0.0950
 9532TIP3    H150011   4.379   4.699  13.230 -0.4327 -1.1802  0.8950
 9532TIP3    H250012   4.247   4.724  13.300 -0.7610  2.2443 -0.7456
 9533TIP3   OH250013   0.361   2.474   0.101  0.3451  0.1517 -0.4367
 9533TIP3    H150014   0.376   2.424   0.181 -0.5246 -1.2448 -1.1141
 9533TIP3    H250015   0.266   2.485   0.097  0.4740  1.3009 -0.6478
 9534TIP3   OH250016   1.231   5.596   5.215 -0.2944  0.0996  0.2560
 9534TIP3    H150017   1.262   5.683   5.191 -2.4880  0.6497 -0.7887
 9534TIP3    H250018   1.300   5.537   5.184  0.4459  1.3432 -0.5643
 9535TIP3   OH250019   2.188   5.033   3.100 -0.0210  0.5203 -0.1108
 9535TIP3    H150020   2.204   4.938   3.096 -0.8481  0.3747 -0.1316
 9535TIP3    H250021   2.270   5.072   3.071  0.1523 -0.2007 -0.6339
 9536TIP3   OH250022   3.882   0.242  16.101  0.2874 -0.0605  0.5365
 9536TIP3    H150023   3.849   0.153  16.109  0.5506 -0.2811 -0.6808
 9536TIP3    H250024   3.808   0.293  16.068  1.0162 -0.5151 -1.9947
 9537TIP3   OH250025   4.809   2.597  16.302 -0.0095 -0.1949 -0.2098
 9537TIP3    H150026   4.772   2.508  16.305 -0.0404 -0.1592  1.1174
 9537TIP3    H250027   4.734   2.654  16.317  0.0129  0.0694 -1.0568
 9538TIP3   OH250028   5.831   2.519   5.845 -0.1747  0.0089  0.3788
 9538TIP3    H150029   5.739   2.542   5.832 -0.6946 -2.9914 -2.6224
 9538TIP3    H250030   5.828   2.444   5.905 -0.1271 -1.9451 -1.8918
 9539TIP3   OH250031   3.515   4.252  13.609 -0.0687  0.0166 -0.1457
 9539TIP3    H150032   3.488   4.187  13.544 -1.4714  0.5853 -0.1732
 9539TIP3    H250033   3.481   4.335  13.575 -0.6544  0.3528  1.1935
 9540TIP3   OH250034   4.098   3.724   2.756  0.3731  0.5579  0.5005
 9540TIP3    H150035   4.194   3.718   2.763  0.6459  1.3318 -1.7678
 9540TIP3    H250036   4.072   3.778   2.831  1.9945  2.2768 -0.0941
 9541TIP3   OH250037   4.940   5.701  16.141 -0.2870  0.0886  0.5862
 9541TIP3    H150038   4.890   5.621  16.159  1.2726 -1.4370 -1.3934
 9541TIP3    H250039   4.891   5.744  16.070 -0.1762 -0.0675  0.4130
 9542TIP3   OH250040   6.736   2.179   0.730  0.2991  0.4040  0.4287
 9542TIP3    H150041   6.791   2.164   0.808 -0.1324 -0.9174  0.5082
 9542TIP3    H250042   6.799   2.192   0.659  0.7196 -0.2450  0.6704
 9543TIP3   OH250043   0.451   5.014   4.778 -0.4888  0.2806 -0.5638
 9543TIP3    H150044   0.447   5.011   4.873  3.0216  0.1629 -0.2900
 9543TIP3    H250045   0.383   4.953   4.749 -3.0499  1.8235  1.7070
 9544TIP3   OH250046   6.717   3.855   2.830  0.3150  0.2776  0.2523
 9544TIP3    H150047   6.678   3.847   2.917  2.4244 -0.3590  1.2101
 9544TIP3    H250048   6.712   3.948   2.809 -2.5316  0.1129 -0.1368
 9545TIP3   OH250049   6.718   0.286  16.131 -0.3397  0.5307  0.3063
 9545TIP3    H150050   6.711   0.240  16.047  2.7941 -0.2154  0.3363
 9545TIP3    H250051   6.762   0.368  16.110  2.1065 -0.4277  1.3659
 9546TIP3   OH250052   4.917   0.876   1.380  0.8031 -0.0337 -0.0530
 9546TIP3    H150053   4.929   0.937   1.308 -1.0309 -0.2549 -0.5983
 9546TIP3    H250054   4.999   0.881   1.430  1.9355  0.4497 -1.8741
 9547TIP3   OH250055   4.469   2.374   1.934  0.1856 -0.1180  0.3360
 9547TIP3    H150056   4.456   2.287   1.894 -0.3241 -0.0869  0.4308
 9547TIP3    H250057   4.503   2.427   1.862  4.0960 -1.2599  1.0794
 9548TIP3   OH250058   0.734   5.539  16.130  0.1159 -0.2607 -0.1882
 9548TIP3    H150059   0.653   5.580  16.101 -0.0103 -0.1566  0.3163
 9548TIP3    H250060   0.757   5.583  16.211  0.2970 -0.7707  0.0455
 9549TIP3   OH250061   6.682   4.013   0.983  0.4871 -0.1888 -0.4215
 9549TIP3    H150062   6.637   4.085   1.027  0.6304 -1.8341  2.6622
 9549TIP3    H250063   6.775   4.029   1.000  0.4989 -1.2481  0.5987
 9550TIP3   OH250064   5.934   4.065   4.212 -0.6389  0.0266 -0.5610
 9550TIP3    H150065   5.980   4.064   4.296 -1.4383  0.5552 -0.0997
 9550TIP3    H250066   5.845   4.038   4.234 -0.5147 -1.1963 -1.4691
 9551TIP3   OH250067   4.190   0.051  11.918 -0.9666 -0.3283  0.3518
 9551TIP3    H150068   4.261   0.035  11.980 -0.1439 -1.8511 -0.9193
 9551TIP3    H250069   4.135   0.117  11.961  0.8806  0.4775  1.6217
 9552TIP3   OH250070   5.021   3.591   0.349 -0.5471  0.7636  0.1612
 9552TIP3    H150071   4.991   3.632   0.430 -2.8865  0.2749 -0.3912
 9552TIP3    H250072   5.061   3.663   0.299  0.3211  1.1979  1.4462
 9553TIP3   OH250073   3.474   1.011   3.559  0.2908  0.1027 -0.1038
 9553TIP3    H150074   3.517   0.944   3.506  1.1290 -0.7222  1.5419
 9553TIP3    H250075   3.389   0.973   3.582 -0.5541  0.9168 -1.7024
 9554TIP3   OH250076   4.284   1.268   6.068  0.5569  0.4356  0.0641
 9554TIP3    H150077   4.308   1.303   6.154  2.3057  0.1705 -0.2734
 9554TIP3    H250078   4.332   1.185   6.062  0.5197  0.4830 -1.1854
 9555TIP3   OH250079   5.772   1.296   4.643  0.2610 -0.2066 -0.3117
 9555TIP3    H150080   5.745   1.207   4.666  0.1298 -0.0116  0.3130
 9555TIP3    H250081   5.704   1.326   4.583 -2.2630  1.0668  2.9109
 9556TIP3   OH250082   2.049   2.702   0.942  0.2095  0.2414  0.4880
 9556TIP3    H150083   2.021   2.753   1.018 -0.3330  2.1185 -0.8720
 9556TIP3    H250084   2.002   2.742   0.868  1.6508 -0.6771 -1.0098
 9557TIP3   OH250085   6.232   4.520   3.593 -0.5843 -0.2708 -0.0305
 9557TIP3    H150086   6.270   4.608   3.603 -0.7787 -0.1932  0.0271
 9557TIP3    H250087   6.205   4.516   3.502 -1.1101 -0.0561  0.1153
 9558TIP3   OH250088   6.047   0.688  12.727  0.0641  0.8438 -0.4914
 9558TIP3    H150089   6.099   0.755  12.772 -0.6447 -0.0031  1.7020
 9558TIP3    H250090   6.110   0.639  12.675  1.1643  1.0179  0.6446
 9559TIP3   OH250091   3.581   1.412   4.950  0.0901  0.0297  0.3047
 9559TIP3    H150092   3.672   1.412   4.920  0.4979  2.3404  1.3293
 9559TIP3    H250093   3.562   1.504   4.970 -2.2736 -0.4822  0.7402
 9560TIP3   OH250094   2.178   4.746  13.048 -0.4182 -0.0447  0.1817
 9560TIP3    H150095   2.221   4.732  12.963  1.0953  2.3976  0.4261
 9560TIP3    H250096   2.092   4.782  13.026  0.3414  1.5171 -0.3779
 9561TIP3   OH250097   2.723   2.657   3.191 -0.1387  0.1910  0.0884
 9561TIP3    H150098   2.793   2.593   3.207 -0.1942  0.3881  1.2289
 9561TIP3    H250099   2.644   2.615   3.224  0.0014  1.2416  1.9418
 9562TIP3   OH250100   6.485   6.258  16.876  0.4893 -0.2185  0.0252
 9562TIP3    H150101   6.426   6.230  16.805 -1.3238 -0.5616  1.5817
 9562TIP3    H250102   6.521   6.176  16.911  0.3432 -0.1466  0.3450
 9563TIP3   OH250103   1.094   3.598   0.281 -0.0271  0.2268  0.0809
 9563TIP3    H150104   1.130   3.517   0.244 -1.1253 -0.1804 -0.1445
 9563TIP3    H250105   1.170   3.648   0.308  0.8498  0.3680 -2.3603
 9564TIP3   OH250106   0.140   2.981   2.755 -0.0962 -0.9949  0.4086
 9564TIP3    H150107   0.146   3.070   2.719  0.0479 -1.7162 -1.4096
 9564TIP3    H250108   0.224   2.968   2.800 -0.6694  0.2719  1.9483
 9565TIP3   OH250109   1.743   4.917   3.966  0.3731  1.0604  0.0615
 9565TIP3    H150110   1.809   4.951   3.907  0.9816  0.5275  0.4201
 9565TIP3    H250111   1.793   4.877   4.038 -0.2089 -1.9028 -1.0232
 9566TIP3   OH250112   6.623   0.904   0.129 -0.4465 -0.5083 -0.0169
 9566TIP3    H150113   6.587   0.983   0.090  1.8216  0.0459 -1.1530
 9566TIP3    H250114   6.694   0.935   0.185  0.2739 -1.6896 -0.2346
 9567TIP3   OH250115   0.050   1.025   1.689 -0.3781 -0.3155 -0.2823
 9567TIP3    H150116   0.092   0.939   1.686 -0.2368 -0.2363 -0.7258
 9567TIP3    H250117   0.120   1.086   1.664 -0.8946 -0.2427 -1.6758
 9568TIP3   OH250118   3.712   4.588   1.297  0.3115  0.0595  0.5843
 9568TIP3    H150119   3.748   4.501   1.281  0.7259  0.2177  0.6395
 9568TIP3    H250120   3.781   4.634   1.345  0.5731  0.7984 -0.4718
 9569TIP3   OH250121   4.922   5.833  11.945 -0.2919 -0.1494  0.4808
 9569TIP3    H150122   4.950   5.816  12.034  1.7483 -1.4062 -0.3491
 9569TIP3    H250123   4.976   5.907  11.916 -0.0081 -0.5973 -0.1444
 9570TIP3   OH250124   1.309   2.991  15.117 -0.1871 -0.3498 -0.6059
 9570TIP3    H150125   1.305   2.954  15.205  0.5412 -2.1535 -1.2708
 9570TIP3    H250126   1.230   3.045  15.110 -1.4947 -2.0290  0.3808
 9571TIP3   OH250127   2.476   0.553  15.273  0.1407 -0.0688 -0.0460
 9571TIP3    H150128   2.395   0.590  15.309 -0.3463 -0.4981 -0.6842
 9571TIP3    H250129   2.488   0.599  15.190 -1.0273 -2.0145 -1.3542
 9572TIP3   OH250130   3.012   3.558   0.017 -0.4332  0.0205 -0.4148
 9572TIP3    H150131   2.935   3.537  -0.034 -0.8309  1.3651 -0.4062
 9572TIP3    H250132   3.026   3.482   0.073 -0.7969 -0.8869 -1.5361
 9573TIP3   OH250133   4.076   6.615  16.895  0.0673 -0.2481 -0.3486
 9573TIP3    H150134   4.041   6.565  16.822  2.0347 -0.4819 -1.1927
 9573TIP3    H250135   4.066   6.706  16.869  0.4224 -0.3247 -0.7753
 9574TIP3   OH250136   3.189   1.052   2.453 -0.1912  0.1762  0.3111
 9574TIP3    H150137   3.112   0.994   2.453 -0.0909 -0.0045 -1.2404
 9574TIP3    H250138   3.255   1.003   2.404  1.2681 -0.0756  2.4095
 9575TIP3   OH250139   1.089   2.136   5.116  0.1716  0.7443  0.6709
 9575TIP3    H150140   1.068   2.216   5.068 -0.7147  0.2138  0.1697
 9575TIP3    H250141   1.008   2.085   5.116  0.8698 -0.3905  0.5431
 9576TIP3   OH250142   4.850   0.040  12.968  0.1274  0.1488  0.6063
 9576TIP3    H150143   4.786  -0.031  12.965 -1.0392  1.2028 -0.2453
 9576TIP3    H250144   4.804   0.112  13.011  1.8508 -0.0800  3.1095
 9577TIP3   OH250145   0.005   1.523   3.550  0.4838 -0.2333  0.1401
 9577TIP3    H150146   0.038   1.574   3.476 -0.2454  0.3171  0.1890
 9577TIP3    H250147  -0.080   1.561   3.570 -1.8643 -3.7317 -2.1483
 9578TIP3   OH250148   3.087   0.136   6.452 -0.5453  0.3836  0.0132
 9578TIP3    H150149   3.089   0.049   6.491  1.6014  0.3661 -0.0414
 9578TIP3    H250150   2.994   0.154   6.438 -1.0681 -1.5627  0.7405
 9579TIP3   OH250151   3.252   4.783  13.590 -0.4028 -0.1423  0.2236
 9579TIP3    H150152   3.183   4.760  13.528  0.4887  0.1433 -0.8955
 9579TIP3    H250153   3.288   4.698  13.618 -1.1693 -0.2911  0.7963
 9580TIP3   OH250154   5.170   0.928  12.746 -0.0980  0.3654 -0.1756
 9580TIP3    H150155   5.222   0.866  12.797 -0.6262 -0.7975 -1.0121
 9580TIP3    H250156   5.234   0.977  12.695  0.3863  1.1075  1.0812
 9581TIP3   OH250157   1.566   1.351  14.220 -0.1557  0.4192 -0.2165
 9581TIP3    H150158   1.582   1.434  14.177  2.2854  1.8931  3.0903
 9581TIP3    H250159   1.568   1.372  14.314 -0.2516 -3.2267  0.7474
 9582TIP3   OH250160   2.087   0.833   5.611  0.2857  0.4364 -0.0013
 9582TIP3    H150161   2.085   0.743   5.577  0.3696  0.9629 -1.4854
 9582TIP3    H250162   2.016   0.878   5.566 -1.0299  0.6827  2.1627
 9583TIP3   OH250163   0.977   0.572  10.367  0.1457  0.4837 -0.0739
 9583TIP3    H150164   0.982   0.530  10.281  0.2757 -0.6732  0.4864
 9583TIP3    H250165   0.927   0.511  10.421  1.5503  0.3558  1.1606
 9584TIP3   OH250166   2.279   0.161   3.873 -0.4106 -0.6276 -0.5141
 9584TIP3    H150167   2.268   0.066   3.873  2.3377 -1.0220 -1.9275
 9584TIP3    H250168   2.287   0.184   3.966  0.5861 -2.0220 -0.2361
 9585TIP3   OH250169   3.775   0.591  13.539  0.1336 -0.8678  0.4087
 9585TIP3    H150170   3.737   0.551  13.461  0.3522  0.5767 -0.4636
 9585TIP3    H250171   3.707   0.584  13.606  0.4031 -3.2790  0.5222
 9586TIP3   OH250172   1.552   4.098   3.510 -0.2090  0.3634 -0.2556
 9586TIP3    H150173   1.592   4.015   3.483  2.0067  1.8686 -2.0392
 9586TIP3    H250174   1.471   4.073   3.555  1.3386 -2.8205  1.0779
 9587TIP3   OH250175   0.868   4.079   4.087 -0.6306  0.5776  0.2077
 9587TIP3    H150176   0.793   4.090   4.028 -0.7231 -0.3387  0.1389
 9587TIP3    H250177   0.878   3.984   4.095  1.0827  0.6632 -0.5059
 9588TIP3   OH250178   5.737   0.306  10.420 -0.0611  0.3469 -0.5298
 9588TIP3    H150179   5.685   0.305  10.501  2.1987 -0.4169  1.0146
 9588TIP3    H250180   5.818   0.350  10.445  1.3657 -1.3734 -1.9343
 9589TIP3   OH250181   2.605   4.575   0.980 -0.2373  0.4014 -0.7842
 9589TIP3    H150182   2.627   4.487   1.011 -2.6175 -0.0910 -0.2660
 9589TIP3    H250183   2.679   4.630   1.006  2.4615 -1.7763 -3.1693
 9590TIP3   OH250184   0.103   0.355  16.467 -0.7504  0.1936  0.1350
 9590TIP3    H150185   0.109   0.448  16.448 -1.4107 -0.4121 -3.6642
 9590TIP3    H250186   0.193   0.329  16.489 -0.1894  1.3640 -0.7391
 9591TIP3   OH250187   5.074   2.000  12.527 -0.0374 -0.4388  0.4812
 9591TIP3    H150188   4.993   2.041  12.558  1.0774 -0.2974  3.4838
 9591TIP3    H250189   5.048   1.910  12.504 -1.3559  0.1437 -0.4154
 9592TIP3   OH250190   1.263   4.781  16.219  0.0663  0.3797  0.6952
 9592TIP3    H150191   1.189   4.820  16.265  0.0594 -0.1848  1.1798
 9592TIP3    H250192   1.337   4.796  16.278  0.3691  1.0419  0.1628
 9593TIP3   OH250193   1.856   5.337   5.204 -0.0266 -0.4089  0.0175
 9593TIP3    H150194   1.936   5.380   5.233 -0.0398 -0.7682  0.5858
 9593TIP3    H250195   1.840   5.373   5.116  0.4632  0.0553  0.1166
 9594TIP3   OH250196   5.183   3.522   2.016  0.1594 -0.1609 -0.3929
 9594TIP3    H150197   5.146   3.590   1.961 -1.2939  0.0563  0.8056
 9594TIP3    H250198   5.134   3.527   2.098  2.5795 -0.1377  1.1495
 9595TIP3   OH250199   6.109   5.267   5.451  0.0006  0.5647  0.5065
 9595TIP3    H150200   6.150   5.217   5.381  0.6583  0.1386  1.1881
 9595TIP3    H250201   6.017   5.243   5.447  0.1921 -0.1730  0.3835
 9596TIP3   OH250202   5.052   0.236  16.960 -0.3059  0.2868 -0.3827
 9596TIP3    H150203   5.147   0.237  16.972 -0.4746  1.9484  1.3447
 9596TIP3    H250204   5.017   0.240  17.049 -1.8974  3.8709 -1.0050
 9597TIP3   OH250205   3.031   6.366  16.120 -0.1954  0.5340 -0.6924
 9597TIP3    H150206   3.121   6.334  16.121 -0.0821  0.7753  1.2184
 9597TIP3    H250207   2.990   6.319  16.048  1.0294 -0.8287 -0.5569
 9598TIP3   OH250208   0.459   5.636  16.179  1.1976 -0.0720 -0.4762
 9598TIP3    H150209   0.475   5.685  16.260 -1.1934  0.3292 -0.1855
 9598TIP3    H250210   0.371   5.662  16.152  1.1924 -1.6616 -2.1711
 9599TIP3   OH250211   4.001   1.330  14.671 -0.3250 -0.4816  0.1559
 9599TIP3    H150212   3.928   1.287  14.716 -0.3651 -0.3796  0.1879
 9599TIP3    H250213   4.053   1.257  14.636 -1.1025 -0.5340 -0.9411
 9600TIP3   OH250214   1.499   3.892  14.748  0.2202 -0.5168 -0.6459
 9600TIP3    H150215   1.539   3.917  14.832 -0.4179  3.6432 -1.3549
 9600TIP3    H250216   1.573   3.865  14.693  1.2965  0.9593 -0.0112
 9601TIP3   OH250217   5.296   3.372  11.845  0.3561 -0.1086 -0.2157
 9601TIP3    H150218   5.259   3.285  11.854 -2.7918  1.2359  1.3123
 9601TIP3    H250219   5.374   3.371  11.900  0.4091 -1.9517 -0.2724
 9602TIP3   OH250220   1.558   5.979   3.301 -0.5521 -0.4433  0.1191
 9602TIP3    H150221   1.516   5.981   3.387 -1.0540 -2.0230 -0.0603
 9602TIP3    H250222   1.591   5.889   3.292 -1.7936 -0.7634 -1.9231
 9603TIP3   OH250223   1.204   3.074   3.234 -0.0807  0.1139  0.3617
 9603TIP3    H150224   1.143   3.066   3.160 -0.2689 -1.0979  0.6260
 9603TIP3    H250225   1.273   3.132   3.202 -0.9142  0.7998 -0.2497
 9604TIP3   OH250226   4.310   6.329   2.195  0.0985  0.2156 -0.2648
 9604TIP3    H150227   4.261   6.391   2.141  2.9676 -0.0294 -3.5206
 9604TIP3    H250228   4.367   6.383   2.249 -1.3944  0.4207  1.1764
 9605TIP3   OH250229   6.763   4.878  14.072  0.5173  0.2657  0.6875
 9605TIP3    H150230   6.730   4.796  14.036  3.9783 -0.2855 -1.7893
 9605TIP3    H250231   6.687   4.936  14.072 -1.3201 -1.9285 -0.6588
 9606TIP3   OH250232   4.843   6.275  17.275 -0.1947 -0.4607 -0.4363
 9606TIP3    H150233   4.893   6.334  17.332  0.0999  1.0534 -2.1425
 9606TIP3    H250234   4.910   6.233  17.221 -0.6262  0.9412 -2.1567
 9607TIP3   OH250235   0.512   3.817   1.953 -0.3862  0.8646  0.5948
 9607TIP3    H150236   0.552   3.750   2.009 -1.0309 -0.5471 -0.5568
 9607TIP3    H250237   0.539   3.793   1.864 -0.4072  2.3264  0.1659
 9608TIP3   OH250238   5.139   1.934   3.398 -0.0840  0.2687  1.0373
 9608TIP3    H150239   5.100   2.018   3.423 -2.7296 -0.7999  0.8307
 9608TIP3    H250240   5.222   1.958   3.355 -0.7715  2.7554  0.9346
 9609TIP3   OH250241   2.737   1.586   0.878 -0.2832 -0.0670 -0.4017
 9609TIP3    H150242   2.723   1.583   0.783 -0.1637 -1.8743 -0.3982
 9609TIP3    H250243   2.747   1.494   0.903 -0.0359  0.4077  1.3286
 9610TIP3   OH250244   4.388   3.853   5.724  0.0506 -0.1817 -0.3006
 9610TIP3    H150245   4.458   3.842   5.660  0.4636  0.3805  0.0505
 9610TIP3    H250246   4.432   3.856   5.809 -0.5788 -2.0293  0.1384
 9611TIP3   OH250247   4.060   6.521   5.203 -0.2529  0.0920 -0.0289
 9611TIP3    H150248   4.126   6.547   5.138 -2.4709  1.5348 -1.8626
 9611TIP3    H250249   4.089   6.435   5.233  2.2749  0.5278 -0.9622
 9612TIP3   OH250250   2.471   3.115   6.158  0.2408  0.0067 -0.8447
 9612TIP3    H150251   2.465   3.024   6.185  0.8409 -0.3222 -1.7355
 9612TIP3    H250252   2.565   3.136   6.166  0.0085  0.7836  0.0567
 9613TIP3   OH250253   6.490   4.625  17.075 -0.3396  0.6162 -0.0107
 9613TIP3    H150254   6.475   4.598  17.166 -0.3628 -1.8211 -0.6802
 9613TIP3    H250255   6.406   4.662  17.047  0.1379  3.0378  1.3969
 9614TIP3   OH250256   3.376   5.747   6.415  0.1912 -0.4831 -0.1651
 9614TIP3    H150257   3.434   5.671   6.417 -1.0572 -1.5092  2.2384
 9614TIP3    H250258   3.291   5.712   6.387  0.0089  0.3858 -0.7418
 9615TIP3   OH250259   6.507   1.158  15.341 -0.4994 -0.5470  0.3966
 9615TIP3    H150260   6.420   1.182  15.372 -1.4055 -0.7981 -1.8025
 9615TIP3    H250261   6.497   1.146  15.246  2.4961  2.1683 -0.4536
 9616TIP3   OH250262   3.044   2.910  11.769 -0.3119  0.2269  0.3549
 9616TIP3    H150263   3.138   2.895  11.773 -0.2784  0.6727  2.7360
 9616TIP3    H250264   3.024   2.910  11.675  2.3840  2.2151 -0.3528
 9617TIP3   OH250265   5.757   5.743   0.860 -0.0463 -0.9337  1.0017
 9617TIP3    H150266   5.755   5.833   0.891 -1.3828 -0.8664  0.7739
 9617TIP3    H250267   5.677   5.704   0.895 -0.6219 -1.3933 -0.7589
 9618TIP3   OH250268   1.947   5.206   1.943 -0.0774 -0.1827 -0.1464
 9618TIP3    H150269   1.907   5.119   1.942  0.4913 -0.4576  0.3702
 9618TIP3    H250270   1.874   5.266   1.957 -0.7996 -0.3768 -2.6408
 9619TIP3   OH250271   2.227   1.282  14.581 -0.1703  0.4066  0.0791
 9619TIP3    H150272   2.272   1.350  14.531  0.2430  0.3161  0.3282
 9619TIP3    H250273   2.139   1.318  14.595 -0.7797 -0.1677 -1.9382
 9620TIP3   OH250274   5.725   1.340   3.940 -0.1565 -0.2130  0.6214
 9620TIP3    H150275   5.631   1.358   3.935  0.2058  2.7489  2.0027
 9620TIP3    H250276   5.764   1.399   3.875  0.7208 -3.1216 -1.7086
 9621TIP3   OH250277   3.315   2.740  11.100 -0.2147  0.5218 -0.5553
 9621TIP3    H150278   3.253   2.810  11.078 -0.2193  0.8940  0.5353
 9621TIP3    H250279   3.259   2.667  11.126 -0.2075  0.1643 -1.5168
 9622TIP3   OH250280   4.439   3.630  15.451 -0.4596 -0.4815  0.1524
 9622TIP3    H150281   4.494   3.653  15.526 -1.1569 -0.5894  0.6983
 9622TIP3    H250282   4.350   3.629  15.485 -0.9321  0.7255 -0.9795
 9623TIP3   OH250283   3.251   3.191   0.628  0.0690  0.2882 -0.2257
 9623TIP3    H150284   3.164   3.173   0.594  0.5034 -0.5381 -0.9348
 9623TIP3    H250285   3.299   3.227   0.554 -0.1238  2.3911  0.5804
 9624TIP3   OH250286   3.940   4.400   3.203  0.1777  0.1232 -0.1040
 9624TIP3    H150287   3.977   4.429   3.286  0.0666  0.5750 -0.2072
 9624TIP3    H250288   3.978   4.313   3.188 -0.0584 -0.0983  0.5741
 9625TIP3   OH250289   3.489   0.648  16.619  0.4263 -0.0108 -0.8726
 9625TIP3    H150290   3.455   0.712  16.557 -0.0156 -0.7143 -1.3737
 9625TIP3    H250291   3.570   0.616  16.580  0.6124  0.1948 -0.6551
 9626TIP3   OH250292   2.019   3.888  11.231 -0.8473  0.6029 -0.4244
 9626TIP3    H150293   2.098   3.899  11.179  0.2766 -0.7887  0.8921
 9626TIP3    H250294   1.999   3.794  11.226 -1.4989  0.6710  0.5256
 9627TIP3   OH250295   2.816   0.993   5.019  0.0547 -0.7229  0.0746
 9627TIP3    H150296   2.879   1.055   5.056  1.4561 -1.4149 -1.0672
 9627TIP3    H250297   2.860   0.957   4.942 -1.4834 -1.7374 -0.3676
 9628TIP3   OH250298   4.251   1.318  15.755  0.2968 -0.3719 -0.3304
 9628TIP3    H150299   4.329   1.363  15.721  2.2475 -3.0590  0.2881
 9628TIP3    H250300   4.280   1.229  15.772 -3.0598 -1.6109 -0.3814
 9629TIP3   OH250301   0.016   5.616  12.873  0.2737 -0.3180  0.4845
 9629TIP3    H150302   0.001   5.625  12.779  1.8850 -1.6296  0.0504
 9629TIP3    H250303   0.002   5.523  12.891  1.6545 -0.4244  1.1756
 9630TIP3   OH250304   6.224   4.225   3.323  0.1123 -0.5711 -0.2592
 9630TIP3    H150305   6.166   4.173   3.378  1.8667 -2.2473  0.1154
 9630TIP3    H250306   6.190   4.214   3.234 -0.1419 -1.5601 -0.0498
 9631TIP3   OH250307   1.843   2.739  11.978 -0.0924  0.0539  0.6193
 9631TIP3    H150308   1.899   2.661  11.970  0.9660  0.9575 -2.0676
 9631TIP3    H250309   1.768   2.720  11.922  0.5752  1.2005 -0.7366
 9632TIP3   OH250310   3.271   4.898  12.676 -0.3742  0.7607 -0.2264
 9632TIP3    H150311   3.323   4.841  12.620  0.1907  1.7523 -0.7306
 9632TIP3    H250312   3.181   4.885  12.646 -0.3036 -0.1474 -0.0724
 9633TIP3   OH250313   2.562   1.372   2.708 -0.0061  0.1781  0.0780
 9633TIP3    H150314   2.652   1.339   2.708  0.3795  1.2047  0.0439
 9633TIP3    H250315   2.510   1.297   2.680  0.6080 -0.9957  1.8999
 9634TIP3   OH250316   3.631   0.547  15.531 -0.1365 -0.1804 -0.5175
 9634TIP3    H150317   3.726   0.539  15.526 -0.0066  0.6500  0.3354
 9634TIP3    H250318   3.609   0.517  15.619 -0.2870  2.5343  0.4619
 9635TIP3   OH250319   4.817   1.065   5.643  0.3504  0.4595 -0.1094
 9635TIP3    H150320   4.737   1.023   5.613  0.7039  0.3049 -0.8394
 9635TIP3    H250321   4.792   1.106   5.727 -0.0489 -0.9874  0.5067
 9636TIP3   OH250322   2.438   3.551   1.697 -0.0400 -0.3927 -0.6198
 9636TIP3    H150323   2.531   3.540   1.718 -0.1724  1.0111  0.9045
 9636TIP3    H250324   2.393   3.494   1.760 -0.2603  0.2942 -0.1401
 9637TIP3   OH250325   0.959   2.294  16.762 -0.1100 -0.3159 -0.2148
 9637TIP3    H150326   1.037   2.262  16.717  0.9952 -1.1697  2.1470
 9637TIP3    H250327   0.925   2.217  16.809 -1.4330  0.4294  0.0979
 9638TIP3   OH250328   5.303   6.619   2.270  0.1045  0.4943 -0.6778
 9638TIP3    H150329   5.285   6.570   2.351 -0.2512  0.1276 -0.9732
 9638TIP3    H250330   5.246   6.696   2.277 -0.6707 -0.0314 -1.0254
 9639TIP3   OH250331   1.083   4.214  12.483  0.5494 -0.3264 -0.2502
 9639TIP3    H150332   1.043   4.165  12.412 -1.5755 -1.5067  1.6639
 9639TIP3    H250333   1.010   4.252  12.532  1.9773  1.4644  0.6618
 9640TIP3   OH250334   4.973   2.797  14.774 -0.3652  0.1432 -0.2144
 9640TIP3    H150335   5.043   2.855  14.744 -1.2215  2.2418  1.5884
 9640TIP3    H250336   5.002   2.765  14.859 -0.4686 -1.1322 -0.6356
 9641TIP3   OH250337   5.931   1.703  16.265  0.0169  0.3501  0.1408
 9641TIP3    H150338   5.946   1.707  16.359 -0.1157 -0.9448  0.2422
 9641TIP3    H250339   6.017   1.720  16.226  0.0366  1.0585  0.4754
 9642TIP3   OH250340   3.167   6.526   3.867 -0.3507  0.7960 -0.0549
 9642TIP3    H150341   3.078   6.533   3.831 -0.5101 -1.1737 -0.1109
 9642TIP3    H250342   3.183   6.432   3.874  0.5522  1.0933  2.9089
 9643TIP3   OH250343   3.555   2.248  16.861 -0.3485  0.2411  0.2550
 9643TIP3    H150344   3.495   2.243  16.787 -1.4929  0.4532  1.1238
 9643TIP3    H250345   3.500   2.225  16.937  0.7727  0.0539  1.0334
 9644TIP3   OH250346   1.181   0.246   2.397 -0.0113 -0.2791  0.3685
 9644TIP3    H150347   1.252   0.263   2.335 -0.8366 -0.3602 -0.6176
 9644TIP3    H250348   1.185   0.319   2.459  0.0774  0.4505 -0.4785
 9645TIP3   OH250349   4.274   4.669   6.445  0.7457  0.4381  0.2494
 9645TIP3    H150350   4.245   4.739   6.504 -0.1507 -1.4319  2.1514
 9645TIP3    H250351   4.193   4.629   6.414  1.1756 -1.7899  1.8042
 9646TIP3   OH250352   1.291   0.928  16.560 -0.2025 -0.1987 -0.2425
 9646TIP3    H150353   1.212   0.968  16.597  1.7687  2.0937  1.9196
 9646TIP3    H250354   1.286   0.836  16.586 -1.5798  0.1840  0.9826
 9647TIP3   OH250355   1.599   4.383  13.966  0.4949  0.2335  0.2489
 9647TIP3    H150356   1.624   4.305  14.015 -1.2403 -0.7025 -0.2678
 9647TIP3    H250357   1.604   4.455  14.030  2.6272 -0.1576  0.5956
 9648TIP3   OH250358   1.251   1.879  12.826  0.1507 -0.0214  0.1636
 9648TIP3    H150359   1.254   1.806  12.764 -0.8998 -0.6963  0.8524
 9648TIP3    H250360   1.310   1.852  12.897 -0.1645 -0.1858  0.3722
 9649TIP3   OH250361   3.261   6.408  14.405 -0.3414 -0.3445  0.3332
 9649TIP3    H150362   3.352   6.405  14.377 -0.1927  0.2358  0.7321
 9649TIP3    H250363   3.224   6.481  14.356 -0.4468 -0.2207  0.6017
 9650TIP3   OH250364   2.114   4.956   4.526 -0.1402  0.0276  0.4273
 9650TIP3    H150365   2.090   5.041   4.563 -1.3384  0.6916 -1.6796
 9650TIP3    H250366   2.142   4.976   4.436 -3.3576 -1.9559 -1.2442
 9651TIP3   OH250367   1.387   3.239   2.492  0.4247 -0.2734  0.2707
 9651TIP3    H150368   1.433   3.190   2.561  1.0391  0.5764  0.4813
 9651TIP3    H250369   1.449   3.242   2.419 -0.6505 -2.1720 -0.8020
 9652TIP3   OH250370   1.449   5.034   0.660 -0.0236  0.0169  0.1613
 9652TIP3    H150371   1.518   4.989   0.610  0.2755  0.0005  0.5885
 9652TIP3    H250372   1.496   5.101   0.710 -0.5209  1.1961 -0.8939
 9653TIP3   OH250373   0.221   6.482  15.843  0.3453  0.5008 -0.2308
 9653TIP3    H150374   0.292   6.491  15.780 -0.0493  0.8654 -0.6280
 9653TIP3    H250375   0.265   6.455  15.924  0.8229 -0.2550 -0.7219
 9654TIP3   OH250376   1.540   1.567  16.287 -0.2441  0.0287  0.3140
 9654TIP3    H150377   1.567   1.503  16.221  0.5085  1.6811 -1.0648
 9654TIP3    H250378   1.448   1.547  16.303 -0.1494 -1.1170 -0.3947
 9655TIP3   OH250379   4.863   2.208   4.513 -0.0059 -0.2354 -0.0948
 9655TIP3    H150380   4.946   2.222   4.557 -0.6243 -0.9051  1.3509
 9655TIP3    H250381   4.884   2.152   4.438  0.8388 -0.3794  0.2429
 9656TIP3   OH250382   0.498   4.983   4.477 -0.1165 -0.0263  0.1602
 9656TIP3    H150383   0.443   5.021   4.408  0.6834 -0.8167 -0.9346
 9656TIP3    H250384   0.476   5.034   4.555 -0.1877  1.6679 -0.9151
 9657TIP3   OH250385   1.377   2.122   2.411 -0.3741  0.2026  0.4347
 9657TIP3    H150386   1.435   2.116   2.487 -1.5377  1.1185  1.4341
 9657TIP3    H250387   1.433   2.156   2.341  0.5947 -0.1721  1.0101
 9658TIP3   OH250388   4.290   6.491  11.967 -0.3504  0.3940 -0.1368
 9658TIP3    H150389   4.275   6.545  11.889  0.2724 -0.4974 -0.8963
 9658TIP3    H250390   4.218   6.428  11.967  1.0749 -1.3187 -1.5288
 9659TIP3   OH250391   5.767   6.265   0.811 -0.1123  0.4619  0.6503
 9659TIP3    H150392   5.850   6.270   0.764 -0.5177 -0.8316 -0.2572
 9659TIP3    H250393   5.777   6.327   0.883  2.2732 -0.8787  1.5841
 9660TIP3   OH250394   4.003   0.277  13.925  0.0105 -0.4005 -0.1037
 9660TIP3    H150395   3.949   0.354  13.906  0.0007  0.0445  1.5859
 9660TIP3    H250396   4.047   0.258  13.842  0.0127  1.4441 -0.5706
 9661TIP3   OH250397   0.822   0.286   2.518  0.2623 -0.1431  0.1880
 9661TIP3    H150398   0.742   0.337   2.504  0.4589 -0.1258 -1.0528
 9661TIP3    H250399   0.844   0.252   2.431  1.9016  0.3107  0.3865
 9662TIP3   OH250400   6.168   2.518  11.705 -0.3946  0.1009  0.1467
 9662TIP3    H150401   6.260   2.515  11.732  0.2598 -1.6629 -2.0222
 9662TIP3    H250402   6.161   2.596  11.650 -0.3984  0.6270  0.8781
 9663TIP3   OH250403   5.180   3.419   1.185 -0.0856 -0.2937  0.0887
 9663TIP3    H150404   5.199   3.334   1.225 -0.1367 -0.1453  0.4323
 9663TIP3    H250405   5.247   3.428   1.117 -0.5272 -0.9355 -0.4513
 9664TIP3   OH250406   2.831   4.601   4.173  0.3380  0.0369  0.3940
 9664TIP3    H150407   2.837   4.543   4.097  1.9891  0.8200 -0.1130
 9664TIP3    H250408   2.858   4.546   4.247 -0.2702 -0.4425  0.2692
 9665TIP3   OH250409   5.022   4.598  15.797 -0.1035 -0.3259  0.1384
 9665TIP3    H150410   5.024   4.612  15.891 -1.5727 -1.7732  0.4343
 9665TIP3    H250411   5.115   4.590  15.772  0.3364  0.9827  1.2801
 9666TIP3   OH250412   0.379   0.815   1.274 -0.1850 -0.2178  0.4602
 9666TIP3    H150413   0.335   0.852   1.197  0.8162  0.8977  0.3941
 9666TIP3    H250414   0.458   0.868   1.284  0.0831 -0.8345  1.8200
 9667TIP3   OH250415   4.061   3.732  15.102  0.1763  0.0075 -0.5748
 9667TIP3    H150416   4.057   3.794  15.030 -0.3190  0.7987  0.1247
 9667TIP3    H250417   4.013   3.655  15.070 -1.8647  1.1325 -0.3481
 9668TIP3   OH250418   1.290   4.286  11.407  0.2493 -0.5827 -0.2804
 9668TIP3    H150419   1.290   4.200  11.449  0.4148  0.2843  1.5898
 9668TIP3    H250420   1.251   4.344  11.471 -0.9581  0.5648 -1.9765
 9669TIP3   OH250421   2.586   5.714  15.752 -0.3381 -0.1448  0.0419
 9669TIP3    H150422   2.562   5.632  15.796 -0.3309 -0.8242 -1.1432
 9669TIP3    H250423   2.596   5.688  15.660  1.1232  0.9032 -0.1154
 9670TIP3   OH250424   2.712   1.470   5.937  0.0764  0.0215  0.2634
 9670TIP3    H150425   2.648   1.400   5.920 -0.4958  0.7619 -0.7051
 9670TIP3    H250426   2.722   1.515   5.853  2.9187 -0.8810  0.0077
 9671TIP3   OH250427   5.455   5.395   0.282 -0.8509 -0.0296 -0.3668
 9671TIP3    H150428   5.478   5.427   0.369  4.7151  2.4554 -2.2794
 9671TIP3    H250429   5.489   5.305   0.280 -4.0376 -1.4110  0.7898
 9672TIP3   OH250430   5.799   3.374   1.255  0.1520  0.9030  0.3557
 9672TIP3    H150431   5.711   3.349   1.226  0.6313 -1.1190  0.4994
 9672TIP3    H250432   5.833   3.296   1.298  2.7117  0.9998 -1.2806
 9673TIP3   OH250433   3.542   4.153   1.207  0.0752 -0.5555 -0.0690
 9673TIP3    H150434   3.485   4.183   1.277 -0.0696 -0.0631 -0.3870
 9673TIP3    H250435   3.619   4.117   1.251 -0.2823 -0.8091  0.3493
 9674TIP3   OH250436   6.001   2.220  15.311 -0.1583 -0.0859 -0.2864
 9674TIP3    H150437   6.051   2.151  15.267 -1.6478 -1.5690  0.2452
 9674TIP3    H250438   6.051   2.241  15.389 -0.2258 -1.3977  0.1294
 9675TIP3   OH250439   4.570   1.293  13.320 -0.0653 -0.0567 -0.2058
 9675TIP3    H150440   4.603   1.259  13.237  1.1797  0.6200 -0.0182
 9675TIP3    H250441   4.645   1.287  13.380 -0.7381  0.1061  0.6860
 9676TIP3   OH250442   5.026   4.398   1.068 -0.0196 -0.3200 -0.9273
 9676TIP3    H150443   5.069   4.339   1.006 -2.7665 -2.4716 -0.9668
 9676TIP3    H250444   4.997   4.341   1.139 -1.0662  1.3435  0.0387
 9677TIP3   OH250445   0.294   1.416  13.660 -0.3198  0.3507 -0.5042
 9677TIP3    H150446   0.291   1.358  13.736  0.0241  0.2102 -0.5957
 9677TIP3    H250447   0.268   1.502  13.695  0.2103  0.3698 -0.1425
 9678TIP3   OH250448   4.605   1.142   2.947  0.6885  0.0775  0.0971
 9678TIP3    H150449   4.544   1.113   2.879  0.2603 -0.5970  0.7522
 9678TIP3    H250450   4.692   1.121   2.912  0.4570 -0.5508 -0.1128
 9679TIP3   OH250451   1.645   5.247  15.547 -0.8120  0.6545 -0.7870
 9679TIP3    H150452   1.612   5.199  15.471 -0.8471 -0.9407  0.1905
 9679TIP3    H250453   1.737   5.263  15.527 -0.5485 -0.6956 -0.7355
 9680TIP3   OH250454   1.422   0.937   4.751 -0.0510 -0.7083 -0.1196
 9680TIP3    H150455   1.517   0.929   4.762  0.3271  2.1067 -0.5414
 9680TIP3    H250456   1.410   1.019   4.703 -2.7337 -0.7437  0.3281
 9681TIP3   OH250457   4.854   4.289  11.664  0.1482 -0.2470  0.0211
 9681TIP3    H150458   4.890   4.246  11.586  0.7539 -0.9028  0.6512
 9681TIP3    H250459   4.931   4.312  11.716 -0.2872 -0.5726  0.8186
 9682TIP3   OH250460   3.582   0.414  17.321  0.2092 -0.3409 -0.1706
 9682TIP3    H150461   3.505   0.450  17.365  1.0745  0.9236  0.3773
 9682TIP3    H250462   3.602   0.477  17.252  1.1749 -0.2529  0.1671
 9683TIP3   OH250463   5.809   1.926   2.743  0.3019 -0.5251  0.3081
 9683TIP3    H150464   5.772   1.841   2.719 -0.8901 -0.0136  0.2460
 9683TIP3    H250465   5.875   1.944   2.676 -0.6531 -0.6264 -0.6841
 9684TIP3   OH250466   3.619   1.571  15.145 -0.7643  0.0601 -0.0034
 9684TIP3    H150467   3.637   1.664  15.132 -0.0698 -0.0467  0.1702
 9684TIP3    H250468   3.524   1.563  15.131 -0.9081  0.8653  0.4273
 9685TIP3   OH250469   6.498   5.349  12.644  0.1610  0.3290  0.0297
 9685TIP3    H150470   6.453   5.428  12.615  0.6211  1.0029  1.0553
 9685TIP3    H250471   6.449   5.277  12.606 -0.8575  1.0885 -0.1307
 9686TIP3   OH250472   5.609   4.497   6.744  0.2898  0.3587 -0.1056
 9686TIP3    H150473   5.634   4.406   6.725  0.2070  0.0415  1.1733
 9686TIP3    H250474   5.533   4.513   6.688 -1.5146 -1.3775  1.6459
 9687TIP3   OH250475   4.334   0.805   4.480 -0.0067  0.3180 -0.2336
 9687TIP3    H150476   4.308   0.783   4.570 -3.2905 -0.1374 -1.1401
 9687TIP3    H250477   4.417   0.851   4.489 -0.0023 -0.0866  2.9865
 9688TIP3   OH250478   0.780   3.474   3.367 -0.0187  0.4219  0.6575
 9688TIP3    H150479   0.718   3.462   3.295  2.3590 -2.7958 -1.0957
 9688TIP3    H250480   0.758   3.405   3.429  0.0759  1.0318  1.3727
 9689TIP3   OH250481   6.343   5.759  10.816 -0.7279 -0.1522  0.2058
 9689TIP3    H150482   6.331   5.823  10.746 -0.3340 -0.9641 -0.6117
 9689TIP3    H250483   6.257   5.721  10.828 -0.6018 -0.6604 -0.4752
 9690TIP3   OH250484   5.338   1.370  13.865 -0.4459  0.1071 -0.4226
 9690TIP3    H150485   5.418   1.324  13.840  1.4845  1.5481  2.5591
 9690TIP3    H250486   5.340   1.451  13.815 -0.1860  0.0110 -0.5690
 9691TIP3   OH250487   5.005   4.149   5.463 -0.5515  0.0758  0.0430
 9691TIP3    H150488   5.084   4.182   5.421  0.1453 -0.6487  0.7437
 9691TIP3    H250489   5.003   4.192   5.549 -2.2650  1.9803 -0.8717
 9692TIP3   OH250490   6.760   0.485   2.435 -0.0899  0.2058  0.3152
 9692TIP3    H150491   6.666   0.476   2.445 -0.0763 -0.5310 -0.2082
 9692TIP3    H250492   6.788   0.408   2.386  0.3963  1.8005 -2.0706
 9693TIP3   OH250493   6.133   2.503   0.603 -0.0639 -0.2683 -0.5027
 9693TIP3    H150494   6.201   2.435   0.606 -2.0054 -2.3762 -0.9684
 9693TIP3    H250495   6.181   2.584   0.587  2.5243 -1.2637  1.4755
 9694TIP3   OH250496   4.722   3.869   2.516  0.9514  0.7073 -0.2106
 9694TIP3    H150497   4.718   3.835   2.427  4.3415 -2.2067  0.5310
 9694TIP3    H250498   4.667   3.809   2.567 -1.2658  2.5673 -0.2232
 9695TIP3   OH250499   4.499   0.886   1.797  0.0011 -0.0719  0.4325
 9695TIP3    H150500   4.442   0.898   1.721  2.0301 -0.0546 -1.2022
 9695TIP3    H250501   4.585   0.866   1.759  0.6971 -2.0501  2.7757
 9696TIP3   OH250502   3.147   6.153  16.365  0.1013  0.4455  0.0602
 9696TIP3    H150503   3.214   6.137  16.299  1.5521 -1.0608  1.7462
 9696TIP3    H250504   3.146   6.248  16.377  2.9217  0.4816  0.8219
 9697TIP3   OH250505   0.624   3.465  16.958 -0.1919 -0.1410  0.2749
 9697TIP3    H150506   0.563   3.418  17.016 -0.1995 -0.7655 -0.2205
 9697TIP3    H250507   0.660   3.534  17.012  0.4878 -1.2658  1.3041
 9698TIP3   OH250508   3.053   2.562   1.802 -0.4588  0.2722  0.3873
 9698TIP3    H150509   3.002   2.632   1.762 -1.9150 -1.3619 -0.7820
 9698TIP3    H250510   3.102   2.605   1.872  0.7095  2.9204 -1.8755
 9699TIP3   OH250511   1.621   2.539   4.474  0.2529  0.0382  0.4120
 9699TIP3    H150512   1.708   2.577   4.464 -0.1873  0.8134 -0.6993
 9699TIP3    H250513   1.609   2.486   4.396 -0.5335  0.4765  0.2314
 9700TIP3   OH250514   3.282   2.267  14.457 -0.0715 -0.4969  0.1075
 9700TIP3    H150515   3.340   2.248  14.383  0.7289 -0.0638  0.6063
 9700TIP3    H250516   3.329   2.334  14.508  0.0838 -1.8419  1.8088
 9701TIP3   OH250517   3.733   3.219  15.183  0.0865 -0.3246  0.1035
 9701TIP3    H150518   3.642   3.242  15.197  0.3249 -0.2937  1.6989
 9701TIP3    H250519   3.739   3.201  15.089 -2.0047 -2.3611  0.2949
 9702TIP3   OH250520   2.386   1.623  14.122 -0.6355 -0.5603  0.2607
 9702TIP3    H150521   2.447   1.648  14.053  0.3180  0.7804  1.5267
 9702TIP3    H250522   2.343   1.544  14.089 -1.4399  0.9528 -2.5562
 9703TIP3   OH250523   3.491   4.136   0.223 -0.4283  0.1464  0.3852
 9703TIP3    H150524   3.514   4.147   0.315 -0.0337 -0.9881  0.4370
 9703TIP3    H250525   3.452   4.220   0.198  1.0845  1.1011  1.0974
 9704TIP3   OH250526   0.772   3.212  16.888  0.4580  0.1034  0.3206
 9704TIP3    H150527   0.845   3.181  16.835  2.5241  2.5487  1.5423
 9704TIP3    H250528   0.712   3.251  16.825  0.6929 -0.9597 -0.5997
 9705TIP3   OH250529   2.514   4.726   1.334 -0.3570  0.1608  0.2061
 9705TIP3    H150530   2.519   4.631   1.326 -0.2404  0.0780  1.1435
 9705TIP3    H250531   2.470   4.755   1.254  0.3214 -0.6042 -0.4580
 9706TIP3   OH250532   5.162   1.999   5.990  0.5979  0.3673  0.2585
 9706TIP3    H150533   5.249   1.968   6.014  1.0736 -0.6204 -2.3695
 9706TIP3    H250534   5.122   1.925   5.945 -0.1171  1.9400 -1.8897
 9707TIP3   OH250535   3.985   1.839  16.328 -0.4129  0.2577 -1.0102
 9707TIP3    H150536   3.906   1.893  16.318 -1.3357 -0.7920  0.2651
 9707TIP3    H250537   3.952   1.752  16.350  1.0768 -0.6240 -2.0761
 9708TIP3   OH250538   3.883   2.720   5.572 -0.3056 -0.3977  0.4375
 9708TIP3    H150539   3.876   2.700   5.479  1.2807  1.2244 -0.0795
 9708TIP3    H250540   3.798   2.693   5.608 -1.8119  0.9341 -1.8425
 9709TIP3   OH250541   0.281   2.605   1.060 -0.1062 -0.3527 -0.1893
 9709TIP3    H150542   0.294   2.693   1.026  1.1902 -0.4405  0.0136
 9709TIP3    H250543   0.246   2.619   1.148  0.0398 -0.0404 -0.1782
 9710TIP3   OH250544   2.434   1.413   5.423  0.2537 -0.2623 -0.1535
 9710TIP3    H150545   2.528   1.429   5.428 -0.0680  2.1335 -0.3352
 9710TIP3    H250546   2.394   1.497   5.446 -1.8817 -1.4565  0.8503
 9711TIP3   OH250547   3.630   2.451   4.464 -0.1454  0.2215  0.4673
 9711TIP3    H150548   3.666   2.364   4.448 -0.5287  0.4512 -1.9055
 9711TIP3    H250549   3.542   2.434   4.498 -0.2674 -0.3120 -0.1092
 9712TIP3   OH250550   1.504   5.880  16.823 -0.2018  0.8241 -0.7327
 9712TIP3    H150551   1.554   5.959  16.843  0.6181  0.0417  0.4068
 9712TIP3    H250552   1.489   5.839  16.907 -0.1207 -0.5412 -1.3607
 9713TIP3   OH250553   1.687   4.480  12.487 -0.2550  0.4303 -0.0692
 9713TIP3    H150554   1.593   4.488  12.475 -0.1502 -0.0622 -1.3821
 9713TIP3    H250555   1.710   4.398  12.443  0.9087  1.0336 -0.6477
 9714TIP3   OH250556   3.117   0.058   5.751  0.0910 -1.1156 -0.0186
 9714TIP3    H150557   3.177   0.126   5.782  0.8262 -1.3321 -0.8998
 9714TIP3    H250558   3.032   0.101   5.748  0.2844 -0.6496  0.7757
 9715TIP3   OH250559   1.296   2.963   2.445 -0.4112 -0.6416 -0.1602
 9715TIP3    H150560   1.314   3.021   2.371  0.6251 -0.7472  0.0016
 9715TIP3    H250561   1.298   3.021   2.522 -0.4481 -0.7062 -0.1104
 9716TIP3   OH250562   0.710   3.163   5.559  0.6161 -0.0378  0.2472
 9716TIP3    H150563   0.730   3.127   5.472  1.9497 -1.1128  0.9455
 9716TIP3    H250564   0.784   3.135   5.613  0.5138  1.8183  1.4131
 9717TIP3   OH250565   1.451   3.885   4.049 -0.1654 -0.5575 -0.4360
 9717TIP3    H150566   1.442   3.794   4.020 -0.3814  0.1322 -2.6800
 9717TIP3    H250567   1.491   3.931   3.975 -0.4483  1.2682  0.4844
 9718TIP3   OH250568   6.396   6.273  14.719 -0.2835 -0.3341  0.0299
 9718TIP3    H150569   6.451   6.223  14.780 -0.2937 -0.9277 -0.4327
 9718TIP3    H250570   6.457   6.334  14.677  0.1051 -1.2056 -0.7084
 9719TIP3   OH250571   5.304   0.525   1.415  1.0909 -0.4648 -0.0284
 9719TIP3    H150572   5.290   0.508   1.508  1.0762 -0.0424  0.0455
 9719TIP3    H250573   5.381   0.472   1.393  1.0899 -0.5728  0.2215
 9720TIP3   OH250574   3.052   5.440   6.559  0.3262 -0.2027 -0.4015
 9720TIP3    H150575   3.093   5.367   6.605  1.1587 -0.5732 -1.6978
 9720TIP3    H250576   2.960   5.435   6.584  0.8423  0.0807  1.8164
 9721TIP3   OH250577   5.210   3.696   5.639  0.4497 -0.3420  0.0541
 9721TIP3    H150578   5.254   3.722   5.558  0.2223  0.3116  0.1295
 9721TIP3    H250579   5.249   3.752   5.707  1.3256 -1.5507  0.5822
 9722TIP3   OH250580   2.023   4.602   6.943 -0.6555 -0.0104  0.6097
 9722TIP3    H150581   1.963   4.598   6.869  0.1581  1.3248 -0.1561
 9722TIP3    H250582   2.109   4.580   6.905  0.0558  2.2647  0.7849
 9723TIP3   OH250583   0.008   4.698  11.428  0.1893 -0.0093 -0.4609
 9723TIP3    H150584   0.099   4.678  11.405  0.5678  1.9419 -0.9206
 9723TIP3    H250585  -0.010   4.646  11.506  1.4218 -1.0468 -0.8374
 9724TIP3   OH250586   3.150   2.732   5.769  0.3976 -0.2427  0.6617
 9724TIP3    H150587   3.081   2.684   5.813 -0.4900  0.1359 -0.2571
 9724TIP3    H250588   3.217   2.746   5.835 -0.4356 -0.5706  1.5875
 9725TIP3   OH250589   3.356   3.478   1.477  0.3339  0.1487  0.3341
 9725TIP3    H150590   3.424   3.497   1.412 -0.2361  0.0412 -0.3059
 9725TIP3    H250591   3.275   3.478   1.427 -0.2855  1.4249  1.2963
 9726TIP3   OH250592   2.249   5.371  16.213  0.3636  0.0829  0.0515
 9726TIP3    H150593   2.195   5.368  16.135  0.0581 -1.5549  0.2998
 9726TIP3    H250594   2.337   5.349  16.182  0.0586 -1.5860  0.2857
 9727TIP3   OH250595   2.957   5.462   4.707 -0.4519 -0.2893 -0.1664
 9727TIP3    H150596   2.886   5.487   4.647  0.8442 -0.3356 -1.8083
 9727TIP3    H250597   2.922   5.387   4.756 -1.8928  0.3503 -0.1617
 9728TIP3   OH250598   1.666   6.460  14.508 -0.2418  0.2237  0.0649
 9728TIP3    H150599   1.700   6.482  14.594  2.3440  0.5472 -0.9605
 9728TIP3    H250600   1.708   6.377  14.485  0.6161  1.0804 -1.6292
 9729TIP3   OH250601   0.197   1.949   0.562  0.3225  0.0523  0.4116
 9729TIP3    H150602   0.138   1.892   0.612  1.3218  0.3777  2.0353
 9729TIP3    H250603   0.273   1.959   0.619  1.8860 -0.2061 -1.5618
 9730TIP3   OH250604   3.297   3.293   1.161  0.2726 -0.0280 -0.2602
 9730TIP3    H150605   3.370   3.331   1.208  0.8953  0.3363 -1.4679
 9730TIP3    H250606   3.335   3.260   1.079 -0.5936 -1.5085 -0.1137
 9731TIP3   OH250607   1.504   5.218   2.762  0.0413 -0.4743 -0.6024
 9731TIP3    H150608   1.591   5.251   2.743 -0.9953  2.9479 -0.1006
 9731TIP3    H250609   1.488   5.240   2.853 -1.6055 -0.3739 -0.8809
 9732TIP3   OH250610   3.354   4.889   3.025 -0.2679 -0.7210 -0.6406
 9732TIP3    H150611   3.352   4.980   2.996  0.1416 -0.2085  0.8441
 9732TIP3    H250612   3.285   4.845   2.975 -1.3276  0.6887 -0.4594
 9733TIP3   OH250613   5.318   5.372  17.186 -0.0617 -0.0808  0.3820
 9733TIP3    H150614   5.345   5.396  17.098 -0.0897 -0.1283  0.3609
 9733TIP3    H250615   5.260   5.297  17.174 -1.2010  0.7763  0.3184
 9734TIP3   OH250616   2.105   5.826  14.869  0.2670  0.4205 -0.3610
 9734TIP3    H150617   2.101   5.741  14.824 -0.6123  1.1377 -1.7005
 9734TIP3    H250618   2.016   5.861  14.863  0.8417  1.8932 -0.7626
 9735TIP3   OH250619   4.364   3.005  16.787 -0.0528 -0.4683 -0.4436
 9735TIP3    H150620   4.405   2.943  16.848 -1.0566  0.1907  0.9741
 9735TIP3    H250621   4.395   3.091  16.816 -1.5683 -0.0399  0.0054
 9736TIP3   OH250622   0.609   0.693  12.637  0.2901 -0.5240  0.3762
 9736TIP3    H150623   0.577   0.732  12.556  0.4721  0.8516  0.9347
 9736TIP3    H250624   0.555   0.734  12.706  1.3512 -0.2952  1.0901
 9737TIP3   OH250625   1.338   2.784  14.014 -0.2620 -0.0901  0.7218
 9737TIP3    H150626   1.414   2.770  13.957  1.2254  1.0453  2.3111
 9737TIP3    H250627   1.316   2.696  14.045  0.4424 -0.4330  0.2880
 9738TIP3   OH250628   2.278   1.910   1.095 -0.0948  0.1920 -0.5445
 9738TIP3    H150629   2.212   1.946   1.156  0.3842 -2.2091  1.5559
 9738TIP3    H250630   2.348   1.975   1.095 -0.0790  0.2547  1.6172
 9739TIP3   OH250631   6.697   0.547   3.799  0.3451 -0.3582 -0.2416
 9739TIP3    H150632   6.721   0.548   3.706  0.8313 -0.0691 -0.1174
 9739TIP3    H250633   6.715   0.636   3.830  0.5353 -0.5495  0.2144
 9740TIP3   OH250634   6.726   5.352   2.935 -0.2972  0.1238  0.0774
 9740TIP3    H150635   6.717   5.320   2.845 -0.5358 -0.7636  0.4072
 9740TIP3    H250636   6.734   5.447   2.925 -2.3241  0.2717 -0.7668
 9741TIP3   OH250637   3.993   3.383  14.680 -0.5026 -0.5742  0.0614
 9741TIP3    H150638   4.086   3.394  14.698 -0.3531 -0.6083 -0.6686
 9741TIP3    H250639   3.953   3.465  14.709 -0.1977 -0.4274  0.0707
 9742TIP3   OH250640   2.965   0.774  10.301  0.4683  0.2503 -0.2301
 9742TIP3    H150641   3.057   0.761  10.275  0.1785  1.6521 -2.1786
 9742TIP3    H250642   2.926   0.686  10.294  1.1069  0.0485 -1.9215
 9743TIP3   OH250643   5.387   6.320  15.328 -0.1449 -0.7047 -0.3418
 9743TIP3    H150644   5.479   6.292  15.324 -0.6231 -2.6480  0.8790
 9743TIP3    H250645   5.368   6.329  15.421 -1.2678 -0.6180 -0.5639
 9744TIP3   OH250646   1.145   6.277  15.007 -0.8453  0.7120 -0.0491
 9744TIP3    H150647   1.230   6.249  14.971 -1.0950 -1.9592  1.1626
 9744TIP3    H250648   1.158   6.369  15.029  1.3112  0.7364 -1.1050
 9745TIP3   OH250649   6.192   5.070   4.412  0.0813  0.0893 -0.3267
 9745TIP3    H150650   6.139   5.127   4.469 -0.4993 -1.2787  0.5437
 9745TIP3    H250651   6.191   4.985   4.455  0.7837 -0.6442 -1.6902
 9746TIP3   OH250652   6.448   2.659  13.568 -0.2862  0.4102  0.0764
 9746TIP3    H150653   6.464   2.639  13.660 -0.9703  1.8481  0.5422
 9746TIP3    H250654   6.383   2.595  13.540  1.1059 -1.0688  0.1067
 9747TIP3   OH250655   0.771   4.644   1.932  0.2161 -0.3678 -0.2255
 9747TIP3    H150656   0.832   4.716   1.950 -0.3352 -0.4628  2.5549
 9747TIP3    H250657   0.825   4.565   1.943  0.3931 -0.4295 -1.4278
 9748TIP3   OH250658   2.854   2.324   0.969  0.1076 -0.1273  0.3215
 9748TIP3    H150659   2.912   2.385   1.016  0.9441  0.8678 -1.8753
 9748TIP3    H250660   2.913   2.273   0.914 -1.0218  2.0765 -3.3192
 9749TIP3   OH250661   5.378   4.868   5.538 -0.1972 -0.2965  0.5179
 9749TIP3    H150662   5.412   4.923   5.467  3.0276  0.3890  2.4228
 9749TIP3    H250663   5.342   4.931   5.601 -0.4476 -0.7031  0.7810
 9750TIP3   OH250664   2.321   1.981   1.776  0.0774  0.2539 -0.3596
 9750TIP3    H150665   2.253   2.033   1.819 -0.4735 -1.1730  0.5363
 9750TIP3    H250666   2.394   2.042   1.765 -0.9767  1.5434 -0.4549
 9751TIP3   OH250667   4.706   2.221   1.640 -0.6001 -0.4110 -0.2748
 9751TIP3    H150668   4.764   2.226   1.716 -0.0426 -1.7632 -0.5765
 9751TIP3    H250669   4.618   2.232   1.676 -0.2634  0.2983  0.3699
 9752TIP3   OH250670   5.612   1.062   5.085  0.0289 -0.4585  0.5778
 9752TIP3    H150671   5.652   1.038   5.168 -1.5956 -1.3731  1.1192
 9752TIP3    H250672   5.560   1.140   5.105  0.1941 -0.2566  0.2420
 9753TIP3   OH250673   4.211   0.676   3.693  0.2061 -0.0127 -0.4684
 9753TIP3    H150674   4.185   0.620   3.766  0.7509  1.4074  0.8724
 9753TIP3    H250675   4.188   0.626   3.615 -0.7545 -1.4175  0.6651
 9754TIP3   OH250676   2.349   1.180  16.561 -0.5512  0.4162 -0.8875
 9754TIP3    H150677   2.425   1.125  16.578 -0.0447  1.3293 -0.0322
 9754TIP3    H250678   2.274   1.124  16.580 -0.0395  0.5189  1.8598
 9755TIP3   OH250679   5.571   4.326   0.992 -0.1406 -0.3344  0.6515
 9755TIP3    H150680   5.575   4.290   1.081 -0.1803 -0.1439  0.7307
 9755TIP3    H250681   5.625   4.267   0.940 -0.8812 -0.9869  0.6180
 9756TIP3   OH250682   4.077   2.767   2.012  0.1877 -0.1590 -0.0889
 9756TIP3    H150683   4.086   2.792   1.920 -1.5455 -2.1904 -0.8991
 9756TIP3    H250684   4.136   2.692   2.023 -1.2885 -1.3938 -0.2376
 9757TIP3   OH250685   4.064   6.524  15.188  0.3321  0.2198  0.0824
 9757TIP3    H150686   4.057   6.554  15.278 -3.0388 -0.5511  0.2185
 9757TIP3    H250687   4.031   6.434  15.190  0.2271  0.1605 -1.9133
 9758TIP3   OH250688   4.125   4.793   2.864 -0.2429 -0.0950  0.7895
 9758TIP3    H150689   4.181   4.719   2.888 -0.7829 -0.1722  1.8910
 9758TIP3    H250690   4.076   4.764   2.788  0.7921 -0.2337  0.1563
 9759TIP3   OH250691   6.595   2.953  12.754 -0.2697  0.3880 -0.4304
 9759TIP3    H150692   6.675   2.995  12.787 -0.4065  0.6249 -0.3996
 9759TIP3    H250693   6.576   2.884  12.817 -0.2585  0.5278 -0.2732
 9760TIP3   OH250694   4.633   1.028   2.678  0.3185 -0.2960  0.4060
 9760TIP3    H150695   4.724   1.055   2.671  0.7642 -1.7545  0.2363
 9760TIP3    H250696   4.606   1.006   2.589  0.4975 -1.9043  0.7057
 9761TIP3   OH250697   2.096   3.620  12.264  0.4613 -0.1482 -0.4507
 9761TIP3    H150698   2.179   3.593  12.225  0.8857  2.1629 -1.2890
 9761TIP3    H250699   2.030   3.599  12.199  0.5705 -0.6573 -0.3971
 9762TIP3   OH250700   0.729   5.927  14.692 -0.6490 -0.2170 -0.0261
 9762TIP3    H150701   0.735   5.832  14.683 -1.1220 -0.2458 -0.0401
 9762TIP3    H250702   0.714   5.959  14.603 -1.9966 -0.2492  0.1802
 9763TIP3   OH250703   1.705   4.747   3.319 -0.0258  0.0080 -0.4298
 9763TIP3    H150704   1.657   4.790   3.248 -0.6835  1.4283  0.8137
 9763TIP3    H250705   1.638   4.699   3.367 -0.2504  1.8359  1.1989
 9764TIP3   OH250706   0.685   4.565   2.409 -0.3831  0.5146  0.5973
 9764TIP3    H150707   0.764   4.577   2.356 -0.3626 -0.2022  0.4475
 9764TIP3    H250708   0.652   4.653   2.424  1.3199  0.9579  1.9840
 9765TIP3   OH250709   5.694   2.634   1.134  0.3304 -0.1726  0.1268
 9765TIP3    H150710   5.714   2.579   1.058  0.9765 -0.4123  0.4618
 9765TIP3    H250711   5.635   2.582   1.187 -0.5101  0.1855 -0.4375
 9766TIP3   OH250712   0.258   2.960   2.470 -0.1689  0.1789  0.0370
 9766TIP3    H150713   0.317   2.887   2.451  0.7922  0.3284  2.1229
 9766TIP3    H250714   0.236   2.950   2.563 -2.3280  0.9534 -0.3247
 9767TIP3   OH250715   0.635   0.026  16.200  0.1464 -0.5854  0.0544
 9767TIP3    H150716   0.557  -0.027  16.184 -2.0254  2.6228 -1.0931
 9767TIP3    H250717   0.660   0.007  16.291 -2.9904 -0.5903  1.0172
 9768TIP3   OH250718   2.231   1.660   1.333 -0.0650 -0.5296 -0.4673
 9768TIP3    H150719   2.137   1.667   1.316  0.2888  0.4216 -2.3362
 9768TIP3    H250720   2.247   1.716   1.409 -1.1569 -1.6504  0.6301
 9769TIP3   OH250721   2.981   4.218  12.339  0.0696 -0.2786  0.2658
 9769TIP3    H150722   2.921   4.266  12.282 -0.7013 -1.6464 -0.1066
 9769TIP3    H250723   2.956   4.127  12.330  0.8847 -0.6822  1.6868
 9770TIP3   OH250724   6.331   1.656  14.761 -0.1247 -0.1285 -0.0031
 9770TIP3    H150725   6.390   1.731  14.753  0.4781 -0.5865  0.0793
 9770TIP3    H250726   6.388   1.579  14.754 -0.5596 -0.5875  1.1755
 9771TIP3   OH250727   1.214   4.159  10.726  0.6460  0.2141  0.0830
 9771TIP3    H150728   1.231   4.067  10.749  0.0542 -0.2405 -1.2030
 9771TIP3    H250729   1.301   4.198  10.717  0.9679 -0.7481 -1.3094
 9772TIP3   OH250730   3.223   2.928  17.093 -1.1581  0.5538 -0.2683
 9772TIP3    H150731   3.143   2.939  17.042 -2.0852  0.1430  1.0279
 9772TIP3    H250732   3.258   3.016  17.104  0.4330  0.4855 -3.6045
 9773TIP3   OH250733   3.034   2.089   4.263 -0.1713 -0.0564 -0.2784
 9773TIP3    H150734   2.986   2.057   4.339  0.4902 -0.3465  0.0275
 9773TIP3    H250735   2.970   2.089   4.192 -0.9271  0.6885  0.3863
 9774TIP3   OH250736   0.505   5.319  11.110 -0.1764  0.1481 -0.4526
 9774TIP3    H150737   0.588   5.359  11.087  0.1316 -0.6217 -0.6979
 9774TIP3    H250738   0.469   5.287  11.027 -0.8502  0.7036 -0.3902
 9775TIP3   OH250739   5.417   6.605   6.083 -0.1922 -0.4014  0.4932
 9775TIP3    H150740   5.477   6.653   6.026 -1.8325  2.3456  0.9125
 9775TIP3    H250741   5.468   6.587   6.162  0.3495  1.1378  0.5246
 9776TIP3   OH250742   1.954   5.150   2.902 -0.4179 -0.1230 -0.0073
 9776TIP3    H150743   1.931   5.147   2.995  0.2303 -1.0221  0.1342
 9776TIP3    H250744   2.033   5.203   2.898 -0.8381  0.5142 -0.1483
 9777TIP3   OH250745   4.707   6.395  16.029  0.1082 -0.1068 -0.0086
 9777TIP3    H150746   4.798   6.424  16.031  0.1012 -0.0764 -0.1680
 9777TIP3    H250747   4.683   6.396  15.937  0.1440 -0.7394 -0.0233
 9778TIP3   OH250748   0.806   4.303   5.757  0.3758  0.1268  0.1803
 9778TIP3    H150749   0.754   4.268   5.829  0.0518  1.0601  0.4165
 9778TIP3    H250750   0.794   4.398   5.763  0.6995  0.2424 -0.8352
 9779TIP3   OH250751   1.253   4.650   6.200  0.3048 -0.0203 -0.1280
 9779TIP3    H150752   1.200   4.648   6.280  0.9686  0.1541  0.3223
 9779TIP3    H250753   1.320   4.716   6.217  0.8868 -0.4850 -0.5595
 9780TIP3   OH250754   0.963   2.350   3.204 -0.6472 -0.3713 -0.7600
 9780TIP3    H150755   0.933   2.440   3.209 -0.9334 -0.4954 -0.2062
 9780TIP3    H250756   0.898   2.307   3.148 -1.4502 -0.6021  0.3045
 9781TIP3   OH250757   1.146   0.284   5.141 -0.8087  0.1703 -0.1096
 9781TIP3    H150758   1.094   0.204   5.155 -0.3886  0.1884  1.8640
 9781TIP3    H250759   1.088   0.355   5.167 -0.7150  0.4061 -0.5439
 9782TIP3   OH250760   6.413   2.904   4.149  0.3399  0.4628  0.0506
 9782TIP3    H150761   6.390   2.992   4.179  1.8329  0.7826  0.3203
 9782TIP3    H250762   6.504   2.893   4.175 -0.3913 -2.0022  2.0035
 9783TIP3   OH250763   2.793   1.953  12.844  0.8578  0.0475  0.6073
 9783TIP3    H150764   2.833   2.034  12.877  0.5281 -0.2676  1.8643
 9783TIP3    H250765   2.731   1.928  12.913  0.7150 -1.0966  0.0816
 9784TIP3   OH250766   6.402   6.137  11.380 -0.0324 -0.2303  0.2222
 9784TIP3    H150767   6.374   6.063  11.327 -1.0413 -0.6443  1.2871
 9784TIP3    H250768   6.353   6.211  11.345  1.8849  0.2467 -1.6518
 9785TIP3   OH250769   0.392   4.251  11.579 -0.7405 -0.1811 -0.2273
 9785TIP3    H150770   0.327   4.261  11.649 -0.1655 -2.6866  0.7926
 9785TIP3    H250771   0.339   4.234  11.501 -1.3850  2.4171 -0.4330
 9786TIP3   OH250772   1.142   5.226   3.658  0.0600  0.7476 -1.0609
 9786TIP3    H150773   1.098   5.142   3.674  2.4819 -0.5085 -0.3743
 9786TIP3    H250774   1.170   5.222   3.567  0.1723  0.7981 -1.0294
 9787TIP3   OH250775   0.361   0.962   5.470  0.5878 -0.5963  0.4253
 9787TIP3    H150776   0.303   1.037   5.456 -0.3465 -1.5049 -0.8756
 9787TIP3    H250777   0.336   0.927   5.555 -0.7376 -0.9254 -0.0868
 9788TIP3   OH250778   3.318   3.667  14.661 -0.0202 -0.0101 -0.8598
 9788TIP3    H150779   3.329   3.757  14.628  2.9200 -0.0726 -0.2818
 9788TIP3    H250780   3.281   3.678  14.748 -0.2624  0.5929 -1.0309
 9789TIP3   OH250781   4.175   6.711   1.550 -0.8634 -0.7019 -0.2744
 9789TIP3    H150782   4.216   6.798   1.542 -1.4861 -0.3897 -0.1436
 9789TIP3    H250783   4.211   6.675   1.631  3.1232 -2.6084 -2.6212
 9790TIP3   OH250784   4.031   6.722  13.899 -0.2778  0.1126 -0.2345
 9790TIP3    H150785   3.968   6.790  13.878  0.4530  0.3424 -1.8090
 9790TIP3    H250786   4.006   6.647  13.846  0.1558 -0.1487 -0.0829
 9791TIP3   OH250787   0.357   2.849   3.869 -0.4183 -0.8886 -0.2832
 9791TIP3    H150788   0.367   2.900   3.949  1.1361  1.0368 -1.6201
 9791TIP3    H250789   0.427   2.880   3.811 -1.9890 -1.5639 -2.7103
 9792TIP3   OH250790   4.442   1.135   2.313 -0.0979 -0.2391  0.4677
 9792TIP3    H150791   4.501   1.191   2.365  0.9075 -0.3392 -0.5236
 9792TIP3    H250792   4.431   1.183   2.231  1.1113 -1.6610 -0.5679
 9793TIP3   OH250793   6.507   0.666   4.876 -0.2160 -0.0852 -0.7006
 9793TIP3    H150794   6.578   0.649   4.937  0.6925  3.5197 -0.4909
 9793TIP3    H250795   6.546   0.658   4.789 -0.3156 -0.7931 -0.6856
 9794TIP3   OH250796   6.682   5.135  13.432 -0.0271  0.8052  0.3467
 9794TIP3    H150797   6.733   5.216  13.433  1.2477  0.0220 -0.3165
 9794TIP3    H250798   6.603   5.158  13.382  0.9854  1.2724 -1.1136
 9795TIP3   OH250799   6.025   2.859   3.338 -0.2188  0.0750  0.2594
 9795TIP3    H150800   5.974   2.783   3.366 -0.2255 -0.8069 -1.9809
 9795TIP3    H250801   5.964   2.933   3.344 -0.2809 -0.0869  2.2334
 9796TIP3   OH250802   3.310   2.471  15.781 -0.0437 -1.3170 -0.5909
 9796TIP3    H150803   3.340   2.415  15.853  2.3816 -0.0791 -0.5356
 9796TIP3    H250804   3.292   2.555  15.822 -1.1983 -1.3059 -1.0724
 9797TIP3   OH250805   3.866   0.913  17.090  0.3023  0.4030  0.0311
 9797TIP3    H150806   3.951   0.888  17.054  0.6378  2.2463 -0.5453
 9797TIP3    H250807   3.803   0.859  17.042  1.0993 -0.7858  0.2719
 9798TIP3   OH250808   3.354   2.342   1.166 -0.0221  0.6229  0.0197
 9798TIP3    H150809   3.316   2.336   1.254 -1.5680  1.7636 -0.5070
 9798TIP3    H250810   3.311   2.273   1.117  1.1728 -0.3054  0.2381
 9799TIP3   OH250811   6.010   6.561  12.768  0.2562  0.2520  0.0972
 9799TIP3    H150812   5.994   6.466  12.764  3.0429 -0.3129  0.3589
 9799TIP3    H250813   5.958   6.590  12.843  0.3394 -1.3342  0.8338
 9800TIP3   OH250814   4.196   2.172   4.064 -0.1769 -0.7743  0.0249
 9800TIP3    H150815   4.264   2.213   4.116 -0.6763 -1.2879  1.1216
 9800TIP3    H250816   4.169   2.240   4.001 -0.3235  0.2555  1.1595
 9801TIP3   OH250817   5.918   3.610   1.172  0.5644  0.0832 -0.2001
 9801TIP3    H150818   5.877   3.524   1.184 -1.0967  0.9709  0.8746
 9801TIP3    H250819   5.844   3.671   1.165  1.7138  1.5683  0.2133
 9802TIP3   OH250820   0.844   6.010   4.491 -0.1158 -0.1148  0.1371
 9802TIP3    H150821   0.781   6.063   4.541  0.1585 -0.0628  0.4280
 9802TIP3    H250822   0.817   6.022   4.400 -1.0549 -0.7720  0.3124
 9803TIP3   OH250823   3.561   3.847   0.437  0.1144 -0.3497 -0.0641
 9803TIP3    H150824   3.551   3.942   0.437 -1.7897 -0.4988  0.1441
 9803TIP3    H250825   3.524   3.819   0.354 -0.3585 -0.9713  0.3445
 9804TIP3   OH250826   4.053   3.508  13.084  0.9472 -0.1083  0.3930
 9804TIP3    H150827   4.104   3.471  13.156  0.3608  0.1635  0.9652
 9804TIP3    H250828   4.013   3.587  13.122 -0.0309 -0.4167  0.0181
 9805TIP3   OH250829   1.096   4.148   4.822  0.3026 -0.1874 -0.5173
 9805TIP3    H150830   1.124   4.073   4.769 -1.4303 -0.6759 -0.8118
 9805TIP3    H250831   1.020   4.183   4.776 -0.8251 -0.1853  1.2531
 9806TIP3   OH250832   4.467   2.341  17.121 -0.2816  0.3049 -0.2756
 9806TIP3    H150833   4.520   2.391  17.183 -1.0424  0.6646  0.1039
 9806TIP3    H250834   4.385   2.390  17.114 -0.6985 -0.4109 -0.5856
 9807TIP3   OH250835   1.511   3.775  17.184 -0.0667  0.0075 -0.2644
 9807TIP3    H150836   1.489   3.764  17.277  0.5590  0.3544 -0.0704
 9807TIP3    H250837   1.532   3.868  17.175  0.5599 -0.1595 -0.6010
 9808TIP3   OH250838   4.983   0.990  14.316  0.2828  0.4915  0.0958
 9808TIP3    H150839   4.963   1.029  14.230  0.8722  4.5208  1.5836
 9808TIP3    H250840   4.912   0.927  14.330 -2.2121  2.6587 -1.6521
 9809TIP3   OH250841   3.981   2.048   1.676 -0.0000 -0.3537  1.0548
 9809TIP3    H150842   3.892   2.018   1.660 -0.4558 -0.0589  2.7836
 9809TIP3    H250843   3.971   2.121   1.738  1.4118 -0.0260  0.9374
 9810TIP3   OH250844   5.560   4.384   3.515 -0.3363  0.0421  0.4428
 9810TIP3    H150845   5.620   4.455   3.495 -0.7625  0.2885 -0.0119
 9810TIP3    H250846   5.483   4.427   3.552 -0.0292 -0.3181  1.5360
 9811TIP3   OH250847   0.515   1.232   1.430  0.0604  0.0106  0.2666
 9811TIP3    H150848   0.529   1.272   1.516  0.6404 -0.4965  0.4129
 9811TIP3    H250849   0.454   1.160   1.446 -0.1460  0.1666  0.1844
 9812TIP3   OH250850   6.247   0.964  14.177 -0.1291 -0.1992 -0.4112
 9812TIP3    H150851   6.155   0.965  14.205  0.4675 -0.5078  1.7319
 9812TIP3    H250852   6.260   0.875  14.143 -0.7660  0.0529 -1.3712
 9813TIP3   OH250853   3.180   5.316   1.037  0.1534 -0.6584 -0.0752
 9813TIP3    H150854   3.132   5.262   1.100  0.9296 -1.8834 -0.5058
 9813TIP3    H250855   3.117   5.334   0.968  0.6358 -3.5404 -1.3983
 9814TIP3   OH250856   2.704   3.165  14.130 -0.1950  0.2887  0.3925
 9814TIP3    H150857   2.701   3.159  14.035 -2.0727  1.2041  0.3490
 9814TIP3    H250858   2.642   3.098  14.160 -0.3018  0.6230  0.9295
 9815TIP3   OH250859   0.147   1.207  12.892 -0.1577 -0.5646  0.1161
 9815TIP3    H150860   0.148   1.115  12.863  0.2942 -0.3978 -0.4363
 9815TIP3    H250861   0.239   1.226  12.912 -0.4794 -0.7125  1.8555
 9816TIP3   OH250862   5.238   1.541  16.166 -0.1244 -0.2162  0.2270
 9816TIP3    H150863   5.318   1.561  16.215 -0.7372  0.7613  0.8650
 9816TIP3    H250864   5.171   1.527  16.233 -1.1746  1.9669 -0.2802
 9817TIP3   OH250865   1.128   5.939   4.724  0.1543  0.2950  0.1770
 9817TIP3    H150866   1.083   5.995   4.788  0.6821 -1.0952  1.8263
 9817TIP3    H250867   1.212   5.919   4.764 -0.4286 -2.5578  0.1660
 9818TIP3   OH250868   4.570   3.965  15.181 -0.0528 -0.3783  0.0494
 9818TIP3    H150869   4.586   3.883  15.228 -1.6397 -0.1768  1.0133
 9818TIP3    H250870   4.475   3.970  15.174 -0.0108  1.5567  0.3490
 9819TIP3   OH250871   0.255   0.369  14.563 -0.2737 -0.5489  0.6421
 9819TIP3    H150872   0.336   0.411  14.590  0.0579 -1.0872  0.4949
 9819TIP3    H250873   0.281   0.281  14.535 -0.6683 -0.1905 -0.9512
 9820TIP3   OH250874   5.244   4.403  12.952  0.1146  0.0939  0.4806
 9820TIP3    H150875   5.169   4.434  12.901  0.7414  0.7680 -0.0529
 9820TIP3    H250876   5.205   4.365  13.031 -0.9103 -1.2852 -0.6251
 9821TIP3   OH250877   5.463   2.382  12.947 -0.7217 -0.2120 -0.2693
 9821TIP3    H150878   5.494   2.293  12.931  0.7404  0.1491  0.3530
 9821TIP3    H250879   5.468   2.425  12.862  2.4768  0.3694  0.0656
 9822TIP3   OH250880   1.671   4.583  14.145  0.1272  0.0215 -0.0830
 9822TIP3    H150881   1.671   4.598  14.240 -1.2233  3.3154 -0.4721
 9822TIP3    H250882   1.751   4.625  14.114 -0.5277  0.9281 -0.5929
 9823TIP3   OH250883   2.975   4.952  11.848  0.4300 -0.8097  0.1870
 9823TIP3    H150884   3.045   4.999  11.893  0.9960 -0.1300 -1.3389
 9823TIP3    H250885   3.020   4.889  11.792 -0.2982 -2.5034  1.4550
 9824TIP3   OH250886   5.931   0.431  12.621 -0.7184  0.0632  0.0681
 9824TIP3    H150887   6.021   0.463  12.626 -1.2246  1.5568  0.0602
 9824TIP3    H250888   5.879   0.500  12.662 -1.7434 -1.3615  1.2380
 9825TIP3   OH250889   1.551   4.845   3.790 -0.2120  0.5423  0.2530
 9825TIP3    H150890   1.597   4.838   3.874 -2.5401  0.1791  1.5915
 9825TIP3    H250891   1.498   4.925   3.799  1.4907  2.0304 -1.9898
 9826TIP3   OH250892   5.307   0.164  16.524 -0.2590  0.2571 -0.1296
 9826TIP3    H150893   5.338   0.075  16.507  0.2915 -0.0988  2.3479
 9826TIP3    H250894   5.213   0.153  16.538 -0.2342  0.0923 -0.0793
 9827TIP3   OH250895   1.553   2.114  12.415 -0.9427 -0.5286  0.2499
 9827TIP3    H150896   1.519   2.083  12.331 -1.2635 -2.4384  1.0293
 9827TIP3    H250897   1.629   2.167  12.392 -0.6774 -1.4929 -1.2235
 9828TIP3   OH250898   0.230   0.863  15.869  0.0349  0.1021  0.2335
 9828TIP3    H150899   0.202   0.831  15.955  0.2333 -1.8906 -0.3949
 9828TIP3    H250900   0.148   0.879  15.822 -0.0690  0.7771  0.6307
 9829TIP3   OH250901   2.047   2.963  13.237  0.0637 -0.2400 -0.3814
 9829TIP3    H150902   2.023   2.882  13.192  0.0032  0.6139 -1.9651
 9829TIP3    H250903   2.025   2.947  13.329 -0.1388 -1.9306 -0.6971
 9830TIP3   OH250904   5.158   4.568  12.391 -0.5052  0.2600 -0.5140
 9830TIP3    H150905   5.212   4.644  12.369  1.0643 -0.0358  1.8859
 9830TIP3    H250906   5.113   4.592  12.472 -2.5703 -0.2092 -1.4804
 9831TIP3   OH250907   4.819   1.314   0.407 -0.1970  0.3342  0.1272
 9831TIP3    H150908   4.863   1.235   0.436 -0.3940  0.5289  0.9785
 9831TIP3    H250909   4.888   1.366   0.365 -0.1548 -0.4516 -0.7918
 9832TIP3   OH250910   1.600   2.303  15.105 -0.2696  0.5002 -0.1808
 9832TIP3    H150911   1.694   2.308  15.121 -0.5174  0.7460  1.3321
 9832TIP3    H250912   1.580   2.209  15.111 -0.0016  0.3679 -1.2892
 9833TIP3   OH250913   4.861   0.002  15.898 -0.1731 -0.2975  0.1235
 9833TIP3    H150914   4.866   0.081  15.952  0.3002 -2.6944  3.9588
 9833TIP3    H250915   4.950  -0.012  15.867  0.3926 -0.7376  1.8233
 9834TIP3   OH250916   0.435   0.996  11.655  0.1154  0.1112 -0.1373
 9834TIP3    H150917   0.437   1.048  11.735  1.8442  0.2270 -0.2078
 9834TIP3    H250918   0.371   1.041  11.599  0.2831  1.1438  0.4663
 9835TIP3   OH250919   6.630   3.831   0.076 -0.1953  0.0640 -0.6743
 9835TIP3    H150920   6.575   3.879   0.015 -0.1704 -0.0755 -0.8078
 9835TIP3    H250921   6.661   3.897   0.138  1.3972  0.5992 -1.9690
 9836TIP3   OH250922   6.493   2.498   3.197 -0.1646  0.4189 -0.0121
 9836TIP3    H150923   6.569   2.554   3.210  1.4615 -1.9074  1.2051
 9836TIP3    H250924   6.445   2.503   3.280  0.8906 -1.1634  0.7476
 9837TIP3   OH250925   2.387   1.119   5.283  0.1734  0.9809  0.3702
 9837TIP3    H150926   2.463   1.067   5.307 -1.9737 -2.5309  0.1716
 9837TIP3    H250927   2.335   1.125   5.363 -0.2076  1.8128  0.0772
 9838TIP3   OH250928   0.006   4.950   3.066 -0.6325 -0.0674  0.2107
 9838TIP3    H150929   0.064   4.971   2.993 -2.1248 -0.6374 -1.1969
 9838TIP3    H250930  -0.027   5.034   3.096  1.2797  0.3133  1.3852
 9839TIP3   OH250931   3.014   3.394   5.881 -0.1286 -0.8155 -0.3178
 9839TIP3    H150932   3.013   3.301   5.856 -0.0116 -0.7958 -0.3947
 9839TIP3    H250933   3.086   3.432   5.830  1.9025 -1.3109  2.0273
 9840TIP3   OH250934   3.360   5.720   4.952 -0.2307  0.3989 -0.2291
 9840TIP3    H150935   3.366   5.766   4.868  0.6627 -0.6687 -0.7791
 9840TIP3    H250936   3.267   5.697   4.960 -0.0371 -1.2528 -1.9322
 9841TIP3   OH250937   5.459   5.344   5.253 -0.0909  0.4490  0.5589
 9841TIP3    H150938   5.516   5.305   5.186 -1.5227 -0.4679 -0.1850
 9841TIP3    H250939   5.517   5.400   5.304  1.2943  0.2409 -0.7071
 9842TIP3   OH250940   2.470   1.807  12.944 -0.1758  0.3298 -0.3045
 9842TIP3    H150941   2.557   1.792  12.983  1.2960  2.5330 -2.4325
 9842TIP3    H250942   2.457   1.732  12.886  0.5273  0.1946 -0.3011
 9843TIP3   OH250943   3.204   3.864   2.636 -0.2803  0.2896 -0.1321
 9843TIP3    H150944   3.202   3.771   2.614 -0.4297  0.0189  0.9708
 9843TIP3    H250945   3.118   3.897   2.609 -0.2126  0.1222 -0.5597
 9844TIP3   OH250946   6.298   2.110  12.458 -0.6575 -0.2736  0.1893
 9844TIP3    H150947   6.327   2.117  12.367  0.5701  1.1912  0.6600
 9844TIP3    H250948   6.209   2.145  12.457 -0.8744 -0.8105 -0.5353
 9845TIP3   OH250949   6.189   3.570  14.904 -0.1659 -0.2184  0.0516
 9845TIP3    H150950   6.150   3.538  14.823 -0.4348  1.5257 -0.5526
 9845TIP3    H250951   6.124   3.629  14.941  1.2989  1.7205 -0.2902
 9846TIP3   OH250952   4.816   1.790  13.886  0.4446  0.0448 -0.0425
 9846TIP3    H150953   4.729   1.755  13.903  1.1950 -2.0458 -0.2058
 9846TIP3    H250954   4.875   1.716  13.900  1.7626 -0.1308 -4.7637
 9847TIP3   OH250955   6.534   4.131   3.955  0.1003 -0.2295  0.5189
 9847TIP3    H150956   6.572   4.216   3.980 -0.9653 -0.2136  2.1988
 9847TIP3    H250957   6.598   4.094   3.894  0.3509  1.9984 -0.6990
 9848TIP3   OH250958   5.659   4.743  15.631 -0.1090 -0.6140 -0.1866
 9848TIP3    H150959   5.642   4.733  15.725 -0.6146  2.0436  0.0821
 9848TIP3    H250960   5.585   4.794  15.599  0.2301 -1.1884 -1.9824
 9849TIP3   OH250961   0.285   1.936   3.998 -1.1377 -0.0820 -0.0579
 9849TIP3    H150962   0.237   1.867   3.952 -1.1501 -0.1659  0.0808
 9849TIP3    H250963   0.322   1.892   4.075 -1.1756  0.0741  0.0493
 9850TIP3   OH250964   2.126   1.481  14.096 -0.5233 -0.2568  0.3857
 9850TIP3    H150965   2.116   1.467  14.190 -0.9766  0.6376  0.4829
 9850TIP3    H250966   2.149   1.395  14.061  3.0205 -0.0228  1.7274
 9851TIP3   OH250967   3.414   0.053  13.766  0.2815 -0.5262  0.3298
 9851TIP3    H150968   3.346   0.075  13.702 -1.1122 -1.2986  1.4866
 9851TIP3    H250969   3.464   0.134  13.776 -1.5428  0.6110  0.6892
 9852TIP3   OH250970   4.249   2.781   3.366 -0.1396  0.4653  0.0918
 9852TIP3    H150971   4.280   2.854   3.419 -0.0607  0.5796 -0.1115
 9852TIP3    H250972   4.154   2.794   3.360 -0.4459 -0.5960  1.8093
 9853TIP3   OH250973   2.733   3.327   2.211  0.1141  0.2233 -0.0136
 9853TIP3    H150974   2.801   3.342   2.145  0.1254  1.3977  0.2423
 9853TIP3    H250975   2.741   3.402   2.270 -1.9801  0.8573 -0.4567
 9854TIP3   OH250976   0.120   5.675   1.719  0.3658 -0.3576 -0.1453
 9854TIP3    H150977   0.207   5.685   1.758  0.4351  0.8723 -0.5909
 9854TIP3    H250978   0.060   5.686   1.793  0.5542 -0.4015  0.0176
 9855TIP3   OH250979   1.145   0.972  12.434  0.3601  0.2179 -0.1983
 9855TIP3    H150980   1.240   0.957  12.437  0.4559  0.8657  0.0936
 9855TIP3    H250981   1.118   0.975  12.525  0.1835  0.7812 -0.2633
 9856TIP3   OH250982   1.623   1.031   3.287 -0.3970  0.0509  0.0804
 9856TIP3    H150983   1.575   1.073   3.216 -0.2512 -0.7187 -0.4855
 9856TIP3    H250984   1.714   1.030   3.258 -0.5603 -1.7580 -0.5048
 9857TIP3   OH250985   4.935   4.683  14.505  0.0597 -0.0304 -0.3751
 9857TIP3    H150986   5.030   4.668  14.502  0.3359  1.5127 -0.1150
 9857TIP3    H250987   4.897   4.603  14.469  1.4991 -0.2594 -1.4688
 9858TIP3   OH250988   1.860   2.685   2.611  0.4138  0.1521 -0.1602
 9858TIP3    H150989   1.954   2.677   2.593  0.2446 -1.6340 -0.4508
 9858TIP3    H250990   1.818   2.675   2.526 -0.0884 -0.5931  0.1587
 9859TIP3   OH250991   2.024   3.357   3.577 -0.3333  0.1289 -0.3465
 9859TIP3    H150992   1.987   3.394   3.657 -0.6642  1.3217 -1.0316
 9859TIP3    H250993   2.076   3.282   3.607 -0.4278  0.5711  0.9725
 9860TIP3   OH250994   1.445   6.449  15.167  0.0138 -0.1693 -0.2692
 9860TIP3    H150995   1.524   6.396  15.172  0.5052  0.5155 -0.6198
 9860TIP3    H250996   1.431   6.462  15.073  0.6798  1.4523 -0.1671
 9861TIP3   OH250997   2.908   1.589   2.434  0.6123  0.5211 -0.1394
 9861TIP3    H150998   2.866   1.628   2.357 -0.3849  0.2902  0.2747
 9861TIP3    H250999   2.836   1.572   2.495  1.3237  0.2055  0.6353
 9862TIP3   OH251000   1.703   1.467   5.233 -0.1472  0.0256 -0.0443
 9862TIP3    H151001   1.770   1.475   5.301  0.3504 -1.2276 -0.3537
 9862TIP3    H251002   1.623   1.499   5.274 -0.0133 -1.3456  1.3916
 9863TIP3   OH251003   3.913   3.497  12.304 -0.5432  0.6425 -0.7208
 9863TIP3    H151004   3.826   3.515  12.340 -0.0796  0.2438  0.7002
 9863TIP3    H251005   3.972   3.510  12.379  0.5013 -0.1376 -1.3817
 9864TIP3   OH251006   0.267   5.277   2.707 -0.3307  0.2472 -0.1544
 9864TIP3    H151007   0.353   5.310   2.682 -0.6788  2.9107  1.6357
 9864TIP3    H251008   0.283   5.226   2.786 -0.2407 -0.5363 -0.6739
 9865TIP3   OH251009   3.921   2.302  10.901  0.3056  0.2709  0.6418
 9865TIP3    H151010   4.003   2.327  10.857 -1.7847 -0.8792 -4.5959
 9865TIP3    H251011   3.929   2.208  10.915 -0.0333  0.1934  0.3180
 9866TIP3   OH251012   6.538   3.887   5.382  1.0636  0.4393  0.5484
 9866TIP3    H151013   6.580   3.811   5.424 -0.0626 -0.7063 -0.3079
 9866TIP3    H251014   6.610   3.936   5.343  1.6859 -1.3641 -0.7169
 9867TIP3   OH251015   5.727   3.478   0.803 -0.1315 -0.3999 -0.1058
 9867TIP3    H151016   5.804   3.429   0.833 -0.2563 -0.0503  0.8215
 9867TIP3    H251017   5.654   3.417   0.815 -0.0866 -0.5200 -0.4205
 9868TIP3   OH251018   0.931   3.055   5.688  0.5842 -0.2494 -0.3496
 9868TIP3    H151019   0.967   3.079   5.774 -0.7813  0.0313  0.1610
 9868TIP3    H251020   0.887   2.972   5.703  0.5414 -0.3175 -0.8472
 9869TIP3   OH251021   6.759   4.237  11.908  0.0769 -0.1791 -0.6732
 9869TIP3    H151022   6.830   4.289  11.871  1.5922 -1.2982  0.5281
 9869TIP3    H251023   6.743   4.275  11.994  0.2145 -0.8223 -0.3594
 9870TIP3   OH251024   6.072   3.520   3.158  0.0008  0.0194 -0.4260
 9870TIP3    H151025   6.000   3.464   3.129  1.3434 -2.0980  0.1413
 9870TIP3    H251026   6.035   3.573   3.228 -0.9764 -1.2268  0.0400
 9871TIP3   OH251027   2.889   1.802  11.690 -0.0562  0.1960  0.4047
 9871TIP3    H151028   2.860   1.862  11.621 -0.0011 -1.7395 -1.4024
 9871TIP3    H251029   2.978   1.779  11.666 -0.0273 -0.5046  1.1538
 9872TIP3   OH251030   1.316   2.962   1.660  0.4501 -0.0269  0.5827
 9872TIP3    H151031   1.245   3.012   1.701 -0.0581 -0.0849 -0.2101
 9872TIP3    H251032   1.271   2.899   1.603  1.1424  1.2123 -1.4291
 9873TIP3   OH251033   2.438   2.131  13.893 -0.2053  0.0279 -0.5896
 9873TIP3    H151034   2.369   2.162  13.834 -0.8858 -0.8557 -0.2781
 9873TIP3    H251035   2.505   2.096  13.835 -1.5660 -2.3055 -0.8720
 9874TIP3   OH251036   3.298   0.746  15.831  0.3585  0.2109  0.1352
 9874TIP3    H151037   3.367   0.747  15.765  1.0370  1.1314  0.8271
 9874TIP3    H251038   3.236   0.813  15.801 -0.2025 -0.5540 -0.4395
 9875TIP3   OH251039   5.659   5.226   0.618  0.6184 -0.1627 -0.0421
 9875TIP3    H151040   5.637   5.281   0.693 -0.5692 -1.1497  0.3696
 9875TIP3    H251041   5.741   5.263   0.584  0.2764  1.3528  0.6855
 9876TIP3   OH251042   1.052   6.125   2.329 -0.3111 -0.5092 -0.0310
 9876TIP3    H151043   1.132   6.110   2.379 -0.1761 -0.8874 -0.3554
 9876TIP3    H251044   0.991   6.057   2.360 -0.7905  0.2705  0.7951
 9877TIP3   OH251045   4.075   6.267  14.006  0.0242  0.4506 -0.4513
 9877TIP3    H151046   4.144   6.309  13.955 -2.2747  1.6458 -2.8766
 9877TIP3    H251047   4.006   6.333  14.012 -1.2460 -0.9291  1.1528
 9878TIP3   OH251048   2.405   4.347  16.921  0.0805 -0.5259  0.3295
 9878TIP3    H151049   2.366   4.354  16.833 -0.0090  2.6463  0.4913
 9878TIP3    H251050   2.335   4.375  16.980  0.3142 -2.0982  1.4062
 9879TIP3   OH251051   5.223   4.778  15.698  0.1793 -0.0103  0.0296
 9879TIP3    H151052   5.240   4.742  15.611 -3.1633  0.2326 -0.8702
 9879TIP3    H251053   5.193   4.867  15.682  2.2103  1.0915  1.7563
 9880TIP3   OH251054   2.441   5.070   4.486  0.0402  0.6525  0.3524
 9880TIP3    H151055   2.439   5.128   4.410 -1.1984  0.5408  0.2719
 9880TIP3    H251056   2.522   5.021   4.477  0.4523  1.4283 -0.2936
 9881TIP3   OH251057   5.743   0.019   6.207  0.1379  0.4904  0.3452
 9881TIP3    H151058   5.753  -0.073   6.183 -1.1392  0.5805 -0.5790
 9881TIP3    H251059   5.729   0.018   6.302  1.6779 -0.1269  0.5967
 9882TIP3   OH251060   5.730   2.451   0.473 -0.3509  0.0489 -0.3681
 9882TIP3    H151061   5.679   2.422   0.549  1.6386 -0.9552  0.6584
 9882TIP3    H251062   5.737   2.546   0.484 -1.5148  0.1347 -0.2533
 9883TIP3   OH251063   1.891   0.317   5.233 -0.0739  0.3126  0.0586
 9883TIP3    H151064   1.889   0.255   5.306 -1.3710  0.7310  0.3966
 9883TIP3    H251065   1.864   0.400   5.271 -0.5910  0.5792 -0.8585
 9884TIP3   OH251066   0.758   5.750  15.002  0.1455 -0.2330  0.0675
 9884TIP3    H151067   0.707   5.826  15.031 -1.1027 -1.5803  1.6704
 9884TIP3    H251068   0.697   5.699  14.949  1.2809  0.3293 -1.8601
 9885TIP3   OH251069   6.328   2.264   6.247 -0.8088 -0.3371  0.1769
 9885TIP3    H151070   6.325   2.242   6.154  2.1673 -0.8208  0.0878
 9885TIP3    H251071   6.320   2.180   6.292  0.2738 -0.4347  0.2203
 9886TIP3   OH251072   2.270   2.711   3.177 -0.0650 -0.3530  0.0992
 9886TIP3    H151073   2.249   2.709   3.084 -0.1034  3.3017 -0.1179
 9886TIP3    H251074   2.351   2.763   3.183 -0.6072  0.3715  2.1267
 9887TIP3   OH251075   2.239   1.310  14.959  0.0248 -0.3255  0.3055
 9887TIP3    H151076   2.172   1.327  14.892  0.2340 -0.5646  0.0303
 9887TIP3    H251077   2.194   1.324  15.042 -0.1485  0.3220  0.1105
 9888TIP3   OH251078   1.987   2.636   3.840  0.1889 -0.2674 -0.2692
 9888TIP3    H151079   1.991   2.612   3.932 -1.4236  0.9716  0.1591
 9888TIP3    H251080   1.981   2.731   3.840  0.3176 -0.2398 -1.6607
 9889TIP3   OH251081   4.978   1.873  17.094 -0.2300  0.1329  0.7027
 9889TIP3    H151082   4.899   1.857  17.146 -0.7377  0.1808 -0.0424
 9889TIP3    H251083   4.987   1.794  17.040 -0.2739  0.5063  0.1463
 9890TIP3   OH251084   4.020   2.514   0.354  0.3476  0.1817  0.0220
 9890TIP3    H151085   3.949   2.522   0.417 -0.6164  2.6861 -1.2343
 9890TIP3    H251086   4.001   2.581   0.288  1.9047 -1.5164 -2.3355
 9891TIP3   OH251087   6.594   0.488  11.929  0.8301 -0.0195 -0.0984
 9891TIP3    H151088   6.665   0.467  11.989  0.4425 -3.5024 -0.6557
 9891TIP3    H251089   6.638   0.513  11.848  1.3721  0.7869  0.4378
 9892TIP3   OH251090   5.978   4.027  13.138 -0.0475 -0.0967 -0.4490
 9892TIP3    H151091   5.915   4.040  13.209 -1.9585  1.2350 -2.2549
 9892TIP3    H251092   5.982   3.932  13.127 -0.7602 -0.2577  0.5383
 9893TIP3   OH251093   3.932   3.492   1.308 -1.1208  0.4046  0.3943
 9893TIP3    H151094   3.898   3.402   1.306 -2.2527  0.8260 -0.7884
 9893TIP3    H251095   4.027   3.481   1.309 -1.2413 -0.8088  0.6245
 9894TIP3   OH251096   4.186   0.614   4.945  0.1239 -0.7635  0.1905
 9894TIP3    H151097   4.124   0.664   4.998  0.2342  0.4197 -0.7611
 9894TIP3    H251098   4.151   0.618   4.857  0.4477 -1.9050 -0.0029
 9895TIP3   OH251099   5.362   1.457   5.368 -0.0621 -0.0858  0.5803
 9895TIP3    H151100   5.377   1.528   5.431  0.6526 -0.1086  0.4414
 9895TIP3    H251101   5.362   1.501   5.283 -2.2311  0.1365  0.6274
 9896TIP3   OH251102   0.253   5.292   4.453 -0.0423 -0.3801  0.0758
 9896TIP3    H151103   0.336   5.274   4.497 -0.3482 -2.6550 -0.1690
 9896TIP3    H251104   0.188   5.246   4.505 -1.1641  1.1807  0.1259
 9897TIP3   OH251105   3.314   4.792   5.272 -0.3201 -0.3999  0.6362
 9897TIP3    H151106   3.246   4.742   5.317 -0.1911  0.8270  2.3005
 9897TIP3    H251107   3.394   4.773   5.320  0.1604 -0.3679 -0.1348
 9898TIP3   OH251108   4.230   5.378   3.542  0.0319  0.1814 -0.4448
 9898TIP3    H151109   4.151   5.331   3.513 -0.9791  1.2023  0.5409
 9898TIP3    H251110   4.196   5.454   3.590  1.6320  0.7811 -0.2152
 9899TIP3   OH251111   2.953   2.956   0.179  0.0594  0.3592 -0.4970
 9899TIP3    H151112   2.984   2.943   0.268  0.7468  0.6190 -0.6935
 9899TIP3    H251113   2.992   3.039   0.151 -0.5280  0.5189 -0.8766
 9900TIP3   OH251114   2.879   5.476   4.338 -0.1002  0.0091 -0.5426
 9900TIP3    H151115   2.923   5.542   4.285  0.3413 -0.0998 -0.3138
 9900TIP3    H251116   2.893   5.394   4.291 -1.4826  0.2057 -1.3442
 9901TIP3   OH251117   2.183   2.989  15.730  0.2207  0.7760 -0.2707
 9901TIP3    H151118   2.241   2.917  15.707  0.1613  0.6367  0.0043
 9901TIP3    H251119   2.112   2.986  15.666  1.2265  1.8219 -1.4999
 9902TIP3   OH251120   3.934   0.684   0.797  0.3159 -0.4231 -0.2581
 9902TIP3    H151121   3.996   0.660   0.728 -0.2968 -0.6807 -0.7320
 9902TIP3    H251122   3.927   0.605   0.851 -0.3741 -0.7497 -0.8065
 9903TIP3   OH251123   5.180   3.275  15.643  0.0120 -0.1288 -0.0893
 9903TIP3    H151124   5.147   3.185  15.651 -1.6231  0.4810  0.5127
 9903TIP3    H251125   5.258   3.267  15.589 -1.3527 -1.6636 -2.0033
 9904TIP3   OH251126   4.144   4.857  14.718 -0.6407 -0.4406  0.1254
 9904TIP3    H151127   4.082   4.785  14.708 -0.6035 -0.5073  0.3710
 9904TIP3    H251128   4.196   4.835  14.795  0.8408 -1.2214 -1.0351
 9905TIP3   OH251129   4.207   2.141   2.014 -0.4999  0.2267 -0.0624
 9905TIP3    H151130   4.284   2.104   2.058  0.8204  3.7452  0.8985
 9905TIP3    H251131   4.153   2.175   2.085 -2.3428 -0.9534 -0.8199
 9906TIP3   OH251132   5.257   4.238   2.295 -0.4972  0.2284  0.2028
 9906TIP3    H151133   5.316   4.173   2.332 -0.0688 -0.1616 -1.0830
 9906TIP3    H251134   5.307   4.276   2.222 -1.6043  0.3285 -0.5309
 9907TIP3   OH251135   3.632   6.096   6.172  0.1104 -0.0978 -0.0536
 9907TIP3    H151136   3.628   6.075   6.266 -1.0072 -0.8853 -0.2517
 9907TIP3    H251137   3.543   6.080   6.141  0.1596  1.3671 -1.0048
 9908TIP3   OH251138   4.636   6.508  11.515  0.4311 -0.2223  0.3725
 9908TIP3    H151139   4.650   6.589  11.466  2.5610 -0.0771  1.1162
 9908TIP3    H251140   4.649   6.438  11.450  0.9238 -0.0012  0.2294
 9909TIP3   OH251141   2.949   4.902   0.396 -0.1274 -0.5531  0.6333
 9909TIP3    H151142   2.981   4.964   0.331 -0.1661  0.3787  1.4738
 9909TIP3    H251143   2.877   4.948   0.440  0.5708 -0.7244  2.0292
 9910TIP3   OH251144   4.623   5.021   3.252 -0.5830  0.6635  0.1049
 9910TIP3    H151145   4.572   5.024   3.171  0.9824 -2.1906 -1.1398
 9910TIP3    H251146   4.713   5.037   3.225 -0.3558  2.9238  1.8642
 9911TIP3   OH251147   2.011   6.097  14.531  0.0272  0.6621  0.1138
 9911TIP3    H151148   2.013   6.002  14.528 -2.8790  0.5369 -0.5622
 9911TIP3    H251149   2.012   6.118  14.625  1.6555  0.0759  0.2619
 9912TIP3   OH251150   6.642   5.886   0.592  0.1199  0.8096  0.0662
 9912TIP3    H151151   6.562   5.937   0.576  0.6946  1.5019 -0.7239
 9912TIP3    H251152   6.705   5.921   0.529  0.8098 -0.2783  0.1252
 9913TIP3   OH251153   3.466   5.273   4.213 -0.5267  0.8293  0.1784
 9913TIP3    H151154   3.459   5.251   4.120 -0.4191 -1.0397  0.5632
 9913TIP3    H251155   3.496   5.364   4.215  0.3589  0.6153 -1.6199
 9914TIP3   OH251156   6.616   1.482   2.946 -0.3045  0.6102 -0.1866
 9914TIP3    H151157   6.559   1.416   2.986  1.0895 -0.4883  0.0655
 9914TIP3    H251158   6.640   1.540   3.019  2.3361 -1.4643  0.7403
 9915TIP3   OH251159   3.983   6.760  15.736 -0.4834  0.8713 -0.2757
 9915TIP3    H151160   3.950   6.720  15.655  1.7805 -0.2699 -0.7148
 9915TIP3    H251161   3.941   6.710  15.806  1.4152 -1.7074 -0.8148
 9916TIP3   OH251162   0.682   5.466  10.981  0.6493 -0.0103  0.8072
 9916TIP3    H151163   0.774   5.445  10.998  0.7638 -0.5561 -0.3709
 9916TIP3    H251164   0.674   5.464  10.886 -0.2513  1.5425  0.8118
 9917TIP3   OH251165   0.339   0.370   3.799  0.2794  0.5068 -0.4951
 9917TIP3    H151166   0.304   0.322   3.724  0.3217  1.5423 -1.2004
 9917TIP3    H251167   0.298   0.457   3.793  0.0322  0.5079  0.8679
 9918TIP3   OH251168   5.375   5.762  12.655  0.2665  0.0102 -0.5053
 9918TIP3    H151169   5.357   5.669  12.641  3.2395 -1.1212  1.9869
 9918TIP3    H251170   5.417   5.791  12.574  0.3579 -1.1767 -0.8971
 9919TIP3   OH251171   2.269   0.837  12.362  0.2928  0.3750 -0.0614
 9919TIP3    H151172   2.351   0.839  12.411 -0.0103 -0.5335  0.4954
 9919TIP3    H251173   2.296   0.825  12.271  0.7926  0.2321  0.1042
 9920TIP3   OH251174   6.211   5.832   2.712 -0.1773 -0.4207 -0.4593
 9920TIP3    H151175   6.224   5.737   2.711 -1.3869 -0.6263 -1.8131
 9920TIP3    H251176   6.182   5.852   2.622 -1.5139  0.9607  0.2356
 9921TIP3   OH251177   5.428   3.103   3.322 -0.2213 -0.1039 -0.4931
 9921TIP3    H151178   5.455   3.062   3.240  0.5587 -0.5859 -0.0140
 9921TIP3    H251179   5.465   3.191   3.319  0.3658 -0.3409 -0.3865
 9922TIP3   OH251180   6.156   3.588   4.567  0.2118  0.7349  0.2037
 9922TIP3    H151181   6.123   3.599   4.657  2.3231  1.6587  0.9241
 9922TIP3    H251182   6.106   3.514   4.533  0.3684 -0.6371  2.6684
 9923TIP3   OH251183   2.053   4.065   0.697 -0.2704 -0.3353 -0.7267
 9923TIP3    H151184   2.101   4.005   0.639  1.1092 -1.6307  1.6241
 9923TIP3    H251185   1.999   4.008   0.751 -0.1079  0.6594  0.5291
 9924TIP3   OH251186   2.483   0.507   2.689  0.7389  0.0580 -0.2113
 9924TIP3    H151187   2.532   0.556   2.755  0.0676 -1.3731  1.4187
 9924TIP3    H251188   2.439   0.438   2.738  0.0509 -0.9534 -2.1513
 9925TIP3   OH251189   0.081   5.278   0.166  0.3825  0.0666  0.0153
 9925TIP3    H151190   0.135   5.331   0.108  1.4620  0.2175  1.1081
 9925TIP3    H251191   0.068   5.333   0.244  0.9117 -0.9687  0.8646
 9926TIP3   OH251192   5.297   3.146   0.627 -0.0479 -1.1054 -0.3929
 9926TIP3    H151193   5.259   3.129   0.713  0.7127 -0.7963  0.0189
 9926TIP3    H251194   5.227   3.126   0.565 -1.5666  1.4004  0.3999
 9927TIP3   OH251195   2.775   2.536  12.720  0.2912 -0.3919  0.0160
 9927TIP3    H151196   2.777   2.577  12.806 -0.0947 -0.4456  0.0545
 9927TIP3    H251197   2.836   2.463  12.725 -0.6629 -1.1742  0.6493
 9928TIP3   OH251198   5.260   6.144   2.244 -0.0529  0.5498  0.1844
 9928TIP3    H151199   5.311   6.063   2.239  0.3528  0.6561  1.9609
 9928TIP3    H251200   5.169   6.116   2.232  0.1958  0.0085 -0.4846
 9929TIP3   OH251201   0.893   6.054   1.598 -0.2347  0.3172  0.2772
 9929TIP3    H151202   0.966   6.112   1.577  0.2642 -0.3449  0.1669
 9929TIP3    H251203   0.820   6.086   1.545 -0.0630  1.0539  0.4781
 9930TIP3   OH251204   3.180   0.752   1.660  0.0802  0.4278  0.2361
 9930TIP3    H151205   3.180   0.764   1.755  0.6439  0.5110  0.2290
 9930TIP3    H251206   3.186   0.840   1.625 -0.9099  0.4530  0.1047
 9931TIP3   OH251207   4.343   4.054  14.703  0.6944 -0.6456  0.4662
 9931TIP3    H151208   4.311   4.038  14.792 -2.4787  0.2886 -0.3753
 9931TIP3    H251209   4.361   4.148  14.702  1.7390 -0.8353  0.3700
 9932TIP3   OH251210   5.985   1.363   4.484  0.3929 -0.3617  0.0212
 9932TIP3    H151211   6.036   1.442   4.498 -0.8508  0.4876 -0.0414
 9932TIP3    H251212   5.923   1.361   4.558  1.0131 -1.7964  0.5527
 9933TIP3   OH251213   4.327   5.896   0.279  0.3036  0.2899 -0.4315
 9933TIP3    H151214   4.278   5.855   0.351 -2.1272  0.2006 -1.9972
 9933TIP3    H251215   4.415   5.861   0.287 -0.7646 -2.5053  0.4308
 9934TIP3   OH251216   2.098   6.378  12.292  0.3424 -0.0964  0.3517
 9934TIP3    H151217   2.028   6.320  12.321  0.2640 -0.1632  0.0361
 9934TIP3    H251218   2.150   6.324  12.232  0.7082 -0.0707  0.6426
 9935TIP3   OH251219   5.917   3.296   0.233 -0.8372  0.0965  0.4027
 9935TIP3    H151220   5.889   3.237   0.304  1.2381 -1.2844  0.1442
 9935TIP3    H251221   5.868   3.266   0.156 -1.0923 -0.1383  0.6515
 9936TIP3   OH251222   5.904   6.632  15.674  0.2234 -0.3926  0.1444
 9936TIP3    H151223   5.982   6.599  15.630  1.9337 -0.6101  3.0490
 9936TIP3    H251224   5.869   6.557  15.722 -0.2331  0.2842  0.9063
 9937TIP3   OH251225   1.686   5.454  16.136  0.1266 -0.3296 -0.1136
 9937TIP3    H151226   1.728   5.390  16.193 -0.1181 -3.4226 -3.1110
 9937TIP3    H251227   1.755   5.517  16.115  0.9581 -0.7313  1.3464
 9938TIP3   OH251228   4.159   4.121   5.165 -0.4464  0.4790  0.0617
 9938TIP3    H151229   4.179   4.132   5.072 -0.2509  0.9833  0.1598
 9938TIP3    H251230   4.107   4.198   5.187 -2.6148 -0.8082 -0.2005
 9939TIP3   OH251231   6.680   6.124  11.304  0.3962 -0.5944 -0.8853
 9939TIP3    H151232   6.734   6.045  11.301 -1.5421 -2.0151 -0.0373
 9939TIP3    H251233   6.598   6.096  11.344 -0.0486  2.0537  0.2433
 9940TIP3   OH251234   4.589   0.239   1.029  0.5859  0.7548  0.3456
 9940TIP3    H151235   4.541   0.313   0.993 -0.2132  0.0309 -0.1222
 9940TIP3    H251236   4.532   0.163   1.014  0.4331  0.3390  2.7088
 9941TIP3   OH251237   6.148   0.206   4.718  0.1567  0.0879  0.2150
 9941TIP3    H151238   6.093   0.200   4.796 -0.1662  0.6087  0.0323
 9941TIP3    H251239   6.194   0.289   4.726 -2.0104  1.5711 -1.4814
 9942TIP3   OH251240   5.630   1.762  16.974  0.3046  0.0502 -0.3373
 9942TIP3    H151241   5.584   1.841  16.946 -0.2407 -0.0386  0.2872
 9942TIP3    H251242   5.722   1.778  16.950 -0.0240  0.2563 -1.5366
 9943TIP3   OH251243   4.975   0.607   2.766 -0.5357  0.1549  0.3514
 9943TIP3    H151244   4.880   0.596   2.760 -0.6331  0.7675  0.7248
 9943TIP3    H251245   4.998   0.662   2.692 -0.1711 -1.6937 -0.9748
 9944TIP3   OH251246   4.033   5.238   0.927  0.1934  0.8791  0.1884
 9944TIP3    H151247   4.082   5.320   0.918 -1.0666  1.6377 -0.0001
 9944TIP3    H251248   3.967   5.242   0.858 -0.1976 -0.0733  0.4952
 9945TIP3   OH251249   0.150   6.167  16.299  0.1183 -0.2180 -0.4980
 9945TIP3    H151250   0.220   6.218  16.258 -0.3106  0.6351 -0.1968
 9945TIP3    H251251   0.124   6.218  16.376 -0.1659 -1.0128 -0.0545
 9946TIP3   OH251252   5.383   3.795   2.304  0.4301  0.3082 -0.1179
 9946TIP3    H151253   5.391   3.700   2.296  0.2644  0.4027 -1.6161
 9946TIP3    H251254   5.363   3.810   2.396  0.8051 -1.0830  0.2075
 9947TIP3   OH251255   4.828   4.064  15.127  0.4345  0.4767 -0.1039
 9947TIP3    H151256   4.750   4.014  15.152  0.4229  0.7074  0.3170
 9947TIP3    H251257   4.901   4.003  15.140  0.5973  1.0607  1.9540
 9948TIP3   OH251258   1.282   3.933  11.065  0.0741 -0.4262  0.3495
 9948TIP3    H151259   1.350   3.890  11.116  1.4749  0.1532 -0.9479
 9948TIP3    H251260   1.319   4.018  11.042 -1.0773 -0.0937 -0.4128
 9949TIP3   OH251261   5.756   3.095   4.061 -0.1446  0.7267 -0.3919
 9949TIP3    H151262   5.779   3.149   4.136 -1.0462  1.6535 -0.7525
 9949TIP3    H251263   5.738   3.008   4.098 -1.6581  1.4360  0.6398
 9950TIP3   OH251264   3.641   1.395  15.495  0.1513  0.0603 -0.0497
 9950TIP3    H151265   3.681   1.482  15.486  1.7638 -0.5988  0.3326
 9950TIP3    H251266   3.707   1.335  15.459 -0.4572 -1.0956  0.7220
 9951TIP3   OH251267   5.606   3.094   0.840  0.1170  0.1239  0.9157
 9951TIP3    H151268   5.558   3.173   0.866  0.6691  0.3826  1.1661
 9951TIP3    H251269   5.538   3.033   0.811 -0.1818  1.4001 -1.2446
 9952TIP3   OH251270   2.567   1.946  13.718 -0.4355  0.1420  0.1747
 9952TIP3    H151271   2.640   1.900  13.677 -1.1297  0.3950 -1.4108
 9952TIP3    H251272   2.514   1.877  13.758 -0.1244 -0.1795  0.0305
 9953TIP3   OH251273   4.834   0.878   3.516  0.0940 -0.0238  0.0717
 9953TIP3    H151274   4.859   0.970   3.506  0.0862 -0.1452 -1.2994
 9953TIP3    H251275   4.852   0.858   3.608  0.0233  1.3617  0.4103
 9954TIP3   OH251276   2.866   5.365  14.459 -0.5883  0.0295  0.5029
 9954TIP3    H151277   2.860   5.380  14.365 -0.7178 -1.4188  0.2621
 9954TIP3    H251278   2.876   5.453  14.497 -0.3328  0.6078 -0.8628
 9955TIP3   OH251279   5.264   2.947   6.664 -0.1453  0.3397 -0.1085
 9955TIP3    H151280   5.204   2.878   6.689 -0.5820  1.2179  1.3645
 9955TIP3    H251281   5.212   3.027   6.667  0.7613  0.9488 -0.1264
 9956TIP3   OH251282   1.619   0.425  15.077  0.0384  0.2675  0.0612
 9956TIP3    H151283   1.548   0.454  15.135 -0.0569  1.0761 -0.4433
 9956TIP3    H251284   1.687   0.395  15.136 -0.1315  0.9060  0.6008
 9957TIP3   OH251285   3.425   0.548   4.318  0.1926  0.0068 -0.6141
 9957TIP3    H151286   3.440   0.626   4.371  0.1165  0.5595 -1.3865
 9957TIP3    H251287   3.470   0.478   4.365  0.0538  0.4608  0.2193
 9958TIP3   OH251288   0.982   5.921  11.235  0.4723 -0.4570 -0.4781
 9958TIP3    H151289   1.035   5.942  11.158  1.0018  0.8402  0.2363
 9958TIP3    H251290   1.043   5.880  11.296  0.9856  2.0624  0.8048
 9959TIP3   OH251291   0.248   0.904  16.889  0.0620  0.8436  0.0748
 9959TIP3    H151292   0.253   0.972  16.956 -1.5083  1.3986 -0.3261
 9959TIP3    H251293   0.266   0.823  16.936 -2.7987  0.9897  1.6298
 9960TIP3   OH251294   2.758   0.801  15.426 -0.7122 -0.3553 -0.2816
 9960TIP3    H151295   2.701   0.866  15.384  0.2554  0.0380 -1.0305
 9960TIP3    H251296   2.787   0.843  15.507 -1.0008 -0.3136 -0.1994
 9961TIP3   OH251297   6.519   2.858   0.825  0.3233  0.1122  0.2647
 9961TIP3    H151298   6.493   2.863   0.733  0.2144 -0.6869  0.2454
 9961TIP3    H251299   6.604   2.900   0.828 -0.0324  0.8751 -0.0540
 9962TIP3   OH251300   4.530   1.202  15.384 -0.5197  0.6440  0.3735
 9962TIP3    H151301   4.496   1.268  15.445  1.2910  1.6712  0.3328
 9962TIP3    H251302   4.600   1.246  15.337  0.4310 -1.1697 -0.0068
 9963TIP3   OH251303   0.619   3.866  16.942 -0.0152  0.2796 -0.0410
 9963TIP3    H151304   0.648   3.812  17.015  0.0759  1.4779  0.8437
 9963TIP3    H251305   0.530   3.835  16.923  0.5830 -1.1802 -0.5740
 9964TIP3   OH251306   0.996   1.406  12.224 -0.3281 -0.5141 -0.9423
 9964TIP3    H151307   1.062   1.445  12.282 -1.9926  0.4115  0.3873
 9964TIP3    H251308   1.046   1.381  12.146  1.7688 -0.6936  0.3683
 9965TIP3   OH251309   6.545   6.289   0.549 -0.0499 -0.1546  0.0169
 9965TIP3    H151310   6.505   6.280   0.636  0.4403 -1.1156  0.1564
 9965TIP3    H251311   6.531   6.380   0.526 -2.2020 -0.4270  0.1046
 9966TIP3   OH251312   6.186   0.405   1.642  0.3151 -0.4186  0.5687
 9966TIP3    H151313   6.192   0.479   1.582  1.3119 -0.0742  1.0830
 9966TIP3    H251314   6.096   0.410   1.676 -0.2410 -0.5848 -0.8204
 9967TIP3   OH251315   4.900   6.021   1.875 -0.2978 -0.1042  0.2051
 9967TIP3    H151316   4.949   6.048   1.798 -0.6672 -1.0132 -0.3583
 9967TIP3    H251317   4.827   5.970   1.841 -0.6500 -0.2475  1.1358
 9968TIP3   OH251318   0.113   2.950  12.849  0.3066  0.1277 -0.6423
 9968TIP3    H151319   0.197   2.997  12.854  0.0126  0.6414 -0.4316
 9968TIP3    H251320   0.058   2.994  12.914 -1.0243  1.6403 -2.6954
 9969TIP3   OH251321   4.021   4.291   5.713  0.2800  0.7028 -0.1708
 9969TIP3    H151322   4.026   4.283   5.808  1.2457  1.7628 -0.1199
 9969TIP3    H251323   4.059   4.209   5.680 -0.7724 -0.0107  0.3351
 9970TIP3   OH251324   4.449   4.991   3.449  0.2037  0.1826 -0.7464
 9970TIP3    H151325   4.374   5.009   3.393 -0.6429 -4.2942 -1.3889
 9970TIP3    H251326   4.525   5.011   3.394 -0.6006 -0.9089 -2.3263
 9971TIP3   OH251327   2.568   0.687  16.841  0.4542  0.4427 -0.0658
 9971TIP3    H151328   2.585   0.592  16.841  1.5732  0.4343  4.2136
 9971TIP3    H251329   2.473   0.694  16.855  0.4300 -0.0455  0.0320
 9972TIP3   OH251330   2.886   3.834  16.593  0.7344  0.1126  0.6167
 9972TIP3    H151331   2.876   3.892  16.668 -0.8717  0.0712  0.4779
 9972TIP3    H251332   2.918   3.890  16.523 -1.3189  1.0368  0.3272
 9973TIP3   OH251333   5.948   6.463  10.573 -0.6771  0.1247 -0.2848
 9973TIP3    H151334   5.917   6.379  10.539  1.1813 -0.8025  0.1612
 9973TIP3    H251335   5.939   6.523  10.500 -0.0341 -1.0053 -1.3474
 9974TIP3   OH251336   4.522   3.067  14.664 -0.2380 -0.2898  0.7258
 9974TIP3    H151337   4.595   3.078  14.603 -1.0014  1.6696  0.0803
 9974TIP3    H251338   4.563   3.037  14.745  1.7890  3.4360  1.3137
 9975TIP3   OH251339   5.451   4.478  15.442  0.2867 -0.2287 -0.1905
 9975TIP3    H151340   5.544   4.476  15.418  0.4850  0.3664  0.4557
 9975TIP3    H251341   5.408   4.524  15.370  0.7007  0.5792  0.0590
 9976TIP3   OH251342   5.610   0.592  16.273  0.1580 -0.2342  0.3688
 9976TIP3    H151343   5.695   0.566  16.239 -0.2561 -1.0389 -0.0891
 9976TIP3    H251344   5.590   0.528  16.341 -0.8371 -1.1402 -0.7167
 9977TIP3   OH251345   5.475   3.296  12.107  0.7149  0.4622  0.1751
 9977TIP3    H151346   5.476   3.232  12.177 -0.5691  1.2249  0.9346
 9977TIP3    H251347   5.520   3.372  12.143  0.7120  0.5949 -0.0959
 9978TIP3   OH251348   1.815   1.953  14.074  0.0378 -0.4260 -0.1183
 9978TIP3    H151349   1.773   1.979  14.156  1.6713  0.9602  0.3363
 9978TIP3    H251350   1.904   1.987  14.081  0.2455 -0.3549 -2.4364
 9979TIP3   OH251351   0.107   5.917  12.043  0.2444 -0.3296 -0.1058
 9979TIP3    H151352   0.024   5.948  12.079 -1.0220 -0.8651 -2.3303
 9979TIP3    H251353   0.129   5.982  11.975  2.7490  0.8953  1.7002
 9980TIP3   OH251354   1.900   1.199  12.123 -0.4480  0.2438  0.2555
 9980TIP3    H151355   1.907   1.239  12.037 -1.0237 -0.7713 -0.2796
 9980TIP3    H251356   1.976   1.141  12.129 -0.3525  0.3908  0.4729
 9981TIP3   OH251357   2.376   4.007   1.307  0.0026  0.0921  0.3232
 9981TIP3    H151358   2.336   3.925   1.278  0.6879  0.2625 -1.2398
 9981TIP3    H251359   2.365   4.066   1.232 -0.0674  1.2851  1.2519
 9982TIP3   OH251360   6.738   3.326  14.705  0.1215 -0.0731  0.3861
 9982TIP3    H151361   6.680   3.303  14.633  0.6680  0.7247 -0.3259
 9982TIP3    H251362   6.826   3.309  14.671  0.4327  1.1170  0.5442
 9983TIP3   OH251363   5.554   6.042   0.215  0.3252 -0.1296  0.6778
 9983TIP3    H151364   5.529   5.950   0.213  0.3577 -0.1286  0.0602
 9983TIP3    H251365   5.514   6.076   0.296 -0.5127 -0.4472  0.4071
 9984TIP3   OH251366   6.595   1.356  15.061 -0.1469  0.0448  0.3539
 9984TIP3    H151367   6.625   1.397  15.143 -0.1280  0.6917  0.0217
 9984TIP3    H251368   6.667   1.297  15.037 -0.3670 -0.5354  1.0673
 9985TIP3   OH251369   5.134   1.341  14.058 -0.2020  0.4410  0.5316
 9985TIP3    H151370   5.181   1.411  14.103 -1.1689  1.7518 -0.4222
 9985TIP3    H251371   5.178   1.333  13.974 -1.0946  1.0524 -0.0055
 9986TIP3   OH251372   5.007   0.570  16.921 -0.4155 -0.7076  0.0624
 9986TIP3    H151373   4.949   0.522  16.980 -2.1252  0.7983 -0.3201
 9986TIP3    H251374   4.964   0.566  16.835 -0.3195  0.9902 -0.0960
 9987TIP3   OH251375   1.217   5.011   1.329  0.0210 -0.3962 -0.4926
 9987TIP3    H151376   1.161   5.083   1.300  0.8857  0.8793  0.8552
 9987TIP3    H251377   1.270   5.048   1.399  0.3240 -2.4369  0.4493
 9988TIP3   OH251378   0.259   3.042  15.588  0.0672 -0.0066  0.6612
 9988TIP3    H151379   0.222   2.955  15.603 -1.1211  0.5391  0.9737
 9988TIP3    H251380   0.349   3.035  15.620  0.4084 -1.4701 -0.4836
 9989TIP3   OH251381   1.476   3.591  16.213 -0.4167  0.5428 -0.6067
 9989TIP3    H151382   1.408   3.528  16.190 -0.1593 -0.9250  2.2043
 9989TIP3    H251383   1.544   3.578  16.147 -1.4507 -0.2799 -1.5565
 9990TIP3   OH251384   1.848   5.969   0.447 -0.6804 -0.5718 -0.0545
 9990TIP3    H151385   1.941   5.952   0.428 -0.1874  3.0984 -1.7686
 9990TIP3    H251386   1.845   5.979   0.542  0.7666 -0.4328  0.0086
 9991TIP3   OH251387   3.233   5.239   3.461  0.5730 -0.1417 -0.2319
 9991TIP3    H151388   3.244   5.177   3.389 -0.8297 -1.5725  0.7464
 9991TIP3    H251389   3.321   5.248   3.499  1.0437 -0.4689 -1.2111
 9992TIP3   OH251390   3.463   6.765   4.313  0.0407  0.2315  0.1586
 9992TIP3    H151391   3.544   6.717   4.333  0.6915  1.4725  0.5985
 9992TIP3    H251392   3.434   6.728   4.229  0.1688 -1.3445  0.7684
 9993TIP3   OH251393   0.163   5.996  14.803 -0.3005  0.8538 -0.9433
 9993TIP3    H151394   0.223   6.050  14.753  0.7614 -0.2750 -0.9510
 9993TIP3    H251395   0.143   5.922  14.745 -1.6572  1.1550 -0.9094
 9994TIP3   OH251396   3.209   3.978  13.826 -0.1993 -0.0449  0.1622
 9994TIP3    H151397   3.300   4.003  13.841 -0.3895  1.2531 -0.7093
 9994TIP3    H251398   3.198   3.897  13.876  1.7103 -0.7859 -0.5058
 9995TIP3   OH251399   0.908   0.096  13.293 -0.2571  0.2540  0.0334
 9995TIP3    H151400   0.953   0.046  13.226 -1.6624  1.1791 -1.6597
 9995TIP3    H251401   0.890   0.033  13.363 -1.6712 -1.5396 -1.8580
 9996TIP3   OH251402   1.028   3.473  13.304 -0.2435  0.1166  0.0844
 9996TIP3    H151403   1.067   3.389  13.327 -3.3961 -1.3263  0.5884
 9996TIP3    H251404   0.980   3.455  13.223  1.9897  2.4544 -1.9286
 9997TIP3   OH251405   1.576   6.263   0.013  0.0371 -0.0783  0.2099
 9997TIP3    H151406   1.636   6.193   0.038  1.1353  0.7809  0.0563
 9997TIP3    H251407   1.489   6.228   0.033  0.6750 -0.6698  2.1733
 9998TIP3   OH251408   0.997   4.920  15.995  0.6469 -0.0277  0.2621
 9998TIP3    H151409   0.951   4.841  15.968  1.8966 -0.8412  0.4071
 9998TIP3    H251410   0.970   4.987  15.933 -1.2057 -0.2923  0.7318
 9999TIP3   OH251411   0.327   6.604   2.404  0.1376 -0.1763  0.2519
 9999TIP3    H151412   0.346   6.693   2.375 -0.0549 -0.4089 -0.6044
 9999TIP3    H251413   0.247   6.580   2.356  1.5783 -1.7344 -1.5164
10000TIP3   OH251414   2.585   1.969   3.298  0.3441  0.2065 -0.3545
10000TIP3    H151415   2.591   1.965   3.202  0.0124 -1.6685 -0.3280
10000TIP3    H251416   2.666   1.928   3.328  0.3945  0.6898  0.1778
10001TIP3   OH251417   2.742   6.726  12.109  0.0154 -0.6649  0.2128
10001TIP3    H151418   2.744   6.689  12.021  0.8353  0.3679 -0.2257
10001TIP3    H251419   2.650   6.741  12.127 -0.2937 -2.2816  0.1588
10002TIP3   OH251420   5.451   2.301  16.582 -0.1997  0.2152  0.4946
10002TIP3    H151421   5.381   2.238  16.566 -0.7226  0.6311  1.1490
10002TIP3    H251422   5.414   2.365  16.642  0.5382  0.7922  0.3532
10003TIP3   OH251423   2.432   6.353   3.677 -0.1416 -0.3374 -0.2723
10003TIP3    H151424   2.455   6.280   3.734  0.4419  0.3725  0.4149
10003TIP3    H251425   2.337   6.359   3.682  0.0002  1.1155  2.4380
10004TIP3   OH251426   3.764   5.898  16.892 -0.5584 -0.0863  0.1020
10004TIP3    H151427   3.854   5.869  16.912 -0.5631  0.2323  0.6123
10004TIP3    H251428   3.725   5.913  16.978 -0.5049  1.5872 -0.1395
10005TIP3   OH251429   0.564   6.175  17.143  0.1308 -0.2268 -0.8950
10005TIP3    H151430   0.546   6.177  17.237  0.7498 -2.3921 -0.6634
10005TIP3    H251431   0.569   6.267  17.117  2.6472  0.5592  1.7466
10006TIP3   OH251432   0.305   4.334   6.992 -0.1107  0.2003  0.1941
10006TIP3    H151433   0.395   4.358   7.012  0.3998 -1.0667 -0.4543
10006TIP3    H251434   0.270   4.408   6.942  0.4742  0.8098  0.6745
10007TIP3   OH251435   2.911   3.874   6.292  1.1203  0.2307  0.0057
10007TIP3    H151436   3.000   3.852   6.266  0.9185 -1.0925  0.3894
10007TIP3    H251437   2.891   3.814   6.364 -0.6822 -0.7155 -1.2067
10008TIP3   OH251438   4.075   3.251   3.720 -0.4442 -0.2894  0.4773
10008TIP3    H151439   4.036   3.284   3.800  0.1228  1.4495  0.0778
10008TIP3    H251440   4.124   3.325   3.685 -0.7682 -0.9574 -1.5330
10009TIP3   OH251441   4.372   0.071  12.126 -0.1877 -0.1043 -1.3320
10009TIP3    H151442   4.299   0.086  12.186 -0.9078 -2.2967 -1.5655
10009TIP3    H251443   4.430   0.145  12.140 -0.2422 -0.5555  2.1865
10010TIP3   OH251444   4.342   5.303   4.153 -0.7298 -0.2358  0.6080
10010TIP3    H151445   4.298   5.368   4.098 -0.7896  0.2309  1.1996
10010TIP3    H251446   4.403   5.354   4.207 -0.2974 -0.7476  0.6098
10011TIP3   OH251447   1.303   3.244  11.485  0.0446 -0.4937 -0.1125
10011TIP3    H151448   1.225   3.249  11.430 -0.3568 -0.7110  0.4337
10011TIP3    H251449   1.323   3.151  11.490 -0.2887 -0.5332  0.6131
10012TIP3   OH251450   2.502   0.313  16.935 -0.1267  0.1242 -0.1235
10012TIP3    H151451   2.455   0.299  17.017 -0.6448 -0.8132 -0.5601
10012TIP3    H251452   2.588   0.273  16.949 -0.7163 -1.3480 -0.4994
10013TIP3   OH251453   0.934   3.264   6.395 -0.0780 -0.1140 -0.8531
10013TIP3    H151454   0.905   3.198   6.333 -0.6473 -0.1801 -0.5145
10013TIP3    H251455   1.029   3.270   6.380 -0.0619 -0.8066 -1.0674
10014TIP3   OH251456   0.197   0.965  10.394  0.2360 -0.0918  0.6908
10014TIP3    H151457   0.172   1.037  10.336  0.4759  0.3054  1.0657
10014TIP3    H251458   0.256   0.911  10.342  0.8785  0.5558  0.7258
10015TIP3   OH251459   4.470   1.205   5.473  0.8764  0.4546  0.4130
10015TIP3    H151460   4.427   1.136   5.524  0.4843  0.0891 -0.4074
10015TIP3    H251461   4.505   1.264   5.540  1.5495 -0.7223  1.1376
10016TIP3   OH251462   4.567   1.273   4.056 -0.1184  0.2313 -0.1452
10016TIP3    H151463   4.575   1.356   4.104  2.6478 -0.0527  0.0793
10016TIP3    H251464   4.599   1.293   3.969 -0.4443 -0.3715 -0.4097
10017TIP3   OH251465   6.478   4.400  13.980 -0.8337  0.1877  0.0252
10017TIP3    H151466   6.492   4.333  13.914  0.4722  1.9159 -1.5879
10017TIP3    H251467   6.493   4.356  14.063  0.4065 -1.4138 -0.9948
10018TIP3   OH251468   3.924   3.943  12.951  0.0847  0.6912 -0.0334
10018TIP3    H151469   3.973   3.886  12.892 -0.6572  1.6445 -1.6445
10018TIP3    H251470   3.913   3.891  13.031  1.8721 -0.3107 -0.3832
10019TIP3   OH251471   2.035   5.303   5.666 -0.6968 -0.0841  0.8030
10019TIP3    H151472   2.091   5.252   5.607 -0.3913  0.4066  0.6612
10019TIP3    H251473   2.013   5.243   5.737  1.9389  0.3384  2.1135
10020TIP3   OH251474   1.062   4.653   1.609 -0.5461  0.4921  0.4861
10020TIP3    H151475   1.036   4.729   1.557 -0.6896 -0.1210 -0.3567
10020TIP3    H251476   0.997   4.586   1.589  0.9010 -0.6474 -0.6633
10021TIP3   OH251477   4.099   1.976  14.399  0.4771 -0.0723 -0.4036
10021TIP3    H151478   4.033   2.021  14.346  0.8831 -0.0297 -0.8776
10021TIP3    H251479   4.138   2.045  14.452 -2.0986 -0.5388  2.3546
10022TIP3   OH251480   0.572   4.956  10.825 -0.5242 -0.2607  0.5020
10022TIP3    H151481   0.568   4.862  10.810 -2.3843 -0.4327  1.7973
10022TIP3    H251482   0.486   4.979  10.861  0.3208  1.7077  1.4272
10023TIP3   OH251483   0.824   3.947   3.497  0.1394  0.0631  0.1604
10023TIP3    H151484   0.814   4.001   3.419 -0.6356  0.3218  0.4335
10023TIP3    H251485   0.860   3.864   3.465 -0.7090 -0.0447 -0.5484
10024TIP3   OH251486   2.935   0.086  12.199 -0.0436  0.2407 -0.5586
10024TIP3    H151487   2.878   0.134  12.260 -0.5037  0.7350 -1.3574
10024TIP3    H251488   2.881   0.014  12.168  0.4072 -0.3921  0.0904
10025TIP3   OH251489   4.883   4.548  13.127 -0.2888 -0.2437  0.0092
10025TIP3    H151490   4.794   4.585  13.132 -1.3681 -2.7788  2.0926
10025TIP3    H251491   4.875   4.478  13.062 -0.3322 -1.5535  1.3718
10026TIP3   OH251492   4.108   4.733  16.401  0.4170 -0.4947  0.1243
10026TIP3    H151493   4.197   4.721  16.432 -0.1735 -2.4964  1.2335
10026TIP3    H251494   4.060   4.658  16.436 -1.5575  0.1574 -1.0079
10027TIP3   OH251495   6.343   2.590  10.757  0.2715 -0.0977  0.3380
10027TIP3    H151496   6.256   2.585  10.798  0.3944  0.9774  0.7719
10027TIP3    H251497   6.373   2.680  10.776  1.0765 -0.1521 -0.6197
10028TIP3   OH251498   6.104   1.063  12.511  0.5629  0.3914 -0.8683
10028TIP3    H151499   6.029   1.038  12.565  1.1134  1.9382  0.7128
10028TIP3    H251500   6.085   1.025  12.426 -1.7406  0.2443 -0.3736
10029TIP3   OH251501   5.708   6.067  12.060  0.2136 -0.1681  0.1299
10029TIP3    H151502   5.776   6.027  12.114 -0.1301 -0.6549  0.2124
10029TIP3    H251503   5.756   6.105  11.986  0.8118  1.4694  1.3010
10030TIP3   OH251504   2.983   1.109  15.691  0.6431 -0.0897  0.5388
10030TIP3    H151505   2.988   1.158  15.609  1.0766 -0.5204  0.2976
10030TIP3    H251506   3.017   1.169  15.757 -0.1164  0.4170  0.4830
10031TIP3   OH251507   3.782   2.219   4.104 -0.4006  0.3911 -0.1448
10031TIP3    H151508   3.801   2.256   4.191  0.1541 -1.8367  0.7620
10031TIP3    H251509   3.819   2.282   4.042  1.9844  0.5803  1.3405
10032TIP3   OH251510   2.589   1.534   3.683 -0.7292  0.5893 -0.2301
10032TIP3    H151511   2.549   1.478   3.616 -1.3112 -0.2353  0.7691
10032TIP3    H251512   2.532   1.523   3.759  1.6178 -0.9728  1.4070
10033TIP3   OH251513   1.247   5.255   2.438 -0.1443 -0.3108 -0.3402
10033TIP3    H151514   1.157   5.273   2.466  0.4462  1.4263  0.6010
10033TIP3    H251515   1.284   5.203   2.509 -0.3306 -0.8229 -0.6159
10034TIP3   OH251516   1.433   0.945  15.958 -0.1015  0.5027  0.2982
10034TIP3    H151517   1.519   0.985  15.950  0.2152 -0.3162 -0.5872
10034TIP3    H251518   1.438   0.867  15.903 -1.5614  0.7003 -0.1531
10035TIP3   OH251519   6.095   5.628   5.552 -0.5430  0.2494  0.3745
10035TIP3    H151520   6.180   5.670   5.541 -0.2716  0.2430  2.1452
10035TIP3    H251521   6.040   5.695   5.593 -1.3472  0.2005 -0.5955
10036TIP3   OH251522   0.343   3.151  15.889  0.0438 -0.0242 -0.3712
10036TIP3    H151523   0.421   3.157  15.834 -0.1200 -0.5896 -0.6788
10036TIP3    H251524   0.345   3.061  15.923 -1.2434 -0.5487 -1.5840
10037TIP3   OH251525   2.506   2.513  15.158  0.2847  0.4298 -0.9755
10037TIP3    H151526   2.566   2.580  15.126 -0.2809  1.6760  0.4616
10037TIP3    H251527   2.436   2.562  15.201 -1.2149 -1.0205 -1.6509
10038TIP3   OH251528   6.003   5.112   0.459 -0.0703 -0.1253  0.1848
10038TIP3    H151529   6.049   5.132   0.377 -0.1017  0.4424  0.3033
10038TIP3    H251530   5.945   5.187   0.473  1.5392  0.8728  1.8822
10039TIP3   OH251531   4.235   2.819   0.409  0.4535 -0.2069  0.5714
10039TIP3    H151532   4.145   2.848   0.399  0.3462 -0.6266  0.2992
10039TIP3    H251533   4.275   2.883   0.468  0.8046  1.6758 -1.6052
10040TIP3   OH251534   2.742   5.502  12.229  0.3136  0.0724  0.1813
10040TIP3    H151535   2.800   5.526  12.302  1.7140  1.2127 -1.2236
10040TIP3    H251536   2.671   5.565  12.233  0.6256  0.4237  0.3165
10041TIP3   OH251537   2.891   3.708  13.285 -0.3524 -0.0556 -0.0099
10041TIP3    H151538   2.813   3.666  13.320 -1.7143  2.1366 -0.2061
10041TIP3    H251539   2.889   3.796  13.322  2.0911  0.0388  0.0327
10042TIP3   OH251540   6.088   0.062  13.727  0.3981 -0.2459 -0.1913
10042TIP3    H151541   6.143  -0.015  13.736  0.0030 -0.4287  0.7947
10042TIP3    H251542   6.149   0.135  13.722  0.7584 -0.3975  1.3551
10043TIP3   OH251543   6.481   3.720  13.662 -0.9335  0.0749  0.2812
10043TIP3    H151544   6.569   3.726  13.626 -1.2501 -0.5568 -0.6194
10043TIP3    H251545   6.492   3.671  13.744 -0.4036  0.3377  0.3730
10044TIP3   OH251546   1.007   0.652   4.034  0.1291 -0.0610  0.2421
10044TIP3    H151547   1.061   0.724   4.068  0.7816 -0.2063 -0.4584
10044TIP3    H251548   0.926   0.657   4.085  0.2027  1.1122  0.2792
10045TIP3   OH251549   1.102   3.353   6.060 -0.8155 -0.1588  0.0449
10045TIP3    H151550   1.179   3.328   6.009  0.3710  1.2727  1.0341
10045TIP3    H251551   1.086   3.278   6.118 -1.1832 -1.1272 -1.2663
10046TIP3   OH251552   2.783   6.377   1.316 -0.4973  0.0645 -0.1154
10046TIP3    H151553   2.799   6.438   1.387 -0.0743  0.1855 -0.3122
10046TIP3    H251554   2.692   6.349   1.328 -1.5858  2.6688 -1.4736
10047TIP3   OH251555   3.139   0.995   1.929  0.3113  1.0698  0.0264
10047TIP3    H151556   3.050   0.997   1.964  0.7914  1.5960  1.2647
10047TIP3    H251557   3.150   1.080   1.886 -0.0806  0.6467 -0.9450
10048TIP3   OH251558   0.220   5.867   5.338  0.1331  0.3137 -0.7412
10048TIP3    H151559   0.166   5.945   5.337 -1.9006 -0.9701  1.1158
10048TIP3    H251560   0.165   5.799   5.300  0.1676 -1.1370  1.6052
10049TIP3   OH251561   0.468   3.108  16.988  0.0425 -0.3165  0.1111
10049TIP3    H151562   0.479   3.178  16.923  0.7075  0.0033  0.5520
10049TIP3    H251563   0.421   3.039  16.942  0.2871  0.0097 -0.6368
10050TIP3   OH251564   1.490   4.949  13.903 -0.2799 -0.1891 -0.4670
10050TIP3    H151565   1.492   4.867  13.854  1.5485  0.1516 -1.0562
10050TIP3    H251566   1.575   4.953  13.947 -1.8562 -0.5404  2.9714
10051TIP3   OH251567   6.009   6.596   0.558 -0.1894  0.1646  0.4766
10051TIP3    H151568   6.009   6.607   0.653 -1.4307  0.8745  0.4177
10051TIP3    H251569   6.049   6.677   0.525  1.0311 -0.4430  0.4003
10052TIP3   OH251570   3.630   6.362   0.963 -0.5174 -0.0749  0.3252
10052TIP3    H151571   3.677   6.358   0.879  1.2479 -0.2004  1.2757
10052TIP3    H251572   3.553   6.416   0.944  1.0171  1.8275 -0.8571
10053TIP3   OH251573   1.854   4.720   5.119 -0.1006  0.1393 -0.0479
10053TIP3    H151574   1.828   4.811   5.106 -0.5693 -0.1106 -0.8887
10053TIP3    H251575   1.950   4.722   5.111 -0.2223  0.2809 -1.9453
10054TIP3   OH251576   5.407   3.431  11.613  0.5342 -0.2968 -0.5346
10054TIP3    H151577   5.409   3.338  11.592  0.0014 -0.1334 -1.3448
10054TIP3    H251578   5.363   3.435  11.698 -1.3951 -0.6492 -1.4647
10055TIP3   OH251579   0.598   0.292   3.800 -0.3347  0.1486 -0.4870
10055TIP3    H151580   0.639   0.359   3.746 -1.5869  2.3378  1.1230
10055TIP3    H251581   0.507   0.290   3.771 -0.4060 -0.5241 -0.2312
10056TIP3   OH251582   4.342   2.606  12.828  0.0921 -0.1437 -0.2764
10056TIP3    H151583   4.266   2.659  12.853  0.3311 -0.5831  1.5174
10056TIP3    H251584   4.379   2.577  12.911  0.6063 -2.2190 -1.1728
10057TIP3   OH251585   4.901   3.992   5.115 -0.5491 -0.4518  0.0095
10057TIP3    H151586   4.977   4.049   5.128 -1.8636  1.0348  1.5802
10057TIP3    H251587   4.937   3.915   5.070  1.8076  0.3568  0.3457
10058TIP3   OH251588   1.996   3.869   2.300  0.5552  0.5013 -0.5307
10058TIP3    H151589   2.063   3.825   2.248  0.9101  0.7273 -0.2686
10058TIP3    H251590   2.045   3.916   2.368  0.0721 -0.1859  0.3129
10059TIP3   OH251591   1.681   1.251   0.957  0.0261 -0.1908 -0.4425
10059TIP3    H151592   1.768   1.219   0.932 -0.0033  0.0184 -0.8111
10059TIP3    H251593   1.679   1.242   1.053  1.1134  1.4173 -0.2297
10060TIP3   OH251594   1.480   4.752  12.042 -0.0938  0.1348  0.0385
10060TIP3    H151595   1.438   4.831  12.078  0.9173  1.0697 -0.7508
10060TIP3    H251596   1.430   4.732  11.963 -0.4344 -0.0876  0.3122
10061TIP3   OH251597   4.586   3.676  15.906 -0.1922 -0.3306  0.3565
10061TIP3    H151598   4.546   3.716  15.983  0.9342  0.9762  0.2816
10061TIP3    H251599   4.585   3.582  15.926  1.1294  0.0374  2.4980
10062TIP3   OH251600   2.710   2.256  17.340 -0.3732  0.1881 -0.3995
10062TIP3    H151601   2.740   2.239  17.251 -0.4204  1.4693 -0.6796
10062TIP3    H251602   2.622   2.293  17.328 -1.1652 -1.3686  0.2894
10063TIP3   OH251603   5.942   5.116  12.505  0.2929 -0.5553 -0.0533
10063TIP3    H151604   5.890   5.078  12.576 -1.7139  1.2349 -0.4639
10063TIP3    H251605   5.955   5.207  12.530  1.8689 -0.5514 -0.7569
10064TIP3   OH251606   5.649   2.194   2.647 -0.3044 -0.3064  0.7027
10064TIP3    H151607   5.598   2.255   2.700  0.3947  2.6699 -1.7877
10064TIP3    H251608   5.740   2.210   2.673 -0.0345  0.5101 -0.6601
10065TIP3   OH251609   4.620   4.179  12.973  0.3468 -0.6160 -0.5107
10065TIP3    H151610   4.543   4.216  13.015 -0.1442 -2.3762  0.2239
10065TIP3    H251611   4.625   4.223  12.888 -1.3856 -0.3773 -0.5179
10066TIP3   OH251612   6.702   2.360  11.990  0.4678  0.0741 -0.5058
10066TIP3    H151613   6.780   2.314  11.960  0.0273 -0.8446 -0.2967
10066TIP3    H251614   6.630   2.320  11.940  0.1366  0.9420 -0.7360
10067TIP3   OH251615   1.109   6.275   4.369  0.2481  0.0547  0.7658
10067TIP3    H151616   1.052   6.350   4.357  1.0154  0.4847 -0.3210
10067TIP3    H251617   1.095   6.249   4.460 -2.1578 -0.2835  0.3596
10068TIP3   OH251618   1.280   1.830   0.988 -0.3134 -0.7645  0.3661
10068TIP3    H151619   1.328   1.755   1.023 -0.1670 -0.0830  1.6894
10068TIP3    H251620   1.321   1.906   1.029 -0.8720 -0.0002 -0.4567
10069TIP3   OH251621   4.452   1.683   4.241 -0.2140 -0.0978 -0.0084
10069TIP3    H151622   4.371   1.729   4.219 -2.1544 -3.0584  0.3419
10069TIP3    H251623   4.444   1.664   4.334  2.1375  1.6328  0.6459
10070TIP3   OH251624   0.695   0.339  11.273  0.7612 -0.0480  0.2758
10070TIP3    H151625   0.659   0.407  11.329 -1.2985 -1.0101  0.1976
10070TIP3    H251626   0.765   0.299  11.325  1.1713  1.2957  0.7875
10071TIP3   OH251627   5.200   2.167  16.046  0.5082  0.2849 -0.3817
10071TIP3    H151628   5.107   2.186  16.054  0.6884  0.7102  1.0916
10071TIP3    H251629   5.243   2.250  16.067  1.2294 -0.3198  0.6348
10072TIP3   OH251630   0.565   3.859   0.240 -0.1259 -0.0542 -0.2177
10072TIP3    H151631   0.609   3.856   0.156 -0.4257 -1.6011 -0.3606
10072TIP3    H251632   0.577   3.948   0.271  0.3375  0.4265 -1.7072
10073TIP3   OH251633   5.708   2.117   3.150  0.4419  0.7018  0.1044
10073TIP3    H151634   5.695   2.097   3.058  0.2455 -0.3114  0.3391
10073TIP3    H251635   5.770   2.051   3.181  0.3708  0.9244  0.7374
10074TIP3   OH251636   5.711   5.972   2.931 -0.7098 -0.8012 -0.4341
10074TIP3    H151637   5.755   5.966   3.016 -0.2924  2.3130 -0.3094
10074TIP3    H251638   5.621   5.996   2.952 -1.3651 -2.7618 -0.8430
10075TIP3   OH251639   5.285   0.173   1.092 -0.1830 -0.0513 -0.2158
10075TIP3    H151640   5.327   0.224   1.023 -0.6844 -1.4823 -1.6552
10075TIP3    H251641   5.197   0.209   1.099  0.0047  0.3754  0.0042
10076TIP3   OH251642   6.431   5.865  11.061 -0.0495  0.6148  0.0211
10076TIP3    H151643   6.349   5.915  11.064 -0.4692 -0.1148  1.1470
10076TIP3    H251644   6.421   5.808  10.985 -0.4188  0.8020 -0.0752
10077TIP3   OH251645   2.785   1.061   4.689  0.7179  0.2475  0.3992
10077TIP3    H151646   2.740   1.131   4.737  1.0551  1.3660 -0.8508
10077TIP3    H251647   2.731   0.983   4.703 -1.8929  1.5992 -1.3576
10078TIP3   OH251648   4.467   5.285   4.897 -0.2400  0.4363  0.0845
10078TIP3    H151649   4.395   5.243   4.849  1.5570 -0.8769 -1.6584
10078TIP3    H251650   4.481   5.368   4.850 -0.3576  0.4992  0.1607
10079TIP3   OH251651   5.165   5.967   0.556 -0.5767 -0.5133  0.0448
10079TIP3    H151652   5.164   6.056   0.520  0.3883  0.2893  1.8441
10079TIP3    H251653   5.257   5.950   0.575 -0.3920 -2.8867 -2.3889
10080TIP3   OH251654   3.789   0.150  14.013  0.3539 -0.0631 -0.2406
10080TIP3    H151655   3.719   0.213  13.996  0.4678  0.9380  2.4309
10080TIP3    H251656   3.869   0.194  13.986  0.2765  0.3254  0.1453
10081TIP3   OH251657   3.171   3.314   4.287 -0.0653  0.4288 -0.4063
10081TIP3    H151658   3.196   3.401   4.315 -0.7470  0.2558  0.7994
10081TIP3    H251659   3.157   3.265   4.368  0.4674 -0.8526 -1.0556
10082TIP3   OH251660   6.383   0.759  16.181  0.6336 -0.0996 -0.6096
10082TIP3    H151661   6.366   0.799  16.096 -1.7122 -1.3000 -0.7906
10082TIP3    H251662   6.454   0.696  16.164  1.3733  0.8909 -1.2616
10083TIP3   OH251663   1.874   3.232  17.184  0.6496 -0.4535 -0.3773
10083TIP3    H151664   1.932   3.309  17.178 -0.2304  0.3011  0.5180
10083TIP3    H251665   1.795   3.265  17.227  0.5946 -2.0634  0.8378
10084TIP3   OH251666   1.556   4.121  13.552  0.1808 -0.0479  0.2412
10084TIP3    H151667   1.565   4.037  13.508 -0.1572  0.7688 -1.4513
10084TIP3    H251668   1.473   4.115  13.599  0.4500 -0.8637  0.6229
10085TIP3   OH251669   3.948   5.477  12.186  0.3732 -0.3296 -0.0538
10085TIP3    H151670   3.993   5.471  12.270 -1.8193  2.5304  1.5241
10085TIP3    H251671   3.857   5.452  12.207 -0.2576  0.6802 -1.4970
10086TIP3   OH251672   5.095   3.366   3.039 -0.1371 -0.0611  0.0911
10086TIP3    H151673   5.099   3.290   3.098 -0.1446 -2.5034 -2.7786
10086TIP3    H251674   5.055   3.331   2.959  1.4509  2.5726 -2.0045
10087TIP3   OH251675   5.361   0.226   5.458  0.2763 -0.2753  0.2070
10087TIP3    H151676   5.301   0.214   5.532  0.1355 -1.3124 -0.0656
10087TIP3    H251677   5.429   0.284   5.492 -1.1344  1.3909  0.3690
10088TIP3   OH251678   6.419   1.080   0.080  0.3541  0.1642 -0.0229
10088TIP3    H151679   6.347   1.027   0.115  0.6761 -2.1136 -2.4690
10088TIP3    H251680   6.384   1.169   0.078 -1.3331 -0.4120  1.5133
10089TIP3   OH251681   4.551   0.997  12.195  0.5168 -0.4977 -0.3054
10089TIP3    H151682   4.528   0.963  12.281  1.7580 -0.8806 -0.1005
10089TIP3    H251683   4.567   0.919  12.142  1.2993 -0.2595 -0.4295
10090TIP3   OH251684   6.646   3.184   3.826 -0.1191  0.0215  0.0612
10090TIP3    H151685   6.724   3.131   3.817 -0.4456 -0.3813 -0.4038
10090TIP3    H251686   6.677   3.274   3.819  0.0639 -0.1683 -2.0878
10091TIP3   OH251687   0.954   6.713   6.539  0.4619  0.0010  0.1578
10091TIP3    H151688   0.927   6.641   6.596 -2.6910  0.4887 -0.5246
10091TIP3    H251689   0.942   6.679   6.450  0.4084  0.8810 -0.1802
10092TIP3   OH251690   1.063   0.963   5.322  0.3224 -0.2695 -0.0079
10092TIP3    H151691   1.101   1.050   5.314  0.7079 -0.4075  0.3011
10092TIP3    H251692   0.970   0.975   5.304  0.4805  0.1019 -0.5797
10093TIP3   OH251693   3.908   5.587   5.130  0.2867 -0.6961 -0.2601
10093TIP3    H151694   3.982   5.565   5.186  0.1276 -1.8473 -0.4848
10093TIP3    H251695   3.835   5.537   5.166 -1.2081  2.5872  1.7964
10094TIP3   OH251696   3.245   4.385  12.560 -0.2657  0.5711  0.0190
10094TIP3    H151697   3.158   4.388  12.600 -0.4468  0.0075 -0.3206
10094TIP3    H251698   3.232   4.417  12.471 -0.2663 -0.1576 -0.2533
10095TIP3   OH251699   3.101   4.130   1.614 -0.2156 -0.2405 -0.3802
10095TIP3    H151700   3.029   4.181   1.650 -1.9984 -3.2739  0.7306
10095TIP3    H251701   3.155   4.108   1.689  0.6785  0.1671 -0.8866
10096TIP3   OH251702   4.916   1.410   4.731 -0.6491  0.5861 -0.0384
10096TIP3    H151703   5.009   1.430   4.725 -0.7220  0.5265 -1.8374
10096TIP3    H251704   4.913   1.315   4.744 -0.4603  0.6634  0.6058
10097TIP3   OH251705   5.924   2.241   1.219  0.4561 -0.1047 -0.2087
10097TIP3    H151706   5.879   2.165   1.181 -0.6872  0.9447 -0.9968
10097TIP3    H251707   5.899   2.315   1.164  1.0198  0.9792  0.9319
10098TIP3   OH251708   2.576   4.702  14.105  0.1592  0.3321  0.1691
10098TIP3    H151709   2.485   4.679  14.089  0.4056  0.2510 -1.3114
10098TIP3    H251710   2.574   4.756  14.184 -1.2159  0.6634 -0.0625
10099TIP3   OH251711   1.880   4.030   1.636 -0.1548  0.0729  0.4321
10099TIP3    H151712   1.961   4.008   1.681 -0.2359 -0.3271  0.3843
10099TIP3    H251713   1.871   3.964   1.568 -0.1906  0.4949  0.0158
10100TIP3   OH251714   5.724   5.256   2.714  0.3142 -0.5013 -0.2383
10100TIP3    H151715   5.655   5.191   2.726  0.4069 -0.2735  1.8881
10100TIP3    H251716   5.720   5.311   2.791  1.0610  1.2915 -1.4082
10101TIP3   OH251717   1.592   5.189  12.309  0.0274 -0.4758 -0.0051
10101TIP3    H151718   1.524   5.164  12.373  0.4449 -0.8022  0.3174
10101TIP3    H251719   1.637   5.263  12.350 -0.5787  0.2082 -0.5321
10102TIP3   OH251720   3.615   0.706  16.011 -0.5637  0.3045  0.8614
10102TIP3    H151721   3.595   0.799  16.005 -1.0845  0.3836  3.0442
10102TIP3    H251722   3.535   0.662  15.981 -0.4743  0.5416  0.2598
10103TIP3   OH251723   6.136   0.536  17.071  0.3314 -0.1788  0.0634
10103TIP3    H151724   6.092   0.510  16.990  3.9495 -2.3101 -1.4290
10103TIP3    H251725   6.116   0.466  17.133  0.3073 -0.2924 -0.0722
10104TIP3   OH251726   0.583   3.640   5.371  0.6572 -0.2183 -0.1508
10104TIP3    H151727   0.679   3.639   5.368  0.6379 -0.6243 -0.8085
10104TIP3    H251728   0.562   3.587   5.449  0.9846  1.3313  1.0389
10105TIP3   OH251729   1.245   2.731   0.755 -0.1675  0.4114  0.3152
10105TIP3    H151730   1.174   2.716   0.692  1.4325 -0.1953 -1.4309
10105TIP3    H251731   1.202   2.730   0.840 -2.2138 -0.2099 -0.6648
10106TIP3   OH251732   3.653   4.634  16.900  0.0389  0.1697 -0.4701
10106TIP3    H151733   3.628   4.701  16.837 -0.6142  0.9656  0.5968
10106TIP3    H251734   3.749   4.638  16.903  0.3413 -1.7812 -3.3888
10107TIP3   OH251735   5.232   0.750  16.351 -0.6436  0.2574 -0.7655
10107TIP3    H151736   5.317   0.756  16.395  0.4161 -2.3346 -2.2382
10107TIP3    H251737   5.213   0.840  16.323  2.1538  0.7799 -1.3167
10108TIP3   OH251738   3.954   0.158   5.164 -0.3364 -0.4046  0.8439
10108TIP3    H151739   3.976   0.198   5.248 -1.8682  0.3766  0.9077
10108TIP3    H251740   3.864   0.127   5.176 -1.1852  1.1986 -1.0140
10109TIP3   OH251741   4.510   2.052   6.416  1.3288  0.0670 -0.0467
10109TIP3    H151742   4.431   2.030   6.367  0.4464  3.3255 -0.3462
10109TIP3    H251743   4.491   2.025   6.506  0.8990 -1.3921 -0.5592
10110TIP3   OH251744   1.101   5.649  15.961  0.2680 -0.6736 -0.6339
10110TIP3    H151745   1.047   5.641  15.882 -1.2129 -0.4989  0.3308
10110TIP3    H251746   1.052   5.708  16.018  1.6184 -0.3047  0.1897
10111TIP3   OH251747   5.005   1.327  12.361 -1.1800 -0.0310  0.1417
10111TIP3    H151748   4.936   1.350  12.423 -0.8875  0.2096  0.3794
10111TIP3    H251749   5.080   1.305  12.415 -0.7007  0.8870 -0.1332
10112TIP3   OH251750   1.549   4.860  15.795  0.0717  0.1827  0.3909
10112TIP3    H151751   1.517   4.813  15.719 -0.1659  0.6860  0.1727
10112TIP3    H251752   1.470   4.880  15.846  0.1138  0.7590  0.2365
10113TIP3   OH251753   6.220   0.530   6.694 -0.2374 -0.3141  0.0571
10113TIP3    H151754   6.199   0.609   6.643  0.8505  0.6237  1.0028
10113TIP3    H251755   6.136   0.487   6.708 -1.2662  2.0509  1.7107
10114TIP3   OH251756   5.491   5.714   2.103 -0.3166  0.1062 -0.1127
10114TIP3    H151757   5.413   5.700   2.048 -1.3085 -1.1272  1.5080
10114TIP3    H251758   5.556   5.653   2.067 -0.8532 -0.4704 -0.1413
10115TIP3   OH251759   1.925   5.472   4.609 -0.1560 -0.1265 -0.0257
10115TIP3    H151760   1.965   5.557   4.628 -1.7023  1.0059 -1.5117
10115TIP3    H251761   1.940   5.459   4.516 -0.0698 -1.4423  0.1571
10116TIP3   OH251762   5.539   6.022   1.845  0.1132 -0.4882  0.1768
10116TIP3    H151763   5.468   5.961   1.824 -1.0719  0.4503  1.2905
10116TIP3    H251764   5.616   5.984   1.803 -0.2592 -3.4986  1.8845
10117TIP3   OH251765   0.461   0.203   5.475  0.2957  0.9052 -0.3066
10117TIP3    H151766   0.390   0.148   5.507  0.3333 -0.0103 -1.7004
10117TIP3    H251767   0.521   0.212   5.549  0.3579 -1.0617 -0.0891
10118TIP3   OH251768   6.192   4.804   1.683 -0.1778 -0.0729  0.2350
10118TIP3    H151769   6.098   4.784   1.681  0.0303 -1.1068  0.4728
10118TIP3    H251770   6.220   4.777   1.770  0.2519  0.6918  0.3437
10119TIP3   OH251771   0.231   5.725  16.872  0.0703 -0.1560 -0.1476
10119TIP3    H151772   0.323   5.706  16.886 -0.2005 -0.7306  0.9341
10119TIP3    H251773   0.192   5.642  16.847 -0.2819 -0.0597  0.0717
10120TIP3   OH251774   3.424   4.229   1.673 -0.1174  0.3721 -0.1910
10120TIP3    H151775   3.490   4.194   1.732 -1.3711 -0.7285  0.6085
10120TIP3    H251776   3.449   4.196   1.587  0.4874  0.1363  0.0705
10121TIP3   OH251777   0.282   1.084  12.432 -0.0197 -0.7949  0.4829
10121TIP3    H151778   0.344   1.144  12.390  0.1742 -0.5384  1.1245
10121TIP3    H251779   0.233   1.046  12.359  1.2576 -1.4243 -0.0822
10122TIP3   OH251780   3.937   0.987   1.677 -0.2027  0.3475 -0.1898
10122TIP3    H151781   3.961   0.899   1.647  0.9422  1.0661 -1.4375
10122TIP3    H251782   3.850   1.002   1.639 -0.5781 -0.3714  0.3467
10123TIP3   OH251783   5.112   6.230   0.470  0.2162 -0.1469  0.1999
10123TIP3    H151784   5.097   6.319   0.502  2.2814  1.0553 -1.8555
10123TIP3    H251785   5.048   6.220   0.399  2.4550  1.3641 -2.2402
10124TIP3   OH251786   1.393   0.313  15.299 -0.1207 -0.3495 -0.4600
10124TIP3    H151787   1.418   0.345  15.386 -1.5567  0.1605 -0.2123
10124TIP3    H251788   1.459   0.247  15.278 -0.4908 -1.4363  1.5792
10125TIP3   OH251789   0.713   4.362  11.455 -0.3124 -0.0098  0.3910
10125TIP3    H151790   0.650   4.433  11.467  0.1514  0.5791 -0.5521
10125TIP3    H251791   0.679   4.313  11.380 -0.5161 -0.6858  0.9053
10126TIP3   OH251792   5.650   6.352  13.532 -0.0949 -0.2514  0.0032
10126TIP3    H151793   5.652   6.438  13.573 -1.3656  0.4306 -1.2494
10126TIP3    H251794   5.618   6.369  13.443  0.6421 -1.8968 -0.6122
10127TIP3   OH251795   0.436   3.564  16.421 -0.5096 -0.1991 -0.4079
10127TIP3    H151796   0.432   3.584  16.515 -0.2205 -0.6366 -0.3010
10127TIP3    H251797   0.446   3.469  16.417  0.9224 -0.0510 -0.8437
10128TIP3   OH251798   0.554   3.602   0.343  0.1647  0.7212  0.3836
10128TIP3    H151799   0.648   3.596   0.359  0.1081  1.0426  0.8619
10128TIP3    H251800   0.542   3.685   0.297  0.4015 -0.4890 -1.9969
10129TIP3   OH251801   1.722   3.771  12.884 -0.0338  0.2171 -0.3373
10129TIP3    H151802   1.791   3.805  12.828 -1.7978  2.4570 -1.2761
10129TIP3    H251803   1.686   3.848  12.928 -0.0105 -1.2239  2.4753
10130TIP3   OH251804   2.150   0.057  11.346  1.0100 -1.1607 -0.0002
10130TIP3    H151805   2.225   0.000  11.328  1.0449 -0.4236 -2.5801
10130TIP3    H251806   2.187   0.144  11.357  0.6788 -1.0735  0.4506
10131TIP3   OH251807   3.837   1.213   3.955 -0.2383  0.2986 -0.1923
10131TIP3    H151808   3.845   1.203   3.860 -2.9561 -1.6518 -0.3417
10131TIP3    H251809   3.903   1.153   3.990  0.2132  0.3924 -0.8463
10132TIP3   OH251810   4.604   1.725  14.915  0.3423  0.4658 -0.0696
10132TIP3    H151811   4.551   1.702  14.839  2.0719 -3.4272 -0.3656
10132TIP3    H251812   4.657   1.646  14.931  0.0445  1.0067  5.2253
10133TIP3   OH251813   0.109   0.263   0.687  0.2302  0.3156  0.1864
10133TIP3    H151814   0.136   0.171   0.685  0.7901  0.4380  1.3678
10133TIP3    H251815   0.020   0.261   0.721  0.7456  0.2884  1.6014
10134TIP3   OH251816   6.678   1.693   4.036 -0.1816 -0.7573 -0.2633
10134TIP3    H151817   6.725   1.625   3.988  0.1367 -1.7588  1.3755
10134TIP3    H251818   6.746   1.745   4.078 -0.4616 -0.7162  0.1531
10135TIP3   OH251819   1.445   2.850  14.461 -0.4768  0.1682 -0.4180
10135TIP3    H151820   1.360   2.813  14.439  0.7943 -2.8858 -0.5985
10135TIP3    H251821   1.458   2.921  14.397 -1.8177 -0.9354 -1.9783
10136TIP3   OH251822   4.600   1.262   5.129 -0.0137 -0.1721 -0.0683
10136TIP3    H151823   4.559   1.191   5.179  1.2150 -0.1339  1.0448
10136TIP3    H251824   4.694   1.244   5.132  0.3472  1.5083  0.3080
10137TIP3   OH251825   1.781   2.008  15.142  0.1820  0.2055 -0.2486
10137TIP3    H151826   1.762   1.937  15.203 -0.3631  0.4745 -0.0918
10137TIP3    H251827   1.729   1.987  15.064  0.1292  0.3517 -0.2540
10138TIP3   OH251828   1.186   6.369  15.727  0.4796 -0.1385  0.3982
10138TIP3    H151829   1.280   6.356  15.741  0.5840  0.1097 -0.0656
10138TIP3    H251830   1.162   6.303  15.662  0.2739 -0.3781  0.7128
10139TIP3   OH251831   3.636   5.403  16.604 -0.0115  0.1486  0.1325
10139TIP3    H151832   3.562   5.443  16.651 -0.5713 -1.8744  1.0589
10139TIP3    H251833   3.612   5.410  16.512 -1.1523 -0.0426  0.3987
10140TIP3   OH251834   3.042   1.835  16.753  0.3228  0.0370 -0.2190
10140TIP3    H151835   3.084   1.900  16.698 -1.0302  1.1222 -0.0386
10140TIP3    H251836   3.018   1.764  16.693  0.9904  0.1144 -0.5848
10141TIP3   OH251837   3.971   3.940  16.066 -0.0900 -0.3967 -0.1721
10141TIP3    H151838   4.046   3.999  16.058  0.5319 -1.1186  0.2236
10141TIP3    H251839   3.901   3.995  16.099  0.9328 -0.1938  1.8089
10142TIP3   OH251840   1.757   4.963  16.531  0.3205 -0.5681 -0.6415
10142TIP3    H151841   1.795   4.936  16.615  1.7189  2.0515 -0.3489
10142TIP3    H251842   1.663   4.965  16.547  0.4957 -1.0922  0.5425
10143TIP3   OH251843   1.850   6.450  11.767  0.5272  0.6193  0.2343
10143TIP3    H151844   1.790   6.454  11.693  0.5660 -0.7378  0.1140
10143TIP3    H251845   1.816   6.381  11.823  0.0883  2.1055  1.8833
10144TIP3   OH251846   4.972   1.579   0.094  0.2564 -0.1022 -0.0599
10144TIP3    H151847   5.012   1.658   0.130  0.9566 -0.8785  0.8958
10144TIP3    H251848   5.031   1.552   0.024  1.2347 -1.0224  1.0886
10145TIP3   OH251849   1.539   6.312  12.607 -0.2954 -0.0909 -0.2961
10145TIP3    H151850   1.514   6.223  12.632 -1.8082  0.9085  2.0881
10145TIP3    H251851   1.634   6.307  12.593 -0.4386 -2.1684 -0.8687
10146TIP3   OH251852   4.160   6.706  10.721 -0.0111  0.0892  0.0966
10146TIP3    H151853   4.144   6.613  10.735  2.9032 -0.5743 -0.3182
10146TIP3    H251854   4.152   6.746  10.808  1.5555 -1.0902  0.8243
10147TIP3   OH251855   0.085   2.663   1.919 -0.3545  0.2038  0.0127
10147TIP3    H151856   0.079   2.758   1.931  1.7636  0.1669  2.4070
10147TIP3    H251857   0.024   2.627   1.983 -0.8885 -0.0827 -0.6442
10148TIP3   OH251858   5.923   4.854  15.344 -0.1888 -0.0617 -0.0465
10148TIP3    H151859   6.013   4.875  15.321  0.2731 -0.6278  1.1353
10148TIP3    H251860   5.911   4.890  15.432 -2.5671  3.9602 -1.7328
10149TIP3   OH251861   2.971   1.431   0.112 -0.2929  0.4808 -0.1983
10149TIP3    H151862   2.905   1.481   0.160 -0.7300  0.0485 -0.3340
10149TIP3    H251863   2.959   1.457   0.021  0.0743  0.7897 -0.1590
10150TIP3   OH251864   6.555   1.341   4.213  0.3072 -0.5212 -0.3289
10150TIP3    H151865   6.526   1.347   4.122  0.9221 -0.7081 -0.5363
10150TIP3    H251866   6.526   1.423   4.253 -2.5533 -1.5926  0.0650
10151TIP3   OH251867   6.373   0.220  16.407 -0.0269 -0.5376 -0.6582
10151TIP3    H151868   6.396   0.287  16.342  0.0244 -0.3047 -0.4016
10151TIP3    H251869   6.457   0.193  16.444  0.1883 -2.2933 -2.2477
10152TIP3   OH251870   0.298   5.026   2.391 -0.0766 -0.6770 -0.1140
10152TIP3    H151871   0.299   4.936   2.357  1.2224 -0.1505 -1.5716
10152TIP3    H251872   0.361   5.025   2.463 -0.2226 -0.9683  0.0152
10153TIP3   OH251873   1.077   5.451  13.439 -0.5698 -0.0409  0.4269
10153TIP3    H151874   1.115   5.464  13.526  0.0828 -1.0377  0.2989
10153TIP3    H251875   1.033   5.534  13.420 -0.4089  0.3209  1.5481
10154TIP3   OH251876   5.494   5.094   1.540  0.7808  0.1384  0.3311
10154TIP3    H151877   5.502   5.163   1.605 -0.1822 -0.3516  0.9943
10154TIP3    H251878   5.506   5.138   1.456  1.9930  0.7872  0.8293
10155TIP3   OH251879   5.437   0.023   1.996 -0.4407  0.1374  0.4954
10155TIP3    H151880   5.377   0.034   1.922 -2.6050 -0.6859  2.0025
10155TIP3    H251881   5.423   0.102   2.049 -0.6280 -0.3013  1.1178
10156TIP3   OH251882   3.713   1.328   0.212  0.2688 -0.0452 -0.8203
10156TIP3    H151883   3.771   1.383   0.160  0.6937  0.4531  0.1483
10156TIP3    H251884   3.755   1.325   0.299 -0.4907 -0.7227 -0.4675
10157TIP3   OH251885   4.923   3.326  16.787 -0.0420 -0.2442 -0.5713
10157TIP3    H151886   4.891   3.256  16.845 -0.2588  0.6404  0.4164
10157TIP3    H251887   4.843   3.373  16.762  0.2753  0.8477  0.3943
10158TIP3   OH251888   3.571   3.945   2.877  0.2583 -0.2499 -0.4872
10158TIP3    H151889   3.476   3.950   2.883  0.1730  1.5400 -2.1555
10158TIP3    H251890   3.587   3.882   2.807  0.0932  1.6698 -2.3907
10159TIP3   OH251891   4.187   3.492   3.956 -0.5182 -0.4132  0.0069
10159TIP3    H151892   4.180   3.505   3.861  0.9443 -0.4824 -0.1205
10159TIP3    H251893   4.096   3.479   3.985 -0.9045 -1.3746 -1.5202
10160TIP3   OH251894   2.557   5.575  11.843 -0.4425  0.0239 -0.1863
10160TIP3    H151895   2.483   5.625  11.878 -0.6665  0.3213 -1.0657
10160TIP3    H251896   2.589   5.627  11.769  1.8911  0.8858  1.3246
10161TIP3   OH251897   6.447   5.403  11.994  0.5648 -0.3954 -0.2529
10161TIP3    H151898   6.420   5.495  11.994 -0.6674 -0.7299  0.5924
10161TIP3    H251899   6.513   5.398  11.925 -0.9567  0.6657 -1.8851
10162TIP3   OH251900   4.165   3.279  12.940 -0.0918  0.0953 -0.2502
10162TIP3    H151901   4.095   3.240  12.888 -0.0684 -1.0514  0.5425
10162TIP3    H251902   4.121   3.342  12.996 -0.5604 -0.9068  0.5248
10163TIP3   OH251903   1.211   2.672  13.486  0.4407  0.1479  0.4942
10163TIP3    H151904   1.284   2.698  13.429  0.2896 -0.0244  0.2228
10163TIP3    H251905   1.214   2.736  13.558  0.3107  0.6804  0.0314
10164TIP3   OH251906   2.229   0.870   4.164 -0.0293 -0.0236 -0.6290
10164TIP3    H151907   2.187   0.953   4.187 -1.4119 -1.2561  1.5981
10164TIP3    H251908   2.306   0.896   4.114 -0.1795  2.6357  0.3526
10165TIP3   OH251909   0.070   1.958   5.664  0.3990 -0.5549  0.3527
10165TIP3    H151910   0.038   1.969   5.574 -1.2979  0.0844  0.9995
10165TIP3    H251911   0.013   1.891   5.702  1.1720 -0.8964  0.9379
10166TIP3   OH251912   2.606   5.869   5.578 -0.0689  0.6472  0.1218
10166TIP3    H151913   2.616   5.828   5.492  0.9102 -0.4185  0.7101
10166TIP3    H251914   2.666   5.944   5.575  1.8834 -0.8029  0.6736
10167TIP3   OH251915   5.866   2.971   2.504  1.1634 -0.0127 -0.0009
10167TIP3    H151916   5.789   2.954   2.450 -0.8217  1.7748  2.0907
10167TIP3    H251917   5.884   2.887   2.546 -1.9299  0.2506  2.1580
10168TIP3   OH251918   1.283   1.126  11.408 -0.1369 -0.1124  0.3081
10168TIP3    H151919   1.378   1.136  11.396 -0.0447 -1.6657 -0.5964
10168TIP3    H251920   1.263   1.176  11.487  1.1161  1.7772 -0.5030
10169TIP3   OH251921   6.704   4.669   3.016 -0.4712  0.8138  0.1991
10169TIP3    H151922   6.744   4.683   2.931 -1.7306 -0.5590 -0.6633
10169TIP3    H251923   6.667   4.754   3.040 -2.7193  0.6038 -2.0712
10170TIP3   OH251924   2.929   4.020  16.827  0.1232 -0.1853 -0.8081
10170TIP3    H151925   3.016   3.981  16.835  0.1291 -0.1057 -0.4832
10170TIP3    H251926   2.932   4.096  16.884 -0.5426 -0.8472  0.1381
10171TIP3   OH251927   1.845   4.143  13.686  0.4999 -0.2797  0.0685
10171TIP3    H151928   1.921   4.130  13.629 -0.7528 -0.9358 -1.5281
10171TIP3    H251929   1.770   4.140  13.627 -0.7852  0.4334  1.5916
10172TIP3   OH251930   4.488   6.003   0.525  0.1539 -0.0600  0.6525
10172TIP3    H151931   4.420   6.068   0.506  0.8119  0.1590 -1.2102
10172TIP3    H251932   4.561   6.053   0.558  0.4349  0.1078 -0.1831
10173TIP3   OH251933   5.681   1.196  15.963 -0.2065 -0.2573 -0.0027
10173TIP3    H151934   5.713   1.263  15.903 -0.9013 -0.6469 -0.8417
10173TIP3    H251935   5.681   1.238  16.049 -0.5162  0.7770 -0.4950
10174TIP3   OH251936   5.375   1.015   4.873  0.9537  0.3233 -0.1624
10174TIP3    H151937   5.401   1.107   4.864 -0.0957  0.7359  0.7770
10174TIP3    H251938   5.429   0.982   4.945  1.0448  0.3209 -0.2312
10175TIP3   OH251939   3.393   6.278   5.792 -0.4048 -0.4011  0.5141
10175TIP3    H151940   3.385   6.319   5.877 -0.2194  2.6384 -0.8209
10175TIP3    H251941   3.452   6.204   5.806  0.7020  0.8281  2.7448
10176TIP3   OH251942   2.385   6.419  14.045 -0.0636 -0.2390  0.5119
10176TIP3    H151943   2.411   6.327  14.044  0.0908 -0.1954 -1.1840
10176TIP3    H251944   2.351   6.436  13.958 -2.4723  0.6765  1.5305
10177TIP3   OH251945   2.168   3.997  16.324 -0.1888 -0.0846 -0.0710
10177TIP3    H151946   2.215   4.039  16.251  0.1352 -0.1063  0.1216
10177TIP3    H251947   2.171   4.061  16.394  1.2506 -0.8210  0.5877
10178TIP3   OH251948   2.313   5.702  15.312 -0.1085 -0.4442  0.1049
10178TIP3    H151949   2.237   5.679  15.257 -1.5240 -0.2831  1.8920
10178TIP3    H251950   2.367   5.758  15.256 -1.1419 -0.8032 -1.3277
10179TIP3   OH251951   0.920   2.355   1.875 -0.5607  0.3335 -0.3301
10179TIP3    H151952   0.989   2.318   1.818  0.5325  2.2787 -0.3467
10179TIP3    H251953   0.955   2.344   1.963 -1.5930 -1.3204 -0.0816
10180TIP3   OH251954   3.896   3.094  13.306  0.6223  0.3268  0.3495
10180TIP3    H151955   3.925   3.162  13.367  1.2488 -0.5654  1.0808
10180TIP3    H251956   3.977   3.052  13.277  0.3267  0.6695 -1.0402
10181TIP3   OH251957   6.305   0.832   5.703 -0.4451 -0.1167 -0.3632
10181TIP3    H151958   6.399   0.815   5.711  0.0271  1.6800 -1.4791
10181TIP3    H251959   6.275   0.846   5.793 -0.2022 -3.0524  0.2701
10182TIP3   OH251960   6.414   0.936  12.319 -0.6508 -0.2157 -0.2349
10182TIP3    H151961   6.343   0.899  12.372 -0.1319  0.6359  1.1370
10182TIP3    H251962   6.452   1.003  12.376 -0.6208  1.3814 -2.0498
10183TIP3   OH251963   0.196   1.372   1.189 -0.7298 -0.0365 -0.0556
10183TIP3    H151964   0.262   1.321   1.142 -0.4375 -1.2962  1.6492
10183TIP3    H251965   0.246   1.434   1.242 -0.8767 -0.9453  1.1848
10184TIP3   OH251966   4.079   1.902   4.834  0.1623 -0.2066 -0.2634
10184TIP3    H151967   4.112   1.964   4.900  1.4535  0.6407 -1.6301
10184TIP3    H251968   4.046   1.828   4.885  0.2738  0.7966  1.3567
10185TIP3   OH251969   5.042   5.440  17.024  0.5190 -0.3074  0.2310
10185TIP3    H151970   4.952   5.410  17.012  0.1544  0.6262  0.5723
10185TIP3    H251971   5.092   5.360  17.041  0.0441 -1.0258 -1.4888
10186TIP3   OH251972   2.497   5.397  14.429 -0.0028  0.1585  0.5211
10186TIP3    H151973   2.439   5.455  14.380  0.6426 -0.5960 -1.2427
10186TIP3    H251974   2.558   5.455  14.474 -0.8915  0.8945  0.8007
10187TIP3   OH251975   5.730   0.336  13.358  0.8517 -0.3098 -0.0430
10187TIP3    H151976   5.748   0.331  13.265 -0.5834 -2.6028 -0.2783
10187TIP3    H251977   5.670   0.263  13.375 -0.8056  1.4411  2.2476
10188TIP3   OH251978   4.568   5.397   4.540 -0.6775 -0.0760 -0.3620
10188TIP3    H151979   4.552   5.450   4.618  1.9158  0.1765  0.0828
10188TIP3    H251980   4.540   5.309   4.564 -0.1068  0.0410  0.8108
10189TIP3   OH251981   2.134   2.946   0.098  0.6081  0.2358 -0.6856
10189TIP3    H151982   2.219   2.948   0.054  0.7117  0.8839 -0.4602
10189TIP3    H251983   2.093   3.028   0.073 -0.1188 -0.2460 -1.1129
10190TIP3   OH251984   4.833   0.781  12.219 -0.5523  0.0758 -0.0842
10190TIP3    H151985   4.899   0.760  12.285 -0.1521  0.9919 -0.1843
10190TIP3    H251986   4.750   0.751  12.258 -0.1983 -0.2441  0.4277
10191TIP3   OH251987   3.854   3.718  16.773  0.2051 -0.3192 -0.5255
10191TIP3    H151988   3.912   3.706  16.849 -1.1857 -1.8139  0.3799
10191TIP3    H251989   3.874   3.643  16.717  0.8156  0.4717 -1.3838
10192TIP3   OH251990   5.966   2.907  12.821 -0.0846  0.2985  0.3381
10192TIP3    H151991   5.878   2.906  12.860 -0.3731 -0.9835 -0.3089
10192TIP3    H251992   5.983   3.000  12.804 -2.0831  0.4394 -1.2223
10193TIP3   OH251993   5.700   5.982   0.610  0.3263 -0.1449  0.2474
10193TIP3    H151994   5.692   5.994   0.705  1.2159  0.0764  0.3039
10193TIP3    H251995   5.794   5.986   0.593  0.3996 -2.5961 -0.3272
10194TIP3   OH251996   1.235   4.951   0.028 -0.2954  0.0863  0.7342
10194TIP3    H151997   1.180   5.017   0.070 -1.1862  0.7913 -1.4399
10194TIP3    H251998   1.322   4.968   0.064 -0.2728  3.1441 -0.4305
10195TIP3   OH251999   0.109   3.126  13.608 -0.0315  0.4626 -0.1951
10195TIP3    H152000   0.079   3.048  13.562 -0.7886  1.2717 -1.1189
10195TIP3    H252001   0.194   3.102  13.644  1.1308  0.1261 -2.9630
10196TIP3   OH252002   3.483   5.184  11.955  0.1934  0.4239 -0.2765
10196TIP3    H152003   3.484   5.092  11.983 -2.2727  1.1471  2.6276
10196TIP3    H252004   3.408   5.190  11.897 -0.0244  0.7207  0.0340
10197TIP3   OH252005   2.597   1.651   6.108  0.2644  0.1253 -0.4602
10197TIP3    H152006   2.535   1.709   6.065  0.1258  0.8007  0.6117
10197TIP3    H252007   2.632   1.596   6.038  0.2453  1.3583 -1.4583
10198TIP3   OH252008   0.302   6.690   6.623  0.0370 -0.9659 -0.3097
10198TIP3    H152009   0.241   6.648   6.563  0.3384 -1.0591 -0.5553
10198TIP3    H252010   0.299   6.783   6.598 -0.7413 -0.8107  0.3336
10199TIP3   OH252011   1.379   2.170   0.589 -0.1450  0.1423 -0.1864
10199TIP3    H152012   1.391   2.131   0.502  0.7371  0.3282 -0.1581
10199TIP3    H252013   1.310   2.117   0.629 -0.5328  0.0234 -0.9764
10200TIP3   OH252014   6.333   5.283   6.969  0.1327 -0.2523 -1.1221
10200TIP3    H152015   6.395   5.231   7.020 -1.4572  0.1822  1.4104
10200TIP3    H252016   6.378   5.367   6.956  0.6213 -0.4242 -0.5821
10201TIP3   OH252017   4.479   4.639   4.956  0.4127 -0.2125  0.1914
10201TIP3    H152018   4.490   4.726   4.919  2.0368  0.2329  1.5964
10201TIP3    H252019   4.385   4.622   4.950 -0.0070  1.8418  0.3109
10202TIP3   OH252020   6.462   5.186   1.526 -0.3167 -0.7021 -0.3884
10202TIP3    H152021   6.401   5.125   1.567  0.9205 -1.2688  0.6728
10202TIP3    H252022   6.444   5.270   1.569 -1.4418 -0.4797 -1.2491
10203TIP3   OH252023   5.875   3.910   3.986 -0.7564 -0.0269  0.3493
10203TIP3    H152024   5.914   3.829   4.020 -0.9882 -0.7370 -0.9679
10203TIP3    H252025   5.912   3.979   4.040  0.6034 -0.8820  0.5753
10204TIP3   OH252026   2.754   4.844  11.494 -0.0829  0.2202  0.0046
10204TIP3    H152027   2.745   4.859  11.400 -2.2103  0.8828  0.2513
10204TIP3    H252028   2.755   4.931  11.533 -0.1974 -0.0560  0.6528
10205TIP3   OH252029   1.172   5.260   3.990  0.3686 -0.0394  0.1063
10205TIP3    H152030   1.097   5.228   4.040  0.3957 -0.4745 -0.1275
10205TIP3    H252031   1.139   5.337   3.944 -0.2831 -0.9113 -0.9405
10206TIP3   OH252032   0.654   2.038  12.370  0.0086  0.7583 -0.1460
10206TIP3    H152033   0.619   2.001  12.289 -0.6740 -0.6353  0.7698
10206TIP3    H252034   0.738   1.994  12.382 -1.0985 -1.0660  1.2903
10207TIP3   OH252035   6.159   1.150   2.085 -0.5879  0.1315  0.2180
10207TIP3    H152036   6.219   1.077   2.102 -0.0948  0.5227  0.1624
10207TIP3    H252037   6.210   1.212   2.034  0.0450  1.9569  2.8378
10208TIP3   OH252038   2.271   1.540   0.985  0.2703  0.1943 -0.1865
10208TIP3    H152039   2.207   1.591   0.935  0.7449 -0.5585 -1.6093
10208TIP3    H252040   2.234   1.452   0.989  0.0715  0.3196  1.1297
10209TIP3   OH252041   1.858   0.673  17.044  0.0362  0.1276 -0.1112
10209TIP3    H152042   1.870   0.694  16.951 -1.7444 -1.8711 -0.8813
10209TIP3    H252043   1.916   0.599  17.059 -0.1406  0.0511  0.1968
10210TIP3   OH252044   2.677   3.187   1.239  0.0074  0.4500  0.1322
10210TIP3    H152045   2.626   3.109   1.218  1.3923 -0.6851  0.7851
10210TIP3    H252046   2.641   3.217   1.322  0.6578 -0.6284  0.8338
10211TIP3   OH252047   3.849   2.488   0.828 -0.3863 -0.6110 -0.0230
10211TIP3    H152048   3.772   2.544   0.832 -0.7731 -1.1772  0.7497
10211TIP3    H252049   3.914   2.540   0.782 -0.6416  0.5965  0.9229
10212TIP3   OH252050   3.128   6.615  14.251 -0.6803  0.6412  0.1905
10212TIP3    H152051   3.037   6.633  14.277 -1.8654 -0.2882 -2.8394
10212TIP3    H252052   3.139   6.662  14.168  1.6458  0.7316  0.4898
10213TIP3   OH252053   1.872   6.318  15.970  0.2339  0.2417 -0.4764
10213TIP3    H152054   1.785   6.357  15.966  0.6946  1.7288  1.9301
10213TIP3    H252055   1.861   6.232  15.928 -2.2008  0.6507 -0.8523
10214TIP3   OH252056   6.279   5.247  15.768 -0.1591 -0.1356  0.1622
10214TIP3    H152057   6.314   5.180  15.709  1.1208  0.9785 -0.4053
10214TIP3    H252058   6.225   5.198  15.830  2.8261 -2.1071  1.4389
10215TIP3   OH252059   3.661   2.663   0.098  0.0064 -0.2374 -0.1718
10215TIP3    H152060   3.571   2.632   0.090 -1.3731  2.3440  2.8479
10215TIP3    H252061   3.708   2.591   0.139 -1.2598 -0.8813  0.2039
10216TIP3   OH252062   4.383   1.569  16.361  0.1765 -0.9225 -0.0357
10216TIP3    H152063   4.362   1.594  16.451 -1.5369  0.3913 -0.7395
10216TIP3    H252064   4.304   1.525  16.329 -0.7772  1.8917 -1.9938
10217TIP3   OH252065   5.953   1.342   0.686  0.3616  0.1311  0.6145
10217TIP3    H152066   5.915   1.301   0.608 -2.5418  0.9959  1.4596
10217TIP3    H252067   6.036   1.379   0.655  0.0893 -0.9408 -1.6406
10218TIP3   OH252068   3.686   0.099   5.205 -0.5603  0.4423  1.0985
10218TIP3    H152069   3.616   0.127   5.146 -0.2866 -0.4767  0.3072
10218TIP3    H252070   3.706   0.009   5.177 -0.8389 -0.2519  2.9795
10219TIP3   OH252071   2.171   0.986   0.021 -0.2787  0.0741  0.2085
10219TIP3    H152072   2.180   1.016   0.112  0.5849  2.0147 -0.4790
10219TIP3    H252073   2.103   1.042  -0.016 -1.6200 -1.6117 -0.0341
10220TIP3   OH252074   6.008   6.309  15.144  0.0766  0.7738 -0.2617
10220TIP3    H152075   6.090   6.305  15.193 -1.0993 -4.0194  1.9046
10220TIP3    H252076   5.943   6.340  15.207 -0.4019  0.7666 -0.7453
10221TIP3   OH252077   6.029   4.549  11.931 -0.6557  0.8374 -0.5849
10221TIP3    H152078   6.067   4.633  11.904 -2.4646  1.7835 -0.3126
10221TIP3    H252079   5.936   4.568  11.946 -1.2685 -1.3830 -1.2223
10222TIP3   OH252080   4.638   3.947   3.725  0.0772 -0.1296  0.0786
10222TIP3    H152081   4.582   3.924   3.651 -0.5472  0.5994  0.3169
10222TIP3    H252082   4.581   3.996   3.784  0.3672 -1.3153  1.3967
10223TIP3   OH252083   0.694   0.469   1.111 -0.0739  0.4389  0.6050
10223TIP3    H152084   0.652   0.487   1.195  2.1493  0.7966  1.7143
10223TIP3    H252085   0.677   0.376   1.095  1.8420 -0.3896  2.9286
10224TIP3   OH252086   4.718   5.191   3.566 -0.2709  0.2134  0.7198
10224TIP3    H152087   4.737   5.211   3.657  0.2628  1.4897  0.3482
10224TIP3    H252088   4.803   5.167   3.529 -0.2763  0.8485  0.2847
10225TIP3   OH252089   1.976   5.304  11.427  0.2863 -0.0320 -0.2943
10225TIP3    H152090   2.070   5.317  11.416  0.1773 -0.4777 -2.0272
10225TIP3    H252091   1.962   5.212  11.407 -0.4321 -0.1630  0.7320
10226TIP3   OH252092   2.530   6.682   0.602 -0.6828  0.1309  0.2016
10226TIP3    H152093   2.540   6.657   0.694 -1.5835  1.5856  0.7340
10226TIP3    H252094   2.484   6.609   0.562 -0.3214 -0.4995  0.9155
10227TIP3   OH252095   5.437   2.268  11.122  0.1547 -0.2874 -0.5278
10227TIP3    H152096   5.509   2.211  11.151  0.6773  0.7435  0.2948
10227TIP3    H252097   5.452   2.281  11.029  0.8565 -0.3644 -0.4338
10228TIP3   OH252098   3.485   4.892   0.623  0.5786 -0.4354 -0.0738
10228TIP3    H152099   3.526   4.950   0.687  0.3407  0.3748 -0.6388
10228TIP3    H252100   3.500   4.804   0.657  2.4773 -0.1519 -0.0969
10229TIP3   OH252101   0.832   3.202   3.646  0.3994  0.1383  0.3985
10229TIP3    H152102   0.901   3.148   3.685 -0.6707 -0.6919  1.1814
10229TIP3    H252103   0.767   3.140   3.614  0.1288  0.8991 -0.6090
10230TIP3   OH252104   1.640   5.458  14.547 -0.4631 -0.2016  0.5796
10230TIP3    H152105   1.592   5.541  14.554 -1.6404 -0.9838  2.6145
10230TIP3    H252106   1.730   5.480  14.569 -0.0194  1.0646 -2.0660
10231TIP3   OH252107   4.225   5.002  13.858 -0.0458  0.1181  0.2560
10231TIP3    H152108   4.290   5.072  13.857  0.1571 -0.0666  0.3997
10231TIP3    H252109   4.258   4.939  13.923  0.2940 -0.6009 -0.5887
10232TIP3   OH252110   1.918   1.083  12.515 -0.2629  0.6828  0.0436
10232TIP3    H152111   1.837   1.089  12.565 -0.0247  0.7493  0.4194
10232TIP3    H252112   1.955   0.998  12.538  0.1773  0.9884  0.4864
10233TIP3   OH252113   2.615   4.892  14.539  0.2692 -0.0127  0.1725
10233TIP3    H152114   2.625   4.983  14.509  0.0610 -0.2882 -0.7641
10233TIP3    H252115   2.698   4.872  14.583  0.4307  0.5342  0.1248
10234TIP3   OH252116   5.253   4.743  13.105  0.3245  0.5358  0.4311
10234TIP3    H152117   5.252   4.690  13.184  0.5898 -2.2374 -1.3083
10234TIP3    H252118   5.344   4.772  13.097  0.3003  0.8067  1.1088
10235TIP3   OH252119   6.329   4.659  10.482 -0.1657  0.3046  0.1169
10235TIP3    H152120   6.250   4.690  10.436 -1.3686  0.5326  2.2003
10235TIP3    H252121   6.309   4.568  10.503  0.9073 -0.1790 -0.8636
10236TIP3   OH252122   5.196   2.332  14.564 -0.0849  0.4128 -0.0166
10236TIP3    H152123   5.203   2.263  14.498 -1.2598  0.0253  0.2414
10236TIP3    H252124   5.106   2.363  14.556  0.4636  2.0265 -0.2242
10237TIP3   OH252125   1.846   1.803  13.437 -0.0364  0.3411 -0.4394
10237TIP3    H152126   1.866   1.718  13.477 -0.0992  0.1990 -0.7027
10237TIP3    H252127   1.843   1.864  13.510 -0.4036  0.0376 -0.1953
10238TIP3   OH252128   0.146   3.878   3.203  0.2551 -0.2834  0.5530
10238TIP3    H152129   0.141   3.801   3.146  3.8726  1.5208 -2.6793
10238TIP3    H252130   0.061   3.921   3.192 -0.6599 -2.1294 -0.1276
10239TIP3   OH252131   1.626   2.321  11.133  0.2767 -0.0224  0.5330
10239TIP3    H152132   1.648   2.252  11.071  0.7616  0.9923 -0.4574
10239TIP3    H252133   1.686   2.308  11.207  2.6721  1.2156 -1.0459
10240TIP3   OH252134   2.441   6.186   0.667 -0.2455 -0.3057 -0.0234
10240TIP3    H152135   2.412   6.104   0.627 -1.5558  1.1592 -2.3191
10240TIP3    H252136   2.361   6.223   0.706  0.3248 -0.1161  0.9828
10241TIP3   OH252137   3.999   6.267  15.143  0.3159 -0.1778 -0.2039
10241TIP3    H152138   3.948   6.187  15.129 -1.0044 -0.0339  3.0187
10241TIP3    H252139   4.036   6.287  15.057 -2.3051 -2.2006 -1.9558
10242TIP3   OH252140   4.703   1.218  17.163 -0.1151 -0.0239 -0.4111
10242TIP3    H152141   4.777   1.269  17.197 -1.2189  0.9444  0.6245
10242TIP3    H252142   4.693   1.246  17.072  1.3698 -0.8777 -0.8737
10243TIP3   OH252143   1.428   1.977  13.956 -0.0716  0.4137 -0.5188
10243TIP3    H152144   1.492   2.047  13.944  0.6098 -0.2695 -0.9277
10243TIP3    H252145   1.380   2.002  14.035  0.8454  0.8132 -0.0732
10244TIP3   OH252146   2.786   0.553  16.986  0.4646 -0.5093 -0.6920
10244TIP3    H152147   2.775   0.468  16.945  0.3513 -0.4465 -0.7919
10244TIP3    H252148   2.827   0.607  16.918 -0.9248 -0.0306 -1.1794
10245TIP3   OH252149   6.055   3.939  16.659  0.1874  0.2923  0.0234
10245TIP3    H152150   5.990   3.965  16.725 -2.4075 -0.4594 -2.0971
10245TIP3    H252151   6.086   3.853  16.688 -0.3886  0.2778  0.6225
10246TIP3   OH252152   3.701   0.981  14.697  0.4632  0.6198 -0.3575
10246TIP3    H152153   3.673   0.971  14.787 -0.2204  0.0252 -0.6244
10246TIP3    H252154   3.686   0.895  14.657  5.2685 -0.7365  0.1431
10247TIP3   OH252155   2.476   6.155   1.603 -0.1353 -0.1389 -0.1683
10247TIP3    H152156   2.523   6.152   1.686  0.5906 -2.0495 -0.5790
10247TIP3    H252157   2.412   6.084   1.608 -0.3677 -0.0164 -1.0723
10248TIP3   OH252158   3.446   3.300   4.410 -0.1227  0.4026  0.2248
10248TIP3    H152159   3.419   3.254   4.330  2.9192  1.4191 -1.5580
10248TIP3    H252160   3.514   3.245   4.448 -0.1407  0.8934  0.9928
10249TIP3   OH252161   0.604   0.819   0.290  0.0250  0.1233  0.2874
10249TIP3    H152162   0.672   0.788   0.230 -0.8108  1.4142 -1.3742
10249TIP3    H252163   0.555   0.740   0.314  1.3116 -0.6299  0.5325
10250TIP3   OH252164   2.860   1.912  13.278 -0.4522  0.9811  0.1009
10250TIP3    H152165   2.813   1.971  13.337 -0.2681  1.4829 -0.2447
10250TIP3    H252166   2.922   1.866  13.335  1.2283  2.9956  0.0136
10251TIP3   OH252167   3.142   6.083   2.674 -0.4500 -0.4419 -0.1397
10251TIP3    H152168   3.055   6.103   2.709 -0.6130 -1.7031  0.2183
10251TIP3    H252169   3.158   5.993   2.700  1.0996 -0.1368  0.0456
10252TIP3   OH252170   2.143   3.851  12.399  0.0698  0.7359 -0.2162
10252TIP3    H152171   2.085   3.921  12.427 -0.6085 -0.7189  2.3609
10252TIP3    H252172   2.085   3.776  12.386  1.1605 -0.3711  0.9965
10253TIP3   OH252173   4.114   5.936   0.675 -0.6052 -0.6270  0.0723
10253TIP3    H152174   4.041   5.950   0.615 -0.5892 -1.3543 -0.1254
10253TIP3    H252175   4.073   5.912   0.758 -0.6185  0.0648  0.2689
10254TIP3   OH252176   2.527   4.185  13.533  0.1624  0.2588  0.5673
10254TIP3    H152177   2.474   4.204  13.611 -1.0907  0.3447 -0.2646
10254TIP3    H252178   2.463   4.151  13.470  1.0094  0.9664 -0.6939
10255TIP3   OH252179   6.068   2.946  12.181 -0.2175 -0.3768  0.1208
10255TIP3    H152180   6.037   2.961  12.091  1.9421  0.2483 -0.5773
10255TIP3    H252181   6.084   2.852  12.186 -1.8401 -0.6636  0.4005
10256TIP3   OH252182   3.769   4.905   5.796  0.0476  0.1809  0.1896
10256TIP3    H152183   3.718   4.850   5.855  0.3795  0.2085  0.5067
10256TIP3    H252184   3.855   4.863   5.792  0.6791  1.2878  1.3530
10257TIP3   OH252185   1.957   4.751   4.647 -0.5563  0.4256  0.4813
10257TIP3    H152186   1.999   4.814   4.589  2.2832 -1.6906  0.0414
10257TIP3    H252187   1.972   4.785   4.735  0.5682  0.6216  0.2304
10258TIP3   OH252188   6.453   0.952   0.371 -0.0471  0.0445  0.0015
10258TIP3    H152189   6.427   0.921   0.284 -1.2671  0.0876  0.3378
10258TIP3    H252190   6.383   1.010   0.398  0.6663  0.5921  0.7318
10259TIP3   OH252191   2.078   5.560   5.388  0.0076 -0.1299  0.1070
10259TIP3    H152192   2.151   5.534   5.331  0.4351 -1.3896  1.1702
10259TIP3    H252193   2.120   5.597   5.466 -0.4197 -1.6013  1.0782
10260TIP3   OH252194   1.188   0.785  13.253  0.2096  0.0751 -0.0099
10260TIP3    H152195   1.197   0.808  13.160 -0.1872  0.1923 -0.0211
10260TIP3    H252196   1.103   0.820  13.278 -0.8354 -2.1385 -0.2347
10261TIP3   OH252197   2.651   4.119   1.185  0.5301 -0.1400 -0.8915
10261TIP3    H152198   2.689   4.187   1.239 -0.5897 -0.6816  0.6439
10261TIP3    H252199   2.599   4.166   1.120 -1.6633  0.5236  1.2129
10262TIP3   OH252200   2.771   5.046  12.567  0.1779  0.7146  0.5960
10262TIP3    H152201   2.794   5.128  12.611 -0.2675  0.8824  0.5204
10262TIP3    H252202   2.697   5.012  12.616 -1.2795  1.6440 -0.8687
10263TIP3   OH252203   5.669   1.858  11.533  0.5556 -0.2172  0.5166
10263TIP3    H152204   5.609   1.931  11.520 -1.2194 -1.5549  0.7872
10263TIP3    H252205   5.751   1.887  11.494  0.5474  2.6957  2.3817
10264TIP3   OH252206   4.765   2.104   3.636 -0.5480  0.1235 -0.3096
10264TIP3    H152207   4.720   2.159   3.572 -1.7180 -0.4782 -0.0421
10264TIP3    H252208   4.714   2.023   3.638  0.0567 -0.2542  0.6410
10265TIP3   OH252209   3.097   1.718  14.830 -0.6266 -0.0465 -0.7642
10265TIP3    H152210   3.149   1.648  14.791  0.2271  0.2931 -0.2412
10265TIP3    H252211   3.108   1.792  14.771 -2.0413 -0.4939 -1.6696
10266TIP3   OH252212   5.979   6.272  12.674  0.0811 -0.3824  0.2687
10266TIP3    H152213   6.009   6.236  12.757  0.8665 -2.8657 -0.9876
10266TIP3    H252214   5.894   6.230  12.659  0.5650 -1.0380 -0.7736
10267TIP3   OH252215   0.341   4.624  13.739  0.0114 -0.0362 -0.1270
10267TIP3    H152216   0.262   4.623  13.686 -0.1201 -0.5559  0.0703
10267TIP3    H252217   0.379   4.711  13.725  0.1669 -0.2881 -1.3516
10268TIP3   OH252218   6.288   6.641  16.122  0.1522 -0.2212  0.3162
10268TIP3    H152219   6.258   6.698  16.051 -1.1116 -2.3515 -0.9733
10268TIP3    H252220   6.382   6.630  16.105  0.5481  1.7471  0.8813
10269TIP3   OH252221   6.415   0.052  12.253  0.8617  0.5630 -0.3561
10269TIP3    H152222   6.322   0.048  12.228  0.5691 -1.4296  0.8126
10269TIP3    H252223   6.459   0.002  12.184  0.8371  0.1250 -0.0578
10270TIP3   OH252224   1.745   1.165   0.406  0.3823 -0.1344 -0.5218
10270TIP3    H152225   1.761   1.255   0.434  0.9112 -0.4395  0.2014
10270TIP3    H252226   1.780   1.161   0.317  1.3867  0.0942 -0.1547
10271TIP3   OH252227   6.118   4.777   6.364  0.0124 -0.1757  0.3439
10271TIP3    H152228   6.140   4.733   6.446 -1.7432 -0.7423  0.5395
10271TIP3    H252229   6.049   4.839   6.387 -0.9496 -0.7971 -0.8116
10272TIP3   OH252230   5.668   3.277   0.562  0.2312 -0.3160 -0.1619
10272TIP3    H152231   5.580   3.293   0.527  0.2344  0.2718  0.0841
10272TIP3    H252232   5.722   3.344   0.520  0.3286  0.0762  0.5704
10273TIP3   OH252233   3.981   3.591  10.844 -0.3595 -0.3539 -0.5430
10273TIP3    H152234   4.073   3.618  10.846 -0.2457 -0.7490  1.0627
10273TIP3    H252235   3.937   3.659  10.792  0.7250  0.1709 -0.8069
10274TIP3   OH252236   4.759   2.687  14.638 -0.8733  0.1119  0.4090
10274TIP3    H152237   4.706   2.695  14.718  0.4430 -0.4451  1.3786
10274TIP3    H252238   4.836   2.741  14.655 -1.4581  1.6032 -1.3239
10275TIP3   OH252239   2.780   5.801   4.524  0.1691  0.2913  0.2678
10275TIP3    H152240   2.815   5.841   4.603  1.9989 -0.8771  0.1296
10275TIP3    H252241   2.839   5.831   4.454 -0.7187  0.3816 -0.4579
10276TIP3   OH252242   3.195   5.851   2.200  0.2381 -0.1521  0.6970
10276TIP3    H152243   3.254   5.889   2.134  1.0218 -0.8353  0.9900
10276TIP3    H252244   3.172   5.765   2.166  0.1467 -0.2581  1.0219
10277TIP3   OH252245   5.564   4.216   3.255 -0.4451  0.1948  0.3614
10277TIP3    H152246   5.519   4.285   3.303 -0.1190  2.0220 -1.7920
10277TIP3    H252247   5.497   4.150   3.238 -1.1188  0.6448  1.2243
10278TIP3   OH252248   5.833   1.641  15.284 -0.2028 -0.0759  0.5210
10278TIP3    H152249   5.924   1.617  15.304  0.2511  1.2770  0.2279
10278TIP3    H252250   5.840   1.695  15.205 -1.4590 -1.3285 -0.4892
10279TIP3   OH252251   2.748   4.087  14.620  0.3262 -0.5479 -0.2934
10279TIP3    H152252   2.802   4.140  14.560  0.7108 -0.2377  0.3135
10279TIP3    H252253   2.670   4.065  14.569  0.3339  0.2858 -0.6868
10280TIP3   OH252254   5.072   1.226  15.997 -0.4175 -0.0995 -0.1215
10280TIP3    H152255   5.141   1.221  16.063 -2.0635 -1.0002  1.6302
10280TIP3    H252256   5.092   1.305  15.947  1.6646 -0.1576  0.5233
10281TIP3   OH252257   2.574   2.315   6.260  0.3366 -0.1125 -0.2901
10281TIP3    H152258   2.481   2.297   6.272 -0.0298  2.4400  1.6196
10281TIP3    H252259   2.576   2.390   6.200  1.2541 -0.9167 -1.2961
10282TIP3   OH252260   2.248   5.038   3.977 -0.4678 -0.1522  0.3529
10282TIP3    H152261   2.224   4.956   3.935 -1.9947  1.1229 -1.3886
10282TIP3    H252262   2.293   5.089   3.909 -2.9435  1.9347  0.1224
10283TIP3   OH252263   4.780   1.535   1.159 -0.5253 -0.4442 -0.1573
10283TIP3    H152264   4.851   1.477   1.131 -1.8103 -1.6354 -1.1134
10283TIP3    H252265   4.807   1.622   1.129  1.0112 -0.6655  0.4813
10284TIP3   OH252266   4.093   2.209   0.978 -0.0402 -0.1176 -0.0352
10284TIP3    H152267   4.186   2.207   0.955 -0.1704  0.1336 -0.6301
10284TIP3    H252268   4.072   2.302   0.983 -0.3384 -0.1674 -0.2763
10285TIP3   OH252269   1.394   0.442  16.761 -0.1245  0.5386  0.2726
10285TIP3    H152270   1.383   0.464  16.854  2.2319 -0.2555  0.8187
10285TIP3    H252271   1.483   0.408  16.755 -0.1559  0.6940 -2.3323
10286TIP3   OH252272   4.196   1.029  12.251 -0.2072 -0.1030  0.2154
10286TIP3    H152273   4.240   1.066  12.327  0.7000  0.3779 -0.5292
10286TIP3    H252274   4.230   0.940  12.244  2.3484  0.8851 -1.5605
10287TIP3   OH252275   5.621   4.948  16.529  0.2574 -0.1260 -0.2420
10287TIP3    H152276   5.578   5.034  16.527 -0.0814 -0.3024 -1.4020
10287TIP3    H252277   5.678   4.952  16.606 -1.6221  0.2080  1.1971
10288TIP3   OH252278   1.450   0.332  13.581  0.4792 -0.7107 -0.5350
10288TIP3    H152279   1.465   0.402  13.644  1.0069 -2.8277  1.8328
10288TIP3    H252280   1.520   0.342  13.517 -0.0050  1.4375 -0.8183
10289TIP3   OH252281   3.520   3.411   2.732 -0.3526 -0.0631  0.3211
10289TIP3    H152282   3.569   3.329   2.739  2.1223  1.2239 -0.7640
10289TIP3    H252283   3.486   3.413   2.643 -1.8882 -0.6259  0.8571
10290TIP3   OH252284   0.894   5.758   5.638  0.1510  0.2250  0.2740
10290TIP3    H152285   0.849   5.675   5.623 -0.3962  0.3060  1.3960
10290TIP3    H252286   0.986   5.739   5.620  0.0492 -0.6644  0.6326
10291TIP3   OH252287   0.984   5.211  10.631 -0.0640  0.2121 -0.1788
10291TIP3    H152288   1.020   5.124  10.619  2.2967  0.9876  0.6576
10291TIP3    H252289   0.891   5.197  10.647 -0.0704 -1.9851 -1.7128
10292TIP3   OH252290   4.155   6.219  15.939  0.3934 -0.0219 -0.5092
10292TIP3    H152291   4.120   6.266  15.863  0.3443 -0.8954 -1.0424
10292TIP3    H252292   4.194   6.139  15.902  2.8591  0.8399  0.0584
10293TIP3   OH252293   4.288   1.563   3.314 -0.2369  0.4095  0.4176
10293TIP3    H152294   4.289   1.641   3.259  0.6218  0.1227  0.0022
10293TIP3    H252295   4.197   1.534   3.313 -0.0359 -0.3927 -2.0415
10294TIP3   OH252296   3.384   2.045  12.272 -0.2613  0.6933 -0.3418
10294TIP3    H152297   3.393   1.961  12.227  0.5173  0.5244  0.1052
10294TIP3    H252298   3.347   2.104  12.206 -0.0186  0.2160 -0.9148
10295TIP3   OH252299   3.787   2.241   2.170  0.4967  0.3862 -0.4051
10295TIP3    H152300   3.774   2.324   2.214  3.7969 -0.0833  1.8999
10295TIP3    H252301   3.797   2.263   2.078  1.0508  2.5313  0.1244
10296TIP3   OH252302   0.575   1.081   1.032 -0.4116 -0.4098 -0.2001
10296TIP3    H152303   0.524   1.005   1.005 -3.2686  1.5216 -0.7271
10296TIP3    H252304   0.573   1.078   1.128 -2.8727  0.3279 -0.1559
10297TIP3   OH252305   0.377   0.034  16.682 -0.3949 -0.1663  0.0873
10297TIP3    H152306   0.372  -0.059  16.660 -0.9767  0.0287 -0.6151
10297TIP3    H252307   0.352   0.037  16.774  0.3117 -0.7789  0.3153
10298TIP3   OH252308   1.410   4.255  12.383 -0.4153  0.0788  0.2586
10298TIP3    H152309   1.335   4.293  12.428  0.1836  0.0216  1.3634
10298TIP3    H252310   1.461   4.214  12.453  1.6960  1.8453 -0.1207
10299TIP3   OH252311   6.528   0.021   0.106 -0.1982 -0.1036 -0.7824
10299TIP3    H152312   6.514  -0.012   0.018  0.0904 -0.7582 -0.5844
10299TIP3    H252313   6.540  -0.057   0.160  2.5671  0.3152 -0.6388
10300TIP3   OH252314   2.721   5.842  14.611 -0.3249 -0.0208  0.8464
10300TIP3    H152315   2.677   5.917  14.651 -0.4413 -0.5958  1.8183
10300TIP3    H252316   2.812   5.851  14.638  0.0661  0.8321 -0.6608
10301TIP3   OH252317   1.470   3.475  15.433  0.0727  0.0391 -0.1988
10301TIP3    H152318   1.420   3.537  15.381  1.1828 -0.0976 -1.4750
10301TIP3    H252319   1.506   3.527  15.505 -0.5641  0.4534 -0.1717
10302TIP3   OH252320   1.808   0.554   1.010 -0.5149  0.4442 -0.3590
10302TIP3    H152321   1.766   0.582   0.929  0.4820  1.7611 -0.4482
10302TIP3    H252322   1.901   0.548   0.989 -0.4908 -1.4933  0.0941
10303TIP3   OH252323   3.371   0.595  14.626  0.0822  0.1505  0.3179
10303TIP3    H152324   3.372   0.537  14.702 -2.7832 -2.1972 -1.2561
10303TIP3    H252325   3.331   0.676  14.658  1.2158  0.1620  1.8093
10304TIP3   OH252326   5.743   4.732  13.865  0.6051 -0.7221  0.2892
10304TIP3    H152327   5.795   4.686  13.931  1.3374  1.5447  1.3823
10304TIP3    H252328   5.807   4.780  13.813 -0.0968 -1.2786 -1.1400
10305TIP3   OH252329   5.332   0.735   2.943 -0.6887 -0.1700 -0.3924
10305TIP3    H152330   5.241   0.716   2.966 -0.8400 -1.1734 -1.6834
10305TIP3    H252331   5.383   0.698   3.015 -1.2739  0.0461  0.1471
10306TIP3   OH252332   4.503   3.887   5.966 -0.6057  0.4507 -0.2134
10306TIP3    H152333   4.540   3.975   5.970 -0.9986  0.6032  0.0772
10306TIP3    H252334   4.564   3.832   6.015 -1.0509  0.8020  0.7439
10307TIP3   OH252335   3.919   2.894   6.216  0.3494 -0.2595  0.0334
10307TIP3    H152336   3.874   2.904   6.132  0.5956 -0.6584 -0.1495
10307TIP3    H252337   3.983   2.824   6.201 -0.6148 -1.3888  0.9610
10308TIP3   OH252338   3.775   2.187   3.240 -0.0647 -0.1942 -0.7206
10308TIP3    H152339   3.790   2.123   3.169 -2.1944 -3.0413  1.1589
10308TIP3    H252340   3.703   2.241   3.208 -0.5969 -1.0552 -1.0297
10309TIP3   OH252341   2.447   4.934  14.974 -0.3227  0.5339 -0.2214
10309TIP3    H152342   2.453   4.859  14.915  0.5637  1.8219 -1.8539
10309TIP3    H252343   2.403   4.900  15.052  1.3955 -2.0419 -0.2799
10310TIP3   OH252344   0.546   5.139  16.050 -0.3005  0.4792  0.2684
10310TIP3    H152345   0.639   5.163  16.054 -0.0721 -0.4261  0.7566
10310TIP3    H252346   0.505   5.191  16.119  0.0854 -0.1046  0.9509
10311TIP3   OH252347   4.200   3.241  13.401 -0.2141 -0.4031  0.1910
10311TIP3    H152348   4.126   3.267  13.455 -0.2167  0.4241 -0.1958
10311TIP3    H252349   4.221   3.319  13.350 -1.7528 -1.7905 -2.8098
10312TIP3   OH252350   1.186   2.277  12.420 -0.0186  0.6728  0.5650
10312TIP3    H152351   1.203   2.237  12.334 -1.0639  0.3388  0.4944
10312TIP3    H252352   1.268   2.318  12.444  0.0080  1.6657 -1.0870
10313TIP3   OH252353   4.774   5.273  16.576 -0.6273 -0.0471 -0.1232
10313TIP3    H152354   4.716   5.200  16.554 -2.4002  1.1674  0.2573
10313TIP3    H252355   4.788   5.318  16.493  0.0395 -0.4934 -0.2642
10314TIP3   OH252356   3.768   1.994  15.624 -0.1878  0.3426 -0.1819
10314TIP3    H152357   3.686   2.037  15.602  0.3948  0.7152 -1.7194
10314TIP3    H252358   3.742   1.910  15.662 -1.2813 -0.6466 -2.9102
10315TIP3   OH252359   5.540   1.777   2.063 -0.9438 -0.3285 -0.0319
10315TIP3    H152360   5.460   1.759   2.013 -0.9999  0.5866 -0.2932
10315TIP3    H252361   5.606   1.796   1.996 -1.1359  1.3851  0.2128
10316TIP3   OH252362   5.860   2.425  15.473 -0.5991 -0.0401  0.0753
10316TIP3    H152363   5.914   2.503  15.483  0.2682 -0.4208 -1.3546
10316TIP3    H252364   5.847   2.393  15.562  0.7205  0.6028  0.5211
10317TIP3   OH252365   3.218   6.224  11.278 -0.3196 -0.2397 -0.3013
10317TIP3    H152366   3.279   6.278  11.229 -1.7746  1.4841 -0.3521
10317TIP3    H252367   3.206   6.271  11.361  1.5860 -2.7312  1.5433
10318TIP3   OH252368   6.077   6.702  14.940 -0.0904 -0.4199 -0.1645
10318TIP3    H152369   6.011   6.639  14.914  0.4808 -0.3238 -1.9591
10318TIP3    H252370   6.161   6.664  14.912  0.3528  0.6490 -0.3670
10319TIP3   OH252371   0.193   0.280   3.567 -0.4708 -0.3549  0.1567
10319TIP3    H152372   0.222   0.369   3.546 -0.2317 -0.4730 -0.0122
10319TIP3    H252373   0.100   0.279   3.541 -0.1435 -0.5522 -1.1043
10320TIP3   OH252374   2.383   5.402  12.010 -0.0323  0.3488 -0.3734
10320TIP3    H152375   2.419   5.432  12.093 -0.5866  2.1902 -0.7460
10320TIP3    H252376   2.434   5.449  11.944 -1.3453  0.9630 -0.9759
10321TIP3   OH252377   3.855   3.240   0.366 -0.2141  0.2988 -0.5454
10321TIP3    H152378   3.818   3.302   0.303  0.0750  0.1465 -0.8691
10321TIP3    H252379   3.805   3.159   0.353 -0.3688  0.3621 -0.3538
10322TIP3   OH252380   6.095   1.080  15.660 -0.3243 -0.1254 -0.3452
10322TIP3    H152381   6.020   1.100  15.717  0.9195  0.5951  1.1123
10322TIP3    H252382   6.143   1.162  15.655  0.1245 -0.4598 -1.6566
10323TIP3   OH252383   0.178   6.557   0.815  0.8245 -0.5184 -0.3068
10323TIP3    H152384   0.087   6.566   0.842  1.6809  1.3742  2.4317
10323TIP3    H252385   0.174   6.511   0.731 -2.5689 -1.0720  0.0115
10324TIP3   OH252386   4.918   0.757   4.201  0.5353  0.6249 -0.3955
10324TIP3    H152387   4.893   0.845   4.229 -1.1701 -0.3605  1.5556
10324TIP3    H252388   4.844   0.726   4.149  1.0578  0.3078 -0.9564
10325TIP3   OH252389   1.756   0.864  11.786 -0.4940 -0.4065  0.0307
10325TIP3    H152390   1.714   0.787  11.824  0.1348  0.4479  2.6649
10325TIP3    H252391   1.807   0.901  11.857  1.0867  1.1722 -1.8035
10326TIP3   OH252392   2.195   3.091  14.074  0.3431  1.0252  0.0599
10326TIP3    H152393   2.103   3.104  14.049  0.1373  1.2426  0.8956
10326TIP3    H252394   2.200   2.999  14.099  0.0774  1.2769  1.0840
10327TIP3   OH252395   0.998   0.488  16.867  0.6815 -0.4134 -0.3146
10327TIP3    H152396   0.980   0.400  16.835  2.1655 -0.5605 -0.8584
10327TIP3    H252397   1.033   0.534  16.790  1.1390  0.2471  0.2771
10328TIP3   OH252398   1.059   6.676  16.017 -0.4184 -0.7193  0.2147
10328TIP3    H152399   1.044   6.584  15.995  0.0351 -0.4548 -1.3667
10328TIP3    H252400   1.053   6.722  15.933  0.4254  0.5443  0.8081
10329TIP3   OH252401   0.503   5.023   3.566  0.0637  0.1793 -0.0710
10329TIP3    H152402   0.464   4.985   3.488 -0.6446  2.6059 -0.9855
10329TIP3    H252403   0.430   5.062   3.614  0.6700 -0.0820  1.1245
10330TIP3   OH252404   0.122   3.005  15.278 -0.4158  0.5362  0.0851
10330TIP3    H152405   0.092   2.964  15.358 -0.7159  0.6244  0.0198
10330TIP3    H252406   0.044   3.045  15.240 -0.2269  0.7290 -0.1110
10331TIP3   OH252407   1.119   0.440  11.829  0.1706  0.3063 -0.2896
10331TIP3    H152408   1.087   0.510  11.886 -0.0108  0.0372 -0.0601
10331TIP3    H252409   1.201   0.475  11.793  1.4652 -0.3581  1.8520
10332TIP3   OH252410   3.939   1.223  10.508  0.2004  0.2592 -0.6130
10332TIP3    H152411   3.937   1.154  10.441 -0.0341 -0.6903  0.3361
10332TIP3    H252412   4.029   1.221  10.541 -0.1918 -0.7475  0.5222
10333TIP3   OH252413   2.841   2.049  15.623 -0.7560  0.1098  0.3201
10333TIP3    H152414   2.815   2.110  15.554 -1.1853 -2.1582 -1.6465
10333TIP3    H252415   2.782   1.974  15.612 -1.0379 -0.2484  3.3942
10334TIP3   OH252416   2.835   3.332   1.833 -0.0812 -0.0637  0.1006
10334TIP3    H152417   2.864   3.380   1.910  2.7496 -1.5718  0.0832
10334TIP3    H252418   2.821   3.400   1.767 -0.0431  1.0391  1.1821
10335TIP3   OH252419   3.053   4.687  16.816  0.6111  0.2285  0.2246
10335TIP3    H152420   3.042   4.759  16.754  0.5270  1.5585  1.7293
10335TIP3    H252421   2.982   4.698  16.879  1.8516  0.1447  1.6981
10336TIP3   OH252422   6.466   3.088  12.416 -0.4273  0.3278  0.3419
10336TIP3    H152423   6.485   3.177  12.445  0.1067 -0.0484  1.2073
10336TIP3    H252424   6.424   3.098  12.331 -1.5104  1.4635  0.9831
10337TIP3   OH252425   5.148   4.114   0.464  0.3523  0.3785 -0.4620
10337TIP3    H152426   5.200   4.034   0.471  0.5601  0.5771  0.3388
10337TIP3    H252427   5.209   4.185   0.485  0.1475  0.7431 -1.0772
10338TIP3   OH252428   2.012   1.992   2.369 -0.1409 -0.9131  0.4323
10338TIP3    H152429   1.932   2.025   2.328 -0.6333  0.1049  2.1347
10338TIP3    H252430   2.068   2.069   2.378  0.0900 -1.1741  1.3518
10339TIP3   OH252431   0.921   0.449   4.917  0.4323  0.6988 -0.0161
10339TIP3    H152432   0.908   0.460   5.012 -0.3396 -0.0772 -0.0247
10339TIP3    H252433   1.011   0.417   4.909  0.9890  2.0666  0.3411
10340TIP3   OH252434   2.771   6.264  16.724 -0.0476 -0.4918 -0.7381
10340TIP3    H152435   2.708   6.329  16.693  0.4924 -0.8470 -2.6833
10340TIP3    H252436   2.834   6.254  16.653  2.0759 -0.3999  0.9895
10341TIP3   OH252437   6.686   0.334   4.181 -0.4152 -0.0714 -0.2431
10341TIP3    H152438   6.766   0.386   4.175 -1.4425  1.5913 -0.0824
10341TIP3    H252439   6.616   0.398   4.190 -1.9064 -1.4247 -1.4790
10342TIP3   OH252440   0.748   6.049  11.290 -0.2805  0.3409  0.4494
10342TIP3    H152441   0.700   6.106  11.230 -0.2282  2.4781  2.2789
10342TIP3    H252442   0.829   6.027  11.244 -0.2731  1.8614 -0.3043
10343TIP3   OH252443   3.988   4.641  15.215 -0.5006  0.1261 -0.0344
10343TIP3    H152444   3.948   4.724  15.241 -0.8329 -0.2212  0.6050
10343TIP3    H252445   3.915   4.590  15.178  0.2859  1.2971 -3.5427
10344TIP3   OH252446   3.449   4.129  15.898  0.3866 -0.0226 -0.4074
10344TIP3    H152447   3.519   4.072  15.927 -0.1973  0.1968  1.6065
10344TIP3    H252448   3.370   4.094  15.940 -0.6630  0.0155 -2.2226
10345TIP3   OH252449   4.159   0.126   4.622 -0.9833  0.2844  0.3556
10345TIP3    H152450   4.143   0.049   4.568 -0.2885 -0.6656  1.4439
10345TIP3    H252451   4.126   0.102   4.709 -1.0998  1.3610  0.6243
10346TIP3   OH252452   4.127   2.499  15.285 -0.1277  0.0470  0.2015
10346TIP3    H152453   4.072   2.576  15.300 -1.3877 -0.6761 -0.5479
10346TIP3    H252454   4.105   2.470  15.196  0.3019 -1.1771  0.4678
10347TIP3   OH252455   6.015   2.726  16.824  0.6834  0.5650 -0.2490
10347TIP3    H152456   6.023   2.813  16.785  1.1636 -0.0748 -1.6183
10347TIP3    H252457   6.100   2.712  16.867  1.5118 -0.1600 -2.0453
10348TIP3   OH252458   0.351   1.447  12.411 -0.1372 -0.8654 -0.3406
10348TIP3    H152459   0.360   1.538  12.381  0.8176 -0.3131  1.4684
10348TIP3    H252460   0.437   1.423  12.443 -0.7811 -1.8205  0.7737
10349TIP3   OH252461   6.001   4.266   0.302  0.3688 -0.0191  0.2405
10349TIP3    H152462   5.907   4.259   0.319  0.6255 -0.6505  1.5471
10349TIP3    H252463   6.031   4.334   0.363  1.2986 -2.2135  2.3644
10350TIP3   OH252464   4.518   6.491   6.813  0.2998  0.0464 -0.3351
10350TIP3    H152465   4.446   6.439   6.851 -0.2480  0.4537 -0.7895
10350TIP3    H252466   4.530   6.564   6.873 -1.7772  1.6877 -1.7557
10351TIP3   OH252467   2.347   3.122   2.214 -0.3149  0.2777  0.0597
10351TIP3    H152468   2.410   3.051   2.220  0.7651  1.1258 -0.8488
10351TIP3    H252469   2.334   3.149   2.305  1.3368  0.6593  0.2205
10352TIP3   OH252470   5.762   0.396   4.642  0.5361  0.3064 -0.2278
10352TIP3    H152471   5.780   0.325   4.703  1.7229 -0.9236 -1.8994
10352TIP3    H252472   5.830   0.461   4.661  0.0079  0.6121  0.6916
10353TIP3   OH252473   3.316   4.546  11.939  0.0223 -0.2250 -0.0344
10353TIP3    H152474   3.269   4.542  12.023 -0.5837  0.9863 -0.2938
10353TIP3    H252475   3.257   4.502  11.877 -0.7964  1.2642 -0.3524
10354TIP3   OH252476   5.115   0.675  13.805 -1.1669  0.2793 -0.0404
10354TIP3    H152477   5.181   0.702  13.741 -1.1449  0.0260 -0.1237
10354TIP3    H252478   5.140   0.720  13.885 -1.2692  0.7042 -0.2424
10355TIP3   OH252479   5.101   6.328  16.216 -0.0383  0.1557  0.0851
10355TIP3    H152480   5.063   6.265  16.278 -1.2597  0.4384 -0.3497
10355TIP3    H252481   5.195   6.325  16.234 -0.2880 -0.2742  1.4865
10356TIP3   OH252482   2.347   3.311  16.381  0.3565  0.1104 -0.1297
10356TIP3    H152483   2.404   3.382  16.408  0.9844 -0.7739  0.9551
10356TIP3    H252484   2.258   3.340  16.404  0.3750  1.2899 -1.3941
10357TIP3   OH252485   6.177   6.014  15.873  0.0706  0.1335  0.5703
10357TIP3    H152486   6.179   5.960  15.794 -0.5366  0.9492 -0.0280
10357TIP3    H252487   6.088   6.051  15.873  1.3347  3.4691 -0.6676
10358TIP3   OH252488   1.090   1.776  15.177  0.5235 -0.2924 -0.4456
10358TIP3    H152489   1.159   1.842  15.170  0.4603 -0.2444 -0.6106
10358TIP3    H252490   1.048   1.794  15.261  0.0469  0.3251 -0.8063
10359TIP3   OH252491   6.705   0.288  15.403  0.4920 -0.4154  0.1360
10359TIP3    H152492   6.692   0.214  15.343 -0.1875 -1.4562  1.5004
10359TIP3    H252493   6.745   0.356  15.350  0.4388 -1.5077 -1.3495
10360TIP3   OH252494   2.984   6.569   3.108  0.0790  0.6635  0.1644
10360TIP3    H152495   2.920   6.565   3.180  1.6743  1.3254  1.6886
10360TIP3    H252496   2.965   6.653   3.065 -1.1116  0.1045 -0.4291
10361TIP3   OH252497   3.516   5.162  12.304 -0.2173 -0.1476  0.3176
10361TIP3    H152498   3.495   5.225  12.236  0.8862  0.5616  0.5939
10361TIP3    H252499   3.433   5.120  12.326 -0.8859  0.8642 -0.2208
10362TIP3   OH252500   0.637   2.408  11.494  0.1057 -0.2078  0.1029
10362TIP3    H152501   0.632   2.470  11.421 -2.4561 -1.1369 -0.6184
10362TIP3    H252502   0.729   2.383  11.498  0.6309  1.2559 -1.6149
10363TIP3   OH252503   2.452   5.747   0.385  0.2223  0.0092 -0.3765
10363TIP3    H152504   2.469   5.836   0.354  0.3437  0.1435  0.0662
10363TIP3    H252505   2.539   5.714   0.409 -0.0028  0.3317  0.9383
10364TIP3   OH252506   4.451   6.242  16.083  0.3619 -0.0020  1.4010
10364TIP3    H152507   4.467   6.336  16.076  1.6965 -0.3470 -1.6846
10364TIP3    H252508   4.376   6.226  16.025 -0.8199 -0.7026  3.0355
10365TIP3   OH252509   2.478   3.169  12.011 -0.7199 -0.5145 -0.2819
10365TIP3    H152510   2.420   3.105  11.970 -1.9848  0.7487 -0.5337
10365TIP3    H252511   2.468   3.248  11.957  0.1729  0.1511  0.4976
10366TIP3   OH252512   2.612   2.201  15.754 -0.2942 -0.7574 -0.6693
10366TIP3    H152513   2.684   2.140  15.764 -0.1226 -1.0438 -3.0381
10366TIP3    H252514   2.558   2.165  15.683 -2.9549 -0.6826  1.1538
10367TIP3   OH252515   3.383   2.892   3.533  0.2116  0.0453 -0.0224
10367TIP3    H152516   3.336   2.960   3.581  3.1303  1.4706  0.9874
10367TIP3    H252517   3.473   2.896   3.565  0.7812 -3.6610 -0.6229
10368TIP3   OH252518   5.289   6.483  17.217 -0.1972 -0.3859  0.0082
10368TIP3    H152519   5.229   6.420  17.177  0.0198  0.5079 -1.7784
10368TIP3    H252520   5.278   6.563  17.167  0.4835  0.6450  1.4272
10369TIP3   OH252521   0.273   5.244   3.614 -0.5417 -0.3004  0.2041
10369TIP3    H152522   0.248   5.151   3.617 -0.1988 -0.4231 -0.5157
10369TIP3    H252523   0.200   5.290   3.655 -0.4882 -0.9308  1.0412
10370TIP3   OH252524   6.256   5.629  14.280 -0.2936 -0.7029 -0.5934
10370TIP3    H152525   6.174   5.601  14.239 -0.0895 -0.2914 -1.3022
10370TIP3    H252526   6.315   5.643  14.206 -0.0448  0.4787 -0.1782
10371TIP3   OH252527   4.404   3.188  12.588  0.2411  1.0117  0.3659
10371TIP3    H152528   4.314   3.218  12.603  0.0280 -0.0636  1.4736
10371TIP3    H252529   4.399   3.138  12.507 -0.5098 -0.2348  1.1389
10372TIP3   OH252530   0.829   3.582   0.371 -0.4139  0.1500 -0.0811
10372TIP3    H152531   0.883   3.514   0.411 -0.7224  0.0762  0.2097
10372TIP3    H252532   0.888   3.657   0.363 -1.1033  1.1994  3.3192
10373TIP3   OH252533   5.625   5.546  15.639  0.0849 -0.0414 -0.1995
10373TIP3    H152534   5.717   5.548  15.612 -0.0819 -1.8411 -1.0568
10373TIP3    H252535   5.600   5.454  15.632 -1.9407  0.4837 -0.5053
10374TIP3   OH252536   3.847   1.356   0.454 -0.2064 -0.3033 -0.2811
10374TIP3    H152537   3.833   1.446   0.482  1.6032  0.7192 -2.3628
10374TIP3    H252538   3.889   1.314   0.529  1.6953  1.4650 -0.2591
10375TIP3   OH252539   4.118   5.598   1.417  0.2301  0.7337  0.5810
10375TIP3    H152540   4.198   5.547   1.427 -0.6836 -0.5066  2.0688
10375TIP3    H252541   4.061   5.545   1.361 -0.0067  1.0194  0.5470
10376TIP3   OH252542   4.647   3.964   1.969 -0.0537 -0.0363 -1.1264
10376TIP3    H152543   4.627   4.054   1.992  0.2645 -0.0197 -0.9159
10376TIP3    H252544   4.676   3.924   2.051  0.0417 -0.2636 -1.2715
10377TIP3   OH252545   6.102   5.823   5.247 -0.3367 -0.3752  0.1925
10377TIP3    H152546   6.176   5.785   5.294 -1.1616 -1.8250  0.3834
10377TIP3    H252547   6.083   5.760   5.177 -0.6147  0.5932 -0.6228
10378TIP3   OH252548   5.991   3.730  16.875  0.3364 -0.1621  0.6000
10378TIP3    H152549   6.084   3.751  16.868  0.7045 -1.3181  1.6286
10378TIP3    H252550   5.974   3.728  16.969 -0.4413 -1.0926  0.4550
10379TIP3   OH252551   0.133   3.388  12.893 -0.1379  0.2204 -0.2926
10379TIP3    H152552   0.157   3.300  12.921  1.5760  0.4687 -0.8904
10379TIP3    H252553   0.064   3.415  12.954 -1.1157 -1.7249 -0.4566
10380TIP3   OH252554   3.798   2.658   5.151  0.2044 -0.0672  0.0607
10380TIP3    H152555   3.732   2.594   5.123 -0.7888  1.2762 -0.8040
10380TIP3    H252556   3.762   2.696   5.231  0.6446 -0.3646  0.4021
10381TIP3   OH252557   4.497   0.912   2.425  0.3171 -0.3716  0.4452
10381TIP3    H152558   4.556   0.867   2.365  0.2017 -1.0490  0.8383
10381TIP3    H252559   4.480   0.996   2.382 -1.1179 -1.4825 -1.3445
10382TIP3   OH252560   4.309   2.888   3.711 -0.2058  0.4953 -0.0501
10382TIP3    H152561   4.319   2.793   3.719  2.1547  0.6759  0.0157
10382TIP3    H252562   4.390   2.923   3.749 -0.4583  2.4724 -1.2117
10383TIP3   OH252563   5.097   3.906  14.868  0.3776 -0.4396  0.0792
10383TIP3    H152564   5.092   3.879  14.776  1.5951  1.1436 -0.4930
10383TIP3    H252565   5.033   3.976  14.877  1.0774  0.2181  0.0992
10384TIP3   OH252566   1.020   3.203  16.358 -0.4587  0.2894  0.1656
10384TIP3    H152567   0.990   3.288  16.325 -0.5277  0.4867  0.7133
10384TIP3    H252568   0.996   3.140  16.290 -0.6156  0.6773 -0.1409
10385TIP3   OH252569   2.789   5.538  11.145 -0.1800 -0.4175  0.5181
10385TIP3    H152570   2.863   5.488  11.110  0.7448  1.3831 -0.2044
10385TIP3    H252571   2.714   5.479  11.133  0.5670 -1.0216 -1.8632
10386TIP3   OH252572   5.830   5.342  16.976 -0.0530 -0.0600  0.4851
10386TIP3    H152573   5.772   5.406  17.016  0.7581  1.7232 -1.0554
10386TIP3    H252574   5.774   5.266  16.960 -1.6401  1.1315  0.1974
10387TIP3   OH252575   5.878   4.779  17.267  0.1706  0.4250  0.3570
10387TIP3    H152576   5.823   4.710  17.230  0.5057  0.5656 -0.4261
10387TIP3    H252577   5.955   4.732  17.301 -0.4411  0.2214  1.5133
10388TIP3   OH252578   3.095   1.816   4.827  0.2390 -0.0555 -0.1485
10388TIP3    H152579   3.156   1.749   4.796  0.5388  0.3048 -0.3420
10388TIP3    H252580   3.118   1.895   4.777 -0.0984  0.1969  0.0890
10389TIP3   OH252581   4.622   0.560  15.264 -0.0082 -0.0645 -0.2109
10389TIP3    H152582   4.542   0.510  15.252 -1.0238  1.5601 -0.5080
10389TIP3    H252583   4.647   0.545  15.355 -1.1453  0.1198  0.1387
10390TIP3   OH252584   3.317   5.957  16.614  0.4480 -0.1139  0.1481
10390TIP3    H152585   3.400   5.924  16.649  1.3149  2.3726  0.6380
10390TIP3    H252586   3.337   5.980  16.523 -0.7946 -2.9839 -0.9792
10391TIP3   OH252587   1.153   0.584   2.096  0.0625 -0.1733  0.6976
10391TIP3    H152588   1.183   0.613   2.010  1.1673 -0.0082  1.1286
10391TIP3    H252589   1.122   0.664   2.138  0.2673 -0.1212  0.7502
10392TIP3   OH252590   5.992   2.955  11.517  0.2865 -0.1669  0.0292
10392TIP3    H152591   5.928   2.961  11.446 -0.3476 -0.2628  0.5788
10392TIP3    H252592   5.939   2.952  11.597  1.0298  2.5245  0.7012
10393TIP3   OH252593   4.051   4.771   3.287  0.2538  0.2061 -0.4480
10393TIP3    H152594   4.005   4.845   3.247 -1.6895 -0.2451  0.8087
10393TIP3    H252595   4.065   4.798   3.378  1.0980 -0.3099 -0.4137
10394TIP3   OH252596   1.782   1.510   4.837  0.1121 -0.2815 -0.8685
10394TIP3    H152597   1.834   1.434   4.860  0.4914  0.3121  0.3173
10394TIP3    H252598   1.825   1.547   4.760  0.5747 -0.6346 -0.7790
10395TIP3   OH252599   2.427   0.595  12.655  0.0754 -0.8310 -0.0872
10395TIP3    H152600   2.489   0.532  12.618 -1.3853 -2.3473 -0.1083
10395TIP3    H252601   2.351   0.542  12.679  0.4912  0.1896  4.1695
10396TIP3   OH252602   6.750   1.058   2.158  0.3555 -0.2448 -0.3332
10396TIP3    H152603   6.715   1.097   2.078  2.3250 -0.6710 -1.4842
10396TIP3    H252604   6.837   1.026   2.132  0.6206 -1.3277  1.7238
10397TIP3   OH252605   4.090   6.720   0.514 -0.7239 -0.1335  0.5436
10397TIP3    H152606   4.053   6.651   0.458 -0.6468  0.6218 -0.4621
10397TIP3    H252607   4.183   6.722   0.492 -0.6826  0.1335  0.7383
10398TIP3   OH252608   4.852   2.236   1.882 -0.1021 -0.0450 -0.7159
10398TIP3    H152609   4.819   2.173   1.947 -0.7913 -0.1146 -1.1144
10398TIP3    H252610   4.836   2.322   1.922  0.2055 -0.1048 -0.4608
10399TIP3   OH252611   5.475   4.770  13.749  0.1718  0.2923 -0.0639
10399TIP3    H152612   5.566   4.760  13.779  0.1405 -0.3434 -0.1669
10399TIP3    H252613   5.480   4.835  13.680  0.6251 -0.0637 -0.3758
10400TIP3   OH252614   2.671   4.642  11.256 -0.0700 -0.7613  0.8188
10400TIP3    H152615   2.682   4.607  11.344 -1.3354 -1.9749  0.5394
10400TIP3    H252616   2.650   4.565  11.203 -0.1976  0.0659 -0.3696
10401TIP3   OH252617   1.429   0.950   2.561  0.7976  0.1509  0.7613
10401TIP3    H152618   1.437   1.030   2.510  2.4552 -0.3131  0.2568
10401TIP3    H252619   1.383   0.889   2.503  1.1458  0.1659  0.4703
10402TIP3   OH252620   3.190   0.553   4.192  0.3124 -0.2061  0.1414
10402TIP3    H152621   3.146   0.637   4.180  1.4871  0.1702 -2.2209
10402TIP3    H252622   3.270   0.574   4.240  0.5235  0.0263 -0.3017
10403TIP3   OH252623   4.422   6.476  11.698 -0.1627 -0.3034  0.1836
10403TIP3    H152624   4.493   6.440  11.643 -1.6444 -0.4190 -1.7666
10403TIP3    H252625   4.456   6.560  11.728  1.6393 -1.3112  1.1428
10404TIP3   OH252626   4.192   6.304  13.489  0.2562 -0.0987  0.6520
10404TIP3    H152627   4.108   6.293  13.444  0.0820 -1.2224  1.2125
10404TIP3    H252628   4.192   6.235  13.555  1.1711  0.5635  1.3586
10405TIP3   OH252629   4.588   6.349   0.006 -0.3854 -0.2327  0.1784
10405TIP3    H152630   4.530   6.360  -0.069  1.2888  1.2467 -1.0116
10405TIP3    H252631   4.668   6.312  -0.031  0.2934  0.0532  1.3055
10406TIP3   OH252632   0.106   5.792   5.602 -0.4539 -0.0186 -0.0946
10406TIP3    H152633   0.137   5.780   5.513 -1.1626  0.8944 -0.4793
10406TIP3    H252634   0.103   5.887   5.614  0.6593 -0.1177  1.2794
10407TIP3   OH252635   0.325   2.765  14.791  0.3208  0.2106 -0.2193
10407TIP3    H152636   0.280   2.686  14.823  1.7375 -0.3222  0.5303
10407TIP3    H252637   0.254   2.819  14.756 -0.8030 -0.9775  0.1032
10408TIP3   OH252638   6.235   6.005   2.176  0.2613  0.4935 -0.0504
10408TIP3    H152639   6.207   6.088   2.137 -0.0911  1.0274  1.2802
10408TIP3    H252640   6.256   5.950   2.101 -1.7999  0.9700 -1.0572
10409TIP3   OH252641   3.175   2.719  16.740 -0.0452  0.0547 -0.3307
10409TIP3    H152642   3.159   2.647  16.801 -0.6201 -0.2928 -0.8821
10409TIP3    H252643   3.253   2.692  16.691  0.4585  0.3674  0.2975
10410TIP3   OH252644   1.383   3.630   5.524 -0.0171  0.4236 -0.2785
10410TIP3    H152645   1.371   3.606   5.616  0.8249  2.5561  0.4537
10410TIP3    H252646   1.474   3.661   5.519 -0.2696  0.9977 -1.6742
10411TIP3   OH252647   1.843   1.615   4.337  0.0753 -0.1816  0.5895
10411TIP3    H152648   1.766   1.560   4.353 -1.1202  1.6205  1.4038
10411TIP3    H252649   1.831   1.646   4.247 -0.1656  0.1144  0.7228
10412TIP3   OH252650   0.138   3.614   0.465  0.0931  0.1398  0.6683
10412TIP3    H152651   0.100   3.528   0.481 -1.1173  0.9289  2.3767
10412TIP3    H252652   0.227   3.608   0.499  0.3751 -0.6982 -0.1593
10413TIP3   OH252653   3.975   0.914   1.236 -0.6234  0.0080  0.2307
10413TIP3    H152654   4.060   0.924   1.194 -0.3399  0.9187  0.9887
10413TIP3    H252655   3.925   0.857   1.177  0.2553  0.0698 -0.5848
10414TIP3   OH252656   3.494   3.504   1.794  0.1560  0.2764 -0.1602
10414TIP3    H152657   3.464   3.413   1.783  0.5750 -0.2002  2.1808
10414TIP3    H252658   3.582   3.505   1.756  0.4105 -0.4824  0.3839
10415TIP3   OH252659   3.100   1.686  15.710 -0.1780  0.1208  0.0369
10415TIP3    H152660   3.065   1.775  15.712  1.6130  0.8662  1.0727
10415TIP3    H252661   3.143   1.679  15.625 -0.7569  0.0518 -0.2529
10416TIP3   OH252662   3.557   4.589  11.841 -0.1307 -0.2498 -0.2980
10416TIP3    H152663   3.592   4.501  11.856 -2.0741 -1.0715 -0.3162
10416TIP3    H252664   3.474   4.590  11.890 -0.7454  1.1434 -1.3137
10417TIP3   OH252665   0.171   4.523   5.993 -0.4727  0.0591  0.5393
10417TIP3    H152666   0.166   4.451   6.055 -0.0545  0.3397  0.9073
10417TIP3    H252667   0.084   4.528   5.954 -0.1892 -1.4330 -0.3960
10418TIP3   OH252668   0.713   4.870   1.458  0.1026  0.2718  0.2706
10418TIP3    H152669   0.691   4.887   1.550 -0.2284  0.2182  0.1999
10418TIP3    H252670   0.805   4.845   1.461  0.0028 -0.0674  0.6298
10419TIP3   OH252671   3.069   2.350   5.917 -0.6610  0.3869 -0.2823
10419TIP3    H152672   3.087   2.261   5.888  1.5484  0.4996  0.5194
10419TIP3    H252673   3.145   2.401   5.886 -1.8837  2.0156 -0.7535
10420TIP3   OH252674   1.219   3.869   2.814  0.2460  0.3520  0.9167
10420TIP3    H152675   1.215   3.895   2.722  2.2207  2.3851  1.3023
10420TIP3    H252676   1.159   3.794   2.821 -2.3869  2.0474 -1.3215
10421TIP3   OH252677   1.000   0.422   1.616 -0.6209 -0.5662  0.4988
10421TIP3    H152678   0.945   0.457   1.546 -0.1142 -0.2823  0.2399
10421TIP3    H252679   0.938   0.396   1.684 -0.9802  2.0272  1.2731
10422TIP3   OH252680   3.269   1.437  16.043 -0.8500  0.0531  0.3417
10422TIP3    H152681   3.345   1.472  15.996 -1.1118  0.2239  0.0410
10422TIP3    H252682   3.220   1.515  16.071  0.1501  0.0172  2.3422
10423TIP3   OH252683   5.984   3.073   3.054 -0.0173 -0.8002 -0.4810
10423TIP3    H152684   6.042   3.096   2.982 -1.8599  0.7647 -1.5732
10423TIP3    H252685   5.939   2.994   3.025  0.1474 -0.8926 -0.4856
10424TIP3   OH252686   0.301   3.420   6.015 -0.0105  0.4912 -0.5328
10424TIP3    H152687   0.212   3.409   6.049  1.2182  0.0095  2.8733
10424TIP3    H252688   0.342   3.484   6.073  2.3691 -0.5089 -0.9752
10425TIP3   OH252689   0.163   2.755   4.972  0.5545  0.5008  0.2446
10425TIP3    H152690   0.110   2.786   5.046 -0.4096  1.3248 -0.7550
10425TIP3    H252691   0.210   2.833   4.942 -0.7438  0.7210 -1.3616
10426TIP3   OH252692   0.661   1.928  12.648  0.7987  0.0625  0.2848
10426TIP3    H152693   0.664   2.009  12.597  0.4327 -0.1949 -0.1555
10426TIP3    H252694   0.677   1.859  12.583 -0.2306 -0.3053  0.4157
10427TIP3   OH252695   1.371   6.342   0.622 -0.7802  0.0182 -0.8029
10427TIP3    H152696   1.315   6.326   0.546  1.6434  1.3894 -3.0366
10427TIP3    H252697   1.397   6.433   0.614  0.9526 -0.2903  0.6990
10428TIP3   OH252698   2.276   1.009   5.044 -0.1873 -0.3992 -0.1375
10428TIP3    H152699   2.311   1.016   5.133 -0.8349  2.0592 -0.0112
10428TIP3    H252700   2.352   1.023   4.987 -0.2651  1.0384  0.0883
10429TIP3   OH252701   0.411   3.186  11.971  0.1932  0.4133 -0.1055
10429TIP3    H152702   0.455   3.254  11.920  1.1323  1.0579  1.4952
10429TIP3    H252703   0.464   3.177  12.050  0.4251 -2.6135 -0.4795
10430TIP3   OH252704   4.277   0.465  14.167 -0.3266 -0.8845  0.0913
10430TIP3    H152705   4.190   0.505  14.165 -0.3241 -0.5092  3.0235
10430TIP3    H252706   4.327   0.511  14.100 -1.8067  0.3766 -0.1810
10431TIP3   OH252707   2.534   2.249  15.136 -0.4010  1.0837  0.1360
10431TIP3    H152708   2.531   2.344  15.132  0.7638  1.1128 -0.8204
10431TIP3    H252709   2.509   2.227  15.226 -2.6812  2.1551 -0.1562
10432TIP3   OH252710   4.637   6.578  13.866 -0.2290  0.3227  0.0644
10432TIP3    H152711   4.637   6.579  13.961 -0.6648 -0.3111  0.0784
10432TIP3    H252712   4.559   6.528  13.842 -0.3440  0.8218 -0.6297
10433TIP3   OH252713   4.399   6.630   2.644 -0.0006 -0.1184  0.6355
10433TIP3    H152714   4.441   6.554   2.685  1.4489  1.5073  2.3154
10433TIP3    H252715   4.410   6.701   2.707 -1.2286  1.5492 -0.9164
10434TIP3   OH252716   3.776   4.572  16.168 -0.3876  0.3333 -0.2615
10434TIP3    H152717   3.840   4.518  16.122  0.0302  0.5871  0.0129
10434TIP3    H252718   3.717   4.603  16.099  0.8993  1.6450 -0.8459
10435TIP3   OH252719   2.917   4.358  14.817  0.2161 -0.2368  0.1114
10435TIP3    H152720   2.996   4.329  14.770  2.0609  3.2383  0.7334
10435TIP3    H252721   2.947   4.370  14.907 -0.2282  3.3502 -0.0747
10436TIP3   OH252722   5.150   1.148   4.692 -0.4924 -0.5340  0.0766
10436TIP3    H152723   5.208   1.196   4.751 -0.6208  0.5248 -0.6335
10436TIP3    H252724   5.201   1.074   4.662  0.6777  0.6159 -0.8753
10437TIP3   OH252725   6.214   3.294  13.177 -0.1212  0.0656 -0.4474
10437TIP3    H152726   6.255   3.214  13.145 -1.6023 -1.0336  0.3266
10437TIP3    H252727   6.206   3.282  13.271 -0.8984  0.8774 -0.3927
10438TIP3   OH252728   1.285   3.289   5.635 -0.2378 -0.1609  0.2112
10438TIP3    H152729   1.203   3.307   5.588  1.1740  1.3906 -1.8053
10438TIP3    H252730   1.296   3.364   5.693 -0.0161 -0.1278  0.1267
10439TIP3   OH252731   6.072   4.165   5.697  0.4941 -0.1510 -0.5348
10439TIP3    H152732   6.142   4.110   5.731 -0.2208 -1.0273 -0.4350
10439TIP3    H252733   6.020   4.106   5.642  0.6763  0.8327 -1.8091
10440TIP3   OH252734   0.400   0.402  16.246  0.0694 -0.3738 -0.5306
10440TIP3    H152735   0.396   0.479  16.189 -1.0334 -1.5424 -2.0922
10440TIP3    H252736   0.470   0.423  16.309  1.6555  0.7981 -2.5626
10441TIP3   OH252737   5.229   0.675  17.104 -0.1119 -0.0821 -0.3822
10441TIP3    H152738   5.184   0.613  17.047 -0.6779 -0.5104  0.5096
10441TIP3    H252739   5.271   0.620  17.170 -0.6172  0.4703  0.4179
10442TIP3   OH252740   0.881   5.103  15.793  0.1992 -0.4068 -0.0002
10442TIP3    H152741   0.848   5.188  15.823  1.2232  0.7207 -1.8592
10442TIP3    H252742   0.806   5.061  15.751 -0.3463 -0.5232  1.0417
10443TIP3   OH252743   2.793   6.166  12.639  0.1213 -0.1030 -0.0254
10443TIP3    H152744   2.878   6.156  12.596  0.2512  0.0137  0.2011
10443TIP3    H252745   2.741   6.093  12.606  0.1368  0.1255 -0.5734
10444TIP3   OH252746   5.598   5.217  16.836  0.7507 -0.2687  0.0813
10444TIP3    H152747   5.524   5.156  16.831  0.9024 -0.7562  2.4070
10444TIP3    H252748   5.665   5.179  16.779 -0.1175 -0.8384 -0.5704
10445TIP3   OH252749   4.607   1.401  16.317 -0.2893  0.4871 -0.4885
10445TIP3    H152750   4.552   1.325  16.336 -0.2704  0.3264 -1.0631
10445TIP3    H252751   4.554   1.476  16.342 -0.7596  0.3313 -0.9905
10446TIP3   OH252752   3.245   6.716  11.773  0.1922 -0.1984  0.6344
10446TIP3    H152753   3.202   6.645  11.821 -0.4955  0.5023  1.0671
10446TIP3    H252754   3.282   6.772  11.841 -1.8474  1.4762  0.4466
10447TIP3   OH252755   1.398   4.750  13.259 -0.3846 -0.1401 -0.0144
10447TIP3    H152756   1.460   4.820  13.238 -0.3143 -0.4176 -0.7718
10447TIP3    H252757   1.316   4.796  13.279  0.7081  0.4850  4.0472
10448TIP3   OH252758   4.760   2.667  15.229 -0.4776  0.0322 -0.5091
10448TIP3    H152759   4.843   2.670  15.180 -0.7373 -0.5931 -0.9955
10448TIP3    H252760   4.745   2.574  15.244 -0.9324  0.1655 -0.1407
10449TIP3   OH252761   6.605   0.559   5.753 -0.4100  0.1953 -0.5977
10449TIP3    H152762   6.694   0.533   5.729  0.6249 -0.0923  2.9875
10449TIP3    H252763   6.561   0.477   5.776 -0.6185  0.5948  0.4779
10450TIP3   OH252764   2.711   3.991   1.773 -0.1876 -0.7459 -0.1727
10450TIP3    H152765   2.748   4.062   1.824 -0.9317  0.0715 -0.7395
10450TIP3    H252766   2.676   3.930   1.838 -0.9283  0.1721  0.3127
10451TIP3   OH252767   6.406   4.001  12.691 -0.7702 -0.0639  0.4120
10451TIP3    H152768   6.346   4.075  12.697 -1.0025 -0.2596  0.5309
10451TIP3    H252769   6.429   3.982  12.782  1.8975  1.9541  0.2726
10452TIP3   OH252770   6.268   1.731  11.764  0.4484  0.9758  0.1778
10452TIP3    H152771   6.217   1.802  11.725 -1.7721 -0.6799 -0.1373
10452TIP3    H252772   6.214   1.698  11.836  1.1118 -0.7654 -0.0624
10453TIP3   OH252773   0.011   4.130   4.319 -0.0739  0.5499 -0.1369
10453TIP3    H152774   0.050   4.097   4.238  1.2844  1.5921  0.0597
10453TIP3    H252775   0.079   4.117   4.385 -1.8328 -2.1427  1.3484
10454TIP3   OH252776   6.095   6.076   3.631 -0.0001 -0.6623 -0.3830
10454TIP3    H152777   6.094   6.159   3.680 -0.9831 -0.6242 -0.4400
10454TIP3    H252778   6.012   6.035   3.654 -0.2824 -0.8520 -1.6723
10455TIP3   OH252779   4.086   6.661  16.035  0.3190 -0.1397  0.5419
10455TIP3    H152780   4.106   6.745  15.993 -0.7323  0.2349  0.7551
10455TIP3    H252781   3.992   6.649  16.022  0.6102 -1.7964 -0.3831
10456TIP3   OH252782   2.268   0.119   1.682 -0.3606  0.1472  1.0745
10456TIP3    H152783   2.357   0.104   1.652 -0.4596  3.4390 -1.4664
10456TIP3    H252784   2.218   0.044   1.648  0.8789  0.0106 -0.5606
10457TIP3   OH252785   1.601   5.704  13.762 -0.1714  0.8644  0.0969
10457TIP3    H152786   1.518   5.717  13.716  0.1297 -0.8261 -1.0407
10457TIP3    H252787   1.668   5.733  13.700  0.2037 -0.7085 -0.2782
10458TIP3   OH252788   2.748   0.681  12.526 -0.1572 -0.5078 -0.2652
10458TIP3    H152789   2.823   0.629  12.495 -0.3091  0.3467 -2.2089
10458TIP3    H252790   2.788   0.758  12.567  0.0757 -0.0237 -1.3510
10459TIP3   OH252791   0.988   2.215   3.422 -0.2419  0.1557  0.4829
10459TIP3    H152792   1.001   2.265   3.342  1.6390  0.1646  0.7694
10459TIP3    H252793   0.902   2.174   3.410  0.1504 -0.1582 -1.7187
10460TIP3   OH252794   4.883   0.816   4.670  0.1126 -0.0651 -0.2738
10460TIP3    H152795   4.951   0.782   4.611 -0.1282  1.2187 -1.3306
10460TIP3    H252796   4.925   0.890   4.714 -0.3007  0.1325 -0.2121
10461TIP3   OH252797   4.696   2.294   0.996 -0.1024  0.2211 -0.0074
10461TIP3    H152798   4.681   2.285   0.902 -1.2255  1.7133 -0.0179
10461TIP3    H252799   4.790   2.314   1.003 -0.2539  1.4182 -0.9458
10462TIP3   OH252800   1.176   4.753   2.953  0.4973 -0.2248  0.1708
10462TIP3    H152801   1.234   4.774   2.879 -0.0464 -0.9291 -0.4796
10462TIP3    H252802   1.188   4.825   3.015  1.6076 -0.0531 -0.2228
10463TIP3   OH252803   3.325   1.402  12.415  0.2995  0.5809 -0.1158
10463TIP3    H152804   3.303   1.316  12.379  1.3675 -0.0175  0.6124
10463TIP3    H252805   3.290   1.401  12.504 -0.7046  1.3551 -0.4790
10464TIP3   OH252806   0.855   2.573   0.114  0.1215  0.1597  0.6481
10464TIP3    H152807   0.924   2.512   0.089 -1.6521 -1.2598 -1.0458
10464TIP3    H252808   0.873   2.652   0.063  0.7328 -0.0354  0.5603
10465TIP3   OH252809   5.658   3.687  10.517 -0.8699 -0.2717 -0.2903
10465TIP3    H152810   5.676   3.640  10.599  0.5562  1.1985  0.2950
10465TIP3    H252811   5.569   3.720  10.527 -1.2456 -1.3226  0.0216
10466TIP3   OH252812   4.739   1.275   3.229 -0.1777 -0.3143  0.8296
10466TIP3    H152813   4.682   1.349   3.246  0.3954  0.4036 -0.2157
10466TIP3    H252814   4.683   1.210   3.186 -0.2528  0.3327 -0.0726
10467TIP3   OH252815   5.379   1.313   1.895  0.7611 -0.0528 -0.6929
10467TIP3    H152816   5.460   1.348   1.932  0.3963  0.8195 -0.7065
10467TIP3    H252817   5.334   1.273   1.970  0.0071  1.7382 -0.1482
10468TIP3   OH252818   3.918   3.965  13.495 -0.2545  0.2795 -0.0385
10468TIP3    H152819   3.963   3.927  13.571 -1.4466 -2.7002 -0.6960
10468TIP3    H252820   3.882   4.048  13.528  1.1048  0.1518  1.9785
10469TIP3   OH252821   1.342   5.697  14.817  0.7560 -0.3455  0.6392
10469TIP3    H152822   1.340   5.601  14.822  0.0370 -0.2756  1.9778
10469TIP3    H252823   1.298   5.717  14.734 -0.4798 -1.1321  1.0751
10470TIP3   OH252824   0.263   5.886   0.595 -0.3234 -0.0377  0.1612
10470TIP3    H152825   0.274   5.791   0.598 -0.2743 -0.0067  1.1268
10470TIP3    H252826   0.214   5.901   0.514  1.5257 -0.6844 -1.1486
10471TIP3   OH252827   3.547   5.480  16.361  0.0022 -0.0647  0.6335
10471TIP3    H152828   3.520   5.552  16.304  2.6747  0.4119 -0.1649
10471TIP3    H252829   3.549   5.403  16.304 -2.1378 -0.6960  1.3172
10472TIP3   OH252830   5.504   6.291   1.758 -0.2538  0.3609  0.5189
10472TIP3    H152831   5.500   6.205   1.800 -2.1158  0.8955  1.5660
10472TIP3    H252832   5.502   6.272   1.664  0.5137 -0.7569  0.7088
10473TIP3   OH252833   1.305   4.237   4.433 -0.4275 -0.3263  0.4097
10473TIP3    H152834   1.302   4.166   4.498  3.1822 -0.1838  0.9536
10473TIP3    H252835   1.290   4.193   4.349 -2.2942 -0.9952  1.0514
10474TIP3   OH252836   4.637   5.772  12.241  0.8706  0.9696  0.0500
10474TIP3    H152837   4.672   5.695  12.285  0.1389  0.7107  0.2043
10474TIP3    H252838   4.624   5.743  12.150  1.5386  1.2274 -0.1342
10475TIP3   OH252839   2.674   5.096   2.949 -0.4369 -0.1108 -0.1431
10475TIP3    H152840   2.671   5.191   2.955 -0.0074  0.0751 -2.2935
10475TIP3    H252841   2.767   5.074   2.950 -0.5017 -0.4239 -0.5446
10476TIP3   OH252842   5.637   2.394   0.156  0.1821 -0.0161  0.6304
10476TIP3    H152843   5.712   2.439   0.195  0.4586  0.3053 -0.2466
10476TIP3    H252844   5.675   2.324   0.104 -0.1756 -0.3759  0.8458
10477TIP3   OH252845   2.649   2.493   4.942  0.3141  0.5941 -0.3410
10477TIP3    H152846   2.744   2.479   4.948  0.8984  3.9863  0.3690
10477TIP3    H252847   2.623   2.522   5.030 -1.6524 -1.1991 -0.2395
10478TIP3   OH252848   1.663   2.684   1.336  0.1233 -0.6903 -0.3769
10478TIP3    H152849   1.650   2.779   1.339 -1.1099 -0.8606  0.4207
10478TIP3    H252850   1.588   2.651   1.286 -0.4877 -1.3836  0.9305
10479TIP3   OH252851   0.804   0.667  13.150 -0.0645  0.0609 -0.3408
10479TIP3    H152852   0.859   0.590  13.167  0.5952  0.0986 -2.1371
10479TIP3    H252853   0.865   0.740  13.148 -0.3275  0.2709 -1.1715
10480TIP3   OH252854   6.222   1.251   5.103  0.3652 -0.6307 -1.0730
10480TIP3    H152855   6.301   1.218   5.146  0.5876  1.4237  0.2566
10480TIP3    H252856   6.151   1.231   5.165 -0.1385 -2.0986 -2.0748
10481TIP3   OH252857   3.455   5.238   1.278  0.3790  0.1160  0.4312
10481TIP3    H152858   3.545   5.209   1.294  0.5332  0.6790  0.5822
10481TIP3    H252859   3.415   5.241   1.364  0.2310 -0.0642  0.3710
10482TIP3   OH252860   5.687   3.651   4.530  0.1979 -0.1929 -0.2825
10482TIP3    H152861   5.778   3.680   4.517  0.1178  0.4294  0.4140
10482TIP3    H252862   5.693   3.556   4.538  1.1218 -0.0169  1.9539
10483TIP3   OH252863   0.042   1.402   4.256  0.0993  0.0593 -0.0183
10483TIP3    H152864  -0.052   1.388   4.249  0.1924 -1.1700  0.9726
10483TIP3    H252865   0.052   1.480   4.310 -0.3363 -0.3408  0.6371
10484TIP3   OH252866   3.406   2.289   4.880  0.1736  0.4973 -0.4013
10484TIP3    H152867   3.423   2.228   4.808 -2.8603 -1.2825  0.2087
10484TIP3    H252868   3.416   2.236   4.959  0.0699  1.4904  0.2956
10485TIP3   OH252869   4.155   0.472   2.768  0.6645 -0.0906  0.1447
10485TIP3    H152870   4.190   0.540   2.826  0.1480  0.9350 -0.7204
10485TIP3    H252871   4.223   0.460   2.702  0.4399  0.1201 -0.1259
10486TIP3   OH252872   0.567   3.595   2.752  0.0089  0.5297  0.4274
10486TIP3    H152873   0.568   3.587   2.656  0.3750 -0.5931  0.5154
10486TIP3    H252874   0.654   3.627   2.774 -0.2314  1.2492  0.3586
10487TIP3   OH252875   3.436   6.047  16.355 -0.0168 -0.4804 -0.2308
10487TIP3    H152876   3.482   6.118  16.399  0.4903 -1.1938  0.4226
10487TIP3    H252877   3.452   6.062  16.261  1.8126 -0.8526 -0.0228
10488TIP3   OH252878   5.462   2.504  15.461  0.1564 -0.2523 -0.0334
10488TIP3    H152879   5.435   2.492  15.552  1.8087  1.5973  0.7814
10488TIP3    H252880   5.486   2.597  15.455  0.6132 -0.4451 -2.2165
10489TIP3   OH252881   4.671   5.221  13.565 -0.2981 -0.6012  0.0119
10489TIP3    H152882   4.584   5.182  13.571 -0.6816  0.0220 -1.2494
10489TIP3    H252883   4.692   5.246  13.655 -1.8467  0.1354  0.1926
10490TIP3   OH252884   2.442   2.929   1.808 -0.4643  0.5366  0.3421
10490TIP3    H152885   2.476   2.868   1.874 -2.6811 -0.8482  0.3193
10490TIP3    H252886   2.409   3.003   1.859 -3.1194 -0.9812  1.0318
10491TIP3   OH252887   6.749   3.788  16.784 -0.0911  0.1311 -0.1131
10491TIP3    H152888   6.783   3.783  16.694 -0.3740  2.5213 -0.3982
10491TIP3    H252889   6.827   3.805  16.837 -0.2567  1.3324 -0.2420
10492TIP3   OH252890   0.506   0.811   0.946  0.9797  0.3377  0.5528
10492TIP3    H152891   0.594   0.783   0.972  1.4404 -1.0505 -2.1346
10492TIP3    H252892   0.493   0.770   0.860 -1.7857  1.5952  0.2895
10493TIP3   OH252893   3.299   3.971   2.871  0.0802  0.4359 -0.1215
10493TIP3    H152894   3.252   3.916   2.808 -1.3537  0.6514  0.7380
10493TIP3    H252895   3.316   4.053   2.823 -1.4954  0.8116 -0.0755
10494TIP3   OH252896   2.855   0.093  16.807  0.7221  0.3705  0.4707
10494TIP3    H152897   2.903   0.011  16.814  0.9704  0.5914  1.5526
10494TIP3    H252898   2.922   0.161  16.816  0.3151  0.6819  1.2352
10495TIP3   OH252899   5.571   4.244   1.423 -0.7485 -0.1113  0.4983
10495TIP3    H152900   5.507   4.314   1.429  0.6198  1.2973 -0.4565
10495TIP3    H252901   5.533   4.171   1.473 -2.5278  1.0525  0.9096
10496TIP3   OH252902   1.088   1.461   5.449 -0.3074  0.7792  0.0880
10496TIP3    H152903   1.065   1.554   5.454 -1.9581  0.3426  1.0720
10496TIP3    H252904   1.145   1.447   5.525  2.1687  1.5082 -1.4984
10497TIP3   OH252905   5.646   6.700   3.763 -0.0960  0.1087  0.8940
10497TIP3    H152906   5.711   6.657   3.708  1.6576  0.4428  2.5985
10497TIP3    H252907   5.575   6.724   3.703  0.5232 -1.8560 -0.7141
10498TIP3   OH252908   1.423   2.026   1.164 -0.1111  0.2056  0.3988
10498TIP3    H152909   1.384   2.110   1.139 -0.3382 -0.6394 -2.3749
10498TIP3    H252910   1.517   2.041   1.159 -0.1503  0.2313 -0.4724
10499TIP3   OH252911   4.084   6.188   3.384 -0.2854 -0.6404  0.2050
10499TIP3    H152912   4.016   6.144   3.334  0.0574 -0.2626 -0.6116
10499TIP3    H252913   4.166   6.151   3.351 -0.0430 -0.1660  0.2640
10500TIP3   OH252914   1.140   3.288   1.118 -0.0769 -0.4191 -0.0096
10500TIP3    H152915   1.102   3.376   1.110 -1.2597 -1.0039 -1.2085
10500TIP3    H252916   1.230   3.304   1.145 -0.8177  1.0783  1.8122
10501TIP3   OH252917   4.947   5.976  12.570  0.3943  0.1580 -0.1074
10501TIP3    H152918   4.893   6.050  12.597 -0.6750  0.4183 -2.7128
10501TIP3    H252919   4.884   5.909  12.542  1.3658 -1.4359  1.3124
10502TIP3   OH252920   6.249   6.754  16.468  0.2728 -0.1912  0.1413
10502TIP3    H152921   6.276   6.804  16.392  1.1941 -0.9577 -0.0619
10502TIP3    H252922   6.293   6.797  16.542  2.9576 -1.9194 -0.2728
10503TIP3   OH252923   2.510   2.703   2.901 -0.0843  0.5823  0.1899
10503TIP3    H152924   2.597   2.713   2.863 -0.3366  0.0607 -0.5328
10503TIP3    H252925   2.511   2.617   2.943 -0.0595  0.8315  0.7119
10504TIP3   OH252926   2.865   1.503  12.659 -0.7232  0.1809 -0.5588
10504TIP3    H152927   2.945   1.505  12.711  0.6339 -0.1924 -2.4946
10504TIP3    H252928   2.831   1.592  12.663 -0.7367  0.1259  1.0219
10505TIP3   OH252929   4.858   6.484   4.822 -0.2362 -0.0029 -0.0117
10505TIP3    H152930   4.915   6.406   4.823 -0.2402 -0.0287 -1.0385
10505TIP3    H252931   4.919   6.558   4.828 -0.2699 -0.0556  1.8881
10506TIP3   OH252932   5.133   1.392   4.159 -0.3592 -0.4024 -0.7223
10506TIP3    H152933   5.194   1.451   4.115 -1.6508  0.4409 -1.4286
10506TIP3    H252934   5.183   1.310   4.169  0.8859  0.2602 -1.2472
10507TIP3   OH252935   0.545   0.429   2.111 -0.1291 -0.2115 -0.2978
10507TIP3    H152936   0.462   0.473   2.131  0.3634  0.7758 -0.3751
10507TIP3    H252937   0.569   0.384   2.192 -0.7358 -0.4914 -0.2733
10508TIP3   OH252938   5.345   6.751   2.685  0.4699 -0.0362  0.3323
10508TIP3    H152939   5.340   6.845   2.698  0.3921 -0.2341  1.8893
10508TIP3    H252940   5.310   6.713   2.766 -1.2342 -1.4220 -0.9569
10509TIP3   OH252941   1.029   3.695  15.868  0.2902 -0.7348 -0.8233
10509TIP3    H152942   1.070   3.776  15.837  1.5998  0.0557  2.4525
10509TIP3    H252943   1.089   3.626  15.841  0.3984 -0.3502 -1.6025
10510TIP3   OH252944   1.080   6.252   0.543 -0.2166  0.2476  0.2476
10510TIP3    H152945   1.090   6.329   0.487 -1.8661 -0.5634 -1.2689
10510TIP3    H252946   0.985   6.243   0.555 -0.3265 -2.9709 -1.8202
10511TIP3   OH252947   1.660   5.132  15.824 -0.3740 -0.3522 -0.7245
10511TIP3    H152948   1.578   5.119  15.872 -0.2946 -0.8947 -0.7356
10511TIP3    H252949   1.633   5.176  15.743 -0.6793 -0.7152 -0.8220
10512TIP3   OH252950   2.630   4.228  16.806  0.2749  0.0892  0.4464
10512TIP3    H152951   2.688   4.303  16.807 -1.4352  1.4834  1.0347
10512TIP3    H252952   2.569   4.243  16.879 -0.8567 -1.2392 -0.1648
10513TIP3   OH252953   4.774   2.270   5.176  0.2657  0.2405 -0.4361
10513TIP3    H152954   4.857   2.280   5.128  0.9286  0.4970  0.7359
10513TIP3    H252955   4.797   2.217   5.252 -0.3978  1.3330  0.5384
10514TIP3   OH252956   1.098   2.955   4.507  0.1849 -0.4835 -0.0337
10514TIP3    H152957   1.149   2.986   4.433 -1.9302  0.1532 -1.2988
10514TIP3    H252958   1.125   3.011   4.580 -0.5879  1.6849 -1.3127
10515TIP3   OH252959   5.972   0.736  13.240  0.1621  0.6902 -0.5030
10515TIP3    H152960   6.015   0.650  13.239  0.4929  0.7328  2.5082
10515TIP3    H252961   6.045   0.799  13.241 -0.0720  1.1089 -3.1026
10516TIP3   OH252962   4.771   1.623  13.625 -0.4851 -0.0761  0.1381
10516TIP3    H152963   4.772   1.529  13.640  0.4554 -0.4965 -2.2229
10516TIP3    H252964   4.844   1.639  13.566 -2.9116  1.5169 -2.7181
10517TIP3   OH252965   5.058   5.709  12.710  0.1574 -0.3760  0.4741
10517TIP3    H152966   4.971   5.688  12.677  0.0009  1.4342 -0.3695
10517TIP3    H252967   5.069   5.803  12.693  2.7327 -0.7641 -0.5295
10518TIP3   OH252968   5.374   6.487  13.971  0.2098  0.6241  0.2717
10518TIP3    H152969   5.432   6.411  13.961  0.9264  1.2595 -0.5114
10518TIP3    H252970   5.394   6.522  14.057  2.8966  2.3452 -0.9238
10519TIP3   OH252971   0.823   3.898   4.398 -0.1916 -0.0549 -0.0516
10519TIP3    H152972   0.821   3.832   4.330 -0.4873  0.6529 -0.7442
10519TIP3    H252973   0.785   3.976   4.358 -1.1387  0.1469  1.1729
10520TIP3   OH252974   5.493   0.374   2.987  0.7152 -0.0001 -0.1693
10520TIP3    H152975   5.532   0.452   3.025  1.6906 -1.3292  1.7458
10520TIP3    H252976   5.567   0.322   2.956  0.1447 -0.5760 -0.6063
10521TIP3   OH252977   2.138   4.447   2.130  0.3089 -0.1041  0.1375
10521TIP3    H152978   2.221   4.404   2.148 -0.0541 -1.0371 -0.3830
10521TIP3    H252979   2.072   4.379   2.139 -0.2738  0.3142 -0.7422
10522TIP3   OH252980   4.731   4.414   3.799  1.0245 -0.0679 -0.1171
10522TIP3    H152981   4.731   4.508   3.785 -0.2817 -0.1772 -1.0628
10522TIP3    H252982   4.669   4.380   3.734  0.5222 -1.4435  1.0149
10523TIP3   OH252983   5.254   6.424   3.477  0.2484 -0.1699 -0.3047
10523TIP3    H152984   5.312   6.413   3.552  1.1709  2.6344 -0.4889
10523TIP3    H252985   5.186   6.484   3.507  0.3903  0.6557 -1.5206
10524TIP3   OH252986   4.534   0.375   3.015 -0.2841 -0.1713  0.1208
10524TIP3    H152987   4.444   0.407   3.006 -0.5087 -0.9194 -0.4272
10524TIP3    H252988   4.529   0.310   3.085 -0.9057 -2.6489 -2.0536
10525TIP3   OH252989   2.539   3.609   3.598 -0.5313  0.2419  0.7208
10525TIP3    H152990   2.522   3.577   3.510 -1.0799  0.8584  0.5958
10525TIP3    H252991   2.461   3.584   3.648 -0.1117 -0.3332  1.0996
10526TIP3   OH252992   1.191   2.268  12.698 -0.5200  0.5905 -0.4558
10526TIP3    H152993   1.181   2.327  12.623  0.8518  0.1808 -0.9768
10526TIP3    H252994   1.285   2.252  12.704 -0.8518 -1.4955 -0.2706
10527TIP3   OH252995   5.836   1.177  10.609  0.1971 -0.4841 -0.7194
10527TIP3    H152996   5.838   1.244  10.540 -0.9359  1.2280  0.8168
10527TIP3    H252997   5.926   1.145  10.614  0.8494  1.1470 -1.3177
10528TIP3   OH252998   6.733   6.165   6.059 -0.1347 -0.3375  0.2007
10528TIP3    H152999   6.672   6.113   6.112 -0.4608 -0.5982 -0.4124
10528TIP3    H253000   6.677   6.206   5.993  0.2227  0.2353  0.2465
10529TIP3   OH253001   1.830   0.903   4.136 -0.2215 -0.1592  0.0406
10529TIP3    H153002   1.836   0.883   4.229 -0.5261 -0.1583  0.0621
10529TIP3    H253003   1.820   0.818   4.093 -0.4304 -0.1358  0.0401
10530TIP3   OH253004   1.963   4.835   2.712  0.1581 -0.3627  0.1963
10530TIP3    H153005   2.045   4.788   2.703  0.6041  0.3922  0.2307
10530TIP3    H253006   1.967   4.873   2.800 -0.1114 -0.1175  0.1053
10531TIP3   OH253007   2.963   2.607   5.894  0.5981 -0.4319 -0.2704
10531TIP3    H153008   2.984   2.515   5.880 -1.0081 -1.1412  1.3793
10531TIP3    H253009   2.915   2.607   5.977  0.9723  1.9710  0.0091
10532TIP3   OH253010   3.706   2.841  15.969  0.1358  0.4036  0.9240
10532TIP3    H153011   3.635   2.781  15.948  1.6237 -0.8819 -0.8145
10532TIP3    H253012   3.766   2.789  16.022  1.6352  0.1243 -0.9355
10533TIP3   OH253013   2.767   5.101  11.562  0.0983  0.3610 -0.8426
10533TIP3    H153014   2.854   5.113  11.522  1.2456  0.7459  1.6096
10533TIP3    H253015   2.739   5.190  11.583  0.4357  0.0638  0.9754
10534TIP3   OH253016   2.068   5.989   1.477 -0.0259 -0.2826 -0.0049
10534TIP3    H153017   2.016   6.067   1.456  1.7844  1.3039  1.1255
10534TIP3    H253018   2.140   5.990   1.414  1.1794  0.2072  1.3227
10535TIP3   OH253019   0.659   3.833  15.380  0.1729 -0.6238 -0.2217
10535TIP3    H153020   0.633   3.830  15.473 -0.6271 -1.9326 -0.4650
10535TIP3    H253021   0.576   3.823  15.332  0.5924 -0.0622 -1.0798
10536TIP3   OH253022   1.155   1.821   0.161 -0.0428  0.4981 -0.1669
10536TIP3    H153023   1.174   1.893   0.221  1.3479  1.2530 -1.4526
10536TIP3    H253024   1.096   1.764   0.211  1.3301  0.8841  2.0662
10537TIP3   OH253025   2.321   5.439  16.951 -0.1492  0.0783 -0.4259
10537TIP3    H153026   2.399   5.407  16.997 -0.7273 -2.4321 -1.0798
10537TIP3    H253027   2.356   5.481  16.872  0.5758 -0.6771 -0.5191
10538TIP3   OH253028   4.656   4.304  15.655 -0.2985 -0.2138  0.3976
10538TIP3    H153029   4.701   4.381  15.689  1.4172 -0.6650 -0.7067
10538TIP3    H253030   4.698   4.230  15.698  1.9005 -0.7945 -2.4521
10539TIP3   OH253031   0.818   3.817  15.016 -0.5674  0.2393 -0.3747
10539TIP3    H153032   0.892   3.859  14.973  0.0138 -0.3929 -0.0080
10539TIP3    H253033   0.761   3.889  15.042 -0.3169  0.6993 -1.0934
10540TIP3   OH253034   2.455   2.037  12.401 -0.4879 -0.2424  0.0804
10540TIP3    H153035   2.529   2.089  12.368 -0.9042  0.3261  0.0297
10540TIP3    H253036   2.491   1.991  12.477 -0.1066  0.1163  0.1248
10541TIP3   OH253037   4.735   2.794   2.648  0.0531  0.1230  0.0579
10541TIP3    H153038   4.789   2.865   2.683  0.9732 -0.5520  0.0504
10541TIP3    H253039   4.674   2.837   2.587  0.4245  0.9272  0.2451
10542TIP3   OH253040   2.813   0.307   5.011  0.1616  0.0449 -0.0861
10542TIP3    H153041   2.720   0.318   4.995  0.5426  2.5872 -1.0176
10542TIP3    H253042   2.834   0.223   4.971 -1.6480 -0.4234 -0.1402
10543TIP3   OH253043   0.422   3.824  12.977 -0.0870  0.2638  0.3099
10543TIP3    H153044   0.478   3.812  12.901  0.0879  2.7478 -0.0573
10543TIP3    H253045   0.387   3.913  12.967 -1.7964 -0.1432  2.0228
10544TIP3   OH253046   3.396   5.235   0.868  0.4959  0.0041 -0.2105
10544TIP3    H153047   3.330   5.275   0.925 -0.4676 -0.5826 -0.8910
10544TIP3    H253048   3.405   5.297   0.796  0.4221 -0.0879 -0.2987
10545TIP3   OH253049   4.399   1.918   0.992  0.1398 -0.7667 -0.4206
10545TIP3    H153050   4.478   1.897   0.941  1.0597  0.1946  0.5442
10545TIP3    H253051   4.431   1.974   1.062 -1.4935  0.0015 -0.2523
10546TIP3   OH253052   4.365   2.032  14.278 -0.1169  0.0291  0.3915
10546TIP3    H153053   4.385   2.116  14.238 -0.7442  0.1393  0.2900
10546TIP3    H253054   4.294   1.997  14.223  1.4334 -1.4510 -0.7740
10547TIP3   OH253055   6.577   1.605   5.913 -0.6474  0.2831  0.1923
10547TIP3    H153056   6.625   1.686   5.896  0.6117 -0.4812 -0.0849
10547TIP3    H253057   6.565   1.602   6.008 -1.7147  1.3180  0.1145
10548TIP3   OH253058   6.217   4.398   1.624 -0.1775 -0.1889  0.1455
10548TIP3    H153059   6.251   4.362   1.707  0.8445 -1.0904 -0.6316
10548TIP3    H253060   6.292   4.444   1.586 -1.0641  1.5314  0.4072
10549TIP3   OH253061   5.902   3.555  11.394 -0.1247  0.7479 -0.6779
10549TIP3    H153062   5.980   3.610  11.394  0.6212 -0.2707  0.4886
10549TIP3    H253063   5.922   3.486  11.331 -0.0995  0.5155 -0.4159
10550TIP3   OH253064   0.687   3.000  14.070  0.4250  0.3224 -0.1014
10550TIP3    H153065   0.664   2.940  13.999  0.3005  2.0526 -1.5920
10550TIP3    H253066   0.616   3.064  14.072  2.2491  2.5605 -1.0933
10551TIP3   OH253067   4.115   4.605   0.960  0.1341 -0.5835  0.5148
10551TIP3    H153068   4.026   4.627   0.931  0.1039 -1.9052 -0.5007
10551TIP3    H253069   4.146   4.542   0.895  2.0374  0.2830  0.5317
10552TIP3   OH253070   4.035   1.748  11.037 -0.7358 -0.3602 -0.4683
10552TIP3    H153071   4.034   1.664  10.992  3.6891 -0.0008 -1.6946
10552TIP3    H253072   4.128   1.770  11.045 -1.5658  2.9393  2.7132
10553TIP3   OH253073   1.578   2.099   5.046  0.2622  0.3246  0.0070
10553TIP3    H153074   1.547   2.012   5.072 -0.0910  1.0061  2.0635
10553TIP3    H253075   1.669   2.085   5.019 -0.3214 -0.9298 -1.4344
10554TIP3   OH253076   5.458   4.053   2.332 -0.8836  0.4021  0.3967
10554TIP3    H153077   5.428   3.964   2.311 -1.6893  0.8333 -0.3460
10554TIP3    H253078   5.544   4.060   2.290 -0.5421 -0.2296  0.9793
10555TIP3   OH253079   1.765   3.486   1.155  1.0034 -0.1987  0.5120
10555TIP3    H153080   1.857   3.510   1.161  1.9394 -2.6046 -2.0132
10555TIP3    H253081   1.729   3.541   1.086  1.7104 -1.9219 -1.3479
10556TIP3   OH253082   1.102   0.117   0.904  0.3099 -0.5450  0.3297
10556TIP3    H153083   1.109   0.046   0.839 -1.5881 -2.0279  1.6190
10556TIP3    H253084   1.015   0.105   0.943  0.7524  1.2757  2.0217
10557TIP3   OH253085   3.087   2.486  11.724 -0.1045 -0.5937 -0.2051
10557TIP3    H153086   3.037   2.563  11.751  0.0588 -0.4042 -0.4395
10557TIP3    H253087   3.080   2.425  11.797  1.0807  0.2620  0.6653
10558TIP3   OH253088   2.310   4.097  13.329  0.2885 -0.1402 -0.0023
10558TIP3    H153089   2.272   4.010  13.340  1.1476 -0.7632 -1.6437
10558TIP3    H253090   2.234   4.156  13.322 -0.2953 -0.6761  1.5124
10559TIP3   OH253091   1.172   4.956  11.938 -0.1791  0.2873  0.1056
10559TIP3    H153092   1.267   4.968  11.942  0.3248 -2.7203  0.0207
10559TIP3    H253093   1.151   4.963  11.845 -0.0301  0.8552  0.1125
10560TIP3   OH253094   4.737   5.904   3.535  0.7199  0.2645  0.1236
10560TIP3    H153095   4.806   5.837   3.533  0.4474 -0.0672 -2.7552
10560TIP3    H253096   4.784   5.987   3.537  1.1740  0.0253 -0.4190
10561TIP3   OH253097   5.953   0.928  16.985 -0.0072  0.1922 -0.2692
10561TIP3    H153098   5.941   0.847  17.034 -0.9893  0.0162 -0.7723
10561TIP3    H253099   6.047   0.948  16.993  0.1332 -0.6726  0.3414
10562TIP3   OH253100   0.898   4.183   0.297  0.1478 -0.1290 -0.0423
10562TIP3    H153101   0.821   4.126   0.297  0.2025 -0.2761  2.1213
10562TIP3    H253102   0.870   4.261   0.248 -1.6930  0.1979  1.4197
10563TIP3   OH253103   1.822   0.922  16.228 -0.7290  0.3535  0.3706
10563TIP3    H153104   1.803   0.845  16.281  1.5443  0.2464  1.1615
10563TIP3    H253105   1.819   0.995  16.289  0.2249  0.4561  0.3089
10564TIP3   OH253106   5.561   5.843   1.197  0.7150  0.2933  0.1717
10564TIP3    H153107   5.547   5.831   1.103 -0.9044 -0.1085  0.4310
10564TIP3    H253108   5.477   5.875   1.230  1.4204  0.9518  1.4070
10565TIP3   OH253109   6.050   0.272  16.650 -0.6582  0.2535  0.2868
10565TIP3    H153110   6.089   0.322  16.578 -1.1856  1.9944  1.1517
10565TIP3    H253111   6.098   0.189  16.651  1.9973  1.7165  0.3749
10566TIP3   OH253112   2.393   1.491  12.979 -0.6466  0.5354 -0.3380
10566TIP3    H153113   2.373   1.498  12.886 -0.1210  0.9252 -0.4240
10566TIP3    H253114   2.326   1.432  13.014  0.2117 -1.0790 -1.2905
10567TIP3   OH253115   2.301   3.861   4.162 -0.6654 -0.1726 -0.5331
10567TIP3    H153116   2.238   3.926   4.194  1.2211  1.1356  0.7938
10567TIP3    H253117   2.370   3.914   4.122 -0.1854 -1.5260 -1.5438
10568TIP3   OH253118   1.809   5.890  14.250 -0.0653 -0.7699  0.2060
10568TIP3    H153119   1.806   5.887  14.155 -0.0117  3.2985 -0.0827
10568TIP3    H253120   1.717   5.894  14.276 -0.0517  0.0520  0.1535
10569TIP3   OH253121   3.421   6.027  10.968  0.1365  0.0845 -0.5045
10569TIP3    H153122   3.502   6.075  10.947  0.3861 -0.8068 -1.6787
10569TIP3    H253123   3.352   6.075  10.921  0.2969 -0.3410 -1.1852
10570TIP3   OH253124   0.371   4.083  13.018  0.1580  0.3255 -0.1136
10570TIP3    H153125   0.354   4.113  13.107 -3.7403 -0.9318 -0.2509
10570TIP3    H253126   0.354   4.160  12.963  1.3080  0.7614  0.1239
10571TIP3   OH253127   0.516   4.817  15.339  0.2063 -0.0129  0.4408
10571TIP3    H153128   0.473   4.836  15.422 -0.2968 -1.9519  0.6896
10571TIP3    H253129   0.475   4.735  15.310 -0.6756  1.3211 -2.4580
10572TIP3   OH253130   3.040   2.180  16.529  0.2547 -0.0453 -0.4518
10572TIP3    H153131   3.097   2.119  16.576  0.7918  0.9848  0.2718
10572TIP3    H253132   3.100   2.234  16.478 -0.2857 -0.8163 -1.9830
10573TIP3   OH253133   1.218   3.956   1.616  0.1035  0.0693 -0.6280
10573TIP3    H153134   1.132   3.997   1.606  0.5196  0.9075 -0.7872
10573TIP3    H253135   1.259   4.003   1.688  1.3868  1.3212 -2.1196
10574TIP3   OH253136   6.096   4.578  13.205 -0.4578  0.1395  0.5736
10574TIP3    H153137   6.048   4.594  13.286  0.0011 -2.2666  1.3767
10574TIP3    H253138   6.036   4.605  13.136 -1.0473  1.7543  1.6623
10575TIP3   OH253139   3.123   5.675   4.558  0.2332 -0.1406 -0.5530
10575TIP3    H153140   3.053   5.619   4.592 -0.1960  1.0369  0.5725
10575TIP3    H253141   3.194   5.614   4.537 -0.2379 -1.1302  0.5917
10576TIP3   OH253142   3.076   5.908   3.386 -0.4197  0.9055 -0.0186
10576TIP3    H153143   3.167   5.888   3.362 -0.5102  1.4459 -0.8415
10576TIP3    H253144   3.072   6.004   3.384 -1.3141  0.8639 -1.1957
10577TIP3   OH253145   2.608   4.584  16.216  0.3091 -0.3916  0.2710
10577TIP3    H153146   2.514   4.596  16.224  0.5430  0.2675  2.7941
10577TIP3    H253147   2.628   4.510  16.274  1.3839 -0.3256  0.0059
10578TIP3   OH253148   4.844   0.593  11.370 -0.2589 -0.1070  0.1311
10578TIP3    H153149   4.812   0.504  11.355 -0.7724  0.2774 -1.1317
10578TIP3    H253150   4.937   0.589  11.351  0.5378 -1.1671  3.5525
10579TIP3   OH253151   0.515   5.700  15.273  0.1967  0.3259  0.4443
10579TIP3    H153152   0.558   5.782  15.294  0.5650  0.5927 -1.2252
10579TIP3    H253153   0.479   5.713  15.186 -0.3863 -1.0383  0.4528
10580TIP3   OH253154   5.171   4.555  11.498  0.1484 -0.1731  0.5235
10580TIP3    H153155   5.203   4.542  11.409 -0.1635  0.4373  0.3247
10580TIP3    H253156   5.116   4.633  11.494 -0.8656 -0.8357  0.9936
10581TIP3   OH253157   3.915   2.843   0.606  0.0844  0.2761  0.3783
10581TIP3    H153158   3.834   2.822   0.652  0.5997  0.7081  1.5181
10581TIP3    H253159   3.954   2.915   0.656  2.7884 -2.0273  1.8163
10582TIP3   OH253160   5.292   1.170   1.280  0.3645 -1.0735 -0.1076
10582TIP3    H153161   5.246   1.091   1.307 -0.7261  0.0210  1.4326
10582TIP3    H253162   5.262   1.237   1.342  2.1071  0.2881 -0.6678
10583TIP3   OH253163   1.759   0.995   4.606  0.0727  0.3148 -0.2298
10583TIP3    H153164   1.817   1.064   4.636  0.2120  0.4541 -0.7992
10583TIP3    H253165   1.746   0.939   4.682  0.4231  0.6483  0.0777
10584TIP3   OH253166   6.695   0.035  15.617  0.3681 -0.3495 -0.3544
10584TIP3    H153167   6.736   0.083  15.545 -0.4441 -0.3533 -0.8215
10584TIP3    H253168   6.630  -0.021  15.575  0.1841 -0.6661  0.3437
10585TIP3   OH253169   5.385   3.359   3.081  0.4391  0.5998 -0.0566
10585TIP3    H153170   5.296   3.396   3.085  0.0751 -0.2745  0.3016
10585TIP3    H253171   5.371   3.266   3.063  1.2532  0.3332  0.6386
10586TIP3   OH253172   3.268   3.296  11.402  0.0230 -0.3189  0.4076
10586TIP3    H153173   3.194   3.345  11.367 -0.5701 -1.5136 -0.0383
10586TIP3    H253174   3.241   3.205  11.397 -0.1485 -0.6187  4.0167
10587TIP3   OH253175   0.655   2.315   0.840 -0.0711 -0.4437  0.0722
10587TIP3    H153176   0.731   2.372   0.836  0.3057 -0.8981  0.6560
10587TIP3    H253177   0.686   2.236   0.884  0.0694 -2.0979 -2.7276
10588TIP3   OH253178   5.638   6.358  10.659 -0.4282  0.3516 -0.6304
10588TIP3    H153179   5.597   6.272  10.649  1.3890 -0.6721  0.1596
10588TIP3    H253180   5.705   6.361  10.591  0.4268  0.5533  0.1962
10589TIP3   OH253181   3.147   0.618  12.274  0.5014  0.0797  0.2222
10589TIP3    H153182   3.063   0.583  12.305  0.6534  1.1751  2.0287
10589TIP3    H253183   3.169   0.565  12.198 -1.9698 -0.0705 -0.4735
10590TIP3   OH253184   4.559   4.008  15.482 -0.3034  0.1373 -0.6393
10590TIP3    H153185   4.584   3.921  15.511  0.2478  0.3782 -0.3848
10590TIP3    H253186   4.637   4.043  15.439 -0.5447  0.4761 -0.8071
10591TIP3   OH253187   3.832   3.530   0.655 -0.2456  0.7530  0.0814
10591TIP3    H153188   3.840   3.535   0.559 -1.1240  0.3956 -0.0209
10591TIP3    H253189   3.784   3.610   0.678 -1.2335  0.1777  0.0646
10592TIP3   OH253190   2.904   5.402  14.838  0.4736  0.3057  0.0541
10592TIP3    H153191   2.812   5.421  14.819  0.2694  1.5254  1.9607
10592TIP3    H253192   2.952   5.473  14.795  0.2884  1.1329  1.1714
10593TIP3   OH253193   1.119   5.646   3.589 -0.4751 -0.3702 -0.4404
10593TIP3    H153194   1.190   5.591   3.554 -1.1380 -0.4701 -1.6551
10593TIP3    H253195   1.039   5.606   3.555 -1.0152  0.8863 -0.6934
10594TIP3   OH253196   6.744   0.612   4.099 -0.1212 -0.0098 -0.1542
10594TIP3    H153197   6.659   0.569   4.095 -0.0883 -0.0329 -0.6513
10594TIP3    H253198   6.787   0.589   4.016 -0.8947  2.6361 -1.4076
10595TIP3   OH253199   3.303   0.372  15.658  0.6441 -0.1540  0.7543
10595TIP3    H153200   3.339   0.384  15.570  1.5510  1.0578  1.2634
10595TIP3    H253201   3.210   0.388  15.648  1.1123  2.9204  0.4999
10596TIP3   OH253202   0.140   6.064  11.807 -0.4847  0.3028  0.2402
10596TIP3    H153203   0.067   6.107  11.764 -1.1814 -1.2321 -0.1933
10596TIP3    H253204   0.213   6.072  11.746 -1.2507 -1.1528 -0.9383
10597TIP3   OH253205   1.831   1.338  14.913 -0.0286  0.0734 -0.0031
10597TIP3    H153206   1.895   1.334  14.984 -0.3741  1.0871  0.3800
10597TIP3    H253207   1.791   1.252  14.912  0.9693 -0.4077  0.0948
10598TIP3   OH253208   4.915   2.798  14.277 -0.5845 -0.8428 -0.5194
10598TIP3    H153209   4.928   2.708  14.308  2.3653 -0.0417  0.9287
10598TIP3    H253210   4.838   2.829  14.325  0.7156 -1.3915  2.1080
10599TIP3   OH253211   3.024   4.668   5.008  0.7445  0.6449 -0.1405
10599TIP3    H153212   2.981   4.695   5.090 -0.9967  2.5182 -1.5580
10599TIP3    H253213   2.961   4.607   4.968  1.2941  0.2429 -0.4012
10600TIP3   OH253214   1.889   6.363  12.936 -0.1162  0.3553 -0.1832
10600TIP3    H153215   1.966   6.342  12.989 -0.3901 -1.4526 -0.4119
10600TIP3    H253216   1.853   6.277  12.912 -1.6479  1.1532 -0.8897
10601TIP3   OH253217   6.059   4.560   4.402 -0.0553  0.7793  0.0895
10601TIP3    H153218   6.142   4.528   4.367  1.4524  2.0100  2.2885
10601TIP3    H253219   6.007   4.481   4.418  0.9217 -0.0570 -0.7740
10602TIP3   OH253220   6.773   2.651   5.691  0.1743  0.4186 -0.3326
10602TIP3    H153221   6.803   2.562   5.672 -0.0067  0.5369 -1.2094
10602TIP3    H253222   6.841   2.708   5.655  1.3083  0.6392  1.9920
10603TIP3   OH253223   4.464   1.330   1.206  0.1150 -0.0295  0.0164
10603TIP3    H153224   4.429   1.264   1.146 -0.0589 -0.4707  0.5925
10603TIP3    H253225   4.404   1.404   1.198  0.7164  0.3616 -1.1723
10604TIP3   OH253226   6.700   6.227  13.460 -0.3427  0.8073  0.2032
10604TIP3    H153227   6.754   6.283  13.404 -0.4535  1.5026  0.7724
10604TIP3    H253228   6.694   6.275  13.543 -1.1441  0.3504  0.4200
10605TIP3   OH253229   2.134   6.408   4.002 -0.3848  0.1478 -0.1230
10605TIP3    H153230   2.127   6.320   4.040  2.1411 -0.6412 -1.2844
10605TIP3    H253231   2.074   6.461   4.055 -0.7757 -1.9116  1.6746
10606TIP3   OH253232   0.753   4.066  13.658  0.1386 -0.0335  0.1768
10606TIP3    H153233   0.832   4.023  13.625 -0.3261 -0.3295 -0.5609
10606TIP3    H253234   0.718   4.004  13.722 -0.4064 -0.6696 -0.7191
10607TIP3   OH253235   1.065   0.010   2.316  0.1423  0.3498 -0.2560
10607TIP3    H153236   1.094   0.088   2.364 -1.4002  0.1683  1.0607
10607TIP3    H253237   0.971   0.024   2.303  0.1610 -0.5535 -1.4759
10608TIP3   OH253238   5.615   4.263   5.811  0.2491 -0.3058  0.5117
10608TIP3    H153239   5.520   4.264   5.823  0.2253 -1.6691  0.5942
10608TIP3    H253240   5.637   4.170   5.799  1.9546 -0.5100  3.9339
10609TIP3   OH253241   3.683   0.371  14.168  0.4183 -0.1181  0.1055
10609TIP3    H153242   3.730   0.372  14.251  1.2301 -0.7008 -0.3420
10609TIP3    H253243   3.652   0.281  14.158 -0.0928  0.0656  0.0066
10610TIP3   OH253244   4.286   4.380   2.184  0.2918 -0.2876  0.1263
10610TIP3    H153245   4.312   4.472   2.192  0.7563 -0.4957  1.1468
10610TIP3    H253246   4.195   4.379   2.213  0.1490 -0.0864 -0.3022
10611TIP3   OH253247   3.863   5.976   2.134  0.2512 -0.2590 -0.2157
10611TIP3    H153248   3.828   6.062   2.112  0.0039 -0.5763 -1.1194
10611TIP3    H253249   3.905   5.988   2.219  1.8521  1.2153 -1.1437
10612TIP3   OH253250   6.631   3.754  11.376  0.2026  0.0892  0.3974
10612TIP3    H153251   6.628   3.758  11.280  0.6035  1.6312  0.4087
10612TIP3    H253252   6.652   3.844  11.402  4.0645 -1.0444  1.7903
10613TIP3   OH253253   2.720   2.479   0.799 -0.3600  0.3225  0.0186
10613TIP3    H153254   2.768   2.443   0.724  0.2714  1.6438 -0.2426
10613TIP3    H253255   2.749   2.427   0.873 -0.8802 -0.9075 -0.6138
10614TIP3   OH253256   4.562   3.153   3.527  0.3049  0.3456 -0.0756
10614TIP3    H153257   4.586   3.246   3.527 -1.5981  0.8747  0.1109
10614TIP3    H253258   4.505   3.143   3.451  3.4998 -1.5967 -2.4384
10615TIP3   OH253259   2.410   6.239   5.451  0.1500  0.0072  0.2076
10615TIP3    H153260   2.344   6.248   5.520  0.7014 -0.3921  0.8005
10615TIP3    H253261   2.463   6.319   5.458 -1.2143  1.1034 -1.3222
10616TIP3   OH253262   0.613   3.919   5.074  0.2999 -0.0644 -0.2972
10616TIP3    H153263   0.680   3.944   5.010  0.7808 -1.2473 -0.2759
10616TIP3    H253264   0.660   3.912   5.157  0.9282 -3.9825 -0.7992
10617TIP3   OH253265   1.058   6.289   3.132 -0.1737  0.4370 -0.6407
10617TIP3    H153266   1.060   6.318   3.040 -1.5434  0.5584 -0.6509
10617TIP3    H253267   1.017   6.203   3.129  0.3017  0.1947 -0.1995
10618TIP3   OH253268   2.533   1.274   1.387  0.3462 -0.0387  0.5603
10618TIP3    H153269   2.486   1.242   1.464 -0.3540  0.5149  0.3756
10618TIP3    H253270   2.534   1.199   1.327  0.1830 -0.2241  0.7861
10619TIP3   OH253271   5.433   1.208   5.446  0.2389 -0.1627  0.2976
10619TIP3    H153272   5.527   1.222   5.439  0.4105 -0.6100  1.5160
10619TIP3    H253273   5.395   1.294   5.427  0.8020 -0.2946 -1.5604
10620TIP3   OH253274   2.828   2.905  12.683  0.5351 -0.0166  0.0668
10620TIP3    H153275   2.827   2.992  12.724 -0.3223 -0.0504  0.1325
10620TIP3    H253276   2.825   2.923  12.589  1.9877  0.0481  0.0051
10621TIP3   OH253277   1.595   5.344   5.912  0.5061  0.2517  0.2311
10621TIP3    H153278   1.591   5.255   5.877 -1.5133 -0.4552  2.0438
10621TIP3    H253279   1.685   5.353   5.944  0.4353 -1.5914  1.0641
10622TIP3   OH253280   0.209   5.641   5.901  0.1015 -0.4447 -0.1839
10622TIP3    H153281   0.132   5.685   5.865  0.2347  0.4871  0.6380
10622TIP3    H253282   0.180   5.610   5.987  0.7933  0.4357  0.3866
10623TIP3   OH253283   0.328   5.466   1.515 -0.2255 -0.1476  0.2499
10623TIP3    H153284   0.295   5.378   1.534 -1.3832  0.2324  0.1068
10623TIP3    H253285   0.331   5.509   1.601 -4.3956  1.2108 -0.0703
10624TIP3   OH253286   0.792   4.527  13.878 -0.2358  0.3714  0.1152
10624TIP3    H153287   0.744   4.444  13.885  0.8545 -0.4624 -1.7346
10624TIP3    H253288   0.765   4.576  13.956 -1.3365 -1.4798  0.9782
10625TIP3   OH253289   6.458   1.769  12.742  0.5280 -0.3789 -0.4980
10625TIP3    H153290   6.416   1.779  12.656 -0.5341 -4.2114 -0.6316
10625TIP3    H253291   6.512   1.691  12.733 -0.4012 -1.5223  2.5487
10626TIP3   OH253292   6.248   4.377  11.151 -0.3581 -0.1702 -0.1015
10626TIP3    H153293   6.201   4.455  11.122 -0.5024 -0.3560 -0.3676
10626TIP3    H253294   6.203   4.349  11.231 -0.1345  0.1778  0.1522
10627TIP3   OH253295   6.468   6.551   0.591  0.1494 -0.0098 -0.0976
10627TIP3    H153296   6.403   6.619   0.611 -0.1990 -0.1259 -0.8016
10627TIP3    H253297   6.551   6.597   0.590 -0.0385  0.3334 -0.1774
10628TIP3   OH253298   4.298   4.295  14.412 -0.0561  0.3543  0.0817
10628TIP3    H153299   4.307   4.312  14.506  3.2167 -0.4453  0.0321
10628TIP3    H253300   4.206   4.312  14.393 -1.0232 -0.2711  3.5770
10629TIP3   OH253301   5.612   3.364   5.513 -0.3005  0.7086  0.1174
10629TIP3    H153302   5.525   3.403   5.516  0.3471  2.1355  2.3463
10629TIP3    H253303   5.617   3.309   5.592 -0.2358 -1.9346 -1.5837
10630TIP3   OH253304   2.091   3.395   0.377 -0.4632  0.8233  0.2065
10630TIP3    H153305   2.184   3.400   0.400 -0.5684 -0.9315  1.2013
10630TIP3    H253306   2.045   3.404   0.461 -1.1722  1.0023 -0.1921
10631TIP3   OH253307   3.692   6.648  14.062  0.3830  0.1048 -0.3010
10631TIP3    H153308   3.677   6.613  14.150  2.8015 -1.4991 -0.4151
10631TIP3    H253309   3.699   6.743  14.075 -0.8170  0.0448  0.9686
10632TIP3   OH253310   6.476   4.431   1.030 -0.2668 -0.4788 -0.0671
10632TIP3    H153311   6.521   4.507   0.994 -0.5769 -0.4364 -0.3645
10632TIP3    H253312   6.447   4.459   1.117 -0.8920 -0.0612 -0.4074
10633TIP3   OH253313   3.279   4.991  12.339 -0.4497 -0.1996 -0.1805
10633TIP3    H153314   3.283   4.926  12.409  0.4509  1.0451  0.9670
10633TIP3    H253315   3.185   5.010  12.330 -0.6996 -1.4057 -0.3373
10634TIP3   OH253316   6.773   1.437   2.244 -0.0194 -0.1374  0.4193
10634TIP3    H153317   6.692   1.473   2.207 -0.1994  0.3302  1.2290
10634TIP3    H253318   6.756   1.434   2.338  0.5735 -0.9103  0.5097
10635TIP3   OH253319   2.029   3.308  15.911 -0.4860 -0.5592  0.3599
10635TIP3    H153320   2.030   3.399  15.882 -0.0105 -1.1646 -1.6716
10635TIP3    H253321   2.006   3.258  15.832 -1.5397 -2.1522  1.6118
10636TIP3   OH253322   3.541   4.388  14.950  0.1852 -0.2472  0.1114
10636TIP3    H153323   3.473   4.334  14.909  0.7524 -0.0282 -1.1802
10636TIP3    H253324   3.514   4.395  15.042 -0.6989 -1.4466 -0.0310
10637TIP3   OH253325   1.870   2.232  17.006  0.2388  0.5186  0.2219
10637TIP3    H153326   1.922   2.270  17.077  1.0199 -0.7178  0.3370
10637TIP3    H253327   1.848   2.145  17.037  1.9578 -0.6863 -1.6561
10638TIP3   OH253328   2.772   4.195   3.250 -0.3750  0.2233  0.7931
10638TIP3    H153329   2.855   4.147   3.253 -0.9242 -0.8356 -0.2173
10638TIP3    H253330   2.737   4.185   3.339  0.0469 -0.3014  0.9142
10639TIP3   OH253331   1.564   5.724   0.289 -0.3222 -0.0147 -0.1322
10639TIP3    H153332   1.596   5.807   0.255 -2.0713  0.3387 -1.0245
10639TIP3    H253333   1.485   5.747   0.338  0.7624 -0.8227  2.1783
10640TIP3   OH253334   6.134   1.271  12.224 -0.5184 -0.1623 -0.0691
10640TIP3    H153335   6.154   1.288  12.316  0.2486  1.3252 -0.4896
10640TIP3    H253336   6.097   1.183  12.224  0.3968 -0.5896  1.5386
10641TIP3   OH253337   1.923   0.118   1.875  0.2313 -0.1436 -0.1216
10641TIP3    H153338   1.846   0.071   1.909  0.0830  0.7465  0.8362
10641TIP3    H253339   1.981   0.126   1.951  0.0909  1.5212 -0.1458
10642TIP3   OH253340   4.949   4.104  12.341 -0.3234  0.5070  0.2072
10642TIP3    H153341   4.926   4.020  12.301  2.0796  0.2629 -0.8022
10642TIP3    H253342   4.961   4.163  12.267  2.0649  0.6158  0.6044
10643TIP3   OH253343   6.026   1.839   3.928  0.2790  0.0983  0.7380
10643TIP3    H153344   6.011   1.895   4.004  0.0891  3.0153 -1.2744
10643TIP3    H253345   6.118   1.852   3.907 -0.4617  2.3249 -1.5846
10644TIP3   OH253346   4.956   2.935   4.691 -0.2751 -0.3991  0.2101
10644TIP3    H153347   4.912   2.905   4.771  0.1181  1.5322  1.2215
10644TIP3    H253348   5.046   2.953   4.719  0.0879 -0.4894 -0.8718
10645TIP3   OH253349   4.177   3.885  14.399  0.1308 -0.1243  0.0553
10645TIP3    H153350   4.268   3.882  14.426  0.7512 -1.5566 -1.9857
10645TIP3    H253351   4.178   3.859  14.307 -2.2959  0.2560 -0.1488
10646TIP3   OH253352   3.399   1.815  12.121 -0.3406  0.5656 -0.9798
10646TIP3    H153353   3.324   1.784  12.070 -1.0566 -0.5170  0.6256
10646TIP3    H253354   3.439   1.735  12.155  0.4329  1.2263 -0.3068
10647TIP3   OH253355   2.802   3.328   0.431 -0.0350  0.2018  0.8538
10647TIP3    H153356   2.804   3.423   0.418  1.0733  0.1872  0.8450
10647TIP3    H253357   2.766   3.294   0.349  0.6727  0.5486  0.3830
10648TIP3   OH253358   0.464   0.752  16.702 -0.0247 -0.3340 -0.0114
10648TIP3    H153359   0.475   0.810  16.626  1.0554 -0.9702 -0.3730
10648TIP3    H253360   0.468   0.810  16.778  3.6808 -0.1196 -0.2129
10649TIP3   OH253361   3.995   1.149   4.632 -0.1271 -0.6622  0.0426
10649TIP3    H153362   4.085   1.179   4.634  0.0899 -1.3126  0.4930
10649TIP3    H253363   3.998   1.062   4.672 -0.7356 -1.2716 -1.1851
10650TIP3   OH253364   5.060   0.492   4.768  0.6673  0.1852 -0.3638
10650TIP3    H153365   5.152   0.502   4.743  0.5607 -1.8752 -1.9357
10650TIP3    H253366   5.013   0.488   4.685 -0.7738  0.5762  0.3988
10651TIP3   OH253367   5.192   3.229  13.050  0.1153  0.4070  0.1597
10651TIP3    H153368   5.222   3.203  13.137 -0.4778 -1.4269 -0.1380
10651TIP3    H253369   5.149   3.313  13.063 -0.8890 -0.3276  1.8442
10652TIP3   OH253370   6.286   3.167   1.734  0.0026 -0.2259  0.6005
10652TIP3    H153371   6.235   3.206   1.805 -4.3164 -0.4582 -2.0157
10652TIP3    H253372   6.336   3.240   1.697 -1.9466  1.1472  0.5450
10653TIP3   OH253373   4.878   0.798   0.330  0.5458 -0.2194  0.0504
10653TIP3    H153374   4.836   0.720   0.293  1.3290 -1.2669  1.2787
10653TIP3    H253375   4.960   0.805   0.281  1.2891 -1.2363  1.0825
10654TIP3   OH253376   2.394   6.507  10.544 -0.0108 -0.3515  0.0320
10654TIP3    H153377   2.453   6.442  10.506  1.3699  1.3879 -0.9255
10654TIP3    H253378   2.452   6.574  10.579 -1.3904  0.1029  1.5529
10655TIP3   OH253379   6.362   4.229   4.159 -0.0845  0.1346 -0.4629
10655TIP3    H153380   6.279   4.192   4.128 -0.4143  0.6538 -0.2140
10655TIP3    H253381   6.428   4.195   4.099 -0.2318 -1.6635  0.3325
10656TIP3   OH253382   4.402   3.851  11.503 -0.4224  0.5009 -0.4208
10656TIP3    H153383   4.482   3.817  11.463 -1.9283 -2.4890 -1.1634
10656TIP3    H253384   4.345   3.871  11.428 -0.4346  2.6842  0.0916
10657TIP3   OH253385   6.297   4.392   5.412 -0.5809  0.1714  0.9948
10657TIP3    H153386   6.329   4.304   5.394 -0.4750  0.5032 -0.6342
10657TIP3    H253387   6.233   4.381   5.482 -1.8969 -1.4819 -0.3725
10658TIP3   OH253388   0.743   5.286  14.826 -0.0683 -0.0443  0.5951
10658TIP3    H153389   0.801   5.221  14.787 -0.3693 -0.0418  0.1325
10658TIP3    H253390   0.691   5.318  14.753 -0.3748  0.2426  0.9356
10659TIP3   OH253391   4.316   6.325   1.873  0.2931  0.1517  0.0438
10659TIP3    H153392   4.408   6.315   1.851 -0.1387  1.1841 -2.4995
10659TIP3    H253393   4.295   6.246   1.924  2.5950  0.0428  0.9747
10660TIP3   OH253394   2.201   4.835   3.812 -0.3652 -0.1226 -0.7312
10660TIP3    H153395   2.289   4.811   3.783 -0.3252  0.6301 -1.2694
10660TIP3    H253396   2.157   4.866   3.733 -0.9119  0.0757 -0.3556
10661TIP3   OH253397   4.575   5.326   6.369 -0.0365  0.2197  0.3094
10661TIP3    H153398   4.649   5.266   6.372 -0.6932 -0.6795 -0.8101
10661TIP3    H253399   4.555   5.345   6.461  1.9056  0.9335  0.6471
10662TIP3   OH253400   5.091   1.639   0.545 -0.7456  0.0791  0.0316
10662TIP3    H153401   5.063   1.557   0.586 -1.1004 -0.3406 -1.0110
10662TIP3    H253402   5.186   1.637   0.550 -0.6266 -1.3560 -1.7011
10663TIP3   OH253403   4.296   2.940   2.547 -0.1090 -0.2118 -0.0335
10663TIP3    H153404   4.289   3.032   2.521 -0.2250  0.0420  0.8550
10663TIP3    H253405   4.210   2.902   2.528 -0.1097 -0.0995 -0.2558
10664TIP3   OH253406   3.849   3.578   3.291 -0.0757  0.8537 -0.0472
10664TIP3    H153407   3.796   3.587   3.212 -0.0643  0.5509 -0.0928
10664TIP3    H253408   3.818   3.496   3.331  1.3927 -0.1538 -0.8765
10665TIP3   OH253409   3.447   0.805  14.977 -0.1462  0.1309  0.0188
10665TIP3    H153410   3.458   0.713  14.955  1.2929  0.3052 -0.0829
10665TIP3    H253411   3.397   0.805  15.058 -1.7227 -0.6607 -0.9039
10666TIP3   OH253412   4.994   6.723   4.008  0.0670  0.1494  0.3875
10666TIP3    H153413   5.011   6.798   3.950 -0.1537 -1.1901 -1.5310
10666TIP3    H253414   5.033   6.648   3.962 -0.1440 -0.9954  1.9929
10667TIP3   OH253415   6.399   5.432   5.874 -0.1841 -0.6364  0.0412
10667TIP3    H153416   6.316   5.467   5.908 -1.4978 -0.3053 -3.1658
10667TIP3    H253417   6.374   5.353   5.826  1.1733 -0.0029 -1.7981
10668TIP3   OH253418   6.210   0.306  11.180  0.5317  0.2089  0.0779
10668TIP3    H153419   6.155   0.295  11.257  0.0821 -1.2583 -0.4063
10668TIP3    H253420   6.288   0.253  11.198 -0.0910 -1.1011 -0.9079
10669TIP3   OH253421   6.382   4.243   2.491 -0.3756 -0.1782  0.1757
10669TIP3    H153422   6.345   4.244   2.403  0.5113 -2.0489 -0.2684
10669TIP3    H253423   6.338   4.170   2.535  0.8540 -0.7500  0.5010
10670TIP3   OH253424   5.716   4.197  14.829  0.2688  0.9758 -0.4970
10670TIP3    H153425   5.656   4.167  14.761  0.7512  0.5096 -0.7243
10670TIP3    H253426   5.666   4.261  14.879 -0.4301  0.5640 -0.6603
10671TIP3   OH253427   5.888   4.751   5.090 -0.0065  0.4561  0.2557
10671TIP3    H153428   5.850   4.832   5.056  1.1770  1.3143  0.9005
10671TIP3    H253429   5.958   4.730   5.029 -0.4305 -0.2031 -0.0138
10672TIP3   OH253430   4.881   4.002  13.081  0.1249  0.2718  0.1130
10672TIP3    H153431   4.860   3.953  13.002  0.7112  2.5774 -1.5752
10672TIP3    H253432   4.957   3.957  13.118  0.7414 -0.0135 -1.4369
10673TIP3   OH253433   4.652   1.560   4.107  0.6874 -0.3360 -0.1421
10673TIP3    H153434   4.626   1.648   4.133 -0.5587 -0.4403 -0.9715
10673TIP3    H253435   4.704   1.572   4.028 -1.3280 -0.4259 -1.5694
10674TIP3   OH253436   2.555   6.649   4.876  0.1083 -0.2852  0.3922
10674TIP3    H153437   2.597   6.608   4.951 -0.0301 -1.3728 -0.1024
10674TIP3    H253438   2.511   6.577   4.830  1.2943  0.0961 -1.4627
10675TIP3   OH253439   6.431   6.660   1.915  0.1064  0.4338 -0.1994
10675TIP3    H153440   6.421   6.713   1.836  1.1973 -0.4164 -0.9427
10675TIP3    H253441   6.342   6.627   1.933 -0.3085  1.3152 -0.5631
10676TIP3   OH253442   0.861   1.097   2.350  0.3908  0.1869 -0.3949
10676TIP3    H153443   0.843   1.015   2.304  1.0430 -0.2682  0.1548
10676TIP3    H253444   0.830   1.082   2.439  2.6360 -0.3201  0.3615
10677TIP3   OH253445   3.299   1.299  15.172 -0.3352  0.2266  0.3391
10677TIP3    H153446   3.259   1.235  15.113 -0.6327  0.8658 -0.1711
10677TIP3    H253447   3.320   1.373  15.115  0.5169  0.3579  0.8198
10678TIP3   OH253448   1.643   2.371   0.104 -0.2165  0.0883 -0.3587
10678TIP3    H153449   1.660   2.444   0.163  2.2657 -0.3197 -0.4437
10678TIP3    H253450   1.668   2.403   0.017  0.1033 -0.5752 -0.5203
10679TIP3   OH253451   1.721   6.756   1.246 -0.7629  0.2777 -0.1670
10679TIP3    H153452   1.744   6.829   1.303  1.0061  0.0967 -0.5986
10679TIP3    H253453   1.707   6.796   1.160  1.2284  0.0458 -0.6449
10680TIP3   OH253454   0.653   0.164   1.862 -0.0141  0.6768  0.4175
10680TIP3    H153455   0.716   0.163   1.934  2.7218  0.1714 -1.7966
10680TIP3    H253456   0.576   0.118   1.896  0.8045  1.2004  3.2213
10681TIP3   OH253457   6.135   5.954   2.935  0.0700  0.2947  0.0461
10681TIP3    H153458   6.067   6.017   2.910  0.0763 -0.3645 -1.7684
10681TIP3    H253459   6.158   5.910   2.853  1.3520 -0.8126  0.9629
10682TIP3   OH253460   5.730   5.831  13.214 -0.5358  0.3928 -0.7914
10682TIP3    H153461   5.641   5.796  13.208 -1.2743  1.8753  0.7143
10682TIP3    H253462   5.719   5.920  13.246  1.5825 -0.0838  1.6352
10683TIP3   OH253463   1.696   6.525   3.544  0.1622  0.2155  0.4376
10683TIP3    H153464   1.721   6.560   3.458 -0.1420 -2.7122 -0.9677
10683TIP3    H253465   1.772   6.474   3.572  0.6071  1.8606  2.4115
10684TIP3   OH253466   3.076   3.592  16.808  0.4394  0.1140 -0.8375
10684TIP3    H153467   3.093   3.594  16.714 -0.9865  0.6566 -1.0987
10684TIP3    H253468   3.034   3.675  16.828  0.6634 -0.0170  0.2810
10685TIP3   OH253469   2.316   6.035  13.380 -0.4560  0.6712  0.0737
10685TIP3    H153470   2.223   6.056  13.379 -0.7135 -0.4452 -0.4974
10685TIP3    H253471   2.322   5.949  13.338  1.0456  1.5645 -1.7001
10686TIP3   OH253472   1.622   0.843  14.011  0.0510  0.0035 -0.3841
10686TIP3    H153473   1.540   0.840  14.060 -0.3256 -0.4982 -1.0299
10686TIP3    H253474   1.673   0.769  14.044  0.2942  0.3759  0.0906
10687TIP3   OH253475   2.266   4.827  14.181  0.2721 -0.3888  0.0005
10687TIP3    H153476   2.181   4.803  14.217 -0.1442  0.0278 -0.6885
10687TIP3    H253477   2.265   4.792  14.092  1.5319 -1.9499  0.5440
10688TIP3   OH253478   2.599   4.400  11.106 -0.0807 -0.0439 -0.0184
10688TIP3    H153479   2.524   4.373  11.053 -0.2633 -1.5805  0.9793
10688TIP3    H253480   2.675   4.385  11.050 -0.4843  2.1790 -1.3035
10689TIP3   OH253481   3.034   4.072  13.363  0.5652  0.0404 -0.0771
10689TIP3    H153482   2.940   4.056  13.362  0.3477  1.1365 -2.4741
10689TIP3    H253483   3.049   4.132  13.291  3.0425  0.4048  0.6523
10690TIP3   OH253484   6.092   4.020  11.726  0.0385 -0.5385 -0.0783
10690TIP3    H153485   6.042   3.964  11.786  0.3532 -0.0052  0.6955
10690TIP3    H253486   6.113   3.963  11.652 -0.0863 -1.3009  0.4623
10691TIP3   OH253487   3.807   1.622   0.533  0.0935 -0.1777  0.3389
10691TIP3    H153488   3.735   1.652   0.587 -0.1378 -0.4783  0.2031
10691TIP3    H253489   3.885   1.661   0.572 -0.0562 -0.4810  0.9589
10692TIP3   OH253490   3.974   1.740  12.231 -0.4276  0.8449 -0.3597
10692TIP3    H153491   3.976   1.660  12.178 -0.2050  0.6626 -0.0779
10692TIP3    H253492   4.062   1.775  12.226 -0.1206  0.2888  0.6916
10693TIP3   OH253493   5.568   1.705   2.939  0.0389  0.1971 -0.3474
10693TIP3    H153494   5.603   1.688   2.852 -0.6758 -1.3205 -0.3623
10693TIP3    H253495   5.474   1.719   2.925 -0.1917 -0.7059  0.2430
10694TIP3   OH253496   5.880   1.383   1.952 -0.3200  0.0708 -0.0703
10694TIP3    H153497   5.801   1.376   1.899 -0.3814  2.4922 -0.3830
10694TIP3    H253498   5.947   1.333   1.904 -0.9393  0.3719 -1.2527
10695TIP3   OH253499   1.043   5.770  12.339  0.2594  0.3503  0.7649
10695TIP3    H153500   1.055   5.851  12.389 -1.3198  0.2755  1.3282
10695TIP3    H253501   1.046   5.701  12.405 -0.9212  0.1757  0.6554
10696TIP3   OH253502   3.549   3.944  14.556  0.3927 -0.1828 -0.2780
10696TIP3    H153503   3.596   3.970  14.476 -0.3768 -0.8184 -0.9476
10696TIP3    H253504   3.457   3.954  14.534  0.1034 -2.0698 -0.0770
10697TIP3   OH253505   6.419   2.343  16.693 -0.0825 -0.0167 -0.2033
10697TIP3    H153506   6.481   2.405  16.655  0.2301 -0.8038 -1.0194
10697TIP3    H253507   6.424   2.360  16.787  3.9033 -2.1868  0.2042
10698TIP3   OH253508   3.065   5.139  15.338 -0.5405  0.3516  0.3445
10698TIP3    H153509   3.074   5.048  15.311 -3.1451 -0.3047  1.3559
10698TIP3    H253510   3.128   5.149  15.410  0.1268 -0.4882 -0.1053
10699TIP3   OH253511   6.439   0.212   5.355  0.5375  0.0264 -0.3197
10699TIP3    H153512   6.355   0.190   5.393  0.3438  1.1794 -0.0399
10699TIP3    H253513   6.462   0.136   5.302 -0.7718 -0.2199 -0.5669
10700TIP3   OH253514   1.557   1.196   1.679 -0.6808 -0.3960  0.0333
10700TIP3    H153515   1.573   1.290   1.679 -1.7273 -0.1985 -1.3246
10700TIP3    H253516   1.502   1.181   1.756  0.3441 -0.0766  0.8496
10701TIP3   OH253517   4.854   4.770   3.228  0.5754 -0.3560 -0.0164
10701TIP3    H153518   4.923   4.822   3.269  1.0316 -0.0588 -1.1266
10701TIP3    H253519   4.874   4.680   3.254  2.4329 -0.4971 -1.7045
10702TIP3   OH253520   6.250   5.275  13.012 -0.0748 -0.5106 -0.1177
10702TIP3    H153521   6.254   5.180  13.014  1.3256 -0.4551  0.8285
10702TIP3    H253522   6.186   5.298  13.079 -0.6546 -0.7846 -0.5710
10703TIP3   OH253523   6.354   1.608  13.870  0.5266  0.1427  0.2024
10703TIP3    H153524   6.390   1.643  13.788 -0.5822  0.3710 -0.1996
10703TIP3    H253525   6.277   1.558  13.844  2.0432 -2.7134  0.7451
10704TIP3   OH253526   4.524   1.443  13.771 -0.0478 -0.5925  0.1107
10704TIP3    H153527   4.526   1.415  13.863 -1.7198 -1.6210 -0.1365
10704TIP3    H253528   4.612   1.421  13.738  0.2061 -1.2494  1.1627
10705TIP3   OH253529   5.421   6.610   1.183 -0.9618  0.2070 -0.6523
10705TIP3    H153530   5.325   6.618   1.188 -0.8482  1.0950  0.3587
10705TIP3    H253531   5.446   6.670   1.112 -1.2171 -0.7469 -1.5804
10706TIP3   OH253532   4.617   1.411  16.679  0.3728  0.2497  0.1469
10706TIP3    H153533   4.606   1.382  16.770 -0.3095  2.7913  0.9483
10706TIP3    H253534   4.639   1.331  16.631 -1.5762 -1.6089  2.1211
10707TIP3   OH253535   0.138   4.585  13.556 -0.0308  0.2897 -0.3113
10707TIP3    H153536   0.080   4.575  13.632 -0.5270 -2.0254 -0.9160
10707TIP3    H253537   0.096   4.654  13.504  0.4083  2.0332  1.5253
10708TIP3   OH253538   3.148   5.023   2.365  0.2348  0.0155  0.2309
10708TIP3    H153539   3.213   5.050   2.300 -0.2478 -0.5350 -0.5047
10708TIP3    H253540   3.099   5.102   2.385  2.0780  0.8037  1.9580
10709TIP3   OH253541   5.902   1.704  16.807  0.4095  0.4103  0.2522
10709TIP3    H153542   5.849   1.770  16.763 -0.1393 -0.4482 -0.4085
10709TIP3    H253543   5.992   1.734  16.797  0.3218  0.0999 -1.7223
10710TIP3   OH253544   0.078   1.862   2.212  0.2937  0.1825 -0.2664
10710TIP3    H153545   0.108   1.929   2.273  1.1267 -0.9897  0.6437
10710TIP3    H253546  -0.017   1.860   2.225  0.7006 -2.4750  3.7066
10711TIP3   OH253547   3.805   3.687   1.852  0.3957 -0.6128 -0.4679
10711TIP3    H153548   3.823   3.735   1.933 -1.1528  1.1070 -1.0591
10711TIP3    H253549   3.852   3.604   1.862  1.5842  0.2193  1.4626
10712TIP3   OH253550   2.128   4.914  16.944 -0.0994  0.3225  0.3481
10712TIP3    H153551   2.068   4.865  17.000 -2.5341 -1.7249 -3.6076
10712TIP3    H253552   2.102   5.006  16.955 -2.4646 -0.2953  0.4658
10713TIP3   OH253553   3.053   3.647   6.010 -0.1732  0.7257  0.1552
10713TIP3    H153554   3.062   3.552   6.012  1.5433  0.7988 -1.6949
10713TIP3    H253555   3.096   3.676   6.091 -0.4903 -0.0342  0.6119
10714TIP3   OH253556   6.449   3.859   6.056  0.0527 -0.5502  0.2199
10714TIP3    H153557   6.462   3.893   6.145  1.2349  0.8510 -0.4462
10714TIP3    H253558   6.354   3.861   6.043 -0.0087  1.3775  0.6721
10715TIP3   OH253559   5.525   3.713   5.254 -0.0494  0.0547  0.1139
10715TIP3    H153560   5.527   3.780   5.186  2.0358 -0.2055 -0.1535
10715TIP3    H253561   5.500   3.633   5.208  1.0078 -0.0493 -0.3030
10716TIP3   OH253562   1.602   0.000  16.304 -0.2439  0.0865  0.3386
10716TIP3    H153563   1.537   0.003  16.374 -0.6401 -0.9916  0.0341
10716TIP3    H253564   1.663  -0.069  16.330 -0.9287 -0.9937 -0.8081
10717TIP3   OH253565   5.097   5.178   6.656  0.0010 -0.3658 -0.1363
10717TIP3    H153566   5.026   5.239   6.637 -0.9040 -1.2283  0.4258
10717TIP3    H253567   5.170   5.233   6.683 -0.6272  0.4927 -0.1773
10718TIP3   OH253568   4.836   2.240  11.249  0.5030  0.0004  0.3435
10718TIP3    H153569   4.779   2.311  11.281 -0.3961 -0.0811 -1.0220
10718TIP3    H253570   4.849   2.260  11.157  2.0377 -0.4524  0.4357
10719TIP3   OH253571   2.716   4.959  16.660 -0.0248  0.3675  0.0485
10719TIP3    H153572   2.805   4.995  16.654  0.3024  0.0729  2.3000
10719TIP3    H253573   2.725   4.868  16.631  0.3526  0.4178  0.0019
10720TIP3   OH253574   4.064   5.753   4.059  0.2908  0.2409 -0.0204
10720TIP3    H153575   4.087   5.661   4.045  0.3336  0.0556  1.1449
10720TIP3    H253576   4.141   5.791   4.101  0.6763  1.0904 -1.4094
10721TIP3   OH253577   2.926   6.114  12.296 -0.6194  0.7463 -0.5760
10721TIP3    H153578   2.958   6.123  12.386 -0.7388  0.4899 -0.5072
10721TIP3    H253579   3.003   6.134  12.242 -0.0587 -0.8163 -0.4086
10722TIP3   OH253580   1.454   1.160   0.365  0.1233  0.3424  0.4106
10722TIP3    H153581   1.516   1.166   0.437 -0.3081 -0.3568  0.8548
10722TIP3    H253582   1.508   1.169   0.286  1.0400 -1.6824  0.7280
10723TIP3   OH253583   5.264   1.266   5.945 -0.2722 -0.1986  0.8916
10723TIP3    H153584   5.301   1.294   6.029  1.5972  1.9170 -0.5189
10723TIP3    H253585   5.312   1.186   5.924 -0.7113 -0.7142  1.7890
10724TIP3   OH253586   4.727   3.182   1.974  0.7707  0.3211  0.2118
10724TIP3    H153587   4.817   3.149   1.975  0.6456 -0.0179  0.0964
10724TIP3    H253588   4.737   3.276   1.955  0.9151 -0.3056 -3.3542
10725TIP3   OH253589   4.478   4.791  12.371 -0.2678  0.1637 -0.0165
10725TIP3    H153590   4.432   4.813  12.452  1.8918 -1.6975  1.8649
10725TIP3    H253591   4.498   4.697  12.379  0.7548  0.1100 -2.3303
10726TIP3   OH253592   5.937   5.418   0.234  0.0825 -0.2962  0.5580
10726TIP3    H153593   5.964   5.506   0.208 -0.5715  0.6925  2.9338
10726TIP3    H253594   6.019   5.375   0.261  0.3532 -0.3108 -0.2551
10727TIP3   OH253595   0.858   5.980   2.572 -0.2337 -0.8831 -0.3128
10727TIP3    H153596   0.868   5.941   2.659  1.2437  3.3379  1.6685
10727TIP3    H253597   0.765   6.004   2.568 -0.2256 -0.7426  0.2492
10728TIP3   OH253598   6.536   1.454   5.366  0.7600 -0.5765 -0.2448
10728TIP3    H153599   6.516   1.523   5.302 -0.8395 -0.5303  0.2726
10728TIP3    H253600   6.565   1.502   5.444 -1.3313 -0.3933  0.4638
10729TIP3   OH253601   4.862   5.977   3.830 -0.0170  0.3086 -0.3015
10729TIP3    H153602   4.783   5.923   3.837  0.1232  0.1751  0.3193
10729TIP3    H253603   4.899   5.977   3.918  1.0446 -0.1875 -0.7310
10730TIP3   OH253604   3.551   1.973  17.032 -0.0528 -1.0370 -0.2945
10730TIP3    H153605   3.494   2.050  17.045 -0.1134 -1.1426  0.0720
10730TIP3    H253606   3.492   1.898  17.042  0.5853 -1.2443  2.6690
10731TIP3   OH253607   3.491   1.888   3.184  0.0761 -0.1555  0.1486
10731TIP3    H153608   3.543   1.943   3.126  1.3253  0.6956  2.0055
10731TIP3    H253609   3.448   1.950   3.243  0.2520 -1.0900  1.2725
10732TIP3   OH253610   4.497   5.915   5.928 -0.4991 -0.3625  0.2193
10732TIP3    H153611   4.454   5.901   5.843 -0.3093 -0.6115  0.1637
10732TIP3    H253612   4.532   6.004   5.922 -2.8625  0.7085  1.0800
10733TIP3   OH253613   3.175   4.912   1.273 -0.8410  0.5325  0.0007
10733TIP3    H153614   3.265   4.915   1.242 -1.1942 -0.9886 -1.3150
10733TIP3    H253615   3.154   5.003   1.293  0.8666  0.9605  0.0052
10734TIP3   OH253616   3.739   5.253   4.322 -0.6487 -0.9851 -0.2367
10734TIP3    H153617   3.767   5.288   4.406 -1.2203  0.5769 -0.6521
10734TIP3    H253618   3.754   5.325   4.260 -1.7784 -1.4986 -1.1567
10735TIP3   OH253619   1.430   2.738  15.012 -0.1697 -0.1375 -0.2104
10735TIP3    H153620   1.378   2.657  15.018 -0.9644  0.2480 -1.4014
10735TIP3    H253621   1.365   2.808  15.011  0.4558  0.4446 -0.2895
10736TIP3   OH253622   6.462   1.612   4.189 -0.0534  0.3194  0.0221
10736TIP3    H153623   6.506   1.609   4.274  0.3350 -1.3408 -0.1914
10736TIP3    H253624   6.531   1.636   4.127  0.8593 -2.8006 -0.3899
10737TIP3   OH253625   5.243   4.045  14.045  0.2320 -0.4150  0.1793
10737TIP3    H153626   5.278   3.986  13.978  0.7558  1.3287 -1.1652
10737TIP3    H253627   5.156   4.010  14.064 -0.0104 -0.8873 -1.5546
10738TIP3   OH253628   2.716   5.887  14.316 -0.1286 -0.2898  0.1203
10738TIP3    H153629   2.757   5.850  14.238 -0.4651  0.0455 -0.2149
10738TIP3    H253630   2.624   5.863  14.309  0.1760 -2.0895  1.4739
10739TIP3   OH253631   4.536   0.392   3.655  0.2695 -0.1803  0.2816
10739TIP3    H153632   4.500   0.318   3.607  1.9715 -1.1131  0.3376
10739TIP3    H253633   4.548   0.460   3.589 -0.5183 -0.2603  0.0554
10740TIP3   OH253634   5.705   2.846  13.983 -0.2200 -0.0497 -0.4480
10740TIP3    H153635   5.762   2.919  14.007  1.4924 -0.9905 -1.4048
10740TIP3    H253636   5.689   2.801  14.066 -0.6090  0.9308  0.0232
10741TIP3   OH253637   0.906   0.731   5.115 -0.5554 -0.0655 -0.1556
10741TIP3    H153638   0.989   0.778   5.110 -0.7341  0.3679  0.6953
10741TIP3    H253639   0.851   0.786   5.171 -1.0516 -0.8786  0.1750
10742TIP3   OH253640   5.744   1.790   1.567  0.2809  0.2328 -0.0589
10742TIP3    H153641   5.825   1.763   1.524 -0.3182  0.9467 -1.7238
10742TIP3    H253642   5.676   1.775   1.501 -0.6893  1.3488  0.6545
10743TIP3   OH253643   1.921   6.096   3.718  0.1112 -0.6300  0.3192
10743TIP3    H153644   1.966   6.063   3.640 -0.1996 -0.2200 -0.0417
10743TIP3    H253645   1.979   6.074   3.791  0.8362 -0.2053 -0.1238
10744TIP3   OH253646   3.819   5.909  13.011  0.0333  0.1319 -0.2701
10744TIP3    H153647   3.850   5.975  12.950  1.0526  0.5010  0.6069
10744TIP3    H253648   3.800   5.958  13.091  0.8379 -0.6193  0.4086
10745TIP3   OH253649   5.093   6.324   0.016  0.0841 -0.2183 -0.0268
10745TIP3    H153650   5.153   6.268   0.067 -0.2779 -0.7768 -0.2001
10745TIP3    H253651   5.136   6.409   0.014  1.6577 -0.9776 -1.4600
10746TIP3   OH253652   3.200   2.060   5.991 -0.0296 -0.7625  0.3544
10746TIP3    H153653   3.226   2.103   5.909  0.8231  0.7402  1.3598
10746TIP3    H253654   3.283   2.040   6.034 -0.4731 -0.8989  1.1560
10747TIP3   OH253655   5.540   2.271  12.682 -0.3897 -0.3344 -0.0903
10747TIP3    H153656   5.513   2.361  12.662 -0.9674  0.0567  2.1844
10747TIP3    H253657   5.458   2.223  12.690 -0.2174 -0.3804  1.5745
10748TIP3   OH253658   1.858   3.404  13.275 -0.5300  0.1518  0.2002
10748TIP3    H153659   1.915   3.409  13.353 -1.1913 -1.8636  0.8643
10748TIP3    H253660   1.771   3.425  13.308 -1.5055 -4.1782  0.9240
10749TIP3   OH253661   3.481   0.756  15.628  0.5411 -0.3573 -0.2405
10749TIP3    H153662   3.467   0.837  15.578  0.0991 -0.3536 -0.1210
10749TIP3    H253663   3.529   0.699  15.568  1.0074  0.0519 -0.2664
10750TIP3   OH253664   0.863   3.203   1.068 -0.2839  0.3659  0.6548
10750TIP3    H153665   0.843   3.294   1.046 -1.9295 -0.0509  0.2864
10750TIP3    H253666   0.958   3.201   1.082  0.1049  1.7018 -1.4085
10751TIP3   OH253667   3.582   3.036  16.491 -0.7204  0.6333 -0.3781
10751TIP3    H153668   3.669   3.003  16.510 -0.1085  3.2832  1.9984
10751TIP3    H253669   3.590   3.080  16.406 -0.3914 -1.0663 -1.2692
10752TIP3   OH253670   1.155   1.993   5.927  0.0573  0.6909  0.3701
10752TIP3    H153671   1.068   2.014   5.961 -0.6118 -0.6347 -0.4545
10752TIP3    H253672   1.195   1.940   5.996  0.2598  1.3596  0.7806
10753TIP3   OH253673   3.414   3.772  16.310  0.1793  0.3420  0.5072
10753TIP3    H153674   3.444   3.862  16.299  1.2760 -0.1121 -0.4045
10753TIP3    H253675   3.446   3.745  16.396  1.6584  0.1741 -0.0630
10754TIP3   OH253676   0.515   3.928  11.407  0.0301  0.8858 -0.6384
10754TIP3    H153677   0.604   3.958  11.384 -0.4508  0.9082 -2.6704
10754TIP3    H253678   0.529   3.845  11.452  1.1680  1.9055  1.0035
10755TIP3   OH253679   4.664   6.451   0.842  0.3069 -0.3606 -0.0787
10755TIP3    H153680   4.654   6.502   0.762 -2.9105 -0.8538 -0.1339
10755TIP3    H253681   4.716   6.375   0.815 -2.3930 -1.5949 -2.4083
10756TIP3   OH253682   6.316   6.494   6.050 -0.4202  0.5185 -0.5914
10756TIP3    H153683   6.387   6.521   6.108  0.0629  0.3770 -1.1117
10756TIP3    H253684   6.246   6.558   6.066 -0.0315  0.8884 -0.3603
10757TIP3   OH253685   4.790   5.472  16.093 -0.3841 -0.3219 -0.6405
10757TIP3    H153686   4.712   5.503  16.140  0.7840  2.1980 -0.2474
10757TIP3    H253687   4.813   5.390  16.138 -1.0181  0.5034  1.2906
10758TIP3   OH253688   0.321   4.899   1.999 -0.5195 -0.1675  0.6432
10758TIP3    H153689   0.379   4.971   2.023 -1.0563  0.4725  0.0409
10758TIP3    H253690   0.380   4.829   1.970 -0.0639  0.7595 -0.7371
10759TIP3   OH253691   1.737   4.624   4.545 -0.1652  0.3429 -0.9389
10759TIP3    H153692   1.757   4.566   4.471 -0.1915 -0.2403 -0.4894
10759TIP3    H253693   1.822   4.642   4.584 -0.3507 -1.3932  0.4101
10760TIP3   OH253694   5.748   0.987  14.224 -0.1307  0.1036  0.1073
10760TIP3    H153695   5.816   0.969  14.159 -0.5928 -0.3727 -0.2486
10760TIP3    H253696   5.689   1.048  14.181 -0.9022 -0.8651 -0.2441
10761TIP3   OH253697   6.033   5.126  17.001 -0.4959 -0.4087 -0.0932
10761TIP3    H153698   6.010   5.184  16.928 -0.6987  2.2545  1.9083
10761TIP3    H253699   5.950   5.113  17.048  0.0012 -0.1665  0.8823
10762TIP3   OH253700   0.146   2.984   5.845  0.7979  0.1933  0.1769
10762TIP3    H153701   0.155   2.934   5.926 -0.8319 -1.7216 -0.7286
10762TIP3    H253702   0.218   3.047   5.847  0.9992  0.0005  2.9356
10763TIP3   OH253703   4.851   6.260   2.267 -0.4172  0.4613 -0.0433
10763TIP3    H153704   4.869   6.209   2.346 -1.4267  2.4931  1.6194
10763TIP3    H253705   4.755   6.258   2.258 -0.2596 -0.8139 -2.0481
10764TIP3   OH253706   2.639   3.236   5.224  0.2545  0.2943 -0.3054
10764TIP3    H153707   2.704   3.290   5.178  0.4027  0.0647 -0.3678
10764TIP3    H253708   2.556   3.261   5.184  0.1717  1.3402  0.4882
10765TIP3   OH253709   4.127   4.852   1.525  0.2477 -0.1766  0.0272
10765TIP3    H153710   4.170   4.913   1.465  0.7200 -0.6727 -0.1430
10765TIP3    H253711   4.179   4.772   1.520 -0.3659 -0.5988  0.2502
10766TIP3   OH253712   0.767   1.005  16.673 -0.4262  0.2763 -0.7192
10766TIP3    H153713   0.854   0.973  16.699 -1.1338 -3.0411 -1.8474
10766TIP3    H253714   0.723   1.023  16.756  0.4741 -0.6854  0.0074
10767TIP3   OH253715   4.610   3.404  12.586  0.0683  0.4467 -0.2266
10767TIP3    H153716   4.566   3.323  12.559 -1.1143  1.1932 -0.6023
10767TIP3    H253717   4.664   3.428  12.511  1.2561 -0.5362  0.2798
10768TIP3   OH253718   1.998   3.891  16.593  0.2651 -0.5686 -0.0301
10768TIP3    H153719   2.051   3.956  16.639 -0.9654  1.2943 -1.0927
10768TIP3    H253720   1.918   3.938  16.570 -2.0080 -3.2864  1.6754
10769TIP3   OH253721   1.287   4.631  13.981  0.7282  0.6938 -0.1160
10769TIP3    H153722   1.243   4.557  13.939 -0.0707  0.8463  0.4091
10769TIP3    H253723   1.318   4.685  13.908  1.3964 -0.1938 -0.5014
10770TIP3   OH253724   6.150   2.441  12.617 -0.5701  0.6040 -0.0778
10770TIP3    H153725   6.112   2.522  12.650 -0.7256  0.0820  1.0615
10770TIP3    H253726   6.245   2.454  12.625 -0.5743  0.8834 -0.4372
10771TIP3   OH253727   0.713   0.042  12.091 -0.4540 -0.2965 -0.1571
10771TIP3    H153728   0.776   0.044  12.020 -0.6788 -0.6343 -0.3659
10771TIP3    H253729   0.724  -0.045  12.131 -1.0808 -0.5277 -0.4664
10772TIP3   OH253730   2.515   1.078  13.393  0.1755  0.3898 -0.3435
10772TIP3    H153731   2.497   1.165  13.427 -0.2742  0.9447 -1.8935
10772TIP3    H253732   2.602   1.084  13.354  1.6060 -0.8087  2.4042
10773TIP3   OH253733   4.588   5.769   5.381  0.3873 -0.6050  0.5363
10773TIP3    H153734   4.610   5.861   5.397 -1.9752  0.1774 -0.3122
10773TIP3    H253735   4.644   5.721   5.441  0.8939  1.4518  1.8246
10774TIP3   OH253736   1.572   4.468  15.275  0.8030 -0.2767  0.1826
10774TIP3    H153737   1.565   4.399  15.208  0.9508 -0.9473  0.8392
10774TIP3    H253738   1.487   4.468  15.319  1.2381 -0.9868  1.0690
10775TIP3   OH253739   3.611   2.078  16.042 -0.6270  0.1638  1.3015
10775TIP3    H153740   3.661   2.132  15.981 -0.2960 -0.2159  1.2311
10775TIP3    H253741   3.606   2.129  16.122  4.1643 -1.6766  3.1024
10776TIP3   OH253742   5.925   3.465   5.716  0.1672 -0.1915 -0.4539
10776TIP3    H153743   5.961   3.439   5.801 -0.7842  0.3357  0.1307
10776TIP3    H253744   6.001   3.471   5.658  0.8798 -0.1133  0.4735
10777TIP3   OH253745   3.657   5.056  13.331 -0.5304 -0.7610  0.7289
10777TIP3    H153746   3.688   5.109  13.405 -1.6644 -0.2325  0.8446
10777TIP3    H253747   3.594   5.112  13.287  0.4235 -0.9017 -0.9078
10778TIP3   OH253748   5.716   3.489   6.660 -0.3289  0.0685 -0.0020
10778TIP3    H153749   5.689   3.581   6.655 -0.8432  0.0195  1.2986
10778TIP3    H253750   5.811   3.491   6.644 -0.2521  0.8904  0.4716
10779TIP3   OH253751   0.136   0.790   2.149 -1.0181  0.1248  0.3077
10779TIP3    H153752   0.060   0.775   2.205  1.0335 -1.6682  2.8352
10779TIP3    H253753   0.197   0.840   2.204  0.4953 -0.3899 -0.8170
10780TIP3   OH253754   5.328   1.169  16.854  0.1230 -0.1951  0.7221
10780TIP3    H153755   5.354   1.161  16.946  2.0217 -0.7003  0.1897
10780TIP3    H253756   5.323   1.078  16.823  1.4741  0.0016 -0.1580
10781TIP3   OH253757   3.153   2.781  13.136  0.2182  0.2175  0.0142
10781TIP3    H153758   3.148   2.877  13.140 -0.0882  0.2296 -0.5306
10781TIP3    H253759   3.077   2.756  13.084 -0.6068 -0.4402  1.4687
10782TIP3   OH253760   2.577   5.425   2.154 -0.1037  0.0451  0.0343
10782TIP3    H153761   2.525   5.424   2.234 -1.8833  0.2291 -1.0687
10782TIP3    H253762   2.535   5.360   2.098  1.1150 -0.0801 -0.7643
10783TIP3   OH253763   6.417   5.279   4.143 -0.0771 -0.0620  0.4392
10783TIP3    H153764   6.511   5.298   4.146 -0.1537  0.1798  1.8126
10783TIP3    H253765   6.385   5.327   4.066  0.7219  0.7715  0.6115
10784TIP3   OH253766   5.726   3.349   3.658 -0.0845 -0.1633  0.0408
10784TIP3    H153767   5.818   3.363   3.678 -0.5354  2.1954  0.7200
10784TIP3    H253768   5.720   3.356   3.562  0.1613  1.8537  0.1403
10785TIP3   OH253769   4.101   2.107  12.992  0.2995 -0.0254 -0.2760
10785TIP3    H153770   4.009   2.089  13.009 -0.0474 -0.0569 -1.9405
10785TIP3    H253771   4.147   2.070  13.067 -1.2714  4.2654  3.1837
10786TIP3   OH253772   1.816   1.934   0.651  0.1241 -0.1295  0.1630
10786TIP3    H153773   1.892   1.969   0.698  0.0723 -0.6965  0.6782
10786TIP3    H253774   1.823   1.839   0.662 -0.4464 -0.2070 -0.1273
10787TIP3   OH253775   3.836   5.204  14.807 -0.3235  0.2359  0.1488
10787TIP3    H153776   3.926   5.187  14.834 -0.6766  0.8615  1.8852
10787TIP3    H253777   3.843   5.238  14.718  1.3178  1.7877  0.8027
10788TIP3   OH253778   2.044   5.992  15.403 -0.1897 -0.1737 -0.7235
10788TIP3    H153779   2.061   5.940  15.325 -3.9681 -0.9365 -1.2245
10788TIP3    H253780   2.045   5.928  15.475  0.8090  0.1023 -0.4769
10789TIP3   OH253781   1.579   1.280   6.432 -0.0626 -0.6462 -0.5511
10789TIP3    H153782   1.646   1.252   6.495 -0.1364 -0.9642 -0.6122
10789TIP3    H253783   1.615   1.360   6.394 -0.6018  0.3129  0.8536
10790TIP3   OH253784   5.826   5.485  14.087  0.9243  0.1210  0.0734
10790TIP3    H153785   5.921   5.496  14.084  0.8086  1.1882  0.1575
10790TIP3    H253786   5.804   5.445  14.002  1.4265 -0.0260  0.0067
10791TIP3   OH253787   2.090   2.449  12.729 -0.0165 -0.2312  0.5558
10791TIP3    H153788   2.031   2.374  12.739  1.1425 -1.2434  0.1399
10791TIP3    H253789   2.085   2.471  12.636  2.1420 -2.0454 -0.1163
10792TIP3   OH253790   1.661   4.747   1.639 -0.7517 -0.3242 -0.2936
10792TIP3    H153791   1.664   4.831   1.593 -2.1962 -0.9113 -1.5339
10792TIP3    H253792   1.654   4.682   1.570 -1.4968 -1.3393  0.7041
10793TIP3   OH253793   1.047   2.207   5.564  0.3951  0.2706  0.4357
10793TIP3    H153794   0.964   2.194   5.518  0.2819 -2.6219  1.2872
10793TIP3    H253795   1.066   2.300   5.553 -2.6595  0.9170 -0.2712
10794TIP3   OH253796   6.693   0.379   6.587  0.4002  0.4138  0.5472
10794TIP3    H153797   6.666   0.471   6.584  1.6302  0.7605 -0.7517
10794TIP3    H253798   6.611   0.330   6.579 -0.0591  1.4251 -1.5942
10795TIP3   OH253799   5.885   2.511   0.171  0.0725  0.3740  0.1854
10795TIP3    H153800   5.951   2.476   0.231 -1.3426 -0.2025  1.4790
10795TIP3    H253801   5.886   2.605   0.187 -0.7400  0.1673  1.6760
10796TIP3   OH253802   1.469   3.875   4.515  0.4568 -0.0244  0.9594
10796TIP3    H153803   1.513   3.868   4.431  0.8612  1.5548  0.9968
10796TIP3    H253804   1.466   3.786   4.549  1.4298 -0.5031 -0.1573
10797TIP3   OH253805   4.090   3.329   0.946  0.6948 -0.2118 -0.2135
10797TIP3    H153806   4.049   3.379   0.875  1.2637  0.5823  0.0144
10797TIP3    H253807   4.180   3.315   0.917  1.6416  2.1368  1.3306
10798TIP3   OH253808   3.876   4.948   0.298 -0.2699 -0.3445  0.2043
10798TIP3    H153809   3.830   4.866   0.281  0.0739 -0.4987  0.0035
10798TIP3    H253810   3.848   4.974   0.386 -0.5742 -0.5448  0.1672
10799TIP3   OH253811   1.036   1.586  16.602  0.0347 -0.2822  0.1924
10799TIP3    H153812   1.026   1.669  16.555  0.0008 -0.3797  0.0268
10799TIP3    H253813   0.982   1.524  16.553  1.4108 -0.8194 -0.7079
10800TIP3   OH253814   4.751   2.992   2.961  0.0974  0.1675 -0.6635
10800TIP3    H153815   4.755   2.897   2.977  0.7061  0.2671 -0.1996
10800TIP3    H253816   4.658   3.010   2.946 -0.4629 -0.0466  2.1171
10801TIP3   OH253817   3.407   2.301   2.869  0.0184 -0.4647 -0.1866
10801TIP3    H153818   3.392   2.347   2.786  2.0944 -1.4725 -1.1944
10801TIP3    H253819   3.502   2.289   2.873 -0.2627 -2.9406  0.9431
10802TIP3   OH253820   6.479   0.392  16.229  0.1289 -0.0970 -0.8903
10802TIP3    H153821   6.551   0.334  16.205  0.7124  0.3215 -0.2031
10802TIP3    H253822   6.520   0.478  16.237 -0.5006  0.1943 -0.7411
10803TIP3   OH253823   1.652   4.459   6.482  0.2746 -0.2600  0.0645
10803TIP3    H153824   1.656   4.539   6.430  0.1737 -1.5869 -2.1280
10803TIP3    H253825   1.558   4.443   6.494  0.2735 -0.4310 -0.1578
10804TIP3   OH253826   5.196   2.117  14.364 -0.8493 -0.0118  0.4073
10804TIP3    H153827   5.123   2.055  14.360 -0.5050 -0.3555 -0.8345
10804TIP3    H253828   5.256   2.088  14.295  0.3023  0.4745  1.1743
10805TIP3   OH253829   5.143   6.225  12.461  0.0088 -0.7838 -0.1075
10805TIP3    H153830   5.166   6.151  12.404  0.0287 -1.1858  0.4088
10805TIP3    H253831   5.118   6.184  12.544 -0.4091 -0.2281  0.0457
10806TIP3   OH253832   3.526   1.650   4.407 -0.4474  0.5610  0.0591
10806TIP3    H153833   3.449   1.595   4.422 -0.4041  0.8791  1.7032
10806TIP3    H253834   3.597   1.606   4.454  0.8304 -0.5801 -2.7222
10807TIP3   OH253835   2.426   3.808   1.630 -0.0984 -0.4644  0.1526
10807TIP3    H153836   2.443   3.725   1.674  0.2908 -0.3344  0.2519
10807TIP3    H253837   2.452   3.792   1.539 -0.3766 -0.5637  0.0901
10808TIP3   OH253838   4.022   5.684  15.233  0.7646  0.3423  0.4881
10808TIP3    H153839   4.010   5.779  15.233 -0.4669  0.2087  1.4977
10808TIP3    H253840   3.990   5.655  15.148 -1.9191  0.5219  1.3665
10809TIP3   OH253841   6.510   4.896  13.790 -0.0050  0.1486  0.3666
10809TIP3    H153842   6.558   4.821  13.754 -1.2657 -0.1064 -0.9024
10809TIP3    H253843   6.452   4.858  13.856 -0.4584  0.0144 -0.0956
10810TIP3   OH253844   2.530   4.044  16.419  0.1642 -0.0433 -0.6107
10810TIP3    H153845   2.479   3.982  16.471  0.4234 -0.8288 -1.2748
10810TIP3    H253846   2.519   4.127  16.463  2.5852 -1.1141  2.3787
10811TIP3   OH253847   0.004   2.241  16.428  1.0289 -0.4116 -0.4713
10811TIP3    H153848   0.037   2.263  16.341  2.1489  1.1274  0.2733
10811TIP3    H253849   0.015   2.147  16.436  1.2606 -0.5130 -1.8453
10812TIP3   OH253850   3.598   5.514   0.453 -0.3900 -0.4177  0.1904
10812TIP3    H153851   3.598   5.608   0.470 -2.7341 -0.4849  0.8972
10812TIP3    H253852   3.688   5.487   0.467  0.0126  1.4627  1.5791
10813TIP3   OH253853   4.228   5.889  15.320  0.2804  0.0597 -0.5972
10813TIP3    H153854   4.175   5.969  15.318 -0.2325 -0.2851 -2.5653
10813TIP3    H253855   4.195   5.840  15.395 -1.7414  0.1939 -1.3311
10814TIP3   OH253856   3.197   6.716  12.190  0.5527  0.2621 -0.0310
10814TIP3    H153857   3.135   6.789  12.191 -2.8920 -2.3709 -0.6100
10814TIP3    H253858   3.177   6.667  12.270  1.8361 -0.7845 -0.3112
10815TIP3   OH253859   0.347   0.289  11.921  0.5129 -0.0682 -0.0891
10815TIP3    H153860   0.360   0.384  11.928  3.3290  0.0093 -3.4784
10815TIP3    H253861   0.297   0.278  11.840  2.7731 -1.4219 -1.4277
10816TIP3   OH253862   1.828   3.009  12.887 -0.3336 -0.3775 -0.3146
10816TIP3    H153863   1.754   3.027  12.830 -0.3707  0.5764  0.0202
10816TIP3    H253864   1.828   3.081  12.951 -0.7073 -1.7656  1.3184
10817TIP3   OH253865   2.605   0.045   2.652 -0.5287  0.4036  0.3295
10817TIP3    H153866   2.629   0.001   2.570 -0.1915  0.9934  0.1097
10817TIP3    H253867   2.678   0.104   2.670 -0.6809  0.3991  0.9699
10818TIP3   OH253868   3.718   2.710  12.011  0.3021 -0.0394  0.2755
10818TIP3    H153869   3.776   2.732  12.083  0.7055 -0.9801  0.2438
10818TIP3    H253870   3.690   2.620  12.028  1.5692 -0.8362 -1.4862
10819TIP3   OH253871   5.917   0.907   1.045  0.1821 -0.5958 -0.1576
10819TIP3    H153872   5.931   0.989   1.093  0.4661 -0.6637 -0.1225
10819TIP3    H253873   5.840   0.924   0.992  1.6577  0.5991 -2.0679
10820TIP3   OH253874   2.367   1.189   4.266 -0.1568  0.0204  0.3521
10820TIP3    H153875   2.277   1.158   4.279 -0.0956 -0.2506  0.1362
10820TIP3    H253876   2.410   1.171   4.349 -0.5234  0.9455  0.7651
10821TIP3   OH253877   0.505   0.292   1.305  0.2688 -0.4560 -0.5421
10821TIP3    H153878   0.512   0.386   1.324  0.6695 -0.5461 -0.2332
10821TIP3    H253879   0.432   0.262   1.359 -0.6594 -0.0892 -1.5569
10822TIP3   OH253880   1.830   3.935   5.442 -0.7582 -0.4909 -0.1378
10822TIP3    H153881   1.773   4.012   5.437 -1.7934 -1.2611 -0.5489
10822TIP3    H253882   1.889   3.944   5.367 -0.8131 -0.0638 -0.1345
10823TIP3   OH253883   1.184   6.268  11.012  0.0922 -0.8206 -0.3305
10823TIP3    H153884   1.200   6.358  11.040 -2.4497 -0.0722 -1.0997
10823TIP3    H253885   1.226   6.262  10.926  1.8418 -1.0044  0.4757
10824TIP3   OH253886   3.441   2.209   2.101  0.3642  0.0705 -0.2127
10824TIP3    H153887   3.480   2.296   2.095  0.7282 -0.1526 -1.3131
10824TIP3    H253888   3.438   2.191   2.195 -0.1203  1.4408  0.0642
10825TIP3   OH253889   2.222   0.556   1.819  0.5951 -0.6325 -0.0877
10825TIP3    H153890   2.186   0.639   1.786  2.1379 -0.4907 -1.5383
10825TIP3    H253891   2.153   0.521   1.875 -0.6680  0.9480 -0.5722
10826TIP3   OH253892   4.529   0.312   2.401 -0.0127 -0.0917  0.3092
10826TIP3    H153893   4.490   0.235   2.359  0.2743  0.8092 -1.7174
10826TIP3    H253894   4.585   0.350   2.333  0.4823  1.4618  1.5350
10827TIP3   OH253895   2.041   5.666   1.248 -0.1256  0.7159  0.1014
10827TIP3    H153896   2.034   5.704   1.335 -0.6150 -2.3674  1.5400
10827TIP3    H253897   2.015   5.737   1.189 -1.4988  2.3970  2.5422
10828TIP3   OH253898   4.693   1.638   5.736 -0.2321 -0.0891  0.5610
10828TIP3    H153899   4.783   1.651   5.707 -0.9571  0.5679 -1.6291
10828TIP3    H253900   4.665   1.724   5.768  0.3483 -0.6536  2.7369
10829TIP3   OH253901   3.128   5.684  15.123  0.8396 -0.5831 -0.7980
10829TIP3    H153902   3.067   5.692  15.049  0.9741 -0.4213 -0.8938
10829TIP3    H253903   3.073   5.689  15.201  0.7007 -0.7105 -0.8878
10830TIP3   OH253904   5.475   5.807  15.613  0.0488  0.2371  0.6510
10830TIP3    H153905   5.506   5.860  15.687  0.7611 -0.2115  0.6874
10830TIP3    H253906   5.517   5.722  15.626 -0.7032 -0.1857  0.3321
10831TIP3   OH253907   3.876   0.159   5.828 -0.3707 -0.2711 -0.1882
10831TIP3    H153908   3.794   0.145   5.782 -0.0913 -0.4874 -0.6322
10831TIP3    H253909   3.858   0.230   5.889 -0.8705 -0.2824 -0.3221
10832TIP3   OH253910   3.188   3.537   6.452 -0.2180  0.4265 -0.1552
10832TIP3    H153911   3.150   3.577   6.530 -0.4588  0.5528 -0.3352
10832TIP3    H253912   3.178   3.604   6.384  2.4710  1.4750  0.3207
10833TIP3   OH253913   0.450   2.247   3.726 -0.1928  0.4684 -0.3297
10833TIP3    H153914   0.455   2.155   3.752  3.3144  0.8867  0.9828
10833TIP3    H253915   0.541   2.275   3.717 -1.1482  3.4064 -2.4277
10834TIP3   OH253916   5.994   4.662   4.064 -0.2720  0.4166  0.3581
10834TIP3    H153917   6.049   4.732   4.100 -0.2153  0.2084  0.6747
10834TIP3    H253918   5.930   4.708   4.010  1.4614  0.5637 -1.7196
10835TIP3   OH253919   4.905   1.686  12.764 -0.1405 -0.1211  0.4148
10835TIP3    H153920   4.872   1.682  12.675  1.2960 -1.5202 -0.0901
10835TIP3    H253921   5.000   1.691  12.755  0.1965 -2.4486  1.8395
10836TIP3   OH253922   0.420   4.484   1.243  0.2953 -0.0508  0.1958
10836TIP3    H153923   0.344   4.530   1.279 -1.3428 -1.2956 -1.4792
10836TIP3    H253924   0.427   4.404   1.295  0.3775  0.0036  0.2683
10837TIP3   OH253925   0.420   2.704   2.462  0.0041 -0.3994  0.0174
10837TIP3    H153926   0.367   2.638   2.417  0.8005 -1.3972  0.4884
10837TIP3    H253927   0.472   2.654   2.525  2.2277  0.4035 -1.0682
10838TIP3   OH253928   5.131   3.970  15.654 -0.0702 -0.0893  0.7387
10838TIP3    H153929   5.110   3.882  15.685  0.1887  0.3207  2.1087
10838TIP3    H253930   5.046   4.008  15.630 -0.0847 -1.0717 -0.9446
10839TIP3   OH253931   6.690   3.332   5.472 -0.5872 -0.8950  0.5343
10839TIP3    H153932   6.733   3.308   5.554 -0.7841 -0.2162  0.8472
10839TIP3    H253933   6.762   3.347   5.411 -0.4171 -0.8128  0.7534
10840TIP3   OH253934   5.851   5.458  11.636  0.4152  0.3232 -0.0805
10840TIP3    H153935   5.930   5.432  11.683  0.3025 -0.9127 -0.5322
10840TIP3    H253936   5.832   5.546  11.667  1.0927  0.0419  1.1889
10841TIP3   OH253937   4.404   1.019   6.069 -0.3335  0.4894  0.4479
10841TIP3    H153938   4.328   0.961   6.056 -0.1673 -0.0862  1.8782
10841TIP3    H253939   4.446   1.022   5.983 -0.9703 -0.6258  0.0695
10842TIP3   OH253940   5.464   0.619   2.569  1.1474 -0.4203 -0.1453
10842TIP3    H153941   5.512   0.537   2.585  0.0896 -1.1951 -0.8078
10842TIP3    H253942   5.405   0.598   2.496 -1.1937  0.0749  1.4979
10843TIP3   OH253943   1.312   6.670   4.817 -0.5895 -0.0073 -0.1322
10843TIP3    H153944   1.406   6.682   4.831 -0.5619 -0.3172 -0.0394
10843TIP3    H253945   1.273   6.678   4.905 -0.2470 -3.5707  0.5181
10844TIP3   OH253946   5.218   0.550   1.788  0.0249 -0.0721  0.1905
10844TIP3    H153947   5.225   0.638   1.750  0.8099  0.1178  0.7459
10844TIP3    H253948   5.129   0.522   1.766 -0.5599  1.2283  0.7529
10845TIP3   OH253949   2.387   3.908   6.001 -0.2718  0.0355  0.0006
10845TIP3    H153950   2.394   3.813   6.008 -0.1811  0.0385 -0.0380
10845TIP3    H253951   2.471   3.935   5.963  0.0695  0.2211  0.8573
10846TIP3   OH253952   0.386   5.152  15.460  0.2359  0.3809  0.0736
10846TIP3    H153953   0.381   5.057  15.476 -0.3056  0.1631 -1.2867
10846TIP3    H253954   0.404   5.160  15.367  0.0431  1.6304  0.1257
10847TIP3   OH253955   3.809   0.589   5.617  0.1609  0.1656 -0.0773
10847TIP3    H153956   3.750   0.514   5.621  1.7145 -1.0981  0.5008
10847TIP3    H253957   3.837   0.593   5.526  0.0008  0.1076 -0.1294
10848TIP3   OH253958   2.638   5.757   5.322  0.0450 -0.1457  0.5780
10848TIP3    H153959   2.547   5.727   5.330 -0.2856  0.4174 -0.8800
10848TIP3    H253960   2.687   5.677   5.302  0.1345 -0.7098  2.7734
10849TIP3   OH253961   6.223   3.191  13.732 -0.2035 -1.0129  0.8017
10849TIP3    H153962   6.297   3.131  13.720 -0.8662 -1.8365  0.7296
10849TIP3    H253963   6.236   3.226  13.821  1.4103  0.4939  0.0300
10850TIP3   OH253964   0.478   0.465  14.768  0.3122  0.3105  0.7742
10850TIP3    H153965   0.494   0.466  14.863 -0.6673 -1.5967  0.9933
10850TIP3    H253966   0.501   0.377  14.740  2.0186  1.2554 -1.0860
10851TIP3   OH253967   5.925   5.490  15.698  0.3621  0.4603 -0.4148
10851TIP3    H153968   5.882   5.442  15.768 -0.0227  0.3999 -0.6933
10851TIP3    H253969   5.963   5.422  15.641  0.4036  0.5032 -0.4387
10852TIP3   OH253970   6.005   0.702  10.952  0.1024  0.1652  0.1225
10852TIP3    H153971   5.936   0.646  10.915 -0.0588 -0.9913  2.0169
10852TIP3    H253972   5.962   0.787  10.965 -0.9745 -0.5132  1.1994
10853TIP3   OH253973   6.571   4.950  12.612 -0.0992 -0.3756 -0.0650
10853TIP3    H153974   6.592   4.975  12.702 -0.5142 -0.1783 -0.0191
10853TIP3    H253975   6.479   4.973  12.602  1.0828  4.6661 -2.2101
10854TIP3   OH253976   6.393   6.019  13.105 -0.7835 -0.0696 -0.0429
10854TIP3    H153977   6.424   6.015  13.195 -1.0887 -0.0534  0.0663
10854TIP3    H253978   6.447   5.956  13.057 -1.2620 -0.7971  0.3551
10855TIP3   OH253979   3.000   2.903  16.215 -0.2500  0.1745  0.2302
10855TIP3    H153980   3.002   2.999  16.207 -0.5637  0.2625  1.0823
10855TIP3    H253981   2.907   2.881  16.214 -0.1620 -0.2103 -0.7604
10856TIP3   OH253982   1.315   2.073  14.182  0.1670 -0.2789 -0.0041
10856TIP3    H153983   1.366   2.063  14.262  2.0072  0.9576 -0.9571
10856TIP3    H253984   1.286   2.164  14.183 -1.4849 -0.7692  0.1556
10857TIP3   OH253985   5.479   0.564  10.495  0.4495 -0.1343  0.3255
10857TIP3    H153986   5.546   0.613  10.543 -0.5175  0.2821  1.3044
10857TIP3    H253987   5.493   0.473  10.521  0.9386 -0.1112  0.1468
10858TIP3   OH253988   5.441   3.577   4.217  0.0060  0.0518  0.0600
10858TIP3    H153989   5.422   3.567   4.310 -0.9102 -2.4168 -0.3150
10858TIP3    H253990   5.509   3.644   4.213  1.1449 -0.8512  2.6065
10859TIP3   OH253991   0.047   3.533  15.948  0.4158 -1.3360  0.0629
10859TIP3    H153992   0.134   3.564  15.924 -0.1393  0.6304  0.4131
10859TIP3    H253993  -0.010   3.566  15.879 -0.2726 -1.1794  0.6940
10860TIP3   OH253994   0.106   0.674  11.684 -0.0705 -0.5511 -0.2745
10860TIP3    H153995   0.119   0.699  11.776 -0.8379 -0.6831 -0.1264
10860TIP3    H253996   0.032   0.728  11.655  0.9166  0.3632 -1.1725
10861TIP3   OH253997   3.655   0.297  14.838  0.4743 -0.0312  0.1563
10861TIP3    H153998   3.702   0.282  14.920 -0.0810  2.1435  0.9536
10861TIP3    H253999   3.724   0.309  14.772  0.9311 -1.3757  0.3770
10862TIP3   OH254000   1.494   3.640   5.201  0.1815  0.5518  0.5058
10862TIP3    H154001   1.465   3.628   5.291 -2.1066  1.4529 -0.0310
10862TIP3    H254002   1.491   3.735   5.188  1.0269  0.4733 -0.3663
10863TIP3   OH254003   5.033   4.260  11.887  0.2699  0.1433 -0.3511
10863TIP3    H154004   5.078   4.189  11.934  0.5201 -0.0967 -0.9407
10863TIP3    H254005   5.098   4.291  11.824  0.5753  1.7156  0.6930
10864TIP3   OH254006   0.864   2.466   3.667  0.5678 -0.0639 -0.0905
10864TIP3    H154007   0.838   2.402   3.601 -2.3375  0.2714  0.6034
10864TIP3    H254008   0.835   2.429   3.750  1.9647  0.6216  0.7346
10865TIP3   OH254009   0.613   6.095   5.056  0.0610  0.1522 -0.4355
10865TIP3    H154010   0.630   6.141   5.137  1.1745  0.3558 -0.7761
10865TIP3    H254011   0.528   6.052   5.070 -0.3449  1.1960  0.3621
10866TIP3   OH254012   4.546   5.745   0.401  0.1286  0.1630 -0.6688
10866TIP3    H154013   4.578   5.813   0.460 -0.9685 -0.5704  0.8365
10866TIP3    H254014   4.452   5.738   0.421  0.1923 -1.7374 -0.7920
10867TIP3   OH254015   3.020   2.761   0.372 -0.9034  0.0472  0.2163
10867TIP3    H154016   3.080   2.796   0.438  1.7796 -3.4858 -0.0501
10867TIP3    H254017   2.960   2.706   0.422 -1.8641  0.9801  0.1215
10868TIP3   OH254018   1.779   6.474  14.750 -0.5044 -0.1515  0.4459
10868TIP3    H154019   1.874   6.466  14.761 -0.6687 -0.4260  1.7613
10868TIP3    H254020   1.749   6.517  14.830 -1.3183  1.3530 -0.6280
10869TIP3   OH254021   1.192   2.074  14.598  0.4226  0.1654  0.0360
10869TIP3    H154022   1.263   2.138  14.607  0.0168  0.4155  1.5963
10869TIP3    H254023   1.211   2.008  14.663 -0.1199 -0.4156 -0.3885
10870TIP3   OH254024   5.786   1.251  12.521  0.3893  0.2787  0.1894
10870TIP3    H154025   5.845   1.325  12.504 -0.3329  0.5223 -1.5431
10870TIP3    H254026   5.840   1.187  12.566  1.3106  1.4595  0.8216
10871TIP3   OH254027   2.387   2.091  14.705 -0.3196 -0.1340 -0.1510
10871TIP3    H154028   2.403   2.000  14.680  1.1559 -0.5802  2.1353
10871TIP3    H254029   2.473   2.125  14.730 -1.1558  1.2379  1.0448
10872TIP3   OH254030   2.231   2.547   2.884  0.2481  0.3694 -0.3449
10872TIP3    H154031   2.240   2.636   2.850 -1.6711  0.4971 -0.6362
10872TIP3    H254032   2.318   2.509   2.876  1.1811  2.3233  0.0903
10873TIP3   OH254033   3.942   2.993   4.140  0.5123 -0.3855  0.1600
10873TIP3    H154034   3.992   2.994   4.058  1.4219 -0.4111  0.7023
10873TIP3    H254035   4.008   3.001   4.208 -0.3003  0.4579  0.8701
10874TIP3   OH254036   4.392   5.107   0.294 -0.3144 -0.5432 -0.7642
10874TIP3    H154037   4.358   5.067   0.214 -3.7948 -0.3036  0.4115
10874TIP3    H254038   4.350   5.194   0.296 -0.8728 -0.8174  1.6055
10875TIP3   OH254039   3.350   5.559  14.602 -0.6565  0.2500 -0.3459
10875TIP3    H154040   3.320   5.579  14.691  0.6410  1.2202 -0.0896
10875TIP3    H254041   3.302   5.621  14.547 -0.1169  0.9021 -0.0946
10876TIP3   OH254042   3.614   5.773   0.216 -0.2162 -0.1891 -0.6853
10876TIP3    H154043   3.584   5.766   0.306 -0.5315  1.9535 -0.5708
10876TIP3    H254044   3.600   5.685   0.179  0.9486 -1.4172  1.6050
10877TIP3   OH254045   5.004   1.379  13.736  0.2538 -0.2118  0.2517
10877TIP3    H154046   4.969   1.450  13.789  0.8319  0.1814  0.1138
10877TIP3    H254047   5.083   1.415  13.695  0.2714 -0.7674 -0.2256
10878TIP3   OH254048   5.671   4.846  14.846  0.2085  0.9515  0.3643
10878TIP3    H154049   5.703   4.930  14.814  1.1710  0.1711 -0.7914
10878TIP3    H254050   5.741   4.784  14.825 -0.7106 -0.2381  0.7215
10879TIP3   OH254051   0.091   6.037   2.157 -0.6206  0.3084  0.2535
10879TIP3    H154052   0.113   5.950   2.125  1.0613 -0.5768  3.4430
10879TIP3    H254053   0.174   6.076   2.183 -1.6994  1.0349  3.0344
10880TIP3   OH254054   1.143   6.124  13.226 -0.5382 -0.4956 -0.0343
10880TIP3    H154055   1.128   6.218  13.229 -2.3559 -0.6701 -1.6461
10880TIP3    H254056   1.231   6.115  13.189 -0.0752  0.5471  0.7690
10881TIP3   OH254057   6.437   1.461   5.736  0.1569 -0.2423  0.0821
10881TIP3    H154058   6.485   1.379   5.747  0.3926 -0.0288  0.6827
10881TIP3    H254059   6.488   1.525   5.785 -0.8314 -0.0450  0.8680
10882TIP3   OH254060   5.240   0.108  15.149  0.1814  0.4457  0.1935
10882TIP3    H154061   5.155   0.106  15.191 -0.1298 -1.0542 -0.4383
10882TIP3    H254062   5.224   0.147  15.063 -0.1759 -1.1570 -0.4964
10883TIP3   OH254063   1.747   0.080   0.526  0.0138  0.4216 -0.3071
10883TIP3    H154064   1.801   0.014   0.484  0.1005  0.3584 -0.0967
10883TIP3    H254065   1.704   0.125   0.454  2.1299  2.0561 -0.6452
10884TIP3   OH254066   5.850   4.474  13.698 -0.1065 -0.0844  0.2447
10884TIP3    H154067   5.867   4.410  13.767 -0.3718  0.0924  0.4733
10884TIP3    H254068   5.773   4.440  13.652  0.6998 -0.7672 -0.6501
10885TIP3   OH254069   4.856   3.002   2.324  0.4813  0.1281 -0.0901
10885TIP3    H154070   4.948   2.984   2.345  0.1872  0.3511  1.5423
10885TIP3    H254071   4.826   2.924   2.277  1.3573 -0.1737 -0.1631
10886TIP3   OH254072   2.858   0.965   1.114 -0.5484 -0.5730  0.3581
10886TIP3    H154073   2.883   0.873   1.101 -0.3096 -0.3061 -1.1736
10886TIP3    H254074   2.941   1.012   1.120 -0.6136 -0.0757 -1.8747
10887TIP3   OH254075   1.946   6.635   5.056 -0.7228  0.0391 -0.2330
10887TIP3    H154076   1.978   6.693   5.125 -0.7049 -1.0953  0.7426
10887TIP3    H254077   1.917   6.557   5.102 -0.3191 -0.9234 -1.5457
10888TIP3   OH254078   4.894   0.747   1.102 -0.5183  0.4348 -0.3930
10888TIP3    H154079   4.924   0.684   1.168  0.8551  1.7461  0.3085
10888TIP3    H254080   4.915   0.707   1.018 -2.4162 -1.3254 -0.0900
10889TIP3   OH254081   5.492   3.547  17.146  0.3002  0.2332 -0.1358
10889TIP3    H154082   5.563   3.504  17.098  1.0282  0.7144  0.4971
10889TIP3    H254083   5.467   3.620  17.090  0.0078 -0.1806 -0.5577
10890TIP3   OH254084   3.370   3.284   1.691  0.2076 -0.0656 -0.2465
10890TIP3    H154085   3.366   3.362   1.636 -1.6093  0.2495  0.2798
10890TIP3    H254086   3.368   3.211   1.630  1.1657  0.2690 -0.7052
10891TIP3   OH254087   5.785   2.166   0.772 -0.1602 -0.1241  0.7431
10891TIP3    H154088   5.738   2.249   0.779 -1.2542 -0.6341 -0.3030
10891TIP3    H254089   5.857   2.175   0.834 -0.3347  1.5500  0.7673
10892TIP3   OH254090   3.988   2.903  15.814  0.3319  0.1394  0.4524
10892TIP3    H154091   4.062   2.938  15.764  1.6623 -1.3902  1.2636
10892TIP3    H254092   4.019   2.903  15.905 -0.3729 -1.2100  0.7160
10893TIP3   OH254093   3.800   3.325   2.547  0.0092  0.6406  0.0711
10893TIP3    H154094   3.846   3.381   2.609 -0.2138  0.4780  0.3827
10893TIP3    H254095   3.736   3.278   2.599  1.1342 -0.9633  0.0927
10894TIP3   OH254096   6.010   1.705   2.667  0.3678 -0.5008 -0.2680
10894TIP3    H154097   6.002   1.610   2.675  2.3967 -0.7449 -0.4992
10894TIP3    H254098   6.011   1.721   2.573  0.3416 -0.2831 -0.2304
10895TIP3   OH254099   6.010   3.051   2.749 -0.2392  0.1220 -0.9404
10895TIP3    H154100   6.088   3.104   2.731 -1.4269  1.7402 -1.5745
10895TIP3    H254101   5.980   3.023   2.662  0.7621 -2.2871 -0.5842
10896TIP3   OH254102   2.165   4.743   5.141  0.5280 -0.3082 -0.4373
10896TIP3    H154103   2.213   4.716   5.219 -1.0148 -2.4304 -0.1254
10896TIP3    H254104   2.181   4.837   5.134  1.8540 -0.3187  1.6133
10897TIP3   OH254105   3.876   2.611   4.658 -0.2056 -0.2423 -0.2307
10897TIP3    H154106   3.962   2.618   4.697  0.4701 -0.5392 -1.5982
10897TIP3    H254107   3.876   2.677   4.588 -0.6140 -1.1070 -1.0691
10898TIP3   OH254108   4.273   0.837  11.077  0.2224 -0.1916 -0.3283
10898TIP3    H154109   4.284   0.751  11.116  0.9659  0.8677  1.9780
10898TIP3    H254110   4.197   0.875  11.122  0.0922  0.4876 -1.0801
10899TIP3   OH254111   5.820   1.512  14.981 -0.0555  0.4117 -0.2460
10899TIP3    H154112   5.739   1.553  14.949 -1.6506 -0.2335  2.5866
10899TIP3    H254113   5.822   1.534  15.074  3.2867  0.6865 -0.2705
10900TIP3   OH254114   1.681   6.212   2.645  0.4563  0.0476 -0.3093
10900TIP3    H154115   1.776   6.225   2.642  0.5535  0.3948  2.0722
10900TIP3    H254116   1.660   6.210   2.739 -1.5522 -2.6062 -0.6997
10901TIP3   OH254117   2.247   3.418   2.920  0.2870  0.6474 -0.2506
10901TIP3    H154118   2.260   3.412   2.826  2.2191  0.8385 -0.0431
10901TIP3    H254119   2.157   3.390   2.934  0.2138 -0.1474 -2.0678
10902TIP3   OH254120   2.656   4.622   0.243 -0.2584  0.2880  0.2751
10902TIP3    H154121   2.669   4.637   0.336  0.2055  3.9028 -0.2345
10902TIP3    H254122   2.742   4.639   0.204 -1.0733  1.7524 -1.0119
10903TIP3   OH254123   1.941   1.795  11.625 -0.2887 -0.0286  0.2333
10903TIP3    H154124   2.024   1.765  11.589  0.3615  2.9532 -1.0612
10903TIP3    H254125   1.874   1.753  11.570  0.6376  2.6041 -3.2829
10904TIP3   OH254126   1.999   3.290  13.747  0.4617  0.0398  0.2010
10904TIP3    H154127   1.908   3.308  13.725  0.8575  0.6876 -1.0393
10904TIP3    H254128   2.001   3.288  13.843 -0.6398  1.2314  0.2784
10905TIP3   OH254129   6.568   0.137  11.707  0.2159 -0.3725 -0.0693
10905TIP3    H154130   6.561   0.177  11.620  0.7483  2.2820  1.0010
10905TIP3    H254131   6.634   0.069  11.696  1.1808  0.7182 -1.5141
10906TIP3   OH254132   3.450   4.342   3.344  0.5915  0.0259 -0.0471
10906TIP3    H154133   3.537   4.378   3.364  1.3800 -1.2799 -0.9784
10906TIP3    H254134   3.446   4.260   3.392 -0.9664  0.9779  1.5953
10907TIP3   OH254135   5.728   2.151   5.117  0.1824 -0.4095  0.5389
10907TIP3    H154136   5.736   2.060   5.146 -0.0878 -0.6954 -0.2679
10907TIP3    H254137   5.789   2.158   5.044  1.2858  0.4675  1.5185
10908TIP3   OH254138   1.112   6.291  12.904  0.2284 -0.3191  0.0584
10908TIP3    H154139   1.029   6.254  12.933 -1.4602  0.4576 -3.2676
10908TIP3    H254140   1.093   6.384  12.890  1.7748 -0.0405 -0.3554
10909TIP3   OH254141   3.172   5.517  13.017 -0.0867  0.1268  0.1276
10909TIP3    H154142   3.133   5.437  13.052 -1.3293  1.0893  1.0754
10909TIP3    H254143   3.100   5.560  12.971  0.5009  0.8062 -0.1779
10910TIP3   OH254144   2.724   5.534   4.561 -0.1526  0.0352 -0.1065
10910TIP3    H154145   2.706   5.627   4.554  0.6487  0.1762 -0.4527
10910TIP3    H254146   2.778   5.514   4.484  2.5945  0.0309  1.6930
10911TIP3   OH254147   3.924   4.897  13.333  0.1328  0.7667 -0.1147
10911TIP3    H154148   3.975   4.927  13.408 -1.0124 -0.8943  1.4044
10911TIP3    H254149   3.840   4.941  13.342  0.1210  0.8843 -0.7109
10912TIP3   OH254150   2.224   3.114   3.407 -0.1369 -0.2661 -0.4462
10912TIP3    H154151   2.136   3.087   3.432  0.3474 -1.1843  0.3221
10912TIP3    H254152   2.282   3.068   3.467  0.8162  1.5055  0.0866
10913TIP3   OH254153   0.630   1.027   1.294  0.2277  0.1445  0.5388
10913TIP3    H154154   0.676   0.957   1.340  0.7139  0.8662  1.1708
10913TIP3    H254155   0.624   1.098   1.358 -1.4213  0.2155  0.3351
10914TIP3   OH254156   5.111   1.908   4.935 -0.0282  0.6812  0.1958
10914TIP3    H154157   5.067   1.859   5.005 -0.9376  0.3079 -0.6198
10914TIP3    H254158   5.070   1.877   4.854  1.1393  0.9667 -0.5280
10915TIP3   OH254159   5.815   6.214  14.376  0.4838  0.2267 -0.2957
10915TIP3    H154160   5.783   6.292  14.330  0.0625  0.2213 -0.0082
10915TIP3    H254161   5.737   6.164  14.397  0.4481  1.1999  2.2340
10916TIP3   OH254162   0.955   2.492  14.177  0.6932  0.5459 -0.5263
10916TIP3    H154163   0.960   2.587  14.170  1.4092  0.3894 -2.5546
10916TIP3    H254164   0.863   2.471  14.160  0.4942  0.8646  0.1179
10917TIP3   OH254165   6.357   2.097  12.194 -0.5595  0.1260  0.2516
10917TIP3    H154166   6.340   2.128  12.105 -0.3768  0.1537  0.2252
10917TIP3    H254167   6.441   2.137  12.217  0.8827 -2.1873 -0.6536
10918TIP3   OH254168   3.464   1.310  17.005 -0.5072  0.2904 -0.4601
10918TIP3    H154169   3.372   1.293  17.025  0.4507 -2.6986  2.2939
10918TIP3    H254170   3.489   1.380  17.065 -0.2658 -1.2714  1.3651
10919TIP3   OH254171   2.533   2.182  10.570  0.2171  0.2697 -0.1914
10919TIP3    H154172   2.581   2.220  10.644 -1.5411 -0.1503  1.2227
10919TIP3    H254173   2.441   2.192  10.594 -0.4756  1.3857 -2.9858
10920TIP3   OH254174   5.685   3.327  15.802  0.6127  0.3010 -0.6763
10920TIP3    H154175   5.615   3.277  15.761  0.5635 -0.8311  0.6947
10920TIP3    H254176   5.648   3.357  15.885  0.6719  2.6129 -1.4003
10921TIP3   OH254177   2.889   5.451   0.454  0.5630  0.3191 -0.1423
10921TIP3    H154178   2.850   5.420   0.535  3.0438  1.3541  1.5871
10921TIP3    H254179   2.856   5.392   0.386 -1.8419 -0.3866  1.5132
10922TIP3   OH254180   1.374   2.632   4.704  0.1755 -0.3774  0.1164
10922TIP3    H154181   1.303   2.632   4.640  1.8107 -0.1972 -1.8018
10922TIP3    H254182   1.357   2.708   4.760 -0.9063 -0.1163 -0.5536
10923TIP3   OH254183   0.035   3.278   5.722 -0.8593 -0.2062 -0.3335
10923TIP3    H154184   0.092   3.354   5.719 -1.3926  0.4732  3.0780
10923TIP3    H254185   0.092   3.205   5.748 -0.6764 -0.6673 -1.9134
10924TIP3   OH254186   2.707   5.928  16.130  0.1477 -0.1898  0.1641
10924TIP3    H154187   2.680   5.839  16.108  0.2942 -0.4476  0.9857
10924TIP3    H254188   2.786   5.916  16.184  0.6958  0.4744 -0.4738
10925TIP3   OH254189   4.551   3.165  13.392 -0.0831 -0.0010 -0.3594
10925TIP3    H154190   4.510   3.196  13.473  1.1792 -1.1126  0.7601
10925TIP3    H254191   4.485   3.180  13.324 -1.5761  0.0419  1.0362
10926TIP3   OH254192   1.610   5.727  14.900 -0.6452  1.0387  0.3885
10926TIP3    H154193   1.643   5.643  14.930  1.3349  1.6416  0.0703
10926TIP3    H254194   1.520   5.710  14.874  0.0910 -1.2944 -0.9330
10927TIP3   OH254195   3.654   1.693  11.429  0.4820  0.0724  0.1676
10927TIP3    H154196   3.669   1.620  11.488  1.6626  1.0529  1.1349
10927TIP3    H254197   3.686   1.770  11.476 -1.2940  1.3352 -0.5436
10928TIP3   OH254198   2.539   5.163  11.896  0.4351 -0.2483  0.0723
10928TIP3    H154199   2.488   5.226  11.946 -0.1935  0.3023 -1.2166
10928TIP3    H254200   2.480   5.090  11.881  0.0420  0.3108 -1.2644
10929TIP3   OH254201   3.670   3.012   5.091  0.1528  0.0721 -0.6634
10929TIP3    H154202   3.696   2.992   5.181  0.6869 -0.3289 -0.8996
10929TIP3    H254203   3.596   2.954   5.074 -0.3814  0.6158 -0.2722
10930TIP3   OH254204   4.859   3.725   1.548 -0.0967  0.3871  0.0312
10930TIP3    H154205   4.903   3.780   1.483  1.4806 -0.3362  0.4302
10930TIP3    H254206   4.879   3.635   1.522  1.7746  0.0721  2.1900
10931TIP3   OH254207   0.718   1.903   5.401  0.0864  0.7539 -0.0768
10931TIP3    H154208   0.752   1.843   5.335 -1.2034 -1.6536  1.3342
10931TIP3    H254209   0.661   1.963   5.352 -3.1240 -2.6833 -0.9998
10932TIP3   OH254210   3.134   0.478  15.897  0.2531  0.3746  0.1111
10932TIP3    H154211   3.106   0.485  15.988  0.0219 -0.0009  0.0737
10932TIP3    H254212   3.160   0.567  15.872 -1.4118  0.8559 -0.0098
10933TIP3   OH254213   4.910   5.573  14.409 -0.1677  0.1917  0.1477
10933TIP3    H154214   4.929   5.502  14.347 -0.5457 -0.1396  0.4064
10933TIP3    H254215   4.823   5.602  14.385 -0.5928 -0.3935  0.9494
10934TIP3   OH254216   3.158   1.409  13.373  0.0989 -0.0199  0.3908
10934TIP3    H154217   3.169   1.494  13.329 -1.3963 -1.0598 -2.1905
10934TIP3    H254218   3.068   1.411  13.407  0.4076 -0.2049  1.2492
10935TIP3   OH254219   5.190   2.412   5.498  0.0303  0.2649 -0.3127
10935TIP3    H154220   5.109   2.437   5.543  0.0474  1.0313 -0.6810
10935TIP3    H254221   5.232   2.496   5.476  0.7746 -0.1194 -0.3927
10936TIP3   OH254222   4.613   5.929   3.997 -0.0179 -0.2965  0.3768
10936TIP3    H154223   4.585   5.894   3.912  1.2843 -2.5249  0.8038
10936TIP3    H254224   4.595   5.859   4.059  3.6051 -0.7774  1.1226
10937TIP3   OH254225   3.161   3.312  12.957 -0.0370  0.0237 -0.0887
10937TIP3    H154226   3.134   3.403  12.950  0.5431  0.0922 -2.0759
10937TIP3    H254227   3.086   3.262  12.927  0.5822  0.0212 -1.7330
10938TIP3   OH254228   6.064   2.104   2.985  0.2148 -0.4484 -0.6625
10938TIP3    H154229   6.123   2.038   3.021 -1.2487 -1.0051  0.8796
10938TIP3    H254230   6.035   2.154   3.062  0.5179  1.3646 -1.6702
10939TIP3   OH254231   0.174   4.125   0.232 -0.3659  0.0162  0.5884
10939TIP3    H154232   0.102   4.141   0.171  1.4705  0.1081 -1.7186
10939TIP3    H254233   0.218   4.047   0.197  0.8891  0.1985  1.6843
10940TIP3   OH254234   4.799   5.841   0.780 -0.4808 -0.5069 -0.0369
10940TIP3    H154235   4.802   5.877   0.692 -0.4667  0.5369  0.3730
10940TIP3    H254236   4.850   5.760   0.775  0.4445  0.0975 -0.7382
10941TIP3   OH254237   2.748   5.557  15.313 -0.6177 -0.3785  0.3870
10941TIP3    H154238   2.824   5.601  15.274 -0.2086 -0.6278  0.8947
10941TIP3    H254239   2.720   5.494  15.246 -1.6510  1.1201 -0.6504
10942TIP3   OH254240   6.350   1.964   1.779  0.4998 -0.4544 -0.3029
10942TIP3    H154241   6.361   2.002   1.692  1.5089  0.2281  0.1059
10942TIP3    H254242   6.295   1.887   1.764 -2.0971  1.4071 -1.0778
10943TIP3   OH254243   5.110   5.852  11.683 -0.1257 -0.0921 -0.1138
10943TIP3    H154244   5.143   5.912  11.749  1.2339 -0.3032 -0.5574
10943TIP3    H254245   5.044   5.902  11.635 -1.6523 -0.1596  1.7897
10944TIP3   OH254246   3.515   1.063   5.773 -0.4394 -0.4872 -0.4607
10944TIP3    H154247   3.547   0.984   5.816 -0.9089 -0.3855  0.1014
10944TIP3    H254248   3.436   1.087   5.823  0.0714  0.7079 -0.1723
10945TIP3   OH254249   1.684   0.061   0.962 -0.7610  0.7570 -0.2342
10945TIP3    H154250   1.666   0.142   1.011 -1.0195 -0.1312  1.2169
10945TIP3    H254251   1.643   0.075   0.877 -0.3333  2.3561 -0.2180
10946TIP3   OH254252   3.632   1.015   5.185  0.0502 -0.3121 -0.1330
10946TIP3    H154253   3.643   1.098   5.232  1.0345  0.0801 -1.0044
10946TIP3    H254254   3.617   0.950   5.254 -1.3980  0.6686  0.5311
10947TIP3   OH254255   5.803   5.029  13.735 -0.4973 -0.1437 -0.0082
10947TIP3    H154256   5.893   5.008  13.709 -0.1274  1.6738 -0.3305
10947TIP3    H254257   5.804   5.124  13.747 -2.6852  0.0962 -1.2734
10948TIP3   OH254258   1.700   6.238   1.987  0.3190 -0.0263  0.3012
10948TIP3    H154259   1.726   6.215   2.076 -0.2947  1.6018  0.9328
10948TIP3    H254260   1.604   6.235   1.989  0.3044  0.0182 -0.2941
10949TIP3   OH254261   2.773   6.463   4.311  0.4996 -0.3714  0.0157
10949TIP3    H154262   2.790   6.465   4.217 -0.5024 -2.1190 -0.2384
10949TIP3    H254263   2.852   6.424   4.349  1.5715  1.7715  0.1242
10950TIP3   OH254264   1.642   0.760  12.369 -0.2002 -0.0069 -0.1899
10950TIP3    H154265   1.672   0.677  12.406  0.4949 -0.4094 -1.6005
10950TIP3    H254266   1.723   0.804  12.342 -0.6197  0.7736 -0.1971
10951TIP3   OH254267   5.714   4.300  13.125  0.2390 -0.1422  0.4723
10951TIP3    H154268   5.648   4.317  13.058  0.0004  0.5541  0.8730
10951TIP3    H254269   5.707   4.206  13.141 -0.4379 -0.1337  0.2876
10952TIP3   OH254270   1.938   2.652  12.794  0.2467 -0.4336 -0.0902
10952TIP3    H154271   2.016   2.600  12.778  0.5218 -0.0237 -0.1184
10952TIP3    H254272   1.919   2.694  12.710  0.7390  0.4452  0.2131
10953TIP3   OH254273   5.991   3.333   3.720 -0.1333  0.6739 -0.3647
10953TIP3    H154274   6.071   3.382   3.736 -0.1758  0.9570 -1.0022
10953TIP3    H254275   5.988   3.268   3.791  2.1366 -1.2482 -1.8422
10954TIP3   OH254276   0.501   4.665  14.699 -0.4021 -0.2641  0.5829
10954TIP3    H154277   0.481   4.584  14.651 -0.9660  1.1347 -1.6939
10954TIP3    H254278   0.445   4.660  14.776 -2.5874 -0.8412 -0.9116
10955TIP3   OH254279   3.122   3.404  13.435 -0.4369  0.2595 -0.5100
10955TIP3    H154280   3.042   3.441  13.472 -0.9333 -1.0386 -0.2143
10955TIP3    H254281   3.193   3.457  13.473 -1.0529  0.1812  0.8240
10956TIP3   OH254282   3.816   5.616  12.917 -0.7466 -0.0358 -0.2548
10956TIP3    H154283   3.750   5.597  12.984 -0.1609  0.1120  0.3772
10956TIP3    H254284   3.834   5.710  12.927  0.0765 -0.2178  0.0700
10957TIP3   OH254285   0.587   1.675  12.811  0.0176 -0.1557 -0.1183
10957TIP3    H154286   0.532   1.608  12.770  1.8493  0.3902 -3.8829
10957TIP3    H254287   0.675   1.637  12.811  0.6382  1.2148  0.2333
10958TIP3   OH254288   6.326   2.412   2.999  0.0488 -0.1490  0.5113
10958TIP3    H154289   6.387   2.448   3.064  0.4640  0.1005  0.0001
10958TIP3    H254290   6.299   2.328   3.035  1.0950 -0.4970  0.5291
10959TIP3   OH254291   2.558   3.909  11.457  0.0973 -0.0533 -0.1359
10959TIP3    H154292   2.486   3.856  11.423 -1.7386  0.2242  3.0098
10959TIP3    H254293   2.560   3.986  11.400 -1.8387 -0.2517 -0.5374
10960TIP3   OH254294   0.086   0.722  11.963  0.3050  0.3656  0.3251
10960TIP3    H154295   0.054   0.811  11.952  2.5171  1.3223  1.0268
10960TIP3    H254296   0.019   0.679  12.016 -2.0559  0.7621 -2.1107
10961TIP3   OH254297   2.993   1.049  14.643 -0.3333  0.7213  0.2956
10961TIP3    H154298   2.993   0.972  14.586 -1.9191  1.6731 -1.0700
10961TIP3    H254299   3.086   1.074  14.650  0.2130 -1.2788  0.8020
10962TIP3   OH254300   0.225   6.549   1.191 -0.3179 -0.2402  0.0153
10962TIP3    H154301   0.274   6.495   1.128 -0.1233  0.6228 -0.5830
10962TIP3    H254302   0.176   6.485   1.243  1.5167 -1.1655  0.7298
10963TIP3   OH254303   1.771   2.556  14.521 -0.0412 -0.4330  0.4633
10963TIP3    H154304   1.686   2.567  14.564  0.7610 -2.4205  2.7683
10963TIP3    H254305   1.835   2.567  14.591  1.5437 -0.5441 -0.9154
10964TIP3   OH254306   4.632   3.927  12.662 -0.6951  0.0869  0.5069
10964TIP3    H154307   4.718   3.960  12.637  0.9712 -3.0469  1.5543
10964TIP3    H254308   4.641   3.903  12.754 -1.7245 -2.8752 -0.0482
10965TIP3   OH254309   1.559   2.819  14.707 -0.4034  0.4047 -0.1270
10965TIP3    H154310   1.523   2.841  14.621  0.4318 -1.0790 -0.9025
10965TIP3    H254311   1.556   2.723  14.710  2.4805  0.2342  0.1455
10966TIP3   OH254312   2.469   4.020   4.010 -0.0479 -0.1369 -0.0496
10966TIP3    H154313   2.543   4.000   3.954 -0.0594 -0.4021  0.0271
10966TIP3    H254314   2.446   4.110   3.989 -0.0426 -0.2292 -0.4593
10967TIP3   OH254315   6.136   4.120   4.066  0.1629  0.5543  0.0087
10967TIP3    H154316   6.057   4.122   4.120  0.9450 -0.2812  1.2389
10967TIP3    H254317   6.158   4.027   4.058 -0.0080  0.6468 -1.9106
10968TIP3   OH254318   5.099   1.532  14.945  0.2148 -0.3500 -0.0576
10968TIP3    H154319   5.126   1.446  14.977  0.0680 -0.2485  0.3425
10968TIP3    H254320   5.168   1.592  14.973  0.9036 -0.5172 -1.3380
10969TIP3   OH254321   4.200   1.385  15.159 -0.3780 -0.2806 -0.2066
10969TIP3    H154322   4.196   1.418  15.249  1.0266  2.5701 -1.0837
10969TIP3    H254323   4.138   1.440  15.111  0.2558 -0.5262 -1.3209
10970TIP3   OH254324   6.084   3.208   1.243  0.1835  0.3519  0.2906
10970TIP3    H154325   6.082   3.220   1.338  0.3804 -3.3179  0.8932
10970TIP3    H254326   6.175   3.185   1.224 -0.1557 -0.3790 -0.5294
10971TIP3   OH254327   6.690   6.057   1.155 -0.3166 -0.8272 -0.2917
10971TIP3    H154328   6.599   6.082   1.173  0.8965  2.3849  2.3674
10971TIP3    H254329   6.698   5.969   1.192 -2.1240 -0.8522  0.1301
10972TIP3   OH254330   4.099   3.801   0.260  0.2782 -0.6035 -0.1147
10972TIP3    H154331   4.190   3.807   0.233  0.4980 -2.3963  0.0977
10972TIP3    H254332   4.093   3.858   0.337  0.7949  0.7921 -1.0762
10973TIP3   OH254333   6.284   1.534  15.034  0.1884 -0.1776  0.0794
10973TIP3    H154334   6.218   1.479  14.992  2.0712 -1.0954 -1.9022
10973TIP3    H254335   6.348   1.552  14.965  0.6358  2.9946  1.1507
10974TIP3   OH254336   3.236   6.155  12.769  0.2931  0.2347 -0.2843
10974TIP3    H154337   3.327   6.149  12.740 -0.4207 -0.5476 -2.5974
10974TIP3    H254338   3.230   6.242  12.810  1.8075  0.7813 -1.1206
10975TIP3   OH254339   6.629   5.437  13.948  0.7384 -0.4317  0.0085
10975TIP3    H154340   6.598   5.388  14.025 -2.0153 -0.2121 -0.8367
10975TIP3    H254341   6.550   5.452  13.896  2.1474  1.3953 -1.7770
10976TIP3   OH254342   2.933   0.606   0.515 -0.0466 -0.1375 -0.0208
10976TIP3    H154343   2.844   0.578   0.494 -0.6697  0.3112  1.8132
10976TIP3    H254344   2.926   0.643   0.603  2.2883 -1.6192  0.8593
10977TIP3   OH254345   5.499   4.517  13.879  0.5953 -0.4834 -1.2546
10977TIP3    H154346   5.519   4.611  13.877  1.9961 -0.7565 -2.4608
10977TIP3    H254347   5.546   4.484  13.956 -1.2280  0.0271  0.1316
10978TIP3   OH254348   0.573   1.876   4.326  0.1090  0.5821  0.5549
10978TIP3    H154349   0.611   1.826   4.254  1.1886  0.8451  0.9165
10978TIP3    H254350   0.516   1.814   4.372  0.7655 -0.0797  0.4952
10979TIP3   OH254351   5.596   3.575   3.021  0.2791 -0.5412 -0.4373
10979TIP3    H154352   5.554   3.520   3.088  0.5363  1.5027  1.4896
10979TIP3    H254353   5.654   3.515   2.975 -2.0288 -2.6719 -0.8393
10980TIP3   OH254354   0.025   3.179   5.162  0.5397  0.1590  0.2491
10980TIP3    H154355   0.055   3.088   5.168 -0.8289 -0.2973  0.6706
10980TIP3    H254356   0.095   3.225   5.116  1.1102 -1.1849 -0.2740
10981TIP3   OH254357   6.755   2.148  13.698 -0.2932  0.7038  0.7101
10981TIP3    H154358   6.830   2.163  13.756 -1.9357 -0.2487  3.2833
10981TIP3    H254359   6.739   2.053  13.704 -0.7914  0.6353 -1.0441
10982TIP3   OH254360   0.015   6.323   2.550  0.0988 -0.5039 -0.1096
10982TIP3    H154361   0.023   6.228   2.559  1.4297 -0.5511 -1.2861
10982TIP3    H254362   0.066   6.359   2.622 -0.1972 -0.6913  0.1912
10983TIP3   OH254363   4.622   2.217  13.439  0.4138 -0.4732 -0.4218
10983TIP3    H154364   4.562   2.256  13.503 -1.2442 -1.4636 -1.3064
10983TIP3    H254365   4.613   2.123  13.452  0.4834 -0.6718 -1.7247
10984TIP3   OH254366   5.019   4.249  16.767 -0.2261 -0.2557  0.1810
10984TIP3    H154367   4.940   4.195  16.761 -0.6021  0.2793  0.1924
10984TIP3    H254368   5.089   4.194  16.734 -1.0888  0.2951 -2.8757
10985TIP3   OH254369   5.723   0.787   6.495  0.3106 -0.2521  0.3573
10985TIP3    H154370   5.717   0.881   6.510  1.1492 -0.2328  0.6292
10985TIP3    H254371   5.817   0.768   6.500  0.2557 -0.9064 -0.8938
10986TIP3   OH254372   6.086   4.058  17.297 -0.2615  0.2326  0.0329
10986TIP3    H154373   6.005   4.071  17.248 -1.4558  1.0667  2.0796
10986TIP3    H254374   6.060   4.007  17.374  1.5061 -0.9444 -0.0789
10987TIP3   OH254375   6.169   1.779  16.138  0.1083 -0.0358  1.0864
10987TIP3    H154376   6.178   1.805  16.047 -0.5803 -1.3273  0.6241
10987TIP3    H254377   6.179   1.860  16.188  3.9644  0.2506  0.1465
10988TIP3   OH254378   5.583   6.346   5.591 -0.1348 -0.2676 -0.2183
10988TIP3    H154379   5.609   6.353   5.499  0.0794 -2.0924 -0.3339
10988TIP3    H254380   5.527   6.268   5.594 -0.3424 -0.0918  1.1576
10989TIP3   OH254381   4.007   3.205  12.295  0.0253 -0.4199  0.0878
10989TIP3    H154382   3.955   3.146  12.240  1.4087 -0.6410 -1.0601
10989TIP3    H254383   3.979   3.292  12.269 -0.6271 -0.5356  0.3716
10990TIP3   OH254384   1.851   2.751  16.352 -0.1118 -1.0390  0.7338
10990TIP3    H154385   1.921   2.727  16.291  2.0323  2.2115  1.6222
10990TIP3    H254386   1.788   2.800  16.299  1.0911  0.6569  0.8018
10991TIP3   OH254387   0.571   3.789  16.063 -0.5558 -0.1108  0.1691
10991TIP3    H154388   0.526   3.854  16.009 -0.8176  0.1595  0.6989
10991TIP3    H254389   0.575   3.830  16.150 -1.9562 -1.3621  0.8586
10992TIP3   OH254390   4.772   6.554   0.451 -0.3061  0.0933 -0.1738
10992TIP3    H154391   4.816   6.639   0.442 -2.5199  1.4316  0.7643
10992TIP3    H254392   4.753   6.528   0.361 -1.6864  1.8255 -0.4442
10993TIP3   OH254393   4.920   4.096  11.450  0.5036  0.9974 -0.2262
10993TIP3    H154394   4.946   4.041  11.523 -0.4674 -0.4957 -0.9633
10993TIP3    H254395   4.998   4.103  11.394  0.4438 -0.2158 -0.4733
10994TIP3   OH254396   5.452   4.223   0.331  0.3257 -0.2902 -0.9399
10994TIP3    H154397   5.429   4.290   0.267  0.0856  0.0057 -0.5463
10994TIP3    H254398   5.389   4.235   0.403  0.5826 -0.6238 -0.6537
10995TIP3   OH254399   2.361   2.936   5.286 -0.2736 -0.1136 -0.1399
10995TIP3    H154400   2.442   2.960   5.242  0.6501 -1.0234  1.0218
10995TIP3    H254401   2.294   2.988   5.241  0.5455 -1.1501 -2.7491
10996TIP3   OH254402   0.938   0.331   3.203 -0.6069 -0.6539 -0.2549
10996TIP3    H154403   0.896   0.271   3.142 -1.9124  0.1699 -0.1973
10996TIP3    H254404   1.012   0.367   3.154 -1.3128 -0.4179 -1.1637
10997TIP3   OH254405   3.581   3.064   5.386  0.2250 -0.3842 -0.4742
10997TIP3    H154406   3.582   3.108   5.470 -0.8117 -0.5232 -0.3733
10997TIP3    H254407   3.518   3.114   5.333  0.0606 -0.9290 -0.8025
10998TIP3   OH254408   0.507   5.963  13.885  0.4935 -0.0500  0.6722
10998TIP3    H154409   0.511   5.890  13.824 -0.2829 -0.7162  1.3768
10998TIP3    H254410   0.596   5.999  13.887  0.9088 -1.0397  0.3947
10999TIP3   OH254411   6.758   5.554  15.726  0.1546 -0.1739 -0.5375
10999TIP3    H154412   6.766   5.509  15.810 -1.0949  1.1403  0.3259
10999TIP3    H254413   6.822   5.625  15.731  2.2808 -1.8294 -1.9854
11000TIP3   OH254414   2.163   1.236   3.986  0.8204  0.7200  0.4130
11000TIP3    H154415   2.117   1.321   3.981 -0.0509  0.1881 -1.4695
11000TIP3    H254416   2.173   1.221   4.080  0.5427  2.6656  0.8146
11001TIP3   OH254417   5.552   4.521  16.683 -0.5047  0.2749 -0.4943
11001TIP3    H154418   5.495   4.460  16.636 -0.4450  0.3609 -0.6768
11001TIP3    H254419   5.517   4.608  16.663 -0.3688  0.3227 -0.5264
11002TIP3   OH254420   3.907   5.714   1.581  0.0404  0.1401  0.0425
11002TIP3    H154421   3.975   5.671   1.528  0.9554 -0.4991  1.6647
11002TIP3    H254422   3.928   5.690   1.671 -0.8365  2.0680  0.8171
11003TIP3   OH254423   3.161   5.964  15.287 -0.5860  0.0504  0.7335
11003TIP3    H154424   3.135   5.939  15.376  0.2062  0.2965  1.0399
11003TIP3    H254425   3.151   5.884  15.236 -0.9238 -0.1252  1.0664
11004TIP3   OH254426   5.718   3.616  17.330  0.7469 -0.4471  0.3321
11004TIP3    H154427   5.771   3.557  17.276  2.6667 -0.1441  1.7549
11004TIP3    H254428   5.643   3.638  17.275  2.1210 -0.8628 -1.8496
11005TIP3   OH254429   3.702   0.410   1.372 -0.2221 -0.4632 -0.2215
11005TIP3    H154430   3.671   0.361   1.296 -0.6718  1.3165 -1.2551
11005TIP3    H254431   3.774   0.463   1.338 -0.9983  1.0207  0.3296
11006TIP3   OH254432   1.552   4.724  11.529  0.0001  0.5145  0.1088
11006TIP3    H154433   1.511   4.809  11.542  0.0947  1.1469 -2.9592
11006TIP3    H254434   1.581   4.698  11.616 -1.9386  2.5826  1.5075
11007TIP3   OH254435   4.760   5.169   0.496 -0.0174 -0.0941  0.3162
11007TIP3    H154436   4.815   5.224   0.552 -0.7530  1.2377 -0.2042
11007TIP3    H254437   4.781   5.079   0.521  1.5622  0.4065  0.8912
11008TIP3   OH254438   1.117   2.878   1.503 -0.2364  0.0498  0.4014
11008TIP3    H154439   1.112   2.964   1.462 -0.3052 -0.1733 -0.0626
11008TIP3    H254440   1.026   2.849   1.510 -0.1053 -1.1382 -1.9290
11009TIP3   OH254441   4.216   0.531  15.223 -0.1086 -0.2026  0.7004
11009TIP3    H154442   4.245   0.615  15.187 -0.5763  0.3147  1.5208
11009TIP3    H254443   4.201   0.548  15.316 -2.6743 -0.5223  0.4180
11010TIP3   OH254444   1.479   6.288   4.855 -0.7470 -0.3140  0.0439
11010TIP3    H154445   1.509   6.289   4.946  1.1041  3.1676 -0.4468
11010TIP3    H254446   1.393   6.329   4.857 -0.7991 -0.4288  0.2176
11011TIP3   OH254447   1.314   5.521  16.882 -0.1530 -0.3667  0.0554
11011TIP3    H154448   1.272   5.606  16.865 -2.6944 -1.0837  2.0099
11011TIP3    H254449   1.355   5.532  16.968  0.7180 -0.7120 -0.3127
11012TIP3   OH254450   6.528   4.264   5.722  0.2127 -0.0320  0.1606
11012TIP3    H154451   6.501   4.173   5.707 -1.6926  0.9174 -3.0907
11012TIP3    H254452   6.620   4.266   5.696 -0.1174 -0.7866 -1.1556
11013TIP3   OH254453   5.004   0.307   6.689 -0.1730 -0.0179  0.4013
11013TIP3    H154454   5.008   0.362   6.610  1.4219  0.5475  0.8413
11013TIP3    H254455   5.060   0.351   6.752  0.5916 -1.7644  1.0168
11014TIP3   OH254456   0.642   1.643   2.560 -0.3532  0.1142 -0.1862
11014TIP3    H154457   0.626   1.615   2.470 -1.1290 -0.5051  0.1247
11014TIP3    H254458   0.732   1.615   2.579  0.5781  2.1056 -1.4270
11015TIP3   OH254459   0.571   6.241  13.060 -0.0060  0.0195 -0.4045
11015TIP3    H154460   0.488   6.248  13.012  0.0916  0.3992 -0.5184
11015TIP3    H254461   0.546   6.238  13.152 -0.0908  1.3285 -0.3646
11016TIP3   OH254462   1.840   3.272  14.559  0.3538 -0.2520 -0.1023
11016TIP3    H154463   1.824   3.358  14.597 -0.8055 -1.2902  1.9159
11016TIP3    H254464   1.935   3.261  14.561  0.4237  0.4762  0.8212
11017TIP3   OH254465   4.445   2.958   5.291 -0.4302  0.4155  0.9722
11017TIP3    H154466   4.382   2.966   5.219  0.1790  1.2425  0.5135
11017TIP3    H254467   4.445   3.045   5.332  2.1592  1.2386 -0.5391
11018TIP3   OH254468   5.885   6.315   2.985  0.1026 -0.1377  0.2128
11018TIP3    H154469   5.900   6.232   2.939  0.1251 -0.8145  1.3924
11018TIP3    H254470   5.829   6.366   2.926 -0.0310 -1.0463 -0.4685
11019TIP3   OH254471   0.569   1.564  14.548  0.1132  0.1394  0.4156
11019TIP3    H154472   0.503   1.632  14.535 -0.1923  0.0552  1.4392
11019TIP3    H254473   0.652   1.605  14.521 -0.6372 -0.7864 -4.2118
11020TIP3   OH254474   2.820   1.759   2.174 -0.1468  0.2605 -0.0103
11020TIP3    H154475   2.906   1.734   2.138 -0.5797 -0.2532 -0.7081
11020TIP3    H254476   2.757   1.727   2.109 -0.8601  0.7971  0.4098
11021TIP3   OH254477   1.116   1.079  13.050 -0.3814  0.2828 -0.2003
11021TIP3    H154478   1.149   1.136  13.119 -0.9808  1.0119 -0.4969
11021TIP3    H254479   1.074   1.138  12.988  0.5519 -0.3134 -1.4388
11022TIP3   OH254480   6.054   0.369   2.004  0.0951 -0.5183 -0.3021
11022TIP3    H154481   6.141   0.380   1.967  0.5855  0.5355  1.0959
11022TIP3    H254482   6.008   0.312   1.941  2.0648 -1.8995 -0.5694
11023TIP3   OH254483   4.591   0.237   5.763 -0.3141  0.2375 -0.1672
11023TIP3    H154484   4.598   0.286   5.845  1.3846  1.6963 -1.1241
11023TIP3    H254485   4.677   0.198   5.750 -0.5986 -0.0737 -1.2168
11024TIP3   OH254486   1.525   2.819   0.284  0.2195 -0.5621  0.4074
11024TIP3    H154487   1.469   2.861   0.219  0.5767 -0.9055 -0.1347
11024TIP3    H254488   1.469   2.753   0.325  0.4304 -1.4779 -0.7130
11025TIP3   OH254489   5.123   5.605  12.238  0.0223 -0.4659  0.4599
11025TIP3    H154490   5.209   5.595  12.279  0.8828 -0.7087 -1.2975
11025TIP3    H254491   5.098   5.516  12.212  0.2828 -0.1487 -0.9738
11026TIP3   OH254492   5.579   2.406   3.181  0.1650  0.2116  0.9346
11026TIP3    H154493   5.634   2.392   3.103 -0.8260 -1.3290  0.4539
11026TIP3    H254494   5.601   2.494   3.210 -0.6097  1.5553 -2.0814
11027TIP3   OH254495   1.663   6.736   3.286 -0.6300 -0.3171  0.0659
11027TIP3    H154496   1.569   6.738   3.271 -0.3769 -0.7940 -1.8282
11027TIP3    H254497   1.699   6.800   3.225  0.3184 -0.4292  0.4783
11028TIP3   OH254498   2.629   0.811  14.112  0.4132  0.9731 -0.2988
11028TIP3    H154499   2.642   0.724  14.074  0.5286  0.6782  0.4000
11028TIP3    H254500   2.613   0.794  14.205  1.0789  1.7447 -0.0344
11029TIP3   OH254501   1.537   1.522  16.832 -0.7956 -0.7036  0.2224
11029TIP3    H154502   1.483   1.595  16.860 -0.9581 -1.5583  2.2980
11029TIP3    H254503   1.624   1.560  16.816 -1.2461  0.1662 -0.2446
11030TIP3   OH254504   1.830   4.792   4.205 -0.2669  0.3114  0.4712
11030TIP3    H154505   1.867   4.834   4.283 -0.0253 -1.7489  1.5223
11030TIP3    H254506   1.742   4.765   4.232 -0.0698 -0.6892  0.1393
11031TIP3   OH254507   0.934   4.182   1.541  0.5616 -0.3414 -0.0198
11031TIP3    H154508   0.931   4.170   1.446 -1.7908  1.3513 -0.2589
11031TIP3    H254509   0.867   4.123   1.574  0.4054  0.0829  0.4292
11032TIP3   OH254510   1.041   0.649   6.073  0.4276  0.1390  0.6969
11032TIP3    H154511   0.995   0.566   6.083 -0.4611  0.2925 -1.5358
11032TIP3    H254512   0.978   0.707   6.029  1.8387  1.2022 -0.0382
11033TIP3   OH254513   1.166   3.516  11.981  0.4990  0.1112 -0.1139
11033TIP3    H154514   1.194   3.447  11.921  2.9093  0.6524  0.2866
11033TIP3    H254515   1.167   3.596  11.928 -1.6483 -0.0045 -0.4099
11034TIP3   OH254516   4.194   1.736   4.132  0.1097 -0.1796 -0.0184
11034TIP3    H154517   4.133   1.665   4.111 -0.8860  0.8266 -0.6736
11034TIP3    H254518   4.137   1.811   4.152  1.1247  0.2590  1.3448
11035TIP3   OH254519   6.240   0.732  15.540 -0.2331 -0.4523  0.3617
11035TIP3    H154520   6.197   0.672  15.601 -0.2460 -0.5301  0.2746
11035TIP3    H254521   6.220   0.697  15.453 -0.2360 -0.3259  0.3116
11036TIP3   OH254522   3.363   4.717   5.792  0.3685 -0.6841 -0.4309
11036TIP3    H154523   3.427   4.647   5.805 -0.6169 -1.1843  2.7059
11036TIP3    H254524   3.279   4.671   5.781  0.0774  0.0069 -1.2276
11037TIP3   OH254525   0.149   4.177   5.160 -0.3676 -0.0575  0.4844
11037TIP3    H154526   0.235   4.148   5.191  0.4151  0.7531 -0.8536
11037TIP3    H254527   0.091   4.162   5.235  1.3654  1.5685  2.2673
11038TIP3   OH254528   3.273   6.172  13.605  0.8236  0.1597  0.6648
11038TIP3    H154529   3.183   6.185  13.575  1.5985  0.1472 -1.9230
11038TIP3    H254530   3.291   6.246  13.662 -1.1674 -0.4736  2.2309
11039TIP3   OH254531   0.740   1.379  14.834  0.0781  0.2931  0.1539
11039TIP3    H154532   0.745   1.351  14.743  1.8185 -1.5896  0.7387
11039TIP3    H254533   0.764   1.472  14.832 -0.1429  0.3445 -1.3143
11040TIP3   OH254534   2.116   0.394  11.899  0.3571 -0.3542 -0.0636
11040TIP3    H154535   2.119   0.410  11.994 -0.2439  1.7084 -0.3467
11040TIP3    H254536   2.028   0.361  11.884  0.8075 -1.7686  0.1988
11041TIP3   OH254537   1.055   2.482  14.535 -0.2412  0.1792  0.7129
11041TIP3    H154538   1.037   2.402  14.486 -0.0248 -0.0116  0.9445
11041TIP3    H254539   1.150   2.493  14.529 -0.2927  0.5216  0.5198
11042TIP3   OH254540   6.492   4.779  14.470 -0.4768  0.0691 -0.2458
11042TIP3    H154541   6.484   4.694  14.427 -3.1867 -0.1128  0.4437
11042TIP3    H254542   6.448   4.767  14.555  0.8817  1.6136  0.7396
11043TIP3   OH254543   6.420   3.053  11.905 -0.0696  0.4724  0.1550
11043TIP3    H154544   6.405   2.959  11.905  0.2176  0.4237  0.2885
11043TIP3    H254545   6.346   3.090  11.857 -0.6129  0.2527  0.8170
11044TIP3   OH254546   4.301   0.767  13.321 -0.2295 -0.2851  0.7175
11044TIP3    H154547   4.217   0.735  13.289 -0.5728  0.4014  0.9267
11044TIP3    H254548   4.311   0.727  13.407 -0.3258 -0.3785  0.6860
11045TIP3   OH254549   4.364   1.956  15.577 -0.5462  1.0143  0.1019
11045TIP3    H154550   4.454   1.942  15.606 -0.7187  1.2746  0.7832
11045TIP3    H254551   4.327   1.868  15.569 -0.9720  0.9659  2.2279
11046TIP3   OH254552   3.444   2.451  14.574 -0.6554  0.1924  0.8481
11046TIP3    H154553   3.453   2.546  14.575  0.0017  0.1275  1.2212
11046TIP3    H254554   3.533   2.418  14.586 -1.0323 -0.4644  2.0381
11047TIP3   OH254555   6.331   4.265   1.831 -0.5673 -0.6026 -0.1368
11047TIP3    H154556   6.383   4.209   1.773 -0.5859 -0.3255 -0.4229
11047TIP3    H254557   6.292   4.204   1.894  0.0318 -0.8230  0.0275
11048TIP3   OH254558   0.129   0.719   1.830 -0.3612 -0.9231  0.1481
11048TIP3    H154559   0.202   0.663   1.806  0.3028 -0.7077  1.5820
11048TIP3    H254560   0.158   0.766   1.908 -1.5627  0.1037  0.0203
11049TIP3   OH254561   3.582   3.503  12.234 -0.1182 -0.2900 -0.0592
11049TIP3    H154562   3.494   3.527  12.263  1.1401  0.1438  4.0310
11049TIP3    H254563   3.604   3.426  12.286  2.2966  0.2680 -0.1557
11050TIP3   OH254564   5.490   1.988  16.825  0.3623 -0.1608  0.8232
11050TIP3    H154565   5.452   2.021  16.744 -0.7130 -0.5619  1.1431
11050TIP3    H254566   5.420   1.996  16.890  1.2195  0.2090  1.7339
11051TIP3   OH254567   3.925   0.361   5.392  0.7335 -0.0741  0.1682
11051TIP3    H154568   3.912   0.421   5.319 -0.7766  2.0878  2.0659
11051TIP3    H254569   4.005   0.391   5.434 -0.0852  0.7627  1.1888
11052TIP3   OH254570   4.022   0.935  16.503 -0.5632  0.5335  0.1747
11052TIP3    H154571   4.000   0.918  16.595 -2.3731  1.5769 -0.0045
11052TIP3    H254572   4.001   0.853  16.458  1.9039 -0.5563  0.8646
11053TIP3   OH254573   1.748   3.334   0.632 -0.7492 -0.4743  0.5093
11053TIP3    H154574   1.683   3.395   0.598 -0.9703 -0.6542  0.6014
11053TIP3    H254575   1.789   3.381   0.704 -0.0103  0.0546 -0.2392
11054TIP3   OH254576   5.979   5.993  13.483  0.5907  0.2002  0.5646
11054TIP3    H154577   5.957   6.065  13.424  0.0012  0.5496  1.1913
11054TIP3    H254578   6.062   5.959  13.451  0.8111  1.0862  0.1894
11055TIP3   OH254579   6.125   4.502  13.853  0.5267 -0.4869 -0.2484
11055TIP3    H154580   6.061   4.573  13.860 -0.4859 -1.2856 -0.9695
11055TIP3    H254581   6.100   4.440  13.921  1.8144  0.1272  0.8168
11056TIP3   OH254582   2.330   0.513  16.181  0.0784  0.6100 -0.3254
11056TIP3    H154583   2.333   0.432  16.232 -0.9918  0.2215 -0.8446
11056TIP3    H254584   2.236   0.528  16.166  0.3499  0.3353 -2.7291
11057TIP3   OH254585   3.751   1.152  16.579 -0.7219  0.3475  0.2371
11057TIP3    H154586   3.748   1.068  16.533  0.7054  0.7695 -0.6777
11057TIP3    H254587   3.810   1.137  16.654 -1.4794  0.2042  0.8198
11058TIP3   OH254588   6.688   6.461   4.381  0.1813 -0.0714 -0.4771
11058TIP3    H154589   6.662   6.511   4.303  0.7873 -0.4945 -0.9591
11058TIP3    H254590   6.770   6.501   4.408  0.7125 -0.8410 -0.9121
11059TIP3   OH254591   3.666   6.311  13.313  0.7335 -0.3759 -0.6158
11059TIP3    H154592   3.573   6.304  13.338  1.3845 -0.5196  2.0660
11059TIP3    H254593   3.678   6.404  13.292  0.4459  0.1309  1.2968
11060TIP3   OH254594   4.821   1.789  11.448  0.5020  0.6029  0.1318
11060TIP3    H154595   4.908   1.789  11.408  0.9747 -0.3149  1.1267
11060TIP3    H254596   4.809   1.699  11.479 -1.6170  0.1569 -1.6868
11061TIP3   OH254597   3.468   2.250  16.597  0.1864 -0.1973  0.0671
11061TIP3    H154598   3.560   2.226  16.589  0.7271  1.7503 -0.1358
11061TIP3    H254599   3.456   2.319  16.531 -1.1462  0.2934  0.7994
11062TIP3   OH254600   0.035   1.249  12.541  0.2456  0.5123 -0.2008
11062TIP3    H154601   0.053   1.341  12.561  0.0245  0.9337 -1.7814
11062TIP3    H254602   0.099   1.227  12.473  1.2291 -0.9488  1.1278
11063TIP3   OH254603   4.530   5.685  14.114  0.1409  0.3705  0.2776
11063TIP3    H154604   4.599   5.748  14.094  0.6278 -0.4848 -0.8415
11063TIP3    H254605   4.487   5.669  14.030 -0.2281 -0.4815  0.6133
11064TIP3   OH254606   6.561   4.443   0.173  0.2574 -0.2650 -1.0162
11064TIP3    H154607   6.598   4.524   0.138  0.2211 -0.4486 -1.4968
11064TIP3    H254608   6.635   4.398   0.213 -0.1732  1.1844  1.6249
11065TIP3   OH254609   2.667   4.855   2.784  0.0355  0.9519 -0.1208
11065TIP3    H154610   2.591   4.798   2.799 -0.2110  1.2215 -0.3271
11065TIP3    H254611   2.659   4.925   2.848 -0.8814  1.9648 -1.2900
11066TIP3   OH254612   4.888   3.542   4.514  0.0265  0.1251  0.0541
11066TIP3    H154613   4.942   3.498   4.449 -0.7445 -1.0643  0.1888
11066TIP3    H254614   4.808   3.566   4.466  1.0058  2.8128 -0.4247
11067TIP3   OH254615   4.086   1.505  16.256 -0.4343 -0.0728 -0.2234
11067TIP3    H154616   4.000   1.529  16.222 -0.4061 -1.1982 -1.1535
11067TIP3    H254617   4.104   1.419  16.218  1.9079  0.9052 -1.5663
11068TIP3   OH254618   1.322   4.086   1.851  0.1164 -0.5251  0.8327
11068TIP3    H154619   1.380   4.043   1.914  0.5995  0.6262  1.2039
11068TIP3    H254620   1.248   4.116   1.904  0.0821 -0.3543  0.6866
11069TIP3   OH254621   4.425   5.420   1.984 -0.0659  0.2847  0.1115
11069TIP3    H154622   4.509   5.377   1.978 -0.2361  0.1758 -2.8583
11069TIP3    H254623   4.441   5.498   2.037  1.7600 -0.0551  0.0953
11070TIP3   OH254624   1.109   4.349  13.984  0.4749 -0.3049 -0.2000
11070TIP3    H154625   1.125   4.256  13.973 -0.7574 -0.4856 -0.5794
11070TIP3    H254626   1.042   4.354  14.051 -0.9582  0.1890 -1.6153
11071TIP3   OH254627   2.647   0.565  13.652  0.0463  0.1733  0.3260
11071TIP3    H154628   2.604   0.489  13.612  0.9889 -0.6443  0.8322
11071TIP3    H254629   2.604   0.641  13.611 -2.0357 -0.5823  0.9716
11072TIP3   OH254630   6.476   6.553   1.419  0.0896  0.6528 -0.1304
11072TIP3    H154631   6.527   6.522   1.344  0.0771  1.7416 -0.6068
11072TIP3    H254632   6.511   6.504   1.493  2.6542  2.1005 -0.2243
11073TIP3   OH254633   5.095   4.535   5.374 -0.5465 -0.1714  0.1267
11073TIP3    H154634   5.048   4.544   5.457  0.7980 -2.0658  1.1932
11073TIP3    H254635   5.100   4.624   5.340 -0.1758  0.8872  2.6663
11074TIP3   OH254636   5.213   4.581  14.852  0.5985 -0.1141 -0.0054
11074TIP3    H154637   5.194   4.623  14.768  0.9099  1.8309  0.8580
11074TIP3    H254638   5.184   4.490  14.839 -2.3928  0.8580 -1.1880
11075TIP3   OH254639   2.511   2.288   5.189 -0.1233 -1.1122  0.6704
11075TIP3    H154640   2.494   2.233   5.113  1.7704 -0.1524 -0.5369
11075TIP3    H254641   2.604   2.274   5.208  0.0299  0.4875  1.2860
11076TIP3   OH254642   5.882   4.916  12.732 -0.1222 -0.1711  0.2577
11076TIP3    H154643   5.803   4.883  12.689  0.5602 -2.1428  0.4052
11076TIP3    H254644   5.875   4.885  12.823  0.4785  0.2714  0.4642
11077TIP3   OH254645   3.232   1.537  11.690  0.5732 -0.0726 -0.1435
11077TIP3    H154646   3.250   1.466  11.627  0.9676 -0.4764  0.4184
11077TIP3    H254647   3.155   1.506  11.739 -1.7178  1.5706 -2.4220
11078TIP3   OH254648   1.595   1.608  13.063  0.2742 -0.0977 -0.5065
11078TIP3    H154649   1.585   1.513  13.057  0.4181 -0.1887  0.5220
11078TIP3    H254650   1.613   1.624  13.155  1.4790  0.8119 -0.8725
11079TIP3   OH254651   2.523   1.884   5.464 -0.0265 -0.4261 -0.4963
11079TIP3    H154652   2.562   1.847   5.384 -0.1741 -1.4386 -0.1053
11079TIP3    H254653   2.500   1.974   5.439  2.0181  0.0414 -0.9183
11080TIP3   OH254654   2.821   6.293   5.414 -0.2723  0.2862  0.4001
11080TIP3    H154655   2.908   6.274   5.451  0.4091  0.5567 -0.9815
11080TIP3    H254656   2.832   6.282   5.320 -1.8505 -0.0107  0.2273
11081TIP3   OH254657   3.645   5.313  15.386 -0.0567 -0.2896  0.2266
11081TIP3    H154658   3.659   5.237  15.443  2.2634  0.9414  1.4277
11081TIP3    H254659   3.714   5.374  15.410 -0.1473  1.1006 -2.6258
11082TIP3   OH254660   4.218   0.410  15.779 -0.3544  0.0951  0.4747
11082TIP3    H154661   4.136   0.455  15.761 -0.6360 -0.5756  0.0160
11082TIP3    H254662   4.195   0.317  15.774  0.4479 -0.0982  0.2743
11083TIP3   OH254663   1.527   2.752   3.344  0.0619 -0.2973  0.5652
11083TIP3    H154664   1.473   2.742   3.422  1.9413  0.1271  1.9861
11083TIP3    H254665   1.544   2.846   3.338 -0.8360 -0.1875 -0.9579
11084TIP3   OH254666   2.528   6.029  14.641  0.0870  0.1105 -0.5959
11084TIP3    H154667   2.447   5.999  14.601 -0.0287 -1.0303  0.4106
11084TIP3    H254668   2.583   6.056  14.567 -1.6981  2.3470 -1.2182
11085TIP3   OH254669   4.234   0.026  14.388 -0.6767  0.5163  0.2382
11085TIP3    H154670   4.326   0.052  14.395 -0.6582  0.2545  1.1967
11085TIP3    H254671   4.226  -0.049  14.448 -0.9383 -1.1435 -1.7589
11086TIP3   OH254672   6.168   2.414  17.087  0.4456 -0.2493 -0.6843
11086TIP3    H154673   6.210   2.404  17.172 -1.0723  0.3401  0.1772
11086TIP3    H254674   6.175   2.508  17.067 -0.7430 -0.0686 -0.3422
11087TIP3   OH254675   1.365   0.083   6.032 -0.9930 -0.2509 -0.5959
11087TIP3    H154676   1.399  -0.000   6.065  0.6903 -1.1023 -4.0813
11087TIP3    H254677   1.281   0.059   5.992 -0.6799 -0.2281 -1.2751
11088TIP3   OH254678   3.786   2.828   0.855  0.5007  0.2211  0.0941
11088TIP3    H154679   3.740   2.876   0.925  0.3356  0.1539  0.0332
11088TIP3    H254680   3.870   2.805   0.894  1.2032  1.8645 -0.3843
11089TIP3   OH254681   3.109   2.307   0.510  0.0235 -0.1342  0.1449
11089TIP3    H154682   3.188   2.257   0.490  1.8701  1.6718  2.3146
11089TIP3    H254683   3.047   2.284   0.441  2.0940 -2.3642 -1.1079
11090TIP3   OH254684   4.962   5.552  15.894  0.2696 -0.8025  0.0245
11090TIP3    H154685   5.040   5.496  15.894  1.1270  0.3681  0.3120
11090TIP3    H254686   4.919   5.533  15.977  1.8903  0.7136  1.3000
11091TIP3   OH254687   4.191   3.001  11.545  0.1173 -0.1493  0.3100
11091TIP3    H154688   4.170   3.031  11.634 -1.1424  0.4461 -0.1677
11091TIP3    H254689   4.115   3.025  11.493  0.9881 -0.1670 -1.0196
11092TIP3   OH254690   5.963   1.130   3.960 -0.0830 -0.4832  0.4054
11092TIP3    H154691   5.894   1.196   3.956  0.5901  0.1891 -0.5495
11092TIP3    H254692   6.045   1.181   3.959  0.4590 -1.1907  2.8865
11093TIP3   OH254693   4.006   2.417   2.066  0.4740  0.0113  0.3758
11093TIP3    H154694   4.061   2.485   2.027 -1.0130  1.1617  0.2001
11093TIP3    H254695   4.029   2.418   2.159  0.7882  0.4263  0.2955
11094TIP3   OH254696   4.308   2.164  16.544  0.5895 -0.4865 -0.0746
11094TIP3    H154697   4.284   2.256  16.529  1.4136 -0.2259  0.1764
11094TIP3    H254698   4.328   2.130  16.457 -0.5314 -0.6807 -0.2824
11095TIP3   OH254699   5.601   3.704  15.929 -0.4897  0.5821 -0.3585
11095TIP3    H154700   5.580   3.647  16.002 -1.2310  0.3339 -0.7562
11095TIP3    H254701   5.516   3.737  15.899 -0.0749  2.0092 -0.0439
11096TIP3   OH254702   4.929   2.117   3.837 -0.2791  1.0340 -0.2758
11096TIP3    H154703   4.987   2.042   3.824  0.2127  1.2483  0.5867
11096TIP3    H254704   4.863   2.108   3.770 -0.4514 -0.4017  0.0546
11097TIP3   OH254705   4.293   0.800   1.196 -0.4023 -0.1199  0.1299
11097TIP3    H154706   4.228   0.799   1.126 -0.9331  0.6442  0.5970
11097TIP3    H254707   4.356   0.732   1.171 -0.5308  0.1925 -1.1230
11098TIP3   OH254708   4.318   1.349  16.756  0.3213  0.2900  0.0839
11098TIP3    H154709   4.235   1.301  16.758 -0.7323  1.8771 -1.8759
11098TIP3    H254710   4.354   1.339  16.844 -1.5827 -1.0857  0.7576
11099TIP3   OH254711   5.646   3.139  15.141  0.8567  0.5590 -0.1819
11099TIP3    H154712   5.657   3.156  15.235 -0.8907 -2.6045  0.7380
11099TIP3    H254713   5.735   3.131  15.107  1.5505  2.6868  0.9181
11100TIP3   OH254714   3.213   1.155   1.321  0.1212  0.0036  0.1818
11100TIP3    H154715   3.253   1.078   1.279 -0.1158 -0.1480  0.2333
11100TIP3    H254716   3.283   1.190   1.377  0.1846 -0.2669  0.2756
11101TIP3   OH254717   0.262   4.724   1.016 -0.0947 -0.1800 -0.2045
11101TIP3    H154718   0.314   4.805   1.016 -0.2195 -0.0413 -2.6258
11101TIP3    H254719   0.175   4.752   1.043 -0.0646  0.4506 -0.7390
11102TIP3   OH254720   5.963   2.770   0.270  0.1367 -0.0653  0.2595
11102TIP3    H154721   5.968   2.862   0.246 -0.5339 -0.1887 -0.4091
11102TIP3    H254722   5.945   2.770   0.364  1.9753  0.4454  0.6507
11103TIP3   OH254723   2.510   6.606   3.778  0.0325  0.5564  0.1197
11103TIP3    H154724   2.483   6.528   3.730 -1.0191 -0.1003  1.7160
11103TIP3    H254725   2.448   6.614   3.850  0.0440  2.9413 -0.0342
11104TIP3   OH254726   3.222   1.527   5.751 -0.1598  0.1975  0.6326
11104TIP3    H154727   3.200   1.439   5.720  0.6796  0.3487 -0.4573
11104TIP3    H254728   3.306   1.517   5.795 -0.7571  0.2111  1.8120
11105TIP3   OH254729   6.447   2.244  15.504 -0.8891  0.7991 -0.0369
11105TIP3    H154730   6.369   2.191  15.515  1.2020 -2.1897  2.0263
11105TIP3    H254731   6.438   2.314  15.570 -1.1428 -0.4754  1.3295
11106TIP3   OH254732   0.655   6.034   0.633  0.2487 -0.0176 -0.5396
11106TIP3    H154733   0.599   6.031   0.710 -0.4137 -4.7246 -0.8993
11106TIP3    H254734   0.596   6.056   0.561  0.3710  1.8360 -0.1274
11107TIP3   OH254735   0.204   6.751  15.738 -0.6032 -0.3196  0.1009
11107TIP3    H154736   0.127   6.755  15.681 -1.0178 -1.5951  0.5247
11107TIP3    H254737   0.188   6.674  15.793  0.9400 -0.5543  0.2524
11108TIP3   OH254738   2.224   4.322   5.854 -0.4915 -0.0094  0.2692
11108TIP3    H154739   2.154   4.347   5.793 -1.3527 -0.1686  1.1573
11108TIP3    H254740   2.230   4.396   5.914 -0.8722 -0.5633  1.0194
11109TIP3   OH254741   4.180   0.760  14.975 -0.0524 -0.0258 -0.0473
11109TIP3    H154742   4.146   0.804  15.053  3.4561  2.2490  0.4314
11109TIP3    H254743   4.122   0.790  14.904 -0.9997  1.0172  1.1128
11110TIP3   OH254744   6.672   6.040   1.697 -0.3941 -0.4733 -0.2260
11110TIP3    H154745   6.702   5.986   1.624 -0.0588 -2.9164  1.5851
11110TIP3    H254746   6.746   6.041   1.759 -1.5639 -0.7653  1.2433
11111TIP3   OH254747   4.619   0.897   5.538 -0.5787 -0.0261 -0.2179
11111TIP3    H154748   4.655   0.821   5.492  2.0028  0.1890  1.2187
11111TIP3    H254749   4.543   0.863   5.585  0.1270 -1.5795 -0.1185
11112TIP3   OH254750   5.697   2.726   0.561 -0.2268 -0.0436  0.4782
11112TIP3    H154751   5.646   2.798   0.525  0.9508  1.3393  1.4196
11112TIP3    H254752   5.788   2.756   0.555  0.3102 -1.4976  0.8242
11113TIP3   OH254753   2.064   3.663   1.646 -0.7265 -0.1171  0.0391
11113TIP3    H154754   2.079   3.688   1.738 -0.8887  1.9705 -0.4513
11113TIP3    H254755   2.141   3.609   1.624 -0.2953 -0.0088  1.1726
11114TIP3   OH254756   6.769   5.120   1.998  0.2178 -0.7340 -0.3359
11114TIP3    H154757   6.717   5.127   1.919 -0.3604  3.1794  0.2144
11114TIP3    H254758   6.710   5.080   2.062 -0.4055 -0.8963 -0.9997
11115TIP3   OH254759   2.649   5.898  13.176 -0.2812  0.2487 -0.5831
11115TIP3    H154760   2.640   5.959  13.103  1.3207  2.2062  0.7412
11115TIP3    H254761   2.729   5.848  13.155  0.9973  1.7854  0.4054
11116TIP3   OH254762   4.469   3.407  13.080 -0.0591  0.0652  0.7271
11116TIP3    H154763   4.473   3.348  13.005  0.4535  1.3996 -0.3494
11116TIP3    H254764   4.560   3.431  13.097 -0.3607  1.8022  0.0685
11117TIP3   OH254765   3.769   1.270   1.554 -0.5818 -0.0725  0.2026
11117TIP3    H154766   3.855   1.268   1.596 -2.0563 -2.1640  3.4968
11117TIP3    H254767   3.762   1.187   1.507 -0.5548  0.4299 -0.7184
11118TIP3   OH254768   2.523   5.446   5.128  0.5488  0.7088  0.4188
11118TIP3    H154769   2.478   5.363   5.112  1.3968  0.4325 -0.6886
11118TIP3    H254770   2.458   5.513   5.104  0.6623  0.3188 -1.1232
11119TIP3   OH254771   0.409   2.271  16.009  0.1768  0.2952  0.1222
11119TIP3    H154772   0.355   2.341  15.971  0.2977 -0.8158 -2.2651
11119TIP3    H254773   0.496   2.285  15.973  0.1306 -1.2458 -0.6414
11120TIP3   OH254774   3.599   5.587   1.438 -0.3571  0.6881 -0.1477
11120TIP3    H154775   3.618   5.532   1.514 -1.4647 -0.2878 -0.5460
11120TIP3    H254776   3.595   5.676   1.473 -1.6020  0.1724  1.0929
11121TIP3   OH254777   4.137   1.773  11.893 -0.0537  0.6348  0.2734
11121TIP3    H154778   4.182   1.724  11.961  1.5067  0.8854 -0.5330
11121TIP3    H254779   4.084   1.837  11.940 -0.8201 -0.6937  1.2835
11122TIP3   OH254780   1.667   2.393  12.797 -0.1892  0.0120  0.4469
11122TIP3    H154781   1.751   2.352  12.775 -0.4287 -1.1206  1.5359
11122TIP3    H254782   1.613   2.382  12.718 -0.5054 -2.5279  0.9442
11123TIP3   OH254783   6.150   5.808  12.647  0.3237 -0.4012  0.5289
11123TIP3    H154784   6.223   5.821  12.586  0.2026 -0.5404  0.3506
11123TIP3    H254785   6.141   5.891  12.693 -0.4165  0.1444 -0.5608
11124TIP3   OH254786   0.978   0.642  16.579 -0.0339 -0.0660 -0.3604
11124TIP3    H154787   0.990   0.563  16.526 -0.7397 -0.5977  0.2449
11124TIP3    H254788   0.885   0.640  16.603  0.1134  0.5539  0.2829
11125TIP3   OH254789   3.560   0.574   2.168 -0.3996 -0.4342  0.3152
11125TIP3    H154790   3.646   0.581   2.125  0.0882  0.0681  1.3292
11125TIP3    H254791   3.508   0.521   2.109  0.1515  0.4884 -1.0422
11126TIP3   OH254792   6.098   4.983  14.680  0.1649  0.1071  0.1294
11126TIP3    H154793   6.051   5.043  14.738 -0.5970 -2.0692  1.8987
11126TIP3    H254794   6.182   4.969  14.723  0.0631 -0.6057  0.1034
11127TIP3   OH254795   0.355   5.945   0.164  0.3123 -0.0006 -0.2128
11127TIP3    H154796   0.279   5.912   0.212 -0.0411 -0.5280 -1.1221
11127TIP3    H254797   0.325   6.027   0.125  0.2594 -0.1360 -0.4541
11128TIP3   OH254798   0.231   1.645  13.822  0.0546  0.1591  0.2415
11128TIP3    H154799   0.194   1.727  13.854 -0.1782 -0.6071  2.1016
11128TIP3    H254800   0.324   1.663  13.809 -0.3377  1.2281 -1.3442
11129TIP3   OH254801   0.377   5.614   6.206  0.1253  0.3166  1.0882
11129TIP3    H154802   0.328   5.671   6.264  1.3997  1.8737  0.6955
11129TIP3    H254803   0.398   5.537   6.260 -0.0873  1.0079  2.1837
11130TIP3   OH254804   4.108   0.028   5.741  0.3349 -0.2080 -0.1030
11130TIP3    H154805   4.102  -0.036   5.670  0.7778  0.5170 -0.8109
11130TIP3    H254806   4.022   0.070   5.742 -0.3488 -1.5855  1.1271
11131TIP3   OH254807   5.098   6.501   2.629 -0.0029 -0.2256  0.6578
11131TIP3    H154808   5.159   6.462   2.692  1.1376  1.3751  0.6149
11131TIP3    H254809   5.146   6.498   2.546 -0.6929 -0.5028  0.2638
11132TIP3   OH254810   5.712   5.314   4.662  0.5260  0.4775  0.4118
11132TIP3    H154811   5.690   5.334   4.571 -0.0615 -1.3899  0.1093
11132TIP3    H254812   5.701   5.219   4.670  0.5095  0.5989  2.4524
11133TIP3   OH254813   4.789   3.222  16.982 -0.7430 -0.2271 -0.2323
11133TIP3    H154814   4.693   3.229  16.986 -0.6453  1.1367  0.4729
11133TIP3    H254815   4.819   3.279  17.053  0.6060 -0.3010 -0.7293
11134TIP3   OH254816   2.030   0.783   6.300 -0.0178  0.4031 -0.4305
11134TIP3    H154817   2.044   0.855   6.238  1.0740  1.5750  1.0969
11134TIP3    H254818   2.091   0.801   6.371  0.6303 -2.3181 -0.1951
11135TIP3   OH254819   5.370   1.947  14.626 -0.1661  0.6213 -0.0041
11135TIP3    H154820   5.308   2.015  14.653 -0.1146  1.3645 -1.6488
11135TIP3    H254821   5.454   1.976  14.661  0.0148  1.9016 -1.3653
11136TIP3   OH254822   1.750   0.348  16.039  0.1134 -0.1286  0.2005
11136TIP3    H154823   1.820   0.364  15.975 -0.0451 -0.2121  0.0047
11136TIP3    H254824   1.708   0.433  16.050  1.5623  0.4298  1.9125
11137TIP3   OH254825   4.630   0.021  15.403 -0.2136 -0.0280  0.4092
11137TIP3    H154826   4.564  -0.043  15.427  0.4524 -1.1063 -0.5478
11137TIP3    H254827   4.633   0.081  15.477 -0.3283 -1.5220  1.6735
11138TIP3   OH254828   0.645   3.138   1.425 -0.2970 -0.4464  0.0536
11138TIP3    H154829   0.619   3.212   1.370  1.4429  0.6792  0.6577
11138TIP3    H254830   0.690   3.079   1.365 -0.7147 -0.4955 -0.2190
11139TIP3   OH254831   5.195   0.757   3.549 -0.0035  0.0926  0.3914
11139TIP3    H154832   5.144   0.685   3.511  0.0992 -0.5872  1.4812
11139TIP3    H254833   5.227   0.721   3.632 -0.1071  1.4715  1.0498
11140TIP3   OH254834   6.420   4.091  11.417  0.4349  0.2350 -0.2017
11140TIP3    H154835   6.487   4.078  11.350  1.1254  2.0874  0.0868
11140TIP3    H254836   6.467   4.082  11.500  0.2482  1.1417  0.0069
11141TIP3   OH254837   0.844   2.151   0.415  0.5708  0.6952  0.4911
11141TIP3    H154838   0.811   2.063   0.395  0.3845  1.2181 -1.8698
11141TIP3    H254839   0.775   2.210   0.385  0.3147  1.6930  2.8393
11142TIP3   OH254840   1.323   6.165   2.002  0.2473 -0.2169  0.0115
11142TIP3    H154841   1.260   6.236   2.013  1.0683  0.5177  0.0728
11142TIP3    H254842   1.282   6.105   1.940 -0.1884  0.6390 -0.5400
11143TIP3   OH254843   4.062   3.242   4.236  0.4693 -0.3530 -0.6164
11143TIP3    H154844   3.976   3.230   4.196  0.1159  1.2755 -0.4103
11143TIP3    H254845   4.120   3.263   4.162  0.1671  0.9648 -0.4994
11144TIP3   OH254846   5.291   0.837  10.867 -0.3552  0.2250  0.8707
11144TIP3    H154847   5.314   0.922  10.905 -0.7300  0.0710  1.4634
11144TIP3    H254848   5.301   0.850  10.772 -0.7829  1.0513  0.9214
11145TIP3   OH254849   2.392   0.686   4.911 -0.4003 -0.6339 -0.1926
11145TIP3    H154850   2.406   0.743   4.987 -0.3291 -1.0406  0.1039
11145TIP3    H254851   2.469   0.630   4.910  1.7592  2.0101 -2.9863
11146TIP3   OH254852   1.857   4.830  16.316  0.3340  0.4544  0.3240
11146TIP3    H154853   1.799   4.843  16.241 -1.8456 -1.4819  1.5427
11146TIP3    H254854   1.818   4.885  16.385  0.8124  0.2699  0.7428
11147TIP3   OH254855   4.043   5.267  16.701  0.1378 -0.8140 -0.5981
11147TIP3    H154856   4.106   5.315  16.647  0.1039 -0.7970 -0.6230
11147TIP3    H254857   4.072   5.284  16.791 -0.4082  0.0025 -0.5653
11148TIP3   OH254858   4.225   4.325  15.458 -0.4760  0.0775  0.0960
11148TIP3    H154859   4.165   4.332  15.532 -0.4192  0.7953  0.0772
11148TIP3    H254860   4.222   4.411  15.416 -1.2491 -0.5949 -1.3031
11149TIP3   OH254861   6.411   5.756   1.595 -0.2203  0.3837 -0.4455
11149TIP3    H154862   6.400   5.825   1.660 -0.2278 -0.3481  0.3416
11149TIP3    H254863   6.504   5.736   1.596 -0.0799  0.9252 -1.2588
11150TIP3   OH254864   2.017   3.615  12.636  0.0478  0.1897 -0.1869
11150TIP3    H154865   1.999   3.533  12.684  3.7620 -1.5653 -1.4348
11150TIP3    H254866   1.963   3.609  12.558 -1.1090 -0.1180  0.6040
11151TIP3   OH254867   3.743   2.858   2.227  0.1684 -0.4632 -0.3447
11151TIP3    H154868   3.687   2.860   2.150  1.4141  0.3896 -1.2756
11151TIP3    H254869   3.815   2.919   2.206  0.5843 -0.2741  1.4495
11152TIP3   OH254870   5.876   0.589  11.940  0.1275  0.6034 -0.1110
11152TIP3    H154871   5.863   0.496  11.922 -0.6528  0.7697 -0.4339
11152TIP3    H254872   5.942   0.616  11.876 -0.8804  0.6449 -1.1646
11153TIP3   OH254873   0.651   0.380  10.862  0.3331  0.8888  0.0188
11153TIP3    H154874   0.672   0.299  10.816  1.3298  0.8496  0.5290
11153TIP3    H254875   0.578   0.418  10.812 -1.0652 -0.9674  0.5121
11154TIP3   OH254876   2.463   5.538  12.252 -0.3941  0.4344  0.5515
11154TIP3    H154877   2.446   5.508  12.342 -1.9930 -2.5251 -0.5620
11154TIP3    H254878   2.422   5.624  12.247 -0.9437  0.3279  2.4814
11155TIP3   OH254879   3.123   4.759  16.526 -0.0769 -0.5793 -0.6229
11155TIP3    H154880   3.076   4.824  16.473  1.6763  0.7987 -0.5832
11155TIP3    H254881   3.212   4.760  16.491  0.6275 -1.0943  1.0620
11156TIP3   OH254882   5.883   2.424   4.333  0.8836  0.2400 -0.3800
11156TIP3    H154883   5.872   2.515   4.362 -3.0933  0.4859 -1.9216
11156TIP3    H254884   5.856   2.426   4.241  0.8360 -2.4686 -0.4891
11157TIP3   OH254885   2.828   4.127   4.446  0.3233  0.5845 -0.5425
11157TIP3    H154886   2.806   4.100   4.357  0.3305  3.3441 -1.4629
11157TIP3    H254887   2.743   4.127   4.492  0.2165 -0.1617 -0.7213
11158TIP3   OH254888   5.513   2.754  13.263 -0.3757  0.3051  0.2193
11158TIP3    H154889   5.598   2.797  13.270  1.0331 -2.2709  0.2987
11158TIP3    H254890   5.505   2.705  13.344  0.8395 -3.9574 -1.9264
11159TIP3   OH254891   4.357   3.136   3.286 -0.2095 -0.1643 -0.0296
11159TIP3    H154892   4.311   3.122   3.369 -4.5765  1.9003 -1.7758
11159TIP3    H254893   4.327   3.064   3.230 -0.0005  0.3146 -0.7682
11160TIP3   OH254894   5.221   3.935  10.467 -0.4157  0.2701  0.3914
11160TIP3    H154895   5.126   3.933  10.455 -0.4866  1.8545  0.3656
11160TIP3    H254896   5.249   3.844  10.461 -1.5276  0.0402 -2.8355
11161TIP3   OH254897   2.189   4.083  14.411 -0.4788  0.6079  0.2932
11161TIP3    H154898   2.107   4.096  14.364 -1.5073 -0.4435  1.7206
11161TIP3    H254899   2.163   4.065  14.501  1.0809 -2.5981  0.2517
11162TIP3   OH254900   0.085   6.701  12.179  0.4194 -0.5106 -0.5684
11162TIP3    H154901   0.127   6.672  12.260 -2.5544  1.9945  2.1297
11162TIP3    H254902   0.133   6.781  12.155 -1.0066  0.8662  0.9887
11163TIP3   OH254903   5.376   3.525   4.812 -0.1636  0.1209 -0.2356
11163TIP3    H154904   5.281   3.530   4.802  0.0347  2.4064 -1.6394
11163TIP3    H254905   5.408   3.612   4.788  2.2507 -0.3523  0.8889
11164TIP3   OH254906   5.277   3.137   5.399 -0.0797  0.4004 -0.4515
11164TIP3    H154907   5.223   3.106   5.471  2.4160  1.3264  1.9628
11164TIP3    H254908   5.279   3.063   5.338 -1.8640 -0.5933  0.5867
11165TIP3   OH254909   6.664   3.354  15.265 -0.1051  0.5208  0.1057
11165TIP3    H154910   6.672   3.316  15.177  0.0378  3.4885 -1.2759
11165TIP3    H254911   6.750   3.393  15.282 -0.8993  2.1661  0.4505
11166TIP3   OH254912   0.550   2.689  13.494 -0.3075  0.0863  0.2048
11166TIP3    H154913   0.491   2.619  13.523 -0.8972  0.5067  0.0494
11166TIP3    H254914   0.586   2.656  13.411  0.6999 -0.7354  0.9547
11167TIP3   OH254915   4.119   3.944  17.042 -0.5486 -0.0645  0.1262
11167TIP3    H154916   4.149   3.866  17.088 -0.3697  0.1227  0.3350
11167TIP3    H254917   4.027   3.953  17.067 -0.7537 -0.5825 -0.4327
11168TIP3   OH254918   1.705   2.890   5.202  0.8117 -0.8410  0.0323
11168TIP3    H154919   1.739   2.852   5.121  2.2176  0.3384  0.0272
11168TIP3    H254920   1.667   2.816   5.249 -1.3616 -1.3402 -2.2980
11169TIP3   OH254921   0.737   1.329  16.269  1.4668  0.4055 -0.4311
11169TIP3    H154922   0.681   1.305  16.196  0.5600  0.7912  0.1226
11169TIP3    H254923   0.772   1.246  16.300 -0.6616 -0.1528  0.6758
11170TIP3   OH254924   6.631   1.454  16.490  0.4928  0.1315 -0.0074
11170TIP3    H154925   6.651   1.387  16.425 -0.6831 -0.1384 -0.1172
11170TIP3    H254926   6.688   1.432  16.564 -0.5465 -1.6093  0.3431
11171TIP3   OH254927   6.498   6.261   6.905 -0.5707  0.0803 -0.1657
11171TIP3    H154928   6.464   6.204   6.836  2.2731 -0.3216 -1.3859
11171TIP3    H254929   6.533   6.202   6.971  1.4689  0.3070 -0.9573
11172TIP3   OH254930   2.861   1.678  14.534 -0.3154  0.1146 -0.9188
11172TIP3    H154931   2.929   1.618  14.563 -0.4188  0.4913  0.1510
11172TIP3    H254932   2.900   1.725  14.460 -0.3940 -1.5539 -2.0647
11173TIP3   OH254933   4.084   6.304  11.990 -0.8680  0.1553  0.1864
11173TIP3    H154934   4.078   6.212  11.964 -0.1953 -0.2522  1.3715
11173TIP3    H254935   4.025   6.311  12.065  0.0735  0.3628  0.9208
11174TIP3   OH254936   0.586   4.962  14.309  0.6225  0.6790 -0.0295
11174TIP3    H154937   0.649   4.918  14.365 -1.3885 -2.3231  0.0995
11174TIP3    H254938   0.625   4.960  14.222  1.0558 -0.4516  0.1719
11175TIP3   OH254939   2.830   2.529   5.345 -0.1486  0.0151 -0.9888
11175TIP3    H154940   2.807   2.527   5.438  0.1397  0.2648 -0.9074
11175TIP3    H254941   2.751   2.560   5.301 -1.0965 -2.3707 -1.1146
11176TIP3   OH254942   1.072   6.577  13.674  0.3802 -0.2350 -0.4618
11176TIP3    H154943   1.003   6.630  13.634  1.1873  1.7776  0.6834
11176TIP3    H254944   1.082   6.502  13.616 -0.8388  0.8487 -2.1337
11177TIP3   OH254945   6.243   1.161  16.364  0.2217 -0.1188  0.7436
11177TIP3    H154946   6.279   1.223  16.300 -1.7402  1.5371  1.1498
11177TIP3    H254947   6.213   1.087  16.312 -1.5130  1.2816 -0.3468
11178TIP3   OH254948   4.053   3.254  11.163  0.0997 -0.1297 -0.4686
11178TIP3    H154949   4.055   3.261  11.259  1.0018  0.8672 -0.5414
11178TIP3    H254950   4.069   3.162  11.145 -0.2051 -0.3499  0.3406
11179TIP3   OH254951   2.226   5.713  12.232 -0.2762 -0.4728  0.2237
11179TIP3    H154952   2.208   5.731  12.324 -0.7153  0.6917 -0.0699
11179TIP3    H254953   2.198   5.792  12.186  3.0605  0.4536 -0.5557
11180TIP3   OH254954   3.708   3.555   6.744  0.2344 -0.1936  1.0388
11180TIP3    H154955   3.693   3.649   6.734  1.9881 -0.0538 -0.8634
11180TIP3    H254956   3.803   3.545   6.745  0.1261 -2.0550 -0.5323
11181TIP3   OH254957   6.420   0.945  13.631  0.3037  0.3011  0.2101
11181TIP3    H154958   6.439   1.008  13.561 -2.4386  1.6282  0.5520
11181TIP3    H254959   6.471   0.867  13.607  2.4650  2.0048 -1.1460
11182TIP3   OH254960   5.681   4.862  16.905 -0.3903 -0.0496 -0.0882
11182TIP3    H154961   5.709   4.803  16.835  0.3508  0.4285 -0.1979
11182TIP3    H254962   5.589   4.839  16.920  0.0286 -1.6146  0.2528
11183TIP3   OH254963   0.594   6.137   3.823 -0.3900 -0.3491 -0.6207
11183TIP3    H154964   0.571   6.117   3.732 -1.8968 -0.2022 -0.3075
11183TIP3    H254965   0.523   6.098   3.875  0.2055 -0.0441  0.4532
11184TIP3   OH254966   6.107   1.315   3.268 -0.0305 -0.4502  0.4800
11184TIP3    H154967   6.058   1.247   3.313 -1.8479 -0.1442 -0.9239
11184TIP3    H254968   6.175   1.267   3.219 -2.4173 -1.5948 -1.9876
11185TIP3   OH254969   3.389   6.332  13.382 -0.3312 -0.4189 -0.2381
11185TIP3    H154970   3.307   6.296  13.416 -0.0001 -0.3675  0.6279
11185TIP3    H254971   3.395   6.419  13.422 -0.2740 -0.0729 -0.9730
11186TIP3   OH254972   3.492   3.592   5.949  0.3346  0.0939  0.4347
11186TIP3    H154973   3.432   3.611   6.022 -0.3889 -1.3051  0.2351
11186TIP3    H254974   3.578   3.618   5.982 -0.1459  0.5963  1.3491
11187TIP3   OH254975   6.683   3.549   2.726 -0.8577  0.4290 -0.4914
11187TIP3    H154976   6.749   3.582   2.665  1.7660 -0.3388  1.7305
11187TIP3    H254977   6.663   3.624   2.783 -0.7659  0.2774 -0.2551
11188TIP3   OH254978   3.493   4.633   0.098 -1.1141 -0.3316 -0.4964
11188TIP3    H154979   3.433   4.671   0.034  0.5141  2.4165 -0.5353
11188TIP3    H254980   3.579   4.642   0.058 -0.2531 -0.2447  1.3028
11189TIP3   OH254981   3.258   2.611  12.030  0.0431  0.2625  0.2490
11189TIP3    H154982   3.187   2.673  12.015 -1.4005 -1.2589  0.5263
11189TIP3    H254983   3.270   2.610  12.125 -0.4923 -0.4364  0.3204
11190TIP3   OH254984   2.311   0.960   2.396  0.2689 -0.8235 -0.4844
11190TIP3    H154985   2.347   0.945   2.483  0.1952 -1.6299 -0.5892
11190TIP3    H254986   2.225   0.920   2.397 -0.4036  0.5672 -0.4362
11191TIP3   OH254987   6.293   2.116  11.869 -0.0869  0.0317  0.1530
11191TIP3    H154988   6.218   2.077  11.823 -0.2030  0.6862 -0.2304
11191TIP3    H254989   6.258   2.196  11.907  0.1046 -0.3124  1.0866
11192TIP3   OH254990   3.718   6.744  16.295 -0.3162  0.6594  0.7592
11192TIP3    H154991   3.694   6.756  16.203  0.2573  0.8614  0.6294
11192TIP3    H254992   3.799   6.693  16.291 -1.0064 -0.5158  1.2008
11193TIP3   OH254993   3.946   3.237   0.004  0.6426 -0.5253  0.3493
11193TIP3    H154994   3.885   3.297   0.048  0.0073 -0.7921 -0.1494
11193TIP3    H254995   3.972   3.285  -0.075  0.4922 -0.7125  0.1845
11194TIP3   OH254996   1.936   3.928  14.491 -0.1993  0.3345  0.2707
11194TIP3    H154997   1.989   3.954  14.566  2.2676 -1.2756 -0.7595
11194TIP3    H254998   1.981   3.852  14.455 -1.3155  0.9449 -2.7812
11195TIP3   OH254999   3.122   0.458  14.013  0.0380  0.1886  0.2215
11195TIP3    H155000   3.041   0.411  14.031 -0.1355 -0.5809 -2.2849
11195TIP3    H255001   3.094   0.544  13.982  0.2580  0.5034  0.8614
11196TIP3   OH255002   2.130   4.391   3.840 -0.2360  0.4498  0.2195
11196TIP3    H155003   2.091   4.461   3.787 -0.3184  0.1675 -0.0960
11196TIP3    H255004   2.056   4.347   3.881 -0.1383  1.0508  1.0635
11197TIP3   OH255005   4.207   0.656  15.457  0.5971  1.3958 -0.0515
11197TIP3    H155006   4.251   0.611  15.529  1.0932  1.0587 -0.5472
11197TIP3    H255007   4.278   0.704  15.413  0.8873 -0.6293 -1.9827
11198TIP3   OH255008   2.796   3.031   2.749  0.3861 -0.6173  0.7091
11198TIP3    H155009   2.738   2.974   2.799  1.2154 -2.5708 -0.4658
11198TIP3    H255010   2.884   2.997   2.765  0.9546  0.5314  0.1880
11199TIP3   OH255011   5.228   3.267   2.375  0.4727 -0.1570 -0.1436
11199TIP3    H155012   5.305   3.316   2.347  0.7398 -1.2774 -1.4610
11199TIP3    H255013   5.250   3.236   2.463 -0.1577  2.9451  1.2368
11200TIP3   OH255014   5.647   1.128   1.055 -0.5372  0.2994  0.0175
11200TIP3    H155015   5.661   1.086   1.140 -1.2771 -1.5583 -0.7092
11200TIP3    H255016   5.555   1.109   1.034 -0.0942 -0.2184 -1.6434
11201TIP3   OH255017   4.657   1.226  12.790  0.0876 -0.0147 -0.0565
11201TIP3    H155018   4.706   1.255  12.867  1.0469  0.7575 -0.9127
11201TIP3    H255019   4.566   1.223  12.818  0.5887 -1.4171  1.5803
11202TIP3   OH255020   1.300   2.821   0.469  0.3621  0.0244 -0.3936
11202TIP3    H155021   1.243   2.756   0.429  1.0366 -0.3637 -0.7548
11202TIP3    H255022   1.283   2.901   0.421 -0.2745  0.0453 -0.1318
11203TIP3   OH255023   5.876   1.467  12.202  0.8890  0.8788  0.4551
11203TIP3    H155024   5.967   1.460  12.230  0.0583 -0.4958  3.0718
11203TIP3    H255025   5.833   1.519  12.270 -0.8046 -0.7948  0.7636
11204TIP3   OH255026   2.343   3.471   5.702 -0.2678  0.0261  0.0398
11204TIP3    H155027   2.348   3.440   5.793 -0.7537 -0.0905  0.0295
11204TIP3    H255028   2.433   3.496   5.681  0.0024 -0.6725  0.2990
11205TIP3   OH255029   1.104   2.102   2.481 -0.2906  0.0322  0.1613
11205TIP3    H155030   1.067   2.143   2.403  0.1563  0.7114  0.3009
11205TIP3    H255031   1.195   2.130   2.482 -0.2055 -0.2459  0.7469
11206TIP3   OH255032   3.257   1.631   4.052 -0.0960  0.1690 -0.7413
11206TIP3    H155033   3.196   1.700   4.077  0.7725  0.3829  0.9831
11206TIP3    H255034   3.223   1.552   4.094  0.4854  0.1861 -0.2069
11207TIP3   OH255035   0.103   4.789   2.120 -0.4047  0.1204 -0.2045
11207TIP3    H155036   0.061   4.850   2.180 -0.5094 -0.3292  0.1887
11207TIP3    H255037   0.186   4.830   2.097 -1.2369  1.2420 -1.3598
11208TIP3   OH255038   5.728   6.202   3.633  0.0226  0.5299 -0.0944
11208TIP3    H155039   5.659   6.161   3.580 -0.6808  1.5320  0.0234
11208TIP3    H255040   5.688   6.214   3.719  0.5675  0.5276  0.1626
11209TIP3   OH255041   3.576   2.610  15.941 -0.2563 -0.1080  0.5647
11209TIP3    H155042   3.607   2.572  15.859 -0.4535 -1.0034  0.8995
11209TIP3    H255043   3.483   2.628  15.925 -0.5253 -1.1378  0.8797
11210TIP3   OH255044   4.773   6.257   1.552  0.2266  0.2572 -0.2630
11210TIP3    H155045   4.847   6.212   1.592 -0.4393 -0.0184  0.6902
11210TIP3    H255046   4.757   6.209   1.470  0.1404 -0.6301  0.2630
11211TIP3   OH255047   1.027   0.037  13.028  0.3407 -0.1701 -0.1828
11211TIP3    H155048   1.122   0.044  13.020  0.4166  1.1440  1.3963
11211TIP3    H255049   0.996   0.127  13.022 -0.5265 -0.2583  2.0708
11212TIP3   OH255050   4.378   6.644  10.530  0.1168 -0.5509  0.5522
11212TIP3    H155051   4.371   6.558  10.489  1.0931 -0.5281  0.3052
11212TIP3    H255052   4.439   6.631  10.603  0.9352  0.0878  0.0060
11213TIP3   OH255053   6.624   2.633  15.095  0.1364 -0.2333 -0.1127
11213TIP3    H155054   6.619   2.560  15.034 -0.3026  0.9457 -1.5676
11213TIP3    H255055   6.698   2.686  15.063  1.3622 -0.7061  1.7452
11214TIP3   OH255056   0.243   6.377  14.816  0.2834 -0.2099 -0.0987
11214TIP3    H155057   0.301   6.442  14.777 -0.9650  1.8058  1.2039
11214TIP3    H255058   0.299   6.325  14.873  1.2118  0.0811 -0.7306
11215TIP3   OH255059   5.443   4.540  11.889  0.5407 -0.4380 -0.0089
11215TIP3    H155060   5.485   4.519  11.972  1.3504 -1.7921 -0.7175
11215TIP3    H255061   5.430   4.455  11.847  3.1249  0.2989 -2.6609
11216TIP3   OH255062   2.506   5.826   4.518 -0.3241  0.1575 -0.4144
11216TIP3    H155063   2.601   5.827   4.504  0.1753 -1.4754  2.1729
11216TIP3    H255064   2.490   5.898   4.580 -0.2827 -1.1875  1.2431
11217TIP3   OH255065   3.487   3.811   1.345  0.4787 -0.4663  0.2491
11217TIP3    H155066   3.525   3.895   1.318 -1.6568  1.0056  1.5495
11217TIP3    H255067   3.491   3.757   1.266 -1.0349  2.0042 -1.6932
11218TIP3   OH255068   4.356   5.884  16.184 -0.5029  0.0458  0.6556
11218TIP3    H155069   4.354   5.818  16.253  1.4065  0.0722  0.7796
11218TIP3    H255070   4.415   5.848  16.118 -2.8772 -0.3616 -1.4429
11219TIP3   OH255071   2.121   2.382   3.184 -0.1260 -0.3313  0.4282
11219TIP3    H155072   2.215   2.383   3.198 -0.1433 -1.0213  0.6402
11219TIP3    H255073   2.085   2.342   3.263 -0.5584 -0.5213  0.1403
11220TIP3   OH255074   6.113   2.980  11.906 -0.0829  0.7247  0.0212
11220TIP3    H155075   6.177   2.927  11.859 -1.0470 -0.8514  0.4082
11220TIP3    H255076   6.142   3.070  11.893  0.3932  0.2912 -2.5369
11221TIP3   OH255077   5.688   0.820  11.765 -0.6439  0.6105  0.2731
11221TIP3    H155078   5.707   0.893  11.707  1.3666 -0.7964 -0.9644
11221TIP3    H255079   5.713   0.850  11.852  0.9323  1.1360 -0.3400
11222TIP3   OH255080   1.548   5.498   0.917 -0.6091  0.2862  0.3184
11222TIP3    H155081   1.576   5.407   0.908  0.0117  0.4189  0.8531
11222TIP3    H255082   1.617   5.550   0.876 -1.4146  0.4833 -0.8423
11223TIP3   OH255083   3.465   2.225  17.111  0.2684 -0.5657 -0.2270
11223TIP3    H155084   3.530   2.280  17.154 -0.6458  1.1760 -0.9471
11223TIP3    H255085   3.381   2.256  17.145 -0.2300 -2.5950  0.4927
11224TIP3   OH255086   0.407   3.194   0.584  0.4881  0.3964 -0.0066
11224TIP3    H155087   0.453   3.242   0.653  0.8204 -0.6555  0.5138
11224TIP3    H255088   0.400   3.257   0.512  1.8066  0.9062  0.2904
11225TIP3   OH255089   3.125   3.706   2.903  0.3004 -0.3110 -0.0972
11225TIP3    H155090   3.061   3.645   2.940 -0.3470  1.0944  1.1997
11225TIP3    H255091   3.117   3.695   2.808 -4.0394  1.8099 -0.2226
11226TIP3   OH255092   6.149   4.312   0.078 -0.2891 -0.1849 -0.2891
11226TIP3    H155093   6.142   4.229   0.031  0.5823  0.3743 -1.4607
11226TIP3    H255094   6.106   4.296   0.162  0.8278 -2.1721 -0.0286
11227TIP3   OH255095   3.963   0.204  11.274  0.1658 -0.4306  0.1231
11227TIP3    H155096   3.908   0.177  11.347 -0.0963  0.3909  0.2316
11227TIP3    H255097   4.030   0.135  11.268  0.2735 -0.4271  1.2196
11228TIP3   OH255098   1.661   3.178   6.178  0.2574  0.2864 -0.6764
11228TIP3    H155099   1.585   3.176   6.235 -0.3876 -0.7305 -1.5420
11228TIP3    H255100   1.733   3.204   6.235 -0.6568  0.8993  0.2339
11229TIP3   OH255101   1.698   3.701   5.814 -0.0293  0.0944 -0.0650
11229TIP3    H155102   1.665   3.645   5.744  0.0437  1.0418 -0.8637
11229TIP3    H255103   1.675   3.654   5.894 -1.1141 -0.4517 -0.6795
11230TIP3   OH255104   2.148   5.228   5.419 -0.0207  0.1530  0.1728
11230TIP3    H155105   2.147   5.267   5.332 -1.5864  2.0205  0.9446
11230TIP3    H255106   2.237   5.242   5.451  0.0843  1.0104 -0.4748
11231TIP3   OH255107   5.330   2.254   6.016  0.5982  0.4359  0.4232
11231TIP3    H155108   5.268   2.182   6.007  1.5556 -0.4986  1.0195
11231TIP3    H255109   5.391   2.243   5.943  0.5116  0.8961  0.2776
11232TIP3   OH255110   5.613   1.170   2.160 -0.4473 -0.3659 -0.1421
11232TIP3    H155111   5.695   1.126   2.185  0.3730  0.3202 -1.5013
11232TIP3    H255112   5.595   1.139   2.072 -1.2621  0.0461 -0.1265
11233TIP3   OH255113   1.727   4.656   2.790  0.5801  0.4854 -0.0201
11233TIP3    H155114   1.749   4.638   2.699 -2.0554  0.8952 -0.8323
11233TIP3    H255115   1.792   4.720   2.819  0.9299  1.0217 -1.8950
11234TIP3   OH255116   5.832   2.991  11.301  0.3618  0.8289 -1.0607
11234TIP3    H155117   5.868   3.052  11.237  1.3880  0.4795 -0.8375
11234TIP3    H255118   5.810   2.913  11.251  2.5635 -0.0217 -0.8172
11235TIP3   OH255119   3.634   1.398   1.780 -0.2293 -0.2580 -0.2056
11235TIP3    H155120   3.707   1.390   1.841  0.2960 -1.3684 -0.9463
11235TIP3    H255121   3.672   1.380   1.694 -1.3307 -0.6521 -0.6333
11236TIP3   OH255122   5.722   5.988  10.560  0.5295  0.3436 -0.1674
11236TIP3    H155123   5.786   5.954  10.497  1.1766 -0.3492  0.8467
11236TIP3    H255124   5.680   5.911  10.597  0.7148  0.6978  0.8210
11237TIP3   OH255125   4.869   3.182   0.299  0.9400 -0.2910 -0.0869
11237TIP3    H155126   4.854   3.257   0.242  2.3223 -0.2925 -0.4877
11237TIP3    H255127   4.789   3.175   0.351  0.2580  0.6269 -0.9793
11238TIP3   OH255128   0.864   0.442   0.257  0.0593  0.3243  0.3038
11238TIP3    H155129   0.923   0.367   0.268  0.1731  0.1156 -1.4488
11238TIP3    H255130   0.870   0.490   0.340  1.6540 -0.4419  0.6644
11239TIP3   OH255131   1.529   0.840  14.913  0.3267  1.0938  0.6300
11239TIP3    H155132   1.585   0.817  14.839  0.8855  1.7235  0.8526
11239TIP3    H255133   1.584   0.826  14.990 -0.5994 -0.6695  1.0324
11240TIP3   OH255134   3.914   4.607  14.317  0.0338 -0.6503 -0.2025
11240TIP3    H155135   3.843   4.639  14.261 -0.1260  0.9359  0.8420
11240TIP3    H255136   3.928   4.677  14.380  0.9207 -1.9505  1.1082
11241TIP3   OH255137   5.874   5.414  14.803  0.1026  0.0051 -0.4047
11241TIP3    H155138   5.866   5.456  14.889 -0.8986 -0.3136 -0.3277
11241TIP3    H255139   5.784   5.393  14.778  0.4836 -1.0172 -0.9856
11242TIP3   OH255140   3.283   1.583  15.434 -0.5297  0.4559 -0.5662
11242TIP3    H155141   3.305   1.496  15.402 -0.9212  0.8331 -1.9009
11242TIP3    H255142   3.195   1.601  15.399 -1.8783  0.1103  2.3544
11243TIP3   OH255143   5.702   4.576  17.197  0.3394  0.0104 -0.1494
11243TIP3    H155144   5.631   4.628  17.234 -0.3097 -2.3275  2.1552
11243TIP3    H255145   5.658   4.510  17.144  0.9162 -0.3536 -0.1764
11244TIP3   OH255146   1.465   5.533  12.607  0.5769 -0.1342 -0.1667
11244TIP3    H155147   1.444   5.524  12.700 -1.5246  0.0581 -0.5547
11244TIP3    H255148   1.439   5.449  12.569  0.9991 -0.0513 -0.6381
11245TIP3   OH255149   6.438   2.794  16.589 -0.0698  0.1856  0.1966
11245TIP3    H155150   6.353   2.838  16.588 -0.9390 -1.4254  0.4405
11245TIP3    H255151   6.467   2.799  16.680  1.0454  2.4009 -0.2149
11246TIP3   OH255152   1.408   6.434  13.159  0.0340 -0.2359 -0.3946
11246TIP3    H155153   1.460   6.429  13.079 -0.1718 -1.5178 -0.4622
11246TIP3    H255154   1.385   6.527  13.167  2.1504  0.3514 -0.4515
11247TIP3   OH255155   0.473   0.630   2.692  0.0616  0.5030  0.0753
11247TIP3    H155156   0.463   0.535   2.691 -2.1962  0.6767 -0.4974
11247TIP3    H255157   0.426   0.660   2.614  2.2479  2.0101 -0.7541
11248TIP3   OH255158   2.870   0.998   1.976 -0.7923  0.0503 -0.1331
11248TIP3    H155159   2.831   0.936   2.038  1.3853 -2.9517 -1.5368
11248TIP3    H255160   2.823   0.982   1.894 -0.9422  1.0914 -0.2588
11249TIP3   OH255161   6.415   4.570  12.741 -0.2931  0.4097 -0.4014
11249TIP3    H155162   6.381   4.577  12.830 -0.6390  1.7348 -0.6120
11249TIP3    H255163   6.506   4.600  12.748 -0.2433  0.2668 -0.4428
11250TIP3   OH255164   6.576   0.288  13.651 -0.2648 -0.0459  0.0628
11250TIP3    H155165   6.542   0.333  13.573  0.4599 -1.1244 -0.9043
11250TIP3    H255166   6.607   0.203  13.619  1.0624 -0.0874  1.3320
11251TIP3   OH255167   0.608   4.090  10.938  0.5558  0.0105  0.2496
11251TIP3    H155168   0.530   4.145  10.943 -0.2503 -0.6077 -2.9257
11251TIP3    H255169   0.580   4.013  10.888  2.1792 -2.3334  2.6742
11252TIP3   OH255170   2.548   4.430   1.284 -0.1893  0.3704  0.1814
11252TIP3    H155171   2.610   4.360   1.302  0.5725  0.9290 -0.2043
11252TIP3    H255172   2.466   4.401   1.324 -0.5433 -1.7731 -1.9156
11253TIP3   OH255173   5.729   0.966  13.703  0.1235 -0.2761 -0.4356
11253TIP3    H155174   5.798   0.999  13.646  0.4955 -0.0201  0.1547
11253TIP3    H255175   5.771   0.897  13.754  0.5990  1.3372  1.5086
11254TIP3   OH255176   2.146   4.090   6.194 -0.0648 -0.0181 -0.3796
11254TIP3    H155177   2.241   4.102   6.196 -0.2307  1.4978  0.8450
11254TIP3    H255178   2.129   4.020   6.257  0.1742  0.4418  0.2058
11255TIP3   OH255179   4.890   4.475   6.533 -0.1433  0.1625  0.3895
11255TIP3    H155180   4.953   4.438   6.595  0.0674  0.3069  0.2645
11255TIP3    H255181   4.905   4.570   6.539 -1.7946  0.3730  1.9211
11256TIP3   OH255182   6.751   3.305  16.569  0.5786 -0.0918  0.0768
11256TIP3    H155183   6.693   3.318  16.644  0.0747 -0.8871 -0.1640
11256TIP3    H255184   6.763   3.393  16.533 -2.1359 -0.1038 -1.0955
11257TIP3   OH255185   1.680   1.203  16.612  0.2874  0.7659  0.1105
11257TIP3    H155186   1.646   1.114  16.620  0.3871  0.7712  0.5898
11257TIP3    H255187   1.602   1.259  16.620 -0.0508  0.6872 -1.9184
11258TIP3   OH255188   4.909   0.396  10.447 -0.0824 -0.0947  0.3107
11258TIP3    H155189   4.984   0.456  10.455 -0.8692  0.7866  1.3624
11258TIP3    H255190   4.841   0.448  10.405 -0.1653 -0.8560 -0.5188
11259TIP3   OH255191   4.381   1.796  11.506 -0.0751  0.0700 -0.2475
11259TIP3    H155192   4.462   1.848  11.505 -1.2820  2.0339 -0.0504
11259TIP3    H255193   4.368   1.771  11.415 -0.2516  1.3968 -0.6018
11260TIP3   OH255194   4.687   0.945  13.379 -0.7613  0.6105 -0.3592
11260TIP3    H155195   4.624   0.996  13.432 -0.0115  0.8518  0.3200
11260TIP3    H255196   4.675   0.855  13.409 -2.0715  0.3449 -1.5433
11261TIP3   OH255197   4.939   2.184   6.011  0.1004  0.1375  0.5534
11261TIP3    H155198   4.952   2.195   6.106 -0.6856 -1.7302  0.9407
11261TIP3    H255199   5.012   2.129   5.984  0.0868  0.3158  0.1560
11262TIP3   OH255200   0.328   2.669   5.701 -1.0130  0.0240  0.5209
11262TIP3    H155201   0.304   2.750   5.658  0.1529 -0.1967 -0.6082
11262TIP3    H255202   0.270   2.663   5.777 -0.9625  2.0082  0.7539
11263TIP3   OH255203   4.099   6.107   0.373  0.0778  0.0289 -0.6764
11263TIP3    H155204   4.162   6.042   0.342  1.0200  0.4468  0.3206
11263TIP3    H255205   4.142   6.149   0.448 -1.3119  0.4324 -0.0674
11264TIP3   OH255206   0.121   2.729  15.916 -0.1147  0.0744  0.6594
11264TIP3    H155207   0.182   2.790  15.957  0.7072  0.9068 -1.6468
11264TIP3    H255208   0.142   2.644  15.954  3.2657  0.1385 -0.7603
11265TIP3   OH255209   6.201   0.587  14.339 -0.1154  0.2628 -0.4228
11265TIP3    H155210   6.264   0.630  14.281 -0.0028  0.7279  0.0341
11265TIP3    H255211   6.133   0.553  14.280  0.7819 -0.6350 -0.9579
11266TIP3   OH255212   3.667   5.025   3.661 -0.3590 -0.4384  0.2627
11266TIP3    H155213   3.642   4.989   3.576 -1.1814  1.4416 -0.3547
11266TIP3    H255214   3.722   5.100   3.640 -2.0533  1.1799  1.2379
11267TIP3   OH255215   2.512   6.061  10.874 -0.3361 -0.4460 -0.2082
11267TIP3    H155216   2.554   6.146  10.858  1.5631 -1.2490  0.2187
11267TIP3    H255217   2.511   6.052  10.969  0.0441 -1.1399 -0.2619
11268TIP3   OH255218   2.122   4.035   4.229  0.6833  0.1125 -0.2909
11268TIP3    H155219   2.145   4.126   4.207 -0.8682  0.3432 -1.0818
11268TIP3    H255220   2.079   4.041   4.314 -2.1101  0.5854 -1.6410
11269TIP3   OH255221   5.098   0.630  14.469 -0.0595  0.4425  0.5776
11269TIP3    H155222   5.103   0.706  14.528  0.8187  0.0480  1.0266
11269TIP3    H255223   5.132   0.662  14.385  1.3335  0.2946  1.0506
11270TIP3   OH255224   1.682   1.443  14.694 -0.1956  0.4045  0.0303
11270TIP3    H155225   1.729   1.420  14.773  0.4538  1.9976  0.1528
11270TIP3    H255226   1.740   1.504  14.648 -1.4261  1.1311 -0.6382
11271TIP3   OH255227   2.736   1.615  15.981 -0.2210  0.1069  0.4686
11271TIP3    H155228   2.652   1.574  15.963 -0.3883  0.8866 -0.6064
11271TIP3    H255229   2.731   1.701  15.938  1.1694  0.0942  0.2315
11272TIP3   OH255230   3.860   5.562   5.945 -0.6213 -0.2202 -0.1463
11272TIP3    H155231   3.831   5.573   5.854 -0.9211  0.4817  0.0263
11272TIP3    H255232   3.898   5.647   5.968  0.7971 -0.8407 -0.0796
11273TIP3   OH255233   6.408   5.553   3.049  0.3503  0.1849 -0.0185
11273TIP3    H155234   6.321   5.520   3.025  0.2253  0.9572 -0.6425
11273TIP3    H255235   6.457   5.553   2.967  0.8334  0.0909  0.2680
11274TIP3   OH255236   1.286   0.775   0.073  0.3363 -0.3302 -0.1391
11274TIP3    H155237   1.294   0.684   0.043 -2.1299 -0.3352 -1.0194
11274TIP3    H255238   1.293   0.827  -0.007 -1.0062  0.0234 -0.0494
11275TIP3   OH255239   5.397   2.459   2.116  0.2736  0.7040 -0.1178
11275TIP3    H155240   5.312   2.421   2.096 -0.1426  1.2298  0.5919
11275TIP3    H255241   5.450   2.385   2.148 -0.0538  0.4581 -0.1408
11276TIP3   OH255242   1.249   4.502   4.413 -0.3368  0.4695 -0.4961
11276TIP3    H155243   1.331   4.527   4.455  0.3564  1.1219 -2.1519
11276TIP3    H255244   1.261   4.411   4.386  0.2254  0.8266 -1.5250
11277TIP3   OH255245   4.776   0.913  12.596 -0.3890 -0.4644 -0.2547
11277TIP3    H155246   4.815   0.826  12.596 -0.5924 -0.6007 -1.9484
11277TIP3    H255247   4.784   0.942  12.505  1.0795  1.9247  0.5191
11278TIP3   OH255248   2.625   3.238   0.616 -0.2738  0.1364 -0.1853
11278TIP3    H155249   2.689   3.280   0.557 -0.8339  1.6978  0.2798
11278TIP3    H255250   2.561   3.199   0.557 -0.0262  0.4012 -0.6414
11279TIP3   OH255251   3.902   1.664   3.431 -0.3593 -0.0040 -0.7821
11279TIP3    H155252   3.892   1.722   3.356 -0.3827 -2.2932 -2.6728
11279TIP3    H255253   3.950   1.588   3.397  1.0432 -0.4787  1.9126
11280TIP3   OH255254   0.667   1.718   2.825 -0.3680  0.2202  0.1818
11280TIP3    H155255   0.664   1.683   2.736 -0.4018  1.0855 -0.1643
11280TIP3    H255256   0.754   1.695   2.857  0.2321  1.2568 -0.6464
11281TIP3   OH255257   3.493   1.100   1.283  0.0022 -0.8123 -0.2082
11281TIP3    H155258   3.535   1.042   1.220 -0.1717 -0.7978 -0.3385
11281TIP3    H255259   3.522   1.069   1.369  0.2424 -0.8286 -0.2966
11282TIP3   OH255260   0.394   1.721  12.292  0.1433  0.2041 -0.6292
11282TIP3    H155261   0.341   1.800  12.280 -2.9538 -1.6001 -0.0074
11282TIP3    H255262   0.395   1.679  12.205 -0.6023 -0.3903 -0.3641
11283TIP3   OH255263   2.089   1.820   5.058  0.1373 -0.1605 -0.0069
11283TIP3    H155264   2.007   1.825   5.008  0.8559 -0.5035 -1.2506
11283TIP3    H255265   2.106   1.726   5.066  0.5183 -0.0863  0.0630
11284TIP3   OH255266   3.999   4.945  15.965 -1.2244 -0.4427  0.8713
11284TIP3    H155267   4.029   4.884  16.032 -0.7275 -2.0837 -0.7480
11284TIP3    H255268   4.061   4.933  15.893 -2.7781 -0.0888 -0.5776
11285TIP3   OH255269   3.907   3.473  12.015 -0.0945  0.3421 -0.8928
11285TIP3    H155270   3.920   3.485  12.109 -0.0965  0.5092 -0.9126
11285TIP3    H255271   3.948   3.550  11.976 -1.9291  1.3599 -0.9039
11286TIP3   OH255272   5.273   5.927   5.128  0.8178  0.1071  0.2295
11286TIP3    H155273   5.307   5.850   5.174  1.1450 -1.1907 -2.0167
11286TIP3    H255274   5.274   5.901   5.035 -0.2469  2.3903 -0.4794
11287TIP3   OH255275   5.631   6.513  15.551 -0.2286 -0.0950 -0.2863
11287TIP3    H155276   5.686   6.481  15.623  0.1258 -0.6072 -0.7779
11287TIP3    H255277   5.548   6.465  15.561  0.0033 -0.5443 -0.5250
11288TIP3   OH255278   3.680   1.777  15.749 -0.6948  0.1420 -0.1770
11288TIP3    H155279   3.591   1.810  15.764 -0.2432  0.4186  2.3355
11288TIP3    H255280   3.683   1.695  15.797 -0.4132 -1.4069 -2.6662
11289TIP3   OH255281   5.138   0.302  12.505  0.2558  0.1830  0.9473
11289TIP3    H155282   5.220   0.278  12.547  0.9895 -0.3254 -0.7046
11289TIP3    H255283   5.071   0.282  12.570  1.4465  0.8987  2.4318
11290TIP3   OH255284   0.348   0.435   2.508  0.3739 -0.2211 -0.1504
11290TIP3    H155285   0.318   0.364   2.451  0.3105 -1.6777  1.5769
11290TIP3    H255286   0.271   0.454   2.563 -0.1345  2.3568 -1.6010
11291TIP3   OH255287   5.006   2.746  15.067  0.0170  0.3086 -0.4270
11291TIP3    H155288   5.096   2.760  15.037 -0.0204  1.3229 -0.1015
11291TIP3    H255289   4.992   2.815  15.132 -0.4032 -0.9080  0.8203
11292TIP3   OH255290   3.624   5.734  13.100  0.2425  0.6775 -0.5279
11292TIP3    H155291   3.665   5.728  13.186  0.7086  0.7275 -0.7444
11292TIP3    H255292   3.672   5.804  13.056 -1.0455  1.7889 -0.2531
11293TIP3   OH255293   0.779   0.658   0.131 -0.6279  0.0675 -0.5453
11293TIP3    H155294   0.872   0.678   0.121 -0.6574  2.2282  2.3251
11293TIP3    H255295   0.777   0.573   0.175 -0.0202  0.0632 -0.5199
11294TIP3   OH255296   3.890   0.528   2.470  0.3167 -0.5486 -0.5503
11294TIP3    H155297   3.946   0.504   2.396 -1.1413 -4.1960 -0.7238
11294TIP3    H255298   3.918   0.471   2.541 -2.1601 -1.5099 -0.2329
11295TIP3   OH255299   5.873   4.406   4.632  0.4219  0.2092  0.7056
11295TIP3    H155300   5.900   4.377   4.545  2.3205 -2.4864  2.0473
11295TIP3    H255301   5.812   4.478   4.616 -1.3226 -1.7968 -2.9421
11296TIP3   OH255302   3.536   2.715  11.251 -0.4290  0.1067  0.2316
11296TIP3    H155303   3.474   2.703  11.179  1.8115 -2.0231 -1.4971
11296TIP3    H255304   3.613   2.753  11.211 -0.5588  2.9407  2.3771
11297TIP3   OH255305   0.236   1.811  13.541  0.6229 -0.1101  0.0999
11297TIP3    H155306   0.283   1.813  13.458 -1.2976  2.0877 -1.0510
11297TIP3    H255307   0.285   1.871  13.597  1.2949 -0.7456  0.2085
11298TIP3   OH255308   6.774   0.502   3.017 -0.1570 -0.6047  0.4268
11298TIP3    H155309   6.764   0.469   2.928  1.4371 -2.6415  0.9149
11298TIP3    H255310   6.857   0.550   3.016 -1.6596  2.2184  0.1371
11299TIP3   OH255311   2.547   5.118   4.064 -0.2729 -0.0986 -0.2670
11299TIP3    H155312   2.463   5.078   4.085 -0.7258  0.9295 -0.1002
11299TIP3    H255313   2.581   5.065   3.992 -0.8549 -0.7780 -0.0563
11300TIP3   OH255314   3.393   6.681   1.729 -0.1896 -0.0286 -0.9825
11300TIP3    H155315   3.305   6.689   1.691  0.5831  1.5229 -2.6243
11300TIP3    H255316   3.450   6.668   1.653  0.8353 -3.1851  0.1978
11301TIP3   OH255317   3.199   4.860   0.717  0.1026  0.0027 -0.0054
11301TIP3    H155318   3.198   4.784   0.659 -1.2566 -0.9481  1.1800
11301TIP3    H255319   3.285   4.900   0.703 -0.0638 -0.3553 -2.3989
11302TIP3   OH255320   2.849   5.667  17.014 -0.1777 -0.4072 -0.2220
11302TIP3    H155321   2.822   5.650  16.924  0.4664 -0.7556 -0.3557
11302TIP3    H255322   2.944   5.657  17.012 -0.1089  0.1181  0.3808
11303TIP3   OH255323   1.656   2.345   1.946 -0.5299 -0.5203 -0.4915
11303TIP3    H155324   1.620   2.340   1.858  1.5159 -2.0072 -1.3242
11303TIP3    H255325   1.658   2.439   1.965 -2.1333 -0.2439 -1.4991
11304TIP3   OH255326   3.948   2.541   6.472  0.1309  0.1890 -0.5529
11304TIP3    H155327   3.901   2.475   6.422 -0.3040  0.1985 -0.1635
11304TIP3    H255328   3.895   2.620   6.464 -0.6833 -0.1540  1.0421
11305TIP3   OH255329   6.614   5.650  13.304  0.4041 -0.0856 -0.8694
11305TIP3    H155330   6.576   5.671  13.219 -1.0578 -3.0116 -1.0807
11305TIP3    H255331   6.539   5.631  13.360  1.4094 -0.2093  0.4826
11306TIP3   OH255332   0.679   6.594   1.338  0.2696  0.2125  0.0776
11306TIP3    H155333   0.732   6.660   1.382  1.3958 -0.3209 -0.4513
11306TIP3    H255334   0.740   6.525   1.315 -0.6828 -0.4845 -0.4355
11307TIP3   OH255335   3.401   3.460   0.638  0.2441  0.0007  0.3589
11307TIP3    H155336   3.468   3.458   0.570  0.1626 -0.1291  0.2801
11307TIP3    H255337   3.418   3.540   0.688 -0.0518  0.3999 -0.1701
11308TIP3   OH255338   0.310   2.416  14.297 -0.4490  0.6820 -0.2035
11308TIP3    H155339   0.334   2.330  14.330  1.0364  1.3770  0.6496
11308TIP3    H255340   0.236   2.443  14.351 -2.1926 -0.8008 -1.7351
11309TIP3   OH255341   0.577   4.551   6.237  0.2343 -0.1052  0.3517
11309TIP3    H155342   0.533   4.467   6.251  2.0743 -1.3130 -0.6928
11309TIP3    H255343   0.636   4.559   6.311  0.0155  0.3214  0.4823
11310TIP3   OH255344   1.594   3.302  16.571 -0.2939 -0.0093 -0.1296
11310TIP3    H155345   1.673   3.300  16.626  0.1451  0.8386 -0.7162
11310TIP3    H255346   1.571   3.394  16.565 -0.3495 -0.0942 -1.3628
11311TIP3   OH255347   3.719   6.225  11.502  0.0963  0.2770  0.0219
11311TIP3    H155348   3.711   6.297  11.440  0.8016 -0.1048 -0.5200
11311TIP3    H255349   3.682   6.150  11.457  0.5591  0.0124  0.0766
11312TIP3   OH255350   1.448   2.156   0.082  0.1163  0.3866  0.2897
11312TIP3    H155351   1.474   2.244   0.058 -0.9778  0.7278  0.2646
11312TIP3    H255352   1.512   2.098   0.041 -0.3917  1.0598 -1.5362
11313TIP3   OH255353   3.097   3.152   6.129 -0.0744  0.3125 -0.3293
11313TIP3    H155354   3.025   3.116   6.181 -0.2739 -1.6165 -1.8621
11313TIP3    H255355   3.068   3.241   6.108 -0.4881  0.7594  1.8268
11314TIP3   OH255356   1.755   1.176  16.346 -0.1483 -0.2876  0.3134
11314TIP3    H155357   1.754   1.197  16.439  1.5696 -0.0020  0.2978
11314TIP3    H255358   1.670   1.134  16.330 -1.4939  1.7813  1.4922
11315TIP3   OH255359   5.021   5.001   4.536  0.4039 -0.5818  0.1726
11315TIP3    H155360   5.025   5.096   4.526  1.0701 -0.6103  0.0615
11315TIP3    H255361   4.956   4.973   4.472  0.2099 -0.1974  0.2007
11316TIP3   OH255362   5.997   0.815   4.677 -0.6132 -0.6047  0.1380
11316TIP3    H155363   5.983   0.721   4.690  0.5309 -0.5764  1.7663
11316TIP3    H255364   5.913   0.846   4.643 -1.5648 -1.9184  1.1599
11317TIP3   OH255365   5.686   0.417  16.893 -0.1992  0.3043 -0.4594
11317TIP3    H155366   5.716   0.378  16.811  1.6170  1.5133 -0.4247
11317TIP3    H255367   5.623   0.483  16.866  1.3875  1.6408 -1.0481
11318TIP3   OH255368   5.946   4.972   5.731  0.4305 -0.1384 -0.9093
11318TIP3    H155369   5.929   4.895   5.784 -0.5926  0.2763 -0.6048
11318TIP3    H255370   5.993   4.940   5.654 -1.9521 -1.4332 -1.9215
11319TIP3   OH255371   1.926   4.085  13.081 -0.1152  0.1612  0.4414
11319TIP3    H155372   2.018   4.073  13.056 -0.2111  0.7225 -0.1806
11319TIP3    H255373   1.926   4.165  13.133 -0.6238  1.6457 -1.7133
11320TIP3   OH255374   0.618   3.912  17.308  0.0573  0.2047 -0.1934
11320TIP3    H155375   0.705   3.952  17.314  0.5485 -0.8207 -0.2601
11320TIP3    H255376   0.561   3.983  17.278  0.9607  0.7650 -0.6419
11321TIP3   OH255377   1.966   0.457  17.306 -0.6005 -0.1993 -0.3363
11321TIP3    H155378   2.000   0.517  17.372 -1.4853 -0.0431 -0.0089
11321TIP3    H255379   2.000   0.371  17.332  0.9129  0.1775 -0.9746
11322TIP3   OH255380   4.839   2.553   1.576  0.1229  0.2695 -0.5265
11322TIP3    H155381   4.853   2.591   1.663  0.1255 -1.1717  0.1313
11322TIP3    H255382   4.893   2.473   1.576  1.6581  1.2147 -2.5593
11323TIP3   OH255383   2.770   4.027   2.152  0.1263  0.2991 -0.2270
11323TIP3    H155384   2.751   3.957   2.215 -1.8139  2.3945  1.7296
11323TIP3    H255385   2.685   4.045   2.110  0.4247  1.8696 -0.2154
11324TIP3   OH255386   2.012   0.024   5.273  0.2116 -0.2794  0.1889
11324TIP3    H155387   2.081   0.086   5.295  0.1571 -0.7983  1.9483
11324TIP3    H255388   1.941   0.043   5.335 -0.6496 -0.7150 -0.6308
11325TIP3   OH255389   0.825   0.881   5.942  0.2512  0.1376 -0.0419
11325TIP3    H155390   0.746   0.898   5.992 -1.8179 -2.4180 -2.1338
11325TIP3    H255391   0.828   0.951   5.877  0.0466  0.5424  0.3778
11326TIP3   OH255392   4.190   6.306   6.004  0.5435 -0.0800  0.5600
11326TIP3    H155393   4.173   6.315   6.097  3.9548  2.5088  1.1392
11326TIP3    H255394   4.126   6.363   5.962 -0.8132 -1.0289  1.2626
11327TIP3   OH255395   5.866   0.958  16.254  0.4447  0.4416 -0.3811
11327TIP3    H155396   5.858   1.050  16.281 -0.4775  0.3972 -0.4645
11327TIP3    H255397   5.898   0.962  16.164 -1.6822  0.7791 -1.1789
11328TIP3   OH255398   3.124   4.770  10.680  0.1270  0.1577 -0.0414
11328TIP3    H155399   3.084   4.850  10.646  1.2604  0.3065 -1.1313
11328TIP3    H255400   3.188   4.801  10.745  2.1088  0.3743 -1.9858
11329TIP3   OH255401   5.104   6.694  15.710  0.2890  0.2403  0.0424
11329TIP3    H155402   5.046   6.629  15.671  0.6545  0.4662 -0.8929
11329TIP3    H255403   5.135   6.746  15.637  0.3753  1.1753  0.7252
11330TIP3   OH255404   6.682   4.613   5.888  0.0839 -0.1169 -0.1813
11330TIP3    H155405   6.713   4.641   5.802 -1.2743  1.5714 -0.1868
11330TIP3    H255406   6.594   4.651   5.895 -0.8173 -2.2472  0.9894
11331TIP3   OH255407   0.840   6.194   4.910  0.0893 -0.2773 -0.0767
11331TIP3    H155408   0.887   6.111   4.898 -1.1106 -0.7593 -1.8366
11331TIP3    H255409   0.755   6.168   4.947 -1.1349 -0.1376 -2.6172
11332TIP3   OH255410   1.176   2.533  16.220  0.8162 -0.0581  0.2671
11332TIP3    H155411   1.123   2.613  16.218  1.4764  0.3888 -1.9834
11332TIP3    H255412   1.239   2.548  16.291  0.1333  0.8517  0.7103
11333TIP3   OH255413   6.530   4.681   0.912  0.1919 -0.0964  0.0454
11333TIP3    H155414   6.453   4.728   0.881 -1.1144 -1.4682  1.0677
11333TIP3    H255415   6.601   4.710   0.854 -0.9879  1.4781 -0.6895
11334TIP3   OH255416   4.612   2.881  14.369 -0.4958  0.0350  0.1843
11334TIP3    H155417   4.537   2.892  14.427  0.8968  0.8189  1.9512
11334TIP3    H255418   4.583   2.819  14.303 -2.9983  1.0806  0.2108
11335TIP3   OH255419   5.182   4.355  11.687  0.0036 -0.0288 -0.3406
11335TIP3    H155420   5.190   4.424  11.622  0.2558  0.7522  0.4908
11335TIP3    H255421   5.270   4.319  11.696 -0.1546 -0.5608 -0.8723
11336TIP3   OH255422   2.461   2.469   0.678  0.4245 -0.0720  0.2144
11336TIP3    H155423   2.549   2.470   0.716  1.4948 -1.8536 -1.9885
11336TIP3    H255424   2.461   2.394   0.619 -2.1477  0.6981 -0.9041
11337TIP3   OH255425   1.671   2.758  13.598  0.2860 -0.0175 -0.1314
11337TIP3    H155426   1.758   2.727  13.623 -0.1855 -1.3097 -0.0447
11337TIP3    H255427   1.611   2.698  13.642 -0.6440  0.5095 -0.6676
11338TIP3   OH255428   4.644   0.633   1.513  0.1337 -0.0027 -0.2227
11338TIP3    H155429   4.648   0.550   1.465  0.4434  0.0333 -0.2631
11338TIP3    H255430   4.719   0.629   1.573 -1.0559 -0.6886  1.3072
11339TIP3   OH255431   0.456   6.404  16.842 -0.2623  0.0992  0.0023
11339TIP3    H155432   0.477   6.450  16.924 -0.1082  0.2949 -0.1452
11339TIP3    H255433   0.539   6.398  16.796 -0.0488 -1.3698  0.5291
11340TIP3   OH255434   1.046   2.553  16.552 -0.0598  0.0458  0.2187
11340TIP3    H155435   1.009   2.480  16.503  2.3748 -1.8739  1.0205
11340TIP3    H255436   0.971   2.592  16.597 -1.4722 -1.8811 -0.3290
11341TIP3   OH255437   5.710   3.458   6.002  0.3380  0.5858 -0.1301
11341TIP3    H155438   5.624   3.500   6.001  0.6571  1.2554 -0.6612
11341TIP3    H255439   5.769   3.526   6.036  0.8565  0.5585 -0.9542
11342TIP3   OH255440   1.587   3.823   0.283 -0.1701 -0.1837 -0.4609
11342TIP3    H155441   1.674   3.784   0.275  0.0375 -0.4316  2.0577
11342TIP3    H255442   1.598   3.912   0.250  1.6316  0.4454  1.5769
11343TIP3   OH255443   4.573   0.112   1.378  0.5804 -0.0325  0.5581
11343TIP3    H155444   4.628   0.037   1.402  1.2834  0.0926 -0.5750
11343TIP3    H255445   4.529   0.084   1.298 -0.0623  0.3432  0.7694
11344TIP3   OH255446   1.752   2.910  15.460 -0.0979 -0.5760 -0.0054
11344TIP3    H155447   1.681   2.936  15.518  1.1286  1.6659  0.6148
11344TIP3    H255448   1.728   2.946  15.375  0.2277  0.1106  0.1857
11345TIP3   OH255449   1.174   4.508  16.431 -0.6081 -0.2497 -0.2002
11345TIP3    H155450   1.233   4.542  16.364 -1.3803 -1.4901 -1.5852
11345TIP3    H255451   1.106   4.575  16.439  1.2386  1.4940  1.8886
11346TIP3   OH255452   2.485   3.337   4.470  0.6376 -0.4365 -0.5415
11346TIP3    H155453   2.581   3.335   4.469  0.6903 -3.0558  1.2226
11346TIP3    H255454   2.459   3.245   4.472 -1.9810  0.1956 -1.5037
11347TIP3   OH255455   2.304   6.483  12.505 -0.0325  0.0811  0.6430
11347TIP3    H155456   2.285   6.417  12.439  1.4470  0.2962 -0.0507
11347TIP3    H255457   2.357   6.548  12.459  0.4986  0.5611  1.8818
11348TIP3   OH255458   5.430   2.978   3.903  0.0879  0.3210  0.9272
11348TIP3    H155459   5.356   2.937   3.857  0.1497  0.6303  0.5467
11348TIP3    H255460   5.470   3.034   3.837  0.3477  0.5568  1.2860
11349TIP3   OH255461   2.269   3.586  16.960 -0.0097 -0.8510  0.1066
11349TIP3    H155462   2.344   3.634  16.927  0.3430  0.1768  2.2411
11349TIP3    H255463   2.196   3.648  16.952 -0.2399 -1.1563 -0.1767
11350TIP3   OH255464   5.930   0.809   4.299  0.2708  0.0879 -0.4258
11350TIP3    H155465   6.018   0.772   4.295 -0.2947 -2.2740  3.5966
11350TIP3    H255466   5.944   0.897   4.335  1.0250 -0.3733  0.4699
11351TIP3   OH255467   5.839   4.260   3.272  0.7466  0.5270  0.0727
11351TIP3    H155468   5.888   4.179   3.258 -0.1575 -0.3706  1.7551
11351TIP3    H255469   5.747   4.232   3.276  0.3404  1.7685 -0.1589
11352TIP3   OH255470   4.748   6.358  13.726  0.3548 -0.0893 -0.3481
11352TIP3    H155471   4.796   6.388  13.803 -0.6117 -0.2735  0.3420
11352TIP3    H255472   4.815   6.347  13.658  1.5276 -1.7390  0.9914
11353TIP3   OH255473   6.407   0.017  13.755 -0.1402 -0.0126  0.3544
11353TIP3    H155474   6.347  -0.057  13.743 -1.4772  1.0489  0.2781
11353TIP3    H255475   6.481  -0.003  13.698 -0.5044 -1.2576  0.2839
11354TIP3   OH255476   4.532   5.595  11.048 -0.4466  0.1966 -0.1187
11354TIP3    H155477   4.553   5.502  11.048 -0.9727  0.0686 -0.9563
11354TIP3    H255478   4.595   5.634  10.987 -0.3015  0.3795  0.1422
11355TIP3   OH255479   3.313   6.442  12.117  0.0165  0.1824 -0.0836
11355TIP3    H155480   3.398   6.487  12.122  0.3533  0.0238 -2.9386
11355TIP3    H255481   3.249   6.513  12.113 -0.0789  0.3039  2.1132
11356TIP3   OH255482   3.000   6.448  11.634  0.3338 -0.0930  0.2424
11356TIP3    H155483   3.003   6.472  11.727  1.0940 -0.1907  0.2538
11356TIP3    H255484   2.909   6.421  11.619  0.5145 -1.4553  1.3201
11357TIP3   OH255485   1.829   2.753   5.971  0.5302 -0.7247 -0.0960
11357TIP3    H155486   1.919   2.723   5.962  1.1571  0.8854  0.4326
11357TIP3    H255487   1.796   2.760   5.881  1.3692 -0.0899 -0.3618
11358TIP3   OH255488   5.121   6.358   6.063 -0.1634  0.1738  0.5763
11358TIP3    H155489   5.132   6.433   6.121  0.4381  0.9051 -0.4552
11358TIP3    H255490   5.209   6.335   6.034 -0.4481 -0.1667 -0.0583
11359TIP3   OH255491   2.786   0.889  13.489  0.0871  0.8796 -0.1713
11359TIP3    H155492   2.820   0.942  13.561  2.6903  0.8994 -1.2633
11359TIP3    H255493   2.839   0.810  13.491 -2.3526 -0.8340  0.1750
11360TIP3   OH255494   4.521   2.483  15.226 -0.0451 -0.0989  0.3539
11360TIP3    H155495   4.455   2.529  15.278  0.7320  0.5086  0.8229
11360TIP3    H255496   4.513   2.520  15.138  0.1793  0.5234  0.5893
11361TIP3   OH255497   3.518   2.615  14.904 -0.5048  0.1876  0.1753
11361TIP3    H155498   3.581   2.629  14.834 -0.2707  0.3805  0.4198
11361TIP3    H255499   3.433   2.607  14.860 -0.6947  2.5535 -0.0042
11362TIP3   OH255500   2.168   1.966  14.473 -0.3284  0.5515 -0.0138
11362TIP3    H155501   2.166   1.940  14.380 -1.8872  1.8033 -0.3691
11362TIP3    H255502   2.251   1.931  14.505 -0.0895 -0.5553 -1.6877
11363TIP3   OH255503   3.020   1.117  13.085 -0.2144 -0.2851  0.1263
11363TIP3    H155504   2.997   1.071  13.004  0.4256 -0.7706  0.2198
11363TIP3    H255505   2.983   1.205  13.074 -0.1360 -0.3510 -0.6895
11364TIP3   OH255506   2.909   1.960  16.283 -0.0524  0.1241 -0.2698
11364TIP3    H155507   2.871   1.873  16.299  0.7182 -0.1482  0.1365
11364TIP3    H255508   2.945   1.954  16.195 -0.3522  0.1641 -0.3958
11365TIP3   OH255509   5.208   4.621   0.686 -0.1087  0.4797  0.1172
11365TIP3    H155510   5.274   4.601   0.753 -0.6891 -0.4103  0.4502
11365TIP3    H255511   5.258   4.659   0.614  0.6414  0.6828  0.7279
11366TIP3   OH255512   2.078   0.751  10.433  0.0067 -0.1676  0.3335
11366TIP3    H155513   2.061   0.828  10.379  0.9045  0.1125  0.4341
11366TIP3    H255514   2.018   0.759  10.507  0.7818  0.9772  0.8629
11367TIP3   OH255515   5.700   6.066  13.612  0.3226 -0.3385  0.0300
11367TIP3    H155516   5.663   6.153  13.631 -0.7871 -0.7507 -0.1747
11367TIP3    H255517   5.792   6.073  13.639  0.5629  1.2488 -1.0434
11368TIP3   OH255518   4.289   0.749  12.251 -0.2961  0.1163  0.8048
11368TIP3    H155519   4.275   0.663  12.211 -0.6755  0.0380  1.1028
11368TIP3    H255520   4.362   0.735  12.312 -1.4866 -0.4399  2.1675
11369TIP3   OH255521   5.192   5.252  14.041  0.5060  0.0966 -0.4104
11369TIP3    H155522   5.250   5.185  14.006  0.2351  0.6200 -1.9668
11369TIP3    H255523   5.107   5.209  14.051  0.0605  0.3908 -2.3912
11370TIP3   OH255524   0.206   4.699   2.444  0.1093 -0.4484 -0.5720
11370TIP3    H155525   0.210   4.632   2.512 -0.3920 -0.1131 -0.2018
11370TIP3    H255526   0.165   4.774   2.486  0.1984 -0.0808 -1.1223
11371TIP3   OH255527   4.584   2.568  14.219 -0.3452  0.3689 -0.1354
11371TIP3    H155528   4.564   2.639  14.158 -0.0640 -0.0011 -0.6698
11371TIP3    H255529   4.668   2.533  14.189 -0.8412 -0.6860 -0.3675
11372TIP3   OH255530   3.036   1.177   1.132 -0.2597 -0.3088 -0.2925
11372TIP3    H155531   2.968   1.244   1.140  0.4080  0.4380 -0.7464
11372TIP3    H255532   3.102   1.201   1.198  0.6750  0.3338 -1.4296
11373TIP3   OH255533   5.691   1.536   5.701  0.3201  0.5491 -0.7036
11373TIP3    H155534   5.710   1.573   5.614  0.1365  0.0698 -0.9511
11373TIP3    H255535   5.637   1.459   5.683  1.1254 -0.1440 -0.2313
11374TIP3   OH255536   5.561   6.573   6.327  0.6003  0.8690  0.3604
11374TIP3    H155537   5.557   6.656   6.375 -1.9476  2.0611 -1.6564
11374TIP3    H255538   5.647   6.574   6.284  0.6461  2.4656  0.4383
11375TIP3   OH255539   3.088   4.648  13.423  0.2483 -0.2972  0.0685
11375TIP3    H155540   3.036   4.568  13.428 -0.3636  0.1714  2.7335
11375TIP3    H255541   3.114   4.655  13.331 -3.4804 -1.1379 -1.2091
11376TIP3   OH255542   3.935   4.527  16.386  0.1185  0.0882  0.9082
11376TIP3    H155543   3.975   4.446  16.352  1.5715 -0.4594  3.6433
11376TIP3    H255544   3.862   4.544  16.326  1.7003 -1.4347 -1.6496
11377TIP3   OH255545   3.324   3.139  12.353  0.1288 -0.1221  0.1415
11377TIP3    H155546   3.282   3.217  12.389 -0.4546 -0.0862 -0.6007
11377TIP3    H255547   3.278   3.123  12.270 -0.2934 -1.7045  0.6476
11378TIP3   OH255548   2.137   6.007  16.424  0.4989  0.0901 -0.4186
11378TIP3    H155549   2.184   6.087  16.404 -1.9179  1.6278 -0.3399
11378TIP3    H255550   2.190   5.963  16.490  2.3064  1.1519 -1.0925
11379TIP3   OH255551   6.709   0.717  12.486  0.0896 -0.6178 -0.3405
11379TIP3    H155552   6.649   0.770  12.539  0.8323 -2.4883  2.5653
11379TIP3    H255553   6.651   0.657  12.439 -0.5398  0.6376 -1.2410
11380TIP3   OH255554   5.513   6.228   0.661 -0.0426  0.3136  0.0151
11380TIP3    H155555   5.607   6.211   0.666  0.4132  2.5677  0.4941
11380TIP3    H255556   5.480   6.204   0.747 -0.2820 -2.1808 -0.7157
11381TIP3   OH255557   1.523   5.948   3.930  0.0443  0.1242 -0.2697
11381TIP3    H155558   1.436   5.969   3.898 -0.4645 -1.8077 -0.2599
11381TIP3    H255559   1.518   5.963   4.024  0.3797  2.0015 -0.5056
11382TIP3   OH255560   5.647   6.513  16.939  0.4068  0.2544 -0.1284
11382TIP3    H155561   5.649   6.609  16.945 -0.5592  0.2923 -0.3270
11382TIP3    H255562   5.618   6.495  16.850 -3.0330 -0.1503  0.9060
11383TIP3   OH255563   5.265   3.486  15.036 -0.0998 -0.0313  0.3287
11383TIP3    H155564   5.349   3.471  14.992  0.4065  2.1609  0.4509
11383TIP3    H255565   5.211   3.528  14.969 -0.3080  0.6571  0.9227
11384TIP3   OH255566   5.152   4.898   4.755  0.0707  0.3275 -0.1424
11384TIP3    H155567   5.100   4.924   4.679  0.4030  1.7173  0.0721
11384TIP3    H255568   5.242   4.912   4.728  0.3775 -1.8263 -0.4242
11385TIP3   OH255569   6.696   3.119   2.871  0.0706  0.2309 -0.3222
11385TIP3    H155570   6.766   3.067   2.832  0.4512  0.7270 -0.3084
11385TIP3    H255571   6.642   3.056   2.918 -0.2041 -0.3325 -1.3682
11386TIP3   OH255572   3.742   2.518  16.167  0.2784 -0.3735 -0.0681
11386TIP3    H155573   3.825   2.544  16.206 -0.0092  2.3089 -1.0608
11386TIP3    H255574   3.751   2.540  16.074 -0.7219 -2.2862 -0.6728
11387TIP3   OH255575   3.447   3.927  12.116  0.3515 -0.4046 -0.1719
11387TIP3    H155576   3.528   3.960  12.078  0.0305  1.3815  0.6059
11387TIP3    H255577   3.457   3.942  12.210 -1.1595  0.5275 -0.1259
11388TIP3   OH255578   6.458   2.048  12.661  0.1848 -0.1004  0.1043
11388TIP3    H155579   6.433   2.091  12.742  2.7928  1.0424  0.3920
11388TIP3    H255580   6.390   2.074  12.598 -1.3091 -0.1707  1.6009
11389TIP3   OH255581   4.083   3.037   3.916 -0.3748 -0.1363  0.6353
11389TIP3    H155582   4.069   2.948   3.882 -3.0449 -0.0105  1.1911
11389TIP3    H255583   4.118   3.085   3.842  1.1759 -1.6354  0.3342
11390TIP3   OH255584   6.191   1.781  15.430  0.0701 -0.0133  0.0734
11390TIP3    H155585   6.174   1.695  15.391  1.4423 -0.7252  0.9943
11390TIP3    H255586   6.105   1.811  15.459 -0.5283 -0.7680 -0.8435
11391TIP3   OH255587   0.679   0.729   5.751  0.7769  0.3107 -0.3322
11391TIP3    H155588   0.746   0.781   5.795 -0.4613  1.0527  0.7685
11391TIP3    H255589   0.601   0.785   5.752 -0.6036 -1.5049  0.8190
11392TIP3   OH255590   5.518   1.939  16.256 -0.3420 -0.0032  0.1594
11392TIP3    H155591   5.512   1.843  16.262 -0.6439  0.0803  1.7383
11392TIP3    H255592   5.572   1.955  16.179  0.8975 -1.4884  0.6641
11393TIP3   OH255593   2.600   1.340  10.763  0.1633  0.5769  0.0666
11393TIP3    H155594   2.513   1.333  10.802  0.3436  1.0826  0.5754
11393TIP3    H255595   2.646   1.261  10.792 -0.1180  0.3063 -0.2069
11394TIP3   OH255596   0.169   2.517  13.707  0.2573 -0.2249  0.2631
11394TIP3    H155597   0.133   2.497  13.621 -1.5946 -0.0858  0.9437
11394TIP3    H255598   0.216   2.438  13.733  0.9589 -0.2144 -0.9160
11395TIP3   OH255599   6.046   2.696  11.410 -0.2256 -0.1210 -0.0110
11395TIP3    H155600   6.037   2.789  11.430 -0.8494 -0.3993  1.0978
11395TIP3    H255601   6.009   2.687  11.322  2.0498  1.0523 -1.1856
11396TIP3   OH255602   3.249   3.599  14.316  0.2045  0.2929 -0.8147
11396TIP3    H155603   3.332   3.576  14.357  0.0807  1.2270  0.0059
11396TIP3    H255604   3.197   3.518  14.322  1.3371 -0.5732 -2.1536
11397TIP3   OH255605   5.630   0.351  12.299  0.5621 -0.4192 -0.1315
11397TIP3    H155606   5.590   0.406  12.367  1.6786 -0.0582  0.2485
11397TIP3    H255607   5.723   0.369  12.305  0.6261  0.5076 -2.5110
11398TIP3   OH255608   2.679   3.735  14.962  0.5947  0.8080 -0.0576
11398TIP3    H155609   2.737   3.704  14.892  1.8059  1.5916  0.5436
11398TIP3    H255610   2.644   3.818  14.929  1.3173  1.2745  0.3141
11399TIP3   OH255611   1.987   0.928  13.463 -0.1497 -0.1598 -0.1522
11399TIP3    H155612   2.078   0.956  13.453  0.1692 -1.6176 -1.7947
11399TIP3    H255613   1.965   0.889  13.379 -1.8446 -1.1307  0.6967
11400TIP3   OH255614   2.195   4.538   6.057  0.0663  0.2849 -0.4540
11400TIP3    H155615   2.240   4.614   6.095  2.7790 -1.0873 -0.6785
11400TIP3    H255616   2.156   4.572   5.976  0.4713  1.6203 -0.1191
11401TIP3   OH255617   0.533   2.126  15.015 -0.4090 -0.3581  0.4928
11401TIP3    H155618   0.586   2.205  14.999  1.4117 -1.6171  0.0193
11401TIP3    H255619   0.468   2.154  15.079 -1.0990  2.0504 -1.0898
11402TIP3   OH255620   4.563   3.123  17.221 -0.7391  0.2799 -0.2666
11402TIP3    H155621   4.648   3.158  17.249 -1.2093  1.3937 -0.1865
11402TIP3    H255622   4.546   3.167  17.138 -0.0754 -1.8396 -1.5855
11403TIP3   OH255623   3.921   2.763   5.846  0.3826  0.1514 -0.4395
11403TIP3    H155624   3.903   2.754   5.753  2.3676  0.7307 -0.9122
11403TIP3    H255625   3.894   2.853   5.867  0.4325  0.1961 -0.5668
11404TIP3   OH255626   4.335   6.376   3.464  0.2971  0.2289  0.3223
11404TIP3    H155627   4.320   6.328   3.546  0.3355 -0.8228 -0.2703
11404TIP3    H255628   4.333   6.309   3.396  1.4174  0.9316 -0.4318
11405TIP3   OH255629   2.539   1.818   1.278 -0.3086 -0.2913 -0.3160
11405TIP3    H155630   2.510   1.908   1.287 -1.2560 -0.3782 -2.0074
11405TIP3    H255631   2.633   1.821   1.298 -0.3121  1.0721 -0.4158
11406TIP3   OH255632   0.850   3.166   1.617  0.2711  0.2879  0.1421
11406TIP3    H155633   0.798   3.155   1.538 -0.8992  3.5888  0.2846
11406TIP3    H255634   0.790   3.143   1.688  0.7438 -0.9291  0.1678
11407TIP3   OH255635   1.008   0.516  14.356 -0.0169 -0.5895 -0.1653
11407TIP3    H155636   0.953   0.570  14.413  2.0074 -0.6423  2.0061
11407TIP3    H255637   1.031   0.441  14.410  1.9538 -0.6803 -1.0517
11408TIP3   OH255638   5.385   0.785  13.972  0.1207 -0.0785  0.1498
11408TIP3    H155639   5.388   0.782  13.877 -1.8255 -0.9732  0.0605
11408TIP3    H255640   5.369   0.877  13.994  1.0798  0.2116 -0.3465
11409TIP3   OH255641   5.490   3.162   3.698  0.2379 -0.2940  0.2199
11409TIP3    H155642   5.411   3.213   3.681  1.1595  2.3873  3.1599
11409TIP3    H255643   5.553   3.193   3.634 -0.1495 -0.1429 -0.0912
11410TIP3   OH255644   3.140   2.984   3.659 -0.2114  0.2427 -0.2015
11410TIP3    H155645   3.081   3.059   3.652  0.7595  0.9995 -0.5264
11410TIP3    H255646   3.082   2.908   3.658 -1.2992  0.9919  0.9859
11411TIP3   OH255647   5.654   3.724   0.242 -0.0458 -0.1881 -0.0701
11411TIP3    H155648   5.707   3.714   0.321 -2.4570  0.4809  1.7489
11411TIP3    H255649   5.675   3.647   0.189  2.7189  0.0810  0.4814
11412TIP3   OH255650   4.155   6.357   5.615  0.2575 -0.0619  0.5227
11412TIP3    H155651   4.109   6.381   5.695  1.3589  3.7002  0.1939
11412TIP3    H255652   4.244   6.338   5.643  0.3837  0.1900  0.2893
11413TIP3   OH255653   6.501   5.021  15.114 -0.1791 -0.4231  0.3818
11413TIP3    H155654   6.449   5.096  15.143 -0.0529 -0.4291  0.6229
11413TIP3    H255655   6.512   5.035  15.020  0.1724  0.0710  0.4922
11414TIP3   OH255656   2.412   2.436   6.474 -0.5381  0.1461  0.2258
11414TIP3    H155657   2.349   2.385   6.424 -1.1634  1.4968 -0.4128
11414TIP3    H255658   2.494   2.387   6.467 -1.0699 -0.6673 -0.5070
11415TIP3   OH255659   6.658   5.086   3.646 -0.7501 -0.4497 -0.4586
11415TIP3    H155660   6.633   5.101   3.737  1.9474 -1.1707  0.5002
11415TIP3    H255661   6.713   5.007   3.649  0.6365  0.3635 -2.4562
11416TIP3   OH255662   5.944   1.436  16.532  0.2463  0.5363  0.0219
11416TIP3    H155663   5.933   1.430  16.626  4.2301 -1.4267  0.5377
11416TIP3    H255664   6.020   1.494  16.520 -0.9157  1.7607 -2.1222
11417TIP3   OH255665   2.093   3.385  16.460 -0.1206 -0.1774  0.1339
11417TIP3    H155666   2.049   3.348  16.383 -0.7112  0.4252  0.1752
11417TIP3    H255667   2.073   3.479  16.456  0.4462 -0.0305  0.6298
11418TIP3   OH255668   4.246   5.099   3.234  0.1550  0.2539 -0.5103
11418TIP3    H155669   4.287   5.049   3.164  2.3651  1.4771 -0.2129
11418TIP3    H255670   4.276   5.189   3.220 -1.4248  0.9885  0.5460
11419TIP3   OH255671   6.216   4.484   5.867  0.4233  0.5979 -0.1589
11419TIP3    H155672   6.257   4.468   5.952 -1.2508 -1.7103  0.3029
11419TIP3    H255673   6.288   4.479   5.804  1.2639 -0.7696  0.8527
11420TIP3   OH255674   4.801   1.621   4.351  0.1430  0.3879  0.1877
11420TIP3    H155675   4.755   1.574   4.282  1.3479 -1.7414  0.7603
11420TIP3    H255676   4.810   1.710   4.317 -3.3794  0.6634 -0.3850
11421TIP3   OH255677   4.780   3.785   2.261 -0.1337 -0.1057  0.1148
11421TIP3    H155678   4.851   3.791   2.197 -0.5231 -1.0567 -0.4244
11421TIP3    H255679   4.809   3.717   2.322 -0.3286 -0.0852  0.2302
11422TIP3   OH255680   3.860   4.942  11.311 -0.1807  0.2506  0.1307
11422TIP3    H155681   3.883   5.029  11.278 -1.9146  1.0334  0.8788
11422TIP3    H255682   3.880   4.946  11.405  0.2677 -0.3640  0.0680
11423TIP3   OH255683   4.999   0.723  15.157 -0.0269  0.3546  0.4251
11423TIP3    H155684   5.074   0.779  15.135 -0.4517  0.8594  0.2295
11423TIP3    H255685   4.972   0.754  15.244 -0.2507  0.4426  0.3242
11424TIP3   OH255686   6.227   4.215  12.776 -0.1204  0.7096  0.5863
11424TIP3    H155687   6.177   4.189  12.698  1.1822 -0.3982  0.0820
11424TIP3    H255688   6.166   4.267  12.827 -1.5568  0.0085 -0.3488
11425TIP3   OH255689   5.782   5.686   5.703 -0.4392 -0.2042 -0.0071
11425TIP3    H155690   5.823   5.765   5.667 -0.7542  0.0983  0.2890
11425TIP3    H255691   5.830   5.670   5.785 -1.6884  0.8663  0.9794
11426TIP3   OH255692   2.178   0.075  12.903 -0.3280  0.1664  0.0352
11426TIP3    H155693   2.094   0.036  12.879 -0.8098  0.0234  1.7647
11426TIP3    H255694   2.226   0.082  12.821 -1.3733 -1.3248 -0.7560
11427TIP3   OH255695   3.842   3.732   0.405  0.2423  0.3107  0.2590
11427TIP3    H155696   3.759   3.706   0.444  0.6968 -2.1859 -0.3167
11427TIP3    H255697   3.849   3.826   0.424 -2.7525  0.6250  0.1786
11428TIP3   OH255698   3.592   1.898   1.556 -0.5467  0.2445  0.3252
11428TIP3    H155699   3.525   1.858   1.613 -0.5510 -1.4533 -0.7868
11428TIP3    H255700   3.644   1.824   1.526 -0.9226  0.9589 -2.3661
11429TIP3   OH255701   5.119   5.646   2.291  0.1588 -0.0701 -0.0617
11429TIP3    H155702   5.186   5.676   2.229 -0.5102  0.8191 -0.3811
11429TIP3    H255703   5.037   5.656   2.243 -0.1984 -1.3530  0.2429
11430TIP3   OH255704   3.952   0.376  16.631  0.3617 -0.2229  0.1457
11430TIP3    H155705   3.880   0.351  16.573 -0.4964 -1.0578  1.4981
11430TIP3    H255706   4.020   0.310  16.615 -0.0033 -0.6442  0.3256
11431TIP3   OH255707   2.901   1.056  15.296 -0.4057 -0.0974  0.1145
11431TIP3    H155708   2.973   1.063  15.233 -0.6443 -0.3752 -0.1885
11431TIP3    H255709   2.924   1.119  15.365 -1.8647  2.9519 -1.9214
11432TIP3   OH255710   1.059   0.710  12.612 -0.0122 -0.2646 -0.7161
11432TIP3    H155711   1.043   0.616  12.613  0.0808 -0.2856 -1.1251
11432TIP3    H255712   1.141   0.721  12.660  0.5571 -0.5078 -1.5994
11433TIP3   OH255713   1.995   0.957   3.922 -0.2846  0.6687  0.2327
11433TIP3    H155714   1.947   0.956   4.005 -2.2244  0.1604 -0.8297
11433TIP3    H255715   2.056   1.030   3.930  0.3787 -0.0492  2.5082
11434TIP3   OH255716   4.480   5.174   3.042  0.2935  0.6987  0.1322
11434TIP3    H155717   4.499   5.107   2.976 -1.6723 -0.8131  1.0025
11434TIP3    H255718   4.394   5.207   3.019  0.2828  1.3134  1.0086
11435TIP3   OH255719   0.162   3.427   4.411  0.1666 -0.5670  0.4382
11435TIP3    H155720   0.081   3.434   4.462 -0.6044  0.1984 -0.8482
11435TIP3    H255721   0.186   3.334   4.418 -1.9526 -1.2802 -0.7986
11436TIP3   OH255722   4.807   1.750   2.654 -0.0392  0.2688 -0.1463
11436TIP3    H155723   4.852   1.737   2.570  0.0671  0.5282 -0.1283
11436TIP3    H255724   4.728   1.697   2.646 -0.6348  1.2491 -0.8782
11437TIP3   OH255725   4.293   6.552  13.399 -0.0789  0.3025 -0.4756
11437TIP3    H155726   4.243   6.481  13.439  1.4638 -0.7951 -0.4299
11437TIP3    H255727   4.313   6.611  13.472 -0.3226  0.1476 -0.2825
11438TIP3   OH255728   3.365   0.725   5.520 -0.2303  0.1858 -0.3211
11438TIP3    H155729   3.312   0.698   5.595 -0.5393  1.8983  0.1373
11438TIP3    H255730   3.446   0.757   5.559 -0.7215  1.8826 -0.5835
11439TIP3   OH255731   5.596   0.719   1.494 -0.3311  0.4609  0.5077
11439TIP3    H155732   5.687   0.746   1.478 -0.3841  0.3923  0.0803
11439TIP3    H255733   5.602   0.660   1.569  0.0340  0.1137  0.2102
11440TIP3   OH255734   3.550   0.558   1.817  0.0948  0.2932 -0.0758
11440TIP3    H155735   3.596   0.630   1.860 -1.4233  0.6336  1.0600
11440TIP3    H255736   3.597   0.480   1.844  0.0965  0.6446  0.9808
11441TIP3   OH255737   4.192   0.339  13.315  0.4963 -0.1636 -0.1834
11441TIP3    H155738   4.233   0.253  13.307 -0.6331 -0.7590  0.1922
11441TIP3    H255739   4.169   0.346  13.408  1.0276  0.7526 -0.1203
11442TIP3   OH255740   1.946   4.964  17.176 -0.3429 -0.7725  0.9311
11442TIP3    H155741   1.977   5.052  17.154  1.7485 -1.9178 -1.1318
11442TIP3    H255742   1.851   4.972  17.177 -0.2592  2.0634  3.5648
11443TIP3   OH255743   3.000   1.328   5.687 -0.6424 -0.1696 -0.2170
11443TIP3    H155744   2.989   1.286   5.601 -1.1246 -1.3243  0.3906
11443TIP3    H255745   3.034   1.259   5.743 -1.8354  0.1374  0.9142
11444TIP3   OH255746   0.426   5.959  12.826 -0.2856 -0.7047  0.3381
11444TIP3    H155747   0.506   5.930  12.782 -0.6301 -1.2407  0.0448
11444TIP3    H255748   0.438   6.053  12.840 -0.3213 -0.4326 -1.2609
11445TIP3   OH255749   5.470   4.067   5.526 -0.2290  0.1970  0.3656
11445TIP3    H155750   5.529   4.125   5.478 -0.0103  0.4206  0.8936
11445TIP3    H255751   5.421   4.125   5.584  0.8964 -0.2449  1.8440
11446TIP3   OH255752   2.014   4.576  14.221  0.2845  0.3730  0.4346
11446TIP3    H155753   1.968   4.609  14.145 -0.4920 -1.0449  0.2465
11446TIP3    H255754   1.997   4.640  14.290 -0.8392  0.5780 -0.0117
11447TIP3   OH255755   2.351   1.725   3.185 -0.2611 -0.0449  0.2889
11447TIP3    H155756   2.285   1.780   3.226  0.9445  3.4844 -1.9848
11447TIP3    H255757   2.317   1.709   3.097  0.6310 -0.6045  0.0389
11448TIP3   OH255758   5.645   3.474   2.404 -0.6368 -0.7806  0.1736
11448TIP3    H155759   5.728   3.455   2.360 -1.3204 -1.5827 -0.8164
11448TIP3    H255760   5.660   3.449   2.495  0.5957  0.2820  0.3046
11449TIP3   OH255761   6.124   0.740  14.047  0.4677  0.2539  0.3768
11449TIP3    H155762   6.108   0.730  13.953  0.3126  0.7483  0.3449
11449TIP3    H255763   6.074   0.670  14.087 -0.3734  0.7083  0.1565
11450TIP3   OH255764   5.770   0.288  15.099 -0.0894  0.7016  0.1715
11450TIP3    H155765   5.865   0.299  15.090 -0.0840  1.0207  0.5658
11450TIP3    H255766   5.749   0.212  15.046  0.3957  0.6055  0.1145
11451TIP3   OH255767   3.709   1.493  11.618  0.3799 -0.0882 -0.0363
11451TIP3    H155768   3.661   1.450  11.688 -0.9055 -0.9054 -1.3500
11451TIP3    H255769   3.798   1.501  11.651 -0.5060  1.0731  2.3210
11452TIP3   OH255770   5.074   5.884  15.389  0.3415 -0.2238 -0.3925
11452TIP3    H155771   4.998   5.889  15.446  0.5828  1.8349 -0.1663
11452TIP3    H255772   5.063   5.958  15.329  1.1034 -1.1541 -1.7327
11453TIP3   OH255773   6.679   5.290   5.622  0.3384  0.0601 -0.6593
11453TIP3    H155774   6.679   5.322   5.713  0.8009 -0.5768 -0.4207
11453TIP3    H255775   6.702   5.197   5.630  2.8497  0.5113 -1.5699
11454TIP3   OH255776   0.396   0.884   5.744 -0.5744 -0.2305 -0.3431
11454TIP3    H155777   0.421   0.965   5.789 -0.9960 -0.6843  0.7601
11454TIP3    H255778   0.305   0.868   5.772 -1.2893  0.0869 -2.3216
11455TIP3   OH255779   3.636   5.386   1.622  0.4191  0.1100  0.3068
11455TIP3    H155780   3.569   5.332   1.664  0.6286 -0.5764 -0.2262
11455TIP3    H255781   3.706   5.393   1.687  0.3925 -0.2625  0.3765
11456TIP3   OH255782   4.640   4.741  16.550  0.2462 -0.0593 -0.1347
11456TIP3    H155783   4.707   4.700  16.497 -0.0398  0.6460 -1.0734
11456TIP3    H255784   4.624   4.679  16.621  2.9226  0.3738  0.9785
11457TIP3   OH255785   4.738   5.848   6.256  0.1329 -0.3764 -0.0569
11457TIP3    H155786   4.744   5.938   6.287 -2.0424  0.1204 -0.8573
11457TIP3    H255787   4.694   5.801   6.327 -0.2476 -0.4064 -0.3077
11458TIP3   OH255788   2.124   2.572  15.030 -0.2057  0.3360 -0.3178
11458TIP3    H155789   2.090   2.496  14.982 -0.3709 -0.4949  1.0629
11458TIP3    H255790   2.047   2.609  15.074  0.0911  0.5767 -0.0018
11459TIP3   OH255791   6.763   0.008   1.507 -0.2707 -0.0753  0.0632
11459TIP3    H155792   6.826  -0.004   1.436 -0.7344  0.2427 -0.4053
11459TIP3    H255793   6.697   0.067   1.471 -1.3995 -1.2224  0.1901
11460TIP3   OH255794   2.227   5.161   0.733 -0.0291  0.1213  0.0662
11460TIP3    H155795   2.171   5.108   0.676 -0.5188  0.9479 -0.2221
11460TIP3    H255796   2.272   5.096   0.788 -1.0541 -0.5648  0.1218
11461TIP3   OH255797   2.516   1.950  10.352  0.4686  0.0673 -0.2370
11461TIP3    H155798   2.495   1.888  10.422  0.8236  1.0091  0.7419
11461TIP3    H255799   2.513   2.036  10.395  4.0954  0.4767 -0.5041
11462TIP3   OH255800   2.411   5.166   2.981 -0.7800 -0.0107 -0.1774
11462TIP3    H155801   2.491   5.116   2.993 -1.1195 -0.5804 -0.2358
11462TIP3    H255802   2.397   5.165   2.886 -0.3527  0.9039 -0.2684
11463TIP3   OH255803   4.406   3.546   1.516 -0.2735  0.2128 -1.4080
11463TIP3    H155804   4.416   3.452   1.527 -1.6622  0.1270 -0.5404
11463TIP3    H255805   4.419   3.561   1.423  0.8397 -0.7044 -1.4165
11464TIP3   OH255806   5.211   2.637   4.185  0.2265  1.0116  0.0639
11464TIP3    H155807   5.253   2.562   4.227  2.3332  1.9017 -0.3459
11464TIP3    H255808   5.127   2.646   4.231 -0.7036 -2.3038 -0.6647
11465TIP3   OH255809   1.534   1.468   1.596  0.1968  0.5182  0.7891
11465TIP3    H155810   1.533   1.439   1.505 -0.6933 -0.4472  1.0886
11465TIP3    H255811   1.560   1.560   1.591 -3.5125  1.6485 -0.8117
11466TIP3   OH255812   2.671   3.811  14.202  0.4821  0.0282  0.0327
11466TIP3    H155813   2.631   3.815  14.289 -0.9023  0.9059 -0.6131
11466TIP3    H255814   2.755   3.767  14.217  0.5832  0.7460  1.9148
11467TIP3   OH255815   5.838   1.135  15.743  0.3948  0.5018 -0.1151
11467TIP3    H155816   5.784   1.123  15.821  0.8365  0.3074  0.1637
11467TIP3    H255817   5.781   1.110  15.670  0.5601 -1.1108  0.2760
11468TIP3   OH255818   1.610   2.970   0.526  0.5736 -0.2655  0.0542
11468TIP3    H155819   1.602   2.952   0.432 -0.5196 -0.6184  0.2086
11468TIP3    H255820   1.698   3.008   0.535 -0.1488  1.9586 -1.4417
11469TIP3   OH255821   3.846   6.686   2.921  0.1954 -0.2551  0.4919
11469TIP3    H155822   3.914   6.684   2.853 -0.7346 -2.0513 -0.4705
11469TIP3    H255823   3.892   6.714   3.000  2.1553 -1.6848 -0.0560
11470TIP3   OH255824   4.495   5.190   1.234 -0.1252  0.1474 -0.4067
11470TIP3    H155825   4.482   5.228   1.147 -2.4746 -1.3975 -0.8087
11470TIP3    H255826   4.515   5.098   1.218  1.3256  0.2377  0.6695
11471TIP3   OH255827   3.683   2.787   2.832  0.0786 -0.4500 -0.2034
11471TIP3    H155828   3.608   2.734   2.858 -1.2595  1.0457 -0.8072
11471TIP3    H255829   3.663   2.814   2.742  2.9735 -2.7781 -1.7056
11472TIP3   OH255830   4.345   6.087  15.562 -0.5584 -0.1208  0.4373
11472TIP3    H155831   4.376   5.997  15.570  0.4027 -0.2104 -2.8441
11472TIP3    H255832   4.250   6.079  15.556 -0.4353 -1.0293 -0.5417
11473TIP3   OH255833   5.851   1.236   5.181 -0.3035 -0.1575 -0.3300
11473TIP3    H155834   5.911   1.286   5.237 -0.6559 -0.0734 -0.0279
11473TIP3    H255835   5.854   1.282   5.096 -0.9219  0.6206  0.0539
11474TIP3   OH255836   1.993   4.768   1.845 -0.0714 -0.3489  0.7087
11474TIP3    H155837   2.034   4.850   1.872 -0.2532  0.0664 -0.2415
11474TIP3    H255838   2.058   4.700   1.863  0.3791  0.1015  0.7730
11475TIP3   OH255839   5.890   3.486  15.147  0.6505 -0.0168  0.6088
11475TIP3    H155840   5.949   3.500  15.221  1.4419  0.8867 -0.1624
11475TIP3    H255841   5.883   3.572  15.105 -0.5106 -0.3107  0.1599
11476TIP3   OH255842   3.806   4.204  14.778  0.3820  0.5200 -0.2090
11476TIP3    H155843   3.740   4.135  14.783  0.9570  0.0400  1.5047
11476TIP3    H255844   3.871   4.171  14.717 -0.5934  0.7124 -1.4057
11477TIP3   OH255845   2.431   2.106  17.205 -0.0965 -0.1231 -0.5915
11477TIP3    H155846   2.370   2.107  17.132  0.0588 -0.8899 -0.7460
11477TIP3    H255847   2.478   2.189  17.199 -1.6731  0.8622  0.0289
11478TIP3   OH255848   4.338   2.649  15.364 -0.1374  0.7763 -0.1207
11478TIP3    H155849   4.282   2.599  15.304 -1.2486  0.8017  0.8555
11478TIP3    H255850   4.286   2.657  15.444  0.0008  3.4510 -0.2121
11479TIP3   OH255851   3.002   0.871  13.240 -0.0747  0.2272 -0.7031
11479TIP3    H155852   2.999   0.964  13.217 -1.2176  0.5243  0.5372
11479TIP3    H255853   3.017   0.827  13.157  1.7725  1.5786 -1.1516
11480TIP3   OH255854   4.735   1.796   4.624  0.1526  0.0093 -0.1643
11480TIP3    H155855   4.698   1.885   4.620 -2.4080 -0.9710 -0.0019
11480TIP3    H255856   4.756   1.784   4.717  2.4703  1.0925 -0.4585
11481TIP3   OH255857   0.820   4.450   2.839 -0.2222  0.1421 -0.4594
11481TIP3    H155858   0.866   4.534   2.830 -2.0993  1.1419 -1.2124
11481TIP3    H255859   0.859   4.395   2.771  1.6924  0.0120  0.6457
11482TIP3   OH255860   3.852   0.050   0.413 -0.3353  0.3833  0.3581
11482TIP3    H155861   3.791   0.017   0.480 -0.3311  0.1427  0.2430
11482TIP3    H255862   3.938   0.021   0.443 -0.3345  0.2688  0.2427
11483TIP3   OH255863   0.740   3.552  16.049 -0.2235  0.4310 -0.3698
11483TIP3    H155864   0.711   3.641  16.067 -1.8960 -0.2394  0.4068
11483TIP3    H255865   0.720   3.538  15.956 -1.7793  0.2312 -0.0243
11484TIP3   OH255866   2.271   4.561  15.325 -0.1687  0.0464 -0.1559
11484TIP3    H155867   2.362   4.534  15.326  0.1861  1.1334 -1.1382
11484TIP3    H255868   2.252   4.581  15.233 -1.3315  0.0518  0.0656
11485TIP3   OH255869   1.301   5.693   5.868  0.3671  0.0446  0.2672
11485TIP3    H155870   1.218   5.685   5.914  0.2374 -0.3103 -0.0144
11485TIP3    H255871   1.331   5.602   5.858 -0.3645 -0.0390 -1.6829
11486TIP3   OH255872   6.606   3.238  11.832 -0.0972  0.0956 -0.3835
11486TIP3    H155873   6.551   3.163  11.855  0.5388 -0.2761 -0.0381
11486TIP3    H255874   6.695   3.203  11.831  0.3183  1.0393  0.7192
11487TIP3   OH255875   4.954   2.747  16.752 -0.4456 -0.4656 -0.7251
11487TIP3    H155876   5.015   2.773  16.822 -1.5416  0.2256 -0.0044
11487TIP3    H255877   4.993   2.784  16.673 -0.0626  0.2045 -0.2387
11488TIP3   OH255878   1.283   4.080  12.616  0.0267 -0.0963 -0.2877
11488TIP3    H155879   1.372   4.096  12.584  0.5056 -0.1346  0.9721
11488TIP3    H255880   1.229   4.147  12.573  0.7747  0.3601 -0.5263
11489TIP3   OH255881   5.541   1.387   2.902 -0.0872  0.5639 -0.3894
11489TIP3    H155882   5.482   1.325   2.943  1.3839 -0.8448 -0.3202
11489TIP3    H255883   5.484   1.458   2.871 -1.7196 -0.4870  0.1141
11490TIP3   OH255884   4.779   2.996  13.457  0.1668  0.0936  0.4684
11490TIP3    H155885   4.694   3.009  13.499 -0.7366  0.0730 -1.2876
11490TIP3    H255886   4.812   2.914  13.494 -1.6388 -1.1101 -0.4863
11491TIP3   OH255887   2.945   6.055  14.130  0.5304  0.3735  0.1582
11491TIP3    H155888   2.945   6.087  14.040  2.8181  0.0737 -0.0106
11491TIP3    H255889   2.920   6.131  14.183  0.1274  0.8071 -0.6353
11492TIP3   OH255890   3.402   0.199   2.094 -0.1005  0.2353 -0.6018
11492TIP3    H155891   3.496   0.212   2.105 -0.3775  0.6972  1.7177
11492TIP3    H255892   3.395   0.123   2.037  1.6941  0.0600 -0.6337
11493TIP3   OH255893   5.918   3.117  13.205 -0.0446  0.3855  0.1022
11493TIP3    H155894   5.889   3.136  13.116 -0.3373 -0.1530  0.0812
11493TIP3    H255895   5.936   3.203  13.243  0.6783  0.5899 -0.6761
11494TIP3   OH255896   3.837   4.622   3.598  0.6767  0.3084  0.2697
11494TIP3    H155897   3.910   4.589   3.546  0.8240  1.7907 -0.5218
11494TIP3    H255898   3.796   4.688   3.543 -1.1340 -0.3155  0.7976
11495TIP3   OH255899   3.483   5.044  17.170  0.3341 -0.6220  0.0958
11495TIP3    H155900   3.544   5.088  17.111 -0.7485 -1.5136 -1.7549
11495TIP3    H255901   3.536   5.024  17.248  1.8651  0.3616 -0.6424
11496TIP3   OH255902   4.645   4.859   5.446  0.5384  0.2725  0.4140
11496TIP3    H155903   4.564   4.842   5.398 -0.3240  1.3432  1.4219
11496TIP3    H255904   4.714   4.850   5.380 -0.6652  2.9317 -1.4110
11497TIP3   OH255905   6.319   6.696   0.361  0.0430  0.5358  0.4791
11497TIP3    H155906   6.271   6.649   0.293 -1.1950 -1.2325  2.4546
11497TIP3    H255907   6.403   6.652   0.367 -0.7409 -0.8810  1.6440
11498TIP3   OH255908   2.446   5.775  13.322  0.0532  0.0729 -0.1372
11498TIP3    H155909   2.523   5.812  13.278 -0.4831 -0.6386 -1.7700
11498TIP3    H255910   2.473   5.766  13.413  1.9375 -0.1946 -0.6615
11499TIP3   OH255911   6.141   5.557  14.742 -0.1607  0.2275  0.1001
11499TIP3    H155912   6.069   5.498  14.720  0.5553 -0.9573  0.8325
11499TIP3    H255913   6.114   5.642  14.706 -3.4740  0.6958  3.0430
11500TIP3   OH255914   3.704   1.024   2.942  0.3240  0.1290  0.5937
11500TIP3    H155915   3.641   0.960   2.908 -0.0515  0.1605  1.2239
11500TIP3    H255916   3.736   1.069   2.864  1.4305 -1.5665  0.0040
11501TIP3   OH255917   4.640   6.696   5.464  0.3469 -0.4318 -0.0292
11501TIP3    H155918   4.595   6.772   5.428 -1.2560 -2.0451 -1.6311
11501TIP3    H255919   4.572   6.648   5.512  1.2857 -0.9421  0.8329
11502TIP3   OH255920   3.197   1.621   1.723 -0.1655 -0.0091  0.1563
11502TIP3    H155921   3.180   1.676   1.799  1.7401  3.1718 -1.5185
11502TIP3    H255922   3.138   1.655   1.655  2.0488  1.0904 -1.3272
11503TIP3   OH255923   1.111   0.885   2.525  0.4426  0.4056  0.8348
11503TIP3    H155924   1.181   0.859   2.584  0.5824  1.3145  1.0849
11503TIP3    H255925   1.117   0.980   2.520  0.0797  0.3912 -0.2127
11504TIP3   OH255926   5.078   6.040   2.836 -0.5954  0.5934 -0.2163
11504TIP3    H155927   5.087   6.039   2.931 -1.8191  0.3708 -0.0759
11504TIP3    H255928   5.060   5.948   2.812  1.2025  0.3635 -0.8605
11505TIP3   OH255929   6.676   3.651  14.965  0.1659 -0.2022  0.4740
11505TIP3    H155930   6.589   3.688  14.977  0.7354  1.0105  1.0249
11505TIP3    H255931   6.681   3.579  15.028  0.8019  2.0084  3.1607
11506TIP3   OH255932   4.585   0.315   4.831  0.0341 -0.1587 -0.1016
11506TIP3    H155933   4.497   0.312   4.794  0.0142 -0.0427 -0.0634
11506TIP3    H255934   4.581   0.385   4.896  0.6277  1.0867 -1.3426
11507TIP3   OH255935   3.542   1.736   2.529 -0.2359  0.3059  0.0763
11507TIP3    H155936   3.550   1.691   2.613 -1.4092 -0.9599 -0.4573
11507TIP3    H255937   3.604   1.690   2.472 -0.8209 -0.0825 -0.2483
11508TIP3   OH255938   4.795   0.212   4.650  0.0990 -0.1007  0.3846
11508TIP3    H155939   4.817   0.128   4.691  1.9978  0.6303  1.0064
11508TIP3    H255940   4.729   0.251   4.708 -0.9307 -1.1997 -0.0092
11509TIP3   OH255941   6.701   1.377  13.922  0.2194  0.1879 -0.5450
11509TIP3    H155942   6.706   1.472  13.931 -0.0063  0.1520 -0.0222
11509TIP3    H255943   6.791   1.350  13.905  0.3654  0.4411 -0.1725
11510TIP3   OH255944   4.947   2.462  17.217  0.2642 -0.0715 -0.0191
11510TIP3    H155945   4.882   2.408  17.174 -0.6762  0.1705  1.0576
11510TIP3    H255946   4.920   2.552  17.199  0.8433  0.0468 -0.3485
11511TIP3   OH255947   1.024   6.497   5.609 -0.3413 -0.5517  0.0149
11511TIP3    H155948   1.089   6.449   5.659  0.2473  2.0508  1.9695
11511TIP3    H255949   1.054   6.588   5.612 -3.2700  0.5232 -0.3190
11512TIP3   OH255950   3.879   6.226   3.594 -0.2483 -0.4779 -0.5044
11512TIP3    H155951   3.953   6.195   3.542 -0.7811 -1.1540 -0.8805
11512TIP3    H255952   3.882   6.321   3.587 -0.7127 -0.5534 -2.3795
11513TIP3   OH255953   3.099   4.805  12.117  0.1518 -0.8884  0.1454
11513TIP3    H155954   3.161   4.803  12.044  0.7229 -1.9586  0.6256
11513TIP3    H255955   3.077   4.898  12.127  1.7181 -0.4600 -0.0214
11514TIP3   OH255956   5.023   1.665   1.747 -0.4109  0.1152 -0.1679
11514TIP3    H155957   5.062   1.685   1.662 -0.1560 -0.1652 -0.1194
11514TIP3    H255958   5.083   1.602   1.786 -0.5227  0.2550  0.2257
11515TIP3   OH255959   6.404   0.429   4.316 -0.5168 -0.0569 -0.0149
11515TIP3    H155960   6.402   0.484   4.395 -0.0254  0.0456 -0.0704
11515TIP3    H255961   6.356   0.350   4.341 -0.0319 -0.1904  0.5173
11516TIP3   OH255962   5.638   1.361  12.921  0.4441  0.1492 -0.7894
11516TIP3    H155963   5.611   1.298  12.988  0.5160 -1.6238 -2.3522
11516TIP3    H255964   5.658   1.441  12.970  1.7088 -1.4321  1.4668
11517TIP3   OH255965   2.497   3.322   2.081  0.4633 -0.0738  0.1687
11517TIP3    H155966   2.572   3.326   2.139  0.0098 -0.0802  0.7646
11517TIP3    H255967   2.437   3.260   2.123  0.7011 -1.1239 -0.9905
11518TIP3   OH255968   1.026   6.346  11.863 -0.4509  0.0098 -0.5539
11518TIP3    H155969   0.947   6.345  11.809 -0.8915  0.9900  0.0529
11518TIP3    H255970   1.096   6.322  11.802 -0.9249  1.1420 -1.5964
11519TIP3   OH255971   5.919   4.585   6.296 -0.3386 -0.1613  0.1791
11519TIP3    H155972   5.951   4.507   6.341 -0.0944 -0.7290 -0.9571
11519TIP3    H255973   5.982   4.653   6.319 -2.4256  0.7735  4.1636
11520TIP3   OH255974   3.996   3.794   4.522  0.2195 -0.3961  0.4418
11520TIP3    H155975   3.937   3.779   4.597 -0.2908  1.5014  0.4657
11520TIP3    H255976   3.987   3.715   4.469 -1.9819 -0.4019  0.7117
11521TIP3   OH255977   1.509   4.013  15.027 -0.2703 -0.3061 -0.2446
11521TIP3    H155978   1.417   4.038  15.028 -0.3560 -0.5655 -0.9804
11521TIP3    H255979   1.554   4.084  15.074 -1.1363 -1.4877  2.5720
11522TIP3   OH255980   2.884   4.620  17.267  0.5822 -0.8407 -0.0740
11522TIP3    H155981   2.902   4.704  17.307 -0.5340 -0.2429 -0.7609
11522TIP3    H255982   2.966   4.571  17.274  1.0187  0.0152  1.0071
11523TIP3   OH255983   2.536   2.080   4.360 -0.2177  0.4855 -0.1425
11523TIP3    H155984   2.451   2.045   4.390  0.4878 -1.8227 -0.6294
11523TIP3    H255985   2.524   2.094   4.266  0.0831 -0.4061 -0.3250
11524TIP3   OH255986   6.079   2.496  15.762  0.0048  0.4024 -0.0275
11524TIP3    H155987   6.051   2.463  15.848  0.0162  0.7580  0.1122
11524TIP3    H255988   6.164   2.535  15.778  1.6301 -2.4849 -0.8229
11525TIP3   OH255989   0.264   2.948   6.104  0.5445 -0.2008 -0.1267
11525TIP3    H155990   0.278   2.856   6.126 -0.8265 -0.6282 -0.8810
11525TIP3    H255991   0.223   2.986   6.182 -0.8011 -0.7729 -0.5212
11526TIP3   OH255992   4.665   0.140  13.851 -0.2811 -0.7407  0.0411
11526TIP3    H155993   4.666   0.051  13.885  0.8741 -0.0370  1.9809
11526TIP3    H255994   4.573   0.156  13.826 -0.7099 -2.0687  0.7307
11527TIP3   OH255995   0.906   5.892  16.420  0.3197  0.8314 -0.0942
11527TIP3    H155996   0.872   5.803  16.424 -0.5135  1.1296 -0.3926
11527TIP3    H255997   0.862   5.938  16.492  0.4033  1.1157 -0.2218
11528TIP3   OH255998   4.278   4.517   5.733  0.4144  0.0501 -0.4733
11528TIP3    H155999   4.254   4.607   5.708  0.7847  0.2879  0.0028
11528TIP3    H256000   4.369   4.508   5.704  0.6428  0.1143  0.2071
11529TIP3   OH256001   3.013   2.907  15.908  0.4793 -0.3353 -0.2625
11529TIP3    H156002   3.088   2.965  15.924 -0.1856 -0.1563  2.7935
11529TIP3    H256003   2.972   2.943  15.829  1.3422  2.0391  0.2661
11530TIP3   OH256004   6.512   4.681  13.543  0.1839 -0.6170 -0.1107
11530TIP3    H156005   6.446   4.726  13.596  0.2358  0.3670 -0.8473
11530TIP3    H256006   6.589   4.737  13.549  0.1037 -0.3281 -1.4427
11531TIP3   OH256007   2.034   5.430  17.334 -0.2705  0.0062  0.0377
11531TIP3    H156008   1.964   5.376  17.298 -0.2864 -0.0760  0.1940
11531TIP3    H256009   2.028   5.418  17.429  1.3650 -1.7460 -0.0400
11532TIP3   OH256010   5.347   5.089  11.146  0.1275  0.1408  0.6524
11532TIP3    H156011   5.345   5.132  11.060  0.5179  0.5852  0.8547
11532TIP3    H256012   5.438   5.060  11.156 -0.1742 -0.8757  0.4555
11533TIP3   OH256013   1.957   3.395   1.402  0.1188 -0.2170 -0.1504
11533TIP3    H156014   1.929   3.332   1.469  1.6547 -1.3934 -0.5708
11533TIP3    H256015   1.975   3.476   1.451 -0.6220 -0.4778  0.5754
11534TIP3   OH256016   6.309   1.101   3.527 -0.8158 -0.4705  0.8283
11534TIP3    H156017   6.233   1.138   3.572 -0.8919 -0.0040  0.3213
11534TIP3    H256018   6.272   1.052   3.454 -0.6661 -0.8616  1.0116
11535TIP3   OH256019   1.271   1.375   4.200 -0.2047 -0.2732  0.3802
11535TIP3    H156020   1.184   1.340   4.179 -0.7899  0.5844  1.3367
11535TIP3    H256021   1.294   1.334   4.284  1.0607 -1.7668 -0.6203
11536TIP3   OH256022   5.102   5.144   3.080  0.5759 -0.0618  0.0082
11536TIP3    H156023   5.131   5.156   2.989  1.3208  1.5573  0.4131
11536TIP3    H256024   5.113   5.051   3.097  2.0849 -0.1059 -1.0342
11537TIP3   OH256025   5.729   3.841  14.847  0.2496 -0.3133  0.0080
11537TIP3    H156026   5.633   3.838  14.848  0.1891  0.7422  1.2856
11537TIP3    H256027   5.750   3.897  14.772 -0.2216  0.7095  0.6148
11538TIP3   OH256028   0.116   1.256   3.525 -0.2105 -0.1629  0.2107
11538TIP3    H156029   0.073   1.178   3.561 -1.5207  0.3867 -0.0944
11538TIP3    H256030   0.045   1.319   3.512  0.4702  0.2647 -1.7685
11539TIP3   OH256031   6.053   1.710  12.629  0.0499  0.2446 -0.6679
11539TIP3    H156032   5.999   1.786  12.651  1.1131  0.7380  0.3085
11539TIP3    H256033   6.141   1.745  12.618  0.9096 -1.0410  1.4861
11540TIP3   OH256034   6.598   4.395   2.727  0.1395  0.1438  0.6508
11540TIP3    H156035   6.508   4.368   2.748 -0.0960  0.4045 -0.0023
11540TIP3    H256036   6.595   4.490   2.724 -0.1331  0.1174 -1.7145
11541TIP3   OH256037   4.537   4.346  12.770  0.3818 -0.7002 -0.3522
11541TIP3    H156038   4.495   4.277  12.719 -0.0590 -0.6532 -0.0621
11541TIP3    H256039   4.570   4.408  12.705 -3.5259  1.3946 -0.6301
11542TIP3   OH256040   4.444   3.477   0.531 -0.4444  0.6896 -0.3981
11542TIP3    H156041   4.412   3.567   0.533  2.0312  1.7102  3.1779
11542TIP3    H256042   4.506   3.475   0.458 -1.8176  1.3264 -1.6187
11543TIP3   OH256043   1.571   0.214  14.006 -0.2076  0.4181  0.1876
11543TIP3    H156044   1.562   0.300  13.964  0.5043  1.0340  1.2488
11543TIP3    H256045   1.662   0.190  13.991 -0.2742  0.0815  0.3292
11544TIP3   OH256046   4.218   3.811  16.557  0.1586 -0.1481 -0.0952
11544TIP3    H156047   4.178   3.837  16.473 -0.0240  0.8597  0.2870
11544TIP3    H256048   4.223   3.716  16.552 -1.6575 -0.2729 -0.4625
11545TIP3   OH256049   0.918   5.103   5.558  0.3212  0.0465 -0.1409
11545TIP3    H156050   1.010   5.077   5.564  0.7844  1.7023  0.7100
11545TIP3    H256051   0.869   5.022   5.565  1.6963 -0.7624  0.4563
11546TIP3   OH256052   3.777   2.052  10.755  0.1347 -0.4356  0.2005
11546TIP3    H156053   3.706   2.027  10.814 -0.9834  0.6840 -0.6414
11546TIP3    H256054   3.856   2.043  10.809 -0.7696 -0.2241  1.6230
11547TIP3   OH256055   4.127   5.627   4.612 -0.0287 -0.7406 -0.6575
11547TIP3    H156056   4.190   5.557   4.628  0.0319  0.0245  3.3640
11547TIP3    H256057   4.042   5.584   4.617  0.0153 -0.6725  1.6138
11548TIP3   OH256058   3.764   3.029   1.445  0.4517  0.3157 -0.5797
11548TIP3    H156059   3.685   3.076   1.471  1.1876  1.0829  0.3751
11548TIP3    H256060   3.761   2.948   1.495 -0.2911 -0.1831 -1.4174
11549TIP3   OH256061   6.639   0.307   4.507  0.0813  0.2593 -0.5226
11549TIP3    H156062   6.729   0.295   4.477 -0.1459 -0.3566 -0.9800
11549TIP3    H256063   6.587   0.305   4.427 -0.2882  1.1760 -0.3093
11550TIP3   OH256064   2.099   4.697   2.930  0.4889  0.3827  0.1586
11550TIP3    H156065   2.163   4.723   2.997  0.2631  0.4743  0.3425
11550TIP3    H256066   2.014   4.726   2.966  0.3920  0.6364 -0.2698
11551TIP3   OH256067   3.906   6.075  12.162  0.3537  0.5477 -0.4044
11551TIP3    H156068   3.822   6.046  12.127  0.0705 -0.2187  0.8521
11551TIP3    H256069   3.957   5.994  12.170  0.6102  0.7827  0.4009
11552TIP3   OH256070   5.106   3.189  16.455 -0.3036  0.1381 -0.3465
11552TIP3    H156071   5.050   3.148  16.521 -0.5332  0.8024 -0.1180
11552TIP3    H256072   5.152   3.116  16.414  0.3903 -0.2463  1.0495
11553TIP3   OH256073   6.031   3.925  12.514 -0.3700 -0.2243 -0.1185
11553TIP3    H156074   6.053   3.832  12.516 -0.9224 -0.3503  0.4642
11553TIP3    H256075   6.020   3.948  12.606  3.9272  1.4450  0.2398
11554TIP3   OH256076   2.858   2.644   4.627  0.4423  0.2130  0.1613
11554TIP3    H156077   2.951   2.629   4.609  0.4216 -1.4171  1.1855
11554TIP3    H256078   2.815   2.563   4.600 -0.6708  0.8786 -0.1142
11555TIP3   OH256079   3.229   5.729   0.637 -0.1061  0.1412 -0.5522
11555TIP3    H156080   3.215   5.732   0.732  0.5675 -2.8633 -0.2371
11555TIP3    H256081   3.276   5.809   0.617 -2.0558  1.8807  1.2515
11556TIP3   OH256082   2.401   3.417  13.718  0.5238 -0.1369  0.2264
11556TIP3    H156083   2.359   3.375  13.793 -0.3144  1.0921  0.4659
11556TIP3    H256084   2.425   3.505  13.750 -0.4267  0.6418 -1.1268
11557TIP3   OH256085   0.534   3.546   1.760  0.6455  0.1481  0.7887
11557TIP3    H156086   0.590   3.583   1.693  0.3044  0.4915  0.6886
11557TIP3    H256087   0.454   3.519   1.714 -0.4144  2.1804  1.3185
11558TIP3   OH256088   1.397   6.486  16.533  0.0915  0.1691 -0.1405
11558TIP3    H156089   1.344   6.474  16.454 -0.0624  2.2837 -0.4170
11558TIP3    H256090   1.418   6.580  16.534  0.9605  0.0029  1.7903
11559TIP3   OH256091   5.347   6.324  16.563 -0.2285  0.2302  0.3886
11559TIP3    H156092   5.276   6.292  16.619 -1.8674 -0.3307 -1.8845
11559TIP3    H256093   5.359   6.256  16.497  1.7393  0.7907  0.0907
11560TIP3   OH256094   5.863   6.002  13.021  0.6732 -0.6231 -0.2137
11560TIP3    H156095   5.886   5.938  12.955 -1.2561 -0.7207 -0.8468
11560TIP3    H256096   5.854   5.952  13.102  1.2749 -0.7788 -0.2362
11561TIP3   OH256097   5.192   1.381  15.795  0.1935  0.2150  0.2402
11561TIP3    H156098   5.272   1.395  15.846 -0.4394  1.0759  1.0013
11561TIP3    H256099   5.174   1.465  15.755  0.1051 -0.1898 -0.5953
11562TIP3   OH256100   6.238   0.842   3.923 -0.2223 -0.0503 -0.1083
11562TIP3    H156101   6.165   0.784   3.946  0.5187 -0.6654  0.8027
11562TIP3    H256102   6.283   0.857   4.006  2.9081 -2.7784 -1.0964
11563TIP3   OH256103   0.264   5.357   1.853 -0.1668 -0.3996  0.1730
11563TIP3    H156104   0.293   5.443   1.824  1.3312 -0.3695  1.6118
11563TIP3    H256105   0.319   5.338   1.929 -0.2509 -2.7699 -0.2981
11564TIP3   OH256106   2.782   5.765   5.764 -0.4563  0.4800  0.2213
11564TIP3    H156107   2.752   5.844   5.809 -1.2678 -1.2833  2.9942
11564TIP3    H256108   2.720   5.755   5.691 -0.1539  2.5032 -0.3762
11565TIP3   OH256109   2.930   4.568   0.217  0.2629  0.1209 -0.0438
11565TIP3    H156110   2.980   4.612   0.287  1.3471 -3.1338  1.4392
11565TIP3    H256111   2.997   4.542   0.154  0.0728 -1.5604  0.4085
11566TIP3   OH256112   6.255   5.657   0.332 -0.0472  0.5904 -0.0583
11566TIP3    H156113   6.347   5.642   0.308 -0.5752  0.5715 -2.3145
11566TIP3    H256114   6.206   5.639   0.251 -2.2097 -0.9449  1.4665
11567TIP3   OH256115   6.652   5.945   0.113  0.3013  0.0336  0.4557
11567TIP3    H156116   6.714   5.962   0.184 -0.0452  0.7192  0.6024
11567TIP3    H256117   6.583   5.893   0.154  0.1718  0.3076  0.5842
11568TIP3   OH256118   2.296   6.744  15.385 -0.8213  0.4158  0.3028
11568TIP3    H156119   2.236   6.760  15.459 -0.5337  2.9253  0.0729
11568TIP3    H256120   2.239   6.748  15.308 -0.6232  1.1506  0.1904
11569TIP3   OH256121   4.707   0.916   3.990  0.3427  0.0657 -0.0638
11569TIP3    H156122   4.713   0.965   4.071  0.9813  0.1728 -0.1708
11569TIP3    H256123   4.617   0.885   3.987  0.2766  0.1820  0.6134
11570TIP3   OH256124   5.018   5.118  15.894  0.2452 -0.1536 -0.3420
11570TIP3    H156125   4.946   5.165  15.851  0.9620  2.4282  1.0152
11570TIP3    H256126   5.089   5.183  15.898  2.4939 -2.4284 -1.1492
11571TIP3   OH256127   1.551   4.007   2.022  0.2014  0.0655 -0.1670
11571TIP3    H156128   1.540   4.009   2.117 -1.5414  1.8227 -0.3296
11571TIP3    H256129   1.628   4.062   2.005  0.7771 -0.6045  0.2334
11572TIP3   OH256130   3.400   4.039  13.456  0.0040  0.2575  0.4927
11572TIP3    H156131   3.478   3.984  13.463 -0.7777 -1.3074 -1.8704
11572TIP3    H256132   3.328   3.978  13.444 -1.2380  1.7250  0.1479
11573TIP3   OH256133   5.633   3.416   0.268  0.5990 -1.3754  0.1382
11573TIP3    H156134   5.578   3.405   0.191  1.2627  0.4341 -0.6648
11573TIP3    H256135   5.584   3.376   0.340 -1.2237 -0.8211 -0.7457
11574TIP3   OH256136   6.763   1.129  13.599  0.2748  0.2703 -0.5806
11574TIP3    H156137   6.694   1.099  13.540 -0.7981  0.9702  0.2908
11574TIP3    H256138   6.720   1.141  13.683  0.9126  2.9417 -0.5389
11575TIP3   OH256139   1.436   2.152  12.699  0.6108  0.5513 -0.0333
11575TIP3    H156140   1.471   2.119  12.781  2.2168  0.7783 -0.5833
11575TIP3    H256141   1.488   2.108  12.631  0.1145  1.2378 -0.8839
11576TIP3   OH256142   1.892   3.910   5.878  0.4400 -0.3716  0.1508
11576TIP3    H156143   1.826   3.841   5.873  0.9692 -0.7966 -1.2887
11576TIP3    H256144   1.948   3.896   5.802  0.4855  1.7182 -0.2581
11577TIP3   OH256145   1.613   5.381  16.822 -0.0543  0.3382  0.0902
11577TIP3    H156146   1.704   5.352  16.814 -1.0837 -3.2334 -0.4969
11577TIP3    H256147   1.609   5.461  16.770  2.5091  0.0101 -0.7999
11578TIP3   OH256148   3.380   2.929  14.711  0.1017  0.1467 -0.2081
11578TIP3    H156149   3.472   2.918  14.735 -0.1597 -1.3241  0.2129
11578TIP3    H256150   3.344   2.984  14.781  0.3769 -0.3365  0.3182
11579TIP3   OH256151   2.078   6.603   3.465 -0.9724 -0.3562  0.0014
11579TIP3    H156152   2.022   6.670   3.424  0.2670  1.0420  0.4935
11579TIP3    H256153   2.078   6.530   3.402 -1.3503  0.6177 -1.1788
11580TIP3   OH256154   4.411   5.576  15.777  0.5230 -0.4431  0.1015
11580TIP3    H156155   4.326   5.586  15.734  1.9031 -0.1303 -2.7956
11580TIP3    H256156   4.435   5.485  15.763  1.1970 -0.2228 -0.2674
11581TIP3   OH256157   0.479   1.185  15.501  0.5282 -0.3393 -0.8366
11581TIP3    H156158   0.540   1.116  15.526  1.0679  1.2313  2.8903
11581TIP3    H256159   0.531   1.243  15.444  0.1743 -2.5854 -3.6765
11582TIP3   OH256160   6.546   0.413  15.584 -0.2091 -0.1245  0.0193
11582TIP3    H156161   6.462   0.416  15.538  1.0243  2.4021 -2.3972
11582TIP3    H256162   6.601   0.358  15.529  0.7978  1.4945 -0.6412
11583TIP3   OH256163   5.913   2.785   3.015  0.2691 -1.0105  0.5597
11583TIP3    H156164   5.938   2.799   3.107  1.5783 -0.6838  0.1750
11583TIP3    H256165   5.974   2.718   2.984  0.9529  0.0882 -0.5273
11584TIP3   OH256166   5.679   2.119  16.465 -0.7563 -0.4746 -0.0186
11584TIP3    H156167   5.607   2.121  16.402 -1.4263  1.6138  0.7294
11584TIP3    H256168   5.635   2.128  16.550  0.0714 -3.6283  0.8857
11585TIP3   OH256169   1.923   3.113  16.500 -0.0368 -0.2956 -0.0983
11585TIP3    H156170   2.004   3.123  16.450 -0.7781 -2.8773 -2.0276
11585TIP3    H256171   1.853   3.115  16.435 -1.6066  1.6821  1.4943
11586TIP3   OH256172   5.748   2.819  15.054  0.1192  0.0590  0.0941
11586TIP3    H156173   5.680   2.838  15.119 -0.8650  0.5923 -1.0480
11586TIP3    H256174   5.707   2.840  14.970  0.6512 -2.5696 -0.8961
11587TIP3   OH256175   0.861   1.300  11.906 -0.2542 -0.1870  0.3654
11587TIP3    H156176   0.949   1.325  11.935  0.1480 -0.3866 -0.6268
11587TIP3    H256177   0.839   1.363  11.837 -0.7314 -0.3627  0.3526
11588TIP3   OH256178   5.444   6.591  14.210 -0.4336  0.2971 -0.1069
11588TIP3    H156179   5.525   6.642  14.212  0.0169 -0.4176  0.6277
11588TIP3    H256180   5.414   6.590  14.301  0.4399 -2.0632  0.2271
11589TIP3   OH256181   1.047   4.871   2.220  0.1615 -0.0926 -0.0149
11589TIP3    H156182   0.999   4.897   2.142  1.5182  0.5101 -0.6866
11589TIP3    H256183   1.103   4.799   2.192  0.6829  0.1470  0.3667
11590TIP3   OH256184   2.242   2.471  12.130 -0.3335  0.4260 -0.1011
11590TIP3    H156185   2.230   2.440  12.220  1.5254 -1.6885 -0.5053
11590TIP3    H256186   2.320   2.525  12.133 -1.4568  2.1158 -0.1124
11591TIP3   OH256187   1.658   5.973   0.250 -0.1343  0.0897  0.0703
11591TIP3    H156188   1.722   5.974   0.322 -0.8634  0.3702  0.7351
11591TIP3    H256189   1.703   6.017   0.178  1.0820 -1.3381 -0.0894
11592TIP3   OH256190   1.882   3.300   2.507  0.5645  0.2461  0.2618
11592TIP3    H156191   1.886   3.272   2.415  2.6240 -2.0308  0.9245
11592TIP3    H256192   1.919   3.388   2.507  1.5581 -0.1373 -1.0078
11593TIP3   OH256193   6.741   1.193   0.009 -0.2986 -1.3292 -0.0566
11593TIP3    H156194   6.661   1.193  -0.044  0.4056 -0.4092 -1.1702
11593TIP3    H256195   6.810   1.169  -0.053  0.4092 -1.1885  0.6702
11594TIP3   OH256196   0.623   0.989   2.823  0.0164 -0.7460 -0.0087
11594TIP3    H156197   0.620   0.895   2.838  0.9221 -0.6543  0.7705
11594TIP3    H256198   0.531   1.014   2.811 -0.2913 -1.6049  0.5086
11595TIP3   OH256199   1.683   5.699   0.603 -0.8885 -0.1243  0.8911
11595TIP3    H156200   1.693   5.789   0.572  0.3422 -0.1739  1.0888
11595TIP3    H256201   1.765   5.680   0.650 -0.6940 -1.6745  0.0028
11596TIP3   OH256202   4.699   5.726   6.495 -0.1147  0.2336 -0.0201
11596TIP3    H156203   4.727   5.667   6.565  1.0624  1.2721  0.4217
11596TIP3    H256204   4.680   5.809   6.539 -0.3572  0.6084 -0.8022
11597TIP3   OH256205   3.838   6.222   2.692 -0.0153 -0.3204  0.0945
11597TIP3    H156206   3.815   6.164   2.619  0.4781  0.1545 -0.4559
11597TIP3    H256207   3.778   6.296   2.684  1.3888  0.7481 -1.1290
11598TIP3   OH256208   1.432   1.770   5.815  0.2118 -0.1748 -0.1310
11598TIP3    H156209   1.427   1.674   5.822 -2.0696 -0.1886 -1.0793
11598TIP3    H256210   1.457   1.799   5.903 -1.5644 -1.5454  0.9147
11599TIP3   OH256211   3.508   5.364  12.664 -0.4887  0.0921 -0.1085
11599TIP3    H156212   3.481   5.273  12.672  1.5328 -0.6279 -0.7919
11599TIP3    H256213   3.515   5.395  12.754 -1.9499 -0.1628  0.1108
11600TIP3   OH256214   5.322   6.540  10.778  0.2708  0.2513  0.2943
11600TIP3    H156215   5.403   6.580  10.808  0.2565  0.0916  0.5509
11600TIP3    H256216   5.265   6.540  10.855  0.0300  0.3542  0.1176
11601TIP3   OH256217   1.619   2.156  16.553  0.5414 -0.1453  0.0632
11601TIP3    H156218   1.585   2.172  16.641  0.4956 -1.1594  0.2445
11601TIP3    H256219   1.648   2.065  16.555  2.9333  0.5592 -0.2074
11602TIP3   OH256220   3.651   2.963  13.392  0.2397 -0.2190 -0.1562
11602TIP3    H156221   3.665   2.868  13.398 -1.9463 -0.5018  1.7468
11602TIP3    H256222   3.735   2.997  13.363  1.3356 -2.6674 -0.1484
11603TIP3   OH256223   0.429   6.618   0.852  0.0392 -0.2519 -0.1507
11603TIP3    H156224   0.445   6.632   0.945  0.0767  2.2410 -0.4631
11603TIP3    H256225   0.336   6.595   0.847  0.6475 -3.4335  0.6683
11604TIP3   OH256226   4.819   4.741  15.154 -0.0770 -0.3379  0.2631
11604TIP3    H156227   4.847   4.651  15.172  1.1340  0.1409  0.8829
11604TIP3    H256228   4.794   4.776  15.240  0.0742  0.1168  0.1254
11605TIP3   OH256229   2.424   6.212  13.161 -0.4479  0.2347  0.1708
11605TIP3    H156230   2.426   6.153  13.085  1.6165  1.4215 -0.7834
11605TIP3    H256231   2.389   6.158  13.232 -1.6136 -1.1830 -1.3961
11606TIP3   OH256232   1.295   6.170  14.039  0.5427 -0.6388  0.6817
11606TIP3    H156233   1.260   6.253  14.072  0.4301  0.1905 -1.3636
11606TIP3    H256234   1.386   6.170  14.068  0.6557  0.4048  0.3684
11607TIP3   OH256235   3.365   3.867   3.262  0.6802 -0.4523 -0.1977
11607TIP3    H156236   3.338   3.953   3.230 -0.5180 -0.7281  0.0274
11607TIP3    H256237   3.421   3.886   3.337  1.2263  0.1439 -0.7484
11608TIP3   OH256238   5.393   1.705   5.579  0.7638 -0.0056  0.5523
11608TIP3    H156239   5.361   1.783   5.625 -3.2047 -0.3670 -1.1780
11608TIP3    H256240   5.394   1.637   5.646 -2.1247  0.1297  0.8817
11609TIP3   OH256241   4.996   6.161  16.407 -0.7739  0.3028 -0.3828
11609TIP3    H156242   5.023   6.153  16.498 -1.7993  1.3361  0.0347
11609TIP3    H256243   4.977   6.072  16.379  1.8975 -0.3678 -0.3789
11610TIP3   OH256244   3.276   4.152  11.105  0.0986  0.2999  0.4161
11610TIP3    H156245   3.216   4.079  11.090  1.8512 -0.9435 -0.8590
11610TIP3    H256246   3.358   4.111  11.134  1.2482  1.6981 -0.7068
11611TIP3   OH256247   0.359   2.085  15.715  0.0039 -0.0417 -0.0689
11611TIP3    H156248   0.437   2.099  15.660 -0.3883 -1.7913 -1.1306
11611TIP3    H256249   0.373   2.001  15.757 -0.7726  0.2003  0.7049
11612TIP3   OH256250   1.206   3.125  15.553  0.0919  0.1093  0.6600
11612TIP3    H156251   1.152   3.199  15.582 -0.5542 -0.5492  1.1740
11612TIP3    H256252   1.188   3.118  15.459 -0.4347  0.1308  0.7540
11613TIP3   OH256253   0.807   1.576  12.315 -0.4377  0.0590  0.0005
11613TIP3    H156254   0.862   1.575  12.236 -1.5415 -1.0472 -0.7925
11613TIP3    H256255   0.797   1.484  12.339 -0.1456  0.3764  1.4454
11614TIP3   OH256256   1.168   6.743  12.718  0.1186  0.1627 -0.4921
11614TIP3    H156257   1.212   6.782  12.794  0.3717  1.2719 -1.1837
11614TIP3    H256258   1.224   6.669  12.694 -0.9089 -1.3710  1.4715
11615TIP3   OH256259   3.193   3.000  16.725  0.3774  0.4171 -0.0502
11615TIP3    H156260   3.176   2.909  16.749  0.5039 -0.0127 -1.4594
11615TIP3    H256261   3.288   3.010  16.735  0.4223  0.2604 -0.3229
11616TIP3   OH256262   5.479   0.564  13.473  0.4288  0.9241 -0.7142
11616TIP3    H156263   5.549   0.629  13.477  1.3171  0.0124 -1.0079
11616TIP3    H256264   5.514   0.489  13.521 -1.1661  1.1754  0.9167
11617TIP3   OH256265   3.418   1.790  16.765  0.2579  0.4938 -0.0791
11617TIP3    H156266   3.407   1.697  16.783 -1.1578  0.3428 -1.4717
11617TIP3    H256267   3.380   1.835  16.840 -1.8377 -0.0911 -0.7141
11618TIP3   OH256268   2.728   3.118  15.181  0.1842 -0.4383  0.7163
11618TIP3    H156269   2.777   3.156  15.108 -0.7263 -2.2279 -0.9237
11618TIP3    H256270   2.694   3.193  15.229 -3.4860  1.1663 -3.6421
11619TIP3   OH256271   6.625   4.700   4.683  0.6916 -0.1814 -0.5032
11619TIP3    H156272   6.607   4.624   4.739 -1.0965  1.6976  1.7381
11619TIP3    H256273   6.566   4.689   4.609  0.4622 -0.9846 -0.2174
11620TIP3   OH256274   1.869   2.333  13.851 -0.1918  0.0612  0.1789
11620TIP3    H156275   1.789   2.284  13.870 -0.5850  0.3407 -0.6966
11620TIP3    H256276   1.878   2.395  13.923 -1.5794  1.0300 -0.4445
11621TIP3   OH256277   5.076   3.448  11.277  0.2706 -0.6338  0.1230
11621TIP3    H156278   5.023   3.467  11.355  0.5776 -1.4888  0.5620
11621TIP3    H256279   5.041   3.505  11.209 -0.2658 -0.1546  0.7869
11622TIP3   OH256280   4.749   1.973  15.377 -0.2117 -0.6117 -0.4403
11622TIP3    H156281   4.742   1.996  15.284  1.3948 -0.9522 -0.6665
11622TIP3    H256282   4.785   2.051  15.418 -1.4085 -0.2767  0.0113
11623TIP3   OH256283   4.097   2.619  11.702  0.2911 -0.3241  0.3902
11623TIP3    H156284   4.004   2.619  11.721 -0.1198 -0.5009 -1.3869
11623TIP3    H256285   4.102   2.595  11.609  1.9520  1.8626 -0.1868
11624TIP3   OH256286   0.549   6.448   5.117 -0.3428 -0.0704  0.2983
11624TIP3    H156287   0.493   6.514   5.159  0.6039  0.5659  0.5749
11624TIP3    H256288   0.604   6.498   5.056 -0.8256 -0.8320 -0.7950
11625TIP3   OH256289   3.038   3.902  15.072  0.0520  0.2169  0.8274
11625TIP3    H156290   3.059   3.914  15.164 -1.2319  2.2676  0.9046
11625TIP3    H256291   2.954   3.945  15.060  0.2682  0.1786 -1.3460
11626TIP3   OH256292   3.667   1.900  11.209  0.1320  0.2820 -0.3876
11626TIP3    H156293   3.656   1.979  11.261  0.6192 -0.9061  1.6288
11626TIP3    H256294   3.690   1.833  11.273 -2.7867 -2.1176 -1.6224
11627TIP3   OH256295   2.821   1.744   3.151  0.2794  0.2180 -0.0453
11627TIP3    H156296   2.861   1.671   3.104 -0.4148 -0.0471 -0.2260
11627TIP3    H256297   2.732   1.750   3.116 -0.7053 -0.7991  2.1200
11628TIP3   OH256298   6.285   5.693   3.523 -0.1476  0.3580  0.8446
11628TIP3    H156299   6.288   5.607   3.566  0.7153  0.1621  0.4240
11628TIP3    H256300   6.320   5.676   3.435  1.4347  1.3967  1.2269
11629TIP3   OH256301   0.784   5.843  16.108  0.5345  0.3366  0.0588
11629TIP3    H156302   0.869   5.823  16.146  1.0983  0.9432 -0.8397
11629TIP3    H256303   0.792   5.816  16.016  0.1418  1.4339 -0.3130
11630TIP3   OH256304   3.641   4.843  11.769  0.1119 -0.1281 -0.4068
11630TIP3    H156305   3.670   4.847  11.677  0.8290 -2.5639 -0.3525
11630TIP3    H256306   3.609   4.754  11.780 -1.8061  0.7057  1.2314
11631TIP3   OH256307   4.692   5.843   1.840 -0.4393 -0.1394 -0.2012
11631TIP3    H156308   4.606   5.871   1.811 -0.0672  0.7905 -0.4333
11631TIP3    H256309   4.680   5.818   1.932 -0.4165  2.6590  0.6551
11632TIP3   OH256310   6.622   1.554  11.564 -0.6785  0.0467 -0.3148
11632TIP3    H156311   6.593   1.473  11.523 -0.4610 -0.3087  0.2356
11632TIP3    H256312   6.715   1.561  11.542 -0.0846 -1.0810  1.5975
11633TIP3   OH256313   1.168   6.129  16.889  0.0854 -0.5091  0.2152
11633TIP3    H156314   1.222   6.182  16.830 -2.5571  1.6862 -0.4042
11633TIP3    H256315   1.165   6.179  16.971  0.2807 -1.4254  0.7974
11634TIP3   OH256316   3.548   1.940  14.795  0.1644  0.3206  0.3345
11634TIP3    H156317   3.625   1.971  14.747  0.0761  2.1386  1.3045
11634TIP3    H256318   3.474   1.982  14.753 -0.1863 -0.2856  0.3248
11635TIP3   OH256319   3.881   2.000   0.389  0.0132  0.4676 -0.3086
11635TIP3    H156320   3.867   2.024   0.481 -0.4301  0.9293 -0.4919
11635TIP3    H256321   3.915   2.080   0.349  0.5314  0.1650 -0.4761
11636TIP3   OH256322   3.364   2.616  13.951 -0.1172 -0.0546 -0.0311
11636TIP3    H156323   3.324   2.559  14.016 -0.0313  0.3388  0.3759
11636TIP3    H256324   3.457   2.613  13.971 -0.2241  1.2023  0.8192
11637TIP3   OH256325   6.114   0.343   6.283 -0.1246  0.1078  0.0841
11637TIP3    H156326   6.060   0.419   6.305  0.0491  0.3154 -0.1917
11637TIP3    H256327   6.169   0.329   6.360 -0.1947  0.2338  0.1572
11638TIP3   OH256328   6.624   2.575  12.190  0.2877 -0.4527  0.1820
11638TIP3    H156329   6.706   2.602  12.230  0.8547 -3.4448  1.3603
11638TIP3    H256330   6.650   2.512  12.122 -0.9845 -0.5585 -0.2347
11639TIP3   OH256331   5.664   5.036   4.677  0.0542  0.1342  0.4821
11639TIP3    H156332   5.697   4.950   4.653 -0.2471  0.7137 -2.5062
11639TIP3    H256333   5.576   5.020   4.712 -2.1988 -0.7427 -4.5796
11640TIP3   OH256334   2.147   4.987   1.937 -0.3977  0.0537  0.3180
11640TIP3    H156335   2.191   4.971   2.020  0.5775 -0.3353 -0.2569
11640TIP3    H256336   2.140   5.082   1.931 -0.5957  0.0783  0.9015
11641TIP3   OH256337   5.571   6.262  11.772  0.0955  0.3787  0.7364
11641TIP3    H156338   5.533   6.281  11.857  1.1654  0.1085  1.2995
11641TIP3    H256339   5.665   6.275  11.784  0.4003 -0.8999 -0.0452
11642TIP3   OH256340   6.660   5.217  13.105 -0.4139 -0.2876  0.0553
11642TIP3    H156341   6.637   5.262  13.024  1.0757 -0.4916 -0.5223
11642TIP3    H256342   6.592   5.243  13.167  0.0231  2.2577 -0.4096
11643TIP3   OH256343   3.792   0.025  13.690 -0.2689 -0.1853  0.8941
11643TIP3    H156344   3.801   0.112  13.651 -0.3128 -0.7496 -0.4324
11643TIP3    H256345   3.737   0.039  13.767 -2.0859  0.6565 -0.4898
11644TIP3   OH256346   4.348   4.085  17.182 -0.3462 -0.0670 -0.7127
11644TIP3    H156347   4.431   4.068  17.136 -0.2453  0.7920 -0.8684
11644TIP3    H256348   4.283   4.034  17.134  0.4102 -2.6493  0.7798
11645TIP3   OH256349   6.191   4.789   3.391  0.1685 -0.1401 -0.3591
11645TIP3    H156350   6.120   4.853   3.396  0.1476 -0.2416  1.2862
11645TIP3    H256351   6.158   4.721   3.331 -1.4790 -0.5782  0.9497
11646TIP3   OH256352   1.135   2.466   3.890  0.9994  0.3108 -0.2714
11646TIP3    H156353   1.080   2.495   3.817  1.6619  0.1383 -0.8520
11646TIP3    H256354   1.166   2.547   3.931  2.4789  0.4737 -1.6122
11647TIP3   OH256355   1.333   4.702   1.730 -0.2878 -0.5723 -0.2808
11647TIP3    H156356   1.378   4.721   1.648  1.6390 -0.8523  0.6535
11647TIP3    H256357   1.245   4.673   1.704  0.6808 -1.8833 -2.2880
11648TIP3   OH256358   2.208   2.719  11.528 -0.2754 -0.3525 -0.0747
11648TIP3    H156359   2.245   2.630  11.529  1.9948  0.5055 -0.4770
11648TIP3    H256360   2.282   2.775  11.553 -1.8974  1.3652  1.1251
11649TIP3   OH256361   1.060   5.372  16.036  0.4496 -0.0396 -0.4239
11649TIP3    H156362   1.045   5.461  16.003  0.9431 -0.1261 -0.9004
11649TIP3    H256363   0.979   5.325  16.018 -0.6228  0.8635  1.7562
11650TIP3   OH256364   0.419   5.878  13.153 -0.7668  0.3869 -0.0557
11650TIP3    H156365   0.333   5.848  13.124 -1.2452  2.5255 -1.0379
11650TIP3    H256366   0.401   5.957  13.204  0.5427  0.2731  0.6178
11651TIP3   OH256367   5.383   2.871   2.842 -0.0837  0.1646 -0.1953
11651TIP3    H156368   5.449   2.811   2.809  0.7763 -0.4838  2.4654
11651TIP3    H256369   5.313   2.868   2.777  0.9298 -1.9542 -1.2650
11652TIP3   OH256370   4.140   1.134  16.734  0.0218  0.1877 -0.6748
11652TIP3    H156371   4.113   1.078  16.807  0.2343  1.7450  0.6637
11652TIP3    H256372   4.097   1.096  16.657  0.1940 -1.8140  0.1413
11653TIP3   OH256373   5.252   4.331   1.793 -0.3633 -0.1111 -0.2015
11653TIP3    H156374   5.201   4.279   1.856  0.1009 -0.6788 -0.2833
11653TIP3    H256375   5.242   4.284   1.710  2.1669 -1.6156  0.2270
11654TIP3   OH256376   1.121   0.913  13.615 -0.1202 -0.7600  0.1913
11654TIP3    H156377   1.138   0.994  13.663 -1.1322 -0.8675  0.7544
11654TIP3    H256378   1.194   0.906  13.554  1.1341 -0.5548  1.6094
11655TIP3   OH256379   2.841   4.866  15.569  0.5921  0.5167 -0.0624
11655TIP3    H156380   2.931   4.835  15.557  1.1943  0.8252  2.8778
11655TIP3    H256381   2.850   4.956  15.599 -0.4420 -0.2862  3.0502
11656TIP3   OH256382   1.350   3.723  15.364 -0.1482  0.2578  0.0744
11656TIP3    H156383   1.269   3.726  15.416  0.0554  1.5906  0.3364
11656TIP3    H256384   1.387   3.810  15.372  1.0150 -0.1613 -0.5548
11657TIP3   OH256385   0.849   4.960   6.451 -0.2386  0.0291  0.0164
11657TIP3    H156386   0.861   5.038   6.396  0.9702 -0.2169 -0.0906
11657TIP3    H256387   0.932   4.951   6.498 -0.3994 -1.1468  0.0864
11658TIP3   OH256388   5.446   5.842  14.400  0.0799 -0.5408 -0.3234
11658TIP3    H156389   5.388   5.841  14.324  1.1334  1.2242 -1.2187
11658TIP3    H256390   5.388   5.833  14.475 -1.0123 -2.1076 -1.2884
11659TIP3   OH256391   3.831   2.970  14.532 -0.2225  0.1326  0.0711
11659TIP3    H156392   3.886   2.925  14.597 -0.3765 -0.4995 -0.2298
11659TIP3    H256393   3.862   2.936  14.448  0.2111  1.2083 -0.2139
11660TIP3   OH256394   1.348   1.503   2.879 -0.2047 -0.0200  0.5780
11660TIP3    H156395   1.427   1.454   2.903  0.5994  1.1841  0.5141
11660TIP3    H256396   1.287   1.437   2.848  1.7816 -0.7822 -2.1171
11661TIP3   OH256397   5.544   3.237  12.567  0.1420 -0.7884 -0.5042
11661TIP3    H156398   5.453   3.242  12.537 -0.0289  0.2657  0.1382
11661TIP3    H256399   5.595   3.270  12.493 -0.2599  1.5722  0.1804
11662TIP3   OH256400   6.501   2.358   5.309  0.5212  0.7701  0.5354
11662TIP3    H156401   6.405   2.347   5.308  0.5664 -0.1810  2.3557
11662TIP3    H256402   6.514   2.439   5.358  0.6459  1.4310 -0.5583
11663TIP3   OH256403   1.114   2.706   4.751 -0.2221 -0.1070  0.4756
11663TIP3    H156404   1.114   2.782   4.809 -0.9083 -0.1001  0.4690
11663TIP3    H256405   1.029   2.708   4.707 -0.1599 -0.7526  0.3072
11664TIP3   OH256406   2.845   4.811   5.204 -0.1704  0.1958 -0.6603
11664TIP3    H156407   2.917   4.867   5.177 -0.4725  0.7474 -0.3328
11664TIP3    H256408   2.778   4.871   5.236 -0.6317 -0.3311 -0.6187
11665TIP3   OH256409   3.784   0.254   0.277 -0.1521 -0.1451  0.5109
11665TIP3    H156410   3.793   0.246   0.182  0.7614 -0.3463  0.6033
11665TIP3    H256411   3.819   0.173   0.312  0.1404  0.2067  1.0488
11666TIP3   OH256412   3.552   0.538   0.447  0.5624 -0.1905  0.4765
11666TIP3    H156413   3.466   0.551   0.489  0.0766  0.3592 -0.6424
11666TIP3    H256414   3.543   0.581   0.362  1.8810 -0.3473  0.2493
11667TIP3   OH256415   2.699   1.637   0.608  0.4649  0.4407  0.0158
11667TIP3    H156416   2.694   1.733   0.613  3.0239  0.6200  3.4957
11667TIP3    H256417   2.778   1.620   0.557 -0.5031  0.0927 -1.4066
11668TIP3   OH256418   2.738   0.674  14.504 -0.4217 -0.4149  0.1598
11668TIP3    H156419   2.711   0.742  14.441  1.1773  0.0138 -0.0897
11668TIP3    H256420   2.697   0.701  14.586 -0.3917  0.4644 -0.1024
11669TIP3   OH256421   4.629   5.779   3.756 -0.4297  0.1266  0.1803
11669TIP3    H156422   4.641   5.832   3.677 -0.5742 -0.0273  0.0550
11669TIP3    H256423   4.632   5.689   3.725  0.8314  0.0261  0.5222
11670TIP3   OH256424   5.692   5.417   2.918 -0.6172  0.0962  0.1620
11670TIP3    H156425   5.750   5.442   2.990 -1.1362  1.2394  0.2073
11670TIP3    H256426   5.634   5.492   2.907 -2.6993 -1.3446  0.7022
11671TIP3   OH256427   1.866   2.594  13.737 -0.6851 -0.5924 -0.1313
11671TIP3    H156428   1.910   2.644  13.806  0.3107 -0.0403 -1.1480
11671TIP3    H256429   1.841   2.512  13.780 -0.5290 -0.0599  1.0160
11672TIP3   OH256430   1.327   4.918  12.199 -0.3792 -0.1431  0.2307
11672TIP3    H156431   1.351   4.975  12.272 -0.0338  3.2568 -2.2915
11672TIP3    H256432   1.251   4.869  12.231  1.0180 -0.4619  3.4976
11673TIP3   OH256433   5.755   5.326  15.855  0.3155 -0.1533  0.2860
11673TIP3    H156434   5.772   5.357  15.944 -1.9233 -0.6556  0.9492
11673TIP3    H256435   5.790   5.237  15.854  0.5682 -0.0590  0.5837
11674TIP3   OH256436   5.835   1.359  13.640  0.3421 -0.0662  0.1936
11674TIP3    H156437   5.802   1.314  13.562  0.9816 -2.4784  1.2034
11674TIP3    H256438   5.756   1.380  13.691  0.0447 -1.0976  0.1892
11675TIP3   OH256439   2.578   2.381   5.513 -0.1763 -0.5080 -0.2254
11675TIP3    H156440   2.642   2.440   5.553  0.8772  0.9147 -3.6237
11675TIP3    H256441   2.601   2.294   5.546  1.2656  0.3855  1.2920
11676TIP3   OH256442   4.563   0.882  11.178 -0.5288 -0.4467 -0.7465
11676TIP3    H156443   4.523   0.967  11.159 -0.6048 -0.5185 -0.9191
11676TIP3    H256444   4.635   0.902  11.237 -1.5346 -0.4523  0.5150
11677TIP3   OH256445   0.377   0.938   2.691  0.0605  0.2361 -0.0248
11677TIP3    H156446   0.411   0.905   2.608  0.9393  0.0733  0.3929
11677TIP3    H256447   0.377   1.033   2.681  3.1099  0.4112  0.8703
11678TIP3   OH256448   1.166   6.391   1.995  0.1160 -0.1674 -0.1046
11678TIP3    H156449   1.101   6.436   2.049  1.5258  0.7933  0.8730
11678TIP3    H256450   1.201   6.460   1.939 -0.2549 -0.8469 -1.2097
11679TIP3   OH256451   3.452   5.086   4.482 -0.7101 -0.2791 -0.9824
11679TIP3    H156452   3.357   5.083   4.470 -0.7701 -1.2021 -0.3711
11679TIP3    H256453   3.465   5.154   4.548 -0.7750  1.1774 -2.4075
11680TIP3   OH256454   3.576   0.616   0.852  0.1543 -0.1854  0.5859
11680TIP3    H156455   3.604   0.696   0.807  1.7319 -0.6593  0.6492
11680TIP3    H256456   3.619   0.545   0.804 -1.9022 -1.1215 -0.0134
11681TIP3   OH256457   1.137   1.021  15.409 -0.2993 -0.0460 -0.0568
11681TIP3    H156458   1.107   0.931  15.419 -1.4573  0.3533  0.2479
11681TIP3    H256459   1.122   1.041  15.316 -1.2292  0.2124  0.1303
11682TIP3   OH256460   1.903   1.987   3.490  0.3251 -0.4094 -0.1080
11682TIP3    H156461   1.811   1.976   3.467  0.6126 -0.3447 -1.3387
11682TIP3    H256462   1.920   1.917   3.553 -1.3354  1.4217  2.5937
11683TIP3   OH256463   5.290   3.379   5.320  0.1628  0.0465  0.3685
11683TIP3    H156464   5.281   3.285   5.333  1.1004 -0.0980  0.0245
11683TIP3    H256465   5.321   3.412   5.405  1.4204 -0.1980  0.0264
11684TIP3   OH256466   0.917   3.630   4.317  0.1455 -0.3040  0.1037
11684TIP3    H156467   0.911   3.577   4.396  0.4544 -0.9798 -0.3164
11684TIP3    H256468   1.009   3.653   4.311  0.5193 -1.9240 -1.1054
11685TIP3   OH256469   4.159   1.228  11.661  0.2971  0.4448 -0.0169
11685TIP3    H156470   4.130   1.251  11.572 -0.3225  0.3423  0.1573
11685TIP3    H256471   4.083   1.186  11.701  0.5330  0.6161  0.6139
11686TIP3   OH256472   2.985   6.665  14.598  0.1657 -0.1383 -0.0955
11686TIP3    H156473   2.961   6.579  14.633 -2.4420  0.8798  0.8175
11686TIP3    H256474   2.969   6.726  14.670  0.0416  1.3608 -1.3433
11687TIP3   OH256475   4.916   3.998  11.156 -0.3126  0.1102 -0.3093
11687TIP3    H156476   4.979   3.932  11.184  0.1411  0.8858  0.5630
11687TIP3    H256477   4.970   4.063  11.110 -0.5202  0.6067  0.1427
11688TIP3   OH256478   4.886   3.701  11.562 -0.2202 -0.1462  0.2393
11688TIP3    H156479   4.969   3.723  11.520 -0.8075 -0.8515 -1.4032
11688TIP3    H256480   4.870   3.772  11.623  1.0704  0.5551 -0.2096
11689TIP3   OH256481   4.244   4.431  15.941 -0.6302  0.2143  0.4011
11689TIP3    H156482   4.272   4.420  15.850 -1.5628  1.8556 -0.1361
11689TIP3    H256483   4.318   4.401  15.993 -0.0026 -0.5669 -0.9022
11690TIP3   OH256484   2.848   5.214  11.838  0.1810 -0.0850 -0.0713
11690TIP3    H156485   2.876   5.141  11.784 -0.2409  0.1367 -0.6016
11690TIP3    H256486   2.754   5.202  11.849  0.3327 -0.3758  1.0010
11691TIP3   OH256487   3.920   3.493  12.867 -0.0576  0.4448 -0.0366
11691TIP3    H156488   3.847   3.551  12.888 -0.6892 -0.8137  1.3853
11691TIP3    H256489   3.966   3.480  12.950  1.0082  0.1362 -0.6432
11692TIP3   OH256490   5.052   1.915  13.910 -0.3384 -0.2862 -0.6048
11692TIP3    H156491   4.958   1.897  13.918 -0.2874 -0.1442  0.6385
11692TIP3    H256492   5.057   1.989  13.850 -1.0325 -0.2689 -0.6589
11693TIP3   OH256493   6.690   0.369  12.566 -0.3537  0.1134 -0.2416
11693TIP3    H156494   6.670   0.310  12.493 -0.1699  0.4385 -0.5626
11693TIP3    H256495   6.698   0.455  12.525 -1.2740  0.4737  0.3186
11694TIP3   OH256496   1.004   4.477   2.522 -0.1256  0.0254  0.3058
11694TIP3    H156497   1.035   4.395   2.561  0.5617  0.6040  1.0064
11694TIP3    H256498   1.068   4.497   2.455  0.1137  0.3656  0.6330
11695TIP3   OH256499   0.679   2.328  15.273 -0.0205 -0.1862  0.8298
11695TIP3    H156500   0.705   2.336  15.182 -0.0511 -0.0530  0.8327
11695TIP3    H256501   0.604   2.386  15.282 -0.0674 -0.2601  0.9198
11696TIP3   OH256502   6.550   0.081   4.241 -0.5184  0.4329 -0.3549
11696TIP3    H156503   6.575   0.166   4.207  0.4450 -0.4361 -1.9501
11696TIP3    H256504   6.602   0.070   4.320  1.3525  0.2752 -1.5492
11697TIP3   OH256505   3.561   0.623  12.729  0.5857  0.1755  0.2024
11697TIP3    H156506   3.493   0.689  12.736 -0.7791 -1.1212 -0.3188
11697TIP3    H256507   3.550   0.586  12.641 -0.4970 -2.5640  1.3770
11698TIP3   OH256508   4.861   4.434  14.469  0.1598 -0.2821 -0.1771
11698TIP3    H156509   4.913   4.379  14.411 -1.1293 -1.0383 -0.6572
11698TIP3    H256510   4.770   4.410  14.450 -0.3788  1.0679  0.5615
11699TIP3   OH256511   3.557   2.230   0.836 -0.4336  0.0991 -0.5505
11699TIP3    H156512   3.614   2.188   0.771 -0.9813 -0.7274 -0.5220
11699TIP3    H256513   3.557   2.170   0.910 -2.8704 -0.9873 -1.2991
11700TIP3   OH256514   5.606   6.548  13.289 -0.1609  0.2542 -0.3478
11700TIP3    H156515   5.553   6.474  13.257 -0.5917  0.5291 -0.2736
11700TIP3    H256516   5.559   6.581  13.365 -0.9719  1.7728 -1.4543
11701TIP3   OH256517   1.645   4.624   4.862 -0.2888 -0.3088 -0.3412
11701TIP3    H156518   1.671   4.545   4.910  0.2308 -0.2916 -0.5895
11701TIP3    H256519   1.646   4.598   4.770  0.8713  0.2561 -0.4994
11702TIP3   OH256520   3.321   0.275   5.791 -0.5663  0.1051 -0.5472
11702TIP3    H156521   3.301   0.362   5.757  0.3857 -0.3934 -2.5337
11702TIP3    H256522   3.371   0.233   5.721 -2.1638 -2.5357 -0.2066
11703TIP3   OH256523   4.142   2.865  16.917  0.3283 -0.4588 -0.6381
11703TIP3    H156524   4.176   2.953  16.899 -0.2070 -0.2241 -0.5113
11703TIP3    H256525   4.219   2.816  16.949  0.3066  0.4260  0.8989
11704TIP3   OH256526   6.339   5.797   5.593  0.4404  0.1008  0.1456
11704TIP3    H156527   6.397   5.732   5.634  0.4555  0.0555  0.0518
11704TIP3    H256528   6.399   5.858   5.550  0.4271  0.1943  0.2580
11705TIP3   OH256529   6.598   0.482  11.602  0.6331 -0.0395 -0.2875
11705TIP3    H156530   6.637   0.458  11.518 -1.6989  1.0561 -1.7775
11705TIP3    H256531   6.601   0.578  11.602 -0.1744 -0.0126  0.4951
11706TIP3   OH256532   2.695   0.933   4.359 -0.2465  0.4889 -0.1967
11706TIP3    H156533   2.616   0.986   4.362 -0.6754  0.1451 -2.7699
11706TIP3    H256534   2.767   0.995   4.366 -0.7413  1.0173  0.2295
11707TIP3   OH256535   4.967   3.049  15.528  0.1326  0.3238  0.3734
11707TIP3    H156536   5.012   3.003  15.599 -0.0347 -0.1759  0.1608
11707TIP3    H256537   4.912   3.114  15.572  0.1054  0.0826  0.6916
11708TIP3   OH256538   3.160   4.285  10.771 -0.0846 -0.4708  0.0398
11708TIP3    H156539   3.071   4.277  10.737  0.2957  0.0766 -1.1311
11708TIP3    H256540   3.157   4.360  10.830  0.3289  1.7637 -2.6351
11709TIP3   OH256541   2.525   0.163   4.306 -0.3031 -0.4105 -0.2173
11709TIP3    H156542   2.580   0.084   4.302 -0.4896 -0.6142  0.8707
11709TIP3    H256543   2.580   0.233   4.272 -0.2353 -1.0555 -1.4834
11710TIP3   OH256544   3.172   4.579   2.390  0.1605 -0.0050 -0.2195
11710TIP3    H156545   3.121   4.511   2.434  0.2883  1.3953  2.2926
11710TIP3    H256546   3.251   4.533   2.359  0.0094 -1.1083  0.9361
11711TIP3   OH256547   4.426   5.984   1.036 -0.2976 -0.2989 -0.1495
11711TIP3    H156548   4.386   5.924   0.973  0.2019 -0.5303 -0.2512
11711TIP3    H256549   4.518   5.957   1.040  0.1971  1.1735 -1.0452
11712TIP3   OH256550   1.991   0.113  13.447 -0.2800  0.1647 -0.5311
11712TIP3    H156551   1.949   0.072  13.522 -0.2822 -0.0027 -0.6242
11712TIP3    H256552   2.079   0.074  13.444 -0.2204  0.2960 -0.5132
11713TIP3   OH256553   2.791   4.203  13.095 -0.3650  0.2241  0.3538
11713TIP3    H156554   2.720   4.234  13.151 -0.8114 -0.1731  0.0141
11713TIP3    H256555   2.870   4.241  13.134 -0.8028  1.0192  0.4830
11714TIP3   OH256556   0.241   4.986  13.369 -0.6992  0.1345 -0.0292
11714TIP3    H156557   0.289   4.912  13.407  0.1039  0.5210 -0.2903
11714TIP3    H256558   0.224   5.044  13.444 -0.7966 -0.0110  0.0647
11715TIP3   OH256559   0.357   3.677   3.135  0.4485  0.1975  0.4277
11715TIP3    H156560   0.384   3.755   3.088 -0.0462  0.6374  0.8589
11715TIP3    H256561   0.342   3.612   3.067  2.6134 -0.1107  0.1526
11716TIP3   OH256562   2.031   6.079   0.679 -0.2313  0.5041 -0.1666
11716TIP3    H156563   1.983   6.162   0.672 -1.1471  0.0462  0.3764
11716TIP3    H256564   2.121   6.104   0.698 -0.8156  1.3704  1.6649
11717TIP3   OH256565   4.454   4.567   0.841 -0.3335 -0.3968  0.6735
11717TIP3    H156566   4.383   4.518   0.799 -0.0433 -1.1901  1.1057
11717TIP3    H256567   4.512   4.591   0.769 -2.0043  2.0168 -0.0298
11718TIP3   OH256568   4.229   2.959   3.052 -0.3892 -0.0581 -0.1169
11718TIP3    H156569   4.300   2.899   3.076  0.2678  0.4562 -0.6987
11718TIP3    H256570   4.222   2.950   2.957 -2.9246 -2.0531  0.1508
11719TIP3   OH256571   1.251   6.094  13.654  0.0202 -0.0171 -0.4441
11719TIP3    H156572   1.277   6.184  13.638 -0.5497 -0.0239 -1.4848
11719TIP3    H256573   1.158   6.099  13.675 -0.3941 -0.4922 -2.0585
11720TIP3   OH256574   6.185   1.335   2.685  0.0753  0.2103 -0.6438
11720TIP3    H156575   6.212   1.246   2.664  0.4110  0.1457  0.0351
11720TIP3    H256576   6.194   1.342   2.780 -3.4611 -0.1969 -0.1249
11721TIP3   OH256577   1.333   1.768  10.870 -0.1941  0.1701 -0.4539
11721TIP3    H156578   1.370   1.848  10.833 -0.4722  0.5551  0.0924
11721TIP3    H256579   1.288   1.796  10.949  0.4073 -0.6382  0.1981
11722TIP3   OH256580   2.591   1.766  11.532  0.0042 -0.6560  0.0409
11722TIP3    H156581   2.637   1.683  11.516 -0.4306 -0.7653 -0.6764
11722TIP3    H256582   2.534   1.748  11.606  0.7506 -0.6573  0.6347
11723TIP3   OH256583   2.406   6.705   1.462  0.2086  0.1830  0.1937
11723TIP3    H156584   2.405   6.611   1.482  0.0653  0.2121  0.3240
11723TIP3    H256585   2.314   6.729   1.456  0.2309  0.4737  0.9029
11724TIP3   OH256586   1.982   6.177  16.773  0.2319 -0.2436 -0.1267
11724TIP3    H156587   1.953   6.124  16.698 -2.7054 -1.7275  1.8456
11724TIP3    H256588   1.946   6.264  16.756 -1.0368 -0.7521 -0.1652
11725TIP3   OH256589   1.458   0.698  15.814  0.1109  0.2254 -0.0212
11725TIP3    H156590   1.468   0.611  15.775 -0.2471  0.2038 -0.0692
11725TIP3    H256591   1.534   0.747  15.783 -0.7020  0.5389 -1.6207
11726TIP3   OH256592   2.060   2.199  16.768  0.4578  0.3170  0.7599
11726TIP3    H156593   2.046   2.252  16.847 -0.9490 -1.7346  1.9676
11726TIP3    H256594   2.043   2.109  16.796 -0.6058 -0.4268 -2.0062
11727TIP3   OH256595   2.645   0.604   2.257  0.4544  0.5330 -0.5168
11727TIP3    H156596   2.620   0.512   2.264  1.4604  0.2757 -0.1160
11727TIP3    H256597   2.587   0.649   2.318  0.1970  0.1206 -0.4515
11728TIP3   OH256598   0.912   2.082   0.681  0.0545  0.0681 -0.5266
11728TIP3    H156599   0.846   2.064   0.614  0.0294 -0.5993 -0.3271
11728TIP3    H256600   0.893   2.020   0.751 -0.2905  1.1590  0.3684
11729TIP3   OH256601   2.771   2.880  13.072  0.1444 -0.3539  0.4292
11729TIP3    H156602   2.781   2.972  13.095 -1.5071 -0.0131 -0.1228
11729TIP3    H256603   2.710   2.846  13.137  0.0966 -0.8563  0.1233
11730TIP3   OH256604   1.850   6.162   5.645 -0.1232  0.0675  0.1833
11730TIP3    H156605   1.800   6.117   5.713 -0.8371  0.3346 -0.1528
11730TIP3    H256606   1.899   6.230   5.691  0.5134 -0.6684  0.6168
11731TIP3   OH256607   5.046   4.780   4.186 -0.4961 -0.0001 -0.2642
11731TIP3    H156608   5.049   4.763   4.280  1.5675 -2.3442 -0.6484
11731TIP3    H256609   5.130   4.750   4.154 -1.3160  0.3360 -2.9518
11732TIP3   OH256610   5.436   5.284  14.953  0.3257 -0.0625  0.2074
11732TIP3    H156611   5.505   5.298  15.018  0.3810 -2.1197  0.6580
11732TIP3    H256612   5.433   5.189  14.941 -0.9515  0.1359 -1.4444
11733TIP3   OH256613   1.091   2.992   6.532 -0.2906  0.2902 -0.1737
11733TIP3    H156614   1.088   2.915   6.590 -0.8907  0.2315 -0.2791
11733TIP3    H256615   1.123   3.062   6.588  0.9176 -0.1716 -0.2387
11734TIP3   OH256616   6.030   2.241   5.258 -0.1582  0.1112 -0.1953
11734TIP3    H156617   5.970   2.204   5.194  0.5989  1.2046 -1.5716
11734TIP3    H256618   5.983   2.234   5.342 -2.4497  1.4167 -1.2793
11735TIP3   OH256619   4.474   5.739   1.487 -0.3706  0.2302  0.3334
11735TIP3    H156620   4.390   5.782   1.468 -0.0731 -0.1340 -2.0666
11735TIP3    H256621   4.523   5.745   1.405  1.4402 -0.7674  1.2888
11736TIP3   OH256622   6.703   1.195   0.807 -0.5213  0.6520 -0.5702
11736TIP3    H156623   6.766   1.209   0.736  2.6691 -0.7503  1.6991
11736TIP3    H256624   6.675   1.104   0.797  0.8556  0.0617  0.4804
11737TIP3   OH256625   3.094   4.004  14.759 -0.3087  0.2053 -0.1027
11737TIP3    H156626   3.024   3.973  14.702 -0.4071 -0.7327  0.5045
11737TIP3    H256627   3.053   4.015  14.845  0.7366 -2.6667  0.8666
11738TIP3   OH256628   5.112   6.420  14.630 -0.5693 -0.1182 -0.0369
11738TIP3    H156629   5.140   6.508  14.657 -0.4014 -0.0276 -0.4872
11738TIP3    H256630   5.182   6.362  14.661 -0.8775 -0.1508  0.6209
11739TIP3   OH256631   2.743   1.567  11.699 -0.2323  0.6845  0.4992
11739TIP3    H156632   2.789   1.650  11.699  2.2273 -0.5892  0.6257
11739TIP3    H256633   2.755   1.533  11.610  1.4337 -0.8422  1.2512
11740TIP3   OH256634   2.706   5.057   5.227 -0.2124 -0.1377  0.3284
11740TIP3    H156635   2.752   5.085   5.148 -1.1019 -0.0299 -0.1667
11740TIP3    H256636   2.735   5.118   5.295  0.4053 -0.1047  0.0360
11741TIP3   OH256637   4.459   3.937   0.022  0.0344  0.3915 -0.3288
11741TIP3    H156638   4.533   3.904  -0.029  0.6065 -0.5816  1.0590
11741TIP3    H256639   4.419   4.003  -0.034  1.1617  0.0079 -1.6522
11742TIP3   OH256640   1.411   0.360   3.046  0.3882 -0.3663  0.7318
11742TIP3    H156641   1.329   0.351   3.093 -0.4216 -0.2196 -0.5933
11742TIP3    H256642   1.463   0.422   3.097 -0.8645  0.5879  0.8794
11743TIP3   OH256643   5.338   3.750   1.619 -0.6831 -0.6183  0.2944
11743TIP3    H156644   5.324   3.844   1.604  1.2963 -0.5689 -1.8038
11743TIP3    H256645   5.323   3.710   1.533 -1.7191 -2.2956  1.2054
11744TIP3   OH256646   2.461   0.893  11.168  0.5337  0.2872 -0.9496
11744TIP3    H156647   2.533   0.830  11.171  0.1887 -0.1114  1.3840
11744TIP3    H256648   2.472   0.939  11.085  2.9708 -0.3389 -1.0519
11745TIP3   OH256649   4.369   5.629   3.735  0.1773  0.7874  0.5513
11745TIP3    H156650   4.407   5.542   3.732 -0.5919  0.3730  1.8519
11745TIP3    H256651   4.407   5.669   3.813 -1.0850  0.7975  1.1931
11746TIP3   OH256652   0.846   5.696   1.276  0.2720 -0.0103  0.3623
11746TIP3    H156653   0.767   5.728   1.233  0.5151  1.4771  0.9617
11746TIP3    H256654   0.814   5.649   1.354 -0.0370  0.5167  0.5586
11747TIP3   OH256655   2.889   4.130   0.793 -0.3851  0.4065 -0.2748
11747TIP3    H156656   2.885   4.109   0.700  0.2232 -2.1575  0.1800
11747TIP3    H256657   2.962   4.192   0.800  1.8476 -1.8905 -1.2305
11748TIP3   OH256658   5.037   0.332  16.701  0.0480  0.0972 -0.2810
11748TIP3    H156659   5.041   0.266  16.632 -0.6289 -0.9639  0.6683
11748TIP3    H256660   5.052   0.284  16.782 -0.7100  1.0715  0.4673
11749TIP3   OH256661   2.165   2.086   4.175  0.2387  0.5250  0.3766
11749TIP3    H156662   2.222   2.123   4.107  1.8935 -1.9262  0.2985
11749TIP3    H256663   2.118   2.016   4.130  1.8868 -1.6135  1.8033
11750TIP3   OH256664   2.611   1.270  15.112 -0.1018 -0.3756 -0.5540
11750TIP3    H156665   2.652   1.208  15.051 -0.3768 -0.3232 -0.7974
11750TIP3    H256666   2.598   1.349  15.060  0.0639 -0.1816 -0.2989
11751TIP3   OH256667   2.075   2.240  11.444  0.3321 -0.5690  0.0830
11751TIP3    H156668   2.138   2.173  11.472  2.0934  0.5697 -0.9261
11751TIP3    H256669   2.095   2.316  11.500  0.6320  0.1531 -0.9794
11752TIP3   OH256670   1.547   1.940  11.897 -0.2989 -0.4570 -0.6874
11752TIP3    H156671   1.638   1.914  11.885 -0.0173  0.2443 -0.1987
11752TIP3    H256672   1.496   1.863  11.872  0.3914 -0.5664 -1.8080
11753TIP3   OH256673   3.630   2.602  13.988 -0.1111  0.1431 -0.1591
11753TIP3    H156674   3.651   2.509  14.002 -1.9703 -0.2711  0.1846
11753TIP3    H256675   3.681   2.627  13.912 -1.4615 -1.9016 -1.8613
11754TIP3   OH256676   3.010   5.446  15.697  0.2085 -0.2176 -0.3238
11754TIP3    H156677   2.992   5.501  15.773  0.7698  0.4402 -0.6565
11754TIP3    H256678   3.105   5.432  15.699  0.1651 -0.5692 -0.6490
11755TIP3   OH256679   3.841   1.165   2.742 -0.4296  0.5312 -0.3839
11755TIP3    H156680   3.895   1.117   2.680 -0.1424  0.5114 -0.1205
11755TIP3    H256681   3.904   1.204   2.804 -0.7640 -0.1611  0.4035
11756TIP3   OH256682   4.949   4.749  16.020 -0.1954  0.0058  0.8020
11756TIP3    H156683   4.909   4.785  16.099  1.1007 -1.0206  1.9887
11756TIP3    H256684   5.044   4.754  16.037  0.0754 -1.4745 -0.0937
11757TIP3   OH256685   2.986   2.772  16.541  0.7630  0.0578 -0.1086
11757TIP3    H156686   3.049   2.736  16.603  1.0460  1.9458  0.7504
11757TIP3    H256687   3.039   2.815  16.474  0.4344  1.2146  0.3461
11758TIP3   OH256688   2.239   0.055  13.367  0.1730  0.8274 -0.1732
11758TIP3    H156689   2.305   0.023  13.427  0.6997  1.8119 -0.2009
11758TIP3    H256690   2.289   0.089  13.292 -0.5023 -2.3741 -2.2833
11759TIP3   OH256691   0.161   1.737  12.714 -0.3356 -0.6303 -0.4562
11759TIP3    H156692   0.256   1.740  12.702 -0.5015 -0.3624 -1.7842
11759TIP3    H256693   0.125   1.747  12.626 -1.6358  1.4640  0.2362
11760TIP3   OH256694   6.388   0.542  15.951 -0.8379 -0.0127 -0.1186
11760TIP3    H156695   6.303   0.584  15.941 -1.3898 -0.8594  0.7699
11760TIP3    H256696   6.371   0.449  15.934 -0.1643 -0.2365  0.3678
11761TIP3   OH256697   2.164   4.084   4.901  0.1128 -0.1993 -0.2940
11761TIP3    H156698   2.083   4.133   4.887  1.3310  2.0403  0.0416
11761TIP3    H256699   2.153   4.043   4.986 -0.4182  0.6557  0.0614
11762TIP3   OH256700   0.049   1.871   4.760 -0.5298 -0.2322  0.1943
11762TIP3    H156701   0.028   1.947   4.814 -2.4097 -0.6284  0.0771
11762TIP3    H256702   0.021   1.796   4.812  0.1360 -0.7801 -0.2231
11763TIP3   OH256703   0.932   6.448   3.878 -0.1138 -0.1539  0.3816
11763TIP3    H156704   1.023   6.418   3.887  0.2824  0.7754 -0.2972
11763TIP3    H256705   0.885   6.371   3.847  0.7494 -0.2891 -0.6802
11764TIP3   OH256706   5.600   0.527   3.657 -0.0366  0.7387 -0.2308
11764TIP3    H156707   5.683   0.494   3.693  0.5911  1.3881 -1.0309
11764TIP3    H256708   5.577   0.465   3.588 -0.0866  0.6994 -0.1791
11765TIP3   OH256709   3.629   3.069  16.955 -0.2104  0.2154 -0.0086
11765TIP3    H156710   3.547   3.063  17.004  0.1962 -0.0834  0.6495
11765TIP3    H256711   3.608   3.032  16.870 -0.8000  0.2800  0.1001
11766TIP3   OH256712   1.418   3.475   1.869  0.0661  0.3737  0.1347
11766TIP3    H156713   1.326   3.486   1.892 -0.1620 -0.1730 -0.4861
11766TIP3    H256714   1.418   3.464   1.774  0.6166 -1.0698  0.2739
11767TIP3   OH256715   4.495   4.122   5.526 -0.0798  0.2945  0.0057
11767TIP3    H156716   4.468   4.141   5.436  0.1919  0.3804 -0.0576
11767TIP3    H256717   4.419   4.146   5.579  0.1464  1.2969 -0.0974
11768TIP3   OH256718   6.605   1.534   1.444 -0.2689  0.1774  0.2919
11768TIP3    H156719   6.617   1.586   1.364 -0.2427 -0.6183 -0.2360
11768TIP3    H256720   6.662   1.458   1.431  1.7332  1.2273  2.1754
11769TIP3   OH256721   0.840   5.471  11.949 -0.2500  0.1329 -0.0716
11769TIP3    H156722   0.829   5.433  12.036 -1.7005 -1.5467 -0.9155
11769TIP3    H256723   0.754   5.508  11.929  0.1930  0.8812 -0.6512
11770TIP3   OH256724   3.468   3.293  16.635  0.1430  0.1916 -0.2984
11770TIP3    H156725   3.448   3.201  16.621 -0.3469  0.3921 -0.9357
11770TIP3    H256726   3.509   3.295  16.722 -1.1295 -0.4405  0.3466
11771TIP3   OH256727   5.447   6.127  11.520  0.3972 -0.4434  0.3479
11771TIP3    H156728   5.461   6.159  11.609 -0.0139  2.0200 -0.3846
11771TIP3    H256729   5.388   6.052  11.530  1.2378 -0.9145  2.1935
11772TIP3   OH256730   5.821   4.488   1.675  0.3922  0.3211 -0.4419
11772TIP3    H156731   5.764   4.473   1.599  0.7465 -0.3707 -0.5789
11772TIP3    H256732   5.806   4.412   1.732 -2.0945  2.1747  1.6376
11773TIP3   OH256733   2.101   4.382   2.952  0.4086  0.4522  0.4184
11773TIP3    H156734   2.077   4.351   3.039  0.0426  0.1320  0.2116
11773TIP3    H256735   2.017   4.395   2.908  0.5372  2.0586  0.5954
11774TIP3   OH256736   3.967   1.664   3.024 -0.0252 -0.5873  0.1184
11774TIP3    H156737   3.989   1.597   3.089  0.7656 -1.9468 -1.5076
11774TIP3    H256738   3.872   1.665   3.022 -0.0998  0.1426  1.9292
11775TIP3   OH256739   0.736   0.427   0.780 -0.7782  0.4197  0.1681
11775TIP3    H156740   0.677   0.393   0.713  0.5062 -0.5411 -0.5269
11775TIP3    H256741   0.766   0.349   0.827 -0.6437  0.9581  0.9908
11776TIP3   OH256742   2.236   0.679   5.212 -0.1112 -0.8992  0.0354
11776TIP3    H156743   2.332   0.683   5.211 -0.0839 -1.4955 -0.7036
11776TIP3    H256744   2.216   0.585   5.208 -0.7327 -0.7473 -0.5681
11777TIP3   OH256745   4.298   0.061  16.054  0.0258 -0.5537  0.6678
11777TIP3    H156746   4.248   0.142  16.055  1.0178  0.1126 -0.4860
11777TIP3    H256747   4.364   0.072  16.122 -1.5632 -1.6015  2.4782
11778TIP3   OH256748   0.244   0.815   3.550 -0.7317  0.2161  0.1132
11778TIP3    H156749   0.198   0.756   3.492 -2.2311 -0.8757  2.2790
11778TIP3    H256750   0.333   0.819   3.515  0.1574 -5.1016  0.9355
11779TIP3   OH256751   0.152   3.604  12.429 -0.1624 -0.7479 -0.0800
11779TIP3    H156752   0.114   3.565  12.508 -0.1534 -0.5749  0.0103
11779TIP3    H256753   0.192   3.530  12.382 -0.3150 -0.8772 -0.0067
11780TIP3   OH256754   5.550   3.010   2.623  0.0958 -0.3632  0.2662
11780TIP3    H156755   5.543   2.915   2.634  0.8441 -0.4346  0.1965
11780TIP3    H256756   5.594   3.021   2.539  1.6217 -0.0101  1.0691
11781TIP3   OH256757   6.059   0.034  11.646  0.0510 -0.0289  0.2420
11781TIP3    H156758   6.118  -0.005  11.582 -1.1409 -0.9237 -0.3410
11781TIP3    H256759   6.102   0.116  11.670  1.1079 -0.2419 -0.7950
11782TIP3   OH256760   1.808   4.438  15.715 -0.3460 -0.0833  0.4108
11782TIP3    H156761   1.820   4.354  15.761  0.9001  0.1478  0.5335
11782TIP3    H256762   1.713   4.447  15.708 -0.5628 -0.6208  2.0541
11783TIP3   OH256763   2.780   6.037   5.883 -0.3855  0.0364  0.7299
11783TIP3    H156764   2.761   6.065   5.973 -2.9892  2.1725 -0.3689
11783TIP3    H256765   2.831   6.109   5.846  1.8775 -1.4253  0.7692
11784TIP3   OH256766   1.671   3.227   0.265 -0.6597 -0.8626 -1.2163
11784TIP3    H156767   1.679   3.201   0.357 -0.0405 -1.0964 -1.3302
11784TIP3    H256768   1.580   3.255   0.256 -0.5273 -0.1321 -0.3570
11785TIP3   OH256769   4.026   0.132   2.505  0.6027 -0.4812  0.1440
11785TIP3    H156770   3.997   0.054   2.459 -1.2406 -1.3001  2.5136
11785TIP3    H256771   3.977   0.132   2.587  1.3755  2.5729  0.7405
11786TIP3   OH256772   3.753   4.258   2.250  0.2152  0.1673 -0.2988
11786TIP3    H156773   3.667   4.217   2.242  0.6168 -0.4609 -1.6348
11786TIP3    H256774   3.785   4.230   2.336 -0.6403 -0.0892 -0.0497
11787TIP3   OH256775   5.873   1.321  15.464  0.1495  0.2994 -0.3383
11787TIP3    H156776   5.804   1.256  15.476 -0.1068  0.4915 -0.7477
11787TIP3    H256777   5.870   1.342  15.370  0.3518  0.7673 -0.2428
11788TIP3   OH256778   2.915   1.844   0.303  0.2293 -0.1212 -0.5199
11788TIP3    H156779   2.862   1.830   0.225  0.8114  2.2447 -1.4273
11788TIP3    H256780   3.005   1.852   0.271  1.1859 -3.4318  0.9230
11789TIP3   OH256781   3.732   1.720   5.497 -0.3723  0.2331 -0.3569
11789TIP3    H156782   3.755   1.780   5.568 -0.6994  3.3781 -2.6962
11789TIP3    H256783   3.815   1.675   5.478  0.6177  1.8683 -0.1807
11790TIP3   OH256784   3.901   5.003  13.890  0.2206  0.2496 -0.2440
11790TIP3    H156785   3.977   5.028  13.837  0.3522  1.0140  0.2924
11790TIP3    H256786   3.938   4.966  13.970  0.0295  0.6340  0.0240
11791TIP3   OH256787   2.467   1.049  12.765 -0.2362 -0.8461 -0.3222
11791TIP3    H156788   2.530   1.121  12.763  0.3085 -1.2940  0.3086
11791TIP3    H256789   2.464   1.023  12.857 -0.5587 -1.5220 -0.5211
11792TIP3   OH256790   5.247   4.342  12.267 -0.6850 -0.1493 -0.0786
11792TIP3    H156791   5.337   4.374  12.262 -0.0982 -1.5600  0.6706
11792TIP3    H256792   5.194   4.420  12.280  0.4756  0.6709 -0.1050
11793TIP3   OH256793   2.144   5.736  15.988  0.0366 -0.3480 -0.3422
11793TIP3    H156794   2.218   5.761  15.934  0.8858 -1.4545  0.2614
11793TIP3    H256795   2.125   5.813  16.042 -0.2378  0.4491 -1.5422
11794TIP3   OH256796   4.795   3.469   2.683 -0.0326  0.8806 -1.2284
11794TIP3    H156797   4.830   3.412   2.751 -0.9198  2.0659  0.3054
11794TIP3    H256798   4.715   3.425   2.654 -0.7897  1.3541  0.0461
11795TIP3   OH256799   4.405   4.585  15.731  0.5592  0.2540  0.4186
11795TIP3    H156800   4.494   4.616  15.714  0.9694 -0.5380  1.0763
11795TIP3    H256801   4.349   4.642  15.677  1.5364  0.0822 -0.8094
11796TIP3   OH256802   2.898   4.616  10.671 -0.0700 -0.1867 -0.5601
11796TIP3    H156803   2.854   4.644  10.751  0.4066  1.2321 -0.7729
11796TIP3    H256804   2.987   4.650  10.679 -0.1928  0.5165 -1.9664
11797TIP3   OH256805   5.594   3.449  16.885 -0.7809 -0.3150 -0.2463
11797TIP3    H156806   5.560   3.382  16.944 -0.3500  0.1845  0.6084
11797TIP3    H256807   5.684   3.422  16.868 -1.3266 -1.2160 -1.8601
11798TIP3   OH256808   5.067   0.912  13.539  0.1937 -0.1178 -0.2340
11798TIP3    H156809   5.031   0.952  13.460 -1.0642 -1.8167 -0.5805
11798TIP3    H256810   5.136   0.854  13.506  0.6553  0.2511  0.0729
11799TIP3   OH256811   0.837   1.759   5.201 -0.3428 -0.1410  0.2212
11799TIP3    H156812   0.899   1.686   5.196  0.6362  0.6635  0.3049
11799TIP3    H256813   0.870   1.822   5.137  0.1099  1.1691  1.6991
11800TIP3   OH256814   1.800   1.754   5.597 -0.3526  0.3835  0.0759
11800TIP3    H156815   1.807   1.669   5.640  4.4329  0.1292 -0.6912
11800TIP3    H256816   1.775   1.733   5.506 -0.0380 -0.1220  0.1045
11801TIP3   OH256817   2.869   2.377  15.691  0.1318 -0.0431 -0.3797
11801TIP3    H156818   2.877   2.418  15.777  0.4144 -0.7263 -0.0693
11801TIP3    H256819   2.809   2.304  15.705  0.9438 -0.7586 -0.5277
11802TIP3   OH256820   0.962   2.580   5.806 -0.0815 -0.0968  0.3097
11802TIP3    H156821   0.947   2.613   5.895  0.0237  1.4365 -0.1962
11802TIP3    H256822   0.895   2.514   5.793 -1.8410  1.5341  0.6316
11803TIP3   OH256823   0.497   4.806   6.188 -0.2494  0.7994  0.0278
11803TIP3    H156824   0.527   4.862   6.117 -2.6324  0.7929 -1.0877
11803TIP3    H256825   0.525   4.718   6.164 -0.1816  0.9356 -0.3903
11804TIP3   OH256826   1.211   5.289  12.162 -0.0841  0.1162 -0.5115
11804TIP3    H156827   1.230   5.299  12.069 -2.0382  1.9884 -0.8056
11804TIP3    H256828   1.250   5.206  12.187  1.9332  0.3568 -2.5951
11805TIP3   OH256829   3.534   1.121  16.234 -0.1402  0.1541 -0.3089
11805TIP3    H156830   3.508   1.130  16.325 -1.7098  0.1954 -0.7361
11805TIP3    H256831   3.583   1.202  16.215 -2.3669  1.5802 -0.3011
11806TIP3   OH256832   3.903   1.201  11.882 -0.8341 -1.0191 -0.0410
11806TIP3    H156833   3.890   1.151  11.802  0.0117 -2.1965  0.5271
11806TIP3    H256834   3.980   1.161  11.923  0.7798  1.6644 -0.2464
11807TIP3   OH256835   3.816   5.309   5.100 -0.0040 -0.5248 -0.2139
11807TIP3    H156836   3.816   5.261   5.182  0.5247  1.9702  1.3695
11807TIP3    H256837   3.751   5.379   5.113  0.8760  0.5872 -1.4685
11808TIP3   OH256838   1.525   1.122   0.081  0.3888  0.2856  0.2485
11808TIP3    H156839   1.471   1.051   0.045 -0.0171  1.4002 -1.4674
11808TIP3    H256840   1.613   1.085   0.085 -0.0395 -0.7465  0.6719
11809TIP3   OH256841   0.171   2.850   0.387  0.0728 -0.0093  0.2570
11809TIP3    H156842   0.203   2.788   0.453  0.1069  0.9700  1.1876
11809TIP3    H256843   0.098   2.805   0.345 -0.0610 -0.5907  1.0865
11810TIP3   OH256844   1.127   0.556  14.982  0.0219 -0.0087 -0.3467
11810TIP3    H156845   1.163   0.629  15.031  0.6621 -0.7996  0.3873
11810TIP3    H256846   1.178   0.554  14.901  0.3809  0.0264 -0.1253
11811TIP3   OH256847   4.996   1.591   5.740 -0.2306 -0.2230  0.1117
11811TIP3    H156848   5.068   1.646   5.770 -0.5933  0.4547 -0.2607
11811TIP3    H256849   4.969   1.542   5.818  0.5174 -0.3550  0.2916
11812TIP3   OH256850   4.935   5.098   1.460 -0.1235 -0.7119 -0.2901
11812TIP3    H156851   4.863   5.065   1.406 -0.7298 -2.0554  1.2576
11812TIP3    H256852   4.960   5.181   1.418 -1.3013 -1.1369 -1.9478
11813TIP3   OH256853   4.035   2.487  14.697  0.2096 -1.0587 -0.6043
11813TIP3    H156854   4.122   2.503  14.661  0.9200 -2.4962  0.4151
11813TIP3    H256855   4.046   2.494  14.792 -1.4041  1.5294 -0.4872
11814TIP3   OH256856   5.601   4.257  15.661 -0.5574 -0.0696  0.3266
11814TIP3    H156857   5.599   4.193  15.590 -0.5360 -0.0465  0.3052
11814TIP3    H256858   5.509   4.275  15.681 -0.5830  0.8631 -0.5485
11815TIP3   OH256859   4.649   3.793  11.370  0.0297 -0.3525  0.5506
11815TIP3    H156860   4.720   3.757  11.423  0.1605 -1.3006 -0.2366
11815TIP3    H256861   4.666   3.760  11.281  0.4065  2.0334 -0.3377
11816TIP3   OH256862   1.563   4.466   5.729 -0.0917  0.7002  0.1162
11816TIP3    H156863   1.494   4.520   5.690 -0.2666  1.9359  1.9931
11816TIP3    H256864   1.591   4.515   5.807  1.0166 -1.0778  0.9079
11817TIP3   OH256865   5.736   0.815  13.122  0.2338  0.2807  0.2878
11817TIP3    H156866   5.824   0.802  13.157 -0.1210  1.0198  1.4923
11817TIP3    H256867   5.694   0.729  13.130  0.9521 -0.1824 -0.6656
11818TIP3   OH256868   2.664   5.701  11.616 -0.1002 -0.8066 -0.1787
11818TIP3    H156869   2.635   5.713  11.526  0.6818 -1.2141 -0.4911
11818TIP3    H256870   2.760   5.705  11.611 -0.0645  1.5137  0.9569
11819TIP3   OH256871   2.805   0.194  13.120 -0.5728  0.1000 -0.0389
11819TIP3    H156872   2.869   0.214  13.188 -0.1723  1.3216 -0.7356
11819TIP3    H256873   2.732   0.152  13.167  0.9513 -1.8801  0.6784
11820TIP3   OH256874   3.022   4.099   3.189 -0.1746 -0.4407 -0.2832
11820TIP3    H156875   2.976   4.049   3.121  0.7608  2.2503 -3.1389
11820TIP3    H256876   3.114   4.096   3.162  0.6332 -1.2178  2.2875
11821TIP3   OH256877   3.391   3.623  11.624  0.2159 -0.1506  0.2929
11821TIP3    H156878   3.325   3.562  11.656 -1.5873  1.1308 -0.8125
11821TIP3    H256879   3.469   3.603  11.675 -1.2228 -1.2345  2.1758
11822TIP3   OH256880   4.505   1.981   6.060  0.1625 -0.4986  0.2164
11822TIP3    H156881   4.464   1.983   6.146 -1.3461  3.2064 -0.4115
11822TIP3    H256882   4.577   2.044   6.066  1.7683 -2.1735 -0.5456
11823TIP3   OH256883   2.672   6.721   4.277 -0.0946 -0.2967  0.1528
11823TIP3    H156884   2.716   6.649   4.321  0.1804 -0.5302 -0.4915
11823TIP3    H256885   2.695   6.711   4.185 -2.1748 -0.9312 -0.3515
11824TIP3   OH256886   2.008   2.524  11.988  0.1019  0.0462  0.0406
11824TIP3    H156887   1.945   2.478  12.043  0.4582  0.3887  0.7450
11824TIP3    H256888   2.093   2.502  12.024  0.3394  0.3209 -0.3398
11825TIP3   OH256889   4.415   4.832   0.400  0.1545  0.2211  0.3949
11825TIP3    H156890   4.446   4.922   0.412  0.6918 -0.0934  1.5177
11825TIP3    H256891   4.323   4.834   0.425  0.2987  0.3624  0.9234
11826TIP3   OH256892   1.585   4.521   0.087 -0.4425 -0.3217 -0.3659
11826TIP3    H156893   1.612   4.489   0.174  0.4295  3.1427  0.7853
11826TIP3    H256894   1.666   4.544   0.043 -1.0045  0.6478 -0.9392
11827TIP3   OH256895   1.778   3.161   3.469  0.4180 -0.2399 -1.0951
11827TIP3    H156896   1.830   3.230   3.428 -0.4835 -0.3547 -2.5215
11827TIP3    H256897   1.842   3.102   3.508  1.2806  0.4167 -1.4881
11828TIP3   OH256898   1.328   2.368  14.420 -0.5079  1.1733  0.5057
11828TIP3    H156899   1.371   2.314  14.486  0.1938  2.7246  1.3520
11828TIP3    H256900   1.254   2.314  14.390  0.9506 -0.8239  0.2960
11829TIP3   OH256901   3.129   5.715   5.129  0.6680  0.1021  0.1765
11829TIP3    H156902   3.048   5.760   5.150 -0.0850 -0.2253 -1.8160
11829TIP3    H256903   3.103   5.625   5.111  1.0431  0.5057 -2.8173
11830TIP3   OH256904   5.735   3.162  16.707  0.1974 -0.2393  0.0540
11830TIP3    H156905   5.657   3.109  16.723 -0.0236  0.0353 -0.1088
11830TIP3    H256906   5.783   3.162  16.790 -0.1635 -0.0999  0.2627
11831TIP3   OH256907   3.350   6.028  10.687 -0.3955  0.5151  0.4545
11831TIP3    H156908   3.263   6.006  10.655 -0.4873  0.9836  0.3661
11831TIP3    H256909   3.338   6.109  10.737 -0.0931  0.3077  0.8630
11832TIP3   OH256910   3.986   5.994   4.866 -0.0754 -0.0166  0.1275
11832TIP3    H156911   4.031   5.923   4.911  0.8196  0.2541 -0.3156
11832TIP3    H256912   4.004   6.072   4.920  2.5285  0.6663 -1.5473
11833TIP3   OH256913   3.375   0.961   4.156  0.2276 -0.0701 -1.1156
11833TIP3    H156914   3.340   0.970   4.068 -0.8400  2.6956 -0.5130
11833TIP3    H256915   3.454   1.015   4.156  0.7007 -0.7456 -0.6056
11834TIP3   OH256916   3.552   2.694   4.325  0.4045  0.0595  0.4296
11834TIP3    H156917   3.601   2.633   4.380  1.1192  0.4060  0.1955
11834TIP3    H256918   3.620   2.749   4.285 -0.2634  1.6486  1.3890
11835TIP3   OH256919   3.963   4.310   5.184  0.2758  0.2363  0.9992
11835TIP3    H156920   3.873   4.283   5.165  0.7666 -0.4671 -0.5625
11835TIP3    H256921   3.962   4.405   5.175 -0.1179  0.1504 -0.0288
11836TIP3   OH256922   2.848   5.328   0.202 -0.6446  0.1139 -0.4047
11836TIP3    H156923   2.766   5.371   0.180 -0.3883  0.4288 -0.7590
11836TIP3    H256924   2.913   5.369   0.145 -0.1992  0.0252  0.0309
11837TIP3   OH256925   6.155   5.766   4.612 -0.8915 -0.0500 -0.2616
11837TIP3    H156926   6.084   5.831   4.605  0.9248  2.2851  1.3276
11837TIP3    H256927   6.223   5.799   4.553 -0.1114 -0.7925  0.2144
11838TIP3   OH256928   0.578   3.377   2.227 -0.2256  0.1445 -0.7967
11838TIP3    H156929   0.662   3.340   2.256  0.0332  1.8330  0.7705
11838TIP3    H256930   0.514   3.310   2.251  0.4242 -0.1415  0.2128
11839TIP3   OH256931   0.240   5.247  12.296 -0.1746  0.1297  0.2950
11839TIP3    H156932   0.192   5.230  12.215  0.1436  1.1171 -0.1081
11839TIP3    H256933   0.275   5.335  12.286  1.5140 -0.4654  0.6872
11840TIP3   OH256934   0.721   0.283  15.409 -0.0290  0.0278  0.5533
11840TIP3    H156935   0.679   0.304  15.492 -0.9441  0.4191  0.0038
11840TIP3    H256936   0.649   0.277  15.346  0.6656 -0.0461 -0.2540
11841TIP3   OH256937   4.101   5.112  14.548 -0.4269 -0.1325 -0.3954
11841TIP3    H156938   4.118   5.068  14.631  0.1402 -0.9791 -0.9446
11841TIP3    H256939   4.131   5.202  14.563 -0.9653 -0.0924  0.5224
11842TIP3   OH256940   2.319   4.947  13.862 -0.3483 -0.0806 -0.6013
11842TIP3    H156941   2.331   5.029  13.910 -1.7275 -0.9365  1.3591
11842TIP3    H256942   2.395   4.894  13.884  0.2096  0.4132 -1.3224
11843TIP3   OH256943   5.499   3.782  11.986  0.3966  0.3212 -0.3989
11843TIP3    H156944   5.485   3.818  11.898  0.6221 -0.0246 -0.5832
11843TIP3    H256945   5.564   3.713  11.972 -1.2140 -1.2810 -0.3441
11844TIP3   OH256946   5.078   6.064   1.319  0.4464  0.1324 -0.2520
11844TIP3    H156947   5.020   6.135   1.292 -2.3749 -2.2471 -0.9841
11844TIP3    H256948   5.019   5.994   1.348  3.0347 -1.9796  0.3479
11845TIP3   OH256949   3.269   5.730  10.785  0.4659  0.3242  0.0533
11845TIP3    H156950   3.225   5.802  10.739 -0.3793 -0.4418 -0.3666
11845TIP3    H256951   3.260   5.655  10.726 -0.6540 -0.6896  1.4334
11846TIP3   OH256952   1.107   6.263   1.718  0.1472  0.0365  0.4174
11846TIP3    H156953   1.049   6.316   1.663  1.6476  0.9696 -0.3498
11846TIP3    H256954   1.141   6.325   1.784  0.2838 -0.4788  0.8391
11847TIP3   OH256955   2.137   3.229   0.006  0.2785  0.3206  0.1821
11847TIP3    H156956   2.183   3.170  -0.054  1.1962  1.2543 -0.0780
11847TIP3    H256957   2.124   3.309  -0.046 -2.6060 -0.2340 -0.1049
11848TIP3   OH256958   0.673   3.136  12.945 -0.5585  0.1857 -0.1777
11848TIP3    H156959   0.767   3.131  12.932 -0.7322  0.6082 -1.7667
11848TIP3    H256960   0.636   3.081  12.876 -1.4557 -1.6385  1.6381
11849TIP3   OH256961   4.889   1.118  12.988  0.2676  0.3046 -0.7508
11849TIP3    H156962   4.940   1.128  12.907  1.3646 -1.8455 -0.3960
11849TIP3    H256963   4.952   1.134  13.058  0.3606 -1.7157 -0.3143
11850TIP3   OH256964   2.080   1.586   5.479  0.1362  0.7048  0.2529
11850TIP3    H156965   2.009   1.643   5.452 -0.5883 -0.2220  0.1579
11850TIP3    H256966   2.089   1.523   5.407 -2.4135 -2.3868  2.3370
11851TIP3   OH256967   2.876   2.749   5.562  0.5728  0.2259  0.3999
11851TIP3    H156968   2.905   2.728   5.473  1.7885  2.0760  0.3035
11851TIP3    H256969   2.834   2.835   5.554 -1.5571 -0.6618  1.2332
11852TIP3   OH256970   2.269   4.534  14.367  0.0740  0.2338  0.3814
11852TIP3    H156971   2.360   4.558  14.352 -0.4445  2.1322 -0.0410
11852TIP3    H256972   2.234   4.517  14.280 -0.3799  1.2208  0.3523
11853TIP3   OH256973   4.687   4.716  12.976 -0.1317  0.2984  0.0113
11853TIP3    H156974   4.736   4.737  12.896 -0.5594  2.8948  0.3352
11853TIP3    H256975   4.596   4.707  12.947  0.2115 -3.2502 -0.3894
11854TIP3   OH256976   3.814   0.047   1.696 -0.1774 -0.1944 -0.3092
11854TIP3    H156977   3.772   0.091   1.769 -0.5703  0.5844 -0.9856
11854TIP3    H256978   3.895   0.009   1.732  0.0878  0.9555  0.3190
11855TIP3   OH256979   2.493   5.884   2.297  0.0694 -0.0459  0.1382
11855TIP3    H156980   2.409   5.840   2.306 -0.4559  0.7677 -0.6616
11855TIP3    H256981   2.521   5.902   2.387 -0.1215 -1.2113  0.4442
11856TIP3   OH256982   4.779   4.136  16.239  0.1338 -0.7553 -0.5023
11856TIP3    H156983   4.737   4.202  16.185  2.0726  1.4208  0.4594
11856TIP3    H256984   4.835   4.087  16.178  0.5630  0.1533 -0.8556
11857TIP3   OH256985   3.426   2.533  14.309  0.5581  0.0045 -0.1668
11857TIP3    H156986   3.353   2.593  14.296  0.1616 -0.3162  0.5394
11857TIP3    H256987   3.483   2.577  14.372 -0.2644 -0.8033  1.1717
11858TIP3   OH256988   6.242   1.926   0.462 -0.5260  0.2622  0.4694
11858TIP3    H156989   6.322   1.976   0.443 -0.7015  0.5419  0.4562
11858TIP3    H256990   6.269   1.861   0.527  0.5790 -2.0641 -2.1053
11859TIP3   OH256991   5.900   5.892  12.193 -0.4057 -0.4171  0.0169
11859TIP3    H156992   5.910   5.883  12.098 -2.4316 -0.8490 -0.2004
11859TIP3    H256993   5.989   5.901  12.226  0.3100  0.5069 -1.9997
11860TIP3   OH256994   5.257   2.628  11.993  0.1131  0.0733 -0.1851
11860TIP3    H156995   5.217   2.678  12.064  3.1943  1.4168  0.7634
11860TIP3    H256996   5.351   2.631  12.011  0.7454 -2.8504 -2.2464
11861TIP3   OH256997   5.592   1.535  15.261 -0.4956 -0.1419  0.0591
11861TIP3    H156998   5.684   1.552  15.241 -0.1246 -0.1660  1.5799
11861TIP3    H256999   5.591   1.520  15.356 -1.8656 -1.4777 -0.1272
11862TIP3   OH257000   0.514   4.406   5.323  0.5005  0.5034 -0.1033
11862TIP3    H157001   0.602   4.434   5.350  1.4548 -0.9094 -1.5598
11862TIP3    H257002   0.464   4.402   5.405  1.7739  1.3325  0.7621
11863TIP3   OH257003   1.647   2.729  13.172  0.0137 -0.5958 -0.1388
11863TIP3    H157004   1.670   2.804  13.118 -1.1777  0.0004  0.1476
11863TIP3    H257005   1.731   2.692  13.199  0.6923  1.5361  0.9552
11864TIP3   OH257006   3.117   2.516  15.536  1.1224  0.4094  0.8829
11864TIP3    H157007   3.085   2.457  15.605  1.3818 -0.9281 -0.0958
11864TIP3    H257008   3.168   2.582  15.583  0.0552  0.4193  2.1059
11865TIP3   OH257009   0.159   5.344   5.230 -0.0482  0.3028 -0.0127
11865TIP3    H157010   0.226   5.298   5.181 -0.9686  0.1126 -1.1447
11865TIP3    H257011   0.202   5.370   5.311  1.2056 -0.3303 -0.4472
11866TIP3   OH257012   2.020   5.869  10.383 -0.6072 -0.5499 -0.0471
11866TIP3    H157013   2.001   5.944  10.439  1.3439 -0.8560  1.0965
11866TIP3    H257014   1.955   5.804  10.408 -0.9706 -0.0026  0.4603
11867TIP3   OH257015   4.619   4.433   4.776 -0.0186 -0.0233 -0.1366
11867TIP3    H157016   4.543   4.475   4.817  0.1844  0.2365 -0.0264
11867TIP3    H257017   4.665   4.505   4.732  0.0835 -0.2041 -0.3285
11868TIP3   OH257018   5.388   1.285   4.510 -0.2965  0.0713  0.4336
11868TIP3    H157019   5.472   1.326   4.490  0.1031 -0.4735  0.9690
11868TIP3    H257020   5.377   1.218   4.443  0.2985 -0.6935  1.0758
11869TIP3   OH257021   3.204   5.759   0.906 -0.0813  0.4922 -0.2319
11869TIP3    H157022   3.235   5.849   0.913 -1.9214  1.3113 -1.7363
11869TIP3    H257023   3.193   5.730   0.997  1.4377  1.4128  0.2765
11870TIP3   OH257024   4.319   6.590   1.355  0.0271 -0.5201 -0.3307
11870TIP3    H157025   4.322   6.661   1.290 -0.6597 -0.4844 -0.3312
11870TIP3    H257026   4.262   6.622   1.424  0.7980 -0.5418  0.3256
11871TIP3   OH257027   1.851   5.537   2.608  0.2467  0.2574 -0.6484
11871TIP3    H157028   1.770   5.486   2.618 -0.4658  1.4733  0.1002
11871TIP3    H257029   1.822   5.621   2.570  1.1545  0.6952 -0.4052
11872TIP3   OH257030   3.773   0.334   5.982  0.0521 -0.1880  0.2858
11872TIP3    H157031   3.783   0.275   6.056  2.9703 -0.6277 -0.3415
11872TIP3    H257032   3.801   0.420   6.016 -3.2523  0.7832  0.9269
11873TIP3   OH257033   4.670   5.099  14.122 -0.6196 -0.0683 -0.1115
11873TIP3    H157034   4.758   5.066  14.136 -1.1914 -1.5791  0.1502
11873TIP3    H257035   4.650   5.150  14.200  0.4004  1.2347 -0.6619
11874TIP3   OH257036   0.976   3.985   5.767  0.1978 -0.2614  0.0488
11874TIP3    H157037   0.990   4.042   5.691 -0.6264 -0.5950 -0.3629
11874TIP3    H257038   1.033   4.021   5.835 -0.0566  0.8515 -0.3136
11875TIP3   OH257039   3.144   3.003   1.665  0.3398  0.2462 -0.5032
11875TIP3    H157040   3.168   3.096   1.662  0.8194  0.0919 -2.2008
11875TIP3    H257041   3.053   3.001   1.638 -0.2351  0.3684  1.3099
11876TIP3   OH257042   4.581   6.478  12.533 -0.5379 -0.4094 -0.4294
11876TIP3    H157043   4.604   6.517  12.448 -1.1479  0.0367 -0.3984
11876TIP3    H257044   4.645   6.407  12.545 -0.2145 -0.2402 -1.0875
11877TIP3   OH257045   2.432   0.339  13.564  0.2898  0.1039  0.6881
11877TIP3    H157046   2.477   0.322  13.482  1.2193 -0.3422  1.2687
11877TIP3    H257047   2.415   0.252  13.601 -2.5417  0.1594 -0.2594
11878TIP3   OH257048   2.259   2.434   1.571 -0.1978  0.3099 -0.0251
11878TIP3    H157049   2.245   2.528   1.562 -1.1035  0.0915 -1.1814
11878TIP3    H257050   2.341   2.426   1.620 -0.4352  1.6830  0.6237
11879TIP3   OH257051   5.152   2.516   0.023  0.3616 -0.3592 -0.4510
11879TIP3    H157052   5.075   2.480  -0.021 -0.1848 -1.3081  1.1894
11879TIP3    H257053   5.220   2.449   0.014  0.4280 -0.3052 -0.3590
11880TIP3   OH257054   4.882   4.356   2.434  0.2023 -0.4593  0.2633
11880TIP3    H157055   4.900   4.262   2.425 -0.2260 -0.5063 -0.1697
11880TIP3    H257056   4.787   4.363   2.421  0.2649  0.0581  0.0784
11881TIP3   OH257057   2.911   0.477   4.126  0.0005 -0.0873 -0.1744
11881TIP3    H157058   2.957   0.501   4.046  0.1715 -0.4403 -0.1854
11881TIP3    H257059   2.917   0.381   4.129  1.0861 -0.0012  0.9131
11882TIP3   OH257060   6.761   2.218   4.698 -0.2919  0.4138 -0.3050
11882TIP3    H157061   6.828   2.213   4.766 -0.2122  0.1697 -0.3981
11882TIP3    H257062   6.705   2.291   4.723 -1.4491 -0.8947  1.1027
11883TIP3   OH257063   0.426   0.969  11.217 -0.5716  0.1454  0.0181
11883TIP3    H157064   0.340   0.932  11.199 -1.3580  2.1982 -0.6962
11883TIP3    H257065   0.469   0.974  11.132 -0.3186  0.4623  0.1598
11884TIP3   OH257066   1.947   4.768   0.922 -0.3076  0.5528 -0.2165
11884TIP3    H157067   1.875   4.756   0.860 -0.6986 -1.1331  0.4876
11884TIP3    H257068   1.915   4.834   0.984 -0.8969  0.4809 -0.4397
11885TIP3   OH257069   3.522   3.193   1.479  0.1711  0.3477  0.3425
11885TIP3    H157070   3.450   3.164   1.423 -0.4138  0.8840  0.8202
11885TIP3    H257071   3.571   3.254   1.424  1.5469 -1.6152 -0.7626
11886TIP3   OH257072   5.333   4.609   4.950 -0.3847  0.1598 -0.6711
11886TIP3    H157073   5.367   4.520   4.944  1.0160  0.6132  0.0521
11886TIP3    H257074   5.245   4.604   4.913 -0.5631 -1.6432 -0.0789
11887TIP3   OH257075   4.950   3.302   0.765  0.3891  0.0215  0.1681
11887TIP3    H157076   5.028   3.352   0.741  0.1059 -0.4580 -2.0223
11887TIP3    H257077   4.877   3.361   0.746  0.0999 -0.8075 -1.5314
11888TIP3   OH257078   4.692   4.466  11.999 -0.0241  0.4779 -0.5278
11888TIP3    H157079   4.624   4.421  11.949  0.6623  2.9076 -4.0975
11888TIP3    H257080   4.757   4.399  12.018 -2.2389 -1.3960  0.8772
11889TIP3   OH257081   6.023   4.317   1.907 -0.5947  0.3701 -0.1388
11889TIP3    H157082   6.065   4.238   1.876  0.3912  0.7195  0.2672
11889TIP3    H257083   5.959   4.339   1.839  0.0940  0.0013 -0.9094
11890TIP3   OH257084   5.879   2.165   4.453 -0.2387 -0.1543  0.0119
11890TIP3    H157085   5.850   2.225   4.384 -0.4118 -0.6680 -0.3663
11890TIP3    H257086   5.948   2.214   4.498 -0.6618  0.4919 -0.0215
11891TIP3   OH257087   0.282   5.473  13.656 -0.0254 -1.2174  0.4283
11891TIP3    H157088   0.238   5.471  13.741  0.0200  1.0110  0.5768
11891TIP3    H257089   0.288   5.382  13.629 -1.7064 -1.8343  1.9598
11892TIP3   OH257090   0.099   6.646   0.308  0.7782 -0.8008 -0.7968
11892TIP3    H157091   0.097   6.705   0.233  2.8221  0.6211  0.1795
11892TIP3    H257092   0.027   6.675   0.364  1.0411  0.0233 -0.8774
11893TIP3   OH257093   4.064   0.271  12.888 -0.4428 -0.6855  0.1468
11893TIP3    H157094   4.087   0.183  12.917 -0.2421 -1.3285 -1.7883
11893TIP3    H257095   4.114   0.330  12.945  0.9235 -1.8826  0.2125
11894TIP3   OH257096   6.000   0.026   3.255  0.0201 -0.2754 -0.1216
11894TIP3    H157097   6.037  -0.047   3.304 -0.5404 -0.2232  0.3894
11894TIP3    H257098   5.916  -0.006   3.224  0.3184 -0.2622 -0.9487
11895TIP3   OH257099   0.304   2.401  12.231 -0.3124  0.3019  0.0696
11895TIP3    H157100   0.283   2.377  12.321  1.8280  1.4704  0.9715
11895TIP3    H257101   0.224   2.440  12.197 -1.2370 -0.3853  1.3819
11896TIP3   OH257102   5.426   2.455  15.741 -0.1431 -0.1560 -0.2882
11896TIP3    H157103   5.460   2.392  15.805  0.8015 -0.1779 -0.7975
11896TIP3    H257104   5.402   2.531  15.794 -0.6731 -0.6806  0.2513
11897TIP3   OH257105   1.233   1.447   1.671 -0.3977  0.2509 -0.3722
11897TIP3    H157106   1.325   1.441   1.647 -0.5249  0.8700 -1.0726
11897TIP3    H257107   1.187   1.398   1.603 -0.7042  1.3671 -0.9934
11898TIP3   OH257108   2.915   1.465  16.272 -0.5155  0.5093 -0.1022
11898TIP3    H157109   2.871   1.383  16.296 -0.2969 -0.2754 -2.1825
11898TIP3    H257110   3.007   1.450  16.296 -0.8800  1.2140  1.9617
11899TIP3   OH257111   5.296   2.814  12.939  0.1954  0.3170 -0.1382
11899TIP3    H157112   5.364   2.784  12.878 -0.1166 -2.3599  0.7064
11899TIP3    H257113   5.308   2.760  13.017 -0.7127  2.2450  1.4339
11900TIP3   OH257114   1.559   4.862  14.329  0.0793 -0.2696  0.6237
11900TIP3    H157115   1.467   4.884  14.344  0.0480  0.5856 -0.6526
11900TIP3    H257116   1.572   4.879  14.235  1.1843 -1.6956  0.4955
11901TIP3   OH257117   5.269   3.963   3.887 -0.2795 -0.2272  0.3319
11901TIP3    H157118   5.365   3.961   3.880 -0.3795 -0.9264 -1.2131
11901TIP3    H257119   5.244   3.870   3.892 -0.8197 -0.0283  2.3172
11902TIP3   OH257120   5.887   0.637   5.549  0.0929  0.2584 -0.2355
11902TIP3    H157121   5.905   0.627   5.643 -0.7674 -2.4885 -0.2610
11902TIP3    H257122   5.969   0.613   5.506  0.0899  0.1365 -0.1765
11903TIP3   OH257123   5.705   6.157   2.077 -0.0170  0.2111 -0.2781
11903TIP3    H157124   5.771   6.089   2.069 -2.1703 -2.0431  0.1410
11903TIP3    H257125   5.644   6.142   2.005 -1.5815  0.4408  0.9259
11904TIP3   OH257126   3.901   3.019  13.581 -0.1982 -0.5856  0.0917
11904TIP3    H157127   3.973   3.044  13.639 -0.7180  0.5236  0.2809
11904TIP3    H257128   3.930   2.936  13.542  1.5183  0.2011 -0.4178
11905TIP3   OH257129   4.611   1.391  10.427 -0.1780 -0.4112  0.3635
11905TIP3    H157130   4.661   1.432  10.357 -0.4035  0.3161  0.6241
11905TIP3    H257131   4.653   1.419  10.508 -1.7152  1.2400  0.6521
11906TIP3   OH257132   6.482   4.000  13.481  0.0967 -0.0886 -0.2920
11906TIP3    H157133   6.463   4.085  13.441  0.9583  0.2997  0.0996
11906TIP3    H257134   6.575   3.985  13.461  0.1611 -0.5546  0.3351
11907TIP3   OH257135   0.601   3.716   0.755  0.1047  0.2475 -0.3557
11907TIP3    H157136   0.656   3.764   0.694  1.4532  0.4060  0.9346
11907TIP3    H257137   0.579   3.779   0.823 -0.5150 -0.1958 -0.1362
11908TIP3   OH257138   5.270   2.108   4.817 -0.0871 -0.2584  0.0851
11908TIP3    H157139   5.351   2.144   4.854 -0.5953 -0.1822  1.1362
11908TIP3    H257140   5.259   2.024   4.862 -0.9875  0.0706  0.4930
11909TIP3   OH257141   3.356   0.921   6.142 -0.0747  0.0914  0.0195
11909TIP3    H157142   3.295   0.929   6.068 -1.4215 -1.5850  0.8796
11909TIP3    H257143   3.349   0.829   6.168 -0.0044  0.7532  2.5512
11910TIP3   OH257144   0.805   1.907  16.925  0.1471  0.6202 -0.6083
11910TIP3    H157145   0.775   1.853  16.998 -1.0629  2.1332  0.0626
11910TIP3    H257146   0.788   1.853  16.847  2.4483 -1.4577  0.1909
11911TIP3   OH257147   5.092   0.195   0.075 -0.0904 -0.5027  0.1321
11911TIP3    H157148   5.116   0.242   0.155  0.5585  0.5870 -0.6746
11911TIP3    H257149   5.156   0.124   0.068  0.6446  0.1675 -0.0735
11912TIP3   OH257150   1.827   2.532   0.313 -0.5758  0.2427  0.0323
11912TIP3    H157151   1.802   2.575   0.231  0.8615 -0.3975 -0.7807
11912TIP3    H257152   1.744   2.505   0.353 -1.3177  0.9590 -0.9946
11913TIP3   OH257153   3.566   3.563  15.012  0.6533 -0.1263 -0.5883
11913TIP3    H157154   3.568   3.658  15.024 -0.2961 -0.2662  0.8979
11913TIP3    H257155   3.658   3.537  15.011  0.9129  0.7625 -0.6477
11914TIP3   OH257156   5.587   1.868   5.437 -0.1155 -0.4314 -0.1468
11914TIP3    H157157   5.545   1.803   5.493  0.3448 -0.7549 -0.1771
11914TIP3    H257158   5.672   1.884   5.477 -0.9697  1.6413  1.0158
11915TIP3   OH257159   0.006   2.096  11.696 -0.0124 -0.0779  0.2273
11915TIP3    H157160  -0.080   2.132  11.718 -0.0347 -0.3250  0.5532
11915TIP3    H257161   0.057   2.173  11.669 -0.5016 -0.0130 -0.5303
11916TIP3   OH257162   1.310   3.795   1.970  0.2766  0.1688  0.2048
11916TIP3    H157163   1.396   3.794   1.928 -0.0982 -0.1386 -0.5742
11916TIP3    H257164   1.255   3.740   1.914  0.2940 -2.1246  2.2864
11917TIP3   OH257165   5.123   6.651   1.214 -0.0873 -0.5945 -0.3549
11917TIP3    H157166   5.092   6.741   1.225  0.8022 -0.3521  0.3509
11917TIP3    H257167   5.073   6.600   1.277 -0.1919 -0.4878 -0.3524
11918TIP3   OH257168   3.377   2.142   5.763 -0.1731  0.1725 -0.2054
11918TIP3    H157169   3.401   2.073   5.825 -1.6322  0.1033  0.3324
11918TIP3    H257170   3.454   2.198   5.757  0.6661 -0.9301  0.1594
11919TIP3   OH257171   6.153   2.273  14.217 -0.2560  0.0566  0.3630
11919TIP3    H157172   6.109   2.303  14.138  0.1951  0.5297  0.2887
11919TIP3    H257173   6.171   2.180  14.201 -0.4489  0.0722  0.0466
11920TIP3   OH257174   0.066   6.413  13.205  0.7218  0.4786 -0.1890
11920TIP3    H157175   0.012   6.491  13.216  1.0564  0.7202 -0.2369
11920TIP3    H257176   0.043   6.380  13.118 -0.9328 -0.6627  0.6275
11921TIP3   OH257177   2.823   0.856  10.978 -0.4296  0.0195 -0.4827
11921TIP3    H157178   2.842   0.832  11.069 -1.3235  0.8954 -0.0546
11921TIP3    H257179   2.907   0.890  10.945 -0.6762  2.0494  0.8043
11922TIP3   OH257180   1.020   0.032  16.269  0.3771 -0.4890 -0.1271
11922TIP3    H157181   1.013   0.009  16.177 -1.6278 -0.8701  0.0797
11922TIP3    H257182   0.954  -0.022  16.313  0.3309  0.6788  1.3354
11923TIP3   OH257183   1.019   3.510   1.371  0.2646  0.4331 -0.6650
11923TIP3    H157184   1.097   3.522   1.425 -0.5587  1.1497  0.3893
11923TIP3    H257185   0.953   3.475   1.431 -0.5429  0.8272 -1.3031
11924TIP3   OH257186   4.385   3.279   6.154 -0.2667 -0.3865  1.1404
11924TIP3    H157187   4.300   3.294   6.194 -0.3816 -0.1784  0.8155
11924TIP3    H257188   4.414   3.365   6.123 -0.1935 -0.5487  0.7463
11925TIP3   OH257189   1.433   4.900  16.788 -0.3447  0.1338 -0.0663
11925TIP3    H157190   1.506   4.839  16.778  0.0337  0.5620  0.0603
11925TIP3    H257191   1.472   4.979  16.823 -0.5114  1.0780 -1.8668
11926TIP3   OH257192   2.387   0.221   6.071  0.2064  0.3586  0.3006
11926TIP3    H157193   2.329   0.293   6.096 -0.0074  0.4449 -0.4101
11926TIP3    H257194   2.371   0.154   6.137  0.6720  1.0843  1.1748
11927TIP3   OH257195   3.783   1.422  11.053  0.0900  0.0510 -0.0812
11927TIP3    H157196   3.728   1.492  11.017  1.7918  0.5916 -1.7941
11927TIP3    H257197   3.857   1.467  11.092  0.9055 -0.7705 -0.6436
11928TIP3   OH257198   6.653   6.361   4.815  0.5077  0.3982 -0.5597
11928TIP3    H157199   6.570   6.317   4.831  0.9379  0.0359  0.9025
11928TIP3    H257200   6.633   6.454   4.822  0.6327  0.3135  2.6563
11929TIP3   OH257201   6.581   3.755   3.328  0.1035 -0.3298 -0.4171
11929TIP3    H157202   6.516   3.722   3.390  0.3920 -0.9069 -0.4063
11929TIP3    H257203   6.638   3.679   3.311  0.3057 -0.0490 -1.0251
11930TIP3   OH257204   5.937   2.687   4.131 -0.3867  0.3848  0.9911
11930TIP3    H157205   5.932   2.646   4.045 -1.9344 -0.1489  1.2978
11930TIP3    H257206   6.031   2.695   4.149 -0.0520 -0.2003 -0.4052
11931TIP3   OH257207   4.652   1.847   2.011  0.1983 -0.1772 -0.6049
11931TIP3    H157208   4.622   1.758   1.994  1.8135 -1.0258  0.6172
11931TIP3    H257209   4.666   1.885   1.925 -2.4068 -0.3794 -1.1838
11932TIP3   OH257210   3.210   3.134  12.086  0.1640  0.4257 -0.1694
11932TIP3    H157211   3.215   3.229  12.077 -0.6161  0.4891 -0.0242
11932TIP3    H257212   3.294   3.103  12.054  0.5553  1.1835  0.0877
11933TIP3   OH257213   0.893   1.514  15.444  0.1026 -0.0296  0.2146
11933TIP3    H157214   0.827   1.481  15.506 -1.8109  0.4665 -1.4420
11933TIP3    H257215   0.918   1.599  15.480 -0.8713  0.1883  0.4188
11934TIP3   OH257216   3.999   6.305   4.845  0.0212  0.4287 -0.4441
11934TIP3    H157217   4.025   6.277   4.933 -0.3291 -0.4480 -0.6128
11934TIP3    H257218   3.955   6.389   4.859 -0.0649  0.2792  0.2179
11935TIP3   OH257219   0.651   2.497  16.147 -0.2748  0.4272  0.4806
11935TIP3    H157220   0.651   2.402  16.159  0.3634 -0.1776 -3.1715
11935TIP3    H257221   0.565   2.517  16.111  0.2165  0.9172 -0.4600
11936TIP3   OH257222   5.936   3.577   2.027 -0.0042  0.0391 -0.4188
11936TIP3    H157223   5.942   3.553   1.934  0.2543 -0.7385 -0.2100
11936TIP3    H257224   6.022   3.557   2.063  1.0120  3.4318 -0.6730
11937TIP3   OH257225   2.955   4.409   5.631  0.2254  0.3049 -0.4681
11937TIP3    H157226   2.988   4.370   5.550  0.1122  0.9393 -0.8292
11937TIP3    H257227   2.925   4.496   5.605 -0.3540  0.2974  0.1434
11938TIP3   OH257228   2.481   1.822  15.358 -0.3650  0.2408  0.4866
11938TIP3    H157229   2.429   1.748  15.328  0.6829  0.5411 -2.4834
11938TIP3    H257230   2.421   1.875  15.410 -2.7599  0.0180 -1.8275
11939TIP3   OH257231   0.128   3.696  16.553  0.1748 -0.4455  0.5144
11939TIP3    H157232   0.150   3.775  16.503 -0.6403  1.4637  2.9367
11939TIP3    H257233   0.082   3.641  16.490 -2.4686  2.5949 -0.5190
11940TIP3   OH257234   2.702   0.814   5.683 -0.4773 -0.0284  0.4465
11940TIP3    H157235   2.682   0.734   5.730 -2.9475  0.7206  0.8198
11940TIP3    H257236   2.621   0.866   5.688  0.9783  2.4344  0.1277
11941TIP3   OH257237   5.786   3.970  12.060 -0.2376 -0.5722  0.0026
11941TIP3    H157238   5.714   3.906  12.069  0.1298 -1.0017 -0.0782
11941TIP3    H257239   5.855   3.922  12.016  0.4570 -0.4468  0.9251
11942TIP3   OH257240   0.769   2.371  12.850 -0.5704 -0.1482  0.8976
11942TIP3    H157241   0.801   2.455  12.881 -0.9007 -0.1387  1.2137
11942TIP3    H257242   0.841   2.337  12.796 -0.1515  0.0120  1.3417
11943TIP3   OH257243   2.694   1.916   5.913  0.0587 -0.7269  0.5045
11943TIP3    H157244   2.727   2.000   5.943 -0.8357 -0.3340  0.4164
11943TIP3    H257245   2.598   1.923   5.921 -0.0852 -1.3525 -0.4684
11944TIP3   OH257246   0.062   0.407  13.458 -0.4951  0.1908  0.2193
11944TIP3    H157247  -0.032   0.390  13.464 -0.4312 -0.7855 -1.2388
11944TIP3    H257248   0.091   0.355  13.384  1.1070  0.9263  0.3029
11945TIP3   OH257249   2.547   1.452  16.202  0.1671  0.0752 -0.6184
11945TIP3    H157250   2.531   1.459  16.108 -0.4784  1.8441 -0.4162
11945TIP3    H257251   2.460   1.438  16.240  0.5099 -1.4457 -0.3011
11946TIP3   OH257252   1.415   6.193  14.874  0.1341  0.5538 -0.0529
11946TIP3    H157253   1.461   6.158  14.950 -2.5343 -1.1252  0.9246
11946TIP3    H257254   1.473   6.174  14.800  1.4802 -0.4749  1.1998
11947TIP3   OH257255   2.088   4.978   0.452 -0.0686 -0.4756  0.2006
11947TIP3    H157256   1.999   5.013   0.451  0.2404  0.5575 -2.5730
11947TIP3    H257257   2.081   4.895   0.404  0.5655  0.0482 -0.8302
11948TIP3   OH257258   4.386   5.995   5.605  0.4030  0.0319 -0.8033
11948TIP3    H157259   4.336   5.922   5.568  2.3093 -1.5477 -0.4456
11948TIP3    H257260   4.332   6.027   5.677 -0.2823 -1.3469 -0.6741
11949TIP3   OH257261   3.511   5.349  11.673 -0.7868  0.1036 -0.8541
11949TIP3    H157262   3.425   5.307  11.671 -0.2092 -1.2437  0.4084
11949TIP3    H257263   3.570   5.282  11.709  0.7049  1.1431 -1.2472
11950TIP3   OH257264   3.625   3.661  11.330  0.4356  0.0540  0.0759
11950TIP3    H157265   3.710   3.645  11.289 -0.0437  1.0193 -1.3879
11950TIP3    H257266   3.630   3.753  11.358 -0.0352  0.0461  0.1873
11951TIP3   OH257267   6.031   3.969  12.794  0.4330 -0.4585 -0.0064
11951TIP3    H157268   6.061   4.058  12.812  0.1415 -0.5474  0.9863
11951TIP3    H257269   6.087   3.913  12.848  1.1370 -0.9538 -1.2154
11952TIP3   OH257270   4.375   1.597  14.045 -0.1126  0.5030 -0.2859
11952TIP3    H157271   4.338   1.633  13.964  0.6202  1.4356 -0.2314
11952TIP3    H257272   4.369   1.669  14.108 -2.0827 -0.6759  0.9807
11953TIP3   OH257273   2.564   2.152   4.096  0.2688 -0.3966 -0.0997
11953TIP3    H157274   2.638   2.159   4.036  1.2824  1.3799  1.2674
11953TIP3    H257275   2.488   2.179   4.044  1.0400  0.5416 -0.7665
11954TIP3   OH257276   6.387   3.531   2.763 -0.5398  0.0695 -0.3804
11954TIP3    H157277   6.450   3.460   2.751  0.3535  0.8179 -0.2303
11954TIP3    H257278   6.378   3.538   2.858 -2.0602 -1.0433 -0.3876
11955TIP3   OH257279   0.437   3.873  16.359  0.2185 -0.4059 -0.8027
11955TIP3    H157280   0.443   3.792  16.409 -0.3802  0.5213  0.8695
11955TIP3    H257281   0.526   3.909  16.362  0.2514 -0.4968 -0.6190
11956TIP3   OH257282   4.377   3.307  16.310 -0.4226 -0.8312 -0.4435
11956TIP3    H157283   4.301   3.313  16.368 -0.2922 -0.6268 -0.2896
11956TIP3    H257284   4.452   3.311  16.369 -0.2434  1.3595 -0.7337
11957TIP3   OH257285   2.689   4.339  11.687  0.1828 -0.5111 -0.3277
11957TIP3    H157286   2.622   4.286  11.642 -2.1927  0.6370  1.6081
11957TIP3    H257287   2.745   4.275  11.730  1.1070 -1.5508 -2.8798
11958TIP3   OH257288   1.015   2.889   3.869  0.0789 -0.0712 -0.3385
11958TIP3    H157289   1.038   2.978   3.843  1.8858 -0.4690 -0.2604
11958TIP3    H257290   1.050   2.879   3.957  0.4095 -1.0277 -0.5606
11959TIP3   OH257291   3.448   3.527  13.769  0.4950 -0.2551  0.1116
11959TIP3    H157292   3.495   3.524  13.685  0.7360 -0.2821  0.2468
11959TIP3    H257293   3.357   3.505  13.746  0.8214 -1.6733  0.0577
11960TIP3   OH257294   4.050   0.717   0.079  0.2398 -0.0857 -0.3196
11960TIP3    H157295   3.975   0.772   0.058  0.0357 -0.2563 -0.0463
11960TIP3    H257296   4.013   0.629   0.089  0.7571 -0.5539 -2.1472
11961TIP3   OH257297   4.424   5.110  14.814 -0.4567 -0.0849  0.0219
11961TIP3    H157298   4.410   5.147  14.727 -1.1520 -2.8565 -1.1800
11961TIP3    H257299   4.515   5.083  14.814 -0.7507 -1.1231 -0.3284
11962TIP3   OH257300   2.193   1.795   4.572 -0.3819 -0.5197 -0.4721
11962TIP3    H157301   2.102   1.791   4.603 -0.9192  0.3823 -1.8422
11962TIP3    H257302   2.232   1.869   4.619 -1.4782  1.4837 -2.5046
11963TIP3   OH257303   3.101   0.501   5.848 -0.1284  0.0693 -0.0023
11963TIP3    H157304   3.152   0.475   5.925 -1.5293 -2.4896  0.1874
11963TIP3    H257305   3.012   0.510   5.881 -0.0419  4.0890 -0.3972
11964TIP3   OH257306   3.666   2.337  13.904  0.2166  0.1443  0.9277
11964TIP3    H157307   3.713   2.264  13.943  0.3384  0.5545  1.5758
11964TIP3    H257308   3.709   2.353  13.820 -0.7746 -1.4884  0.0688
11965TIP3   OH257309   2.602   0.517  15.849 -0.1557 -0.5045  0.3409
11965TIP3    H157310   2.669   0.562  15.797 -0.6854  1.0583  0.9349
11965TIP3    H257311   2.542   0.481  15.785  1.2100 -1.9184 -0.2086
11966TIP3   OH257312   3.146   6.585  12.425 -0.5613 -0.2387  0.2448
11966TIP3    H157313   3.122   6.594  12.518 -1.3229 -1.0404  0.1368
11966TIP3    H257314   3.226   6.532  12.427  0.0592  0.6711  0.4854
11967TIP3   OH257315   4.868   2.099  12.264  0.4823  0.3972  0.0799
11967TIP3    H157316   4.878   2.193  12.250 -0.6036  0.3911 -0.8660
11967TIP3    H257317   4.943   2.060  12.218 -0.6947  0.6496 -2.1599
11968TIP3   OH257318   3.527   5.320  16.138  0.0300 -0.4608  0.9479
11968TIP3    H157319   3.562   5.245  16.185  0.7646 -0.7158  0.0202
11968TIP3    H257320   3.478   5.282  16.065  1.2344 -0.0575 -0.1161
11969TIP3   OH257321   5.436   4.759   1.401  0.1444  0.0493  0.2650
11969TIP3    H157322   5.432   4.720   1.488  1.3327 -1.4301 -0.3124
11969TIP3    H257323   5.347   4.792   1.386  0.0219  0.7469  2.1845
11970TIP3   OH257324   3.912   3.458   4.969  0.5273  0.5479 -0.5136
11970TIP3    H157325   3.921   3.516   5.044 -2.5765  1.5111 -0.7763
11970TIP3    H257326   3.896   3.371   5.007  1.2204  0.6015 -0.0971
11971TIP3   OH257327   1.911   6.119  10.419  0.1603  0.0607  0.4456
11971TIP3    H157328   1.952   6.175  10.485 -0.7657  0.5485  0.6242
11971TIP3    H257329   1.959   6.137  10.338  0.5336  0.3385  0.7284
11972TIP3   OH257330   2.961   6.617   2.634  0.2255  0.7121 -0.2151
11972TIP3    H157331   2.961   6.555   2.560  0.1141 -0.5179  0.7790
11972TIP3    H257332   3.046   6.603   2.675 -1.6104 -2.5529  3.0031
11973TIP3   OH257333   1.769   4.032   2.835 -0.7390  0.5782 -1.0789
11973TIP3    H157334   1.674   4.034   2.845 -0.5938  1.1498  0.2981
11973TIP3    H257335   1.794   3.945   2.866 -0.8017  0.3922 -1.5291
11974TIP3   OH257336   3.115   3.137   6.444  0.1770  0.4637  0.2310
11974TIP3    H157337   3.149   3.225   6.456  2.0496 -0.4034  1.7300
11974TIP3    H257338   3.187   3.079   6.469 -1.4916 -1.4903  0.8068
11975TIP3   OH257339   5.623   3.076   2.380  0.1964 -0.0963  0.3166
11975TIP3    H157340   5.635   3.148   2.319 -1.8881 -0.7498 -0.9851
11975TIP3    H257341   5.547   3.028   2.346  1.2675 -2.7062  1.3001
11976TIP3   OH257342   4.408   4.061   2.258  0.4599  0.1437  0.4577
11976TIP3    H157343   4.406   3.966   2.267  0.4370  0.1337  0.3430
11976TIP3    H257344   4.455   4.091   2.335  1.2471 -0.0243  0.0582
11977TIP3   OH257345   1.817   1.336   2.065 -0.6496 -0.5629 -0.4387
11977TIP3    H157346   1.746   1.399   2.058 -1.4321 -1.4613 -0.8458
11977TIP3    H257347   1.816   1.309   2.156 -0.2575  0.0686 -0.2445
11978TIP3   OH257348   2.092   4.581  12.694  0.0467  0.1913  0.2630
11978TIP3    H157349   2.005   4.620  12.683 -1.0056 -1.5753  1.8985
11978TIP3    H257350   2.098   4.516  12.624 -0.2009 -0.0848  0.4944
11979TIP3   OH257351   0.441   0.648  14.332  0.1381 -0.1777  0.7773
11979TIP3    H157352   0.483   0.675  14.250  0.5368  0.9599  1.3365
11979TIP3    H257353   0.361   0.701  14.337 -0.0352 -0.4555  0.9826
11980TIP3   OH257354   0.950   4.413   4.085  0.0129 -0.0893 -0.1858
11980TIP3    H157355   0.980   4.384   3.999  0.9027 -1.7498  0.6334
11980TIP3    H257356   0.882   4.350   4.109 -1.4036  1.3117 -0.3061
11981TIP3   OH257357   0.610   1.981  15.250 -0.4168 -0.1753  0.1101
11981TIP3    H157358   0.593   2.037  15.175 -0.3188 -0.4657 -0.1319
11981TIP3    H257359   0.680   2.026  15.298  1.6482 -1.3886 -1.5418
11982TIP3   OH257360   6.614   5.439   6.319 -0.7792  0.2857  0.1047
11982TIP3    H157361   6.616   5.379   6.244 -1.7799 -0.4429  0.6289
11982TIP3    H257362   6.652   5.520   6.287  0.3785 -0.5441 -0.7109
11983TIP3   OH257363   0.679   5.936  12.252  0.0411 -0.3299  0.2182
11983TIP3    H157364   0.611   5.872  12.273  0.4208 -0.8341 -0.0577
11983TIP3    H257365   0.712   5.908  12.166 -0.0846  0.4939 -0.1057
11984TIP3   OH257366   4.100   2.036  13.993 -0.5482 -0.3240  0.1013
11984TIP3    H157367   4.135   2.122  14.018 -0.1985 -0.6823  0.8735
11984TIP3    H257368   4.176   1.988  13.959 -0.7562 -0.3084 -0.3932
11985TIP3   OH257369   4.648   0.457  16.987  0.2164  0.6126 -0.3083
11985TIP3    H157370   4.575   0.475  17.046 -0.2942  0.3858 -0.8591
11985TIP3    H257371   4.726   0.476  17.039 -0.2310  0.7999  0.3091
11986TIP3   OH257372   4.022   5.615   0.817  0.6796 -0.5322  0.1549
11986TIP3    H157373   4.029   5.711   0.823 -1.9497 -0.2691 -0.0510
11986TIP3    H257374   3.998   5.587   0.905 -0.5766 -0.7562 -0.2448
11987TIP3   OH257375   5.246   6.551   2.990  0.1093  0.3015 -0.3173
11987TIP3    H157376   5.214   6.470   3.028  1.1040  0.3446  0.6733
11987TIP3    H257377   5.303   6.589   3.057 -1.2289  2.4168 -0.2843
11988TIP3   OH257378   3.330   0.307  13.419  0.1733  0.6029 -0.0302
11988TIP3    H157379   3.288   0.390  13.399  0.0368  0.0798 -2.1736
11988TIP3    H257380   3.302   0.249  13.348  2.1052 -0.6191  0.1513
11989TIP3   OH257381   2.818   1.466  10.871  0.0313  0.3516  0.1174
11989TIP3    H157382   2.861   1.516  10.801  2.0855 -3.6006 -1.7661
11989TIP3    H257383   2.743   1.426  10.828  0.8513 -1.4687  0.2919
11990TIP3   OH257384   6.547   1.065  11.108  0.1104  0.1292 -0.3115
11990TIP3    H157385   6.588   1.045  11.023  2.0703  0.0915  0.5731
11990TIP3    H257386   6.543   1.160  11.111  2.9636  0.3253  0.7314
11991TIP3   OH257387   5.419   6.766   3.638  0.3089 -0.2606  0.5343
11991TIP3    H157388   5.381   6.766   3.550  0.7572 -1.9685  0.2932
11991TIP3    H257389   5.350   6.734   3.695 -0.7180  2.8570  1.2583
11992TIP3   OH257390   0.992   5.812  12.065  0.0027 -0.1764 -0.1797
11992TIP3    H157391   0.899   5.809  12.042  0.2371  1.7719 -1.6456
11992TIP3    H257392   0.992   5.808  12.161 -1.4846 -1.3925 -0.1804
11993TIP3   OH257393   4.776   6.696  12.499 -0.1350 -0.2787  0.4142
11993TIP3    H157394   4.740   6.730  12.581 -2.5171 -0.7348 -0.3623
11993TIP3    H257395   4.717   6.729  12.431  2.0127  0.4585 -1.2264
11994TIP3   OH257396   6.163   6.106   4.666 -0.4140  0.1271  0.6436
11994TIP3    H157397   6.119   6.191   4.676 -1.7220 -0.6697  2.2145
11994TIP3    H257398   6.132   6.055   4.741  1.5539 -1.2337  0.5790
11995TIP3   OH257399   3.521   4.258  13.126 -0.1591 -0.7816  0.7697
11995TIP3    H157400   3.563   4.205  13.193  0.3393  0.3444  1.3677
11995TIP3    H257401   3.577   4.249  13.049  0.3344 -0.5167  1.0970
11996TIP3   OH257402   5.751   4.258   1.815 -0.3843 -0.1908 -0.2263
11996TIP3    H157403   5.802   4.200   1.871  0.2850 -0.9379 -1.5484
11996TIP3    H257404   5.662   4.223   1.819 -0.0474 -1.1348 -0.7624
11997TIP3   OH257405   4.422   6.463   5.896  0.2665 -0.2362 -0.2728
11997TIP3    H157406   4.343   6.488   5.945  0.6786  0.6293 -0.0321
11997TIP3    H257407   4.401   6.377   5.861  0.1233 -1.1178  1.8149
11998TIP3   OH257408   1.302   4.855   1.960 -0.1639 -0.4737 -0.0161
11998TIP3    H157409   1.349   4.818   1.886  0.8817 -1.1972  0.9715
11998TIP3    H257410   1.229   4.903   1.921  1.1347  0.3375 -1.5835
11999TIP3   OH257411   3.471   1.137   2.050 -0.4060 -0.3577  0.4037
11999TIP3    H157412   3.562   1.109   2.062  0.2528  0.4939 -2.0329
11999TIP3    H257413   3.419   1.062   2.077  1.1037 -1.7289 -0.3177
12000TIP3   OH257414   4.492   6.756  11.002  0.1382  0.7997  0.7695
12000TIP3    H157415   4.582   6.723  11.005 -0.2581 -0.3350  0.9685
12000TIP3    H257416   4.477   6.778  10.910  0.4850  0.5878  0.6618
12001TIP3   OH257417   3.492   6.669  15.855 -0.4723 -0.1194 -0.6524
12001TIP3    H157418   3.412   6.701  15.812 -0.5005 -1.4112 -1.6414
12001TIP3    H257419   3.544   6.633  15.783  0.3872 -0.5309  0.1573
12002TIP3   OH257420   6.386   3.640  15.787 -0.0558 -0.0896  0.0829
12002TIP3    H157421   6.342   3.722  15.767  0.6348  0.0346 -0.9975
12002TIP3    H257422   6.322   3.572  15.768 -1.4370  0.2185  3.1184
12003TIP3   OH257423   4.548   4.413   1.039 -0.4951 -0.0691  0.4848
12003TIP3    H157424   4.593   4.473   1.098 -0.3572 -0.9923  1.3431
12003TIP3    H257425   4.507   4.470   0.974 -0.0761  0.9265  1.0624
12004TIP3   OH257426   5.255   3.822  12.459 -0.3641  0.2560 -0.0338
12004TIP3    H157427   5.228   3.914  12.463  1.3061  0.9791 -2.9280
12004TIP3    H257428   5.350   3.824  12.472 -0.3300 -1.1143  0.0677
12005TIP3   OH257429   5.118   1.949   2.261  0.1481  0.2958  0.1330
12005TIP3    H157430   5.194   1.915   2.307 -0.6473 -1.8514  0.0066
12005TIP3    H257431   5.142   1.944   2.168  0.2168  0.5401  0.1391
12006TIP3   OH257432   2.919   3.312  17.028  0.4561 -0.1600 -0.5923
12006TIP3    H157433   2.849   3.352  16.977  0.3066 -0.3863 -0.5629
12006TIP3    H257434   2.955   3.245  16.971 -0.5125 -1.2497  0.0467
12007TIP3   OH257435   0.900   3.621   5.394  0.1231  0.3736  0.1328
12007TIP3    H157436   0.937   3.604   5.481 -0.0055  3.8169  0.9796
12007TIP3    H257437   0.959   3.575   5.334  0.2931 -1.9658  1.9713
12008TIP3   OH257438   3.789   2.316   1.896  0.2361 -0.1767  0.6206
12008TIP3    H157439   3.828   2.364   1.823  2.3010 -1.0860  1.0707
12008TIP3    H257440   3.772   2.229   1.860 -2.0737  0.3496  0.2548
12009TIP3   OH257441   5.844   6.230  15.593 -0.3307 -0.2628 -0.2415
12009TIP3    H157442   5.832   6.272  15.678  2.9939  0.5707 -0.0432
12009TIP3    H257443   5.865   6.139  15.614  0.1469 -0.1394 -0.1710
12010TIP3   OH257444   2.601   2.686  14.917  0.2189  0.5138  0.5047
12010TIP3    H157445   2.689   2.724  14.922  0.9777 -1.2914  2.1906
12010TIP3    H257446   2.608   2.619  14.849  0.2697  0.1543  0.8560
12011TIP3   OH257447   6.630   2.557   1.171  0.0497  0.2684  0.3806
12011TIP3    H157448   6.598   2.575   1.259  0.1067  3.2053 -0.0949
12011TIP3    H257449   6.552   2.566   1.115  0.5762  1.6054 -0.1662
12012TIP3   OH257450   1.930   3.560  13.043 -0.5527  0.2280 -0.1081
12012TIP3    H157451   1.908   3.505  13.118 -2.6025 -1.0892 -1.5484
12012TIP3    H257452   1.871   3.635  13.050  0.7931  1.2495  0.7310
12013TIP3   OH257453   0.948   6.438  12.126  0.3751  0.2291  0.5846
12013TIP3    H157454   0.965   6.530  12.103 -0.4139  0.0574 -0.8731
12013TIP3    H257455   0.981   6.389  12.051  1.6629 -0.7786  1.7772
12014TIP3   OH257456   0.719   3.543  12.100  0.5519 -0.0440 -0.0556
12014TIP3    H157457   0.637   3.545  12.149  0.3804 -1.0708 -0.2680
12014TIP3    H257458   0.780   3.594  12.152 -0.1260  0.4524  0.2745
12015TIP3   OH257459   4.351   5.159  12.568  0.0224 -0.1173 -0.0533
12015TIP3    H157460   4.406   5.086  12.599 -0.3734 -0.0666  0.7767
12015TIP3    H257461   4.397   5.238  12.596  1.8150  0.0949 -3.1644
12016TIP3   OH257462   5.190   5.033   6.455  0.3850  0.3516 -0.2199
12016TIP3    H157463   5.137   5.026   6.376 -0.3802 -1.2873  0.3717
12016TIP3    H257464   5.132   5.073   6.520 -0.2841 -1.6498  0.4927
12017TIP3   OH257465   0.322   3.935   0.095  0.2365 -0.5103  0.3356
12017TIP3    H157466   0.401   3.880   0.098  1.1284  0.6982  0.0343
12017TIP3    H257467   0.311   3.955   0.002  0.4423  0.5113  0.5184
12018TIP3   OH257468   4.901   1.283   3.753 -0.1136 -0.4655 -0.2069
12018TIP3    H157469   4.809   1.309   3.747 -0.0814 -0.2506  0.1954
12018TIP3    H257470   4.941   1.351   3.807 -0.0870 -1.4976  1.1353
12019TIP3   OH257471   1.443   3.805  13.603 -0.3521  0.3883 -0.8162
12019TIP3    H157472   1.378   3.843  13.663  1.1554  0.9689  0.5205
12019TIP3    H257473   1.428   3.850  13.520 -0.7440  1.5139 -0.1542
12020TIP3   OH257474   4.365   4.541  11.971  0.1854  0.2358 -0.2111
12020TIP3    H157475   4.397   4.482  11.903  1.2059  1.4458 -0.8217
12020TIP3    H257476   4.386   4.629  11.938 -1.1337  0.9447  0.7468
12021TIP3   OH257477   6.532   5.780  15.113  0.0694 -0.6481 -0.2415
12021TIP3    H157478   6.603   5.741  15.062  1.6398  0.0233  1.3141
12021TIP3    H257479   6.544   5.875  15.101 -0.0789 -0.5124  0.6483
12022TIP3   OH257480   2.853   1.325   4.339  0.1451 -0.2603 -0.0521
12022TIP3    H157481   2.775   1.355   4.387  2.0588  0.6839  2.7122
12022TIP3    H257482   2.861   1.232   4.362  0.2126 -0.1921  0.1984
12023TIP3   OH257483   3.052   4.012   1.366  0.2754 -0.6506  0.3505
12023TIP3    H157484   3.113   3.940   1.380  0.1402 -0.8926 -0.3088
12023TIP3    H257485   3.067   4.070   1.441  1.5845 -0.5207  0.0151
12024TIP3   OH257486   4.822   2.296   3.021  0.3502 -0.4844  0.1300
12024TIP3    H157487   4.868   2.272   3.101 -0.4612  0.0056  0.7603
12024TIP3    H257488   4.871   2.370   2.986  0.9951 -1.0127 -0.1005
12025TIP3   OH257489   3.053   3.441  11.322  0.1127  0.0478  0.1299
12025TIP3    H157490   3.118   3.511  11.315 -0.4378  0.4990 -0.6639
12025TIP3    H257491   2.995   3.455  11.247 -0.6970 -0.5505  0.6295
12026TIP3   OH257492   0.610   5.450   0.544  0.4224  0.1332 -0.4118
12026TIP3    H157493   0.590   5.379   0.605 -0.4564  1.9348  1.5361
12026TIP3    H257494   0.681   5.498   0.586  0.4479  0.8825 -1.2831
12027TIP3   OH257495   5.811   0.033   4.600  0.0787 -0.2671 -0.9990
12027TIP3    H157496   5.753   0.026   4.676  0.9957  2.0407 -0.0008
12027TIP3    H257497   5.842  -0.057   4.585 -1.3226 -1.0263  0.3609
12028TIP3   OH257498   5.680   1.678   3.426 -0.0592  0.3582 -0.3445
12028TIP3    H157499   5.681   1.694   3.332  1.1754 -0.6131 -0.5251
12028TIP3    H257500   5.710   1.588   3.436  2.3374  1.2118  1.0827
12029TIP3   OH257501   4.115   0.265   2.249  0.2895 -0.4638 -0.3243
12029TIP3    H157502   4.127   0.357   2.274  0.4892 -0.5981  0.0762
12029TIP3    H257503   4.084   0.222   2.328 -1.8483 -0.3518 -1.0455
12030TIP3   OH257504   3.429   1.290   1.518  0.1473  0.5293  0.0659
12030TIP3    H157505   3.506   1.328   1.476 -1.1025  2.7841 -0.2947
12030TIP3    H257506   3.463   1.250   1.598  1.7163  1.3043 -0.1787
12031TIP3   OH257507   5.630   5.843   2.495 -0.1325 -0.3782  0.1459
12031TIP3    H157508   5.714   5.862   2.453  0.5459 -1.5413  0.9500
12031TIP3    H257509   5.600   5.762   2.454 -1.6229  0.7773 -1.2030
12032TIP3   OH257510   2.579   6.011   0.007 -0.4043  0.5659 -0.1445
12032TIP3    H157511   2.665   6.014   0.050 -0.1023 -1.8479 -0.4644
12032TIP3    H257512   2.590   5.947  -0.063 -2.3539  0.5627 -0.4844
12033TIP3   OH257513   4.976   5.115   3.451 -0.7169  0.3407 -0.7331
12033TIP3    H157514   5.067   5.141   3.464 -0.2319 -0.9842 -1.3345
12033TIP3    H257515   4.957   5.054   3.522 -1.0274  0.3190 -0.8299
12034TIP3   OH257516   6.754   1.986   5.067  0.0743 -0.1475 -0.6489
12034TIP3    H157517   6.826   1.936   5.107  0.2087 -0.3246 -1.1158
12034TIP3    H257518   6.763   2.073   5.105 -0.2912 -0.5185  0.3350
12035TIP3   OH257519   4.657   4.164  10.613  0.0717  0.1172  0.0841
12035TIP3    H157520   4.745   4.161  10.576 -0.5997 -0.1800 -1.6130
12035TIP3    H257521   4.650   4.085  10.666  0.9841  0.4025  0.6383
12036TIP3   OH257522   1.481   4.454   0.556 -0.2140 -0.1250  0.3238
12036TIP3    H157523   1.405   4.510   0.566 -1.2741 -1.4539 -0.0161
12036TIP3    H257524   1.447   4.365   0.565  1.2997 -0.7483  0.2042
12037TIP3   OH257525   0.394   3.774  12.524 -0.0292 -0.4232  0.2260
12037TIP3    H157526   0.460   3.793  12.458  0.1669 -0.3724  0.4373
12037TIP3    H257527   0.327   3.723  12.478 -0.2792  0.2868 -0.2010
12038TIP3   OH257528   5.251   0.615   6.372  0.3557 -0.3343  0.6268
12038TIP3    H157529   5.244   0.625   6.277 -0.6922  2.1657  0.8882
12038TIP3    H257530   5.342   0.590   6.388  0.7763  0.0871 -0.9905
12039TIP3   OH257531   5.792   6.586   4.033 -0.6843  0.6225 -0.0986
12039TIP3    H157532   5.804   6.545   3.947 -1.4270  1.7864 -0.7743
12039TIP3    H257533   5.869   6.557   4.084  0.8006  1.4787 -1.7611
12040TIP3   OH257534   1.990   3.218   5.514  0.2235 -0.0265 -0.0625
12040TIP3    H157535   1.901   3.238   5.542  0.6223  0.6165  0.7686
12040TIP3    H257536   2.032   3.303   5.503 -0.1396 -0.1483 -3.5499
12041TIP3   OH257537   5.366   6.381   6.276 -0.1829  0.4826  0.4370
12041TIP3    H157538   5.299   6.450   6.279 -0.4509  0.4883 -2.6413
12041TIP3    H257539   5.443   6.422   6.315 -0.9664  1.7556  0.7354
12042TIP3   OH257540   0.421   4.914  12.128 -0.0697  0.0576 -0.3527
12042TIP3    H157541   0.369   4.950  12.199 -0.7598 -1.5010 -0.0221
12042TIP3    H257542   0.378   4.831  12.106  0.4401  0.2344 -2.2203
12043TIP3   OH257543   1.666   2.768   4.951 -0.3831 -0.5956  0.8577
12043TIP3    H157544   1.675   2.691   5.007 -0.0504 -0.2005  1.3534
12043TIP3    H257545   1.675   2.733   4.862  0.8550 -0.9877  1.1102
12044TIP3   OH257546   1.945   2.463  16.497 -0.6518 -0.1881  0.2360
12044TIP3    H157547   1.953   2.506  16.582  0.3692  0.6999 -0.2874
12044TIP3    H257548   1.853   2.473  16.474 -0.3387  2.3148 -0.1551
12045TIP3   OH257549   5.525   4.378  12.950 -0.5459  0.2190 -0.1966
12045TIP3    H157550   5.433   4.399  12.968 -1.0376 -1.0732 -0.9572
12045TIP3    H257551   5.560   4.455  12.907 -1.8953 -0.0025 -1.7829
12046TIP3   OH257552   3.897   1.703  13.531  0.6547  0.3528  0.0051
12046TIP3    H157553   3.931   1.614  13.536 -1.7928 -0.6761 -0.4073
12046TIP3    H257554   3.859   1.710  13.444  1.0643  1.9180 -0.0781
12047TIP3   OH257555   1.000   4.228   4.553 -0.0631  0.1845  0.4592
12047TIP3    H157556   1.019   4.305   4.498 -0.8912  0.1697  0.1312
12047TIP3    H257557   1.033   4.154   4.503 -0.1410  0.2419  0.3202
12048TIP3   OH257558   1.460   2.314   4.566 -0.4937 -0.2909  0.5536
12048TIP3    H157559   1.440   2.326   4.658  1.9560 -0.0487  1.1312
12048TIP3    H257560   1.519   2.386   4.544 -1.2932 -0.1291 -1.3269
12049TIP3   OH257561   1.951   6.256   2.671 -0.0396 -0.3554  0.5004
12049TIP3    H157562   2.025   6.285   2.725  0.3341 -0.6853  0.1736
12049TIP3    H257563   1.954   6.312   2.594 -0.9041  0.4841  1.0537
12050TIP3   OH257564   4.326   0.272   4.773  0.4160  0.4313  0.0103
12050TIP3    H157565   4.266   0.232   4.711 -0.0637 -1.1903  1.4237
12050TIP3    H257566   4.278   0.345   4.810 -0.5493 -0.5549  0.7704
12051TIP3   OH257567   5.218   2.601   0.781 -0.0024 -0.1170  0.3223
12051TIP3    H157568   5.264   2.619   0.863 -0.3695  0.2654  0.4541
12051TIP3    H257569   5.286   2.600   0.715  0.0117  2.7205  0.1576
12052TIP3   OH257570   0.042   3.243  13.328  0.3613 -0.0461 -1.0466
12052TIP3    H157571   0.099   3.304  13.282  1.3977  0.7380  1.1523
12052TIP3    H257572   0.082   3.157  13.312  1.4166  0.3497 -0.6581
12053TIP3   OH257573   2.580   4.230  11.387  0.5248 -0.1069  0.0964
12053TIP3    H157574   2.595   4.281  11.307  0.5317 -1.1032 -0.5599
12053TIP3    H257575   2.486   4.216  11.389  0.4964  0.1185  0.3998
12054TIP3   OH257576   1.032   0.485   0.015  0.2346  0.0709 -0.0523
12054TIP3    H157577   0.943   0.449   0.004 -0.2601  0.8622  1.1486
12054TIP3    H257578   1.055   0.464   0.105  0.1691  2.2008  0.5000
12055TIP3   OH257579   4.060   2.243   5.608  0.1557  0.2308 -0.5615
12055TIP3    H157580   4.111   2.299   5.549 -0.7302 -0.4562 -2.0440
12055TIP3    H257581   4.125   2.192   5.655  0.8832 -0.2238 -2.0058
12056TIP3   OH257582   1.624   4.071  11.223  0.5867 -0.3857 -0.2834
12056TIP3    H157583   1.588   3.993  11.182 -1.8137  0.6105 -0.2070
12056TIP3    H257584   1.698   4.039  11.274  0.0712 -2.4997 -0.7632
12057TIP3   OH257585   5.631   1.905   4.223 -0.2968 -0.9645  0.5121
12057TIP3    H157586   5.687   1.828   4.232  2.7366  1.0156  0.0782
12057TIP3    H257587   5.675   1.973   4.275  0.0992  1.8859 -3.1741
12058TIP3   OH257588   3.214   4.720   4.271 -0.4762  0.0442  0.1499
12058TIP3    H157589   3.138   4.739   4.216 -2.2285 -2.6936  1.3808
12058TIP3    H257590   3.289   4.727   4.213 -1.9800 -0.1709 -1.9236
12059TIP3   OH257591   2.849   4.669  16.972 -0.3187  0.4411  0.3417
12059TIP3    H157592   2.839   4.633  17.061  0.2194  1.9624  1.0417
12059TIP3    H257593   2.842   4.764  16.984  0.8414  0.7280 -1.0993
12060TIP3   OH257594   0.363   2.097   0.048  0.3055  0.2321  0.0623
12060TIP3    H157595   0.322   2.023   0.006 -0.0498  1.0045 -0.9875
12060TIP3    H257596   0.321   2.103   0.134 -2.2901  1.3503 -1.1721
12061TIP3   OH257597   4.764   1.519  12.928 -0.4560  0.0472  0.1634
12061TIP3    H157598   4.792   1.590  12.871  1.4360 -0.6103  0.1989
12061TIP3    H257599   4.789   1.439  12.881 -0.5225 -0.5450  1.0986
12062TIP3   OH257600   1.734   1.898  11.140 -0.2969 -0.1257  0.4999
12062TIP3    H157601   1.752   1.850  11.060 -2.0873  0.8683 -0.5778
12062TIP3    H257602   1.796   1.971  11.139  2.6797 -2.4073  2.3265
12063TIP3   OH257603   5.237   2.404   5.816 -0.6003  0.1548  0.1710
12063TIP3    H157604   5.260   2.323   5.770  1.8763 -0.1017  1.6839
12063TIP3    H257605   5.259   2.387   5.907 -1.9796  1.8637  0.8820
12064TIP3   OH257606   0.966   0.756   1.650  0.8266  0.4906  0.2252
12064TIP3    H157607   0.934   0.795   1.731  2.9438  3.5470 -0.2561
12064TIP3    H257608   0.887   0.742   1.597 -0.6753 -2.0763  2.8272
12065TIP3   OH257609   4.778   4.005  16.530  0.6950 -0.1712  0.1056
12065TIP3    H157610   4.695   3.957  16.539  0.0716  0.8629  0.1028
12065TIP3    H257611   4.788   4.019  16.435  1.2269 -0.8860  0.0528
12066TIP3   OH257612   6.295   2.256  13.929  0.0945 -0.0751  0.3312
12066TIP3    H157613   6.358   2.323  13.902 -0.5751 -0.1863 -1.6892
12066TIP3    H257614   6.213   2.303  13.940 -0.4575 -0.5506 -1.4249
12067TIP3   OH257615   3.712   4.230   5.157 -0.0101  0.0162 -0.5868
12067TIP3    H157616   3.675   4.171   5.222 -0.2629 -0.4310 -1.1247
12067TIP3    H257617   3.636   4.272   5.116  0.0012 -1.3315 -2.0961
12068TIP3   OH257618   3.770   2.773   6.473  0.2213  0.1420  0.3990
12068TIP3    H157619   3.724   2.721   6.407 -0.8767  0.5054  0.8497
12068TIP3    H257620   3.700   2.813   6.524  1.0132 -1.2204  2.6951
12069TIP3   OH257621   5.106   3.588  11.968  0.2003 -0.5269  0.2185
12069TIP3    H157622   5.141   3.504  11.939 -0.3333 -0.6683 -0.0348
12069TIP3    H257623   5.175   3.625  12.024  0.9675 -0.5545 -0.6825
12070TIP3   OH257624   6.450   0.164  17.166  0.1401 -0.4800  0.0419
12070TIP3    H157625   6.416   0.248  17.194 -0.4998 -1.3016  1.8968
12070TIP3    H257626   6.541   0.182  17.142  0.1997  0.6255  1.0202
12071TIP3   OH257627   5.591   0.445  11.459  0.0030  0.4155 -0.4065
12071TIP3    H157628   5.553   0.498  11.389  0.7052  2.6152  0.7793
12071TIP3    H257629   5.553   0.479  11.539  1.9533  0.4733  0.5640
12072TIP3   OH257630   6.598   0.495  14.073 -0.1005 -0.0786  0.2605
12072TIP3    H157631   6.654   0.418  14.077  0.4484  0.2969  0.0222
12072TIP3    H257632   6.536   0.477  14.003 -1.2190 -1.1038  1.4746
12073TIP3   OH257633   5.246   5.329   5.442 -0.2310  0.2241 -0.6624
12073TIP3    H157634   5.234   5.250   5.389  0.5732 -0.6842  0.4485
12073TIP3    H257635   5.337   5.355   5.426  0.5849 -1.0283  1.4313
12074TIP3   OH257636   5.970   3.320  15.940  0.2777  0.4348 -0.3794
12074TIP3    H157637   5.929   3.320  15.853  0.4059  1.6362 -0.4508
12074TIP3    H257638   5.902   3.353  15.998  0.2309 -0.2615 -0.0340
12075TIP3   OH257639   0.979   5.094  14.900 -0.1509 -0.1245  0.1917
12075TIP3    H157640   0.975   5.138  14.985  1.4671  0.7065 -0.1252
12075TIP3    H257641   1.009   5.005  14.920  2.3179  0.6689  0.3795
12076TIP3   OH257642   6.209   0.504  12.564  0.0304 -0.1374  0.1278
12076TIP3    H157643   6.221   0.518  12.470  1.1837  1.8894  0.5001
12076TIP3    H257644   6.262   0.427  12.584  1.0064  0.3026 -0.6654
12077TIP3   OH257645   5.487   5.692  16.036  0.2843 -0.2090 -0.1623
12077TIP3    H157646   5.527   5.775  16.062 -0.0988 -0.5841  1.7246
12077TIP3    H257647   5.393   5.710  16.033  0.0726 -0.8798  1.5921
12078TIP3   OH257648   0.821   6.539   5.787 -0.0094 -0.1090  0.2793
12078TIP3    H157649   0.898   6.540   5.730 -0.7976  1.0811 -0.8365
12078TIP3    H257650   0.843   6.478   5.857  2.0564  0.4168  0.1507
12079TIP3   OH257651   2.273   3.054   4.876 -0.1380  0.2845 -0.2750
12079TIP3    H157652   2.202   2.991   4.877 -0.1448  0.2357  2.6077
12079TIP3    H257653   2.349   3.005   4.907  0.0348  1.4304  1.2306
12080TIP3   OH257654   3.327   4.767   1.516  0.2960  0.2135  0.2294
12080TIP3    H157655   3.333   4.799   1.426 -1.7613 -1.2609 -0.5019
12080TIP3    H257656   3.251   4.813   1.553 -0.7263 -1.3790  0.1894
12081TIP3   OH257657   2.186   0.461  10.637  0.0115  0.2889  0.5218
12081TIP3    H157658   2.240   0.386  10.662 -0.2799 -0.4857 -1.0755
12081TIP3    H257659   2.096   0.431  10.646 -0.2182  1.3908  2.5994
12082TIP3   OH257660   0.153   4.148   3.990  0.6433 -0.1972 -0.0818
12082TIP3    H157661   0.208   4.082   3.947  2.7521  0.9668  0.6882
12082TIP3    H257662   0.215   4.211   4.026 -1.1833  0.7715  1.5658
12083TIP3   OH257663   3.647   5.110  12.875  0.4695 -0.4098 -0.7552
12083TIP3    H157664   3.694   5.180  12.830  0.5437  0.4208  0.5573
12083TIP3    H257665   3.714   5.066  12.926  0.1857 -0.5845 -0.5353
12084TIP3   OH257666   4.534   6.016  11.307 -0.4458  0.7797 -0.2010
12084TIP3    H157667   4.544   6.033  11.213 -2.3684  0.4203 -0.5209
12084TIP3    H257668   4.516   5.922  11.313 -2.5023  1.1600  0.2746
12085TIP3   OH257669   1.686   5.031  17.164 -0.3927  0.0676 -0.2718
12085TIP3    H157670   1.622   5.003  17.099  0.9259 -0.9333 -1.1948
12085TIP3    H257671   1.655   4.993  17.246  0.0450 -2.1349 -1.0623
12086TIP3   OH257672   5.860   2.481   5.555  0.3943  0.3605 -0.6041
12086TIP3    H157673   5.864   2.515   5.645 -0.7720 -4.6042  1.6524
12086TIP3    H257674   5.952   2.475   5.528  0.8296  1.0422  0.6274
12087TIP3   OH257675   0.317   4.506  16.182 -0.4597  0.0185  0.0960
12087TIP3    H157676   0.276   4.467  16.105 -1.7131  1.3960  0.0190
12087TIP3    H257677   0.261   4.581  16.203  0.3837  0.2062  1.7993
12088TIP3   OH257678   2.646   0.621  13.290 -0.3225 -0.5839 -0.4311
12088TIP3    H157679   2.740   0.612  13.274 -0.0246  0.3791  0.6112
12088TIP3    H257680   2.640   0.665  13.375 -1.6947  0.5736 -1.0787
12089TIP3   OH257681   4.362   2.829  14.853  0.0371 -0.2176  0.7217
12089TIP3    H157682   4.329   2.896  14.913  0.5530  0.3378  0.3950
12089TIP3    H257683   4.438   2.869  14.811 -1.0635 -0.0708 -1.3025
12090TIP3   OH257684   5.351   5.014   2.531  0.1076  0.2556  0.0461
12090TIP3    H157685   5.390   4.980   2.612  0.5321 -0.6243 -0.5064
12090TIP3    H257686   5.285   4.949   2.508 -0.1963  0.6416 -0.1678
12091TIP3   OH257687   3.611   6.303   3.750  0.4570  0.2469 -0.2136
12091TIP3    H157688   3.558   6.380   3.729 -0.4333 -0.4982 -0.7479
12091TIP3    H257689   3.594   6.242   3.679  0.7556 -0.6508  0.4714
12092TIP3   OH257690   3.590   2.224   2.524  0.0906  0.1184  0.1153
12092TIP3    H157691   3.577   2.152   2.462  0.3412  0.6307 -0.5414
12092TIP3    H257692   3.623   2.296   2.470  1.3679  0.2304  1.0192
12093TIP3   OH257693   3.424   3.720  15.813  0.9455  0.3577 -0.1323
12093TIP3    H157694   3.350   3.777  15.792 -0.6802 -1.7423 -0.4493
12093TIP3    H257695   3.395   3.672  15.891  1.9285 -0.5708 -0.3139
12094TIP3   OH257696   4.036   0.922  10.771 -0.3438 -0.4889 -0.4510
12094TIP3    H157697   3.963   0.960  10.722 -0.9238 -2.3699 -1.1482
12094TIP3    H257698   4.033   0.828  10.750  1.7054 -0.7688  0.2597
12095TIP3   OH257699   0.845   5.427  15.518  0.3998  0.6287 -0.1118
12095TIP3    H157700   0.927   5.379  15.516  0.3120  0.4332  0.7740
12095TIP3    H257701   0.805   5.410  15.433  0.5851 -0.4892  0.0136
12096TIP3   OH257702   0.838   3.732   3.320 -0.3681 -0.1081 -0.4639
12096TIP3    H157703   0.830   3.640   3.345  1.0176 -0.1117  0.0108
12096TIP3    H257704   0.806   3.735   3.230 -1.4762 -0.8411 -0.1134
12097TIP3   OH257705   5.278   2.754   2.411 -0.7333  0.3487 -0.0250
12097TIP3    H157706   5.324   2.742   2.328  2.0945 -1.3565  1.6587
12097TIP3    H257707   5.203   2.694   2.405 -0.4256  0.0543 -1.2307
12098TIP3   OH257708   1.170   1.797   5.355 -0.3546  0.5919 -0.1010
12098TIP3    H157709   1.120   1.857   5.410  3.2297  1.9008  2.0992
12098TIP3    H257710   1.205   1.852   5.285  1.1513  0.6519  0.6613
12099TIP3   OH257711   0.483   0.137   6.223  0.2591  0.1874  0.5635
12099TIP3    H157712   0.553   0.127   6.159 -0.3087  3.0720 -0.6944
12099TIP3    H257713   0.529   0.147   6.307  1.2687  0.4122  0.0040
12100TIP3   OH257714   4.674   5.505   3.693  0.1303 -0.2642 -0.1373
12100TIP3    H157715   4.618   5.428   3.682  1.1244 -0.7083 -2.6822
12100TIP3    H257716   4.733   5.504   3.618  1.4214  1.9872  0.7218
12101TIP3   OH257717   1.272   3.970   3.127 -0.1562  0.1305  0.6018
12101TIP3    H157718   1.364   3.963   3.102 -0.3442  0.5763 -0.2697
12101TIP3    H257719   1.263   3.910   3.201  0.4509 -1.3047 -0.4211
12102TIP3   OH257720   4.599   0.094  17.087 -0.5908 -0.4707 -0.3238
12102TIP3    H157721   4.515   0.059  17.116 -0.8183 -0.6204 -1.1597
12102TIP3    H257722   4.639   0.021  17.039  0.4963 -0.7795  0.9761
12103TIP3   OH257723   4.524   0.802  16.415 -0.3632 -0.5068 -0.4365
12103TIP3    H157724   4.434   0.769  16.415 -0.3454 -0.6598 -2.2594
12103TIP3    H257725   4.557   0.782  16.503 -1.7896 -1.3102 -0.0481
12104TIP3   OH257726   5.657   3.762  13.156  0.4485  0.1261  0.1308
12104TIP3    H157727   5.634   3.763  13.063  1.3752  1.2737 -0.1098
12104TIP3    H257728   5.714   3.686  13.166  0.0033 -0.2500 -0.1423
12105TIP3   OH257729   3.277   1.150  14.594 -0.1744  0.1429 -0.0652
12105TIP3    H157730   3.289   1.056  14.605 -1.2252  0.0383  0.2333
12105TIP3    H257731   3.362   1.187  14.619 -0.4558 -0.5634  2.1311
12106TIP3   OH257732   6.547   1.399  15.700  0.1353  0.5845  0.3043
12106TIP3    H157733   6.499   1.449  15.634  2.2960  0.2573 -1.6559
12106TIP3    H257734   6.575   1.464  15.764 -1.1354  1.0853  0.3690
12107TIP3   OH257735   4.828   6.236  14.350  0.1746 -0.1534 -0.6104
12107TIP3    H157736   4.845   6.223  14.443 -2.1755  0.9604  0.0564
12107TIP3    H257737   4.901   6.291  14.320 -0.6234  2.1999  1.4047
12108TIP3   OH257738   2.940   4.378   1.158  0.0052  0.9284  0.2959
12108TIP3    H157739   2.888   4.376   1.238  0.2073  2.2389  0.4876
12108TIP3    H257740   3.022   4.420   1.183  0.6306  0.1119 -0.3062
12109TIP3   OH257741   4.677   0.331   4.407 -0.1452  0.3783 -0.3193
12109TIP3    H157742   4.722   0.278   4.341 -2.0430 -0.9769 -0.6080
12109TIP3    H257743   4.709   0.298   4.491  1.1868  1.1109 -0.5189
12110TIP3   OH257744   5.284   3.612  16.260  0.5785  0.1580  0.4461
12110TIP3    H157745   5.219   3.580  16.322  0.7452  0.2967  0.6931
12110TIP3    H257746   5.361   3.631  16.313  0.5099  0.8935  0.2921
12111TIP3   OH257747   4.037   5.034   1.841  0.0307 -0.1846 -0.0386
12111TIP3    H157748   3.945   5.018   1.818  0.3508 -2.0229 -0.1421
12111TIP3    H257749   4.042   5.129   1.853 -1.2266  0.3257 -2.8564
12112TIP3   OH257750   5.835   1.042   2.295  0.0679 -0.4509 -0.6154
12112TIP3    H157751   5.864   0.954   2.317 -0.6255 -0.6071 -0.2958
12112TIP3    H257752   5.901   1.099   2.333  0.3902 -0.8237 -0.6111
12113TIP3   OH257753   1.433   0.193   1.251 -0.8417  0.2585  0.3085
12113TIP3    H157754   1.481   0.216   1.171  0.2648  0.2026  0.9254
12113TIP3    H257755   1.358   0.142   1.221 -1.1824  1.3842 -0.7870
12114TIP3   OH257756   0.880   3.411  14.422 -0.0036  0.3546 -0.8618
12114TIP3    H157757   0.786   3.422  14.436 -0.2352 -0.5704 -1.5788
12114TIP3    H257758   0.893   3.316  14.422  0.8101  0.4512 -1.5248
12115TIP3   OH257759   4.441   6.526   5.297  0.0557  0.1618 -0.2882
12115TIP3    H157760   4.392   6.532   5.379  1.4515  0.1235  0.5659
12115TIP3    H257761   4.516   6.471   5.318 -0.0002 -0.5460 -1.8180
12116TIP3   OH257762   5.332   2.597   5.352 -0.2208 -0.2377 -0.3467
12116TIP3    H157763   5.256   2.655   5.352  1.3598  2.0714  2.3687
12116TIP3    H257764   5.378   2.619   5.271 -0.4114  1.2526 -0.0774
12117TIP3   OH257765   2.405   5.420  15.183 -0.8181  0.1493  0.0616
12117TIP3    H157766   2.419   5.325  15.186 -1.5663  0.0121 -0.3735
12117TIP3    H257767   2.493   5.457  15.178 -0.4863 -0.4829  0.9437
12118TIP3   OH257768   6.711   1.742  13.002  0.0214  0.1545  0.7916
12118TIP3    H157769   6.721   1.832  12.972  0.4481 -0.2248 -0.2548
12118TIP3    H257770   6.647   1.747  13.073 -2.1276  0.9447 -1.0758
12119TIP3   OH257771   4.757   5.565  14.696  0.4127  0.7314  0.2617
12119TIP3    H157772   4.791   5.567  14.607 -0.4149  0.2454 -0.0759
12119TIP3    H257773   4.762   5.656  14.725 -0.8400  1.2134 -0.8962
12120TIP3   OH257774   3.205   5.760   2.483  0.2856 -0.6279 -0.1267
12120TIP3    H157775   3.183   5.827   2.418  0.3096 -1.3233 -0.8657
12120TIP3    H257776   3.133   5.764   2.546 -0.0420 -0.3469 -0.5133
12121TIP3   OH257777   5.418   4.617   5.639  0.2484  0.5442 -0.0217
12121TIP3    H157778   5.402   4.696   5.588  0.1717  0.4752 -0.1034
12121TIP3    H257779   5.331   4.587   5.665  0.3408  1.3412  1.3179
12122TIP3   OH257780   4.492   0.823  16.896 -1.2241 -0.2925  0.5848
12122TIP3    H157781   4.473   0.898  16.951  2.1572  1.2799 -0.1203
12122TIP3    H257782   4.555   0.771  16.946 -0.2066 -0.2932 -0.6423
12123TIP3   OH257783   3.213   5.688  16.026 -0.1161 -0.6616 -0.1222
12123TIP3    H157784   3.267   5.751  16.075  0.1580  0.3876 -1.6808
12123TIP3    H257785   3.153   5.653  16.091  1.3095 -0.5934  1.3206
12124TIP3   OH257786   0.935   0.395   1.190 -0.7798  0.0351  0.0751
12124TIP3    H157787   0.847   0.423   1.165 -0.1011  2.0641 -0.1610
12124TIP3    H257788   0.989   0.414   1.114  0.3601  1.4215  1.1837
12125TIP3   OH257789   5.230   2.164   3.685  0.4640 -0.2399 -0.3968
12125TIP3    H157790   5.290   2.234   3.659 -0.6522  1.3431  1.0506
12125TIP3    H257791   5.250   2.148   3.777  0.2390 -1.3849 -0.5232
12126TIP3   OH257792   1.502   3.202  15.585  0.2254  0.3389  0.3094
12126TIP3    H157793   1.408   3.197  15.603  0.2416  1.3270  0.7124
12126TIP3    H257794   1.518   3.294  15.568  1.0094  0.0715 -0.4458
12127TIP3   OH257795   0.703   2.611  13.282 -0.2468 -0.2360  0.1246
12127TIP3    H157796   0.700   2.542  13.216  0.4095  0.3656 -0.5500
12127TIP3    H257797   0.791   2.606  13.319  0.6177  1.6532 -1.5194
12128TIP3   OH257798   5.521   2.476   6.575 -0.1339 -0.6396 -0.0608
12128TIP3    H157799   5.609   2.437   6.576  0.6024  0.9199 -0.9730
12128TIP3    H257800   5.479   2.442   6.654  0.2664 -3.6191 -0.9924
12129TIP3   OH257801   1.210   1.510  12.361 -0.5493  0.0889 -0.4969
12129TIP3    H157802   1.278   1.556  12.312  0.4106  1.3853  1.9297
12129TIP3    H257803   1.255   1.434  12.399 -0.5234  0.7031  0.7451
12130TIP3   OH257804   5.521   2.782  12.817 -0.0568  0.4265  0.6770
12130TIP3    H157805   5.589   2.783  12.884 -0.7053 -0.0505  1.3608
12130TIP3    H257806   5.536   2.862  12.767  2.6298 -0.9079 -0.8748
12131TIP3   OH257807   2.136   1.486   1.836  0.5473 -0.0040 -0.1901
12131TIP3    H157808   2.205   1.496   1.902 -0.9363  0.4791  1.3669
12131TIP3    H257809   2.153   1.401   1.796  1.1939 -0.5785  1.2158
12132TIP3   OH257810   3.694   0.719  14.199  0.0581  0.1274  0.5694
12132TIP3    H157811   3.758   0.648  14.197 -0.9662 -0.7977 -0.5547
12132TIP3    H257812   3.661   0.718  14.289 -0.6064 -1.4559  0.3384
12133TIP3   OH257813   0.170   0.265  13.243  0.0822 -0.2520 -0.4775
12133TIP3    H157814   0.220   0.209  13.303 -0.7330 -0.0348  0.4269
12133TIP3    H257815   0.137   0.205  13.176 -2.9944 -1.4629  1.8653
12134TIP3   OH257816   5.320   0.864   0.545 -0.0239 -0.1321  0.0630
12134TIP3    H157817   5.263   0.837   0.617 -0.8456 -0.8059 -0.8160
12134TIP3    H257818   5.395   0.906   0.588 -0.3010 -0.8755  1.3278
12135TIP3   OH257819   5.958   1.955   5.465 -0.1206  0.8007  0.0106
12135TIP3    H157820   5.970   1.861   5.483  1.8167  0.6198 -1.9145
12135TIP3    H257821   5.914   1.958   5.380 -1.5121  1.6854  0.7118
12136TIP3   OH257822   2.543   1.744   0.993  0.2947 -0.1263  0.0679
12136TIP3    H157823   2.592   1.677   0.944  0.7326  0.4624 -0.3078
12136TIP3    H257824   2.599   1.821   0.991 -0.2934  0.3161  0.3375
12137TIP3   OH257825   0.023   5.966   3.009  0.3232 -0.1817  0.7347
12137TIP3    H157826  -0.069   5.986   3.025  0.2599  0.2342 -0.1085
12137TIP3    H257827   0.056   5.936   3.093 -0.6667 -0.6469  0.9724
12138TIP3   OH257828   6.534   3.483  15.531 -0.0452 -0.0549 -0.7145
12138TIP3    H157829   6.458   3.428  15.552 -0.7044  0.7770 -0.8574
12138TIP3    H257830   6.528   3.498  15.437 -0.1267  0.6098 -0.6133
12139TIP3   OH257831   3.970   5.551  13.331 -0.1779 -0.0741  0.1857
12139TIP3    H157832   4.064   5.560  13.313 -0.2511 -0.7676 -0.6113
12139TIP3    H257833   3.936   5.640  13.329  0.8560  0.4626  2.8611
12140TIP3   OH257834   3.102   4.026  10.832  0.2187  0.5971 -0.3159
12140TIP3    H157835   3.036   4.066  10.889 -0.4055  1.1528 -1.4122
12140TIP3    H257836   3.145   4.100  10.789  0.3596  0.1680 -0.9240
12141TIP3   OH257837   2.300   5.216  13.253 -0.7770 -0.0260 -0.0545
12141TIP3    H157838   2.265   5.233  13.341  0.2516  0.1512  0.3309
12141TIP3    H257839   2.394   5.210  13.266 -0.5332  0.9624 -1.3111
12142TIP3   OH257840   0.717   5.631   2.642 -0.6647  0.1355  0.4184
12142TIP3    H157841   0.672   5.705   2.683 -0.2848 -0.1794  1.4221
12142TIP3    H257842   0.809   5.641   2.665 -0.8740 -1.7747  2.4154
12143TIP3   OH257843   5.409   2.968   1.290 -0.6425 -0.1523 -0.2412
12143TIP3    H157844   5.490   2.948   1.244  0.7018  0.0035  1.9149
12143TIP3    H257845   5.347   2.991   1.221  1.0655 -0.4938 -1.9702
12144TIP3   OH257846   5.945   4.234  11.584  0.0281 -0.1411 -0.3518
12144TIP3    H157847   5.990   4.174  11.643  0.5967  0.5999 -0.0186
12144TIP3    H257848   5.931   4.313  11.636  1.8621  1.0853 -1.6006
12145TIP3   OH257849   5.867   2.999   5.909 -0.1745 -0.1834  0.4436
12145TIP3    H157850   5.922   3.070   5.875  0.3495 -0.7099  0.1806
12145TIP3    H257851   5.878   2.928   5.846  0.5271 -1.0482  1.5072
12146TIP3   OH257852   0.954   0.136  13.705  0.2904 -0.1144 -0.5981
12146TIP3    H157853   1.038   0.176  13.726 -0.6244  2.0711 -0.9175
12146TIP3    H257854   0.914   0.194  13.641 -1.6729 -0.8388 -0.1124
12147TIP3   OH257855   6.722   5.407  12.504  0.0292  0.0651  0.1819
12147TIP3    H157856   6.745   5.499  12.489 -1.7223  0.4955 -0.1438
12147TIP3    H257857   6.651   5.411  12.568  0.7410 -1.1673  1.0899
12148TIP3   OH257858   0.218   1.259  13.894 -0.0570  0.3207  0.3386
12148TIP3    H157859   0.223   1.263  13.989  3.5648 -1.1932  0.3771
12148TIP3    H257860   0.220   1.166  13.874 -3.0857  0.4891 -1.2929
12149TIP3   OH257861   6.582   4.121  13.762  0.2624  0.6153  0.7428
12149TIP3    H157862   6.635   4.197  13.736  1.3315  0.5303  2.5178
12149TIP3    H257863   6.566   4.074  13.680  1.8591  1.3438 -0.0370
12150TIP3   OH257864   1.870   4.775  12.342  0.1582  0.3635 -0.1884
12150TIP3    H157865   1.903   4.702  12.394  0.6107  0.9289  0.3381
12150TIP3    H257866   1.814   4.824  12.402 -1.8108 -0.6661 -1.1113
12151TIP3   OH257867   6.263   3.785  16.795  0.2539 -0.5612  0.1466
12151TIP3    H157868   6.300   3.871  16.772  0.0953 -0.7701 -0.9516
12151TIP3    H257869   6.334   3.723  16.779 -0.6143 -1.0124 -2.3751
12152TIP3   OH257870   1.312   2.065   5.705 -0.3695  0.1514 -1.1030
12152TIP3    H157871   1.315   2.054   5.800  1.8926 -0.8661 -1.2292
12152TIP3    H257872   1.218   2.068   5.684 -0.9321 -0.9505  1.0108
12153TIP3   OH257873   3.225   4.907  11.628  0.5539 -0.1634  0.1807
12153TIP3    H157874   3.310   4.892  11.587  0.3403  1.2692 -0.8597
12153TIP3    H257875   3.235   4.872  11.716  1.1807 -2.8975 -0.8787
12154TIP3   OH257876   1.041   3.995  14.652 -0.0808 -0.1517 -0.4764
12154TIP3    H157877   0.982   4.006  14.578  0.3250 -1.0951 -0.9580
12154TIP3    H257878   1.126   3.976  14.613  0.8817  2.4885  0.1756
12155TIP3   OH257879   6.411   0.258   3.532  0.3541  0.5995  0.0560
12155TIP3    H157880   6.370   0.342   3.551 -1.8653 -0.2746 -0.5138
12155TIP3    H257881   6.388   0.241   3.440 -0.0246 -0.9994  0.4169
12156TIP3   OH257882   4.090   4.438   2.884 -0.0564 -0.4105  0.1503
12156TIP3    H157883   4.020   4.414   2.824 -0.4596 -0.7290  0.7350
12156TIP3    H257884   4.046   4.480   2.958  0.4527  0.2055  0.1168
12157TIP3   OH257885   1.095   0.529  13.096 -0.1031 -0.4408  0.2204
12157TIP3    H157886   1.122   0.531  13.004 -0.0441 -0.9238  0.2217
12157TIP3    H257887   1.107   0.618  13.127  2.1844 -0.7663  0.4155
12158TIP3   OH257888   0.272   0.889  16.421  0.0815  0.2232 -0.4124
12158TIP3    H157889   0.246   0.921  16.507  1.0504 -0.2463  0.0632
12158TIP3    H257890   0.368   0.891  16.422  0.1100 -0.0773 -1.3660
12159TIP3   OH257891   3.672   6.705  12.429 -0.2854  0.4969  0.1200
12159TIP3    H157892   3.750   6.734  12.381 -0.1348  0.9524  0.6288
12159TIP3    H257893   3.705   6.682  12.516 -0.8740  1.7138  0.6912
12160TIP3   OH257894   1.195   3.785  13.017 -0.1440  0.2559  0.6327
12160TIP3    H157895   1.281   3.758  12.985 -0.8838  0.5909 -1.7814
12160TIP3    H257896   1.137   3.712  12.995 -0.8830  0.9646  0.1743
12161TIP3   OH257897   2.343   6.590   1.068 -0.1865  0.4700 -0.0858
12161TIP3    H157898   2.372   6.507   1.107 -2.0351  0.4612  1.3847
12161TIP3    H257899   2.295   6.564   0.990  0.5418  0.2578 -0.4676
12162TIP3   OH257900   1.413   1.600   1.292 -0.4501 -0.2903 -0.0236
12162TIP3    H157901   1.397   1.579   1.200  1.9950  1.2112 -0.8938
12162TIP3    H257902   1.463   1.526   1.325 -2.5385 -1.4968  0.5618
12163TIP3   OH257903   2.579   0.500  13.040  0.1934 -0.0649  0.4006
12163TIP3    H157904   2.656   0.508  12.983 -0.4963  1.1392 -0.3958
12163TIP3    H257905   2.599   0.558  13.114  1.3709 -2.1157  1.7741
12164TIP3   OH257906   4.507   5.172  16.854 -0.0269 -0.3434  0.2141
12164TIP3    H157907   4.587   5.151  16.805  0.3702  0.8598  0.3250
12164TIP3    H257908   4.476   5.253  16.816 -0.1826  0.1699  1.3784
12165TIP3   OH257909   0.976   6.039   5.844 -0.0209 -0.1895  0.2314
12165TIP3    H157910   0.999   6.043   5.751 -0.7835  0.5822  0.0569
12165TIP3    H257911   0.882   6.061   5.846 -0.1677 -0.8629  1.1180
12166TIP3   OH257912   5.691   1.280  16.213 -0.4545 -0.9661 -0.1777
12166TIP3    H157913   5.653   1.250  16.295 -1.1795 -0.6459 -0.3889
12166TIP3    H257914   5.784   1.260  16.221 -0.0911  1.0504  1.6493
12167TIP3   OH257915   0.934   6.285  12.354 -0.8391  0.2042 -0.5321
12167TIP3    H157916   0.919   6.357  12.293  0.0719  0.0437 -0.9470
12167TIP3    H257917   0.974   6.216  12.302  1.1250  0.5248  0.4777
12168TIP3   OH257918   1.236   2.563  16.950 -0.4855 -0.3462 -0.0590
12168TIP3    H157919   1.326   2.558  16.983 -0.9876  1.1165  1.6565
12168TIP3    H257920   1.189   2.616  17.014 -2.4394 -0.5131 -1.2600
12169TIP3   OH257921   3.014   3.086  13.891  0.0959 -0.3622  0.3026
12169TIP3    H157922   2.992   2.994  13.876  0.2985 -0.3874  0.1646
12169TIP3    H257923   3.097   3.099  13.846  0.4257 -0.2928  0.9130
12170TIP3   OH257924   1.933   1.221   5.626  0.1416  0.1444  0.3777
12170TIP3    H157925   1.878   1.169   5.568  1.1582  0.3352 -0.8239
12170TIP3    H257926   1.879   1.238   5.703 -1.3728  0.1225 -0.6357
12171TIP3   OH257927   0.651   6.274   3.210  0.0880 -0.8700  0.3353
12171TIP3    H157928   0.581   6.246   3.269  0.0891 -0.2745  0.6214
12171TIP3    H257929   0.728   6.227   3.242 -0.0981 -1.2393  0.2477
12172TIP3   OH257930   2.207   4.060  13.036  0.0075 -0.1066 -0.0167
12172TIP3    H157931   2.224   3.966  13.034  1.9640  0.1767  0.8189
12172TIP3    H257932   2.212   4.088  12.945 -1.5919 -0.9359 -0.3878
12173TIP3   OH257933   2.132   0.662   2.074 -0.4717  0.3551 -0.0389
12173TIP3    H157934   2.125   0.734   2.137  1.1807  0.8386 -0.3609
12173TIP3    H257935   2.112   0.701   1.989  0.3202  0.4388 -0.2001
12174TIP3   OH257936   0.426   3.944  15.898 -0.4720  0.0703 -0.1378
12174TIP3    H157937   0.335   3.970  15.911 -0.2290  0.3830  1.0835
12174TIP3    H257938   0.471   4.026  15.877 -0.3548  0.0264 -0.0569
12175TIP3   OH257939   4.970   1.470   3.947  0.3253 -0.0344 -0.4984
12175TIP3    H157940   4.996   1.406   4.013 -0.4513 -0.2392 -0.3776
12175TIP3    H257941   5.037   1.538   3.952  0.1806  0.0498  0.6559
12176TIP3   OH257942   3.189   0.126   1.097 -0.0121 -0.4137 -0.7057
12176TIP3    H157943   3.122   0.062   1.075 -1.8843  0.5487  1.7715
12176TIP3    H257944   3.153   0.210   1.070  0.0468  0.1383  0.8280
12177TIP3   OH257945   6.037   3.143   0.470 -0.2445  0.0533 -0.1655
12177TIP3    H157946   6.062   3.205   0.538  0.1095  0.3517 -0.5646
12177TIP3    H257947   5.943   3.129   0.484 -0.3438  0.7354 -0.1142
12178TIP3   OH257948   2.976   4.512  14.183  0.3744 -0.4628  0.5409
12178TIP3    H157949   2.948   4.483  14.269  0.6138 -0.0778  0.7493
12178TIP3    H257950   3.064   4.547  14.196  0.0975  0.3385  0.2948
12179TIP3   OH257951   3.956   3.240   0.676 -0.5323 -0.0849 -0.5424
12179TIP3    H157952   3.865   3.266   0.691 -0.7714  0.7401 -2.9624
12179TIP3    H257953   3.958   3.211   0.585  1.0267 -3.0737  0.3119
12180TIP3   OH257954   3.189   2.197   3.335 -0.1257  0.2378  0.3971
12180TIP3    H157955   3.194   2.200   3.239  1.1365  2.5217  0.4649
12180TIP3    H257956   3.152   2.282   3.360  0.7705  0.2100  1.9761
12181TIP3   OH257957   2.660   5.418   0.599  0.1225 -0.1454 -0.0667
12181TIP3    H157958   2.651   5.464   0.682  2.3410 -0.7354  0.5685
12181TIP3    H257959   2.571   5.392   0.576 -0.8104  1.7577  1.0805
12182TIP3   OH257960   0.461   2.830   0.566 -0.2082  0.1757 -0.0598
12182TIP3    H157961   0.535   2.886   0.542 -0.1138  1.2284  2.3758
12182TIP3    H257962   0.500   2.757   0.614 -0.6390  0.1061  0.1944
12183TIP3   OH257963   4.018   5.096  11.812  0.0534 -0.0082 -0.0497
12183TIP3    H157964   3.999   5.186  11.839  0.6555  0.2370 -0.4121
12183TIP3    H257965   4.099   5.074  11.858  0.6849  0.1462 -1.0581
12184TIP3   OH257966   5.472   0.442   5.570  0.0670  0.1943 -0.3205
12184TIP3    H157967   5.549   0.441   5.627 -1.3776  0.8135  1.7294
12184TIP3    H257968   5.420   0.516   5.600 -2.7025 -1.8445  0.2832
12185TIP3   OH257969   0.829   0.321  13.549  0.0581  0.0699  0.0238
12185TIP3    H157970   0.782   0.385  13.603  2.6107  2.0960  0.0414
12185TIP3    H257971   0.784   0.324  13.465 -2.2799 -1.1061  1.1350
12186TIP3   OH257972   4.333   2.636  13.759 -0.5601  0.1161  0.5056
12186TIP3    H157973   4.306   2.684  13.681 -1.3232  1.7910  1.7443
12186TIP3    H257974   4.421   2.603  13.738 -1.5763 -1.3988 -1.8463
12187TIP3   OH257975   0.224   6.709  11.768  0.4335 -0.1760 -0.3305
12187TIP3    H157976   0.251   6.753  11.687  1.3135 -1.0617 -0.5438
12187TIP3    H257977   0.225   6.616  11.745  0.0016 -0.3907  0.5050
12188TIP3   OH257978   2.931   1.190  17.304  0.0433  0.1518 -1.0285
12188TIP3    H157979   2.983   1.263  17.338 -0.6790 -0.2935  1.2012
12188TIP3    H257980   2.841   1.211  17.329 -0.3983 -0.7102 -1.8285
12189TIP3   OH257981   0.930   6.422   1.579  0.1429  0.3396  0.1127
12189TIP3    H157982   0.893   6.505   1.608 -0.0804 -0.2247  1.5208
12189TIP3    H257983   0.883   6.402   1.498  0.7054  1.9110 -0.6302
12190TIP3   OH257984   6.397   5.037   1.065  0.2724 -0.4565  0.2998
12190TIP3    H157985   6.438   5.076   0.987  0.6602  0.3611  0.8924
12190TIP3    H257986   6.463   5.048   1.134  0.0086 -1.3503  0.7049
12191TIP3   OH257987   2.585   4.990   3.228  0.6705  0.1558 -0.2603
12191TIP3    H157988   2.625   4.922   3.174 -1.1427 -0.5369 -0.7775
12191TIP3    H257989   2.525   4.943   3.286  0.6802  1.1526  0.6009
12192TIP3   OH257990   2.318   6.438  15.563 -0.6228  0.3535 -0.1402
12192TIP3    H157991   2.342   6.382  15.636  0.0489 -0.8992 -1.2781
12192TIP3    H257992   2.401   6.474  15.532 -0.9376  1.1348 -0.1117
12193TIP3   OH257993   4.352   3.705   1.961  0.0749  0.7608  0.3285
12193TIP3    H157994   4.425   3.760   1.930  0.4063 -0.1966 -0.6444
12193TIP3    H257995   4.281   3.722   1.899 -0.0063  0.5158  0.3539
12194TIP3   OH257996   6.151   6.369   5.209 -0.3588 -0.0219 -0.3385
12194TIP3    H157997   6.198   6.443   5.248 -0.6013  0.2565 -0.5721
12194TIP3    H257998   6.201   6.348   5.130 -0.2557 -0.1495 -0.2406
12195TIP3   OH257999   3.869   6.290  16.841 -0.6361  0.1211  0.3829
12195TIP3    H158000   3.792   6.247  16.803 -0.3562 -1.2042  1.2428
12195TIP3    H258001   3.849   6.297  16.934 -0.4945  1.5408  0.3225
12196TIP3   OH258002   2.201   4.944  16.288 -0.4209  0.3879 -0.1715
12196TIP3    H158003   2.201   4.924  16.194 -0.7439  0.5160 -0.2007
12196TIP3    H258004   2.142   5.019  16.297 -1.8282 -0.7271  0.3543
12197TIP3   OH258005   6.246   6.193   0.473  0.0083  0.5671  0.0072
12197TIP3    H158006   6.176   6.243   0.431  2.0369 -0.5971 -5.5396
12197TIP3    H258007   6.324   6.248   0.462  1.5323 -1.8650 -2.6505
12198TIP3   OH258008   1.562   1.237  12.980 -0.1484 -0.4419  0.2561
12198TIP3    H158009   1.493   1.296  12.949  0.1134 -0.5080 -0.4728
12198TIP3    H258010   1.520   1.184  13.047 -0.1335  1.2444  1.6649
12199TIP3   OH258011   5.167   4.500   1.333 -0.0340 -1.1811  0.3978
12199TIP3    H158012   5.103   4.475   1.266 -0.9125  0.3742  0.5935
12199TIP3    H258013   5.161   4.596   1.336  0.1717 -1.1951  2.5125
12200TIP3   OH258014   6.284   4.439   4.310  0.7387 -0.6034 -0.4917
12200TIP3    H158015   6.332   4.379   4.253  0.5742  0.3905 -1.7189
12200TIP3    H258016   6.252   4.383   4.381  2.3824 -1.5675 -0.4489
12201TIP3   OH258017   3.281   1.128  12.368 -0.0825 -0.3454  0.4404
12201TIP3    H158018   3.324   1.046  12.346 -0.1671 -0.4549  0.6728
12201TIP3    H258019   3.226   1.148  12.292  0.3532 -0.2207  0.1583
12202TIP3   OH258020   0.635   3.352  15.532  0.1898 -0.7595  0.3520
12202TIP3    H158021   0.690   3.304  15.470 -0.4724 -1.1430  0.0553
12202TIP3    H258022   0.696   3.411  15.577  1.0036 -1.8019  0.6600
12203TIP3   OH258023   2.212   0.917  17.096 -0.1546  0.0638 -0.3909
12203TIP3    H158024   2.273   0.843  17.101 -0.8438 -0.5377 -0.6680
12203TIP3    H258025   2.193   0.939  17.187  0.5504  0.3304 -0.3000
12204TIP3   OH258026   6.142   5.778  14.566  0.4673 -0.0252 -0.0757
12204TIP3    H158027   6.175   5.743  14.483  0.7509 -1.5619  0.6417
12204TIP3    H258028   6.180   5.866  14.572  2.7978 -0.9394 -0.2578
12205TIP3   OH258029   1.845   6.080  12.894 -0.1306 -0.2367 -0.0110
12205TIP3    H158030   1.895   6.010  12.852 -0.3030  0.1350 -0.8711
12205TIP3    H258031   1.828   6.048  12.983 -0.9279 -1.6694 -0.6317
12206TIP3   OH258032   5.560   1.399  17.207  0.0685 -0.1681  0.6151
12206TIP3    H158033   5.638   1.451  17.227 -0.3243  0.6938 -0.0540
12206TIP3    H258034   5.554   1.399  17.112 -0.0997 -1.2218  0.6124
12207TIP3   OH258035   2.130   2.574  16.330  0.2713 -0.5199  0.0128
12207TIP3    H158036   2.173   2.655  16.357 -1.4130  0.4686 -0.1359
12207TIP3    H258037   2.073   2.551  16.403  0.1778 -1.1551 -0.2506
12208TIP3   OH258038   0.761   0.205   6.096  0.5660  0.1603 -0.2409
12208TIP3    H158039   0.804   0.123   6.071  0.4460  0.2216 -0.6554
12208TIP3    H258040   0.753   0.254   6.014  1.2057  0.8608  0.1033
12209TIP3   OH258041   1.359   3.837   4.928 -0.0404 -0.3678  0.0504
12209TIP3    H158042   1.344   3.901   4.998 -0.9604 -0.2489 -0.2468
12209TIP3    H258043   1.343   3.885   4.847  0.5447 -0.6363 -0.2321
12210TIP3   OH258044   4.364   0.075   2.012  0.0759  0.1170 -0.7424
12210TIP3    H158045   4.414   0.009   1.964 -0.3642 -0.2531 -0.6945
12210TIP3    H258046   4.319   0.126   1.945 -0.9218 -0.7059 -0.7083
12211TIP3   OH258047   2.377   6.742  13.592 -0.6737  0.1512  0.0212
12211TIP3    H158048   2.395   6.712  13.682  1.8887 -0.7120 -0.6846
12211TIP3    H258049   2.460   6.779  13.563 -1.6348  0.9682 -1.8218
12212TIP3   OH258050   0.843   2.102  16.494  0.2182 -0.3923 -0.3512
12212TIP3    H158051   0.923   2.153  16.496  1.7408 -2.6315 -0.3748
12212TIP3    H258052   0.819   2.098  16.401  0.3324 -0.1140 -0.3941
12213TIP3   OH258053   4.559   2.598   5.602 -0.5113  0.1637 -0.6845
12213TIP3    H158054   4.583   2.637   5.518 -3.3005 -0.2107 -1.7435
12213TIP3    H258055   4.588   2.507   5.595  0.5874  0.4950 -0.6150
12214TIP3   OH258056   2.603   4.197  12.488 -0.3656 -0.4338  0.6693
12214TIP3    H158057   2.644   4.112  12.502  1.3441  0.2360 -0.0660
12214TIP3    H258058   2.520   4.176  12.444  0.6269 -1.6506 -0.7033
12215TIP3   OH258059   1.830   5.599  16.973 -0.1574  0.1861 -0.1062
12215TIP3    H158060   1.807   5.512  16.939  4.1950 -1.3099  0.1922
12215TIP3    H258061   1.909   5.585  17.025  0.9622  4.4126 -0.2920
12216TIP3   OH258062   2.969   2.607  13.406 -0.2123 -0.0424 -0.0951
12216TIP3    H158063   2.957   2.583  13.497 -0.2705 -0.3179 -0.1761
12216TIP3    H258064   3.035   2.677  13.409  0.6979 -0.8869  0.0636
12217TIP3   OH258065   6.096   1.487  12.799  0.4604 -0.2515  0.6011
12217TIP3    H158066   6.151   1.549  12.846 -0.8618  0.5166  1.2073
12217TIP3    H258067   6.054   1.539  12.731 -1.6902 -0.0840  1.9444
12218TIP3   OH258068   0.413   5.447  15.278 -0.2790  0.0837 -0.1344
12218TIP3    H158069   0.459   5.531  15.275 -1.1381  0.5961  0.4021
12218TIP3    H258070   0.320   5.471  15.279 -0.6688 -0.9598 -3.0927
12219TIP3   OH258071   6.108   5.948   4.889  0.1677  0.5638 -0.1327
12219TIP3    H158072   6.192   5.905   4.905  0.1050  1.3678  2.9946
12219TIP3    H258073   6.046   5.877   4.877  0.9358 -0.0737 -0.4430
12220TIP3   OH258074   3.201   6.562   1.337  0.1486 -0.6220  0.5957
12220TIP3    H158075   3.134   6.610   1.288  2.4748  1.0218 -1.1946
12220TIP3    H258076   3.195   6.596   1.426 -0.0464  1.0921 -0.0290
12221TIP3   OH258077   2.814   2.465  15.944  0.0564 -0.3260  0.0267
12221TIP3    H158078   2.763   2.435  16.018  0.1506 -0.6866 -0.0512
12221TIP3    H258079   2.867   2.537  15.978 -0.8789  0.4008 -0.0214
12222TIP3   OH258080   6.059   3.438  14.687 -0.2579 -0.4004 -0.5436
12222TIP3    H158081   6.008   3.460  14.609 -0.9437 -0.0662 -0.0157
12222TIP3    H258082   6.054   3.342  14.692 -0.8863 -0.3674 -0.4681
12223TIP3   OH258083   5.688   6.411  17.320  0.2078  0.5288 -0.1991
12223TIP3    H158084   5.646   6.368  17.394  0.6031  0.7339  0.1515
12223TIP3    H258085   5.655   6.501  17.323 -1.3028  0.0667 -1.4521
12224TIP3   OH258086   4.259   1.273   2.503  0.3927  0.3450  0.2033
12224TIP3    H158087   4.223   1.239   2.585 -0.7108  2.3000  0.5681
12224TIP3    H258088   4.310   1.200   2.468  0.9399 -0.5313  2.6385
12225TIP3   OH258089   3.102   1.445   1.248 -0.7821  0.1897 -0.3794
12225TIP3    H158090   3.161   1.461   1.322  0.1525 -0.9243 -0.8669
12225TIP3    H258091   3.017   1.478   1.278 -0.3097  0.2014  1.0002
12226TIP3   OH258092   3.686   0.038  16.039 -0.5580 -0.0501  0.2320
12226TIP3    H158093   3.619  -0.015  15.996 -1.3683 -0.8301  2.3494
12226TIP3    H258094   3.705   0.108  15.976 -0.1611 -2.2115 -2.2585
12227TIP3   OH258095   5.706   5.794  11.091 -0.2240  0.5103 -0.1252
12227TIP3    H158096   5.697   5.862  11.158 -1.3352  2.3099 -1.9460
12227TIP3    H258097   5.800   5.785  11.078  0.1826 -1.5074  3.0877
12228TIP3   OH258098   0.173   1.269  13.437 -0.1636 -0.0932 -0.0332
12228TIP3    H158099   0.187   1.347  13.490  0.8847 -0.6411  0.5248
12228TIP3    H258100   0.118   1.212  13.492 -1.6980  0.5775 -0.7927
12229TIP3   OH258101   4.433   1.895  13.013  0.5812  0.6111 -0.0839
12229TIP3    H158102   4.473   1.915  12.928  0.2746 -0.6411 -0.5586
12229TIP3    H258103   4.341   1.876  12.992  0.4098  0.6760  0.5823
12230TIP3   OH258104   1.231   0.272   5.783 -0.0896 -0.2705  0.0270
12230TIP3    H158105   1.283   0.204   5.739 -0.7527 -0.8227  0.0839
12230TIP3    H258106   1.162   0.224   5.828  0.1476  0.3381  1.0906
12231TIP3   OH258107   3.271   4.071   4.595  0.1602 -0.7035 -0.5983
12231TIP3    H158108   3.207   4.007   4.565  1.9663 -2.1459 -1.5578
12231TIP3    H258109   3.322   4.093   4.517  1.6626 -0.6023  0.3736
12232TIP3   OH258110   0.619   2.790   0.900 -0.1978 -0.1489  0.3475
12232TIP3    H158111   0.546   2.827   0.950 -2.4352 -2.0349 -1.3165
12232TIP3    H258112   0.590   2.702   0.876  1.5982 -0.0860 -2.5074
12233TIP3   OH258113   3.518   2.860   4.004 -0.5035 -0.2824  0.8655
12233TIP3    H158114   3.495   2.768   4.022  1.3685 -0.8719  0.5075
12233TIP3    H258115   3.573   2.856   3.926 -0.6290  1.1852  0.6831
12234TIP3   OH258116   2.726   3.225   0.199  0.4252 -0.7091  0.4631
12234TIP3    H158117   2.803   3.214   0.143  0.5493 -0.8587  0.6589
12234TIP3    H258118   2.652   3.216   0.139  0.5525 -1.0550  0.3510
12235TIP3   OH258119   3.645   2.791  16.835 -0.7207  0.0268 -0.1007
12235TIP3    H158120   3.621   2.699  16.834 -1.3558  0.1906 -0.6188
12235TIP3    H258121   3.739   2.791  16.850 -1.0319 -0.6253  2.1734
12236TIP3   OH258122   1.220   4.874  11.633 -0.0880 -0.7078 -0.5978
12236TIP3    H158123   1.304   4.918  11.619  0.5253 -0.8888  1.9928
12236TIP3    H258124   1.155   4.945  11.629  0.4848 -0.1379 -0.0720
12237TIP3   OH258125   1.465   6.378  15.796 -0.2536 -0.3602 -0.2811
12237TIP3    H158126   1.435   6.370  15.886  0.4895 -2.0560 -0.1513
12237TIP3    H258127   1.508   6.295  15.777  1.1539  0.6068 -1.6254
12238TIP3   OH258128   6.400   0.271  12.776 -0.5814 -0.4533 -0.4774
12238TIP3    H158129   6.419   0.202  12.712 -0.2272  0.9882 -1.9975
12238TIP3    H258130   6.305   0.278  12.775 -0.7071 -1.6574  0.5370
12239TIP3   OH258131   3.081   0.332  14.717 -0.7035  0.3472  0.6605
12239TIP3    H158132   3.030   0.412  14.705  1.8895  2.0778  0.2017
12239TIP3    H258133   3.125   0.319  14.632 -0.6798 -1.2721  0.8984
12240TIP3   OH258134   5.676   6.075  12.636 -0.0592 -0.4509 -0.1576
12240TIP3    H158135   5.613   6.097  12.567 -2.9586 -2.3077  1.7056
12240TIP3    H258136   5.726   6.002  12.600  1.0022  0.9266 -1.6030
12241TIP3   OH258137   6.655   2.455   3.551 -0.2710 -0.2492  0.6414
12241TIP3    H158138   6.742   2.479   3.584  0.0610  1.1059 -1.0447
12241TIP3    H258139   6.598   2.527   3.577  0.1071  1.1141 -1.9875
12242TIP3   OH258140   5.062   2.343   0.254 -0.1803  0.5258  0.1004
12242TIP3    H158141   5.124   2.407   0.217 -0.6809 -0.4295 -2.6375
12242TIP3    H258142   4.980   2.362   0.209  0.1011 -3.1705 -2.4036
12243TIP3   OH258143   6.261   3.288   4.713 -0.3138  0.1999 -0.1419
12243TIP3    H158144   6.197   3.286   4.784 -0.7285  0.5566 -0.5005
12243TIP3    H258145   6.296   3.199   4.709 -0.9924 -0.0753 -0.1269
12244TIP3   OH258146   3.289   1.528  11.058 -0.4996  0.1378  0.0875
12244TIP3    H158147   3.348   1.517  10.983 -0.2654 -1.1119  0.4308
12244TIP3    H258148   3.346   1.555  11.130 -0.4344 -0.3713  0.2365
12245TIP3   OH258149   3.183   3.799  10.678 -0.2683 -0.6520  0.3870
12245TIP3    H158150   3.237   3.847  10.616 -0.0326 -0.9359  0.3702
12245TIP3    H258151   3.147   3.867  10.736 -1.7272 -0.2112 -0.9715
12246TIP3   OH258152   2.844   2.770  10.780 -0.5368  0.3270  0.1670
12246TIP3    H158153   2.864   2.678  10.797 -1.9135  0.0717  0.5285
12246TIP3    H258154   2.749   2.776  10.789 -0.3843  1.9985  1.2226
12247TIP3   OH258155   5.273   0.234  15.802 -0.1063 -0.1077  0.1320
12247TIP3    H158156   5.206   0.230  15.870 -0.9431  0.2117 -0.6561
12247TIP3    H258157   5.243   0.173  15.735 -0.3283  1.0275 -0.8399
12248TIP3   OH258158   4.124   6.679   4.048  0.0692  0.6513  0.0326
12248TIP3    H158159   4.082   6.720   3.971 -0.7686  1.2149  0.7698
12248TIP3    H258160   4.215   6.709   4.043 -0.0822  1.0634 -0.4899
12249TIP3   OH258161   4.886   3.839  12.273 -0.3586 -0.4077 -0.0253
12249TIP3    H158162   4.853   3.804  12.356 -0.3847  0.2984  0.2647
12249TIP3    H258163   4.884   3.764  12.213 -0.7798 -0.8077  0.4816
12250TIP3   OH258164   5.240   2.671   4.514 -0.0241  0.5802  0.4791
12250TIP3    H158165   5.164   2.663   4.455  1.0317  0.9483 -0.9940
12250TIP3    H258166   5.282   2.585   4.510  1.4948  1.3439 -1.4198
12251TIP3   OH258167   6.607   6.739  14.673  1.2169 -0.2511 -0.0200
12251TIP3    H158168   6.605   6.809  14.608 -1.1366  0.6690  0.9529
12251TIP3    H258169   6.666   6.772  14.741 -0.8794  1.4878  1.0678
12252TIP3   OH258170   1.569   1.404  15.790 -1.0177  0.2358  0.0075
12252TIP3    H158171   1.655   1.420  15.827  0.3119 -1.7775 -1.9200
12252TIP3    H258172   1.551   1.480  15.735 -0.6255  0.8083  0.6608
12253TIP3   OH258173   1.400   4.464  13.179  0.5378  0.2734  0.3268
12253TIP3    H158174   1.312   4.427  13.175  0.5838 -0.2727  2.9461
12253TIP3    H258175   1.386   4.556  13.203  0.6415  0.8361 -1.5695
12254TIP3   OH258176   1.791   3.774   6.365  0.1226  1.1144 -0.5039
12254TIP3    H158177   1.707   3.779   6.412  1.2197  1.0511  1.5738
12254TIP3    H258178   1.800   3.682   6.341  2.1901 -0.3750  4.6164
12255TIP3   OH258179   3.072   6.161  11.803  0.1910  0.0455 -0.6165
12255TIP3    H158180   3.014   6.209  11.863  1.3718  2.0944 -1.0224
12255TIP3    H258181   3.029   6.169  11.718 -0.0542 -0.3935 -0.5357
12256TIP3   OH258182   6.346   1.427   3.469  0.4849  0.1857  0.3669
12256TIP3    H158183   6.288   1.374   3.414  0.6823  1.7087 -1.4014
12256TIP3    H258184   6.312   1.415   3.557 -0.6921 -1.2918 -0.2338
12257TIP3   OH258185   0.629   6.459  12.136  0.1965 -0.2828  0.0894
12257TIP3    H158186   0.607   6.460  12.042  1.0118 -1.4729 -0.1304
12257TIP3    H258187   0.721   6.485  12.139 -0.0382  0.5521  0.6573
12258TIP3   OH258188   6.435   2.055   2.575  0.4589 -0.1560 -0.2417
12258TIP3    H158189   6.434   2.061   2.671 -0.5889  0.0350 -0.2594
12258TIP3    H258190   6.385   1.976   2.556 -0.2562  0.4000 -0.6758
12259TIP3   OH258191   3.282   6.341   0.239  0.0539  0.1948  0.2950
12259TIP3    H158192   3.208   6.300   0.283  0.2992 -1.0943 -0.4290
12259TIP3    H258193   3.244   6.416   0.193 -1.5822 -2.3138 -2.8799
12260TIP3   OH258194   3.446   1.733   1.061 -0.2135  0.2219 -0.0906
12260TIP3    H158195   3.437   1.826   1.042 -2.6126 -0.0285 -0.5282
12260TIP3    H258196   3.454   1.729   1.157  0.1515  0.8892 -0.0921
12261TIP3   OH258197   0.427   4.075  17.207 -0.2146 -0.4084 -0.1560
12261TIP3    H158198   0.455   4.138  17.140  0.7171 -1.1855 -0.5229
12261TIP3    H258199   0.428   4.124  17.289  0.8963 -0.0258 -0.3750
12262TIP3   OH258200   3.707   6.331   5.435  0.2199 -0.1816 -0.0005
12262TIP3    H158201   3.714   6.412   5.486 -0.4268 -0.3615  0.3824
12262TIP3    H258202   3.772   6.272   5.474 -1.6232 -1.0245  1.9711
12263TIP3   OH258203   1.842   6.563   2.289  0.4400  0.1746  0.7280
12263TIP3    H158204   1.867   6.548   2.198  2.5536  2.4453  0.8135
12263TIP3    H258205   1.748   6.581   2.286  0.7808  2.0222 -1.3260
12264TIP3   OH258206   1.010   0.198   6.604  0.8260  0.1977 -0.3670
12264TIP3    H158207   1.104   0.203   6.586  0.9195 -1.1390 -0.3537
12264TIP3    H258208   0.987   0.107   6.587 -0.0417 -0.0133  1.7070
12265TIP3   OH258209   0.238   1.262   3.865 -0.0525  0.0469 -0.3521
12265TIP3    H158210   0.178   1.294   3.798 -0.6794 -0.2400  0.0598
12265TIP3    H258211   0.182   1.245   3.941  0.2650 -1.9271 -0.5244
12266TIP3   OH258212   6.007   4.377  12.663  0.3790  0.1905 -0.3556
12266TIP3    H158213   6.032   4.306  12.604 -0.5126 -0.6839  0.2832
12266TIP3    H258214   5.930   4.417  12.623 -0.9565 -1.1661  0.7399
12267TIP3   OH258215   5.891   4.636  14.834  0.4959  0.0984 -0.3127
12267TIP3    H158216   5.916   4.543  14.834  1.5798  0.3219 -2.1343
12267TIP3    H258217   5.947   4.676  14.901  0.1019 -0.5241  0.4046
12268TIP3   OH258218   0.869   6.218   3.372  0.1269 -0.1606 -0.2128
12268TIP3    H158219   0.876   6.261   3.457 -0.3923  1.4843 -0.9591
12268TIP3    H258220   0.955   6.231   3.331  0.1966 -0.4518 -0.1578
12269TIP3   OH258221   0.344   6.275  16.138 -0.1306  0.1145 -0.2818
12269TIP3    H158222   0.430   6.274  16.096 -1.1118 -0.2131 -2.4268
12269TIP3    H258223   0.334   6.364  16.171  0.9942  0.1712 -0.0637
12270TIP3   OH258224   1.466   5.201   0.305 -0.3715  0.3330 -0.1471
12270TIP3    H158225   1.397   5.246   0.354 -0.5397 -0.6837  0.5855
12270TIP3    H258226   1.538   5.264   0.301 -0.4380  0.5260  1.2232
12271TIP3   OH258227   5.962   1.928   1.790  0.1308  0.2887  0.3771
12271TIP3    H158228   6.035   1.927   1.852  2.0380  2.5107 -1.6333
12271TIP3    H258229   6.003   1.912   1.705 -1.6266  1.9887 -0.8690
12272TIP3   OH258230   2.515   4.186   5.238  0.0882  0.2769  0.4337
12272TIP3    H158231   2.537   4.236   5.160 -1.0386  1.2635  0.7241
12272TIP3    H258232   2.550   4.099   5.221  0.4443  0.6561 -0.8832
12273TIP3   OH258233   0.797   2.325   4.850  0.6604 -0.0317 -0.1435
12273TIP3    H158234   0.757   2.243   4.820 -0.1625  0.8207 -1.5145
12273TIP3    H258235   0.772   2.389   4.783  2.4006  1.0601  0.1914
12274TIP3   OH258236   0.986   5.868   0.241 -0.3237 -0.5927  0.5132
12274TIP3    H158237   0.977   5.774   0.256  0.7498 -0.9794 -0.9958
12274TIP3    H258238   1.008   5.905   0.326 -0.4476 -1.7465  1.0597
12275TIP3   OH258239   0.781   2.347  13.487  0.1799 -0.1640 -0.4031
12275TIP3    H158240   0.850   2.310  13.542 -0.6097  0.8642  1.3561
12275TIP3    H258241   0.818   2.429  13.455 -0.7928  1.3639  2.0965
12276TIP3   OH258242   4.803   2.635  13.903 -0.7852  0.3046 -0.1361
12276TIP3    H158243   4.874   2.572  13.893 -0.2207  0.7949  0.7209
12276TIP3    H258244   4.808   2.690  13.825 -0.0244  0.5334  0.0692
12277TIP3   OH258245   4.583   5.691  13.090 -0.4264 -0.0894 -0.1877
12277TIP3    H158246   4.589   5.773  13.138 -0.0363 -0.4668  0.4225
12277TIP3    H258247   4.498   5.694  13.047 -0.4865  0.5570 -0.0258
12278TIP3   OH258248   3.197   0.731  13.364 -0.3060 -0.0925 -0.2569
12278TIP3    H158249   3.190   0.742  13.459  1.5351  0.7117 -0.1777
12278TIP3    H258250   3.148   0.805  13.328  0.7305  0.7942  0.1154
12279TIP3   OH258251   3.341   3.657  12.234  0.6659 -0.2106  0.5236
12279TIP3    H158252   3.317   3.715  12.161  1.3785 -0.5209  0.0296
12279TIP3    H258253   3.292   3.691  12.309 -0.5723 -0.2722 -0.2393
12280TIP3   OH258254   4.593   1.987  12.833  0.3413  0.3239 -0.6216
12280TIP3    H158255   4.594   1.938  12.751 -0.4241  2.0511 -1.7343
12280TIP3    H258256   4.671   2.042  12.829  1.8317 -1.5225  1.1469
12281TIP3   OH258257   1.283   2.266   1.091  0.3824  0.2052 -0.4523
12281TIP3    H158258   1.209   2.323   1.114  2.3111  2.1749  1.3699
12281TIP3    H258259   1.317   2.303   1.010  0.8641  0.9193  0.0595
12282TIP3   OH258260   0.386   5.016   0.935 -0.8130 -0.1415 -0.5034
12282TIP3    H158261   0.347   5.081   0.876  0.5056  0.7396 -0.4619
12282TIP3    H258262   0.465   5.060   0.969 -1.4434 -0.6643  1.8054
12283TIP3   OH258263   3.257   2.833   3.284 -0.5562 -0.2033  0.2150
12283TIP3    H158264   3.339   2.857   3.242 -0.4670 -0.3054  0.3281
12283TIP3    H258265   3.260   2.876   3.370 -0.9383  0.3666 -0.0609
12284TIP3   OH258266   6.696   2.972  16.353  0.2122 -0.2063  0.1249
12284TIP3    H158267   6.682   2.946  16.262 -1.3679  1.4091 -0.1485
12284TIP3    H258268   6.724   3.064  16.347 -1.0388  0.2736  1.3086
12285TIP3   OH258269   6.567   3.336  13.896  0.4034  0.3545 -0.1950
12285TIP3    H158270   6.522   3.251  13.902 -1.5033  1.3297  0.1847
12285TIP3    H258271   6.641   3.320  13.837  0.5178 -1.7304  0.4572
12286TIP3   OH258272   2.965   3.315  13.242  0.0378  0.2064  0.2810
12286TIP3    H158273   3.042   3.341  13.291  0.3098 -0.5328  0.2620
12286TIP3    H258274   2.976   3.354  13.156  1.8544 -2.2251 -0.6993
12287TIP3   OH258275   3.178   1.204  12.082 -0.0491  0.3488 -0.0530
12287TIP3    H158276   3.165   1.291  12.121  0.0798  0.4264 -0.1805
12287TIP3    H258277   3.120   1.202  12.006  1.1849  0.9661 -1.0409
12288TIP3   OH258278   6.196   3.830   1.459  0.0048  1.0045  0.1448
12288TIP3    H158279   6.134   3.880   1.512 -0.2893  1.2950 -0.4624
12288TIP3    H258280   6.158   3.742   1.454  0.5046  0.7151  1.1842
12289TIP3   OH258281   0.650   1.044   5.516  0.0855  0.0560  0.7935
12289TIP3    H158282   0.654   1.130   5.558 -1.9798  0.5264  0.1045
12289TIP3    H258283   0.576   1.000   5.558 -1.2305  0.0505 -1.3799
12290TIP3   OH258284   2.952   6.690   6.269  0.0418 -0.5180 -0.1436
12290TIP3    H158285   2.876   6.744   6.289 -1.3235 -0.9424 -3.4740
12290TIP3    H258286   2.993   6.673   6.354 -3.0265  0.4792  1.6945
12291TIP3   OH258287   2.017   0.091   4.485  0.5927  0.1033 -0.3855
12291TIP3    H158288   2.093   0.136   4.449  0.4160  1.1755  0.5213
12291TIP3    H258289   1.943   0.146   4.462  0.1309 -0.7052 -0.8804
12292TIP3   OH258290   4.975   2.852   3.787  0.2674 -0.0203  0.0553
12292TIP3    H158291   5.010   2.852   3.876 -0.6340  0.5000  0.4231
12292TIP3    H258292   4.889   2.811   3.795  0.0589  0.2841 -0.5264
12293TIP3   OH258293   0.176   2.630  16.878  0.0757  0.0648  0.3097
12293TIP3    H158294   0.101   2.661  16.928  1.2739  0.2131  2.1154
12293TIP3    H258295   0.165   2.535  16.874 -1.1335  0.2316 -1.0731
12294TIP3   OH258296   0.764   5.386  12.205 -0.0164  0.0095 -0.2990
12294TIP3    H158297   0.696   5.452  12.216  0.0419  0.3697 -1.7723
12294TIP3    H258298   0.724   5.305  12.234 -1.3361  0.1042 -1.6962
12295TIP3   OH258299   2.710   1.526  15.526 -0.0557 -0.0406  0.2120
12295TIP3    H158300   2.668   1.447  15.493  0.0002 -0.5591  1.3479
12295TIP3    H258301   2.804   1.506  15.524 -0.0951 -0.4252  1.5090
12296TIP3   OH258302   3.199   2.277   3.034  0.1381 -0.2759  0.2434
12296TIP3    H158303   3.126   2.279   2.972  0.3724 -0.0298 -0.0281
12296TIP3    H258304   3.277   2.280   2.979  0.4267 -2.8512  0.4085
12297TIP3   OH258305   4.623   0.260  12.075  0.2103 -0.2665 -0.0690
12297TIP3    H158306   4.693   0.283  12.137  0.5770 -0.6778 -0.3217
12297TIP3    H258307   4.626   0.330  12.009  1.2827 -0.9589 -0.8035
12298TIP3   OH258308   5.469   3.390  10.760 -0.2189  0.0535 -0.3515
12298TIP3    H158309   5.382   3.372  10.796  0.4399 -0.2324  1.1998
12298TIP3    H258310   5.457   3.387  10.665 -2.2876  1.9169 -0.2181
12299TIP3   OH258311   0.492   0.820   4.894 -0.2680 -0.1792 -0.3382
12299TIP3    H158312   0.540   0.751   4.848  0.7762  0.2880  0.0198
12299TIP3    H258313   0.560   0.876   4.931 -0.9372 -1.4292  3.2110
12300TIP3   OH258314   0.377   4.902   3.351  0.3624  0.3214  0.2020
12300TIP3    H158315   0.296   4.866   3.315  0.7396 -1.7516  1.2830
12300TIP3    H258316   0.429   4.928   3.275 -0.7885  0.5126 -0.5391
12301TIP3   OH258317   0.424   6.354  10.782 -0.0755  0.1699 -0.3381
12301TIP3    H158318   0.386   6.405  10.711 -1.7441 -1.4452 -0.6809
12301TIP3    H258319   0.409   6.263  10.757  2.7592 -0.5762  0.2511
12302TIP3   OH258320   4.828   5.711  11.723  0.3986 -0.0919 -0.0462
12302TIP3    H158321   4.860   5.758  11.800 -1.9549  0.7106  0.5002
12302TIP3    H258322   4.873   5.753  11.649  0.8817  0.7287  0.6950
12303TIP3   OH258323   6.396   1.879   1.429 -0.2712  0.0562  0.5072
12303TIP3    H158324   6.395   1.963   1.475 -0.3856  0.1561  0.3232
12303TIP3    H258325   6.317   1.835   1.458 -1.9998  1.3646 -1.8766
12304TIP3   OH258326   1.956   0.277  15.753 -0.3958  0.1686 -0.4772
12304TIP3    H158327   2.002   0.272  15.836 -1.2875 -0.7504 -0.0046
12304TIP3    H258328   1.887   0.211  15.760  0.9513 -1.6819 -2.8533
12305TIP3   OH258329   0.131   4.628  12.736 -0.2190  0.0073  0.2415
12305TIP3    H158330   0.182   4.574  12.676 -0.3894  0.0842  0.0249
12305TIP3    H258331   0.188   4.641  12.812  0.1318  0.1919 -0.0491
12306TIP3   OH258332   6.197   1.930  14.633  0.3141  0.9945  0.0181
12306TIP3    H158333   6.126   1.973  14.681 -0.2552 -0.4522  0.5093
12306TIP3    H258334   6.217   1.851  14.683  1.4194  0.7212 -0.7945
12307TIP3   OH258335   5.462   0.234  13.272  0.1848 -0.2820  0.0313
12307TIP3    H158336   5.402   0.172  13.230 -0.3354 -0.3300  0.8199
12307TIP3    H258337   5.487   0.294  13.202 -0.5413 -0.4555 -0.3893
12308TIP3   OH258338   2.069   1.358  15.647  0.4762  0.1955  0.1691
12308TIP3    H158339   2.000   1.392  15.705  0.6947  1.1647 -0.1106
12308TIP3    H258340   2.022   1.306  15.582 -0.0172  0.9316 -0.0784
12309TIP3   OH258341   6.652   0.899  16.905 -0.5154  0.6616  0.7210
12309TIP3    H158342   6.677   0.811  16.934 -1.5977 -0.0516 -0.3722
12309TIP3    H258343   6.558   0.891  16.885 -0.0857  1.2988 -1.9585
12310TIP3   OH258344   5.130   5.088  14.837  0.5216 -0.0805 -0.0055
12310TIP3    H158345   5.047   5.062  14.877 -0.1496 -2.1062 -2.4267
12310TIP3    H258346   5.180   5.007  14.831  0.4936  0.0116 -3.2212
12311TIP3   OH258347   5.587   1.091   3.234 -0.1277  0.1188  0.3004
12311TIP3    H158348   5.517   1.107   3.170 -1.3004  2.0715  1.9568
12311TIP3    H258349   5.666   1.126   3.192  0.2012 -2.9091 -1.9747
12312TIP3   OH258350   6.433   2.578  11.128 -0.9655  0.6927 -0.0738
12312TIP3    H158351   6.407   2.593  11.037 -0.8945  0.9830 -0.0476
12312TIP3    H258352   6.518   2.534  11.123 -1.9021 -1.1979 -0.1810
12313TIP3   OH258353   5.218   1.601  12.927 -0.3978  0.1247  0.2447
12313TIP3    H158354   5.189   1.619  13.017  0.2366 -1.1768  0.7342
12313TIP3    H258355   5.165   1.526  12.900 -0.1935  0.1667 -0.2772
12314TIP3   OH258356   5.122   6.199  13.843  0.1245 -0.5781  0.1337
12314TIP3    H158357   5.039   6.169  13.880 -0.2570  0.4479  0.1446
12314TIP3    H258358   5.180   6.123  13.851 -0.8310 -1.3470  0.0288
12315TIP3   OH258359   2.705   1.667   1.659  0.5385  0.7665  0.2877
12315TIP3    H158360   2.662   1.727   1.598  0.6855 -0.1465 -0.7621
12315TIP3    H258361   2.792   1.653   1.621 -0.6371 -2.8201 -1.5607
12316TIP3   OH258362   4.727   5.033  14.727  0.1543 -0.4070 -0.5268
12316TIP3    H158363   4.790   5.040  14.656  2.1498  0.7121  1.2366
12316TIP3    H258364   4.774   4.989  14.798 -0.5013  1.6196  1.3055
12317TIP3   OH258365   1.584   4.365   2.848 -0.2755  0.0552  0.0107
12317TIP3    H158366   1.520   4.357   2.777 -0.0541  0.5600 -0.2473
12317TIP3    H258367   1.548   4.310   2.918 -0.8195  0.0577 -0.2571
12318TIP3   OH258368   3.385   4.664   4.065  0.3946 -0.1528  0.0674
12318TIP3    H158369   3.332   4.589   4.037  0.4574  0.4964 -1.9536
12318TIP3    H258370   3.476   4.633   4.059  0.4649  0.2563 -1.5156
12319TIP3   OH258371   4.340   5.095  15.082  0.4248 -0.7319 -0.5263
12319TIP3    H158372   4.308   5.011  15.114  1.3757 -0.9332 -0.0564
12319TIP3    H258373   4.366   5.078  14.991  0.2613 -0.8523 -0.5506
12320TIP3   OH258374   1.847   1.454   1.753  0.4126 -0.5756 -0.3598
12320TIP3    H158375   1.926   1.416   1.716 -0.6283 -1.8445 -1.3931
12320TIP3    H258376   1.839   1.414   1.840  1.0897 -0.1495 -0.0960
12321TIP3   OH258377   2.274   6.605   2.899  0.3411 -0.3545  0.1958
12321TIP3    H158378   2.290   6.612   2.993 -0.9530  0.5214  0.3716
12321TIP3    H258379   2.356   6.635   2.859  0.4140  0.6477  1.0476
12322TIP3   OH258380   0.952   6.244  17.343 -0.2842  0.1696 -0.6028
12322TIP3    H158381   0.884   6.224  17.407  1.2129  1.8012  1.6778
12322TIP3    H258382   0.928   6.330  17.308  0.5471  0.7770  0.2499
12323TIP3   OH258383   6.637   5.231  12.302  0.1669  0.2863 -0.5797
12323TIP3    H158384   6.649   5.304  12.364 -1.0899  1.5750 -1.7882
12323TIP3    H258385   6.722   5.222  12.260  0.1055  1.7274 -1.0775
12324TIP3   OH258386   5.499   5.851  12.428 -0.3226  0.2095 -0.7998
12324TIP3    H158387   5.462   5.918  12.371 -1.7249  0.0483 -0.1356
12324TIP3    H258388   5.593   5.869  12.430 -0.6283  1.9244 -0.9188
12325TIP3   OH258389   5.265   5.329   3.209  0.5314 -0.1126 -0.2734
12325TIP3    H158390   5.285   5.387   3.135 -0.3346  0.1505 -0.3192
12325TIP3    H258391   5.198   5.270   3.174  1.1641 -0.9378 -0.1245
12326TIP3   OH258392   2.551   1.052  11.960  0.3049  0.2037  0.1581
12326TIP3    H158393   2.593   1.117  11.904 -1.3805  1.1204 -0.1079
12326TIP3    H258394   2.510   1.104  12.030 -0.1213 -0.6586  0.5606
12327TIP3   OH258395   6.498   5.381   3.332 -0.1022 -0.0575 -0.3633
12327TIP3    H158396   6.530   5.319   3.266  0.3101 -1.4009  1.0306
12327TIP3    H258397   6.574   5.399   3.387 -0.6182  0.4095  0.2031
12328TIP3   OH258398   4.229   2.259  12.581 -0.0316  0.0227 -0.4822
12328TIP3    H158399   4.315   2.241  12.617 -0.0527  1.9317  0.6202
12328TIP3    H258400   4.168   2.232  12.650 -0.1654  1.4136 -0.0244
12329TIP3   OH258401   2.770   4.277  15.210 -0.0478 -0.1437 -0.0187
12329TIP3    H158402   2.762   4.196  15.261 -1.7323  0.3162  0.4915
12329TIP3    H258403   2.824   4.334  15.265 -0.9748 -0.0307  0.7985
12330TIP3   OH258404   0.535   3.585   2.482  0.0729 -0.5474 -0.5032
12330TIP3    H158405   0.450   3.551   2.454  0.2914 -1.2742 -0.2945
12330TIP3    H258406   0.558   3.649   2.415 -0.3862 -0.7412 -0.8522
12331TIP3   OH258407   2.435   0.412   3.270 -0.7159 -0.3436 -0.4895
12331TIP3    H158408   2.513   0.441   3.223  0.1867 -0.8222  0.6850
12331TIP3    H258409   2.415   0.483   3.330  0.5242 -1.3537  1.2143
12332TIP3   OH258410   3.071   4.431   0.746  0.0976  0.5051  0.0670
12332TIP3    H158411   3.161   4.428   0.714  0.1725  1.0257  0.2255
12332TIP3    H258412   3.069   4.504   0.808  0.4327 -1.6015  2.7286
12333TIP3   OH258413   5.720   0.040   1.970  0.0963  0.3693  0.6237
12333TIP3    H158414   5.773  -0.005   2.035 -0.5338 -1.6019 -0.1610
12333TIP3    H258415   5.630   0.035   2.004  0.1906  2.5513  1.3267
12334TIP3   OH258416   4.103   0.324   3.213 -0.6068  0.4154 -0.0106
12334TIP3    H158417   4.149   0.407   3.204 -1.4165  1.0698  1.5911
12334TIP3    H258418   4.159   0.261   3.167  1.0532  1.4641  0.4802
12335TIP3   OH258419   1.373   2.282  16.370  0.1397  0.1969  0.0811
12335TIP3    H158420   1.445   2.229  16.405 -0.5410 -1.0209 -0.2753
12335TIP3    H258421   1.313   2.217  16.332 -1.3672  1.1358  0.7890
12336TIP3   OH258422   5.186   1.143  10.713  0.1642 -0.3834 -0.1618
12336TIP3    H158423   5.106   1.108  10.751  0.1203 -0.8150 -0.6397
12336TIP3    H258424   5.157   1.213  10.655  0.1490 -0.4320 -0.2127
12337TIP3   OH258425   6.318   6.458   5.781 -0.3396 -0.3881  0.6289
12337TIP3    H158426   6.232   6.488   5.751 -0.0841 -1.5488 -1.4186
12337TIP3    H258427   6.320   6.481   5.874 -2.0180  1.5344  0.2615
12338TIP3   OH258428   5.727   6.575   0.832  0.4218 -0.1839 -0.1417
12338TIP3    H158429   5.701   6.638   0.765  0.3336  0.1255  0.1825
12338TIP3    H258430   5.654   6.514   0.838  0.2649  0.0111 -0.0573
12339TIP3   OH258431   5.831   0.082   0.409  0.2261 -0.0453 -0.3408
12339TIP3    H158432   5.923   0.086   0.381  0.5838 -0.3860  0.7552
12339TIP3    H258433   5.782   0.091   0.327  1.2229  0.4874 -0.9109
12340TIP3   OH258434   2.483   0.962  14.826  0.1287  0.3456  0.3574
12340TIP3    H158435   2.467   0.870  14.803  0.1196  0.5355 -0.3964
12340TIP3    H258436   2.445   1.012  14.754 -1.7738  1.0393  1.7586
12341TIP3   OH258437   0.459   1.395   0.552  0.8761  0.2770  0.2903
12341TIP3    H158438   0.485   1.310   0.516  0.2767  0.4374 -0.5511
12341TIP3    H258439   0.441   1.448   0.475  2.3899  1.5529  0.7700
12342TIP3   OH258440   5.173   6.729  13.436  0.2889  0.2026  0.2935
12342TIP3    H158441   5.115   6.745  13.362  0.6164  0.6114  0.1196
12342TIP3    H258442   5.117   6.738  13.513 -0.3244 -1.4391  0.0655
12343TIP3   OH258443   6.583   4.545   5.139  0.4162 -0.4681  0.5189
12343TIP3    H158444   6.546   4.614   5.083 -1.9221 -1.6456  0.4713
12343TIP3    H258445   6.674   4.538   5.111  0.5704  2.1099  0.0844
12344TIP3   OH258446   1.678   3.692   1.014  1.2212 -0.1036  0.2262
12344TIP3    H158447   1.671   3.780   1.053 -1.1578 -0.6381  1.1770
12344TIP3    H258448   1.647   3.704   0.924  2.1883  0.2599 -0.0691
12345TIP3   OH258449   2.178   0.778   2.779 -0.7289 -0.0953 -0.1024
12345TIP3    H158450   2.230   0.775   2.698 -0.1622  0.4911  0.2337
12345TIP3    H258451   2.092   0.747   2.753 -0.6946  0.5612 -1.0538
12346TIP3   OH258452   1.456   0.097   3.464 -0.8295  0.9142 -0.3582
12346TIP3    H158453   1.440   0.009   3.496  1.3488 -0.2652 -2.1942
12346TIP3    H258454   1.384   0.114   3.402 -1.1669  0.3679 -0.1220
12347TIP3   OH258455   5.566   1.833   0.153  0.2384 -0.0531 -0.0341
12347TIP3    H158456   5.632   1.769   0.180 -0.7786 -1.7294 -1.3287
12347TIP3    H258457   5.488   1.780   0.134 -0.7951  1.6351 -0.7061
12348TIP3   OH258458   5.547   2.036  17.327  0.0746  0.2505 -0.0167
12348TIP3    H158459   5.529   1.971  17.395  1.3171 -0.8979 -0.7339
12348TIP3    H258460   5.629   2.076  17.353  0.7049 -0.3887 -0.9421
12349TIP3   OH258461   5.679   4.619   1.945  0.1688  0.5434  0.1214
12349TIP3    H158462   5.660   4.569   1.866 -1.0066  0.7775  0.2339
12349TIP3    H258463   5.766   4.656   1.930  0.7710 -0.9509 -0.2529
12350TIP3   OH258464   2.403   3.824   0.195 -0.2341 -0.0824  0.2406
12350TIP3    H158465   2.478   3.872   0.159 -1.0117  0.3532 -0.8594
12350TIP3    H258466   2.404   3.844   0.288 -0.3270  1.8403 -0.1300
12351TIP3   OH258467   4.545   4.550   5.676  0.2476  0.1435 -0.2426
12351TIP3    H158468   4.620   4.584   5.726  1.0363 -1.3818 -0.3414
12351TIP3    H258469   4.577   4.541   5.587  0.1384 -1.0363 -0.1792
12352TIP3   OH258470   3.224   4.312  10.413 -0.0253  0.2772  0.0687
12352TIP3    H158471   3.139   4.327  10.455 -0.2917  0.8423 -0.6566
12352TIP3    H258472   3.267   4.248  10.470 -0.0854  1.5260  1.5876
12353TIP3   OH258473   1.556   5.425  10.965  0.2542  0.8861  0.0465
12353TIP3    H158474   1.588   5.506  10.926 -1.2407  0.6666 -1.7464
12353TIP3    H258475   1.634   5.387  11.007  1.1063  2.9168  0.4187
12354TIP3   OH258476   2.589   2.941  13.821  0.2772  0.3163 -0.6989
12354TIP3    H158477   2.624   2.858  13.854 -1.0230  0.2758  0.6774
12354TIP3    H258478   2.537   2.916  13.744 -1.4041 -0.4291  0.5968
12355TIP3   OH258479   5.851   1.362  13.242 -0.0769  0.3329 -0.1938
12355TIP3    H158480   5.855   1.267  13.252 -1.0261  0.1155 -1.5265
12355TIP3    H258481   5.872   1.397  13.329 -0.7267 -1.1169  0.5804
12356TIP3   OH258482   5.953   2.406  11.324 -0.2622  0.3406 -0.7586
12356TIP3    H158483   5.889   2.433  11.390 -0.1842 -0.2385 -0.4407
12356TIP3    H258484   5.949   2.475  11.258  0.0638  1.2412  0.1185
12357TIP3   OH258485   1.911   3.409  11.637 -0.9173  0.4544 -0.2293
12357TIP3    H158486   1.981   3.360  11.681 -1.6035 -0.3528 -0.0229
12357TIP3    H258487   1.957   3.479  11.591  0.0713 -0.3253 -0.4637
12358TIP3   OH258488   1.939   3.184   2.265 -0.1160  0.2880 -0.5473
12358TIP3    H158489   1.969   3.094   2.275  1.6831  0.8875 -0.1031
12358TIP3    H258490   1.983   3.216   2.186  1.3015  1.4822  0.6435
12359TIP3   OH258491   4.869   2.371  12.273  0.1631  0.1118 -0.0183
12359TIP3    H158492   4.787   2.410  12.305  0.0568 -0.9168  1.0378
12359TIP3    H258493   4.929   2.445  12.266 -1.0944  1.0528 -1.7439
12360TIP3   OH258494   0.982   4.462   3.133 -0.6756 -0.2884 -0.6825
12360TIP3    H158495   0.968   4.468   3.228  2.0315 -1.1563 -0.1618
12360TIP3    H258496   0.944   4.377   3.109 -1.5538  0.0210 -0.4489
12361TIP3   OH258497   0.452   1.216  16.522  0.0671  0.1998  0.1153
12361TIP3    H158498   0.398   1.248  16.450  1.2403 -1.9438 -1.8782
12361TIP3    H258499   0.392   1.162  16.574 -0.9265  2.2081  1.1818
12362TIP3   OH258500   4.731   4.222   5.675 -0.0637 -0.1713  0.0263
12362TIP3    H158501   4.681   4.166   5.615  0.2618 -1.9194  1.3388
12362TIP3    H258502   4.689   4.210   5.760 -1.1155  2.9969  0.0954
12363TIP3   OH258503   1.254   5.439   4.825 -0.3277  0.2810 -0.0037
12363TIP3    H158504   1.265   5.488   4.906  2.0897  0.2424 -0.2318
12363TIP3    H258505   1.231   5.505   4.760  0.8804  0.8509  0.1129
12364TIP3   OH258506   5.205   5.117   2.836 -0.3429  0.2616 -0.1599
12364TIP3    H158507   5.246   5.145   2.754 -0.0010  1.5229  0.4165
12364TIP3    H258508   5.154   5.040   2.812  0.8684 -0.2234 -1.2735
12365TIP3   OH258509   2.837   1.334   2.722 -0.1641  0.2224 -0.0662
12365TIP3    H158510   2.861   1.299   2.807  1.8646  2.1284  0.2250
12365TIP3    H258511   2.885   1.280   2.659 -0.4166 -0.1795  0.0808
12366TIP3   OH258512   6.053   0.490  12.949 -0.0424 -0.0636  0.6701
12366TIP3    H158513   6.024   0.581  12.959 -3.2945 -0.7681 -1.1042
12366TIP3    H258514   5.996   0.440  13.007  0.1658 -1.1971 -0.0608
12367TIP3   OH258515   6.591   5.336  11.435 -0.2397  0.3755  0.4906
12367TIP3    H158516   6.652   5.406  11.459 -1.0154  2.0244 -1.9183
12367TIP3    H258517   6.510   5.382  11.413 -1.1224 -1.3952 -0.1823
12368TIP3   OH258518   5.121   2.718   0.447  0.2857 -0.5610  0.1980
12368TIP3    H158519   5.211   2.729   0.477  0.2105  2.1486 -0.2751
12368TIP3    H258520   5.127   2.721   0.352 -0.4076  1.7462  0.1563
12369TIP3   OH258521   1.317   1.235   4.429  0.1517  0.0264 -0.1211
12369TIP3    H158522   1.237   1.278   4.459 -1.2739 -0.3963 -3.0068
12369TIP3    H258523   1.299   1.142   4.439 -0.0242 -0.0912 -1.4058
12370TIP3   OH258524   6.046   2.969   3.647  0.3057  0.4544 -0.2561
12370TIP3    H158525   6.093   3.008   3.573 -2.1705  0.0802 -2.1854
12370TIP3    H258526   5.968   3.024   3.658  0.8962  0.8832  2.6121
12371TIP3   OH258527   0.509   6.304   1.377  0.2765 -0.0526 -0.1974
12371TIP3    H158528   0.527   6.331   1.467 -1.4672  1.3057 -0.2020
12371TIP3    H258529   0.424   6.261   1.381  0.5329 -0.6719 -1.0872
12372TIP3   OH258530   6.690   3.526  11.854  0.0334 -0.3967  0.0219
12372TIP3    H158531   6.662   3.437  11.876  1.2854 -0.5296  1.1796
12372TIP3    H258532   6.785   3.521  11.848  0.1779  1.0005  0.7559
12373TIP3   OH258533   1.930   0.393  10.622  0.2185  0.6458  0.0092
12373TIP3    H158534   1.934   0.300  10.642 -0.4454  0.7846  0.8625
12373TIP3    H258535   1.917   0.397  10.527 -0.2993 -0.1459  0.0374
12374TIP3   OH258536   2.766   4.001  13.315 -0.4445  0.5824  0.3897
12374TIP3    H158537   2.775   4.055  13.237  0.4618  0.1601  0.1886
12374TIP3    H258538   2.689   3.945  13.298 -1.3760  1.7642  0.5944
12375TIP3   OH258539   6.163   5.851  12.274  0.1635 -0.0058  0.1593
12375TIP3    H158540   6.209   5.871  12.192  0.1500  1.6963  0.5328
12375TIP3    H258541   6.174   5.756  12.285  0.0788 -0.3095 -1.8545
12376TIP3   OH258542   1.157   2.805  16.079 -0.3097 -0.3546  0.1237
12376TIP3    H158543   1.069   2.790  16.113 -0.4439  2.1590  1.0808
12376TIP3    H258544   1.199   2.860  16.145  1.5201 -0.3858 -0.9637
12377TIP3   OH258545   5.488   3.504   1.646  0.3881 -0.2753 -0.0547
12377TIP3    H158546   5.483   3.594   1.679  1.2791 -0.5905  0.9841
12377TIP3    H258547   5.445   3.451   1.713  0.1007 -0.6617 -0.5347
12378TIP3   OH258548   3.175   4.636   3.110  0.6369  0.4273  0.0584
12378TIP3    H158549   3.199   4.711   3.163 -1.6488  1.3349 -0.0468
12378TIP3    H258550   3.115   4.585   3.165 -0.8146  0.7424 -1.1674
12379TIP3   OH258551   2.780   0.105  10.487  0.3444  0.2804  0.3974
12379TIP3    H158552   2.768   0.171  10.419  2.5748 -0.5581 -0.9088
12379TIP3    H258553   2.867   0.122  10.523  0.8996 -1.7672  0.1523
12380TIP3   OH258554   5.991   2.502  14.781 -0.2136  0.0532 -0.6789
12380TIP3    H158555   5.998   2.573  14.844 -2.7424 -1.9591  2.1795
12380TIP3    H258556   5.968   2.545  14.698  1.7439  2.6915  0.0336
12381TIP3   OH258557   0.781   5.445  13.292 -0.3847 -0.7984 -0.6787
12381TIP3    H158558   0.836   5.416  13.219 -0.9951  2.6253 -2.7027
12381TIP3    H258559   0.711   5.496  13.250 -2.2678 -0.8528  2.1622
12382TIP3   OH258560   0.186   3.648  12.020  0.2936 -0.3993 -0.2709
12382TIP3    H158561   0.265   3.665  11.970 -0.1137 -1.7189 -1.4262
12382TIP3    H258562   0.153   3.735  12.043  1.3645  0.1940 -0.8917
12383TIP3   OH258563   3.906   1.476  11.801  0.0866 -0.5464 -0.4689
12383TIP3    H158564   3.891   1.382  11.813  0.0317 -0.5242 -0.3667
12383TIP3    H258565   3.919   1.510  11.890 -3.6799  0.2068 -0.0099
12384TIP3   OH258566   6.075   4.777  15.039  0.2740 -0.2581  0.3638
12384TIP3    H158567   6.015   4.735  15.101  1.0361  0.1454  1.4089
12384TIP3    H258568   6.066   4.870  15.056 -0.6234 -0.0225 -1.2144
12385TIP3   OH258569   5.548   2.523  14.434 -0.0847  0.2518  0.1475
12385TIP3    H158570   5.561   2.429  14.425  0.0287  0.3166 -0.3810
12385TIP3    H258571   5.454   2.535  14.422  0.0290  0.3081 -0.7233
12386TIP3   OH258572   5.438   6.563  11.171  0.2016 -0.4381  0.0743
12386TIP3    H158573   5.420   6.471  11.190  0.2924 -0.2694  1.0257
12386TIP3    H258574   5.359   6.609  11.199  1.1938  0.0623  2.2029
12387TIP3   OH258575   6.143   4.309  16.508  0.0649 -0.1334 -0.3876
12387TIP3    H158576   6.110   4.311  16.597  0.7967 -2.0852 -0.0238
12387TIP3    H258577   6.187   4.393  16.496  1.3208 -0.4351  1.6574
12388TIP3   OH258578   5.529   0.240   3.661 -0.2928  0.0281  0.3174
12388TIP3    H158579   5.485   0.156   3.670  1.2214 -0.7995  0.4210
12388TIP3    H258580   5.537   0.273   3.751 -1.8777  0.8553  0.1872
12389TIP3   OH258581   2.233   5.485  14.345 -0.0362 -0.1079  0.1098
12389TIP3    H158582   2.234   5.559  14.284 -1.0949 -0.5747 -0.4934
12389TIP3    H258583   2.207   5.410  14.291  1.6945 -1.0851  0.5559
12390TIP3   OH258584   1.810   6.076  16.220  0.0641  0.2973  0.4444
12390TIP3    H158585   1.726   6.105  16.254  0.1283 -0.8287  1.6293
12390TIP3    H258586   1.792   6.056  16.128 -0.6598  1.2061  0.3681
12391TIP3   OH258587   5.163   0.293  13.560  0.5487  0.0508 -0.4598
12391TIP3    H158588   5.100   0.267  13.627  1.1588  2.0538  1.0070
12391TIP3    H258589   5.247   0.261  13.593  0.8885  1.2707 -0.1038
12392TIP3   OH258590   0.942   3.564   5.660 -0.6085  0.3875 -0.3889
12392TIP3    H158591   0.866   3.520   5.700 -0.8770  0.6099 -0.6501
12392TIP3    H258592   0.983   3.610   5.733 -2.0503  2.1712 -0.6355
12393TIP3   OH258593   6.333   5.707  16.152  0.2270  0.6647  0.5941
12393TIP3    H158594   6.358   5.799  16.159  2.7903  0.2243 -1.3703
12393TIP3    H258595   6.414   5.662  16.131 -0.9890 -2.0666  1.3347
12394TIP3   OH258596   1.051   4.153  11.158  0.6830  0.6706 -0.3201
12394TIP3    H158597   1.029   4.181  11.069 -1.7060 -1.5243 -0.5261
12394TIP3    H258598   0.972   4.109  11.190  2.4327 -1.1867  1.8070
12395TIP3   OH258599   5.148   5.627   4.802  0.1270  0.4990  0.2584
12395TIP3    H158600   5.215   5.559   4.804  1.5117  1.7187 -1.6591
12395TIP3    H258601   5.073   5.586   4.759 -0.0418 -0.5721  1.5189
12396TIP3   OH258602   1.045   1.291   1.108 -0.0362  0.5525 -0.1386
12396TIP3    H158603   1.051   1.313   1.015  1.3355 -0.9570 -0.4482
12396TIP3    H258604   0.991   1.212   1.110 -1.3750  1.4535  0.5312
12397TIP3   OH258605   2.913   0.324   1.258 -0.6169  0.0098 -0.0616
12397TIP3    H158606   2.988   0.326   1.318 -0.1468  2.2344 -0.6297
12397TIP3    H258607   2.953   0.315   1.171 -1.0700  0.3286 -0.3016
12398TIP3   OH258608   0.654   6.346   1.142  0.0480  0.1809  0.5410
12398TIP3    H158609   0.594   6.318   1.073  1.2161  0.8325 -0.7882
12398TIP3    H258610   0.603   6.338   1.222 -1.2956 -0.7906 -0.3561
12399TIP3   OH258611   6.539   4.387   6.198 -0.5718  0.7037 -0.5253
12399TIP3    H158612   6.494   4.358   6.119  1.5913  0.1464 -1.6236
12399TIP3    H258613   6.618   4.334   6.201  0.9112  2.8525  0.3263
12400TIP3   OH258614   0.979   5.188   3.364 -0.4490 -0.3158  0.1113
12400TIP3    H158615   1.064   5.154   3.390 -0.2775 -0.5855 -0.7729
12400TIP3    H258616   0.991   5.218   3.274 -0.6075  2.0434  0.8088
12401TIP3   OH258617   3.430   2.072   3.395 -0.3356  0.1468 -0.1586
12401TIP3    H158618   3.447   2.101   3.485  0.1973  0.5863 -0.3912
12401TIP3    H258619   3.347   2.114   3.372 -1.4441 -1.4293  0.7397
12402TIP3   OH258620   5.005   2.542   5.215 -0.2093  0.3117 -1.0022
12402TIP3    H158621   5.023   2.569   5.305 -0.2802 -0.5215 -0.7309
12402TIP3    H258622   5.036   2.615   5.161  1.2138  0.1836 -0.3956
12403TIP3   OH258623   5.329   4.603   1.892 -1.0977 -0.3283  0.3881
12403TIP3    H158624   5.368   4.608   1.980  0.1477  0.9081 -0.1936
12403TIP3    H258625   5.308   4.510   1.880  1.7198 -1.0948  0.7579
12404TIP3   OH258626   2.446   3.933   0.912  0.0979 -0.1400 -0.4159
12404TIP3    H158627   2.409   4.020   0.897 -0.6697 -0.2226  0.7756
12404TIP3    H258628   2.539   3.941   0.892 -0.2197  0.5846 -1.6598
12405TIP3   OH258629   5.654   1.434  13.940  0.4052 -0.4078  0.6313
12405TIP3    H158630   5.642   1.518  13.985 -0.9066 -1.0416  1.5141
12405TIP3    H258631   5.656   1.458  13.847 -0.7446  0.5397  0.8171
12406TIP3   OH258632   5.499   2.266  14.352  0.2524 -0.5371 -0.2369
12406TIP3    H158633   5.441   2.304  14.286  1.9868  1.3028 -0.8146
12406TIP3    H258634   5.555   2.205  14.304 -0.7210 -1.8205  0.2036
12407TIP3   OH258635   6.112   4.472  13.590  0.1141 -0.3710  0.0608
12407TIP3    H158636   6.024   4.435  13.583 -0.7377  1.5121  0.0538
12407TIP3    H258637   6.126   4.484  13.684 -0.1971  0.5459 -0.0022
12408TIP3   OH258638   0.651   5.486   4.738  0.3878 -0.2690 -0.8466
12408TIP3    H158639   0.691   5.538   4.668  0.3715  0.5070 -0.2972
12408TIP3    H258640   0.572   5.535   4.761  2.8248  2.3886  3.1331
12409TIP3   OH258641   2.495   1.966  12.723  0.0405 -0.3160 -0.0148
12409TIP3    H158642   2.480   1.929  12.810 -1.3907  2.2845  0.9460
12409TIP3    H258643   2.531   2.053  12.739  3.3819 -1.0885 -2.1628
12410TIP3   OH258644   0.628   0.186   1.064  0.0987 -0.1762  0.5857
12410TIP3    H158645   0.557   0.213   1.123 -0.5142  1.5725 -0.8540
12410TIP3    H258646   0.583   0.154   0.986  0.9025 -1.0216  0.4512
12411TIP3   OH258647   6.305   5.034  14.210 -0.4126  0.0354  0.5209
12411TIP3    H158648   6.260   4.950  14.220 -1.9955  0.9144  1.1814
12411TIP3    H258649   6.267   5.090  14.278  1.9573  0.7581  1.3642
12412TIP3   OH258650   4.756   6.731  10.464 -0.0469 -0.1837  0.0985
12412TIP3    H158651   4.724   6.680  10.538  0.8805 -0.7725  0.1013
12412TIP3    H258652   4.795   6.666  10.405  1.0339  0.4963  0.0462
12413TIP3   OH258653   3.659   2.783   3.768  0.8860 -0.2010 -0.2420
12413TIP3    H158654   3.653   2.688   3.759 -0.7375 -0.1779  0.1577
12413TIP3    H258655   3.682   2.814   3.681  0.8854 -0.9270 -0.5064
12414TIP3   OH258656   6.237   2.500  11.353 -0.0191 -0.0507  0.1124
12414TIP3    H158657   6.146   2.528  11.365  0.1891  0.7907 -0.1570
12414TIP3    H258658   6.236   2.448  11.273 -0.2495  0.0694  0.0365
12415TIP3   OH258659   5.288   6.021  12.309 -0.4158  0.1434  0.6706
12415TIP3    H158660   5.320   6.062  12.229 -0.7781  0.7203  0.8119
12415TIP3    H258661   5.211   5.972  12.281  0.7522 -1.5296  0.2694
12416TIP3   OH258662   4.525   3.767   0.665 -0.9545  0.2287  0.2880
12416TIP3    H158663   4.516   3.758   0.570  0.6831 -0.4326  0.1618
12416TIP3    H258664   4.578   3.845   0.676  0.5968 -0.8285  0.5382
12417TIP3   OH258665   0.444   5.945   0.818 -0.3224  0.4699 -0.0341
12417TIP3    H158666   0.396   5.949   0.736  0.9700  0.7993 -0.8104
12417TIP3    H258667   0.445   5.852   0.841  0.1064  0.2477 -0.9070
12418TIP3   OH258668   0.815   0.841  12.789  0.1135  0.2473  0.1403
12418TIP3    H158669   0.746   0.819  12.727 -0.4910 -0.5648  1.0691
12418TIP3    H258670   0.885   0.778  12.770  0.5668  0.9693 -0.6941
12419TIP3   OH258671   3.386   6.213   2.680  0.0114 -0.5228 -0.2489
12419TIP3    H158672   3.322   6.142   2.687 -0.7682  0.1773 -0.1866
12419TIP3    H258673   3.428   6.198   2.595  0.1920 -1.3259 -0.0310
12420TIP3   OH258674   0.444   1.559  15.974 -0.0936 -0.3301 -0.3767
12420TIP3    H158675   0.478   1.635  15.926  0.4708 -0.1747  0.2636
12420TIP3    H258676   0.447   1.585  16.066 -1.2337 -0.6059 -0.2518
12421TIP3   OH258677   6.405   0.037   5.757  0.3324  0.4765  0.3958
12421TIP3    H158678   6.396   0.060   5.850  0.9231  1.9167  0.1146
12421TIP3    H258679   6.461  -0.041   5.757 -1.5478 -0.9783  1.3596
12422TIP3   OH258680   0.461   6.420  17.266  0.1712  0.6104  0.5307
12422TIP3    H158681   0.377   6.375  17.253  0.9056 -0.2969 -1.6458
12422TIP3    H258682   0.470   6.476  17.189  1.5375  0.7322  0.7485
12423TIP3   OH258683   5.357   1.489   5.818  0.0250 -0.8114 -0.0257
12423TIP3    H158684   5.348   1.398   5.844 -1.2555 -0.5225  0.6203
12423TIP3    H258685   5.429   1.523   5.871 -0.1803 -1.1840  0.4991
12424TIP3   OH258686   1.094   2.280  14.271 -0.2591 -0.0598  0.8880
12424TIP3    H158687   1.052   2.257  14.354 -0.4036 -0.4505  0.7067
12424TIP3    H258688   1.066   2.370  14.254 -1.7532 -0.6091  0.3226
12425TIP3   OH258689   3.404   6.344  15.065  0.2513 -0.7643  0.1351
12425TIP3    H158690   3.344   6.352  15.139  1.5987 -0.2578  1.2186
12425TIP3    H258691   3.376   6.412  15.004 -0.4770 -0.7671  0.4528
12426TIP3   OH258692   5.432   6.062  12.067  0.0341 -0.0298 -0.7458
12426TIP3    H158693   5.523   6.074  12.044  0.6400 -0.8700  0.9985
12426TIP3    H258694   5.386   6.135  12.025  1.8284  1.7285  0.1851
12427TIP3   OH258695   1.326   6.223  15.345 -0.3404 -0.1365 -0.3275
12427TIP3    H158696   1.262   6.294  15.338 -0.5756 -0.4149 -1.1277
12427TIP3    H258697   1.397   6.249  15.287  0.2539  0.1267  0.4881
12428TIP3   OH258698   2.732   5.066  12.969 -0.1253 -0.3959 -0.6070
12428TIP3    H158699   2.743   4.997  12.905  0.2484 -0.4098 -0.5299
12428TIP3    H258700   2.706   5.143  12.918  0.6333 -0.2840 -0.8300
12429TIP3   OH258701   4.111   3.082  11.811 -0.1099 -0.3098  0.5209
12429TIP3    H158702   4.086   3.167  11.846  0.6813  0.6695 -1.1767
12429TIP3    H258703   4.031   3.030  11.814 -0.9079  0.8723  0.4875
12430TIP3   OH258704   6.034   0.288   1.099 -0.1464 -0.6000  0.4348
12430TIP3    H158705   5.989   0.211   1.065  0.5666 -0.8027 -0.0693
12430TIP3    H258706   5.987   0.309   1.180 -2.5107  0.5036 -1.1371
12431TIP3   OH258707   4.966   5.054  13.795 -0.8644  0.2846 -0.3828
12431TIP3    H158708   4.981   4.965  13.764 -2.9645 -0.7015  1.1244
12431TIP3    H258709   4.959   5.107  13.716  0.3469 -0.8889 -1.3042
12432TIP3   OH258710   6.259   2.256   0.669  0.1180  0.0950  0.2590
12432TIP3    H158711   6.287   2.177   0.714 -0.5865  0.4257  1.3226
12432TIP3    H258712   6.196   2.225   0.604 -1.2050 -0.1235  1.5888
12433TIP3   OH258713   5.556   5.801  10.715 -0.3362  0.2025 -0.1670
12433TIP3    H158714   5.498   5.738  10.673  0.6438 -1.8105  1.3005
12433TIP3    H258715   5.521   5.809  10.804 -0.5615  1.9585 -0.3771
12434TIP3   OH258716   4.562   6.052   5.129  0.4262  0.2259 -0.4125
12434TIP3    H158717   4.606   6.065   5.213  0.7868  0.8942 -0.7024
12434TIP3    H258718   4.506   6.129   5.119  0.2930  0.0881 -0.7294
12435TIP3   OH258719   4.819   2.608   4.830 -0.1121  0.2388  0.2652
12435TIP3    H158720   4.832   2.701   4.852  1.2936 -0.2550  1.6713
12435TIP3    H258721   4.902   2.582   4.790 -0.4858 -0.4301 -0.0739
12436TIP3   OH258722   0.607   2.338  15.835  0.1413  0.1508  0.2193
12436TIP3    H158723   0.683   2.293  15.872  0.5255 -0.3924 -1.1492
12436TIP3    H258724   0.580   2.283  15.761 -2.2336 -0.1992  1.2648
12437TIP3   OH258725   4.550   4.016   1.707 -0.1875 -0.6074 -0.0115
12437TIP3    H158726   4.562   3.936   1.655  0.3785 -0.9084  0.5548
12437TIP3    H258727   4.592   3.995   1.791 -2.2355 -0.6119  1.0602
12438TIP3   OH258728   5.631   0.645  13.879  0.0536  0.0130  0.2138
12438TIP3    H158729   5.669   0.576  13.933  0.9857  0.3556  0.0173
12438TIP3    H258730   5.637   0.724  13.933  0.4648  0.2449 -0.1557
12439TIP3   OH258731   1.661   2.624   2.037 -0.6070  0.0460  0.1197
12439TIP3    H158732   1.605   2.695   2.069  0.1026  0.2697  0.9180
12439TIP3    H258733   1.743   2.635   2.086 -0.2800 -0.9666 -0.1829
12440TIP3   OH258734   4.050   0.189   0.023  0.1846  0.0783 -0.1131
12440TIP3    H158735   4.072   0.159  -0.065  0.7435 -3.1886  0.9847
12440TIP3    H258736   3.986   0.258   0.010  2.8341  2.2860 -3.1482
12441TIP3   OH258737   3.204   0.870   6.730 -0.3534 -0.1163  0.0688
12441TIP3    H158738   3.120   0.897   6.769  0.0301  0.1374  0.7439
12441TIP3    H258739   3.184   0.855   6.638 -0.7293  1.8286 -0.2017
12442TIP3   OH258740   1.787   1.987  13.613 -0.2754 -0.4816  0.2650
12442TIP3    H158741   1.800   2.079  13.634 -0.6168 -0.7897  1.9523
12442TIP3    H258742   1.748   1.949  13.692 -3.4525 -1.3654 -1.5464
12443TIP3   OH258743   1.353   0.673   4.389 -0.3635  0.2263 -0.0907
12443TIP3    H158744   1.420   0.606   4.377 -1.4311 -0.8114 -0.4512
12443TIP3    H258745   1.337   0.675   4.483 -0.0014  0.3188 -0.0288
12444TIP3   OH258746   5.552   3.976   5.161 -0.5309 -0.7430 -0.1645
12444TIP3    H158747   5.521   4.066   5.171 -0.8008 -0.6422 -1.6927
12444TIP3    H258748   5.643   3.985   5.134 -1.3265 -0.7584 -3.2689
12445TIP3   OH258749   3.420   3.371   2.467  0.3880 -0.7213 -0.3166
12445TIP3    H158750   3.493   3.337   2.415  1.4816  1.1512 -0.0997
12445TIP3    H258751   3.350   3.385   2.403  1.4963  0.9475 -1.2583
12446TIP3   OH258752   5.167   0.217  12.236  0.2911 -0.2805 -0.0649
12446TIP3    H158753   5.093   0.156  12.228 -0.0225 -0.2485  2.0073
12446TIP3    H258754   5.167   0.242  12.329  2.0413  0.8291 -0.3254
12447TIP3   OH258755   4.181   1.544  13.355 -0.5109  0.6342 -0.3497
12447TIP3    H158756   4.179   1.513  13.446  0.4018 -0.8848 -0.8104
12447TIP3    H258757   4.179   1.464  13.303 -2.2158  1.5133 -1.7278
12448TIP3   OH258758   6.760   1.950  16.482  0.1397 -0.4914  0.3717
12448TIP3    H158759   6.847   1.929  16.449  0.6533  0.5958  0.9733
12448TIP3    H258760   6.770   1.946  16.578 -0.2073  0.6426  0.4610
12449TIP3   OH258761   1.597   3.082   2.593 -0.2522 -0.4994 -0.2576
12449TIP3    H158762   1.588   3.040   2.507  1.0286  0.0621 -0.6811
12449TIP3    H258763   1.684   3.057   2.623  0.1684  1.0700 -0.1096
12450TIP3   OH258764   1.590   6.648   2.221  0.5217 -0.3535  1.0134
12450TIP3    H158765   1.513   6.603   2.256 -1.0959  0.0448 -1.6834
12450TIP3    H258766   1.596   6.729   2.271 -0.7055 -0.5012  1.4233
12451TIP3   OH258767   3.220   0.973  11.260 -0.4161 -0.5849 -0.4282
12451TIP3    H158768   3.282   1.044  11.273  0.7388 -1.4463 -0.9714
12451TIP3    H258769   3.154   1.009  11.201 -0.1105  0.1745 -0.3140
12452TIP3   OH258770   2.458   5.921  12.125  0.3134 -0.6945  0.3092
12452TIP3    H158771   2.528   5.855  12.123  1.4221  0.3921  1.4972
12452TIP3    H258772   2.493   5.993  12.071 -0.6834 -0.8591 -0.5857
12453TIP3   OH258773   3.480   1.557  15.630  0.0506 -0.4530 -0.3024
12453TIP3    H158774   3.401   1.570  15.577  2.1833  3.5037 -3.0056
12453TIP3    H258775   3.532   1.494  15.581 -0.1983 -0.8753 -0.0310
12454TIP3   OH258776   3.761   0.191   3.102 -0.0995 -0.1765  0.0881
12454TIP3    H158777   3.829   0.136   3.065 -1.3516 -1.1116 -0.9321
12454TIP3    H258778   3.723   0.139   3.173 -1.1058 -0.5406 -0.6996
12455TIP3   OH258779   3.459   2.870   1.536 -0.4305  0.2965 -0.0051
12455TIP3    H158780   3.454   2.856   1.442  1.9288  0.2700 -0.1901
12455TIP3    H258781   3.448   2.965   1.547 -0.4440  0.3360 -0.3568
12456TIP3   OH258782   5.583   2.850   1.820 -0.2998 -0.0632 -0.5033
12456TIP3    H158783   5.503   2.822   1.864  0.8679 -0.0921  1.7175
12456TIP3    H258784   5.610   2.930   1.866  0.7214  0.2100 -1.5158
12457TIP3   OH258785   0.720   6.651   0.063  0.4635  0.1567 -0.2913
12457TIP3    H158786   0.648   6.591   0.079  0.9650 -0.5480 -0.6592
12457TIP3    H258787   0.751   6.676   0.150 -0.3681  0.6563 -0.1255
12458TIP3   OH258788   2.140   2.264  16.525  1.0004  0.3138  0.5017
12458TIP3    H158789   2.076   2.332  16.503 -0.0173 -1.0537 -1.0196
12458TIP3    H258790   2.116   2.237  16.614 -0.4575 -0.0428  0.0308
12459TIP3   OH258791   1.225   1.456  10.725  0.0269  0.4780 -0.2751
12459TIP3    H158792   1.147   1.471  10.672 -0.8091  0.7075  0.9769
12459TIP3    H258793   1.232   1.360  10.729  0.1883  0.4603 -0.9241
12460TIP3   OH258794   6.256   2.106   3.430 -0.4199 -0.5634 -0.2766
12460TIP3    H158795   6.213   2.110   3.516  1.0858  2.6047  0.4663
12460TIP3    H258796   6.325   2.172   3.435 -0.0832 -0.4883 -3.8698
12461TIP3   OH258797   4.780   1.927  15.699  0.2792 -0.9388 -0.1141
12461TIP3    H158798   4.775   2.022  15.709 -3.0024 -0.9487 -0.3423
12461TIP3    H258799   4.854   1.913  15.640  1.8831  1.2908  1.2245
12462TIP3   OH258800   4.464   2.581   5.196 -0.0149  0.3169  0.0169
12462TIP3    H158801   4.496   2.544   5.113 -0.7085 -0.5550  0.1117
12462TIP3    H258802   4.542   2.608   5.243  0.6418 -1.8408  0.2910
12463TIP3   OH258803   0.419   1.070  12.789  0.0770  0.2736  0.9591
12463TIP3    H158804   0.469   1.145  12.756  1.6844 -0.5549  1.4475
12463TIP3    H258805   0.349   1.058  12.724 -1.1791  3.0901  1.6276
12464TIP3   OH258806   6.571   5.365  14.523  0.4246  0.5363 -0.3933
12464TIP3    H158807   6.528   5.341  14.441 -0.1007 -0.0916  0.0619
12464TIP3    H258808   6.499   5.378  14.585  0.8676 -0.0239  0.2426
12465TIP3   OH258809   2.558   3.670  16.063  0.2724  1.0601 -0.6218
12465TIP3    H158810   2.476   3.711  16.091  0.1876 -0.4851  1.7024
12465TIP3    H258811   2.627   3.722  16.105  0.2271 -0.1139  1.0221
12466TIP3   OH258812   6.196   3.934  15.096  0.2013 -0.2920  0.1169
12466TIP3    H158813   6.101   3.920  15.095  0.1975 -0.2910  0.4739
12466TIP3    H258814   6.227   3.884  15.172  0.5431 -0.6612 -0.2566
12467TIP3   OH258815   0.188   4.511  12.481  0.4866 -0.3662  0.0530
12467TIP3    H158816   0.110   4.547  12.439  1.3591  0.9645 -0.4657
12467TIP3    H258817   0.252   4.503  12.411  1.5096  0.5718  0.8495
12468TIP3   OH258818   4.316   1.158   0.472  0.2488 -0.3816  0.1215
12468TIP3    H158819   4.303   1.211   0.393  0.4134  0.3771  0.5835
12468TIP3    H258820   4.410   1.142   0.475  0.1601 -0.9498 -0.1727
12469TIP3   OH258821   3.419   5.765   1.121 -0.1932  0.7144  0.1783
12469TIP3    H158822   3.507   5.786   1.152 -0.5938  1.1342  1.0707
12469TIP3    H258823   3.410   5.671   1.135  0.6799  0.3664 -1.4155
12470TIP3   OH258824   3.696   0.366  11.561  0.5797 -0.2206 -0.7452
12470TIP3    H158825   3.687   0.271  11.554 -1.2101  0.0171 -2.4903
12470TIP3    H258826   3.788   0.380  11.583  1.1166 -2.3276 -1.4585
12471TIP3   OH258827   4.940   1.380  17.219 -0.2243 -0.3741  0.4461
12471TIP3    H158828   4.983   1.457  17.181 -2.0353 -0.5118 -2.0913
12471TIP3    H258829   5.012   1.322  17.244  1.1599 -0.0899 -2.4970
12472TIP3   OH258830   6.305   5.200   3.158  1.1175  1.2110  0.1210
12472TIP3    H158831   6.343   5.134   3.100  0.9169  1.2207 -0.0225
12472TIP3    H258832   6.299   5.279   3.103 -0.0683  0.9311 -0.1754
12473TIP3   OH258833   4.462   2.376  12.752 -0.3503 -0.3763  0.6902
12473TIP3    H158834   4.393   2.442  12.761  0.7775  0.8042  0.8857
12473TIP3    H258835   4.438   2.308  12.815 -1.5372 -0.1736  0.4888
12474TIP3   OH258836   3.436   5.649  14.125 -0.0244  0.1243  0.0074
12474TIP3    H158837   3.425   5.572  14.182  1.0584  0.4404  0.6777
12474TIP3    H258838   3.507   5.698  14.166  0.0491  0.9115 -1.0479
12475TIP3   OH258839   2.290   0.861  15.258  0.7449  0.4322  0.2153
12475TIP3    H158840   2.324   0.919  15.189 -0.4799  0.2967 -0.5280
12475TIP3    H258841   2.221   0.912  15.300 -0.0775 -0.3389 -0.1889
12476TIP3   OH258842   5.987   4.086  13.660  0.1073 -0.6138 -0.1259
12476TIP3    H158843   5.989   4.126  13.746  0.5557 -0.2484 -0.3008
12476TIP3    H258844   6.076   4.055  13.646  0.0940 -0.4746 -0.5422
12477TIP3   OH258845   6.571   4.654  13.934  0.0846 -0.5919 -0.1515
12477TIP3    H158846   6.550   4.561  13.946 -0.9164 -0.3233  0.2755
12477TIP3    H258847   6.490   4.699  13.956 -0.2132  0.2592 -2.7406
12478TIP3   OH258848   3.833   1.798   0.803 -0.3830  0.0106  0.0744
12478TIP3    H158849   3.816   1.812   0.897 -0.1394  4.8299 -0.3458
12478TIP3    H258850   3.927   1.779   0.798  0.5772  3.7443  0.7884
12479TIP3   OH258851   6.707   6.238   4.208  0.1234  0.0957  0.1065
12479TIP3    H158852   6.727   6.315   4.262 -0.9002  0.1139  0.4900
12479TIP3    H258853   6.771   6.241   4.137 -1.5956  2.8987 -1.4898
12480TIP3   OH258854   6.410   1.328   3.937 -0.6958 -0.5446  0.1634
12480TIP3    H158855   6.374   1.409   3.900 -0.8040  0.4279  2.2708
12480TIP3    H258856   6.343   1.262   3.919 -0.1246 -0.5090 -2.5921
12481TIP3   OH258857   3.514   0.049   2.381 -0.3478 -0.3999  0.0136
12481TIP3    H158858   3.536   0.073   2.291  2.0618 -0.1611  0.6152
12481TIP3    H258859   3.461  -0.031   2.371 -1.6702  0.6129 -1.6424
12482TIP3   OH258860   3.934   6.331   1.073  0.5299 -0.0083 -0.5271
12482TIP3    H158861   3.931   6.390   0.997  0.2130 -0.0738 -0.5659
12482TIP3    H258862   3.860   6.272   1.061 -0.1263  0.6095  0.3373
12483TIP3   OH258863   2.630   1.839   2.371 -0.0560  0.6497  0.2844
12483TIP3    H158864   2.691   1.843   2.297 -1.8705 -0.9524 -1.4042
12483TIP3    H258865   2.635   1.748   2.401  0.5979  1.2526  2.1604
12484TIP3   OH258866   5.045   6.459  16.894 -0.1416  0.5768 -0.4479
12484TIP3    H158867   5.092   6.385  16.933 -0.3552  1.6700  2.0739
12484TIP3    H258868   4.955   6.450  16.926 -0.0787  2.1114  0.2541
12485TIP3   OH258869   2.813   2.821   2.427  0.5966 -0.3377 -0.2501
12485TIP3    H158870   2.817   2.811   2.332 -0.4078 -0.7513 -0.2570
12485TIP3    H258871   2.772   2.906   2.442 -0.7413 -0.9681 -0.2046
12486TIP3   OH258872   5.641   5.514  12.930  0.5975 -0.1501  0.2370
12486TIP3    H158873   5.663   5.607  12.920 -0.9445  0.1703 -0.5559
12486TIP3    H258874   5.664   5.494  13.021 -0.6046  1.4913  0.9513
12487TIP3   OH258875   5.963   5.653  15.103 -0.5587  0.0065  0.2403
12487TIP3    H158876   5.879   5.616  15.073 -2.7520  3.3665  1.6047
12487TIP3    H258877   5.985   5.719  15.037  1.0161 -0.7555 -0.0315
12488TIP3   OH258878   3.763   4.111  13.983  0.5965  0.1902 -0.4952
12488TIP3    H158879   3.828   4.178  13.962 -0.4651  0.8395 -1.8916
12488TIP3    H258880   3.743   4.125  14.076  0.9032  1.3765 -0.5912
12489TIP3   OH258881   6.168   2.172   2.749 -0.1503  0.0022  0.4635
12489TIP3    H158882   6.146   2.145   2.838 -1.0088 -0.6386  0.0713
12489TIP3    H258883   6.125   2.107   2.693 -1.4105  1.5777 -0.4897
12490TIP3   OH258884   0.845   5.231  14.406 -0.1526  0.3543  0.0723
12490TIP3    H158885   0.848   5.141  14.375  2.0558  0.5686 -0.4950
12490TIP3    H258886   0.913   5.236  14.474  0.1379  1.6905 -0.2732
12491TIP3   OH258887   2.812   6.294  12.140 -0.3045  0.2042  0.4041
12491TIP3    H158888   2.837   6.226  12.202  0.4958 -0.1462 -0.2917
12491TIP3    H258889   2.880   6.361  12.149 -0.8251  0.6967  0.7373
12492TIP3   OH258890   6.326   0.682   4.542 -0.3417 -0.0752 -0.4739
12492TIP3    H158891   6.350   0.736   4.617  0.1368  0.5432 -1.0527
12492TIP3    H258892   6.275   0.741   4.486 -1.5579 -0.8207 -0.1750
12493TIP3   OH258893   1.734   1.335   3.475 -0.0456  0.3233 -0.2895
12493TIP3    H158894   1.755   1.339   3.569 -1.1203 -3.1862  0.2213
12493TIP3    H258895   1.791   1.266   3.441 -0.7302  0.5232 -1.9014
12494TIP3   OH258896   3.544   4.595   0.999 -0.4079 -0.0729  0.5165
12494TIP3    H158897   3.482   4.589   1.072  0.6261  0.4397  1.4552
12494TIP3    H258898   3.627   4.565   1.035 -0.2771 -1.7125 -0.9910
12495TIP3   OH258899   2.139   3.148  11.140 -0.1378  0.6359  0.1100
12495TIP3    H158900   2.116   3.110  11.056 -0.7581  0.0183  0.5534
12495TIP3    H258901   2.234   3.161  11.135  0.2046 -1.5310  0.1552
12496TIP3   OH258902   3.769   5.553  10.763  0.0165 -0.0264  0.2401
12496TIP3    H158903   3.845   5.533  10.817  0.2705 -1.4821 -0.6052
12496TIP3    H258904   3.773   5.489  10.692 -0.2859  1.8226 -1.5216
12497TIP3   OH258905   4.738   3.401   0.179  0.5202  0.0286  0.1930
12497TIP3    H158906   4.736   3.478   0.236 -0.3805 -0.6577  1.1420
12497TIP3    H258907   4.650   3.363   0.187  0.5716 -0.4473 -1.1824
12498TIP3   OH258908   2.679   1.328   0.373 -0.0679  0.5162 -0.1161
12498TIP3    H158909   2.761   1.308   0.418  0.4590 -0.5580 -1.4661
12498TIP3    H258910   2.613   1.332   0.442  0.8634 -0.1678  0.8349
12499TIP3   OH258911   6.294   5.338   0.051  0.2415  0.3077 -0.2064
12499TIP3    H158912   6.274   5.344  -0.042  2.4766 -2.2819 -0.9864
12499TIP3    H258913   6.375   5.389   0.061  1.6475 -1.7757 -0.3837
12500TIP3   OH258914   2.450   5.845  10.281 -0.1995 -0.7709 -0.4715
12500TIP3    H158915   2.475   5.753  10.276  0.8981 -0.5004 -0.1397
12500TIP3    H258916   2.529   5.893  10.259 -1.1469  0.0928 -2.1392
12501TIP3   OH258917   2.631   5.940  11.115  0.3490 -0.1777  0.9962
12501TIP3    H158918   2.638   6.022  11.163  0.9706  0.6190 -0.3936
12501TIP3    H258919   2.710   5.937  11.061 -0.0752 -1.2838  0.3934
12502TIP3   OH258920   3.724   5.202  12.460 -0.4021  0.3898 -0.1310
12502TIP3    H158921   3.643   5.202  12.408 -0.4500 -0.1923 -0.0692
12502TIP3    H258922   3.763   5.116  12.443 -0.3171  0.2661  0.6427
12503TIP3   OH258923   3.773   3.448   3.701  0.1695  0.1514  0.5181
12503TIP3    H158924   3.733   3.466   3.786  0.6067  1.0821  0.5339
12503TIP3    H258925   3.728   3.507   3.641  1.0958  0.7942  0.4346
12504TIP3   OH258926   6.276   4.089   0.976 -0.2390 -0.0513  0.6799
12504TIP3    H158927   6.274   4.028   1.050  2.1344 -0.1478  0.7459
12504TIP3    H258928   6.255   4.174   1.014  2.5456  0.2025  1.9103
12505TIP3   OH258929   2.604   2.575  16.263 -0.1963 -0.6234  0.5814
12505TIP3    H158930   2.639   2.502  16.212  1.1854 -1.2772  2.3429
12505TIP3    H258931   2.541   2.535  16.322 -1.1111 -0.0145  0.0474
12506TIP3   OH258932   3.966   3.225  13.830 -0.6361  0.2844 -0.5108
12506TIP3    H158933   4.050   3.221  13.875 -1.1288  0.4391  0.4559
12506TIP3    H258934   3.901   3.220  13.901 -1.4456 -0.4615 -1.2833
12507TIP3   OH258935   2.179   3.159   1.620  0.1623  0.3051 -0.4642
12507TIP3    H158936   2.240   3.145   1.692  2.2732  0.2892 -2.1447
12507TIP3    H258937   2.171   3.074   1.577  0.0766  0.6152 -1.0823
12508TIP3   OH258938   2.552   4.486   2.158  0.4755  0.5061  0.2201
12508TIP3    H158939   2.480   4.433   2.190  2.2114 -0.9841  1.9342
12508TIP3    H258940   2.540   4.571   2.201  0.0136  0.1211  0.8680
12509TIP3   OH258941   4.507   2.696   0.719  0.8941  0.2669 -0.3845
12509TIP3    H158942   4.532   2.653   0.637  2.4889  1.3816 -0.5194
12509TIP3    H258943   4.411   2.698   0.716  0.8652 -0.9834 -1.5384
12510TIP3   OH258944   3.654   2.837  13.640 -0.3805  0.0797  0.6944
12510TIP3    H158945   3.648   2.782  13.562  2.4028 -2.2199  1.9186
12510TIP3    H258946   3.702   2.784  13.704 -1.6460  2.2073  3.6844
12511TIP3   OH258947   0.883   0.334   3.952 -0.1837 -1.1415 -0.3028
12511TIP3    H158948   0.930   0.361   3.873  1.2673 -0.8584  0.6074
12511TIP3    H258949   0.808   0.393   3.957  0.6068 -0.0639 -0.6176
12512TIP3   OH258950   4.212   3.152   4.817  0.3292  0.0961 -0.0134
12512TIP3    H158951   4.308   3.153   4.815  0.4513  1.1763  2.4414
12512TIP3    H258952   4.187   3.244   4.806 -0.3551 -0.0223  0.4710
12513TIP3   OH258953   3.976   0.868  11.323 -0.5013 -0.1826 -0.1037
12513TIP3    H158954   3.898   0.823  11.356 -0.9584 -0.0163 -0.9110
12513TIP3    H258955   4.037   0.797  11.301 -0.6957 -0.3490 -0.1108
12514TIP3   OH258956   6.233   2.953  16.508  0.0726  0.6156  0.3110
12514TIP3    H158957   6.159   2.956  16.569 -1.6304  0.7025 -1.6597
12514TIP3    H258958   6.198   2.908  16.431  2.2340  0.2695 -0.5301
12515TIP3   OH258959   3.793   1.744   0.238 -0.1373  0.4882  0.6393
12515TIP3    H158960   3.778   1.834   0.268 -2.8347 -0.2964  2.0233
12515TIP3    H258961   3.795   1.692   0.318  4.1006 -0.5184  0.0897
12516TIP3   OH258962   3.938   4.205  12.942 -0.5870 -0.4158  0.6390
12516TIP3    H158963   3.952   4.110  12.937 -0.9734 -0.5398  1.6693
12516TIP3    H258964   3.974   4.239  12.860  0.0139 -1.3935  0.4828
12517TIP3   OH258965   6.187   3.859  15.772  0.1905 -0.2272 -0.5531
12517TIP3    H158966   6.148   3.878  15.686  1.2360  0.1649 -0.9581
12517TIP3    H258967   6.180   3.942  15.820 -1.8431 -0.8661  0.3584
12518TIP3   OH258968   6.147   1.839   1.073 -0.3727 -0.0955 -0.9427
12518TIP3    H158969   6.183   1.751   1.070  0.4144  0.1817 -0.0885
12518TIP3    H258970   6.090   1.839   1.149  2.6736  1.1815  1.5688
12519TIP3   OH258971   5.488   1.870  15.586 -0.3494  0.3326 -0.2167
12519TIP3    H158972   5.539   1.925  15.646  0.7959 -0.6037 -0.3067
12519TIP3    H258973   5.530   1.784  15.590 -3.4988 -1.3078  1.7641
12520TIP3   OH258974   2.808   4.721  13.194  0.3741 -0.0017 -0.5032
12520TIP3    H158975   2.795   4.808  13.157 -1.2252  0.7949  1.7274
12520TIP3    H258976   2.889   4.728  13.244  1.0379 -0.2633 -1.5155
12521TIP3   OH258977   1.663   3.989  14.318  0.1547  0.5329 -0.4328
12521TIP3    H158978   1.753   3.956  14.311 -0.2736 -0.2741 -3.5811
12521TIP3    H258979   1.650   4.040  14.238 -2.6626 -0.7294 -0.9060
12522TIP3   OH258980   3.956   1.188  11.189  0.1406 -0.0744 -0.0716
12522TIP3    H158981   4.027   1.150  11.138  1.8984  1.2187  1.2671
12522TIP3    H258982   3.940   1.273  11.148  1.0564  0.6536  1.0093
12523TIP3   OH258983   0.231   2.773   2.178  0.1072 -0.5632 -0.3395
12523TIP3    H158984   0.304   2.788   2.117 -1.1206  2.4387 -1.2700
12523TIP3    H258985   0.165   2.837   2.151 -2.8758 -3.0688  0.5337
12524TIP3   OH258986   4.343   1.722  14.320 -0.0880  0.0482  0.3062
12524TIP3    H158987   4.330   1.812  14.350  1.2263  0.4944 -0.3747
12524TIP3    H258988   4.431   1.699  14.352  0.0345 -0.6006 -0.4671
12525TIP3   OH258989   3.352   3.049   4.184  0.0373  0.3542 -0.1247
12525TIP3    H158990   3.416   3.012   4.124 -0.4535  0.5151 -0.7557
12525TIP3    H258991   3.348   2.986   4.256  1.5068  0.7493  0.3452
12526TIP3   OH258992   4.426   5.931  16.594  0.1425  0.2615  0.0637
12526TIP3    H158993   4.410   6.025  16.597  1.2275  0.4481  0.4954
12526TIP3    H258994   4.511   5.923  16.551 -0.1813 -0.5599 -0.4435
12527TIP3   OH258995   5.872   6.641   5.123 -0.2260 -0.1333 -0.1858
12527TIP3    H158996   5.938   6.607   5.183  0.3147  0.0216 -0.6860
12527TIP3    H258997   5.919   6.705   5.070 -1.0913  1.0024  0.3646
12528TIP3   OH258998   5.575   2.048  11.128 -0.3778 -0.1232  0.1038
12528TIP3    H158999   5.581   2.031  11.034 -1.0814 -1.6435  0.3168
12528TIP3    H259000   5.666   2.053  11.157 -0.1492 -0.8093 -0.4671
12529TIP3   OH259001   3.348   2.398  11.655  0.0814  0.2951 -0.0686
12529TIP3    H159002   3.281   2.456  11.692 -0.2999 -0.8855  1.1752
12529TIP3    H259003   3.399   2.454  11.597  0.4915  2.2076  1.9970
12530TIP3   OH259004   1.168   5.651  10.632 -0.0157  0.5624 -0.3855
12530TIP3    H159005   1.121   5.679  10.711 -0.0697  0.5121 -0.3995
12530TIP3    H259006   1.103   5.600  10.583  0.5865 -1.0512  0.4473
12531TIP3   OH259007   3.197   4.396  11.018 -0.5800  0.3016  0.0290
12531TIP3    H159008   3.278   4.444  11.034 -1.0750  0.5963  1.8078
12531TIP3    H259009   3.214   4.308  11.052 -0.8892  0.2466  0.0423
12532TIP3   OH259010   1.820   4.288  12.839  0.6810 -0.5442 -1.2111
12532TIP3    H159011   1.879   4.280  12.764  2.7664 -0.8837  0.3966
12532TIP3    H259012   1.875   4.274  12.915 -0.4293  3.8911  0.7316
12533TIP3   OH259013   4.171   0.541  16.120 -0.2365 -0.0901  0.1565
12533TIP3    H159014   4.171   0.451  16.089 -1.3965 -0.2361  0.5352
12533TIP3    H259015   4.083   0.573  16.101 -0.8906 -0.0547  2.8031
12534TIP3   OH259016   3.639   5.064  15.602  0.0127 -0.3145  0.4376
12534TIP3    H159017   3.555   5.017  15.603 -0.4121  0.3639  2.6029
12534TIP3    H259018   3.695   5.014  15.663  0.5295  0.3234  0.4926
12535TIP3   OH259019   0.983   0.822  14.332  0.3678  0.0095  0.0808
12535TIP3    H159020   1.040   0.828  14.255 -1.1083  0.3196 -1.0168
12535TIP3    H259021   0.895   0.813  14.297 -0.1454 -2.4404  1.7279
12536TIP3   OH259022   5.772   6.171   1.188  0.1422 -0.8887  0.1442
12536TIP3    H159023   5.807   6.082   1.191 -0.9143 -1.3250 -0.1105
12536TIP3    H259024   5.819   6.213   1.115  1.5253 -0.8275  1.0290
12537TIP3   OH259025   3.326   1.882   5.134  0.3078 -0.8806  0.3695
12537TIP3    H159026   3.388   1.828   5.183  0.5175 -1.6793 -0.7437
12537TIP3    H259027   3.369   1.897   5.049  0.3149  1.1447  0.6745
12538TIP3   OH259028   6.453   5.381   1.974 -0.1269  0.1857 -0.1184
12538TIP3    H159029   6.475   5.471   1.952  0.0875  0.4039  0.9552
12538TIP3    H259030   6.526   5.350   2.027  0.5044 -1.0996 -1.6439
12539TIP3   OH259031   3.590   4.608  12.138  0.2924  0.5188  0.1560
12539TIP3    H159032   3.651   4.626  12.066 -0.3612  0.4383 -0.4366
12539TIP3    H259033   3.586   4.690  12.187  1.2046  0.3910  0.4614
12540TIP3   OH259034   4.009   4.968  11.582 -0.0428  0.0505  0.0591
12540TIP3    H159035   3.988   5.019  11.660 -0.4518 -1.0800  0.7081
12540TIP3    H259036   4.071   4.901  11.612  2.2667  1.4675 -1.2244
12541TIP3   OH259037   1.936   3.362   2.895  0.0854 -0.5185  0.7227
12541TIP3    H159038   1.862   3.364   2.835  0.2959 -2.1894  0.3541
12541TIP3    H259039   1.914   3.293   2.958  0.9510 -0.4536  1.1158
12542TIP3   OH259040   3.942   4.908   5.326  0.2556  0.1511  0.3227
12542TIP3    H159041   3.870   4.852   5.354  0.4986 -1.0758 -1.3480
12542TIP3    H259042   4.021   4.862   5.357  0.4029  0.4132  0.3381
12543TIP3   OH259043   1.265   4.593   5.882 -0.4574  0.0325  0.8006
12543TIP3    H159044   1.212   4.573   5.959 -1.0885 -0.6531  0.2027
12543TIP3    H259045   1.268   4.511   5.833 -2.1181  1.0220 -1.1359
12544TIP3   OH259046   1.541   1.380   4.852  0.8367 -0.3723 -0.2207
12544TIP3    H159047   1.613   1.442   4.836  0.8217  0.0533  1.1692
12544TIP3    H259048   1.579   1.317   4.913  0.2914 -0.6598 -0.1809
12545TIP3   OH259049   5.420   4.455   1.405  0.3504 -0.6449  0.3163
12545TIP3    H159050   5.433   4.527   1.343  1.3827  1.1151  2.3929
12545TIP3    H259051   5.325   4.448   1.414  0.1839 -1.0128 -1.4950
12546TIP3   OH259052   0.034   2.204  14.928  0.2821 -0.2677 -0.3980
12546TIP3    H159053  -0.048   2.231  14.887  0.0772  0.1346  0.2618
12546TIP3    H259054   0.018   2.114  14.957 -0.3485  0.2121  0.8019
12547TIP3   OH259055   0.358   5.570  17.142  0.1999 -0.4505 -0.6912
12547TIP3    H159056   0.273   5.610  17.156 -0.2870 -1.8224  0.4824
12547TIP3    H259057   0.413   5.603  17.213  1.2397  1.7718 -2.3706
12548TIP3   OH259058   3.970   4.286   0.510  0.0761 -0.3004  0.3382
12548TIP3    H159059   3.966   4.282   0.606  1.5558 -0.0741  0.4304
12548TIP3    H259060   4.001   4.375   0.492  0.1227 -0.4551 -0.3484
12549TIP3   OH259061   0.608   5.443  17.088  0.1442 -0.0639  0.0477
12549TIP3    H159062   0.520   5.474  17.067 -0.5001 -2.7079 -1.5511
12549TIP3    H259063   0.666   5.517  17.067 -1.5036  1.0017 -0.9137
12550TIP3   OH259064   4.208   5.380  13.528  0.6198  0.1490 -0.1891
12550TIP3    H159065   4.289   5.333  13.509 -0.6432 -1.2767 -2.4681
12550TIP3    H259066   4.232   5.472  13.521  2.4646 -0.1350  1.3533
12551TIP3   OH259067   2.203   0.625  15.886  0.3503  0.4597 -0.1261
12551TIP3    H159068   2.268   0.671  15.940 -0.0695  2.8490 -1.5336
12551TIP3    H259069   2.248   0.610  15.803 -0.1795  0.0962 -0.3499
12552TIP3   OH259070   2.078   1.944  16.068  0.2378 -0.1889 -0.3716
12552TIP3    H159071   2.077   2.003  16.144 -1.0171 -0.9805  0.2564
12552TIP3    H259072   2.157   1.892  16.080 -0.4971 -1.0408  1.0015
12553TIP3   OH259073   1.654   5.604  14.202  0.0099 -0.8639  0.7424
12553TIP3    H159074   1.625   5.681  14.251 -0.3829 -1.7128  1.9067
12553TIP3    H259075   1.586   5.538  14.218  0.5118 -1.5714  0.0667
12554TIP3   OH259076   3.933   1.751   4.992  0.4301 -0.0174 -0.0987
12554TIP3    H159077   3.855   1.732   5.044  0.9250 -1.3725  0.1979
12554TIP3    H259078   4.006   1.724   5.048  1.1924  2.0487 -0.0153
12555TIP3   OH259079   4.680   2.326   5.614  0.5762 -0.3951  0.3786
12555TIP3    H159080   4.692   2.292   5.703  0.1504 -0.0380  0.5788
12555TIP3    H259081   4.601   2.283   5.582 -0.0106  0.4357  0.6632
12556TIP3   OH259082   4.234   4.403   4.595  0.2525 -0.7100 -0.4911
12556TIP3    H159083   4.299   4.339   4.625  1.5072  0.5978 -0.3468
12556TIP3    H259084   4.157   4.350   4.576  0.7912 -2.1044  0.9525
12557TIP3   OH259085   3.838   5.296  16.446  0.2252  0.5020  0.5480
12557TIP3    H159086   3.778   5.306  16.520 -0.5755  0.6636 -0.0996
12557TIP3    H259087   3.913   5.249  16.482 -0.8353 -0.8640  1.1214
12558TIP3   OH259088   4.269   1.168   4.698 -0.5102  0.1840  0.2678
12558TIP3    H159089   4.272   1.077   4.727 -0.2965  0.2086  0.3207
12558TIP3    H259090   4.299   1.219   4.773  1.7679  0.1253 -0.5306
12559TIP3   OH259091   1.313   0.311   3.870  0.1201  0.3167 -0.6065
12559TIP3    H159092   1.354   0.277   3.950 -0.2749 -1.0787 -0.9684
12559TIP3    H259093   1.305   0.405   3.885 -0.1977  0.0464  1.1104
12560TIP3   OH259094   5.753   1.064   4.836  0.3347  0.1707 -0.4001
12560TIP3    H159095   5.703   1.073   4.917  0.0776 -0.7314 -0.4422
12560TIP3    H259096   5.701   1.005   4.782  0.9899 -0.0397 -0.8188
12561TIP3   OH259097   5.838   0.450  16.327 -0.4327 -0.3055 -0.4062
12561TIP3    H159098   5.881   0.535  16.331  0.4755 -0.7824  0.7641
12561TIP3    H259099   5.779   0.449  16.403 -2.0447  0.0694 -1.6031
12562TIP3   OH259100   2.676   1.912  11.850  0.2794 -0.3001  0.3183
12562TIP3    H159101   2.709   1.826  11.824 -0.1881 -0.0900 -1.0745
12562TIP3    H259102   2.738   1.974  11.813  0.9776 -0.0269  1.8741
12563TIP3   OH259103   3.401   2.002   1.032 -0.0861  0.0235  0.3403
12563TIP3    H159104   3.328   2.056   1.061 -0.5433 -0.1928 -0.3850
12563TIP3    H259105   3.465   2.008   1.103 -0.6518  0.5086  0.8180
12564TIP3   OH259106   0.877   6.410   5.118 -0.0804 -0.1066  0.1485
12564TIP3    H159107   0.950   6.412   5.180  0.7905  2.1767 -0.7946
12564TIP3    H259108   0.842   6.322   5.123  1.4796 -0.6727  2.1134
12565TIP3   OH259109   1.951   6.060   4.977  0.1490 -0.3920 -0.2412
12565TIP3    H159110   1.879   6.117   4.949  0.1546  1.3259  2.7828
12565TIP3    H259111   1.921   6.022   5.060  2.3892 -0.1434  0.7633
12566TIP3   OH259112   2.616   6.080   4.668 -0.1889  0.4064 -0.0384
12566TIP3    H159113   2.701   6.067   4.626 -0.8458 -0.5180 -1.1586
12566TIP3    H259114   2.578   6.156   4.624 -0.3657  0.1902 -0.2625
12567TIP3   OH259115   1.368   0.100  17.166  0.3061  0.0110 -1.2096
12567TIP3    H159116   1.449   0.100  17.115  0.8051 -1.2319 -0.4791
12567TIP3    H259117   1.381   0.031  17.232  0.1021  2.1630  1.2494
12568TIP3   OH259118   6.333   2.775   5.192  0.4991  0.9939  0.1051
12568TIP3    H159119   6.241   2.777   5.218  0.5094  2.1434  0.1093
12568TIP3    H259120   6.338   2.834   5.116  0.8973 -0.5149 -1.0889
12569TIP3   OH259121   5.425   2.891   0.766  0.1872 -0.0053  0.1303
12569TIP3    H159122   5.422   2.837   0.845 -0.2807 -1.3477 -0.7625
12569TIP3    H259123   5.347   2.865   0.717  1.2211 -0.2976 -1.4436
12570TIP3   OH259124   1.089   2.279   4.256  0.6739 -0.2831 -0.7002
12570TIP3    H159125   1.150   2.261   4.185 -0.6026 -1.5132 -1.5378
12570TIP3    H259126   1.003   2.263   4.218  0.0249 -2.8926  1.6062
12571TIP3   OH259127   1.174   2.765   5.705  0.3961  0.0411 -0.6814
12571TIP3    H159128   1.151   2.848   5.746  0.0088  0.2035 -1.2277
12571TIP3    H259129   1.094   2.712   5.709  0.4382 -0.0471 -0.9678
12572TIP3   OH259130   0.579   3.040  15.100  0.3539  0.6141  0.0857
12572TIP3    H159131   0.630   3.118  15.077  0.8242 -0.3694 -2.6164
12572TIP3    H259132   0.643   2.981  15.140  0.5012  0.7529  0.0582
12573TIP3   OH259133   1.399   3.085  13.764  0.0574 -0.0952  0.5097
12573TIP3    H159134   1.330   3.136  13.806  1.2452  1.1856  1.0125
12573TIP3    H259135   1.390   3.104  13.671  0.1259  0.5954  0.6374
12574TIP3   OH259136   4.168   5.262  14.013 -0.4686  0.4389 -0.5716
12574TIP3    H159137   4.254   5.302  14.005 -0.9379  1.8588  0.9079
12574TIP3    H259138   4.165   5.196  13.944  1.9383  0.0787 -0.3940
12575TIP3   OH259139   2.167   2.235   2.912  0.3026  0.5465 -0.1874
12575TIP3    H159140   2.225   2.197   2.978 -0.6279  0.2076  0.4706
12575TIP3    H259141   2.123   2.160   2.873  0.2245  0.8019 -0.5966
12576TIP3   OH259142   6.609   6.030   4.039  0.3159  0.2341  0.0316
12576TIP3    H159143   6.640   6.076   3.961  0.5724 -0.9269 -0.5672
12576TIP3    H259144   6.600   6.099   4.105  1.5686  1.0053 -0.5636
12577TIP3   OH259145   4.405   5.683   4.026  0.4393 -0.0091 -0.1233
12577TIP3    H159146   4.354   5.755   4.064 -0.3461 -0.0483 -1.0671
12577TIP3    H259147   4.447   5.641   4.101  0.1113  0.8260  0.5368
12578TIP3   OH259148   1.884   5.384   4.928  0.3544 -0.7191 -0.4281
12578TIP3    H159149   1.811   5.442   4.907  0.4736  0.2238  1.5342
12578TIP3    H259150   1.871   5.308   4.872 -2.6425 -0.9576  0.4292
12579TIP3   OH259151   3.549   4.343  16.060  0.1864  0.3332  0.1600
12579TIP3    H159152   3.491   4.267  16.053 -1.5418  1.5666  0.4547
12579TIP3    H259153   3.605   4.338  15.983 -0.6765 -0.6196 -0.4218
12580TIP3   OH259154   1.520   1.766  13.596 -0.0790 -0.3864 -0.3059
12580TIP3    H159155   1.557   1.827  13.660  0.1552  0.7560 -1.5113
12580TIP3    H259156   1.441   1.732  13.639  0.1299  0.2799  0.6275
12581TIP3   OH259157   5.348   1.929   5.731 -0.1425  0.1724  0.2050
12581TIP3    H159158   5.424   1.974   5.768  0.0733  0.8734 -1.0513
12581TIP3    H259159   5.301   1.997   5.683 -0.4780 -0.6923 -0.7196
12582TIP3   OH259160   0.739   3.046   0.855  0.4523  0.1966  0.3513
12582TIP3    H159161   0.772   3.074   0.940  3.3516 -0.3115 -0.5212
12582TIP3    H259162   0.698   2.961   0.872 -0.2453  0.7342  1.4400
12583TIP3   OH259163   2.704   1.857   2.747  0.3221  0.4402  0.2135
12583TIP3    H159164   2.788   1.813   2.761  0.3907  1.1565  2.4623
12583TIP3    H259165   2.639   1.787   2.750  0.5220  0.2667  2.7241
12584TIP3   OH259166   6.729   4.206  10.513 -0.1174 -0.0989 -0.3561
12584TIP3    H159167   6.815   4.247  10.527 -0.5087  0.0784  1.8984
12584TIP3    H259168   6.667   4.272  10.542 -0.8945 -1.1841  0.4986
12585TIP3   OH259169   2.472   3.484   6.685  0.0649  0.3084 -0.4256
12585TIP3    H159170   2.555   3.517   6.720 -0.7194  0.5048  1.3787
12585TIP3    H259171   2.497   3.435   6.607  2.1049 -1.2345  1.0885
12586TIP3   OH259172   0.049   3.062  11.212  0.5003  0.0521  0.3372
12586TIP3    H159173  -0.033   3.060  11.162  0.4456  1.7768  0.2993
12586TIP3    H259174   0.023   3.044  11.302  0.3443 -1.2094  0.0553
12587TIP3   OH259175   3.929   1.905   5.256  0.1073  0.2477 -0.0634
12587TIP3    H159176   4.017   1.927   5.226  0.0982  1.4397  0.7522
12587TIP3    H259177   3.873   1.974   5.221 -0.2981  0.2297  0.5337
12588TIP3   OH259178   3.869   1.895  14.067  0.5867 -0.3076  0.3557
12588TIP3    H159179   3.950   1.942  14.048 -0.1071  1.0004  0.5584
12588TIP3    H259180   3.868   1.887  14.163  0.6342 -0.6439  0.3323
12589TIP3   OH259181   5.145   4.313  15.214  0.2114 -0.8183 -0.3480
12589TIP3    H159182   5.208   4.385  15.211 -0.1261 -0.1904  3.3808
12589TIP3    H259183   5.199   4.235  15.227  0.4108 -1.0174 -2.0342
12590TIP3   OH259184   4.791   3.343  15.515 -0.0032  0.2481 -0.4151
12590TIP3    H159185   4.758   3.280  15.578 -0.0082  0.1268 -0.5380
12590TIP3    H259186   4.756   3.314  15.431 -2.1799  1.8713 -0.1554
12591TIP3   OH259187   0.333   4.583   4.245  0.5737  0.0198  0.4730
12591TIP3    H159188   0.244   4.605   4.273 -0.4068  0.4193 -2.5806
12591TIP3    H259189   0.354   4.503   4.293 -1.3097  0.0929  1.5138
12592TIP3   OH259190   4.495   2.950   1.072  0.0663  0.1681 -0.1682
12592TIP3    H159191   4.472   3.042   1.061  0.0905  0.0373 -1.5938
12592TIP3    H259192   4.587   2.945   1.046  0.3138 -0.1233  0.7408
12593TIP3   OH259193   1.106   4.944  16.973 -0.3488 -0.2561  0.7990
12593TIP3    H159194   1.034   4.949  16.909  0.6781  0.4718 -0.3548
12593TIP3    H259195   1.145   4.858  16.957 -0.5621 -0.3910  0.9895
12594TIP3   OH259196   0.380   4.185  12.239 -0.0980  0.9474 -0.7258
12594TIP3    H159197   0.285   4.174  12.243 -0.1467  0.1854 -2.9181
12594TIP3    H259198   0.393   4.280  12.239 -0.7888  1.0616  0.2190
12595TIP3   OH259199   2.838   0.950   0.589  0.4242 -0.3086  0.2077
12595TIP3    H159200   2.892   0.934   0.667  0.0548  0.0097  0.5385
12595TIP3    H259201   2.791   1.032   0.609 -0.1668 -0.5702 -0.0752
12596TIP3   OH259202   6.139   5.572   4.142 -0.1185 -0.0219 -0.4529
12596TIP3    H159203   6.138   5.570   4.046  1.4684  0.2965 -0.5079
12596TIP3    H259204   6.153   5.664   4.164 -1.4819  0.0591  0.1213
12597TIP3   OH259205   2.713   0.187  15.683 -0.2124 -0.5385  0.0093
12597TIP3    H159206   2.683   0.101  15.652 -0.4921 -0.8573  1.1350
12597TIP3    H259207   2.664   0.202  15.764 -0.5032  0.8919 -0.3992
12598TIP3   OH259208   1.741   1.244   5.072 -0.3149  0.3512 -0.6439
12598TIP3    H159209   1.757   1.312   5.138  1.8043 -1.5420  0.9700
12598TIP3    H259210   1.828   1.211   5.049 -1.2350 -2.1546 -0.9291
12599TIP3   OH259211   6.284   2.893  14.374  0.1126 -0.2108  0.5732
12599TIP3    H159212   6.218   2.952  14.411 -0.3665  0.0103 -0.5726
12599TIP3    H259213   6.354   2.952  14.345 -0.7686 -0.0383 -1.4170
12600TIP3   OH259214   1.239   2.100  16.196 -0.2271  0.2893  0.6169
12600TIP3    H159215   1.188   2.019  16.194 -0.5645  0.5011  0.4766
12600TIP3    H259216   1.315   2.082  16.142 -1.9424  1.1188 -2.3210
12601TIP3   OH259217   0.508   2.694   4.607  0.8909  0.6336  0.2167
12601TIP3    H159218   0.497   2.720   4.698  0.6086 -0.3738  0.4825
12601TIP3    H259219   0.599   2.664   4.601  0.6546 -0.1510  0.4027
12602TIP3   OH259220   1.768   4.413   5.018  0.0955 -1.0040 -0.0965
12602TIP3    H159221   1.830   4.484   5.036 -1.3201 -0.3547  2.7403
12602TIP3    H259222   1.798   4.340   5.073  1.1314 -2.4769 -2.4603
12603TIP3   OH259223   6.479   3.448   5.611 -0.1722 -0.4458 -0.0421
12603TIP3    H159224   6.544   3.429   5.544  0.5746 -1.2123  0.8641
12603TIP3    H259225   6.517   3.413   5.692 -1.1984  0.1385  0.7203
12604TIP3   OH259226   2.589   2.190   3.044 -0.1434 -0.3981  0.6084
12604TIP3    H159227   2.590   2.175   2.949 -1.7745 -1.8897  0.7774
12604TIP3    H259228   2.674   2.229   3.063  0.1825  0.0278 -1.4746
12605TIP3   OH259229   1.678   0.410   4.578  0.0873  0.1003  0.4620
12605TIP3    H159230   1.711   0.325   4.548  0.8880  0.5396  0.0627
12605TIP3    H259231   1.756   0.458   4.605 -0.3867  0.6223  0.9249
12606TIP3   OH259232   3.718   3.311   5.628 -0.2325 -0.3761  0.2675
12606TIP3    H159233   3.655   3.352   5.568  0.7128  2.7269  1.1799
12606TIP3    H259234   3.670   3.302   5.710 -0.3058 -0.6821  0.1915
12607TIP3   OH259235   4.903   4.983  11.923 -0.1041  0.2319 -0.1320
12607TIP3    H159236   4.822   4.938  11.947 -0.2641 -1.3792 -3.2290
12607TIP3    H259237   4.875   5.057  11.869  0.4390  0.5589  0.0201
12608TIP3   OH259238   4.296   2.571   0.487 -0.6070  0.2805 -0.2807
12608TIP3    H159239   4.206   2.556   0.459 -0.9566  1.0847  0.3447
12608TIP3    H259240   4.297   2.663   0.514  0.2296  0.1028  0.3454
12609TIP3   OH259241   2.354   2.684   4.115 -0.5214 -0.1499 -0.5886
12609TIP3    H159242   2.435   2.635   4.129  0.5110  1.8638  0.9937
12609TIP3    H259243   2.323   2.654   4.030  0.7589 -2.4892 -0.3320
12610TIP3   OH259244   3.939   5.400  13.571 -0.2626 -0.1550  0.0451
12610TIP3    H159245   3.927   5.456  13.494 -1.5683  0.1770  0.4605
12610TIP3    H259246   4.034   5.387  13.577  0.0463  1.6103 -0.3538
12611TIP3   OH259247   1.143   4.659  11.463 -0.7741  0.3021  0.4340
12611TIP3    H159248   1.127   4.753  11.471  0.5209  0.4215  2.1998
12611TIP3    H259249   1.140   4.626  11.553 -0.0846 -1.1494 -0.0407
12612TIP3   OH259250   4.825   3.005  17.279  0.7085 -0.5902  0.2437
12612TIP3    H159251   4.897   3.022  17.340  2.0590 -1.1040 -1.1296
12612TIP3    H259252   4.868   2.971  17.200 -0.9888 -0.2625 -0.8818
12613TIP3   OH259253   5.109   6.308   1.584  0.6774  0.1533 -0.3108
12613TIP3    H159254   5.151   6.332   1.501  1.2174 -1.3426 -0.5034
12613TIP3    H259255   5.120   6.385   1.639  2.8059  0.2200 -0.7056
12614TIP3   OH259256   6.246   3.692   6.878  0.0353  0.2653 -0.4809
12614TIP3    H159257   6.318   3.744   6.843 -0.8521  0.5516 -1.9785
12614TIP3    H259258   6.188   3.756   6.918  0.7082  0.0087  0.9506
12615TIP3   OH259259   5.869   1.507  12.572 -0.3886  0.3468  0.0951
12615TIP3    H159260   5.801   1.550  12.624  1.1257  1.1466  1.4865
12615TIP3    H259261   5.945   1.564  12.580  0.5027 -0.5744 -1.3528
12616TIP3   OH259262   5.065   0.942   4.894 -0.4097 -0.4723 -0.0208
12616TIP3    H159263   5.142   0.997   4.909  0.9989 -1.4453 -3.0200
12616TIP3    H259264   5.077   0.866   4.951  0.6755 -0.4357 -0.1881
12617TIP3   OH259265   4.676   3.171  11.680 -0.3985 -0.7247 -0.3013
12617TIP3    H159266   4.688   3.213  11.594 -1.1929 -0.0823 -0.1148
12617TIP3    H259267   4.651   3.242  11.738 -3.0169 -1.5604 -0.2388
12618TIP3   OH259268   2.656   1.935  17.235 -0.2383 -1.0442 -0.3633
12618TIP3    H159269   2.603   2.009  17.205  1.0378 -0.4682 -1.3037
12618TIP3    H259270   2.675   1.885  17.156  0.2771 -1.4628  0.0172
12619TIP3   OH259271   2.443   4.119  15.912  0.7439 -0.3692 -0.0103
12619TIP3    H159272   2.455   4.070  15.831 -1.1762  1.7483 -1.7363
12619TIP3    H259273   2.523   4.170  15.922  1.6487 -1.8016  0.3720
12620TIP3   OH259274   6.520   4.756   0.560  0.8189  0.3459 -0.5556
12620TIP3    H159275   6.533   4.842   0.520  1.4437 -0.0539 -1.2411
12620TIP3    H259276   6.600   4.739   0.610  1.1045 -0.2347 -1.1938
12621TIP3   OH259277   2.435   6.150  14.384  0.4222  0.0815  0.4728
12621TIP3    H159278   2.406   6.233  14.422 -0.8977  0.2479 -0.8238
12621TIP3    H259279   2.531   6.157  14.385  0.3626  1.1241  1.4354
12622TIP3   OH259280   1.181   3.157   0.613 -0.0031  0.0774 -0.0167
12622TIP3    H159281   1.180   3.099   0.537  1.7695 -1.5484  1.1098
12622TIP3    H259282   1.100   3.137   0.659  0.0501 -0.6595 -0.2382
12623TIP3   OH259283   6.588   4.529   2.151 -0.0033 -0.5419  0.3148
12623TIP3    H159284   6.682   4.520   2.167  0.1143  0.2479  0.1061
12623TIP3    H259285   6.582   4.591   2.079 -0.7586  0.8698  1.5482
12624TIP3   OH259286   3.995   4.400  14.494 -0.5866  0.8245  0.4926
12624TIP3    H159287   3.957   4.427  14.411  0.2665  0.8550  0.0996
12624TIP3    H259288   3.962   4.311  14.508  0.7451  0.0660 -0.8457
12625TIP3   OH259289   3.610   3.275  12.371 -0.0912  0.1206  0.3719
12625TIP3    H159290   3.654   3.213  12.312  0.3579  2.1347 -1.5936
12625TIP3    H259291   3.578   3.222  12.443 -0.5327 -2.5180 -1.6199
12626TIP3   OH259292   2.248   1.284   0.312 -0.3782 -0.0343 -0.3837
12626TIP3    H159293   2.171   1.271   0.257  0.7432 -1.6520 -1.6738
12626TIP3    H259294   2.298   1.353   0.269 -0.3622 -0.0525 -0.3942
12627TIP3   OH259295   0.163   3.075   3.451 -0.4826 -0.1161  0.1326
12627TIP3    H159296   0.164   3.065   3.356  0.5630  0.6384  0.0478
12627TIP3    H259297   0.135   3.165   3.466  0.3298  0.0918  0.4818
12628TIP3   OH259298   1.746   1.277   5.811 -0.1011 -0.3707 -0.1870
12628TIP3    H159299   1.753   1.333   5.888 -0.7539 -0.2703 -0.1891
12628TIP3    H259300   1.654   1.250   5.810 -0.9691  2.1549 -2.6382
12629TIP3   OH259301   2.008   0.695   3.247  0.6832  0.2814  0.1991
12629TIP3    H159302   2.031   0.613   3.290  0.0780 -0.5034 -0.9347
12629TIP3    H259303   1.915   0.707   3.264  0.3536 -0.2195 -1.1365
12630TIP3   OH259304   0.391   1.474   1.720 -0.1824  0.3390 -0.4143
12630TIP3    H159305   0.446   1.545   1.751 -0.2156  0.3590 -0.4012
12630TIP3    H259306   0.449   1.398   1.718 -0.2880  0.2451  0.0902
12631TIP3   OH259307   3.793   5.441  11.605 -0.5793 -0.4055 -0.4730
12631TIP3    H159308   3.707   5.425  11.642 -0.6758  1.5489  0.2794
12631TIP3    H259309   3.778   5.504  11.534  0.4073  1.7420  1.1215
12632TIP3   OH259310   1.577   6.077  14.078  0.0748 -0.5220  0.2315
12632TIP3    H159311   1.562   6.012  14.147  0.8498  0.3223  1.2280
12632TIP3    H259312   1.654   6.126  14.107  0.0251  0.2870 -0.9219
12633TIP3   OH259313   3.467   5.907  15.106  0.6919 -0.1815 -0.0784
12633TIP3    H159314   3.502   5.929  15.019 -0.7766  1.9119 -0.2405
12633TIP3    H259315   3.449   5.813  15.102 -1.2059  0.1669 -2.8341
12634TIP3   OH259316   4.766   5.865  15.895  0.0803  0.1688  0.5901
12634TIP3    H159317   4.762   5.959  15.914 -0.6950  0.1357  0.6461
12634TIP3    H259318   4.686   5.830  15.935  0.3075 -0.4966  0.4664
12635TIP3   OH259319   1.132   3.821   5.458  0.2925 -0.6708  0.4145
12635TIP3    H159320   1.128   3.809   5.553 -1.2727 -1.8631  0.2341
12635TIP3    H259321   1.145   3.733   5.423  2.4870 -0.0794 -0.4654
12636TIP3   OH259322   5.947   2.713   2.185  0.3217  0.4417 -0.6100
12636TIP3    H159323   5.861   2.672   2.193 -0.1903  1.6281  0.2038
12636TIP3    H259324   5.990   2.665   2.114 -0.7939 -0.5319 -0.6500
12637TIP3   OH259325   0.381   2.528   5.442 -0.2338  0.0123  0.0201
12637TIP3    H159326   0.323   2.560   5.511  0.4468 -1.2343  1.2378
12637TIP3    H259327   0.409   2.442   5.473  2.5708  0.7048 -0.2634
12638TIP3   OH259328   2.576   3.864  14.477 -0.0762 -0.3724  0.5613
12638TIP3    H159329   2.607   3.776  14.455  1.6934  0.1801  0.6653
12638TIP3    H259330   2.529   3.852  14.560 -0.8046 -1.3637  0.0387
12639TIP3   OH259331   6.513   4.633   6.247  0.0368 -0.3487  0.1576
12639TIP3    H159332   6.520   4.540   6.228  0.5926 -0.2901  0.0652
12639TIP3    H259333   6.485   4.673   6.165  1.1320 -0.2665 -0.1958
12640TIP3   OH259334   5.319   1.639   6.164  0.2720 -1.3606 -0.6470
12640TIP3    H159335   5.284   1.717   6.120 -1.5920 -1.4945  0.4657
12640TIP3    H259336   5.381   1.603   6.101 -0.5696 -0.2859 -2.2025
12641TIP3   OH259337   0.476   3.074   1.657 -0.3486  0.0129 -0.8528
12641TIP3    H159338   0.389   3.058   1.621  0.2181 -0.5177 -2.0132
12641TIP3    H259339   0.524   3.117   1.586  0.0367  1.2907  0.1317
12642TIP3   OH259340   1.207   1.700   6.143  0.2896 -0.0723 -0.2121
12642TIP3    H159341   1.141   1.732   6.204  1.6939  0.0446  1.3127
12642TIP3    H259342   1.291   1.723   6.184  1.3624  2.2817 -3.3364
12643TIP3   OH259343   3.537   2.215  12.929 -0.4171 -0.1000  1.0473
12643TIP3    H159344   3.594   2.255  12.865 -2.1764  1.0891  0.1322
12643TIP3    H259345   3.563   2.253  13.013 -0.0764  0.6536  0.5996
12644TIP3   OH259346   6.538   5.982  13.624 -0.0977  0.5697  0.1471
12644TIP3    H159347   6.586   5.903  13.645 -0.3203  0.5653  0.6353
12644TIP3    H259348   6.583   6.052  13.672  0.9580  0.9822 -1.3644
12645TIP3   OH259349   6.764   1.131  16.672  0.1271  0.7080  0.3523
12645TIP3    H159350   6.753   1.147  16.766  0.2432 -1.5693  0.7986
12645TIP3    H259351   6.683   1.088  16.645  0.3540  0.7784 -0.4562
12646TIP3   OH259352   0.898   3.306   5.268 -0.1187  0.4636 -0.9699
12646TIP3    H159353   0.810   3.299   5.231 -0.9456  1.4843  0.6513
12646TIP3    H259354   0.956   3.278   5.198 -1.6632  0.8093 -2.4641
12647TIP3   OH259355   1.881   1.843   1.021  0.3067 -0.0883  0.4465
12647TIP3    H159356   1.929   1.925   1.030  0.7416 -0.0761 -1.4405
12647TIP3    H259357   1.807   1.851   1.080  0.3484  1.6636  0.3070
12648TIP3   OH259358   6.583   3.241  14.484 -0.1657  0.7375 -0.1287
12648TIP3    H159359   6.612   3.179  14.417  0.4680  0.0943  0.7250
12648TIP3    H259360   6.572   3.324  14.437  1.7362  0.6762 -0.7723
12649TIP3   OH259361   3.295   4.714  17.269  0.3343  0.3660  0.4984
12649TIP3    H159362   3.358   4.684  17.203  0.7271 -0.6304  1.3006
12649TIP3    H259363   3.261   4.796  17.234  0.0942 -0.4140 -1.2273
12650TIP3   OH259364   1.117   6.104  11.500  0.5143 -0.0560  0.0507
12650TIP3    H159365   1.202   6.060  11.506  0.9079  0.5098 -1.0145
12650TIP3    H259366   1.130   6.171  11.433 -1.2230 -0.9588 -1.2760
12651TIP3   OH259367   4.481   1.139   3.181  0.9153  0.3585  0.3067
12651TIP3    H159368   4.512   1.143   3.091  0.8617  0.2247  0.2815
12651TIP3    H259369   4.423   1.214   3.190  1.5301  0.8274  0.4641
12652TIP3   OH259370   5.875   3.459  16.823  0.2745  0.2305  0.6039
12652TIP3    H159371   5.928   3.380  16.813 -1.0149 -0.4602 -1.2100
12652TIP3    H259372   5.939   3.531  16.819  1.1045 -0.5462 -2.0129
12653TIP3   OH259373   1.673   0.818   4.875 -0.0603  0.6539 -0.1235
12653TIP3    H159374   1.601   0.791   4.932  0.3355  0.6223  0.3675
12653TIP3    H259375   1.725   0.738   4.863  0.5728  0.9553  0.5359
12654TIP3   OH259376   3.040   5.617  16.229 -0.6978 -0.0840 -0.0450
12654TIP3    H159377   2.997   5.700  16.249  1.1378  1.1173 -0.8424
12654TIP3    H259378   3.004   5.556  16.293 -2.6292  1.1189  0.1089
12655TIP3   OH259379   0.048   4.346   3.430  0.7838  0.1831 -0.5265
12655TIP3    H159380   0.007   4.392   3.504  2.4464  1.0076 -0.0555
12655TIP3    H259381   0.003   4.380   3.353 -1.9737 -1.7234  0.0754
12656TIP3   OH259382   5.679   0.646   5.931  0.2141  0.5938  0.0100
12656TIP3    H159383   5.771   0.651   5.958  0.5910  1.7745 -1.4061
12656TIP3    H259384   5.677   0.578   5.864 -0.2548 -0.4907  1.0752
12657TIP3   OH259385   6.280   4.036   5.816  0.7389 -0.4904  0.0576
12657TIP3    H159386   6.351   4.006   5.758  0.7635  1.2838 -0.9088
12657TIP3    H259387   6.231   3.957   5.837  2.7868 -1.7417  0.4881
12658TIP3   OH259388   2.586   5.696  15.475  0.4406  0.6077 -0.1898
12658TIP3    H159389   2.503   5.723  15.435 -1.2924 -0.9956  2.0314
12658TIP3    H259390   2.627   5.640  15.409 -1.4310 -0.4770 -0.5116
12659TIP3   OH259391   2.156   4.308   5.132  0.6947  0.2288 -0.0132
12659TIP3    H159392   2.237   4.265   5.103  0.8034 -1.3180  2.3071
12659TIP3    H259393   2.178   4.346   5.217 -0.0923  2.9689 -0.9389
12660TIP3   OH259394   5.063   2.732   0.179 -0.5925  0.6149  0.3513
12660TIP3    H159395   4.967   2.727   0.172 -0.7246 -1.7915  2.5823
12660TIP3    H259396   5.094   2.664   0.119 -0.4651 -0.5687  1.7136
12661TIP3   OH259397   0.282   3.217  11.257 -0.1368 -0.2269  0.9140
12661TIP3    H159398   0.209   3.174  11.213 -0.3091  0.7328  0.2416
12661TIP3    H259399   0.347   3.147  11.269 -0.6258 -0.7935  0.3257
12662TIP3   OH259400   3.586   1.158   4.553  0.1276  0.1899 -0.1044
12662TIP3    H159401   3.642   1.081   4.559 -1.1048 -0.8313 -1.2339
12662TIP3    H259402   3.576   1.174   4.459  2.1817  3.1513  0.0226
12663TIP3   OH259403   1.044   2.440   1.438  0.1346  0.0978  0.2953
12663TIP3    H159404   1.065   2.440   1.344 -0.1330 -0.4488  0.2303
12663TIP3    H259405   0.952   2.414   1.442 -0.4981  2.2569  0.5893
12664TIP3   OH259406   2.589   4.093   1.495  0.1222 -0.1543 -0.0023
12664TIP3    H159407   2.617   4.019   1.548  0.0842 -0.2136 -0.0656
12664TIP3    H259408   2.528   4.056   1.431 -0.9149  0.1317  0.7801
12665TIP3   OH259409   6.705   3.692   4.755 -0.0088  0.2653  0.0866
12665TIP3    H159410   6.645   3.744   4.700 -0.6518 -0.0282  0.4946
12665TIP3    H259411   6.786   3.689   4.705 -0.8279 -0.7037 -1.2567
12666TIP3   OH259412   3.546   0.575  14.015 -0.4568  0.2818  0.3726
12666TIP3    H159413   3.559   0.656  14.064 -1.9025  1.3217 -0.8795
12666TIP3    H259414   3.596   0.510  14.064  0.8547  1.9306  1.3549
12667TIP3   OH259415   1.052   0.394   2.618 -0.2944 -0.1131 -0.1673
12667TIP3    H159416   0.974   0.342   2.598 -0.4542 -0.3217  0.9074
12667TIP3    H259417   1.034   0.479   2.580 -0.3354 -0.6309 -1.3409
12668TIP3   OH259418   0.642   1.753   4.088  0.0758 -0.7360  0.7989
12668TIP3    H159419   0.570   1.747   4.025  1.1466 -0.6128 -0.4784
12668TIP3    H259420   0.683   1.667   4.086  2.2444  0.2274 -1.3603
12669TIP3   OH259421   1.790   2.114   0.072  0.1837  0.1699  0.0480
12669TIP3    H159422   1.785   2.205   0.102  0.6455  0.5077 -0.8674
12669TIP3    H259423   1.736   2.112  -0.008  0.6406 -0.2216 -0.2529
12670TIP3   OH259424   4.640   5.989  13.845  0.3060 -0.0252 -0.4586
12670TIP3    H159425   4.614   6.041  13.921  0.0015 -0.4981 -0.2346
12670TIP3    H259426   4.713   5.936  13.876 -0.8753 -1.4443  0.0116
12671TIP3   OH259427   5.153   5.853  13.533  0.6163  0.5403  0.3998
12671TIP3    H159428   5.224   5.916  13.520  0.2673  1.0637  0.9532
12671TIP3    H259429   5.170   5.783  13.470  0.5931  1.5641 -0.7844
12672TIP3   OH259430   4.275   3.731   4.562 -0.2489 -0.5372 -0.4978
12672TIP3    H159431   4.183   3.756   4.552  0.1189  1.7884  1.0635
12672TIP3    H259432   4.286   3.717   4.656  1.3566  1.1488 -0.3651
12673TIP3   OH259433   3.529   4.746   2.793 -0.4251  0.3198  0.1053
12673TIP3    H159434   3.491   4.824   2.752 -0.2757 -0.0564 -0.7604
12673TIP3    H259435   3.453   4.694   2.819 -0.5342 -0.3535 -1.4733
12674TIP3   OH259436   5.257   3.232  16.721  0.0154  0.3358 -0.4673
12674TIP3    H159437   5.210   3.297  16.773  0.7643  1.1525 -0.7724
12674TIP3    H259438   5.189   3.175  16.685 -0.5823  0.3605  0.5858
12675TIP3   OH259439   1.465   3.223   4.306  0.5763  0.3302  0.1613
12675TIP3    H159440   1.524   3.273   4.249 -0.9598  0.6256 -1.2623
12675TIP3    H259441   1.417   3.289   4.355 -0.9067  0.2763 -1.1527
12676TIP3   OH259442   2.946   2.055  13.810 -0.8731  0.0608 -0.5398
12676TIP3    H159443   3.005   1.987  13.842 -1.9785 -0.7150 -0.0751
12676TIP3    H259444   2.963   2.059  13.716  0.1499  0.1040 -0.3672
12677TIP3   OH259445   1.569   5.546   2.898 -0.4843 -0.1317  0.4352
12677TIP3    H159446   1.553   5.635   2.929  2.4395  0.4472  0.5987
12677TIP3    H259447   1.562   5.553   2.803  0.9932  0.6524  0.3430
12678TIP3   OH259448   3.943   2.213   0.605  0.1582  0.6020 -0.3206
12678TIP3    H159449   4.016   2.242   0.660  0.8507 -1.1643 -0.2323
12678TIP3    H259450   3.963   2.248   0.519  2.4788 -1.8211 -0.8863
12679TIP3   OH259451   3.046   5.473  16.679  0.0320 -0.0925  0.1177
12679TIP3    H159452   3.063   5.468  16.773  0.2669  1.6031  0.2011
12679TIP3    H259453   3.003   5.559  16.667 -1.2474 -0.8609 -1.1466
12680TIP3   OH259454   2.081   5.250  14.225  0.0685  0.4935 -0.2831
12680TIP3    H159455   2.084   5.182  14.292  0.4294  1.6702  0.9558
12680TIP3    H259456   2.001   5.231  14.176  1.3339 -2.1272 -1.4832
12681TIP3   OH259457   2.973   6.699   1.305 -0.5489  0.1922  0.3218
12681TIP3    H159458   2.984   6.794   1.312 -0.8779  0.2122  0.6204
12681TIP3    H259459   2.885   6.688   1.269 -1.0022 -0.0125  1.4352
12682TIP3   OH259460   2.966   4.400  13.410  0.3827  0.2837 -0.2315
12682TIP3    H159461   2.875   4.388  13.381  0.0234  0.4027  0.8129
12682TIP3    H259462   3.019   4.372  13.335 -0.4950 -1.5984 -0.1969
12683TIP3   OH259463   5.399   0.204  15.348  0.1247  0.2855  0.0294
12683TIP3    H159464   5.364   0.287  15.379 -0.0131  1.0779 -2.0979
12683TIP3    H259465   5.344   0.180  15.273  1.7838 -0.3438 -1.0525
12684TIP3   OH259466   4.867   1.628   4.900  0.1079 -0.4532  0.8871
12684TIP3    H159467   4.889   1.564   4.833 -0.9962  0.2690 -0.2081
12684TIP3    H259468   4.813   1.580   4.962 -0.3259 -0.6967  0.3258
12685TIP3   OH259469   1.035   3.968   5.203 -0.0252  0.1707 -0.0978
12685TIP3    H159470   1.092   3.931   5.271  1.2027  1.5883 -0.2945
12685TIP3    H259471   1.022   3.896   5.141  0.6149 -0.5187  0.5424
12686TIP3   OH259472   2.783   6.582   3.306 -0.3166  0.8589 -0.1187
12686TIP3    H159473   2.699   6.539   3.320  0.7842 -0.8345  1.7325
12686TIP3    H259474   2.772   6.669   3.344 -1.0433  0.4089  0.7418
12687TIP3   OH259475   6.707   1.006   5.604  0.0763 -0.6558 -0.1171
12687TIP3    H159476   6.652   0.941   5.561 -1.0287 -0.6903  1.2661
12687TIP3    H259477   6.781   0.957   5.639  0.7820 -0.6826 -1.5814
12688TIP3   OH259478   4.073   1.057   0.937  0.2047  0.0399  0.2532
12688TIP3    H159479   4.065   1.102   1.022  0.4806 -1.5005  1.1377
12688TIP3    H259480   4.104   1.124   0.877  1.9264  0.7340  1.8238
12689TIP3   OH259481   4.456   4.095   3.857 -0.1090  0.1632 -0.3239
12689TIP3    H159482   4.491   4.162   3.916 -1.0355 -1.0439  1.6868
12689TIP3    H259483   4.366   4.080   3.887  0.2816 -2.4721 -0.1790
12690TIP3   OH259484   3.951   3.287   5.769  0.2598  0.6044  0.3741
12690TIP3    H159485   3.886   3.298   5.700  0.3187  3.0581  0.6217
12690TIP3    H259486   4.035   3.293   5.723  0.2966  0.2717  0.4018
12691TIP3   OH259487   0.834   6.176  16.652  0.5043 -0.2924 -0.0626
12691TIP3    H159488   0.867   6.242  16.591  1.2457 -1.2864 -0.7732
12691TIP3    H259489   0.742   6.165  16.626  0.6656 -0.3136 -0.6455
12692TIP3   OH259490   5.268   4.356   0.539  0.5369 -0.3770  0.3060
12692TIP3    H159491   5.362   4.371   0.547  0.4981  1.4326 -1.7639
12692TIP3    H259492   5.229   4.443   0.546 -0.7165 -0.7212 -1.6285
12693TIP3   OH259493   2.034   1.360  13.350  0.0895  0.4484 -0.2629
12693TIP3    H159494   2.054   1.332  13.440 -1.3854  1.8046  0.5397
12693TIP3    H259495   2.058   1.452  13.347  0.9486  0.2044 -1.5574
12694TIP3   OH259496   2.283   5.624   6.355  0.2470 -0.3313  0.0890
12694TIP3    H159497   2.316   5.699   6.404  0.7388 -1.2544  1.1951
12694TIP3    H259498   2.187   5.634   6.358  0.2416 -0.6760  1.7481
12695TIP3   OH259499   2.083   5.382   3.000 -0.4594 -0.4618 -0.0656
12695TIP3    H159500   2.047   5.388   3.089 -0.0988 -0.4097  0.0805
12695TIP3    H259501   2.173   5.414   3.009 -0.6289  0.1820 -0.5826
12696TIP3   OH259502   3.440   1.915   5.888  0.0457  0.2006 -0.4804
12696TIP3    H159503   3.432   1.902   5.983 -2.0641  1.7290 -0.3647
12696TIP3    H259504   3.438   1.827   5.851  3.4035 -0.6249  0.9363
12697TIP3   OH259505   1.388   0.460   2.403 -0.1693 -0.4576  0.2776
12697TIP3    H159506   1.377   0.415   2.487 -0.2702 -0.6583  0.1572
12697TIP3    H259507   1.466   0.421   2.364 -1.0982 -1.6212 -0.5115
12698TIP3   OH259508   2.768   1.087  13.243  0.6031  0.6146  0.5377
12698TIP3    H159509   2.781   1.000  13.279 -1.1660 -0.2810 -0.8353
12698TIP3    H259510   2.850   1.107  13.198  0.4881 -1.0305 -0.4720
12699TIP3   OH259511   5.233   3.987   1.763 -0.5097 -0.6040  0.8065
12699TIP3    H159512   5.168   4.037   1.813 -0.8072 -0.2698  0.0948
12699TIP3    H259513   5.215   3.896   1.785 -0.9487 -0.4854  0.9431
12700TIP3   OH259514   1.618   4.221  16.098  0.2300  0.5184  0.4513
12700TIP3    H159515   1.683   4.292  16.095 -0.5203  1.2442 -2.4165
12700TIP3    H259516   1.542   4.257  16.052  0.1373 -2.3655 -1.9921
12701TIP3   OH259517   1.388   1.925  15.805 -0.7902  0.5542  0.6818
12701TIP3    H159518   1.309   1.933  15.751 -0.4336  2.0975  0.3300
12701TIP3    H259519   1.460   1.933  15.742 -0.2759 -2.5397  0.7528
12702TIP3   OH259520   5.513   5.826  17.292 -0.2243 -0.3528  0.0607
12702TIP3    H159521   5.437   5.792  17.340 -0.4111  1.5752  1.2186
12702TIP3    H259522   5.575   5.753  17.291 -0.9048 -1.0010  1.7550
12703TIP3   OH259523   4.515   4.840   1.780  0.8101  0.0608 -0.3493
12703TIP3    H159524   4.448   4.779   1.751  1.5168 -0.8131 -0.2011
12703TIP3    H259525   4.584   4.784   1.816  1.9694  0.8790 -1.2224
12704TIP3   OH259526   2.513   0.750   5.174  0.0988 -0.3098  0.3738
12704TIP3    H159527   2.569   0.679   5.142 -0.4327 -0.5867  0.0377
12704TIP3    H259528   2.566   0.829   5.163 -0.0437 -0.4011 -1.1445
12705TIP3   OH259529   5.731   3.531   1.501 -0.1848 -0.3295 -0.0920
12705TIP3    H159530   5.738   3.527   1.406 -1.2327  1.3479 -0.2708
12705TIP3    H259531   5.640   3.507   1.519  0.0526 -0.7994  0.5116
12706TIP3   OH259532   4.160   4.205   3.262  0.0180 -0.1245  0.0167
12706TIP3    H159533   4.084   4.156   3.296 -0.3511  1.2868  1.3230
12706TIP3    H259534   4.157   4.190   3.168 -1.5456 -0.5981  0.1077
12707TIP3   OH259535   4.817   5.331   5.499  0.1223 -0.1456  0.0637
12707TIP3    H159536   4.785   5.285   5.577 -0.4561  0.6676  0.3146
12707TIP3    H259537   4.844   5.260   5.439 -2.3083 -0.8987 -0.2338
12708TIP3   OH259538   2.752   5.284  13.149 -0.1539 -0.2982 -0.3852
12708TIP3    H159539   2.796   5.335  13.217 -3.6210  1.5220  0.7192
12708TIP3    H259540   2.724   5.204  13.194 -0.2521 -0.2519 -0.3640
12709TIP3   OH259541   4.816   2.380  14.174  0.4085 -0.3689 -0.4918
12709TIP3    H159542   4.799   2.364  14.081 -0.0873  0.6387 -0.5876
12709TIP3    H259543   4.790   2.299  14.217 -1.2990 -0.1428 -1.0258
12710TIP3   OH259544   0.828   3.996   1.726  0.1060  0.1093  0.7939
12710TIP3    H159545   0.784   3.912   1.714 -0.6367  0.6037 -0.0551
12710TIP3    H259546   0.876   3.986   1.808  0.5668 -1.3689  0.3904
12711TIP3   OH259547   4.282   1.822   0.160  0.1723  0.4269  0.8569
12711TIP3    H159548   4.288   1.727   0.168  0.7630  0.2915 -0.7570
12711TIP3    H259549   4.263   1.852   0.249  3.2435 -0.9332  2.1112
12712TIP3   OH259550   1.254   3.741  14.812  0.0615  0.1851 -0.1202
12712TIP3    H159551   1.317   3.671  14.830 -0.4096 -0.4500 -0.8552
12712TIP3    H259552   1.305   3.809  14.767  0.9957  1.2909  2.4451
12713TIP3   OH259553   6.344   3.276   0.321 -0.9044  0.4304 -0.3325
12713TIP3    H159554   6.355   3.297   0.414  1.6413 -0.4384 -0.3431
12713TIP3    H259555   6.342   3.361   0.277 -1.0687  0.8243  0.4227
12714TIP3   OH259556   1.342   6.593   1.409 -0.0766  0.3621  0.2260
12714TIP3    H159557   1.346   6.612   1.315  0.8411  3.9026  0.8191
12714TIP3    H259558   1.381   6.506   1.419 -1.1186 -0.5421 -2.7086
12715TIP3   OH259559   5.882   4.289  13.906  0.1813 -0.5211  0.1444
12715TIP3    H159560   5.872   4.327  13.993  1.6267  0.8203 -0.2193
12715TIP3    H259561   5.940   4.214  13.919  3.0821  1.5167  0.0247
12716TIP3   OH259562   4.600   4.153   5.894  0.1820  0.1033 -0.4487
12716TIP3    H159563   4.511   4.178   5.871 -0.3691 -1.4657 -0.1494
12716TIP3    H259564   4.622   4.208   5.969 -1.3057 -0.8152  0.7220
12717TIP3   OH259565   5.989   2.339  16.887  0.1377  0.1799 -0.5990
12717TIP3    H159566   6.054   2.358  16.955  0.2211  0.4856 -0.7660
12717TIP3    H259567   5.925   2.409  16.895 -1.2439 -1.1724  0.8786
12718TIP3   OH259568   5.979   0.438  16.850 -0.2583 -0.2319 -0.3945
12718TIP3    H159569   5.884   0.447  16.849 -0.0844  2.6509 -1.0851
12718TIP3    H259570   6.001   0.400  16.765 -0.7800 -0.2094 -0.5402
12719TIP3   OH259571   4.999   1.822  14.943  0.2300 -0.3765  0.4386
12719TIP3    H159572   4.935   1.767  14.988 -1.6770  2.3308  1.2937
12719TIP3    H259573   5.075   1.822  15.001 -0.0484 -1.3981  0.8314
12720TIP3   OH259574   3.639   2.508   2.043 -0.1743 -0.2103 -0.2348
12720TIP3    H159575   3.684   2.451   1.981  0.6515 -0.8118  0.8877
12720TIP3    H259576   3.662   2.597   2.017 -1.7917 -0.3106 -2.2485
12721TIP3   OH259577   4.532   5.529   4.784 -0.7114  0.4652 -0.0997
12721TIP3    H159578   4.496   5.617   4.775 -0.4486  0.8136  1.8362
12721TIP3    H259579   4.610   5.540   4.839  0.4110 -0.7371 -1.3736
12722TIP3   OH259580   2.641   0.257   5.329  0.2640  0.4610  0.1174
12722TIP3    H159581   2.619   0.217   5.245 -2.1149  0.4812  0.6813
12722TIP3    H259582   2.574   0.324   5.343 -1.1293 -1.3576  3.2443
12723TIP3   OH259583   0.767   6.469   0.868  0.3008  0.4720 -0.2257
12723TIP3    H159584   0.847   6.520   0.882  0.5643  0.1007 -0.3344
12723TIP3    H259585   0.704   6.504   0.930  1.0051 -0.2173  0.9206
12724TIP3   OH259586   4.812   1.101   1.966 -0.1912 -0.7560  0.1308
12724TIP3    H159587   4.817   1.006   1.973  0.0295 -0.6141  3.3478
12724TIP3    H259588   4.894   1.127   1.925  1.3926 -1.8250  2.4241
12725TIP3   OH259589   2.985   4.720   5.831  0.6282 -0.1570 -0.2731
12725TIP3    H159590   3.044   4.644   5.834  1.8057  0.7543  0.3110
12725TIP3    H259591   2.916   4.699   5.893  2.2604  0.2801  1.7780
12726TIP3   OH259592   5.594   5.533  13.438  0.0686 -0.1102 -0.2757
12726TIP3    H159593   5.531   5.461  13.439  0.8274 -0.8156 -0.8522
12726TIP3    H259594   5.670   5.498  13.484  0.4662  0.3032 -0.6125
12727TIP3   OH259595   3.138   0.027   4.559  0.4458 -0.1085 -0.0735
12727TIP3    H159596   3.073   0.097   4.555  0.0734 -0.1567  3.0769
12727TIP3    H259597   3.141  -0.007   4.470  0.5557  3.7581 -1.7641
12728TIP3   OH259598   3.478   3.388  13.998 -0.2859  0.6416 -0.4335
12728TIP3    H159599   3.469   3.421  13.908  0.0332 -0.4912 -0.9042
12728TIP3    H259600   3.407   3.324  14.007 -0.5236  0.9901  0.2483
12729TIP3   OH259601   1.550   0.452  13.870  0.0810  0.0592  0.2065
12729TIP3    H159602   1.459   0.470  13.846  0.4086 -0.3120 -1.4530
12729TIP3    H259603   1.601   0.493  13.800  1.2096  0.4550  1.2336
12730TIP3   OH259604   0.909   3.833   2.196  0.7475 -0.7036 -0.0167
12730TIP3    H159605   0.937   3.741   2.201 -0.3483 -1.0538  0.1138
12730TIP3    H259606   0.987   3.883   2.217  1.9655 -1.5232 -2.2652
12731TIP3   OH259607   3.834   5.561   3.887  0.2378 -0.1110 -0.1735
12731TIP3    H159608   3.858   5.572   3.795  1.1889 -3.4222 -0.4609
12731TIP3    H259609   3.784   5.640   3.908  1.2778  1.4805 -3.0508
12732TIP3   OH259610   2.664   5.244  15.893  0.1867  0.2199  0.5131
12732TIP3    H159611   2.752   5.229  15.926  0.2785  0.3725  0.3364
12732TIP3    H259612   2.662   5.201  15.808  1.0938  2.8520 -0.9466
12733TIP3   OH259613   5.611   5.609  14.729 -0.2804 -0.0477  0.1883
12733TIP3    H159614   5.522   5.620  14.762 -1.0302  0.5254 -1.8668
12733TIP3    H259615   5.642   5.698  14.713 -0.1803 -0.2998 -1.1452
12734TIP3   OH259616   1.497   0.649   2.620 -0.2971  0.8311 -0.1630
12734TIP3    H159617   1.528   0.559   2.613 -2.2540  0.1320 -0.2141
12734TIP3    H259618   1.486   0.678   2.529  0.1110  1.0761 -0.1424
12735TIP3   OH259619   4.742   5.822  16.648  0.2171 -0.2058 -0.1360
12735TIP3    H159620   4.702   5.863  16.725 -2.5286 -1.1983 -0.9087
12735TIP3    H259621   4.789   5.747  16.682 -1.4674 -0.9878  0.5861
12736TIP3   OH259622   0.045   4.799   1.490  0.1885  0.1913 -0.1475
12736TIP3    H159623  -0.036   4.828   1.448 -0.3677 -1.6895 -0.5086
12736TIP3    H259624   0.018   4.771   1.578  0.6878  0.7121  0.1809
12737TIP3   OH259625   2.231   2.072  14.916 -0.1727  0.1361  0.1137
12737TIP3    H159626   2.275   2.087  14.832 -0.1372 -1.2102 -0.1374
12737TIP3    H259627   2.242   2.154  14.964  0.4458  0.6783 -0.9105
12738TIP3   OH259628   1.854   0.384   1.738  0.8518  0.0491 -0.2112
12738TIP3    H159629   1.877   0.411   1.648 -2.2096  0.0653 -1.1138
12738TIP3    H259630   1.889   0.295   1.746  1.0646 -0.0057 -1.4780
12739TIP3   OH259631   4.828   3.470   0.548  0.2808 -0.5756 -0.0517
12739TIP3    H159632   4.847   3.467   0.454  0.6744 -0.9915  0.0394
12739TIP3    H259633   4.833   3.563   0.570  0.5214 -0.5106 -0.3727
12740TIP3   OH259634   5.802   3.747  16.254  0.1948 -0.6288  0.5642
12740TIP3    H159635   5.882   3.774  16.299 -0.8365  0.3093  1.9108
12740TIP3    H259636   5.764   3.679  16.311 -0.6061 -0.1612  0.5940
12741TIP3   OH259637   1.444   6.621   0.609 -0.1105  0.0224 -0.2695
12741TIP3    H159638   1.463   6.634   0.516  2.0585 -1.7490 -0.1552
12741TIP3    H259639   1.500   6.685   0.653 -0.3492  0.1473 -0.1494
12742TIP3   OH259640   5.969   0.564   6.347  0.2002 -0.0234  0.1592
12742TIP3    H159641   5.906   0.531   6.411  0.6868 -0.3211  0.4926
12742TIP3    H259642   6.010   0.639   6.391  0.4955 -0.1948  0.1849
12743TIP3   OH259643   1.539   0.748   1.172 -0.0553  0.2422  0.5479
12743TIP3    H159644   1.504   0.789   1.251 -0.3101  0.9493  0.0772
12743TIP3    H259645   1.597   0.815   1.134 -1.1127  0.5155 -0.6701
12744TIP3   OH259646   6.574   6.314  13.074 -0.2343  0.0522  0.8394
12744TIP3    H159647   6.512   6.309  13.146  0.3942 -0.6065  1.3465
12744TIP3    H259648   6.624   6.232  13.079 -0.4423 -0.1889 -0.5816
12745TIP3   OH259649   2.048   0.009  14.191 -0.0576 -0.7422 -0.4879
12745TIP3    H159650   2.082   0.056  14.115 -0.6784  0.5957  0.0313
12745TIP3    H259651   2.120   0.009  14.254 -0.4921  0.8202  0.0574
12746TIP3   OH259652   6.119   3.490   6.756 -0.2500 -1.1385 -0.0524
12746TIP3    H159653   6.179   3.556   6.792  1.0451 -1.7252 -1.0419
12746TIP3    H259654   6.074   3.454   6.833  1.7087 -1.6624  0.9318
12747TIP3   OH259655   5.297   2.637  17.155 -0.3190 -0.2653 -0.0691
12747TIP3    H159656   5.265   2.592  17.234  3.0938 -1.3744  0.8480
12747TIP3    H259657   5.276   2.576  17.084 -2.6630  0.3574 -0.0053
12748TIP3   OH259658   1.614   4.081  16.363 -0.5630  0.3493 -0.2434
12748TIP3    H159659   1.589   4.004  16.311 -0.4006  0.7007 -0.8531
12748TIP3    H259660   1.622   4.151  16.299  4.1576 -0.1663 -0.5341
12749TIP3   OH259661   3.397   5.453  14.323  0.5691 -0.2569 -0.0557
12749TIP3    H159662   3.434   5.393  14.388 -0.9958  0.1586  1.3067
12749TIP3    H259663   3.306   5.423  14.313  0.4037  0.5355 -1.0243
12750TIP3   OH259664   1.403   0.247  14.201  0.3552  0.2160 -0.5869
12750TIP3    H159665   1.447   0.190  14.265 -0.8724 -1.0278 -0.8099
12750TIP3    H259666   1.462   0.248  14.126  1.2429  0.7157  0.0990
12751TIP3   OH259667   3.315   2.152   0.393  0.2309 -0.5595 -0.3711
12751TIP3    H159668   3.376   2.086   0.427 -0.4254  0.0758  2.1758
12751TIP3    H259669   3.303   2.127   0.301  1.7742 -2.6165 -0.0897
12752TIP3   OH259670   4.190   2.725   5.235  0.0906 -0.1503  0.0018
12752TIP3    H159671   4.273   2.680   5.217  2.1029  2.9749  0.5970
12752TIP3    H259672   4.169   2.769   5.153 -0.0048  0.4660  0.3544
12753TIP3   OH259673   5.895   5.267   0.777  0.3331  0.4435  0.2568
12753TIP3    H159674   5.814   5.313   0.799 -1.2134 -0.6889 -2.5244
12753TIP3    H259675   5.963   5.334   0.784 -0.5798  1.1979  3.6107
12754TIP3   OH259676   5.346   3.170  13.290 -0.4024 -0.6079  0.1165
12754TIP3    H159677   5.414   3.180  13.356 -1.2837 -0.8786  1.0879
12754TIP3    H259678   5.383   3.107  13.227  0.5229 -0.1839  0.2123
12755TIP3   OH259679   1.990   5.132  13.496 -0.2851  0.0783 -0.0993
12755TIP3    H159680   1.931   5.202  13.471 -0.4168  0.4294  1.1657
12755TIP3    H259681   1.939   5.052  13.485 -0.6682  0.3048  0.0427
12756TIP3   OH259682   1.583   4.627   5.976  0.0779 -0.3223 -0.2378
12756TIP3    H159683   1.498   4.655   5.942  0.4043 -0.2010 -0.9756
12756TIP3    H259684   1.562   4.563   6.045 -0.6212  0.2569  0.0997
12757TIP3   OH259685   1.025   4.868   1.026 -0.1839 -0.0200  0.3278
12757TIP3    H159686   1.031   4.962   1.008  0.8772  0.3223  2.1533
12757TIP3    H259687   0.935   4.856   1.058 -0.0375  0.5914  1.0144
12758TIP3   OH259688   1.417   0.970  13.725  0.0041  0.0626 -0.2673
12758TIP3    H159689   1.396   0.886  13.765 -0.6570  0.0440 -0.6465
12758TIP3    H259690   1.430   0.950  13.633  0.3728  0.2958 -0.2693
12759TIP3   OH259691   6.385   0.344  12.383 -0.2345  0.3705  0.5076
12759TIP3    H159692   6.298   0.304  12.376  0.2929 -1.2622  2.4647
12759TIP3    H259693   6.445   0.270  12.390  1.3640  1.4665 -0.7556
12760TIP3   OH259694   5.212   1.974   1.561 -0.0390  0.4026  0.2583
12760TIP3    H159695   5.264   2.044   1.522  0.9358  0.2580  1.2477
12760TIP3    H259696   5.186   1.919   1.487  0.9705  0.6478 -0.2919
12761TIP3   OH259697   2.468   3.264  16.697 -0.6238  0.0705  0.1609
12761TIP3    H159698   2.497   3.237  16.610 -0.2303 -2.5769  1.0276
12761TIP3    H259699   2.374   3.247  16.698 -0.7454  0.6863  0.0936
12762TIP3   OH259700   1.258   4.740  13.716 -0.0449  0.5573 -0.7794
12762TIP3    H159701   1.178   4.792  13.708  0.3077  0.9375 -2.2049
12762TIP3    H259702   1.276   4.710  13.627  2.0743  1.5497 -0.7672
12763TIP3   OH259703   1.342   6.377   5.306 -0.5099 -0.2137  0.3903
12763TIP3    H159704   1.364   6.447   5.367 -0.8361 -0.6696  1.0399
12763TIP3    H259705   1.393   6.397   5.227 -0.4614  0.6453  0.6323
12764TIP3   OH259706   4.455   6.748  11.789  0.1514  0.4212  0.2061
12764TIP3    H159707   4.409   6.803  11.853 -0.9846  0.9716 -1.0330
12764TIP3    H259708   4.519   6.807  11.748  0.2930  0.2971  0.2493
12765TIP3   OH259709   6.074   5.652   2.999  0.1904  0.4902 -0.6103
12765TIP3    H159710   6.112   5.737   2.977  2.5423 -0.2559  0.2757
12765TIP3    H259711   6.050   5.659   3.091  2.1674 -0.3158  0.0308
12766TIP3   OH259712   6.529   1.679   0.223  0.1078  0.0177  0.3209
12766TIP3    H159713   6.522   1.748   0.157  2.5340 -0.2695 -0.3330
12766TIP3    H259714   6.591   1.617   0.186  0.3752 -0.9304  2.2323
12767TIP3   OH259715   1.878   5.619   3.519  0.6857 -0.0553 -0.4804
12767TIP3    H159716   1.811   5.627   3.587  1.8801 -1.7167  1.0270
12767TIP3    H259717   1.846   5.671   3.446 -0.9678  1.3248  1.1372
12768TIP3   OH259718   2.519   1.497  11.846 -0.2850  0.3322  0.1195
12768TIP3    H159719   2.479   1.577  11.879 -0.5715  0.1275  0.2674
12768TIP3    H259720   2.611   1.521  11.832 -0.0549  0.3070  1.4556
12769TIP3   OH259721   5.262   5.373  16.377  0.0297 -0.3161  0.2856
12769TIP3    H159722   5.239   5.380  16.470 -2.6050 -0.6997 -0.2723
12769TIP3    H259723   5.315   5.452  16.360  0.6260 -0.2655  2.0782
12770TIP3   OH259724   4.809   6.706   1.584  0.1642  0.5551  0.0394
12770TIP3    H159725   4.836   6.639   1.647  0.2300 -0.6078 -1.1741
12770TIP3    H259726   4.772   6.776   1.638  0.9298 -0.0422  1.4089
12771TIP3   OH259727   1.164   6.226  17.153  0.1620  0.2702  0.0975
12771TIP3    H159728   1.091   6.238  17.215  0.4776 -0.1465  0.5609
12771TIP3    H259729   1.224   6.168  17.199  0.2845 -0.2466 -0.7124
12772TIP3   OH259730   6.231   3.778   2.745  0.4918 -0.4644  0.5892
12772TIP3    H159731   6.240   3.684   2.761  0.0377 -0.9370 -1.6420
12772TIP3    H259732   6.149   3.787   2.698 -0.4767  1.3401  2.4448
12773TIP3   OH259733   3.403   4.018  15.122 -0.6459 -0.2111  0.3632
12773TIP3    H159734   3.431   4.088  15.181  0.9274 -0.8523  0.4256
12773TIP3    H259735   3.387   3.943  15.179 -1.9414 -0.0520  0.2497
12774TIP3   OH259736   5.690   0.850  14.446 -0.1772 -0.3946  0.4517
12774TIP3    H159737   5.721   0.922  14.391  1.2998 -1.4359 -0.1404
12774TIP3    H259738   5.686   0.887  14.534 -1.7497  1.0629 -0.1730
12775TIP3   OH259739   3.165   5.018  16.188  0.4540 -0.2500 -0.4687
12775TIP3    H159740   3.241   4.987  16.140  0.8860  0.3473 -0.1795
12775TIP3    H259741   3.103   5.045  16.121  0.6490 -0.3773 -0.6993
12776TIP3   OH259742   2.253   3.107  17.121 -0.0763  0.1912 -0.0066
12776TIP3    H159743   2.347   3.121  17.108 -0.4436  2.5925 -0.4899
12776TIP3    H259744   2.244   3.012  17.127  2.5728 -0.0651  1.5846
12777TIP3   OH259745   0.550   5.171  13.849  0.3162 -0.0718  0.5230
12777TIP3    H159746   0.559   5.086  13.892 -0.9580 -0.2887  0.4012
12777TIP3    H259747   0.529   5.232  13.920  0.4254 -0.0054  0.4985
12778TIP3   OH259748   4.549   5.743  11.275  0.2787 -0.4018  0.5025
12778TIP3    H159749   4.530   5.693  11.195  2.4226  1.1058 -1.0661
12778TIP3    H259750   4.613   5.689  11.322 -0.3968 -0.9230  0.8506
12779TIP3   OH259751   4.426   6.730  14.077 -0.5996  0.0789 -0.8213
12779TIP3    H159752   4.406   6.814  14.119 -0.0988 -0.1646 -0.0905
12779TIP3    H259753   4.341   6.686  14.070 -0.7353  0.2667 -0.3807
12780TIP3   OH259754   3.530   0.263   3.508 -0.1581 -0.7623  0.1299
12780TIP3    H159755   3.456   0.318   3.536 -0.6528 -0.7021 -1.1984
12780TIP3    H259756   3.492   0.176   3.497 -0.0736 -0.7073 -0.6695
12781TIP3   OH259757   1.807   1.180  10.461  0.2153  0.1655 -0.2102
12781TIP3    H159758   1.895   1.163  10.494  0.2134  1.1060  0.3227
12781TIP3    H259759   1.753   1.111  10.498  0.5511  0.1555  0.2698
12782TIP3   OH259760   3.757   2.068   0.752 -0.7889 -0.2535 -0.1168
12782TIP3    H159761   3.778   1.978   0.775 -1.7284 -0.5103 -0.2377
12782TIP3    H259762   3.839   2.103   0.717 -0.0382 -0.6403  1.1675
12783TIP3   OH259763   2.613   0.367  14.026 -0.3301  0.0486  0.3291
12783TIP3    H159764   2.632   0.344  14.117  1.2159  1.4728  0.4100
12783TIP3    H259765   2.522   0.340  14.014 -0.4606 -0.5217  2.1730
12784TIP3   OH259766   0.196   1.326  10.714  0.1178 -0.2546 -0.2303
12784TIP3    H159767   0.205   1.405  10.660 -1.9255 -0.2839 -0.6885
12784TIP3    H259768   0.236   1.349  10.798  3.0158 -0.0680 -1.5327
12785TIP3   OH259769   4.538   4.479  11.129 -0.1602  0.3735 -0.5829
12785TIP3    H159770   4.557   4.449  11.218 -0.4784 -2.0478 -1.2654
12785TIP3    H259771   4.617   4.457  11.079 -0.6799  0.0271 -1.2647
12786TIP3   OH259772   1.795   1.454   5.503 -0.2727  0.4516 -0.3171
12786TIP3    H159773   1.742   1.374   5.497  0.9294 -0.4407  0.3626
12786TIP3    H259774   1.870   1.428   5.557  0.1293  2.0637 -0.0536
12787TIP3   OH259775   6.467   2.060   0.915  0.2961  0.3275  0.2156
12787TIP3    H159776   6.510   2.122   0.857  1.4063  0.4844  1.1606
12787TIP3    H259777   6.481   2.096   1.003 -1.7203  0.3334  0.5774
12788TIP3   OH259778   1.477   2.751   5.877 -0.6263 -0.4265 -0.0983
12788TIP3    H159779   1.440   2.824   5.927 -0.9818 -0.1823 -0.7169
12788TIP3    H259780   1.551   2.721   5.931  1.5248  2.3827 -1.2246
12789TIP3   OH259781   2.984   6.329   2.543  0.1127 -0.6256  0.0162
12789TIP3    H159782   2.928   6.262   2.583  0.3681 -0.3121  0.9414
12789TIP3    H259783   3.065   6.283   2.522 -1.3042 -1.7793 -3.8623
12790TIP3   OH259784   5.934   1.979   4.192  0.0145 -0.1459 -0.4432
12790TIP3    H159785   5.918   2.030   4.271 -2.6014 -2.0180  0.3797
12790TIP3    H259786   5.937   1.888   4.222 -1.5962 -0.9676 -2.4911
12791TIP3   OH259787   4.255   2.167  15.712  0.3133  0.0249  0.2485
12791TIP3    H159788   4.300   2.101  15.660 -1.1548 -0.1461 -0.8952
12791TIP3    H259789   4.226   2.121  15.790 -0.9167 -0.8186 -0.6521
12792TIP3   OH259790   5.884   6.725  15.251  0.3693 -0.1449  0.0489
12792TIP3    H159791   5.842   6.794  15.302  1.1387  0.4590 -0.1307
12792TIP3    H259792   5.961   6.766  15.213  1.2429 -1.2956  0.5288
12793TIP3   OH259793   0.322   5.776  11.951  0.2956 -0.5496 -0.3827
12793TIP3    H159794   0.247   5.816  11.994 -0.1210  0.4051 -1.9227
12793TIP3    H259795   0.398   5.810  11.998 -0.1326  0.5670 -0.4896
12794TIP3   OH259796   1.997   4.962   4.864  0.4206  0.2483  0.5511
12794TIP3    H159797   1.956   5.023   4.803 -1.4333 -0.7941  0.6756
12794TIP3    H259798   1.973   4.994   4.951  0.5424  0.0499  0.6587
12795TIP3   OH259799   1.889   2.821   5.654  0.3684  0.3515 -0.3180
12795TIP3    H159800   1.957   2.802   5.718 -0.4367 -0.7983  0.2216
12795TIP3    H259801   1.932   2.810   5.569  0.5820 -1.5042  0.0021
12796TIP3   OH259802   3.787   0.272  15.088  0.1304 -0.3216  0.4053
12796TIP3    H159803   3.835   0.211  15.144  1.5872 -1.7623 -2.2156
12796TIP3    H259804   3.852   0.302  15.024 -1.3632  1.4627 -0.3635
12797TIP3   OH259805   4.044   3.962  13.269 -0.7956 -0.1793 -0.0895
12797TIP3    H159806   3.982   4.000  13.331  1.2154  3.7958 -0.2264
12797TIP3    H259807   4.120   3.937  13.322 -0.6803 -0.6585 -0.4705
12798TIP3   OH259808   4.300   2.349  16.146 -0.1044  0.2560  0.4419
12798TIP3    H159809   4.264   2.388  16.226 -1.1537  0.1619  0.0259
12798TIP3    H259810   4.240   2.376  16.077 -0.0527 -0.9247 -0.0820
12799TIP3   OH259811   1.519   3.245  14.991  0.2011  0.1539 -0.6949
12799TIP3    H159812   1.500   3.229  15.083 -1.8817  1.0780 -0.9028
12799TIP3    H259813   1.551   3.162  14.958 -1.4906 -0.9579  0.3050
12800TIP3   OH259814   2.971   4.523   5.268  0.0570 -0.1163  0.1709
12800TIP3    H159815   2.937   4.609   5.294  1.1845  0.9199 -1.5448
12800TIP3    H259816   3.062   4.523   5.295  0.1265 -0.6901 -0.0459
12801TIP3   OH259817   5.888   4.242  14.412  0.1913  0.4011 -0.4423
12801TIP3    H159818   5.880   4.302  14.486  2.4629  0.3315 -0.0914
12801TIP3    H259819   5.861   4.294  14.336  3.2016  2.3413 -0.3189
12802TIP3   OH259820   0.966   3.879  13.827  0.3141 -0.5780 -0.4245
12802TIP3    H159821   0.893   3.840  13.875  1.4050 -1.2852  0.7312
12802TIP3    H259822   0.928   3.909  13.744 -0.9112 -2.6655 -0.6916
12803TIP3   OH259823   0.867   1.678  14.030  0.3820 -0.5530  0.4887
12803TIP3    H159824   0.917   1.757  14.052  1.3947 -0.9301 -0.4048
12803TIP3    H259825   0.877   1.622  14.107 -0.1871  0.1027  1.0517
12804TIP3   OH259826   0.773   2.414   1.491  0.9186 -0.4168  0.2773
12804TIP3    H159827   0.745   2.352   1.557 -0.1038  1.8291  2.0952
12804TIP3    H259828   0.694   2.464   1.469  1.9207  1.0751 -0.1542
12805TIP3   OH259829   5.038   4.615  15.520  0.5215 -0.2004  0.6420
12805TIP3    H159830   5.019   4.630  15.613  1.1087  0.1589  0.7085
12805TIP3    H259831   5.083   4.531  15.518 -0.8403 -0.9542  0.5061
12806TIP3   OH259832   4.889   4.714  12.453 -0.3203  0.3273  0.2995
12806TIP3    H159833   4.856   4.660  12.381 -1.4593  1.2322  0.1113
12806TIP3    H259834   4.904   4.800  12.414 -1.8192  1.0910  1.2943
12807TIP3   OH259835   6.217   1.678  16.805 -0.5997 -0.2509  0.3514
12807TIP3    H159836   6.195   1.600  16.754 -1.5243  0.6755 -0.7176
12807TIP3    H259837   6.271   1.731  16.746 -3.2389  1.7144 -0.4861
12808TIP3   OH259838   4.765   5.876  14.076  0.6898  0.4540  0.0105
12808TIP3    H159839   4.834   5.938  14.053  2.6554 -1.3992  0.5290
12808TIP3    H259840   4.811   5.793  14.091 -1.8941 -1.4941 -1.7898
12809TIP3   OH259841   0.906   3.383  15.315 -0.4392  0.2890  0.6285
12809TIP3    H159842   1.001   3.393  15.318 -0.3998  0.0067  0.3981
12809TIP3    H259843   0.872   3.469  15.289 -0.1981  0.1754 -0.0789
12810TIP3   OH259844   0.413   3.481  14.114  0.6342 -0.5232  0.0429
12810TIP3    H159845   0.343   3.454  14.054 -0.9505  0.7525  1.2336
12810TIP3    H259846   0.428   3.573  14.094 -0.9509  0.3416  2.4895
12811TIP3   OH259847   0.953   0.328  11.139 -0.2662  0.1781  0.5934
12811TIP3    H159848   0.903   0.378  11.204  0.6292  1.1018  0.5824
12811TIP3    H259849   0.889   0.266  11.103 -1.6357  1.8703  0.0029
12812TIP3   OH259850   3.414   2.544  17.298  0.0925  0.0636 -0.2103
12812TIP3    H159851   3.393   2.605  17.227 -0.4592 -0.9357 -0.9325
12812TIP3    H259852   3.340   2.550  17.358  1.3304  2.1775  1.2227
12813TIP3   OH259853   2.288   4.023   4.660  0.3723 -0.0918  0.6079
12813TIP3    H159854   2.239   4.023   4.742  2.3188 -0.1900  1.8454
12813TIP3    H259855   2.271   3.936   4.622 -0.7653  0.0571  0.7328
12814TIP3   OH259856   5.822   5.387   5.822  0.1255  0.7232  0.2871
12814TIP3    H159857   5.788   5.451   5.760  1.1234  1.0101  0.0172
12814TIP3    H259858   5.913   5.374   5.795  0.2080 -0.0923  0.9263
12815TIP3   OH259859   2.341   5.869  15.860  0.1704  0.0452  0.3915
12815TIP3    H159860   2.406   5.816  15.814 -1.8268 -2.6127  0.3441
12815TIP3    H259861   2.291   5.911  15.789  1.4468  1.6898  0.4172
12816TIP3   OH259862   4.533   3.044   3.799 -0.1822  0.3241 -0.2712
12816TIP3    H159863   4.507   3.116   3.857  1.2825  1.2191 -0.6620
12816TIP3    H259864   4.523   3.079   3.711  0.3955  0.0120 -0.4704
12817TIP3   OH259865   3.519   3.830   1.619 -0.1476  0.2941  0.1291
12817TIP3    H159866   3.482   3.812   1.533 -1.0589  0.3026  0.5090
12817TIP3    H259867   3.614   3.822   1.607 -0.3386 -1.2495 -0.5181
12818TIP3   OH259868   4.337   2.530  16.936  0.6272 -0.4497  0.4431
12818TIP3    H159869   4.425   2.497  16.918  0.3828 -1.6460  1.2899
12818TIP3    H259870   4.308   2.569  16.853  2.3649  1.0082  0.4526
12819TIP3   OH259871   3.971   5.978   2.392  0.4805  0.1194 -0.2958
12819TIP3    H159872   4.026   6.037   2.340 -1.7801  2.0367 -0.6759
12819TIP3    H259873   4.026   5.901   2.407  2.3898  0.9062 -2.6526
12820TIP3   OH259874   0.619   0.137  13.307 -0.5407 -0.6081 -0.2817
12820TIP3    H159875   0.572   0.189  13.372 -0.2650 -0.1050 -0.4790
12820TIP3    H259876   0.692   0.099  13.355 -1.8896 -2.5525  0.3770
12821TIP3   OH259877   2.211   2.473  13.755  0.4085  0.5843  0.2869
12821TIP3    H159878   2.198   2.404  13.820  1.5482  0.2090  0.1382
12821TIP3    H259879   2.145   2.455  13.687  0.3952 -0.0764  0.4728
12822TIP3   OH259880   3.308   3.391  12.464 -0.6099  0.0638  0.4716
12822TIP3    H159881   3.313   3.428  12.553  0.5631  1.2099 -0.0316
12822TIP3    H259882   3.310   3.467  12.407  0.9457 -0.7262 -0.5921
12823TIP3   OH259883   0.690   5.155  15.056 -0.4515 -0.3411  0.6106
12823TIP3    H159884   0.710   5.069  15.019 -1.3610 -0.5771  0.6528
12823TIP3    H259885   0.696   5.215  14.982 -0.1575 -0.4872  0.5134
12824TIP3   OH259886   5.955   5.379   3.080  0.2663 -0.0689 -0.4251
12824TIP3    H159887   5.995   5.464   3.063 -1.2876  0.6681 -0.5689
12824TIP3    H259888   5.883   5.397   3.141  1.0922 -1.5818  1.0910
12825TIP3   OH259889   2.307   1.255  14.164 -0.0880  0.6702  0.3444
12825TIP3    H159890   2.348   1.289  14.243 -0.4510 -0.3041  0.9603
12825TIP3    H259891   2.322   1.161  14.167 -1.3079  0.4430 -0.0326
12826TIP3   OH259892   0.454   4.196  13.565 -0.4062  0.4299 -0.1558
12826TIP3    H159893   0.543   4.168  13.546  0.2948  2.6636 -0.3713
12826TIP3    H259894   0.464   4.269  13.626 -1.8489  2.9516 -2.7316
12827TIP3   OH259895   3.276   5.577   5.816 -0.3042  0.9545  0.3713
12827TIP3    H159896   3.254   5.537   5.900 -0.7917  1.3074  0.4121
12827TIP3    H259897   3.191   5.599   5.777 -0.0983  0.5498 -0.3319
12828TIP3   OH259898   4.836   1.535  14.974 -0.2433 -0.5121  0.3937
12828TIP3    H159899   4.806   1.451  14.940  0.3987 -0.3703 -0.5761
12828TIP3    H259900   4.931   1.535  14.958  0.0345 -0.2730  1.8770
12829TIP3   OH259901   3.104   4.891   1.985  0.0497  0.1795  0.6868
12829TIP3    H159902   3.056   4.945   2.047  1.8955  2.2927  0.4192
12829TIP3    H259903   3.040   4.873   1.915 -1.0451  0.7858  1.4919
12830TIP3   OH259904   2.138   5.422  12.581 -0.5818 -0.0938 -0.3871
12830TIP3    H159905   2.192   5.365  12.636  0.5656  0.2706 -1.1170
12830TIP3    H259906   2.062   5.367  12.558 -0.2734 -0.7924  0.2011
12831TIP3   OH259907   6.285   3.310   3.257  0.0452 -0.0406  0.2581
12831TIP3    H159908   6.371   3.348   3.239  0.3816  0.0320  1.8534
12831TIP3    H259909   6.224   3.382   3.245  0.6174  0.9475  2.6969
12832TIP3   OH259910   3.019   1.154  12.459 -0.1893 -0.1056  0.5685
12832TIP3    H159911   3.112   1.163  12.476  0.0857  0.5160 -1.0764
12832TIP3    H259912   2.977   1.206  12.527  0.7584  1.1364  0.2361
12833TIP3   OH259913   3.444   3.970   5.943  0.1294  0.1108 -0.0313
12833TIP3    H159914   3.475   4.060   5.934  0.6564 -0.2820 -3.2193
12833TIP3    H259915   3.522   3.917   5.932 -0.2472 -0.7902  1.4028
12834TIP3   OH259916   5.307   3.663  12.138 -0.0293  0.6932 -0.4736
12834TIP3    H159917   5.347   3.615  12.211 -0.3196 -0.3408 -0.9808
12834TIP3    H259918   5.381   3.698  12.089  0.1841  0.8539 -0.0476
12835TIP3   OH259919   2.459   3.337   4.129 -0.3300  0.1028 -0.1820
12835TIP3    H159920   2.495   3.249   4.124  1.9862  0.9508  0.2387
12835TIP3    H259921   2.502   3.376   4.205 -0.4476  1.9600 -1.0120
12836TIP3   OH259922   2.075   6.276  14.349 -0.2479  0.4176 -0.1326
12836TIP3    H159923   2.049   6.214  14.416 -0.5326  0.0290 -0.5940
12836TIP3    H259924   2.116   6.222  14.281 -0.2339  0.7693 -0.4082
12837TIP3   OH259925   2.023   1.361  14.739 -0.4071  0.3534 -0.6508
12837TIP3    H159926   1.946   1.313  14.770  1.6776 -2.5336  0.3984
12837TIP3    H259927   2.025   1.439  14.795 -1.2942 -0.6810  0.9078
12838TIP3   OH259928   3.455   1.745  16.063  0.7199 -0.4073 -0.0530
12838TIP3    H159929   3.362   1.731  16.046  0.5867  0.7692 -0.3953
12838TIP3    H259930   3.497   1.664  16.033 -0.2507 -1.2872  0.8526
12839TIP3   OH259931   4.876   0.254  14.780  0.2075 -0.2934  0.1903
12839TIP3    H159932   4.971   0.255  14.793  0.3602 -2.3295 -0.4988
12839TIP3    H259933   4.849   0.345  14.794  1.9721 -0.0184  2.4144
12840TIP3   OH259934   4.327   6.640   0.106  0.0136  0.0022  0.3002
12840TIP3    H159935   4.284   6.711   0.154  0.4394  0.3317  0.2085
12840TIP3    H259936   4.413   6.633   0.147  0.6707  0.7904 -0.8629
12841TIP3   OH259937   0.029   2.915   0.780 -0.0833  0.0209  0.8845
12841TIP3    H159938   0.103   2.961   0.739  0.5088 -0.8365  0.9597
12841TIP3    H259939   0.051   2.822   0.770 -0.9781 -0.2325  1.2453
12842TIP3   OH259940   1.391   5.455   5.761 -0.0201 -0.0832 -0.3654
12842TIP3    H159941   1.471   5.410   5.791  0.0485  0.4704  0.3189
12842TIP3    H259942   1.421   5.514   5.692  0.1898  0.2151 -0.0230
12843TIP3   OH259943   4.012   1.232   2.291  0.0242  0.0892  0.3673
12843TIP3    H159944   4.080   1.299   2.298 -1.1164  1.2504  0.9878
12843TIP3    H259945   4.011   1.189   2.376 -0.6200  0.7336  0.7062
12844TIP3   OH259946   1.622   1.568  12.588  0.2798  0.2803  0.1928
12844TIP3    H159947   1.710   1.597  12.610  0.2248 -1.0773  2.4740
12844TIP3    H259948   1.625   1.473  12.600 -1.4150  0.1789 -0.0077
12845TIP3   OH259949   1.567   4.996   5.394  0.1486 -0.2039 -0.3958
12845TIP3    H159950   1.653   4.954   5.385  0.5012 -0.2316  2.1361
12845TIP3    H259951   1.587   5.088   5.411 -0.2478 -0.3079  0.7461
12846TIP3   OH259952   4.585   0.754   3.393 -0.2333  0.0869 -0.0611
12846TIP3    H159953   4.587   0.761   3.297 -0.3895 -1.0427 -0.1514
12846TIP3    H259954   4.669   0.788   3.421  0.0768 -0.1847 -0.6467
12847TIP3   OH259955   4.082   4.283  12.135  0.2199  0.3591  0.4386
12847TIP3    H159956   4.030   4.226  12.192 -1.5516  0.9303 -0.5049
12847TIP3    H259957   4.029   4.362  12.126  1.2032  0.9162 -0.7256
12848TIP3   OH259958   6.703   6.338   0.091  0.0040  0.0590 -0.5697
12848TIP3    H159959   6.646   6.315   0.017  1.2327 -0.3444 -1.4298
12848TIP3    H259960   6.677   6.278   0.160 -0.0709 -0.6777 -1.2198
12849TIP3   OH259961   6.250   4.971   0.245 -0.0794 -0.2900  0.1781
12849TIP3    H159962   6.202   4.915   0.307 -0.9860  0.5197  0.2375
12849TIP3    H259963   6.184   5.034   0.214  0.8682  0.6500  0.0134
12850TIP3   OH259964   0.372   0.279  16.537 -0.1048 -0.1151  0.2036
12850TIP3    H159965   0.369   0.194  16.581  1.1582 -0.0243  0.4821
12850TIP3    H259966   0.364   0.343  16.608 -0.7643  0.0176  0.0197
12851TIP3   OH259967   5.914   3.800  11.892 -0.2743  0.2657  0.6737
12851TIP3    H159968   5.982   3.764  11.834 -1.6981  0.6170 -1.3011
12851TIP3    H259969   5.868   3.723  11.926  1.3389 -0.0066  2.4424
12852TIP3   OH259970   4.301   2.852   2.801  0.3647 -0.2633 -0.3828
12852TIP3    H159971   4.301   2.759   2.778  0.9005 -0.0856 -1.1553
12852TIP3    H259972   4.335   2.896   2.723 -0.9477  0.6881 -0.4392
12853TIP3   OH259973   2.013   1.496   2.203 -0.3438  0.3337  0.3316
12853TIP3    H159974   1.958   1.483   2.280 -2.0888  1.4044 -0.6842
12853TIP3    H259975   1.981   1.431   2.140  0.7480 -0.2022  0.2953
12854TIP3   OH259976   0.907   2.723  11.781  0.6524  0.0079 -0.3448
12854TIP3    H159977   0.877   2.814  11.781  1.0682  0.1500  0.0813
12854TIP3    H259978   0.900   2.696  11.690  3.0254  1.3146 -1.0049
12855TIP3   OH259979   2.384   2.081   2.065  0.1616  0.3925 -0.1471
12855TIP3    H159980   2.327   2.137   2.012  1.1788  1.0011 -0.6276
12855TIP3    H259981   2.451   2.140   2.100  2.1661 -0.7095 -1.8914
12856TIP3   OH259982   2.226   6.468  13.511  0.0796  0.0935  0.0093
12856TIP3    H159983   2.229   6.560  13.487 -2.1904  0.1465 -0.2803
12856TIP3    H259984   2.137   6.454  13.543  1.1971 -1.3319  2.8770
12857TIP3   OH259985   3.281   4.796  15.329 -0.2179  0.4718  0.5079
12857TIP3    H159986   3.216   4.751  15.383  0.9394 -2.4153 -0.3565
12857TIP3    H259987   3.335   4.844  15.392  0.2754 -1.7429  1.8711
12858TIP3   OH259988   1.478   6.693  12.373 -0.2327 -0.8357 -0.0935
12858TIP3    H159989   1.436   6.779  12.371  0.6602 -0.3462  1.1196
12858TIP3    H259990   1.500   6.674  12.281 -0.9448 -0.0378 -0.4361
12859TIP3   OH259991   0.157   2.042  14.247 -0.5742  0.3034  0.2688
12859TIP3    H159992   0.200   1.956  14.245 -1.1460  0.0118 -2.2618
12859TIP3    H259993   0.226   2.102  14.275  0.4988 -0.6456 -0.2598
12860TIP3   OH259994   2.472   0.614   5.640 -0.3047 -0.7693  0.1467
12860TIP3    H159995   2.546   0.619   5.579 -1.0495  0.0935 -0.7067
12860TIP3    H259996   2.513   0.598   5.726  0.8502 -0.4982 -0.3389
12861TIP3   OH259997   6.724   6.675  13.802 -0.4295 -0.3786 -0.6469
12861TIP3    H159998   6.669   6.619  13.748 -2.7531  2.5490 -1.6080
12861TIP3    H259999   6.664   6.718  13.863  1.1623  1.1198 -0.0120
12862TIP3   OH260000   2.043   0.385   2.189  0.4652  0.1578  0.3656
12862TIP3    H160001   2.110   0.328   2.152 -0.0910 -0.6750  0.6035
12862TIP3    H260002   2.055   0.469   2.145  0.1809 -0.6365 -1.2792
12863TIP3   OH260003   5.519   6.282  13.278  0.7238  0.1909  0.2719
12863TIP3    H160004   5.437   6.293  13.325  0.0073  0.9341 -1.1076
12863TIP3    H260005   5.499   6.219  13.208  1.1097  0.9476 -0.5354
12864TIP3   OH260006   3.283   1.959  17.267  0.3684 -0.2237 -0.1138
12864TIP3    H160007   3.229   1.991  17.339  0.0887 -0.2413 -0.3117
12864TIP3    H260008   3.373   1.964  17.300  0.3969  1.3409 -0.3398
12865TIP3   OH260009   1.738   1.675   3.788  0.2615  0.1291  0.4592
12865TIP3    H160010   1.716   1.583   3.772  2.2154 -0.4891  0.9763
12865TIP3    H260011   1.709   1.721   3.709  1.6464 -1.3955 -1.0356
12866TIP3   OH260012   2.976   2.730   3.882  0.1749 -0.2461 -0.1790
12866TIP3    H160013   2.954   2.785   3.957 -1.2842 -2.3122  0.9947
12866TIP3    H260014   2.910   2.752   3.816  1.3329  1.4153 -0.8773
12867TIP3   OH260015   4.020   5.032  13.555 -0.0599 -0.2799  0.3423
12867TIP3    H160016   4.074   5.084  13.496  0.3782  0.8075  1.6563
12867TIP3    H260017   4.084   4.985  13.610 -0.3761  1.0368  1.9275
12868TIP3   OH260018   5.594   0.297  10.633  0.3612 -0.4269  0.3839
12868TIP3    H160019   5.607   0.362  10.701  2.0156 -0.1479 -0.1651
12868TIP3    H260020   5.539   0.230  10.674 -1.0296  1.0886  1.0792
12869TIP3   OH260021   5.431   3.499   5.098  0.2412  0.0959 -0.2277
12869TIP3    H160022   5.410   3.472   5.009 -0.2547 -0.7868  0.1444
12869TIP3    H260023   5.406   3.425   5.152  0.6410  0.5783  0.6402
12870TIP3   OH260024   3.235   3.640  11.382  0.0302  0.3378 -0.3067
12870TIP3    H160025   3.302   3.648  11.315  1.2329 -0.3285  0.7742
12870TIP3    H260026   3.283   3.631  11.464 -1.3970  1.2083  0.6833
12871TIP3   OH260027   6.696   3.968   1.446  0.1161 -0.3219 -0.5451
12871TIP3    H160028   6.627   3.969   1.512 -0.1721 -0.8781 -0.8358
12871TIP3    H260029   6.728   4.059   1.444  0.7956 -0.4878  1.0498
12872TIP3   OH260030   3.007   1.924  15.992  0.9233  0.4278  0.5953
12872TIP3    H160031   3.011   2.015  15.963 -0.6676  0.3629  0.0474
12872TIP3    H260032   2.917   1.897  15.972  1.0262 -0.9163  1.7911
12873TIP3   OH260033   1.514   1.139   5.813 -0.0539  0.2143 -0.0850
12873TIP3    H160034   1.540   1.056   5.774  1.3993  0.1694  0.8627
12873TIP3    H260035   1.428   1.122   5.850 -0.1234 -0.6303 -0.6028
12874TIP3   OH260036   5.179   1.856  13.566 -0.4496  0.2912 -0.3776
12874TIP3    H160037   5.191   1.766  13.597  0.1945 -0.3352 -2.3214
12874TIP3    H260038   5.084   1.865  13.556 -0.6455  0.3920  1.3459
12875TIP3   OH260039   0.673   3.077   1.865 -0.0269 -0.9096  0.1046
12875TIP3    H160040   0.631   3.157   1.896 -1.7020 -2.1564  1.2703
12875TIP3    H260041   0.609   3.037   1.806  1.2093 -0.9104 -1.2932
12876TIP3   OH260042   2.497   5.026  16.514 -0.1247  0.4095 -0.4511
12876TIP3    H160043   2.490   4.951  16.455 -0.5798 -0.0653  0.1798
12876TIP3    H260044   2.572   5.005  16.570 -0.8820 -0.1037  0.4153
12877TIP3   OH260045   1.322   5.514  16.106  0.1218  0.3306 -0.1994
12877TIP3    H160046   1.290   5.519  16.196  0.7686  0.1301  0.0474
12877TIP3    H260047   1.242   5.507  16.053 -0.2567  0.1802  0.3744
12878TIP3   OH260048   0.855   3.468   2.461 -1.1066 -0.6457 -0.3964
12878TIP3    H160049   0.823   3.427   2.542 -0.3113 -0.6198 -0.0599
12878TIP3    H260050   0.831   3.560   2.470  0.4381 -0.3114  0.5872
12879TIP3   OH260051   0.574   3.510  12.829 -0.2330 -0.0411  0.0683
12879TIP3    H160052   0.554   3.603  12.826 -0.1411 -0.0436 -0.9466
12879TIP3    H260053   0.521   3.472  12.758 -0.2816 -0.7585  0.4839
12880TIP3   OH260054   0.745   4.696  17.042 -0.0013 -0.2868  0.0369
12880TIP3    H160055   0.661   4.704  16.995  1.0758 -0.5412 -2.0744
12880TIP3    H260056   0.806   4.750  16.991  1.4340 -1.2374  0.6804
12881TIP3   OH260057   2.783   2.563  14.314  0.7205  0.1507 -0.4330
12881TIP3    H160058   2.717   2.494  14.320 -0.0223  0.8672 -0.1993
12881TIP3    H260059   2.737   2.637  14.274  0.8135  1.3212  1.4831
12882TIP3   OH260060   2.794   1.031   2.785  0.0159 -0.0751  0.3043
12882TIP3    H160061   2.838   0.945   2.785 -1.6509 -1.3208 -4.6750
12882TIP3    H260062   2.861   1.091   2.753 -0.2419 -0.8757 -1.9638
12883TIP3   OH260063   4.261   4.507   6.156  0.2660  0.3655  0.3176
12883TIP3    H160064   4.194   4.518   6.223 -0.8624 -0.8437 -0.5481
12883TIP3    H260065   4.337   4.471   6.203  0.5998  2.3460  1.4170
12884TIP3   OH260066   3.542   2.774  12.363  0.0943 -0.2309 -0.3859
12884TIP3    H160067   3.499   2.851  12.402 -0.0002 -0.0084 -0.9163
12884TIP3    H260068   3.636   2.793  12.370  0.0570  0.7882 -2.1535
12885TIP3   OH260069   3.232   0.698   2.211  0.1038 -0.0262  0.1748
12885TIP3    H160070   3.296   0.629   2.229 -0.6300 -0.5009  1.0513
12885TIP3    H260071   3.149   0.662   2.242 -0.6880  0.3905 -1.3320
12886TIP3   OH260072   6.609   1.542  14.227  0.5950  0.2053 -0.5462
12886TIP3    H160073   6.656   1.485  14.289 -0.0261 -0.3728 -0.5995
12886TIP3    H260074   6.666   1.546  14.151  0.2409 -1.1105 -0.9145
12887TIP3   OH260075   2.914   1.856   6.384 -0.2091  0.2997  0.3288
12887TIP3    H160076   2.986   1.892   6.333 -0.3574 -2.5872 -2.2395
12887TIP3    H260077   2.948   1.852   6.474  1.8235  1.3570 -0.3183
12888TIP3   OH260078   6.613   4.971   5.207 -0.0628  0.2944 -0.2085
12888TIP3    H160079   6.554   4.921   5.263 -0.0216  2.0443  1.5492
12888TIP3    H260080   6.699   4.962   5.249  0.5554 -0.5984 -1.5975
12889TIP3   OH260081   6.714   0.556  10.816  0.2998 -0.2316 -0.0579
12889TIP3    H160082   6.724   0.645  10.784 -1.6257  1.1838  2.8637
12889TIP3    H260083   6.802   0.529  10.842  0.9425  0.6743 -1.2274
12890TIP3   OH260084   5.548   0.323  14.483  0.0079 -0.3122  0.4388
12890TIP3    H160085   5.533   0.305  14.390  0.4687 -0.2491  0.3491
12890TIP3    H260086   5.534   0.417  14.492  2.4789  0.1817 -0.0999
12891TIP3   OH260087   6.130   1.929  17.023  0.6247  0.1217 -1.0216
12891TIP3    H160088   6.193   1.871  17.065  1.2143  1.2771 -0.2697
12891TIP3    H260089   6.181   2.003  16.992 -0.0310 -0.0105 -2.5021
12892TIP3   OH260090   1.372   4.740   6.740  0.0358  0.1006  0.3463
12892TIP3    H160091   1.289   4.708   6.704  1.1310 -0.5240 -1.8462
12892TIP3    H260092   1.399   4.808   6.678  1.8202 -0.6990  0.1901
12893TIP3   OH260093   6.389   4.065   0.360 -0.1554  0.8243 -0.1690
12893TIP3    H160094   6.298   4.055   0.391 -0.4872  0.3225 -1.2490
12893TIP3    H260095   6.403   4.159   0.357 -0.6210  0.9037  0.0860
12894TIP3   OH260096   3.714   6.267   2.326 -0.7218  0.3203  0.0552
12894TIP3    H160097   3.745   6.249   2.238 -0.7991 -1.2249  0.3174
12894TIP3    H260098   3.620   6.279   2.317 -0.4299  2.6706 -0.4005
12895TIP3   OH260099   0.372   2.849   1.377 -0.2338 -0.3468  0.0787
12895TIP3    H160100   0.423   2.769   1.369 -0.1272 -0.1831 -1.1901
12895TIP3    H260101   0.406   2.906   1.308 -1.0549  0.3671  0.2437
12896TIP3   OH260102   2.307   4.099  11.350  0.0530 -0.4018 -0.0860
12896TIP3    H160103   2.310   4.009  11.318 -1.6405 -0.6077  0.2294
12896TIP3    H260104   2.248   4.144  11.290 -0.1393  0.1587  0.5096
12897TIP3   OH260105   1.565   3.273  14.074  0.2260  0.7082 -0.2663
12897TIP3    H160106   1.525   3.345  14.123  0.2566  0.4497  0.1430
12897TIP3    H260107   1.642   3.248  14.125 -0.6655 -0.6761  0.4608
12898TIP3   OH260108   6.103   6.438   2.760  0.1378  0.2764 -0.2223
12898TIP3    H160109   6.169   6.471   2.699 -0.7414  1.1562 -0.7275
12898TIP3    H260110   6.078   6.515   2.812 -0.7186  0.0342 -0.2646
12899TIP3   OH260111   2.926   0.796   3.437  0.0863 -0.3338 -0.2014
12899TIP3    H160112   2.997   0.755   3.389 -0.0663 -1.5324  0.5414
12899TIP3    H260113   2.904   0.874   3.386  1.8567  0.0245 -0.4824
12900TIP3   OH260114   2.253   3.590  10.966  0.0694 -0.4286 -0.0726
12900TIP3    H160115   2.229   3.618  10.877  3.6357 -0.4203 -1.1827
12900TIP3    H260116   2.193   3.638  11.023 -0.5378  1.7193 -2.3547
12901TIP3   OH260117   4.399   6.096  14.574  0.1972 -1.0221  0.3090
12901TIP3    H160118   4.381   6.110  14.667 -0.6011 -0.2088  0.0477
12901TIP3    H260119   4.421   6.183  14.541  1.2597 -1.4377 -0.1076
12902TIP3   OH260120   1.445   3.764  11.678 -0.0433 -0.0772  0.1018
12902TIP3    H160121   1.430   3.791  11.588  1.0334  0.1874 -0.0128
12902TIP3    H260122   1.474   3.843  11.723 -0.1171 -0.3107  0.5686
12903TIP3   OH260123   4.555   5.506   4.221 -0.3581  0.0854  0.2391
12903TIP3    H160124   4.576   5.555   4.301 -0.7752  1.1272 -0.2778
12903TIP3    H260125   4.623   5.531   4.158 -0.0597 -0.6946  0.2327
12904TIP3   OH260126   5.867   0.166   0.853 -0.1108 -0.0462 -0.6550
12904TIP3    H160127   5.866   0.260   0.868 -1.9720 -0.0708 -0.4175
12904TIP3    H260128   5.789   0.149   0.800 -2.6945 -2.0040  3.2822
12905TIP3   OH260129   6.002   6.180   3.923 -0.9023  0.3436  0.2191
12905TIP3    H160130   5.993   6.085   3.925  2.1493 -0.1539 -2.4637
12905TIP3    H260131   6.048   6.201   4.004  2.1824 -1.1585 -0.9665
12906TIP3   OH260132   0.341   5.082   2.902 -0.2297 -0.2708  0.4938
12906TIP3    H160133   0.410   5.103   2.965 -1.3721  1.1972  1.3199
12906TIP3    H260134   0.261   5.079   2.954 -0.6862 -3.2170 -0.2272
12907TIP3   OH260135   5.661   0.151  15.310  0.1215 -0.0804  0.7921
12907TIP3    H160136   5.567   0.168  15.310  0.1916  0.3437  0.2045
12907TIP3    H260137   5.701   0.233  15.282  0.6141 -0.5254  0.1519
12908TIP3   OH260138   0.608   4.116  11.666 -0.0636 -0.0406  0.0043
12908TIP3    H160139   0.533   4.157  11.622 -1.3857 -0.4277  1.8098
12908TIP3    H260140   0.676   4.112  11.598 -1.8914 -0.3288 -1.9105
12909TIP3   OH260141   5.417   1.906   4.388  0.3150  0.3485 -0.1297
12909TIP3    H160142   5.486   1.840   4.378 -0.2570 -0.2033 -0.4880
12909TIP3    H260143   5.449   1.982   4.338  0.0611 -0.3889 -1.4725
12910TIP3   OH260144   4.364   2.063   2.325  0.2477  0.1701 -0.3219
12910TIP3    H160145   4.435   2.046   2.386  0.5108  1.4186 -0.2395
12910TIP3    H260146   4.379   2.153   2.295 -0.3024 -0.1537 -1.6546
12911TIP3   OH260147   3.516   5.972   5.483 -0.3009  0.1320 -0.0186
12911TIP3    H160148   3.609   5.985   5.501 -0.4995  0.9891  0.4407
12911TIP3    H260149   3.497   5.884   5.514  0.3089  0.0293  0.0710
12912TIP3   OH260150   3.666   4.757   0.308  0.1333 -0.6522 -0.1089
12912TIP3    H160151   3.660   4.691   0.376 -0.6402  0.4414  0.9257
12912TIP3    H260152   3.583   4.749   0.260 -0.0854 -0.2368  0.2009
12913TIP3   OH260153   0.067   4.935   6.604  0.1210 -0.4162 -0.2927
12913TIP3    H160154   0.097   4.851   6.570 -0.4519 -0.5843 -0.3807
12913TIP3    H260155   0.000   4.913   6.669  0.5173 -0.0575  0.2541
12914TIP3   OH260156   1.329   1.447  15.381 -0.0987  0.1211  0.3527
12914TIP3    H160157   1.332   1.364  15.427  0.7017  0.0150  0.1226
12914TIP3    H260158   1.312   1.424  15.290  0.3575  0.1857  0.2470
12915TIP3   OH260159   6.629   6.185   6.625  0.2154  0.6975  0.3504
12915TIP3    H160160   6.601   6.277   6.623 -1.6555  0.1635 -0.0324
12915TIP3    H260161   6.650   6.169   6.717  0.5834  1.5182  0.4210
12916TIP3   OH260162   4.949   5.212   1.129  0.4171 -0.3760 -0.1858
12916TIP3    H160163   4.990   5.147   1.071 -0.2311 -1.3757  0.4484
12916TIP3    H260164   5.012   5.223   1.200  0.4716 -0.4012 -0.2296
12917TIP3   OH260165   1.119   6.401  14.068  0.3569 -0.2674  0.0355
12917TIP3    H160166   1.040   6.376  14.021  0.3430  0.3608 -0.2853
12917TIP3    H260167   1.097   6.486  14.108  1.3842  0.7100 -1.3860
12918TIP3   OH260168   4.228   4.431  16.545 -0.2494  0.4867  0.4478
12918TIP3    H160169   4.133   4.430  16.555 -0.2709  1.4339  0.4151
12918TIP3    H260170   4.261   4.397  16.628 -0.5825  1.9193  1.1939
12919TIP3   OH260171   0.219   0.334  11.119  0.0992 -0.0725  0.0122
12919TIP3    H160172   0.200   0.424  11.093  0.1468  0.7608  2.6017
12919TIP3    H260173   0.315   0.330  11.123  0.0905 -0.1644  0.1400
12920TIP3   OH260174   3.066   0.595  17.228 -0.2187 -0.2319  0.9352
12920TIP3    H160175   3.122   0.654  17.177 -1.4776  0.4343  0.2659
12920TIP3    H260176   3.123   0.562  17.297  0.6446  1.4374  1.0747
12921TIP3   OH260177   4.540   6.496  13.108 -0.3747 -0.1264  0.8511
12921TIP3    H160178   4.445   6.497  13.095 -0.7666  1.1476  3.2264
12921TIP3    H260179   4.566   6.587  13.099  0.7616 -0.5475 -0.3869
12922TIP3   OH260180   1.624   2.206  13.935 -0.0983  0.7255 -0.6827
12922TIP3    H160181   1.642   2.197  14.029 -0.8490  0.2337 -0.5706
12922TIP3    H260182   1.556   2.273  13.930  0.6489  1.4778 -0.9693
12923TIP3   OH260183   2.249   1.217   4.810 -0.3621  0.5671 -0.0332
12923TIP3    H160184   2.285   1.146   4.756  1.4102  0.8176  0.7318
12923TIP3    H260185   2.320   1.238   4.871 -0.9084  2.8733 -0.1146
12924TIP3   OH260186   5.439   3.605   3.344 -0.7493  0.1061 -0.3902
12924TIP3    H160187   5.386   3.583   3.267  0.8215 -3.4308 -0.6383
12924TIP3    H260188   5.488   3.683   3.317 -1.9758  0.3625 -2.0528
12925TIP3   OH260189   0.474   1.238  17.145 -0.1051  0.0857 -0.0600
12925TIP3    H160190   0.556   1.188  17.146  0.2698  0.6952 -0.0699
12925TIP3    H260191   0.466   1.269  17.055  1.2822  2.6441  0.5919
12926TIP3   OH260192   2.996   4.673  14.708  0.1037 -0.0814  0.2314
12926TIP3    H160193   3.060   4.620  14.661 -0.6788 -1.7387  0.9374
12926TIP3    H260194   3.010   4.652  14.801 -0.1665  1.0368  0.5430
12927TIP3   OH260195   3.659   4.480   1.728  0.3972 -0.1739 -0.5097
12927TIP3    H160196   3.593   4.479   1.659 -0.1567 -0.4414  0.0143
12927TIP3    H260197   3.624   4.421   1.795  0.6234  0.5791  0.2779
12928TIP3   OH260198   6.417   3.554  15.252 -0.1014  0.3357  0.5674
12928TIP3    H160199   6.453   3.492  15.188  0.4586 -1.7161  2.7442
12928TIP3    H260200   6.324   3.560  15.229 -0.4493 -2.3176  0.9807
12929TIP3   OH260201   2.459   2.984   3.474  0.3458 -0.2017  0.2651
12929TIP3    H160202   2.498   2.897   3.481  0.2619 -0.1660  1.3100
12929TIP3    H260203   2.512   3.040   3.531  0.9372  0.6378 -1.0635
12930TIP3   OH260204   0.987   5.443   5.177 -0.5784 -0.2990  0.2566
12930TIP3    H160205   1.080   5.463   5.189 -0.8088  0.3757  1.0117
12930TIP3    H260206   0.984   5.347   5.178  0.0152 -0.3274  1.1564
12931TIP3   OH260207   6.398   0.819  12.003  0.6421 -0.6039  0.0693
12931TIP3    H160208   6.476   0.810  12.059  3.2166  2.1184 -2.7057
12931TIP3    H260209   6.349   0.890  12.044  0.4553 -1.1933  0.9088
12932TIP3   OH260210   0.184   1.440   0.660  0.1789 -0.4142 -0.2558
12932TIP3    H160211   0.164   1.357   0.618  2.1189 -0.8281 -0.4626
12932TIP3    H260212   0.277   1.455   0.641  0.4971  0.5927  1.7860
12933TIP3   OH260213   0.086   5.276   3.801 -0.8339  0.0640 -0.6424
12933TIP3    H160214   0.043   5.198   3.837 -2.5364  2.5155  3.2891
12933TIP3    H260215   0.147   5.304   3.869 -0.9329  2.6165 -1.4836
12934TIP3   OH260216   1.537   2.783  11.626 -0.6394 -0.0179 -0.1646
12934TIP3    H160217   1.464   2.830  11.587  1.0472  3.9962  0.9330
12934TIP3    H260218   1.614   2.813  11.577  0.9422  1.3763  2.8801
12935TIP3   OH260219   4.486   3.207   1.862  0.1306  0.0974 -0.4462
12935TIP3    H160220   4.551   3.167   1.919  0.0047 -0.8052 -0.9123
12935TIP3    H260221   4.450   3.280   1.913 -0.9012 -1.4463  1.1292
12936TIP3   OH260222   5.199   1.587   6.700  0.2409  0.1130 -0.0081
12936TIP3    H160223   5.294   1.594   6.688  0.6540  0.1529  2.5758
12936TIP3    H260224   5.177   1.502   6.663  1.1968  0.2641 -1.0012
12937TIP3   OH260225   5.399   6.081   3.212 -0.0658 -0.7327  0.5969
12937TIP3    H160226   5.490   6.108   3.210 -0.5253  0.9745  0.9680
12937TIP3    H260227   5.357   6.132   3.142 -1.0969  0.1092  1.7738
12938TIP3   OH260228   3.052   0.537   3.864  0.5461  0.0361 -0.3461
12938TIP3    H160229   2.997   0.606   3.826 -0.0668 -0.2918 -0.0692
12938TIP3    H260230   3.044   0.464   3.802 -0.0024 -0.3023  0.1214
12939TIP3   OH260231   4.714   0.981   2.270 -0.4598  0.2001 -0.4073
12939TIP3    H160232   4.775   1.002   2.341  0.8868  0.6208 -1.6405
12939TIP3    H260233   4.676   1.065   2.245  0.0940  0.2680 -1.0623
12940TIP3   OH260234   4.145   1.853   2.934 -0.0929  0.3429 -0.3295
12940TIP3    H160235   4.088   1.783   2.966  0.1828  0.1455 -0.2659
12940TIP3    H260236   4.100   1.889   2.858 -0.9864  1.1230  0.5452
12941TIP3   OH260237   4.855   0.436   2.390 -0.2634  0.5283 -0.0236
12941TIP3    H160238   4.904   0.453   2.310  1.3894 -0.3591  0.7599
12941TIP3    H260239   4.786   0.502   2.389 -0.5446  0.3017 -2.3533
12942TIP3   OH260240   0.498   4.462   5.888  0.0070 -0.4488 -0.0523
12942TIP3    H160241   0.493   4.368   5.910 -0.9872 -0.3934 -0.0235
12942TIP3    H260242   0.579   4.491   5.931 -0.6051 -0.9011  1.4846
12943TIP3   OH260243   1.008   2.677   0.623  0.1696  0.4357 -1.1204
12943TIP3    H160244   0.936   2.613   0.626 -0.4543  1.1671  0.1870
12943TIP3    H260245   0.964   2.761   0.612  0.7661  0.9628  0.3109
12944TIP3   OH260246   6.103   6.607   5.616  0.7227  0.1208 -0.3906
12944TIP3    H160247   6.085   6.617   5.710  0.0254 -1.5994 -0.3075
12944TIP3    H260248   6.031   6.654   5.573  0.5440  0.1475 -0.0691
12945TIP3   OH260249   5.906   0.224   3.611  0.1660 -0.0579 -0.3253
12945TIP3    H160250   5.966   0.247   3.681 -1.5832 -0.8723  1.5472
12945TIP3    H260251   5.944   0.146   3.571  1.1860  0.4066 -0.2798
12946TIP3   OH260252   0.453   2.295   5.534  0.1144 -0.3419 -0.0832
12946TIP3    H160253   0.426   2.209   5.500  1.0931 -0.3464 -0.9245
12946TIP3    H260254   0.548   2.287   5.543  0.2946  0.8403 -0.7463
12947TIP3   OH260255   4.501   3.627  16.843  0.0735  0.4711 -0.1589
12947TIP3    H160256   4.438   3.699  16.846 -1.3063 -0.5680 -2.1203
12947TIP3    H260257   4.493   3.585  16.929  1.6394  3.1371  1.4258
12948TIP3   OH260258   4.373   0.375   6.052  0.0881  0.0318  0.1656
12948TIP3    H160259   4.468   0.362   6.057 -0.0665 -1.0460  0.3953
12948TIP3    H260260   4.341   0.304   5.997 -0.5521  0.6333 -0.2690
12949TIP3   OH260261   0.412   3.944   3.271 -0.5491 -0.2681  0.4554
12949TIP3    H160262   0.319   3.926   3.267 -0.6753  0.4872 -0.2934
12949TIP3    H260263   0.448   3.875   3.326 -1.4102 -1.1164 -0.0230
12950TIP3   OH260264   4.695   3.749  14.488 -0.3028  0.5547 -0.1241
12950TIP3    H160265   4.661   3.704  14.411  1.8776  0.7044 -1.2541
12950TIP3    H260266   4.765   3.692  14.520 -1.2419  0.4301  1.8889
12951TIP3   OH260267   5.585   2.066   2.405  0.4743  0.1463 -0.0036
12951TIP3    H160268   5.628   2.111   2.478  0.6576  0.8012 -0.5006
12951TIP3    H260269   5.657   2.027   2.356  0.3508 -0.2863  0.1490
12952TIP3   OH260270   3.391   5.864   1.992  0.2969  0.5126 -0.3663
12952TIP3    H160271   3.329   5.823   1.931 -1.9443  1.7552  0.9455
12952TIP3    H260272   3.457   5.796   2.008  0.1779 -0.3317 -3.0169
12953TIP3   OH260273   6.568   3.950  12.899  0.1764 -0.4364 -0.5775
12953TIP3    H160274   6.629   4.021  12.918  0.9551 -1.4629  0.9546
12953TIP3    H260275   6.613   3.896  12.834  0.1261 -0.2376 -0.7789
12954TIP3   OH260276   6.500   3.667   2.531 -0.3217  0.1816 -0.6054
12954TIP3    H160277   6.595   3.667   2.540 -0.2150 -0.1663 -1.5856
12954TIP3    H260278   6.468   3.640   2.617  0.4185  1.2207  0.0165
12955TIP3   OH260279   2.346   6.050   4.231  0.0670 -0.4844  0.1733
12955TIP3    H160280   2.337   5.965   4.188 -2.0362 -1.2193  1.8931
12955TIP3    H260281   2.313   6.036   4.319 -2.5149  2.5911 -0.1237
12956TIP3   OH260282   4.253   4.642   3.157  0.1844 -0.0672  0.0193
12956TIP3    H160283   4.178   4.673   3.208 -1.0841  1.4789 -2.5969
12956TIP3    H260284   4.322   4.706   3.176 -0.6163  1.1303 -0.9416
12957TIP3   OH260285   3.225   1.204   4.410  0.4442 -0.4295 -0.1983
12957TIP3    H160286   3.222   1.212   4.505 -0.7894 -0.6859 -0.1992
12957TIP3    H260287   3.259   1.116   4.395 -0.7253 -0.9406  0.0436
12958TIP3   OH260288   0.264   3.398   1.816 -0.4197  0.3188  0.3180
12958TIP3    H160289   0.228   3.439   1.737  0.2760  0.5605  0.1226
12958TIP3    H260290   0.278   3.306   1.791 -2.6946 -0.2825  0.9850
12959TIP3   OH260291   6.564   1.573   4.431  0.2780  0.4384 -0.2861
12959TIP3    H160292   6.546   1.657   4.472  2.1872  0.7483  0.0434
12959TIP3    H260293   6.573   1.512   4.504 -1.1664 -0.0937 -0.5271
12960TIP3   OH260294   1.814   5.489  14.941 -0.1203 -0.2557 -0.3872
12960TIP3    H160295   1.910   5.487  14.939 -0.1084  0.5049 -1.9943
12960TIP3    H260296   1.787   5.401  14.917  0.1735 -0.3531 -0.3654
12961TIP3   OH260297   0.062   4.693   0.182 -0.6022 -0.2676  0.4017
12961TIP3    H160298  -0.028   4.724   0.184 -0.9743 -1.1866 -0.6438
12961TIP3    H260299   0.088   4.701   0.090 -0.0878 -1.2532  0.4383
12962TIP3   OH260300   5.424   5.827   6.590 -0.0086 -0.7521 -0.3241
12962TIP3    H160301   5.434   5.750   6.646  0.1975 -0.1094  0.5307
12962TIP3    H260302   5.423   5.901   6.650 -1.3384 -0.1505 -1.0587
12963TIP3   OH260303   2.101   0.093   2.096  0.3783  0.7130 -0.0778
12963TIP3    H160304   2.120  -0.001   2.095  3.7841  1.2421 -2.6978
12963TIP3    H260305   2.127   0.122   2.183 -2.2118 -0.9013  1.3422
12964TIP3   OH260306   3.413   1.991   6.802 -0.0659  0.4884  0.5226
12964TIP3    H160307   3.445   2.024   6.886  0.1037  0.3651  0.5069
12964TIP3    H260308   3.484   1.936   6.769 -0.8150 -0.8601  1.1011
12965TIP3   OH260309   4.715   0.573  16.353  0.0265  0.1599 -0.1010
12965TIP3    H160310   4.808   0.589  16.340 -0.1833  2.1106  0.4918
12965TIP3    H260311   4.708   0.537  16.441  0.1418  0.9245  0.2229
12966TIP3   OH260312   6.554   3.894  15.726  0.3996 -0.2301  0.4518
12966TIP3    H160313   6.608   3.819  15.751 -0.3819 -0.8413  0.3238
12966TIP3    H260314   6.541   3.942  15.808  2.8344  1.0803  0.1548
12967TIP3   OH260315   6.252   0.595   5.216 -0.8690  0.1754  0.7304
12967TIP3    H160316   6.257   0.609   5.122  0.4252 -0.8546  0.6162
12967TIP3    H260317   6.335   0.626   5.250 -1.1906  0.2277  1.4955
12968TIP3   OH260318   3.325   1.478   4.862 -0.2581  0.0581  0.3046
12968TIP3    H160319   3.400   1.420   4.874 -0.2335  0.1809  0.7687
12968TIP3    H260320   3.296   1.498   4.951  1.4758  3.0527  0.3255
12969TIP3   OH260321   6.140   4.950   2.022  0.1539  0.1971 -0.0891
12969TIP3    H160322   6.204   4.962   2.092 -0.1388 -0.2545  0.2620
12969TIP3    H260323   6.175   5.001   1.948  0.5468  0.5391  0.3290
12970TIP3   OH260324   6.346   1.924  12.945 -0.2473  0.0596 -0.0217
12970TIP3    H160325   6.379   1.890  12.862 -0.4017  0.8384 -0.4118
12970TIP3    H260326   6.338   2.019  12.931 -0.1535  0.2185  0.9249
12971TIP3   OH260327   5.274   2.032  14.106  0.4908  0.2858  0.6466
12971TIP3    H160328   5.206   2.061  14.044 -0.4941 -0.1419  1.4928
12971TIP3    H260329   5.355   2.036  14.056 -0.3149 -0.3488 -0.7734
12972TIP3   OH260330   3.875   2.917  16.503  0.3565 -0.0172  0.4936
12972TIP3    H160331   3.886   2.886  16.414  0.8258  0.4135  0.3986
12972TIP3    H260332   3.940   2.986  16.513  0.3098 -0.0627  1.1684
12973TIP3   OH260333   5.280   6.697   0.908 -0.1540  0.2068  0.4739
12973TIP3    H160334   5.219   6.717   0.837  0.0931 -1.0765 -0.1487
12973TIP3    H260335   5.230   6.710   0.988 -1.6742 -1.9119 -0.0415
12974TIP3   OH260336   0.416   1.860  12.723  0.2246 -0.1184  0.5839
12974TIP3    H160337   0.462   1.910  12.656 -0.2556  2.8708  2.3438
12974TIP3    H260338   0.481   1.796  12.753  1.0891 -0.1763 -1.2975
12975TIP3   OH260339   1.058   3.643   2.749  0.5720  0.1500  0.1701
12975TIP3    H160340   1.113   3.583   2.698 -0.1063  0.1324 -0.5507
12975TIP3    H260341   0.989   3.670   2.689 -0.3168  0.0329  1.1168
12976TIP3   OH260342   4.503   4.340   5.072 -0.4992 -0.0687 -0.0917
12976TIP3    H160343   4.461   4.425   5.067 -0.3675  0.0374  0.5642
12976TIP3    H260344   4.488   4.301   4.986  0.2338  0.9872 -0.7304
12977TIP3   OH260345   6.568   5.627   4.312  0.2175  0.0734 -0.3579
12977TIP3    H160346   6.540   5.709   4.270  1.0245  0.5607  0.0358
12977TIP3    H260347   6.648   5.603   4.267  0.1250 -0.3634 -0.2923
12978TIP3   OH260348   6.589   1.254  10.492  0.8805 -0.0458 -0.3017
12978TIP3    H160349   6.506   1.289  10.524  1.1546  1.1792 -0.9097
12978TIP3    H260350   6.650   1.265  10.566  0.9446  0.6984 -0.4622
12979TIP3   OH260351   0.117   4.831  11.674 -0.0305 -0.0639 -0.1757
12979TIP3    H160352   0.173   4.859  11.602  0.0247 -0.3616 -0.2497
12979TIP3    H260353   0.036   4.803  11.632  0.3000 -1.0091 -0.1940
12980TIP3   OH260354   3.226   6.266   3.919  0.0996  0.0405  0.0692
12980TIP3    H160355   3.282   6.202   3.962 -0.5098  0.7426  2.0153
12980TIP3    H260356   3.213   6.232   3.830  0.1853 -2.2642  0.8889
12981TIP3   OH260357   3.241   1.195  14.866  0.4667  0.0913 -0.3663
12981TIP3    H160358   3.263   1.180  14.774  1.1760  0.1012 -0.2060
12981TIP3    H260359   3.196   1.280  14.866  0.3346  0.0225 -0.7218
12982TIP3   OH260360   3.905   4.670   5.516  0.1148  0.1053 -0.7224
12982TIP3    H160361   3.896   4.673   5.611  0.1983 -1.1126 -0.6591
12982TIP3    H260362   3.932   4.581   5.497  0.1480  0.3446 -1.8927
12983TIP3   OH260363   5.025   5.346   1.351 -0.0928  0.5781 -0.1240
12983TIP3    H160364   4.956   5.405   1.321 -0.2722  0.6570  0.4265
12983TIP3    H260365   5.074   5.397   1.416  1.2125  0.9312 -1.3474
12984TIP3   OH260366   2.278   0.547  13.733 -0.3228 -0.2855  0.1621
12984TIP3    H160367   2.358   0.500  13.712 -1.0478 -0.8442 -1.5848
12984TIP3    H260368   2.262   0.602  13.656 -1.0542  0.6343  0.9365
12985TIP3   OH260369   0.310   3.335   5.506 -0.2165  0.2071 -0.4762
12985TIP3    H160370   0.394   3.362   5.542 -0.6265  1.8522 -0.6850
12985TIP3    H260371   0.286   3.404   5.445 -1.8690 -0.0535 -0.1819
12986TIP3   OH260372   3.009   6.440   3.527  0.1109  0.5078 -0.2312
12986TIP3    H160373   3.026   6.368   3.467 -1.5792 -0.8894  0.8750
12986TIP3    H260374   3.078   6.504   3.508  0.9455 -0.8532 -2.0681
12987TIP3   OH260375   3.153   6.169  13.296 -0.4334 -0.0091  0.0989
12987TIP3    H160376   3.078   6.112  13.279 -2.0135  2.1474 -0.6138
12987TIP3    H260377   3.217   6.147  13.228 -1.3662 -0.3580 -0.6794
12988TIP3   OH260378   1.204   0.893   1.604 -0.0674 -0.0660 -0.5330
12988TIP3    H160379   1.195   0.977   1.649  2.4318  0.6014 -1.1388
12988TIP3    H260380   1.124   0.845   1.626 -1.3472  2.2729  0.2085
12989TIP3   OH260381   1.487   6.685   4.248 -0.5530  0.5252 -0.0769
12989TIP3    H160382   1.439   6.608   4.278 -1.1171  0.6515 -0.6302
12989TIP3    H260383   1.516   6.728   4.328 -0.5359 -0.0696  0.2453
12990TIP3   OH260384   3.263   2.365  16.322 -0.3080  0.3072  0.1766
12990TIP3    H160385   3.171   2.384  16.309 -0.1852  0.6900 -0.1422
12990TIP3    H260386   3.268   2.269  16.322 -0.6069  0.2871 -0.5350
12991TIP3   OH260387   6.554   0.805  11.777 -0.2746  0.9616  0.3551
12991TIP3    H160388   6.471   0.791  11.824 -0.5725  0.1205 -0.3897
12991TIP3    H260389   6.539   0.770  11.690  1.3153 -0.5887  0.6367
12992TIP3   OH260390   4.186   2.830   6.109  0.6445  0.3223  0.1014
12992TIP3    H160391   4.194   2.923   6.088  3.3164  0.4006  1.1446
12992TIP3    H260392   4.206   2.785   6.027  0.0816  0.6305 -0.2141
12993TIP3   OH260393   0.350   3.211  16.631  0.1323 -0.0810 -0.5920
12993TIP3    H160394   0.375   3.270  16.561 -0.6177 -1.7311 -2.3415
12993TIP3    H260395   0.414   3.139  16.626 -0.1433 -0.3987  0.1891
12994TIP3   OH260396   0.879   0.781  16.992 -0.4300 -0.2191  0.0839
12994TIP3    H160397   0.843   0.777  16.903  0.8638  0.1261 -0.4822
12994TIP3    H260398   0.840   0.860  17.030  1.5267  1.6002 -1.4047
12995TIP3   OH260399   2.575   0.547  16.470  0.0113  0.0816 -0.0480
12995TIP3    H160400   2.642   0.533  16.403 -0.1651 -0.1964 -0.1664
12995TIP3    H260401   2.521   0.618  16.435 -0.5847 -0.6189 -0.6000
12996TIP3   OH260402   6.141   3.151  17.276 -0.0751  0.2080 -0.4712
12996TIP3    H160403   6.234   3.130  17.260  0.1619  0.6170  0.3400
12996TIP3    H260404   6.141   3.245  17.291 -0.5117  0.0742  0.3646
12997TIP3   OH260405   3.614   1.703  14.160 -0.2586 -0.6850 -0.3072
12997TIP3    H160406   3.660   1.669  14.236  0.5442 -0.5782 -0.7380
12997TIP3    H260407   3.521   1.686  14.178 -0.5422  2.6327  2.4407
12998TIP3   OH260408   5.136   0.488  11.711  0.4465  0.5225  0.0258
12998TIP3    H160409   5.152   0.474  11.618 -0.9107 -0.7971 -0.0530
12998TIP3    H260410   5.147   0.401  11.751 -1.7329  0.4470  0.6097
12999TIP3   OH260411   4.327   2.158   4.784  0.1281  0.5628  0.1267
12999TIP3    H160412   4.354   2.117   4.702 -1.3698  0.0824 -0.1652
12999TIP3    H260413   4.403   2.209   4.812  0.8689  0.2588 -1.2433
13000TIP3   OH260414   4.380   1.637  16.002  0.0489  0.0026  0.6684
13000TIP3    H160415   4.376   1.732  15.992 -0.6718 -0.0385  0.5423
13000TIP3    H260416   4.469   1.620  16.033  0.8276  0.5673 -1.0887
13001TIP3   OH260417   2.761   5.134   3.662 -0.5358  0.2489 -0.0606
13001TIP3    H160418   2.755   5.097   3.750 -1.0416  1.3646  0.3853
13001TIP3    H260419   2.683   5.188   3.653  0.4440  1.6535 -0.4779
13002TIP3   OH260420   4.356   0.164   5.625 -0.0737  0.5310 -0.3978
13002TIP3    H160421   4.323   0.150   5.713  0.3277 -0.0424 -0.3336
13002TIP3    H260422   4.449   0.183   5.637 -0.1863  1.2932 -0.6389
13003TIP3   OH260423   4.727   0.524  11.653  0.4984 -0.1070  0.3321
13003TIP3    H160424   4.717   0.572  11.571  1.0931  0.8362  0.7896
13003TIP3    H260425   4.784   0.579  11.706  1.8018 -1.6511  0.6286
13004TIP3   OH260426   2.825   1.772  13.958 -0.4614 -0.1412  0.1948
13004TIP3    H160427   2.858   1.747  14.044 -0.9376 -1.7567 -0.0642
13004TIP3    H260428   2.733   1.796  13.973  0.2682  2.6571  0.6241
13005TIP3   OH260429   4.608   6.541  16.237  0.0325  0.4407 -0.1307
13005TIP3    H160430   4.621   6.558  16.144  1.3535  3.0237  0.4386
13005TIP3    H260431   4.690   6.501  16.266 -0.4729 -0.6054 -0.0847
13006TIP3   OH260432   3.462   0.794   5.035 -0.4947  0.2893 -0.1501
13006TIP3    H160433   3.534   0.855   5.049 -0.6297  0.3452  0.3169
13006TIP3    H260434   3.400   0.812   5.106 -0.6224 -0.2650 -0.1100
13007TIP3   OH260435   4.704   4.668  14.707 -0.8441 -0.3919  0.2617
13007TIP3    H160436   4.768   4.708  14.649 -0.3144 -3.8498 -1.8373
13007TIP3    H260437   4.755   4.636  14.781 -0.6351 -0.5762  0.0382
13008TIP3   OH260438   6.396   0.465   5.478 -0.3400 -0.3389 -0.3188
13008TIP3    H160439   6.467   0.517   5.441 -0.0626 -0.7479 -0.3710
13008TIP3    H260440   6.389   0.389   5.419 -0.0074 -0.9118  0.3577
13009TIP3   OH260441   1.728   1.721  12.844 -0.2164  0.5939 -0.1664
13009TIP3    H160442   1.751   1.633  12.875  1.6748  0.8749 -0.6473
13009TIP3    H260443   1.632   1.725  12.851 -0.1379 -0.0720  3.6665
13010TIP3   OH260444   0.854   5.994  15.360 -0.0389  0.4200  0.9065
13010TIP3    H160445   0.944   5.995  15.327 -0.4752  1.5207 -0.3545
13010TIP3    H260446   0.802   5.963  15.285 -0.6363 -1.2190  1.9337
13011TIP3   OH260447   6.231   3.497   4.052  0.6886 -0.7133 -0.4066
13011TIP3    H160448   6.324   3.498   4.075  0.3785  0.4793  0.9593
13011TIP3    H260449   6.215   3.407   4.023  2.0690 -1.2065  0.2417
13012TIP3   OH260450   3.471   1.603  12.258 -0.0625 -0.3735  0.1371
13012TIP3    H160451   3.539   1.621  12.323  0.1997 -0.2773 -0.1630
13012TIP3    H260452   3.399   1.564  12.309  0.8995 -2.1530  0.2172
13013TIP3   OH260453   0.422   5.723   3.783 -0.0690 -0.4060 -0.4683
13013TIP3    H160454   0.390   5.678   3.861 -2.1037  0.1962 -0.9022
13013TIP3    H260455   0.438   5.652   3.720 -0.8580 -0.7161 -0.3301
13014TIP3   OH260456   6.565   3.822   2.005 -0.4258  0.1312  0.0615
13014TIP3    H160457   6.570   3.834   1.910 -1.8040 -1.9370 -0.3489
13014TIP3    H260458   6.653   3.793   2.030  0.0378  1.0071 -0.5181
13015TIP3   OH260459   1.132   2.345  12.961 -0.8401  0.5899  0.1819
13015TIP3    H160460   1.179   2.278  13.011 -0.2892  1.2080  0.5205
13015TIP3    H260461   1.161   2.332  12.871  0.9271  1.6560  0.5236
13016TIP3   OH260462   3.107   5.489  15.335  0.1632 -0.0350  0.3207
13016TIP3    H160463   3.128   5.464  15.245  0.1943 -0.4533  0.4429
13016TIP3    H260464   3.067   5.411  15.373  1.9579 -0.5572  1.2697
13017TIP3   OH260465   0.663   5.309   4.128  0.5020  0.5992  0.1734
13017TIP3    H160466   0.685   5.401   4.143  1.6788  0.6400 -1.5107
13017TIP3    H260467   0.675   5.267   4.213  1.9373  1.6575  0.5314
13018TIP3   OH260468   3.108   1.909   6.843  0.0270  0.0014  0.3794
13018TIP3    H160469   3.179   1.973   6.839  2.5736 -2.6224  0.0656
13018TIP3    H260470   3.066   1.925   6.927 -0.1465  2.6604 -0.1187
13019TIP3   OH260471   0.994   0.594   6.427 -0.4079 -0.0357 -0.0913
13019TIP3    H160472   1.053   0.525   6.394 -0.5239  0.3683 -1.1724
13019TIP3    H260473   0.914   0.547   6.450 -0.2781 -0.3422 -0.2534
13020TIP3   OH260474   4.593   1.827  14.084  0.2031  0.2853  0.1453
13020TIP3    H160475   4.604   1.918  14.110  0.2420  0.3879 -0.2229
13020TIP3    H260476   4.570   1.781  14.165  1.0318  0.4735  0.5055
13021TIP3   OH260477   1.952   2.443   2.756  0.4944  0.2676  0.0607
13021TIP3    H160478   1.914   2.525   2.724  1.7985  0.9152  0.0895
13021TIP3    H260479   1.940   2.381   2.683 -1.0753  0.2728  0.2849
13022TIP3   OH260480   1.241   4.042  15.091  0.1498  0.1486  0.0696
13022TIP3    H160481   1.197   4.119  15.126 -0.6034 -0.1486 -0.1805
13022TIP3    H260482   1.177   4.004  15.030  0.5165 -0.6494  0.1679
13023TIP3   OH260483   4.787   5.622   3.114 -0.3033 -0.5035 -0.7199
13023TIP3    H160484   4.782   5.534   3.079 -0.3846 -0.6234 -0.4118
13023TIP3    H260485   4.881   5.639   3.123 -0.2888 -1.1336  0.6250
13024TIP3   OH260486   4.850   0.786  15.814 -0.4912 -0.1452 -0.3955
13024TIP3    H160487   4.755   0.797  15.810 -0.3966  0.6358 -0.7944
13024TIP3    H260488   4.863   0.695  15.838 -1.3448 -0.1780 -0.0218
13025TIP3   OH260489   3.362   0.373  14.463  0.0891 -0.0296  0.7300
13025TIP3    H160490   3.454   0.349  14.465  0.3672  0.8721 -0.2133
13025TIP3    H260491   3.360   0.464  14.494 -0.7963 -0.7925  3.1012
13026TIP3   OH260492   5.727   5.421  14.341 -0.0633 -0.1759 -0.2235
13026TIP3    H160493   5.688   5.508  14.342 -1.5075 -0.7624  1.2293
13026TIP3    H260494   5.781   5.418  14.262  1.6980  2.7116  0.7498
13027TIP3   OH260495   1.421   1.129   3.126 -0.6066 -0.2596  0.5752
13027TIP3    H160496   1.439   1.207   3.179  2.8511 -0.4302 -0.1566
13027TIP3    H260497   1.421   1.161   3.036  1.8018 -1.1259  0.1942
13028TIP3   OH260498   2.356   1.526   2.433  0.3946 -0.1800  0.3300
13028TIP3    H160499   2.316   1.591   2.375 -0.8741 -0.3426  1.0068
13028TIP3    H260500   2.302   1.448   2.422 -1.2515  0.3977  3.3100
13029TIP3   OH260501   2.016   5.215   4.317  0.3843  0.2248  0.4730
13029TIP3    H160502   1.987   5.304   4.337  0.7093  0.5023 -0.2529
13029TIP3    H260503   2.110   5.223   4.304  0.5887 -0.4340  1.5040
13030TIP3   OH260504   5.843   3.235   2.090  0.4829  0.0737 -0.2328
13030TIP3    H160505   5.855   3.295   2.164 -0.3300 -0.1771  0.1144
13030TIP3    H260506   5.847   3.148   2.130 -2.2889 -0.0632 -0.0432
13031TIP3   OH260507   6.423   2.132   2.136  0.1235 -0.0739 -0.0096
13031TIP3    H160508   6.455   2.206   2.084  1.9494 -0.5920  0.2973
13031TIP3    H260509   6.346   2.166   2.182  1.7890  2.1559  1.3168
13032TIP3   OH260510   5.088   2.357  14.078  0.6025  0.0653 -0.2283
13032TIP3    H160511   5.119   2.305  14.004  0.0338 -1.1018  0.3237
13032TIP3    H260512   4.992   2.346  14.075  0.6006 -0.2974  0.8808
13033TIP3   OH260513   6.736   0.386   3.247  0.2805  0.2772 -0.4649
13033TIP3    H160514   6.643   0.366   3.254  0.5838 -0.6161  1.9343
13033TIP3    H260515   6.745   0.430   3.163 -1.8903 -1.8734 -1.9501
13034TIP3   OH260516   2.376   5.565  11.565  0.3310  0.0821  0.1611
13034TIP3    H160517   2.435   5.629  11.604  2.6346 -1.9424  0.2155
13034TIP3    H260518   2.376   5.586  11.471  0.8782  0.2926  0.2076
13035TIP3   OH260519   3.575   2.025   1.238 -0.4760 -0.4609  0.1009
13035TIP3    H160520   3.532   2.060   1.317 -1.0361 -2.9500  0.9855
13035TIP3    H260521   3.637   1.960   1.271  2.0576  1.0415 -1.3469
13036TIP3   OH260522   2.369   4.181   2.731 -0.5996 -0.3714  0.0404
13036TIP3    H160523   2.367   4.158   2.638  2.0205  0.4653 -0.3133
13036TIP3    H260524   2.280   4.166   2.762 -2.0544  1.1030 -3.0464
13037TIP3   OH260525   1.515   1.107  15.091  0.3634 -0.0864  0.5003
13037TIP3    H160526   1.568   1.069  15.020 -0.0305 -2.1305  1.2381
13037TIP3    H260527   1.440   1.146  15.046  1.1323  0.4608 -0.3482
13038TIP3   OH260528   2.484   0.678  12.149 -0.0424 -0.3771  0.0574
13038TIP3    H160529   2.549   0.674  12.078 -0.8115 -0.5469 -0.6613
13038TIP3    H260530   2.401   0.697  12.104 -0.1383  2.3246  1.1671
13039TIP3   OH260531   4.803   1.814   1.083  0.6083 -0.4706  0.5115
13039TIP3    H160532   4.727   1.826   1.140  0.0840 -2.4753  0.3219
13039TIP3    H260533   4.767   1.811   0.995  1.1262  0.1715  0.2693
13040TIP3   OH260534   3.956   5.529  17.043  0.4086 -0.2681 -0.1649
13040TIP3    H160535   4.028   5.469  17.024  0.2987 -0.5068  0.1590
13040TIP3    H260536   3.893   5.514  16.972  0.9282  0.3435 -0.7574
13041TIP3   OH260537   1.899   3.181   0.912  0.2147  0.0546  0.2600
13041TIP3    H160538   1.984   3.158   0.873 -0.0674  0.8244 -0.8743
13041TIP3    H260539   1.921   3.228   0.992  0.8209 -1.4759  1.0349
13042TIP3   OH260540   0.293   0.103  14.491  0.1379  0.6215  0.2222
13042TIP3    H160541   0.385   0.080  14.505  0.1140  0.7744  0.6663
13042TIP3    H260542   0.252   0.023  14.458  0.2482  0.2917  0.8643
13043TIP3   OH260543   2.298   3.355   4.776 -0.5986 -0.1372  0.4828
13043TIP3    H160544   2.286   3.365   4.681  3.5317 -0.2124 -0.2229
13043TIP3    H260545   2.268   3.267   4.795  1.1299 -1.2243 -1.4074
13044TIP3   OH260546   3.362   5.931  14.220 -0.3708  0.3935  0.3928
13044TIP3    H160547   3.366   5.864  14.152 -0.9284 -0.0280  0.7667
13044TIP3    H260548   3.368   6.014  14.173  1.2287  0.0850 -0.0084
13045TIP3   OH260549   6.663   0.311   0.860  0.3436  0.1744 -0.2170
13045TIP3    H160550   6.638   0.388   0.911 -2.0894 -0.7621  0.1575
13045TIP3    H260551   6.660   0.238   0.923  2.3227 -0.3283 -0.6177
13046TIP3   OH260552   6.239   0.358   5.006  0.2428 -0.5597  0.6525
13046TIP3    H160553   6.330   0.362   5.036  0.4319 -0.1105  0.0524
13046TIP3    H260554   6.220   0.447   4.976 -0.8379 -0.3103  2.0124
13047TIP3   OH260555   4.587   0.357  13.649  0.4697  0.6245  0.2359
13047TIP3    H160556   4.676   0.321  13.647  0.0947 -0.3167 -1.2969
13047TIP3    H260557   4.599   0.450  13.665  1.9011  0.8372 -1.6851
13048TIP3   OH260558   2.845   5.757  15.105  0.0815  0.1534  0.1190
13048TIP3    H160559   2.812   5.846  15.095  1.9133  0.5584 -5.2623
13048TIP3    H260560   2.776   5.701  15.069 -0.7328 -0.7417  2.7771
13049TIP3   OH260561   3.339   3.931   0.817  0.2038 -0.1762  0.1494
13049TIP3    H160562   3.305   3.929   0.728 -1.9643 -1.8946  0.9257
13049TIP3    H260563   3.292   4.003   0.859  1.1083  0.5304 -0.0073
13050TIP3   OH260564   4.765   0.358   3.839  0.4131 -0.2264 -0.5510
13050TIP3    H160565   4.808   0.438   3.811  2.3028  0.2128  3.0241
13050TIP3    H260566   4.672   0.375   3.825  0.9654  0.8860 -3.6414
13051TIP3   OH260567   6.059   4.346   2.491  0.6367 -0.0168  0.0267
13051TIP3    H160568   6.122   4.315   2.427  1.3992  1.6646 -0.0867
13051TIP3    H260569   6.035   4.433   2.461  1.0729  0.8464  2.0415
13052TIP3   OH260570   5.895   1.838  13.056  0.1637  0.3598 -0.4883
13052TIP3    H160571   5.857   1.875  12.977 -0.4257  0.3280 -0.2292
13052TIP3    H260572   5.928   1.914  13.105 -0.2686  0.4683 -0.3585
13053TIP3   OH260573   6.509   6.473  12.105 -0.0881 -0.1367 -0.0271
13053TIP3    H160574   6.518   6.567  12.089 -0.9227  0.1846  1.1854
13053TIP3    H260575   6.501   6.434  12.018 -0.4279  1.0078 -0.5262
13054TIP3   OH260576   2.472   5.211  16.093 -0.2084 -0.1589  0.0195
13054TIP3    H160577   2.414   5.148  16.052 -0.7427 -0.1827  0.7870
13054TIP3    H260578   2.539   5.230  16.027 -0.2693 -1.2204 -0.3526
13055TIP3   OH260579   1.341   2.223   3.398  0.2250  0.2984  0.4748
13055TIP3    H160580   1.391   2.173   3.334 -0.2875  0.1806  0.1645
13055TIP3    H260581   1.314   2.302   3.351  0.4846  0.5699  0.7722
13056TIP3   OH260582   3.569   5.931   4.936 -0.0700  0.3366  0.6223
13056TIP3    H160583   3.556   5.862   5.000 -0.7320  0.0504  0.1904
13056TIP3    H260584   3.630   5.894   4.872 -1.2605 -0.2672 -0.1986
13057TIP3   OH260585   2.987   3.867  16.102 -0.4991  0.4439  0.6510
13057TIP3    H160586   2.932   3.942  16.079 -1.3544  0.1935  1.7807
13057TIP3    H260587   2.986   3.812  16.023  0.9915  2.0560 -0.5652
13058TIP3   OH260588   6.074   0.747   2.980  0.1293  0.0808 -0.0586
13058TIP3    H160589   6.081   0.652   2.968  0.8468  0.0368  0.6621
13058TIP3    H260590   5.980   0.763   2.987  0.0292 -0.6397  0.3212
13059TIP3   OH260591   1.083   5.331  15.595  0.5140 -0.0896  0.3094
13059TIP3    H160592   1.033   5.278  15.657  0.6745 -1.2171 -0.4901
13059TIP3    H260593   1.174   5.318  15.620  0.4981  2.1452  1.9112
13060TIP3   OH260594   4.902   1.409   1.790 -0.1977 -0.2469 -0.3724
13060TIP3    H160595   4.844   1.368   1.726 -1.7329  1.5948 -0.2574
13060TIP3    H260596   4.934   1.488   1.746  1.0927 -0.4812  0.1067
13061TIP3   OH260597   6.258   5.057   2.262  0.1390 -0.5461 -0.3103
13061TIP3    H160598   6.249   5.060   2.358  1.8830 -1.5002 -0.0740
13061TIP3    H260599   6.170   5.073   2.230 -0.6389 -0.9169  1.4783
13062TIP3   OH260600   3.404   3.916  11.611 -0.1471 -0.0963  0.0409
13062TIP3    H160601   3.495   3.899  11.636  0.0242  0.2463 -0.3419
13062TIP3    H260602   3.373   3.832  11.577  0.7485  0.3456 -2.0112
13063TIP3   OH260603   3.249   0.084  11.184  0.1975 -0.4044 -0.1445
13063TIP3    H160604   3.306   0.023  11.231 -1.6827 -1.2931  1.1415
13063TIP3    H260605   3.196   0.125  11.253 -1.1256 -0.0899 -1.3030
13064TIP3   OH260606   6.481   2.152   4.678 -0.0628  0.0932  0.5007
13064TIP3    H160607   6.557   2.191   4.721 -0.8105  1.4442  0.6872
13064TIP3    H260608   6.485   2.059   4.699  2.4428 -0.1927 -0.9123
13065TIP3   OH260609   4.046   0.291  12.034 -0.1743 -0.6806 -0.0572
13065TIP3    H160610   4.113   0.320  12.096 -0.5755 -0.5778  0.3277
13065TIP3    H260611   3.992   0.230  12.083  0.0085 -1.2468 -0.5531
13066TIP3   OH260612   3.571   2.705  16.317  0.1794  0.6839 -0.4501
13066TIP3    H160613   3.642   2.653  16.279  0.3899  0.1498  0.6137
13066TIP3    H260614   3.594   2.796  16.298 -0.8013  0.4240 -3.3998
13067TIP3   OH260615   2.618   5.726  11.351 -0.2388 -0.3078 -0.2004
13067TIP3    H160616   2.643   5.682  11.269 -0.1073  2.2574 -1.6437
13067TIP3    H260617   2.535   5.770  11.330 -0.8900 -0.6720  1.4870
13068TIP3   OH260618   3.387   1.428  14.106  0.0635  0.0072  0.4712
13068TIP3    H160619   3.327   1.368  14.062 -0.6562  0.7466  0.4262
13068TIP3    H260620   3.404   1.386  14.191  1.3445 -1.3494 -0.3955
13069TIP3   OH260621   5.754   0.416  15.859  0.0840 -0.6668 -0.6198
13069TIP3    H160622   5.704   0.468  15.795  0.0546 -1.6116 -1.3884
13069TIP3    H260623   5.805   0.480  15.907 -0.6245  0.1631 -0.9482
13070TIP3   OH260624   4.819   5.365  16.870  0.5649  0.3582 -0.6043
13070TIP3    H160625   4.818   5.347  16.776 -0.2621  0.8128 -0.6943
13070TIP3    H260626   4.815   5.279  16.911 -1.8371  0.1911 -1.0175
13071TIP3   OH260627   0.339   4.122   1.357  0.6336  0.1545 -0.3987
13071TIP3    H160628   0.343   4.180   1.433  1.3286 -2.2254  1.5112
13071TIP3    H260629   0.375   4.039   1.388  1.4295 -0.8074 -3.4993
13072TIP3   OH260630   1.675   5.728   1.475  0.3128  0.2674 -0.0644
13072TIP3    H160631   1.596   5.682   1.501  1.0981 -0.5960  0.8784
13072TIP3    H260632   1.658   5.755   1.385 -0.8496 -0.3467 -0.0486
13073TIP3   OH260633   6.709   5.745   5.886 -0.0337 -0.0148 -0.1312
13073TIP3    H160634   6.694   5.677   5.819 -0.2553  0.4320 -0.5430
13073TIP3    H260635   6.663   5.713   5.963 -0.1797 -0.3133 -0.3395
13074TIP3   OH260636   1.758   4.534  16.371  0.0742  0.1088  0.1859
13074TIP3    H160637   1.851   4.509  16.365  0.2853  0.7893  0.5267
13074TIP3    H260638   1.745   4.594  16.299  0.1580  0.7798  0.7166
13075TIP3   OH260639   6.046   2.913   4.650  0.4140 -0.7914  0.5265
13075TIP3    H160640   6.130   2.945   4.683  1.2577 -1.4832 -0.8795
13075TIP3    H260641   6.066   2.872   4.566 -1.3966 -0.6329 -0.0388
13076TIP3   OH260642   4.880   4.024   0.419 -0.2405  0.0032  0.2788
13076TIP3    H160643   4.953   4.082   0.439  0.3429  0.0650 -1.7369
13076TIP3    H260644   4.914   3.936   0.432  1.0475 -0.0813 -2.7456
13077TIP3   OH260645   6.599   3.995  14.828 -0.3137 -0.4924 -0.0382
13077TIP3    H160646   6.693   3.999  14.847 -0.1220 -1.1106 -0.8325
13077TIP3    H260647   6.561   3.950  14.904  0.1163 -0.7953  0.0011
13078TIP3   OH260648   4.688   2.333  16.340 -0.0075  0.3433 -0.0714
13078TIP3    H160649   4.734   2.260  16.382 -1.3951 -0.0442  0.8062
13078TIP3    H260650   4.635   2.292  16.272  0.8559  0.7929 -1.0601
13079TIP3   OH260651   1.834   2.172  11.022  0.1099 -0.1557  0.1883
13079TIP3    H160652   1.883   2.127  10.954 -2.1234 -1.2195 -0.8392
13079TIP3    H260653   1.898   2.228  11.066  2.1869 -1.4606 -1.0134
13080TIP3   OH260654   1.768   3.023   3.080 -0.0111  0.2975 -0.2649
13080TIP3    H160655   1.761   2.934   3.048  0.6175  0.7988 -1.8821
13080TIP3    H260656   1.696   3.032   3.143 -0.2255 -1.2545 -0.2689
13081TIP3   OH260657   0.683   6.184  12.034  0.4155 -0.7519  0.2464
13081TIP3    H160658   0.753   6.122  12.014  1.4368  0.1626  0.8480
13081TIP3    H260659   0.715   6.232  12.110  0.4905  1.7150 -1.2420
13082TIP3   OH260660   5.810   5.681  17.117 -0.4536 -0.4825  0.4289
13082TIP3    H160661   5.763   5.685  17.034  0.8618  2.3268 -0.2963
13082TIP3    H260662   5.746   5.648  17.180 -1.7673 -1.7590 -1.4739
13083TIP3   OH260663   5.920   0.384   5.952  0.4449 -0.1441 -0.6173
13083TIP3    H160664   5.882   0.361   6.037  0.1713 -1.8550 -1.1605
13083TIP3    H260665   5.942   0.477   5.960  0.2774 -0.2220  1.2573
13084TIP3   OH260666   6.689   1.425   2.497 -0.0442  0.0848  0.1156
13084TIP3    H160667   6.616   1.408   2.557 -0.1019 -1.1474 -0.2706
13084TIP3    H260668   6.766   1.392   2.543  0.3167  1.5523  0.5994
13085TIP3   OH260669   2.730   2.610  14.596 -0.8552  0.2643  0.5936
13085TIP3    H160670   2.769   2.575  14.515 -2.4913  0.3161 -0.2603
13085TIP3    H260671   2.802   2.611  14.658  0.6019  0.6995 -1.0093
13086TIP3   OH260672   2.893   1.525  13.311  0.2269 -0.4316  0.2282
13086TIP3    H160673   2.799   1.542  13.304  0.1337 -0.2190  1.6948
13086TIP3    H260674   2.932   1.612  13.315  0.3201 -0.5115  1.3313
13087TIP3   OH260675   4.135   2.953  12.114  0.4081  0.1025  0.3325
13087TIP3    H160676   4.228   2.937  12.126  0.2825 -0.3660  0.7025
13087TIP3    H260677   4.127   2.978  12.021  1.0578  1.3562  0.5793
13088TIP3   OH260678   2.592   0.905  16.430  0.0508  1.1434 -0.0866
13088TIP3    H160679   2.507   0.876  16.397 -0.3293  2.3394 -0.2100
13088TIP3    H260680   2.590   1.000  16.420  1.6274  1.1526 -0.6156
13089TIP3   OH260681   1.631   5.446   0.315  0.0487  0.1757  0.2600
13089TIP3    H160682   1.573   5.519   0.289 -1.1357 -0.2845  1.4863
13089TIP3    H260683   1.694   5.486   0.375  0.2912  0.4628 -0.1823
13090TIP3   OH260684   2.105   2.857  16.405 -0.1755  0.3259  0.2621
13090TIP3    H160685   2.036   2.797  16.436 -0.7915  0.4242 -0.8816
13090TIP3    H260686   2.121   2.914  16.480 -1.5516  0.4826  0.4651
13091TIP3   OH260687   4.049   4.855   5.859 -0.7447  0.1642  0.3121
13091TIP3    H160688   4.022   4.770   5.893 -1.9221 -0.0149 -0.9996
13091TIP3    H260689   4.093   4.898   5.933 -1.9167 -0.7701  1.5883
13092TIP3   OH260690   4.510   3.498   4.802  0.2890 -0.0507 -0.2800
13092TIP3    H160691   4.517   3.562   4.873 -0.1024  0.5006 -0.7267
13092TIP3    H260692   4.524   3.549   4.722  2.0655 -0.8939 -0.5526
13093TIP3   OH260693   1.184   2.223  17.280 -0.1355 -0.1579 -0.2124
13093TIP3    H160694   1.151   2.286  17.216  0.8574  0.1424 -0.4597
13093TIP3    H260695   1.279   2.223  17.266  0.0399 -0.5061  0.8930
13094TIP3   OH260696   5.314   3.145   2.606  0.0061  0.0678 -0.6470
13094TIP3    H160697   5.330   3.210   2.675  0.6235 -0.6620 -0.0670
13094TIP3    H260698   5.397   3.096   2.601  1.3714  2.3369 -4.4300
13095TIP3   OH260699   3.349   4.460  13.004 -0.1021  0.4740  0.1746
13095TIP3    H160700   3.376   4.485  12.916 -2.1564 -1.0817 -0.9919
13095TIP3    H260701   3.411   4.393  13.030 -0.0169  0.2855 -0.4918
13096TIP3   OH260702   2.858   5.216  16.313  0.2471  0.0432  0.5655
13096TIP3    H160703   2.896   5.132  16.336  0.0175 -0.8505 -1.9840
13096TIP3    H260704   2.764   5.200  16.308  0.2707  0.2011 -0.7441
13097TIP3   OH260705   0.686   0.122  10.783 -0.0434  0.2130  0.3835
13097TIP3    H160706   0.615   0.102  10.722  0.1652  0.3747  0.0833
13097TIP3    H260707   0.737   0.041  10.788  0.3023  0.3919 -0.1554
13098TIP3   OH260708   0.746   4.852   3.964  0.2945  0.2552  0.5630
13098TIP3    H160709   0.717   4.832   3.875 -1.2289 -0.6404  1.2326
13098TIP3    H260710   0.680   4.913   3.997  1.0400  0.8553  0.9769
13099TIP3   OH260711   0.274   3.341  14.450  0.0659 -0.1924 -0.3204
13099TIP3    H160712   0.368   3.356  14.450  0.0148  0.1576 -0.6799
13099TIP3    H260713   0.252   3.321  14.359 -0.0201 -1.5544 -0.0142
13100TIP3   OH260714   2.737   6.739  11.281  0.0433  0.2765 -0.4513
13100TIP3    H160715   2.664   6.720  11.223 -0.2193 -1.6325  0.4381
13100TIP3    H260716   2.723   6.681  11.356  1.1932  1.5760  0.8185
13101TIP3   OH260717   2.575   2.731  11.815 -0.2224  0.1092 -0.2770
13101TIP3    H160718   2.659   2.699  11.781 -0.2562 -0.7384  0.4078
13101TIP3    H260719   2.595   2.760  11.904 -0.4525  0.8539 -0.4678
13102TIP3   OH260720   5.895   6.667  12.104 -0.6009  0.4725  0.8725
13102TIP3    H160721   5.885   6.578  12.139 -0.0010 -0.0625 -0.2540
13102TIP3    H260722   5.897   6.655  12.009  4.2232  1.0675  0.6573
13103TIP3   OH260723   3.747   3.284  13.638  0.3295  0.0217  0.2358
13103TIP3    H160724   3.675   3.310  13.695 -0.6147 -0.1990 -0.8125
13103TIP3    H260725   3.826   3.316  13.682 -0.5387  1.8940  0.4916
13104TIP3   OH260726   5.286   1.607  13.639 -0.0267 -0.4839  0.0866
13104TIP3    H160727   5.250   1.540  13.581  0.1393 -0.7193  0.2517
13104TIP3    H260728   5.366   1.637  13.596 -1.3222  1.3657 -1.2159
13105TIP3   OH260729   4.016   5.218  15.319  0.0494 -0.3739 -0.0365
13105TIP3    H160730   4.035   5.189  15.408 -0.6402 -2.6380 -0.5618
13105TIP3    H260731   4.020   5.139  15.266 -0.7642  0.7099 -1.8296
13106TIP3   OH260732   4.915   2.215   6.273  0.2787 -0.6600 -0.6861
13106TIP3    H160733   4.864   2.239   6.350 -1.7817  0.1638 -2.2177
13106TIP3    H260734   4.992   2.170   6.308 -0.8378 -0.7848  1.7990
13107TIP3   OH260735   0.031   4.881  16.708 -0.3671 -0.4492  0.2449
13107TIP3    H160736   0.063   4.831  16.633 -0.0198 -1.4490  1.0459
13107TIP3    H260737  -0.065   4.880  16.698 -0.3938 -1.6412  0.4563
13108TIP3   OH260738   0.453   3.670  14.437 -0.3239 -0.1262 -0.8251
13108TIP3    H160739   0.514   3.726  14.390  2.3623 -1.0307  1.3044
13108TIP3    H260740   0.394   3.731  14.482 -0.2393  0.8163 -1.9405
13109TIP3   OH260741   1.182   5.803  11.350  0.3368  0.1118 -0.2663
13109TIP3    H160742   1.217   5.764  11.270 -1.2009 -2.5171  0.2169
13109TIP3    H260743   1.248   5.785  11.417 -0.0388 -1.1298 -0.2028
13110TIP3   OH260744   5.816   4.798   1.207  0.2778 -0.2939  0.0144
13110TIP3    H160745   5.792   4.860   1.138 -0.3209 -1.0585 -0.4749
13110TIP3    H260746   5.781   4.714   1.178 -0.3902 -0.5520  1.4550
13111TIP3   OH260747   1.294   2.472   3.302  0.3876 -0.3385  0.1889
13111TIP3    H160748   1.302   2.513   3.388 -0.2900  1.6093 -0.6362
13111TIP3    H260749   1.219   2.515   3.261  1.7166  0.0225 -2.0415
13112TIP3   OH260750   1.567   4.019   3.131  0.6254 -1.1596  0.2847
13112TIP3    H160751   1.559   4.097   3.186 -1.3236 -1.8746  1.1029
13112TIP3    H260752   1.561   4.052   3.042  1.9588 -0.1778  0.5242
13113TIP3   OH260753   4.672   4.404   2.663 -0.0786 -0.0233 -0.4182
13113TIP3    H160754   4.644   4.392   2.572  0.8339  1.0061 -0.8474
13113TIP3    H260755   4.735   4.334   2.678  0.9758  0.7529 -1.1098
13114TIP3   OH260756   0.287   1.204   4.998  0.0636 -0.2640  0.6175
13114TIP3    H160757   0.354   1.204   5.067  0.4961  0.8147  0.2175
13114TIP3    H260758   0.265   1.111   4.986  1.8411 -0.6970  0.4143
13115TIP3   OH260759   0.863   6.745   1.495 -0.1197 -0.2177  0.4371
13115TIP3    H160760   0.875   6.834   1.460 -0.6226  0.0466  0.9294
13115TIP3    H260761   0.952   6.711   1.504  0.0418 -0.4964 -1.5876
13116TIP3   OH260762   6.162   1.486   4.679  0.1038 -0.5468 -0.1020
13116TIP3    H160763   6.179   1.401   4.640 -1.6614 -0.5105 -1.0454
13116TIP3    H260764   6.146   1.468   4.771 -0.3590 -1.2501 -0.3175
13117TIP3   OH260765   0.310   5.076   0.630  0.0271 -0.2797  0.0818
13117TIP3    H160766   0.235   5.046   0.680  0.7128 -1.1143  0.6438
13117TIP3    H260767   0.288   5.057   0.539 -1.5566  1.9497 -0.0740
13118TIP3   OH260768   1.522   3.749   1.294 -0.3412  0.0912  0.3746
13118TIP3    H160769   1.481   3.804   1.361  0.4554  0.3724  0.6427
13118TIP3    H260770   1.557   3.674   1.342  0.4805  0.4329  0.3262
13119TIP3   OH260771   1.910   0.481   0.280  0.5814 -0.2479  0.5845
13119TIP3    H160772   1.881   0.457   0.368 -1.5943 -2.1629 -0.5556
13119TIP3    H260773   1.895   0.575   0.275 -0.8377 -0.3803  1.7463
13120TIP3   OH260774   4.977   2.888  11.954  0.3282 -0.3995  0.6084
13120TIP3    H160775   4.905   2.945  11.929  1.8599  0.6607 -1.8034
13120TIP3    H260776   4.945   2.840  12.030 -3.0728 -0.3323 -0.6080
13121TIP3   OH260777   6.045   5.602   2.293 -0.0737 -0.0610 -0.2106
13121TIP3    H160778   5.953   5.580   2.310  0.1397 -0.2471  0.7173
13121TIP3    H260779   6.091   5.518   2.295 -0.0907 -0.1901 -2.2771
13122TIP3   OH260780   5.084   4.391  16.097  0.6378 -0.1198  0.0972
13122TIP3    H160781   5.040   4.309  16.077  1.8894 -0.3830 -1.9468
13122TIP3    H260782   5.022   4.440  16.151 -1.4461 -1.1057 -1.2943
13123TIP3   OH260783   3.498   6.565   0.548  0.3100  0.0453 -0.0240
13123TIP3    H160784   3.517   6.626   0.619 -1.6504  2.2615 -1.2451
13123TIP3    H260785   3.448   6.495   0.589 -1.4483  1.6524  0.7531
13124TIP3   OH260786   1.673   1.864   2.170 -0.2332 -0.9355 -0.3305
13124TIP3    H160787   1.761   1.831   2.153  0.0575  0.3987 -1.6828
13124TIP3    H260788   1.663   1.936   2.108 -2.0079 -0.5853  0.3177
13125TIP3   OH260789   3.352   5.932   5.792 -0.1094 -0.2388  0.1286
13125TIP3    H160790   3.259   5.937   5.769 -0.4764  0.2055  1.5925
13125TIP3    H260791   3.385   5.857   5.744 -0.6442  0.9892 -2.3015
13126TIP3   OH260792   4.126   0.899  16.930 -0.2036 -0.3940 -0.1472
13126TIP3    H160793   4.163   0.855  17.007 -1.1811 -0.3402  0.3786
13126TIP3    H260794   4.176   0.865  16.856  1.9530  0.8547  0.6539
13127TIP3   OH260795   2.374   1.823  11.264  0.9844 -0.4920 -0.1739
13127TIP3    H160796   2.444   1.887  11.277  0.8213  0.2358 -2.4335
13127TIP3    H260797   2.418   1.738  11.267  1.8043 -0.0929 -0.5743
13128TIP3   OH260798   5.061   3.752  10.897 -0.4474 -0.3671 -0.0932
13128TIP3    H160799   5.107   3.678  10.936 -0.1130  0.2842  0.7722
13128TIP3    H260800   4.968   3.727  10.901 -0.5226  0.1041  2.0902
13129TIP3   OH260801   5.682   0.711  12.464 -0.4507  0.2862  0.0835
13129TIP3    H160802   5.726   0.682  12.384  2.2230  1.1289  1.1528
13129TIP3    H260803   5.647   0.797  12.442 -0.2148  0.2761 -0.3412
13130TIP3   OH260804   1.059   3.381   5.477  0.4349 -0.3809  1.2574
13130TIP3    H160805   1.015   3.437   5.540  0.5212  1.3717 -0.1485
13130TIP3    H260806   0.988   3.345   5.424  0.4924  2.2482 -0.8489
13131TIP3   OH260807   3.981   2.617   3.506 -0.2741  0.0823  0.5222
13131TIP3    H160808   3.958   2.530   3.473 -1.1771  0.3429  0.4366
13131TIP3    H260809   3.897   2.655   3.533  0.1659  0.7654  0.9509
13132TIP3   OH260810   1.517   1.076  10.921 -0.0871  0.7811 -0.2998
13132TIP3    H160811   1.598   1.124  10.905 -0.4223  1.6734  0.5400
13132TIP3    H260812   1.451   1.145  10.932 -0.9357  0.0770 -0.8203
13133TIP3   OH260813   4.851   4.085  15.453 -0.4613  0.5902 -0.0556
13133TIP3    H160814   4.873   4.149  15.386 -2.1797  1.7033  0.3663
13133TIP3    H260815   4.831   4.138  15.531 -1.1261 -0.4882  0.5384
13134TIP3   OH260816   2.138   3.731   0.769  0.2626 -0.2798  0.1592
13134TIP3    H160817   2.196   3.723   0.844 -1.2424  3.8207  2.0613
13134TIP3    H260818   2.191   3.775   0.702 -0.1498  2.3806  1.4629
13135TIP3   OH260819   1.913   0.080  13.029  0.2828 -0.4215  0.2454
13135TIP3    H160820   1.832   0.126  13.010  1.0725  1.3272  0.9202
13135TIP3    H260821   1.962   0.140  13.085  1.2650 -2.2025  1.3882
13136TIP3   OH260822   6.097   2.627  16.504  0.2073 -0.0245 -0.8679
13136TIP3    H160823   6.109   2.532  16.512 -0.3070 -0.1228 -1.1746
13136TIP3    H260824   6.015   2.636  16.455 -0.6451  0.5777  0.5837
13137TIP3   OH260825   6.289   5.436   3.660 -0.0114 -0.1582  0.1718
13137TIP3    H160826   6.264   5.408   3.747 -1.0671  2.3059  0.7322
13137TIP3    H260827   6.382   5.413   3.653 -0.8423 -4.1718  0.2665
13138TIP3   OH260828   5.515   5.647   5.605 -0.1352  0.6215 -0.5032
13138TIP3    H160829   5.439   5.618   5.656 -0.3626 -1.2625 -1.8246
13138TIP3    H260830   5.580   5.671   5.671 -0.1380 -2.4433  0.7705
13139TIP3   OH260831   0.579   6.004   3.010  0.0507 -0.1288 -0.6728
13139TIP3    H160832   0.620   6.083   3.046 -0.0872  0.2717 -1.3846
13139TIP3    H260833   0.491   6.031   2.987  0.5076 -0.0295 -2.4560
13140TIP3   OH260834   4.718   5.768   4.670  0.1984 -0.1936  0.2530
13140TIP3    H160835   4.713   5.836   4.738  0.0383  0.3293 -0.2780
13140TIP3    H260836   4.743   5.689   4.718  1.4334  0.4615  0.7411
13141TIP3   OH260837   4.809   2.766  12.130  0.0446  0.2621  0.4176
13141TIP3    H160838   4.730   2.718  12.106  0.8007 -0.7899 -0.0874
13141TIP3    H260839   4.859   2.705  12.184  1.8091 -0.2510 -1.6068
13142TIP3   OH260840   4.675   1.072  13.697  0.3449  0.1021  0.4111
13142TIP3    H160841   4.656   1.156  13.655  1.0544 -0.0312 -0.1975
13142TIP3    H260842   4.595   1.020  13.684 -0.3344  0.8890  1.3440
13143TIP3   OH260843   6.286   0.120   4.203 -0.0641 -0.1015  0.1212
13143TIP3    H160844   6.245   0.124   4.290  0.0057  2.3666  0.1032
13143TIP3    H260845   6.372   0.082   4.219  1.5397  3.7264  1.9343
13144TIP3   OH260846   3.158   6.570   0.070  0.7213  0.6318 -0.1174
13144TIP3    H160847   3.072   6.532   0.052  0.2646  0.6396  1.8500
13144TIP3    H260848   3.188   6.604  -0.015 -0.4882 -0.7921 -1.1624
13145TIP3   OH260849   3.945   3.041   5.241  0.1660 -0.1045 -0.0304
13145TIP3    H160850   3.869   3.066   5.293 -1.0194 -0.4547 -1.5003
13145TIP3    H260851   4.000   2.990   5.300  0.6265  2.3865  1.8453
13146TIP3   OH260852   3.703   0.221   0.836  0.0274 -0.0307 -0.3426
13146TIP3    H160853   3.704   0.288   0.767 -0.8664  0.5106  0.1521
13146TIP3    H260854   3.611   0.202   0.849 -0.0339  1.6593  2.3907
13147TIP3   OH260855   1.785   4.071   0.417  0.0151 -0.1646  0.1195
13147TIP3    H160856   1.844   3.995   0.409  0.6703  0.4301 -1.0815
13147TIP3    H260857   1.843   4.147   0.411 -0.7552  0.4320  0.0880
13148TIP3   OH260858   5.089   0.311  11.186 -0.1198  0.1885 -0.2116
13148TIP3    H160859   5.148   0.328  11.113 -1.1908  0.7811 -0.9661
13148TIP3    H260860   5.003   0.297  11.145 -0.9454  1.5226  0.9804
13149TIP3   OH260861   5.679   5.602   6.838 -0.0514 -0.7608  0.2008
13149TIP3    H160862   5.705   5.637   6.753 -1.4668 -0.0866  0.0224
13149TIP3    H260863   5.762   5.579   6.881  0.7852  0.4684 -0.6799
13150TIP3   OH260864   6.299   0.240   0.813 -0.1399  0.2289  0.2355
13150TIP3    H160865   6.247   0.311   0.850  1.0038  0.3692  1.6777
13150TIP3    H260866   6.285   0.167   0.874 -0.3258 -0.4011 -0.5488
13151TIP3   OH260867   0.820   3.639  15.270 -0.1607 -0.3036 -0.1293
13151TIP3    H160868   0.835   3.677  15.183 -1.8208  0.6925 -0.0237
13151TIP3    H260869   0.756   3.697  15.311  1.7575  0.2326  2.4206
13152TIP3   OH260870   2.157   3.243  13.188 -0.7882  0.4486  0.5331
13152TIP3    H160871   2.101   3.194  13.127 -1.2868 -0.0078  1.3324
13152TIP3    H260872   2.176   3.181  13.257  1.5509  0.2950 -0.1867
13153TIP3   OH260873   5.122   0.026  10.668 -0.4759  0.6248 -0.5353
13153TIP3    H160874   5.095  -0.065  10.680 -1.1662  0.8448 -0.3762
13153TIP3    H260875   5.217   0.024  10.675 -0.4888 -0.0810 -0.5082
13154TIP3   OH260876   0.466   2.884  16.635  0.1112  0.3170 -0.2833
13154TIP3    H160877   0.434   2.836  16.559 -1.0305 -0.4561  0.6482
13154TIP3    H260878   0.536   2.940  16.601  0.3412 -0.7833 -1.6992
13155TIP3   OH260879   6.349   0.851   4.166  0.0534 -0.6292 -0.0132
13155TIP3    H160880   6.329   0.763   4.198  0.4900 -0.7547 -0.0831
13155TIP3    H260881   6.366   0.902   4.246  0.1237 -0.6902  0.0109
13156TIP3   OH260882   6.473   3.975   6.312 -0.8011 -0.2454  0.1503
13156TIP3    H160883   6.399   4.030   6.336 -0.4147  0.7231 -0.8037
13156TIP3    H260884   6.515   3.953   6.396 -0.8159  1.1426  0.5360
13157TIP3   OH260885   1.967   1.390   0.753  0.0637 -0.1246  0.0520
13157TIP3    H160886   2.056   1.385   0.718  1.0460 -0.8689  2.4685
13157TIP3    H260887   1.976   1.435   0.837 -1.5562 -1.5873  1.0834
13158TIP3   OH260888   0.634   1.006   3.643 -0.1663  0.2007  0.5014
13158TIP3    H160889   0.710   0.948   3.642  0.2874  0.7592 -1.4608
13158TIP3    H260890   0.568   0.960   3.590 -0.8310  0.2105  1.2935
13159TIP3   OH260891   4.421   5.825   1.757  0.2637 -0.3618  0.3084
13159TIP3    H160892   4.413   5.908   1.711 -1.9062 -0.1309  1.0083
13159TIP3    H260893   4.444   5.762   1.688 -1.2858  0.2673 -0.8491
13160TIP3   OH260894   1.716   2.405  13.067  0.0062  1.2037 -0.1711
13160TIP3    H160895   1.678   2.489  13.090  2.8398  2.4581  0.3578
13160TIP3    H260896   1.707   2.400  12.971 -2.7717  0.6474  0.0273
13161TIP3   OH260897   2.694   1.897   0.679  0.2495  0.5528  0.6771
13161TIP3    H160898   2.643   1.978   0.685  0.7522  0.8306  1.3666
13161TIP3    H260899   2.732   1.886   0.766  0.7799 -0.0406  0.3797
13162TIP3   OH260900   2.376   1.569   6.320  0.0085  0.5230 -0.0120
13162TIP3    H160901   2.412   1.592   6.234  1.5676 -0.2875  0.3894
13162TIP3    H260902   2.286   1.541   6.301 -0.2593  2.0227 -1.1321
13163TIP3   OH260903   1.079   4.576  13.508  0.0930 -0.0994 -0.3292
13163TIP3    H160904   1.057   4.513  13.577 -4.3562 -0.0822 -1.4412
13163TIP3    H260905   1.095   4.522  13.431  3.7908 -0.0483  0.2417
13164TIP3   OH260906   6.375   1.075   2.935  0.3630  0.2355  0.0383
13164TIP3    H160907   6.376   0.982   2.959 -2.6866  0.3345  0.9489
13164TIP3    H260908   6.320   1.079   2.856 -3.1297  1.5309  2.2901
13165TIP3   OH260909   5.256   0.900  16.668  0.0231 -0.3156  0.6822
13165TIP3    H160910   5.301   0.863  16.744 -0.6886 -0.8104  0.8772
13165TIP3    H260911   5.167   0.916  16.699 -0.4539 -1.1172 -0.2241
13166TIP3   OH260912   4.633   1.170   0.992 -0.9866 -0.4745 -0.1179
13166TIP3    H160913   4.603   1.218   0.914 -2.0538 -0.0519  0.5383
13166TIP3    H260914   4.565   1.104   1.007 -0.6211 -0.7651  0.2640
13167TIP3   OH260915   3.790   5.974  14.923 -0.0458 -0.4255 -0.3491
13167TIP3    H160916   3.747   5.888  14.928  1.2771 -1.1619 -0.8473
13167TIP3    H260917   3.731   6.027  14.870 -1.2608 -0.7781  0.6104
13168TIP3   OH260918   5.826   1.048  11.654  0.0216  0.0248 -0.2663
13168TIP3    H160919   5.774   1.129  11.646 -0.0648 -0.1239 -1.3276
13168TIP3    H260920   5.867   1.055  11.740 -3.0148 -0.6028  1.3717
13169TIP3   OH260921   4.818   4.123  15.777  0.6650  0.4800 -0.3044
13169TIP3    H160922   4.761   4.049  15.797  1.9712 -0.7231 -0.9022
13169TIP3    H260923   4.875   4.131  15.854 -0.9188  2.3601  0.7690
13170TIP3   OH260924   1.510   0.480   1.709 -0.6241  0.1374 -0.3390
13170TIP3    H160925   1.486   0.403   1.658 -0.8766 -0.5242  0.7404
13170TIP3    H260926   1.596   0.506   1.676 -0.5183 -0.6353 -0.6735
13171TIP3   OH260927   5.668   0.455  15.534  0.0244  0.3749  0.3610
13171TIP3    H160928   5.677   0.548  15.554 -0.6941  0.4718  0.2912
13171TIP3    H260929   5.671   0.451  15.439  0.6052  0.2593  0.3846
13172TIP3   OH260930   3.148   3.226   4.847  0.5035 -0.2231  0.0257
13172TIP3    H160931   3.094   3.153   4.818 -1.0526  0.6124  0.7450
13172TIP3    H260932   3.091   3.302   4.840  2.0566  0.9356 -0.5869
13173TIP3   OH260933   3.672   3.948  16.707  0.2057 -0.1928  0.2375
13173TIP3    H160934   3.731   3.878  16.735  0.0167 -0.2082  0.6075
13173TIP3    H260935   3.725   4.027  16.708  1.0071 -0.6174 -2.2133
13174TIP3   OH260936   1.255   5.477  14.626  0.2705  0.5877 -0.2918
13174TIP3    H160937   1.231   5.390  14.594 -0.0930  1.2992 -2.0781
13174TIP3    H260938   1.334   5.462  14.679  0.7516 -0.7214 -1.3142
13175TIP3   OH260939   3.844   6.204   6.090  0.1584  0.3647 -0.0753
13175TIP3    H160940   3.773   6.155   6.131  1.0799  0.1005  1.2769
13175TIP3    H260941   3.904   6.137   6.058  1.6689  0.5054  2.2187
13176TIP3   OH260942   3.894   5.039  16.660 -0.3393 -0.0339  0.2528
13176TIP3    H160943   3.973   5.090  16.680 -0.5086  0.8897 -1.2654
13176TIP3    H260944   3.864   5.008  16.745  0.5873  1.2140  1.0829
13177TIP3   OH260945   5.402   1.283  15.929 -0.0012 -0.0245  0.1057
13177TIP3    H160946   5.357   1.287  16.013  1.3111  1.8528  0.8091
13177TIP3    H260947   5.492   1.259  15.951  0.0684 -0.7810 -0.9219
13178TIP3   OH260948   4.770   4.660   4.663  0.1976 -0.1016 -0.0728
13178TIP3    H160949   4.778   4.713   4.743 -0.3878  0.8056 -0.5870
13178TIP3    H260950   4.824   4.706   4.599  2.1093 -1.8104  0.2448
13179TIP3   OH260951   5.737   4.721  15.190  0.1340 -0.1919 -0.0077
13179TIP3    H160952   5.801   4.754  15.253 -1.1563  1.1289  0.6772
13179TIP3    H260953   5.698   4.800  15.153  0.4874 -0.9441 -2.1191
13180TIP3   OH260954   4.993   2.762   2.941 -0.6563 -0.4249  0.4040
13180TIP3    H160955   5.029   2.762   3.029  0.1971 -0.9516  0.0640
13180TIP3    H260956   5.063   2.727   2.886 -1.7988 -1.7853 -0.2415
13181TIP3   OH260957   4.639   3.484   5.445 -0.3417 -0.8175  0.2538
13181TIP3    H160958   4.716   3.535   5.420 -0.9876  1.3425  2.2851
13181TIP3    H260959   4.671   3.394   5.451  2.5148  0.1786  2.4909
13182TIP3   OH260960   5.264   0.894  15.419  0.1332 -0.1875 -0.5189
13182TIP3    H160961   5.250   0.842  15.499  0.6527  0.9955  0.3745
13182TIP3    H260962   5.177   0.924  15.394  0.0561  0.1150  0.0917
13183TIP3   OH260963   6.007   1.526   5.828 -0.0964  0.3120 -0.2882
13183TIP3    H160964   6.040   1.436   5.832 -0.4383  0.1241 -1.4802
13183TIP3    H260965   5.915   1.519   5.853 -0.4130  0.1505 -1.4365
13184TIP3   OH260966   5.143   3.011   2.316 -0.5271 -0.3434 -0.3088
13184TIP3    H160967   5.231   3.022   2.280  0.2556 -1.5860  1.1193
13184TIP3    H260968   5.118   3.099   2.345  0.7261 -0.1742  0.3170
13185TIP3   OH260969   3.239   2.244   1.382 -0.1899 -0.6712  0.3376
13185TIP3    H160970   3.172   2.178   1.400 -1.8530  0.6828 -0.5740
13185TIP3    H260971   3.189   2.326   1.373  1.3237  0.0223 -2.6949
13186TIP3   OH260972   0.614   6.619  13.171  0.7508  0.0412 -0.0168
13186TIP3    H160973   0.676   6.567  13.120  1.6636  1.1414 -0.0563
13186TIP3    H260974   0.547   6.556  13.198  0.0968 -0.5402 -2.7370
13187TIP3   OH260975   2.037   3.552   1.106  0.6568  0.2387  0.1876
13187TIP3    H160976   2.122   3.510   1.120  1.3782  1.9709  1.3955
13187TIP3    H260977   2.025   3.551   1.011  1.2196 -1.5138  0.1045
13188TIP3   OH260978   5.295   1.357  11.479 -0.1889  0.4098 -0.0575
13188TIP3    H160979   5.218   1.302  11.465 -0.4269  0.3932  1.2253
13188TIP3    H260980   5.279   1.435  11.425 -0.5516 -0.1147 -0.7127
13189TIP3   OH260981   0.871   1.760   3.367  0.0753 -0.2799  0.2213
13189TIP3    H160982   0.913   1.802   3.292  0.5402  0.2496  0.7657
13189TIP3    H260983   0.777   1.777   3.356  0.3028  1.4835  0.7640
13190TIP3   OH260984   1.337   5.789   4.928  0.0296 -0.1631 -0.0977
13190TIP3    H160985   1.356   5.817   5.017 -0.0231  1.5258 -0.5897
13190TIP3    H260986   1.385   5.851   4.872 -2.5011  0.8301 -1.2930
13191TIP3   OH260987   4.748   6.662   3.665 -0.6492  0.2420  0.1438
13191TIP3    H160988   4.673   6.624   3.619 -1.5156  0.2647  1.4764
13191TIP3    H260989   4.738   6.756   3.654 -1.7257  0.3272  1.6275
13192TIP3   OH260990   1.478   6.398  11.231 -0.1843  0.2903  0.2402
13192TIP3    H160991   1.388   6.393  11.201 -0.0832 -0.1038 -0.0083
13192TIP3    H260992   1.497   6.492  11.235 -0.8300  0.3969  1.0001
13193TIP3   OH260993   5.788   2.889   4.760 -0.3089  0.3084  0.1411
13193TIP3    H160994   5.877   2.897   4.726 -0.2200  1.0799  0.5445
13193TIP3    H260995   5.732   2.888   4.681  0.1093 -1.2919 -0.1725
13194TIP3   OH260996   4.419   1.850   4.730  0.7050 -0.5327 -0.4914
13194TIP3    H160997   4.362   1.920   4.698  0.8259 -0.9527 -1.6737
13194TIP3    H260998   4.360   1.792   4.779  0.6471  0.4958  0.7132
13195TIP3   OH260999   2.726   2.359  13.756  0.7025 -0.0412  0.4829
13195TIP3    H161000   2.660   2.345  13.689  0.0153  2.5484  0.5185
13195TIP3    H261001   2.677   2.359  13.838  1.0380  0.0531  0.6848
13196TIP3   OH261002   2.970   5.414   2.976  0.0615 -0.2023 -0.4387
13196TIP3    H161003   2.877   5.412   2.953  0.1439 -1.0524 -0.7513
13196TIP3    H261004   2.972   5.397   3.070 -0.1693  1.3046 -0.1384
13197TIP3   OH261005   3.226   5.701   1.836  0.1040 -0.1756 -0.6171
13197TIP3    H161006   3.249   5.608   1.835 -0.1242 -0.2326 -0.7212
13197TIP3    H261007   3.260   5.735   1.753 -2.5736 -0.8632 -2.1455
13198TIP3   OH261008   5.642   5.468   6.019 -0.4204 -0.1678 -0.0218
13198TIP3    H161009   5.665   5.427   6.103 -1.1515 -0.8306 -0.1310
13198TIP3    H261010   5.704   5.431   5.956  1.3369  1.7123  0.5222
13199TIP3   OH261011   1.688   2.278  14.503  0.1445  0.1830 -0.3993
13199TIP3    H161012   1.714   2.263  14.594 -0.7769 -0.8963 -0.2927
13199TIP3    H261013   1.717   2.368  14.484  2.2728 -0.3116  0.2506
13200TIP3   OH261014   3.226   2.270   0.857 -0.3219 -0.0096 -0.0946
13200TIP3    H161015   3.274   2.221   0.790 -0.1331  0.7254 -0.5146
13200TIP3    H261016   3.150   2.304   0.810 -0.5729 -0.0980  0.2515
13201TIP3   OH261017   0.624   5.325   4.991 -0.4509 -0.1736 -0.5615
13201TIP3    H161018   0.642   5.403   4.938  1.4252  0.8849  1.4347
13201TIP3    H261019   0.614   5.359   5.080  0.5260 -2.2134  0.3959
13202TIP3   OH261020   0.586   6.285  16.024  0.2929  0.7207 -0.1063
13202TIP3    H161021   0.671   6.255  16.056  0.1377  0.2856 -0.0987
13202TIP3    H261022   0.599   6.378  16.007  0.2489  1.1011  1.6852
13203TIP3   OH261023   2.288   6.689   4.706 -0.0021  0.3383 -0.3669
13203TIP3    H161024   2.322   6.601   4.686  0.0264  0.3696 -0.4543
13203TIP3    H261025   2.283   6.733   4.621  0.1843  0.4947 -0.2953
13204TIP3   OH261026   2.034   6.673  10.485 -0.0853 -0.4708 -0.1134
13204TIP3    H161027   2.089   6.610  10.438  0.7185  0.7323 -0.8265
13204TIP3    H261028   2.002   6.624  10.561  2.2463 -1.1141  0.5306
13205TIP3   OH261029   1.763   1.104   1.421  0.1652 -0.0587  0.1208
13205TIP3    H161030   1.809   1.109   1.505 -0.7493  1.0943  0.5924
13205TIP3    H261031   1.678   1.065   1.443  1.0362 -2.7082 -0.8291
13206TIP3   OH261032   5.538   1.361  14.322  0.4705  0.4637  0.0867
13206TIP3    H161033   5.593   1.342  14.246  0.6858  1.9881 -0.1745
13206TIP3    H261034   5.474   1.290  14.324  0.0664  0.7159 -1.8894
13207TIP3   OH261035   6.713   4.259  16.590 -0.4712 -0.4216 -0.1892
13207TIP3    H161036   6.720   4.164  16.577 -0.1295 -0.3552 -0.5098
13207TIP3    H261037   6.789   4.295  16.545  0.9835 -0.1817  2.2583
13208TIP3   OH261038   3.071   5.030  15.038  0.0383 -0.7217 -0.3708
13208TIP3    H161039   3.008   5.014  14.969  0.7701 -1.3025 -0.9291
13208TIP3    H261040   3.031   5.096  15.093 -0.6925 -0.4786 -1.1780
13209TIP3   OH261041   3.551   5.948   4.102 -0.7175  0.8895  0.0261
13209TIP3    H161042   3.559   5.933   4.196  0.2628 -0.8933 -0.3037
13209TIP3    H261043   3.627   6.002   4.080 -0.2312  0.2310  0.0629
13210TIP3   OH261044   2.000   1.102  11.222  0.5363 -0.2164  0.4806
13210TIP3    H161045   1.938   1.141  11.160  1.1292 -1.4406 -0.9392
13210TIP3    H261046   2.082   1.149  11.206  0.1045  1.2537  2.2079
13211TIP3   OH261047   2.660   0.014  17.239  0.3952 -0.2972 -0.3273
13211TIP3    H161048   2.583   0.064  17.212  0.7333  0.2159 -0.3531
13211TIP3    H261049   2.721   0.080  17.273  0.8495 -0.6903 -0.3664
13212TIP3   OH261050   3.849   5.506   4.149  0.0081 -0.6759 -0.7697
13212TIP3    H161051   3.936   5.527   4.183 -0.0518 -1.4023 -0.1416
13212TIP3    H261052   3.842   5.556   4.068  0.9326 -0.4552 -0.7222
13213TIP3   OH261053   3.835   3.611  14.896  0.8333 -0.5380 -0.1214
13213TIP3    H161054   3.880   3.539  14.940  1.3061  0.5752  1.3040
13213TIP3    H261055   3.893   3.637  14.825  0.1417 -2.2526 -1.3969
13214TIP3   OH261056   6.373   1.822   0.660 -0.1761  0.1156 -0.2848
13214TIP3    H161057   6.458   1.865   0.653  0.2022 -0.7088 -1.0964
13214TIP3    H261058   6.371   1.787   0.749 -0.3439  1.4562  0.2652
13215TIP3   OH261059   1.669   2.716  12.837 -0.5975  0.1841  0.0672
13215TIP3    H161060   1.729   2.785  12.812 -2.2519  0.9508 -2.1469
13215TIP3    H261061   1.722   2.653  12.886  1.0519  2.7402  1.7850
13216TIP3   OH261062   0.477   6.647   3.155  0.4171 -0.1717 -0.2441
13216TIP3    H161063   0.500   6.635   3.063  0.9159  2.4790 -0.5449
13216TIP3    H261064   0.381   6.646   3.156  0.3848 -2.5023 -0.3656
13217TIP3   OH261065   5.790   2.507  11.637 -0.0526  0.3000  0.4940
13217TIP3    H161066   5.812   2.600  11.645  1.7446 -0.2195  2.3610
13217TIP3    H261067   5.707   2.507  11.590  0.9503  2.7257 -1.5458
13218TIP3   OH261068   5.878   0.430   0.780  0.2627 -0.6629  0.5692
13218TIP3    H161069   5.875   0.437   0.685 -0.9269  0.8889  0.6722
13218TIP3    H261070   5.809   0.490   0.811  2.1094  0.6270  2.4687
13219TIP3   OH261071   5.210   5.552   0.901  0.0989 -0.7446  0.2354
13219TIP3    H161072   5.148   5.568   0.971 -1.1054 -1.7459 -0.5546
13219TIP3    H261073   5.237   5.461   0.913  0.2163 -0.7892 -0.3252
13220TIP3   OH261074   2.324   2.725  14.949 -0.3668  1.0094  0.4230
13220TIP3    H161075   2.273   2.647  14.971  0.5188  0.2086 -0.2403
13220TIP3    H261076   2.410   2.690  14.925  0.3616  2.2816  1.1000
13221TIP3   OH261077   3.331   2.359   5.458  0.4680  0.2744 -0.3058
13221TIP3    H161078   3.422   2.333   5.443  0.2734  0.9442 -3.1017
13221TIP3    H261079   3.327   2.450   5.428 -0.5273  1.2961  2.5402
13222TIP3   OH261080   3.985   5.059   4.337  0.2796  0.6870 -0.1565
13222TIP3    H161081   3.895   5.057   4.304 -0.2266  1.7672  1.0388
13222TIP3    H261082   4.022   4.974   4.314 -1.6220 -0.4656  0.8538
13223TIP3   OH261083   1.410   5.103  15.414  0.0287  0.1194 -0.1477
13223TIP3    H161084   1.388   5.034  15.477  0.7498 -0.8588 -0.9247
13223TIP3    H261085   1.335   5.105  15.354  0.0622 -0.0802 -0.1978
13224TIP3   OH261086   0.452   4.987   5.041 -0.3763 -0.2191 -0.3374
13224TIP3    H161087   0.440   4.980   5.136 -1.9262  0.0240 -0.4984
13224TIP3    H261088   0.546   5.004   5.031 -0.2469  0.1418  1.1739
13225TIP3   OH261089   1.981   3.313   5.185 -0.2019  0.4099 -0.1431
13225TIP3    H161090   1.960   3.406   5.189 -1.2565  0.1408  1.0564
13225TIP3    H261091   1.897   3.268   5.187  0.3020 -0.6232  2.1291
13226TIP3   OH261092   1.487   4.258   2.358 -0.0110  0.3965 -0.0354
13226TIP3    H161093   1.518   4.167   2.357 -1.5342 -0.1659  0.8521
13226TIP3    H261094   1.394   4.252   2.338 -0.8895  1.3862  3.1231
13227TIP3   OH261095   1.768   2.590  16.946  0.0579 -0.4905  0.6629
13227TIP3    H161096   1.860   2.583  16.921 -0.0850 -1.5094  0.3545
13227TIP3    H261097   1.722   2.531  16.886 -0.8810  0.4444  0.4231
13228TIP3   OH261098   3.222   0.060   0.806  0.5024 -0.0271 -0.0138
13228TIP3    H161099   3.159   0.060   0.733 -0.9513 -0.7093  1.1734
13228TIP3    H261100   3.169   0.081   0.883  1.8739  0.0257  0.9453
13229TIP3   OH261101   3.247   1.154   5.198 -0.2618  0.1016 -0.1994
13229TIP3    H161102   3.205   1.102   5.266  0.2817 -0.9679 -0.6610
13229TIP3    H261103   3.329   1.108   5.179 -1.0021 -0.3901 -2.5138
13230TIP3   OH261104   5.673   6.589  11.816 -0.0396 -0.6917  0.0996
13230TIP3    H161105   5.605   6.618  11.876  0.4338 -0.4978  0.5438
13230TIP3    H261106   5.718   6.669  11.790  0.9300 -0.9490  0.9194
13231TIP3   OH261107   0.434   0.578  13.557  0.2121  0.4480  0.6609
13231TIP3    H161108   0.479   0.573  13.473  0.8365 -1.1194  1.0471
13231TIP3    H261109   0.488   0.638  13.610 -1.3841  3.2733 -0.6765
13232TIP3   OH261110   1.316   4.469   4.131 -0.4187  0.3798 -0.1462
13232TIP3    H161111   1.349   4.510   4.052 -0.1509  0.3482 -0.0502
13232TIP3    H261112   1.318   4.538   4.197 -0.8298  0.4615 -0.2147
13233TIP3   OH261113   4.151   1.453   5.889  0.2010  0.2819  0.0014
13233TIP3    H161114   4.069   1.457   5.938  0.2519 -1.0329  0.2220
13233TIP3    H261115   4.220   1.455   5.955  0.3630  1.1091 -0.1717
13234TIP3   OH261116   2.747   2.312   0.524 -0.2650 -0.5422 -0.2484
13234TIP3    H161117   2.788   2.236   0.482 -0.0548 -0.2033 -0.6667
13234TIP3    H261118   2.654   2.303   0.506 -0.1210 -0.1009 -1.3025
13235TIP3   OH261119   3.675   0.669  16.274  0.2857 -0.6490  0.1997
13235TIP3    H161120   3.674   0.665  16.178  0.2961 -1.9678  0.2407
13235TIP3    H261121   3.679   0.578  16.302 -2.5329 -0.4886  1.4927
13236TIP3   OH261122   4.534   2.631  14.491 -0.5751  0.2585 -0.0843
13236TIP3    H161123   4.547   2.613  14.398 -0.5682  1.0724 -0.2428
13236TIP3    H261124   4.620   2.659  14.523 -0.0685 -1.8651  0.6277
13237TIP3   OH261125   4.187   4.799   1.775 -0.0203 -0.0288  0.4498
13237TIP3    H161126   4.151   4.803   1.687  0.1936 -1.5148  0.2764
13237TIP3    H261127   4.169   4.886   1.812 -1.2447  0.1914 -0.5988
13238TIP3   OH261128   3.999   0.167  10.563  0.1103 -0.4439  0.9092
13238TIP3    H161129   3.919   0.183  10.513  1.7001  2.4368 -0.9166
13238TIP3    H261130   4.010   0.245  10.617  1.8034 -0.6880  0.9588
13239TIP3   OH261131   6.727   4.986  16.425 -0.0617  0.0930  0.5634
13239TIP3    H161132   6.716   5.001  16.519  1.1049  1.3729  0.5156
13239TIP3    H261133   6.820   4.967  16.415 -0.4960 -1.8839 -0.1230
13240TIP3   OH261134   6.457   1.190   3.173  0.4322  0.1396 -0.1945
13240TIP3    H161135   6.530   1.134   3.200 -0.2366 -0.0016  1.4364
13240TIP3    H261136   6.409   1.138   3.109 -0.8157 -1.7273  2.0805
13241TIP3   OH261137   6.424   5.901   1.053 -0.0313  0.4504  0.4246
13241TIP3    H161138   6.412   5.869   1.143  1.3683 -2.0010 -0.1744
13241TIP3    H261139   6.474   5.833   1.010 -0.3723  1.7263 -2.1741
13242TIP3   OH261140   5.454   1.720  13.431  0.1612  0.2853 -0.1219
13242TIP3    H161141   5.511   1.745  13.359  2.2185 -0.3895  1.1775
13242TIP3    H261142   5.429   1.803  13.472  0.8503  0.5593 -0.2505
13243TIP3   OH261143   2.705   1.399   5.034  0.0727 -0.0612 -0.0491
13243TIP3    H161144   2.716   1.493   5.015  1.4054 -0.3425 -0.8205
13243TIP3    H261145   2.782   1.376   5.085  0.2903 -0.9492 -0.7491
13244TIP3   OH261146   3.199   6.617   3.431  0.1321  0.3559  0.7810
13244TIP3    H161147   3.255   6.683   3.471  1.2622 -0.9601  1.4545
13244TIP3    H261148   3.197   6.641   3.338  3.8390 -0.8017  0.2150
13245TIP3   OH261149   6.715   0.100   6.225 -0.7633 -0.2084 -0.2882
13245TIP3    H161150   6.804   0.069   6.211 -0.1648  1.3018 -0.0557
13245TIP3    H261151   6.675   0.035   6.283  0.2424 -0.8217 -0.2691
13246TIP3   OH261152   2.501   0.283   1.876 -0.2593  0.3962  0.3135
13246TIP3    H161153   2.407   0.269   1.882 -0.6266  2.2530 -0.5667
13246TIP3    H261154   2.511   0.368   1.834  1.7867  1.1738  2.1587
13247TIP3   OH261155   0.869   6.167   3.817 -0.4262 -0.0406 -0.1424
13247TIP3    H161156   0.775   6.161   3.830 -0.4758 -0.3616 -0.6199
13247TIP3    H261157   0.907   6.113   3.886 -0.5740  0.4840  0.3474
13248TIP3   OH261158   3.193   1.943  15.564  0.2912  0.3172  0.0539
13248TIP3    H161159   3.158   2.032  15.573 -0.1724  0.1578 -0.1359
13248TIP3    H261160   3.159   1.912  15.480  1.0581  0.2268 -0.2302
13249TIP3   OH261161   4.701   3.991   0.628 -0.4141 -0.3783 -0.3560
13249TIP3    H161162   4.682   4.078   0.663  3.4421  0.2440  0.6592
13249TIP3    H261163   4.697   4.002   0.533 -3.2160 -0.0700 -0.2923
13250TIP3   OH261164   5.887   0.713  15.582  0.2911 -0.2200  0.3241
13250TIP3    H161165   5.847   0.711  15.495  1.2014 -0.1199 -0.1034
13250TIP3    H261166   5.813   0.705  15.642 -0.5243  1.3322 -0.4161
13251TIP3   OH261167   5.527   1.460  16.948  0.3806 -0.2675 -0.5202
13251TIP3    H161168   5.457   1.524  16.963  1.7035  0.7976  1.7965
13251TIP3    H261169   5.576   1.494  16.873  0.3638  0.8442 -0.0479
13252TIP3   OH261170   0.699   1.714  17.126 -0.0296  0.1867 -0.0344
13252TIP3    H161171   0.764   1.715  17.196  0.4951 -0.0007 -0.5124
13252TIP3    H261172   0.623   1.759  17.163  0.0169 -0.4612  0.8659
13253TIP3   OH261173   4.626   1.680  14.320 -0.1324  0.8049  0.2128
13253TIP3    H161174   4.704   1.731  14.340  0.4649  0.3626 -0.8706
13253TIP3    H261175   4.654   1.588  14.329 -0.7453  0.6450  0.5731
13254TIP3   OH261176   3.116   3.941  15.338 -0.4771  0.1119  0.1914
13254TIP3    H161177   3.210   3.933  15.351 -0.4711  1.4945  1.2604
13254TIP3    H261178   3.098   4.034  15.350 -1.9770 -0.1174 -0.0446
13255TIP3   OH261179   6.644   1.342  11.066  0.8407  0.5826 -0.4138
13255TIP3    H161180   6.715   1.382  11.115  1.5165 -0.3150 -0.6268
13255TIP3    H261181   6.684   1.317  10.982  0.2260  0.2415 -0.6137
13256TIP3   OH261182   4.637   3.364   4.439 -0.3289  0.7045 -0.6636
13256TIP3    H161183   4.623   3.437   4.379  0.3640  0.5260 -1.0579
13256TIP3    H261184   4.733   3.358   4.447 -0.3889  1.3986  1.2837
13257TIP3   OH261185   6.129   5.227  14.385 -0.8321 -0.6132  0.3850
13257TIP3    H161186   6.171   5.208  14.469 -2.8785 -1.1203  1.3521
13257TIP3    H261187   6.053   5.281  14.407 -1.5080 -0.8975 -1.1046
13258TIP3   OH261188   0.181   1.394  17.167  0.7242 -0.1159  0.4006
13258TIP3    H161189   0.182   1.453  17.242  1.2859 -1.3463  1.3878
13258TIP3    H261190   0.179   1.306  17.204  0.5274 -0.7534 -1.0262
13259TIP3   OH261191   3.021   0.632  14.221  0.2928 -0.4035 -0.2196
13259TIP3    H161192   2.976   0.656  14.140  0.1256 -0.5704 -0.1760
13259TIP3    H261193   3.107   0.601  14.191 -0.1800 -1.5544 -0.4301
13260TIP3   OH261194   5.415   2.605  15.139 -0.3175 -0.3195  0.2865
13260TIP3    H161195   5.498   2.565  15.165  0.5948 -0.4600 -2.4322
13260TIP3    H261196   5.434   2.699  15.138 -1.0032 -0.1413  2.1036
13261TIP3   OH261197   3.511   1.925  13.541 -0.6197  0.0279  0.4143
13261TIP3    H161198   3.544   1.856  13.599  0.5426  2.1084  2.4113
13261TIP3    H261199   3.423   1.944  13.574 -1.5410 -1.4341 -1.0832
13262TIP3   OH261200   4.393   4.363   3.216 -1.1160  0.1080 -0.8854
13262TIP3    H161201   4.302   4.334   3.228 -1.0384 -0.6254 -1.8780
13262TIP3    H261202   4.389   4.458   3.223 -1.4369 -0.0472  2.1951
13263TIP3   OH261203   0.043   0.992  14.394 -0.3681 -0.5064  0.4931
13263TIP3    H161204  -0.024   0.964  14.456 -0.9675  1.5087  0.8328
13263TIP3    H261205   0.003   1.064  14.345  0.2064 -1.8025 -2.0523
13264TIP3   OH261206   4.718   4.097  11.841  0.2766 -0.4998 -0.4600
13264TIP3    H161207   4.644   4.093  11.779  1.4091 -1.6175 -1.8334
13264TIP3    H261208   4.774   4.167  11.807  0.9061 -1.1202 -0.7368
13265TIP3   OH261209   2.648   2.779   3.561 -0.3273 -0.0737 -0.1395
13265TIP3    H161210   2.619   2.715   3.495  0.8475 -0.1302 -0.6126
13265TIP3    H261211   2.651   2.729   3.642 -1.2472 -0.1380 -0.1276
13266TIP3   OH261212   5.527   1.289   0.572 -0.2927 -0.1170  0.1194
13266TIP3    H161213   5.431   1.292   0.579 -0.2544  0.7287  0.3239
13266TIP3    H261214   5.558   1.344   0.643  0.3540 -0.4055  0.0624
13267TIP3   OH261215   3.842   6.337  14.840  0.1845 -0.5991 -0.2610
13267TIP3    H161216   3.878   6.424  14.855  2.6659 -1.7778  1.2173
13267TIP3    H261217   3.780   6.324  14.912 -0.6196  0.1148 -0.8038
13268TIP3   OH261218   4.146   1.121   6.405  0.1138  0.0175 -0.0692
13268TIP3    H161219   4.235   1.106   6.373 -0.1085  0.6080 -0.9971
13268TIP3    H261220   4.090   1.110   6.328 -0.7356 -1.3099  0.6875
13269TIP3   OH261221   3.468   6.604  13.924 -0.5725  0.4637  0.4282
13269TIP3    H161222   3.452   6.684  13.873  1.5572  0.9982  0.4937
13269TIP3    H261223   3.562   6.605  13.939 -0.5984 -1.7763  0.9525
13270TIP3   OH261224   1.045   2.057  15.821 -0.1884 -0.0934  0.0503
13270TIP3    H161225   1.098   2.024  15.893  0.3838  0.8319  0.0668
13270TIP3    H261226   1.093   2.034  15.742  0.8729  1.7754  0.1095
13271TIP3   OH261227   6.674   1.670  11.093 -0.1344 -0.6259 -0.3852
13271TIP3    H161228   6.754   1.618  11.097 -0.6203 -1.3340  1.0246
13271TIP3    H261229   6.684   1.725  11.015  3.2858  1.8507  1.5200
13272TIP3   OH261230   1.945   3.657   5.033  0.3186 -0.2935 -0.2259
13272TIP3    H161231   1.883   3.611   5.091  3.0319 -2.6244  1.0869
13272TIP3    H261232   1.918   3.748   5.037 -1.8149 -0.9016  1.8277
13273TIP3   OH261233   2.769   5.707   4.968 -0.1659 -0.2569 -0.3250
13273TIP3    H161234   2.801   5.775   4.909 -0.9039  0.8966  0.5553
13273TIP3    H261235   2.674   5.710   4.958 -0.2431 -0.6701  0.2566
13274TIP3   OH261236   2.860   1.637  11.231 -0.1527 -0.0712  0.2870
13274TIP3    H161237   2.830   1.713  11.181 -0.0568  1.0581  1.8920
13274TIP3    H261238   2.780   1.599  11.268 -0.1203 -0.3128  0.1174
13275TIP3   OH261239   1.194   4.377   5.760  0.6707  0.5612  0.0381
13275TIP3    H161240   1.164   4.304   5.815  0.3088 -0.6883 -1.7161
13275TIP3    H261241   1.115   4.409   5.717  1.2903 -0.6394 -2.1664
13276TIP3   OH261242   1.124   3.178  15.257 -0.1787 -0.1504 -0.4671
13276TIP3    H161243   1.129   3.234  15.180 -1.0233 -0.5605 -0.8369
13276TIP3    H261244   1.030   3.167  15.273 -0.0247 -0.9368 -0.0162
13277TIP3   OH261245   5.391   3.995   0.959 -0.3754  0.0573 -0.5495
13277TIP3    H161246   5.476   4.023   0.992 -0.3108 -0.0887 -0.5898
13277TIP3    H261247   5.396   3.899   0.958 -0.2293  0.0634 -1.3634
13278TIP3   OH261248   4.764   4.059  14.418  0.0439 -0.3329  0.1373
13278TIP3    H161249   4.807   3.975  14.432  2.0037  0.4764 -0.6800
13278TIP3    H261250   4.734   4.086  14.505 -0.1336 -1.6163  0.4889
13279TIP3   OH261251   6.214   3.221  11.791  0.4549  0.0804 -0.2088
13279TIP3    H161252   6.241   3.306  11.827 -2.4058 -0.0557  2.7440
13279TIP3    H261253   6.146   3.242  11.727 -0.0876  0.0747  0.3528
13280TIP3   OH261254   6.393   1.616   2.828 -0.2093 -0.8662 -0.4966
13280TIP3    H161255   6.469   1.673   2.823 -0.4779 -0.5814 -1.4780
13280TIP3    H261256   6.416   1.550   2.893 -0.0721  0.6208  1.0296
13281TIP3   OH261257   2.995   0.976  14.244 -1.2069  0.4111 -0.0832
13281TIP3    H161258   3.013   0.911  14.175 -2.2245  0.6093 -0.5497
13281TIP3    H261259   3.015   0.930  14.325 -1.8493 -0.4896 -0.4127
13282TIP3   OH261260   6.278   1.148   0.442 -0.4704 -0.3977 -0.3061
13282TIP3    H161261   6.351   1.204   0.468  0.6585 -2.4722  1.2219
13282TIP3    H261262   6.207   1.210   0.422  1.7257  1.6922 -2.1960
13283TIP3   OH261263   2.186   5.040  10.965 -0.5017  0.1263  0.0607
13283TIP3    H161264   2.257   5.104  10.961  0.3123 -0.6976  0.8804
13283TIP3    H261265   2.106   5.093  10.972  0.2194  1.0657  1.8991
13284TIP3   OH261266   5.498   1.745  12.081 -0.2657  0.0797 -0.2840
13284TIP3    H161267   5.412   1.713  12.108 -0.5900 -0.5143 -1.9174
13284TIP3    H261268   5.480   1.801  12.005  0.5922  1.7258  0.6762
13285TIP3   OH261269   5.957   1.222   1.398 -0.2870  0.5788  0.3035
13285TIP3    H161270   5.925   1.201   1.310 -2.0292  1.0049  0.7828
13285TIP3    H261271   5.992   1.139   1.431 -1.1324  0.0009 -0.1989
13286TIP3   OH261272   5.382   5.533   1.667  0.4628  0.1818 -0.2154
13286TIP3    H161273   5.339   5.515   1.750 -0.8431  0.8237 -0.7189
13286TIP3    H261274   5.452   5.468   1.661 -0.0378 -0.4838  0.9408
13287TIP3   OH261275   4.745   2.736   3.081 -0.4106 -0.3021  0.2156
13287TIP3    H161276   4.724   2.716   3.172 -2.1990  0.1334 -0.0591
13287TIP3    H261277   4.841   2.738   3.078 -0.2379 -2.7103  1.5366
13288TIP3   OH261278   4.934   0.412   4.525  0.3421 -0.4359 -0.3634
13288TIP3    H161279   4.873   0.429   4.453 -0.3966 -0.9355  0.1342
13288TIP3    H261280   4.908   0.327   4.559  0.1384  0.1540  1.0232
13289TIP3   OH261281   3.198   1.197  14.101  0.3932 -0.3165 -0.0678
13289TIP3    H161282   3.254   1.146  14.042 -0.7721  0.6881 -2.1617
13289TIP3    H261283   3.137   1.134  14.138  0.3563 -0.7928 -0.9224
13290TIP3   OH261284   5.078   4.818  12.077  0.1438  0.5818  0.0919
13290TIP3    H161285   5.032   4.898  12.051  0.7995  1.1087  0.5103
13290TIP3    H261286   5.068   4.759  12.002 -0.2688  1.0884 -0.2587
13291TIP3   OH261287   4.006   4.647  14.650  0.3139 -0.0050  0.1007
13291TIP3    H161288   3.976   4.562  14.617 -0.6651  0.7653 -1.0709
13291TIP3    H261289   3.941   4.672  14.715 -0.8783  1.0057 -1.4147
13292TIP3   OH261290   2.155   3.131   6.098 -0.6968 -0.5353  0.2570
13292TIP3    H161291   2.119   3.047   6.128 -0.6424 -0.6886 -0.0928
13292TIP3    H261292   2.245   3.110   6.071 -0.8665 -0.4830 -0.3615
13293TIP3   OH261293   1.030   0.481  16.379 -0.1013  0.6900  0.0480
13293TIP3    H161294   0.993   0.538  16.312 -0.4054 -0.9420 -1.2613
13293TIP3    H261295   1.025   0.393  16.340  0.1731 -0.2539  2.0247
13294TIP3   OH261296   5.216   4.597  14.292  0.4288 -0.5274  0.1634
13294TIP3    H161297   5.166   4.541  14.231  0.8167  0.3657 -1.0143
13294TIP3    H261298   5.302   4.604  14.252 -0.0358  2.1309 -0.5660
13295TIP3   OH261299   0.636   0.481  11.515  0.3843 -0.2704  0.3229
13295TIP3    H161300   0.651   0.547  11.448  0.0130 -0.7271 -0.2136
13295TIP3    H261301   0.624   0.531  11.596  0.5846  0.2887  0.0102
13296TIP3   OH261302   1.084   4.505   6.047 -1.0837  0.3070 -0.1500
13296TIP3    H161303   1.020   4.443   6.083 -2.7536  2.1605  0.2573
13296TIP3    H261304   1.120   4.549   6.124  0.5278 -0.5243 -0.3983
13297TIP3   OH261305   4.107   3.131   4.513  0.0126  0.0947  0.1931
13297TIP3    H161306   4.191   3.155   4.553  0.0402 -0.5622  0.5397
13297TIP3    H261307   4.098   3.192   4.439  0.4691  0.6116  0.5556
13298TIP3   OH261308   0.813   1.752   1.505  0.3426 -0.1290 -0.9044
13298TIP3    H161309   0.758   1.785   1.576 -1.1268 -1.6369 -1.2863
13298TIP3    H261310   0.890   1.716   1.550  0.5513  1.0347 -0.2804
13299TIP3   OH261311   4.392   6.091  14.896  0.0366 -0.3567 -0.6685
13299TIP3    H161312   4.316   6.035  14.884  0.0910 -0.9755  1.4433
13299TIP3    H261313   4.382   6.125  14.985  0.4349  2.3775 -1.5717
13300TIP3   OH261314   3.808   4.143  16.142  0.1330  0.1814  0.4852
13300TIP3    H161315   3.872   4.188  16.197  1.1740  0.2545 -0.7558
13300TIP3    H261316   3.810   4.190  16.059 -2.7122  1.2184  0.8731
13301TIP3   OH261317   6.674   4.127   2.823  0.0731 -0.5303 -0.3801
13301TIP3    H161318   6.681   4.187   2.749  1.3431  0.5044  0.5331
13301TIP3    H261319   6.625   4.175   2.889 -0.0276 -0.9999 -0.1082
13302TIP3   OH261320   4.300   0.258   0.457 -0.4692 -0.6113  0.0863
13302TIP3    H161321   4.352   0.339   0.462 -1.3524  0.0671 -1.0997
13302TIP3    H261322   4.365   0.188   0.462  0.5732  0.2058 -1.0928
13303TIP3   OH261323   2.755   5.064  13.429  0.4418  0.0493 -0.3011
13303TIP3    H161324   2.708   4.983  13.409 -0.7281  0.2550  1.3429
13303TIP3    H261325   2.690   5.133  13.418  0.1365  0.3073  2.3643
13304TIP3   OH261326   2.860   3.487   2.397 -0.0587  0.3061 -0.0827
13304TIP3    H161327   2.934   3.547   2.406 -0.3951  0.7296 -0.1180
13304TIP3    H261328   2.890   3.407   2.440  0.4632  0.4324 -0.1941
13305TIP3   OH261329   4.924   1.630  10.925  0.1908  0.5497  0.1821
13305TIP3    H161330   4.995   1.692  10.911  0.4407  0.2849  0.2612
13305TIP3    H261331   4.854   1.660  10.867  0.4928  0.6152 -0.1537
13306TIP3   OH261332   1.576   4.845   0.509 -0.3060 -0.0875 -0.1431
13306TIP3    H161333   1.607   4.817   0.423  0.4297  0.5173 -0.0927
13306TIP3    H261334   1.491   4.804   0.519 -0.3125 -0.3254 -1.0775
13307TIP3   OH261335   5.994   5.581   5.103  0.5496  0.3366 -1.1014
13307TIP3    H161336   6.054   5.509   5.080  1.2389  0.3457  0.5249
13307TIP3    H261337   5.947   5.548   5.180  1.5154  1.9349  0.2302
13308TIP3   OH261338   3.385   5.027  15.055 -0.0397 -0.2314 -0.1514
13308TIP3    H161339   3.307   4.983  15.088 -1.1733  0.5926 -1.5995
13308TIP3    H261340   3.379   5.116  15.092  0.3520 -0.2446 -0.0595
13309TIP3   OH261341   5.646   3.761   6.027  0.0162 -0.2992 -0.3840
13309TIP3    H161342   5.712   3.807   6.079  0.7712  0.6857 -2.1052
13309TIP3    H261343   5.689   3.746   5.943 -1.7100 -0.3009 -1.3098
13310TIP3   OH261344   4.220   4.943   4.183  0.6519  0.3128 -0.7050
13310TIP3    H161345   4.138   4.902   4.158  1.7741 -2.6475  0.0076
13310TIP3    H261346   4.270   4.950   4.102  0.4743  0.1819 -0.8260
13311TIP3   OH261347   3.893   3.762  13.158  0.2643 -0.7330  0.1786
13311TIP3    H161348   3.872   3.701  13.229 -1.5897 -0.0582  0.2610
13311TIP3    H261349   3.937   3.835  13.202 -1.0603 -0.2189  0.7239
13312TIP3   OH261350   4.932   6.765   4.294 -0.9875 -0.1468  0.5858
13312TIP3    H161351   4.957   6.853   4.265  1.5464 -0.6839  0.8979
13312TIP3    H261352   4.924   6.714   4.214 -1.4666  0.1123  0.4626
13313TIP3   OH261353   4.328   0.113   2.294 -0.3303 -0.1651  0.6306
13313TIP3    H161354   4.250   0.166   2.279  0.7635  1.3356 -0.1101
13313TIP3    H261355   4.348   0.076   2.208  0.1265 -0.0016  0.6617
13314TIP3   OH261356   1.590   5.196  11.724  0.6737  0.3353 -0.3301
13314TIP3    H161357   1.566   5.120  11.777  1.5994  0.1623 -0.1519
13314TIP3    H261358   1.508   5.246  11.716  0.2761 -0.1914  0.3396
13315TIP3   OH261359   3.571   1.394   5.777 -0.2684 -0.2093 -0.0475
13315TIP3    H161360   3.653   1.374   5.822 -1.0541 -0.2826  1.4246
13315TIP3    H261361   3.521   1.313   5.781 -0.3745 -0.2008 -1.0501
13316TIP3   OH261362   2.313   4.662   4.661 -0.3349  0.4151 -0.9436
13316TIP3    H161363   2.327   4.696   4.572  1.8732  1.8727 -0.1229
13316TIP3    H261364   2.291   4.739   4.713 -3.0573 -0.6152 -0.4141
13317TIP3   OH261365   0.848   4.211  15.429 -0.1686  0.4529 -0.1635
13317TIP3    H161366   0.806   4.254  15.354 -0.2654  0.8805  0.1319
13317TIP3    H261367   0.882   4.129  15.394 -0.8670  0.3071 -0.5032
13318TIP3   OH261368   3.100   2.633   2.065 -0.0424  0.6778 -0.0166
13318TIP3    H161369   3.184   2.678   2.076 -0.3347  0.9634  1.2120
13318TIP3    H261370   3.066   2.624   2.154  0.8619 -3.7047  0.0954
13319TIP3   OH261371   2.696   1.815  15.576  0.4901  0.3268  0.0079
13319TIP3    H161372   2.651   1.848  15.499 -1.1038  1.4055  1.3245
13319TIP3    H261373   2.696   1.720  15.566 -2.9603  0.1860  0.3413
13320TIP3   OH261374   3.012   2.272  17.002  0.0092 -0.1946  0.4535
13320TIP3    H161375   2.986   2.339  17.065  1.8581  0.7117  0.3504
13320TIP3    H261376   3.098   2.243  17.033  0.5828 -0.3267 -1.1582
13321TIP3   OH261377   3.126   3.611   2.326  0.6724  0.5738  0.6993
13321TIP3    H161378   3.150   3.677   2.261  3.1312 -0.0691  0.8576
13321TIP3    H261379   3.148   3.649   2.410 -0.7637  0.6755  1.0659
13322TIP3   OH261380   1.159   6.527   0.493 -0.0997  0.8282 -0.3906
13322TIP3    H161381   1.170   6.602   0.552 -1.0207  1.2525 -0.7365
13322TIP3    H261382   1.121   6.565   0.414 -2.0091 -0.1969 -0.0246
13323TIP3   OH261383   2.976   4.194   3.907 -0.7444  0.4148  0.3978
13323TIP3    H161384   3.070   4.179   3.911 -0.9810 -1.7188 -0.6891
13323TIP3    H261385   2.953   4.177   3.816 -2.3863 -0.5104  0.9514
13324TIP3   OH261386   2.919   3.155   5.797  0.4008  0.0196 -0.0488
13324TIP3    H161387   2.932   3.076   5.850 -0.3891  0.6777  1.1868
13324TIP3    H261388   2.841   3.195   5.834  0.4730  1.0940 -1.0238
13325TIP3   OH261389   1.187   1.210   5.368  0.1113 -0.2207 -0.6547
13325TIP3    H161390   1.252   1.211   5.440 -0.4314 -0.6405 -0.1524
13325TIP3    H261391   1.128   1.283   5.389  0.9837  0.8113 -1.6548
13326TIP3   OH261392   5.949   5.110   2.663  0.3332 -0.1798  0.1474
13326TIP3    H161393   5.876   5.158   2.703  1.1470  1.4756 -0.2845
13326TIP3    H261394   5.999   5.076   2.737  0.6572  1.0678  0.5238
13327TIP3   OH261395   6.262   6.441   5.455  0.1327 -0.3608  0.6388
13327TIP3    H161396   6.208   6.489   5.518  1.6908 -0.2689  1.9407
13327TIP3    H261397   6.235   6.349   5.465  0.1262 -0.3018  1.1741
13328TIP3   OH261398   5.172   4.692   0.038 -0.4831  0.1318 -0.3554
13328TIP3    H161399   5.125   4.766  -0.001  1.7161  1.4673 -0.6578
13328TIP3    H261400   5.147   4.695   0.131  2.2178  3.6960  0.5109
13329TIP3   OH261401   1.177   4.517   0.778 -0.1029  0.3088  0.7046
13329TIP3    H161402   1.098   4.554   0.818  0.4979  0.4045  1.8493
13329TIP3    H261403   1.250   4.560   0.824  0.6191 -0.0730 -0.0541
13330TIP3   OH261404   0.578   3.000  11.207  0.5119 -0.0481 -0.3378
13330TIP3    H161405   0.628   2.987  11.126  1.2371  0.0141  0.0865
13330TIP3    H261406   0.516   2.927  11.209  0.1717  0.2050 -1.1718
13331TIP3   OH261407   5.069   1.562   1.479 -0.1294  0.6358  0.0902
13331TIP3    H161408   5.063   1.468   1.463  0.2686  0.5491  0.4382
13331TIP3    H261409   5.090   1.600   1.393  0.5712  0.3203  0.1169
13332TIP3   OH261410   3.186   0.127  13.170 -0.5334 -0.0384  0.3614
13332TIP3    H161411   3.173   0.044  13.125  1.6655 -0.5851  0.6164
13332TIP3    H261412   3.217   0.187  13.102  0.6628 -0.2578  0.6894
13333TIP3   OH261413   3.316   5.034   5.100  0.2608 -0.2116  0.2198
13333TIP3    H161414   3.335   4.966   5.165 -2.7390 -0.9135  0.5332
13333TIP3    H261415   3.248   4.995   5.044  0.1932  1.6840 -1.1186
13334TIP3   OH261416   1.204   2.264   4.593 -0.2507 -0.5539  0.1821
13334TIP3    H161417   1.154   2.334   4.551 -0.2919 -0.9297 -0.3971
13334TIP3    H261418   1.294   2.278   4.562 -0.4865 -1.5505 -1.0011
13335TIP3   OH261419   2.297   4.715  12.807  0.2417 -0.4388  0.5686
13335TIP3    H161420   2.231   4.661  12.764 -0.4211  0.0766  0.9185
13335TIP3    H261421   2.378   4.698  12.758 -0.4355 -0.0297 -0.7222
13336TIP3   OH261422   3.852   3.333   5.366 -0.1256  0.2450 -0.2911
13336TIP3    H161423   3.810   3.415   5.338  0.2417 -0.0898 -1.9320
13336TIP3    H261424   3.817   3.317   5.454  0.4204  2.5863  0.4182
13337TIP3   OH261425   3.836   3.501  13.972  0.4247  0.8660 -0.1809
13337TIP3    H161426   3.825   3.409  13.997  0.1899  0.7365 -0.7639
13337TIP3    H261427   3.882   3.540  14.047  0.3079  0.3331  0.1764
13338TIP3   OH261428   1.596   1.607  14.151 -0.3595  0.2422 -0.7136
13338TIP3    H161429   1.514   1.610  14.199  0.5492 -0.6392  0.9867
13338TIP3    H261430   1.571   1.616  14.059 -2.5003 -1.5392 -0.3744
13339TIP3   OH261431   2.124   4.786  13.340 -0.9685 -0.8740  0.0646
13339TIP3    H161432   2.035   4.821  13.340  0.1374  2.2886  0.1788
13339TIP3    H261433   2.146   4.777  13.247  0.2545  3.6788 -0.3691
13340TIP3   OH261434   4.806   4.657   0.154  0.2761 -0.1401  0.0275
13340TIP3    H161435   4.823   4.573   0.111  1.8242  0.0023  0.3133
13340TIP3    H261436   4.827   4.641   0.246 -1.2479  0.0645  0.4369
13341TIP3   OH261437   3.764   2.337   1.060 -0.1298  0.0713 -0.3170
13341TIP3    H161438   3.708   2.287   1.001 -1.0755  0.1804  0.4645
13341TIP3    H261439   3.823   2.386   1.002 -1.0526  0.1927 -1.1663
13342TIP3   OH261440   3.470   6.565  16.734  0.0195  0.7912 -0.6501
13342TIP3    H161441   3.425   6.649  16.744 -1.7012 -0.0012 -1.3016
13342TIP3    H261442   3.476   6.552  16.640  0.8618  0.4743 -0.5556
13343TIP3   OH261443   5.673   4.466  12.617  0.1417 -0.8974  0.6462
13343TIP3    H161444   5.586   4.492  12.587 -0.7978 -1.7898  2.4518
13343TIP3    H261445   5.658   4.389  12.671  1.8570 -0.1259  2.3301
13344TIP3   OH261446   0.497   1.003  13.042  0.3013  0.1025 -0.6730
13344TIP3    H161447   0.453   1.027  12.961 -0.0540  0.4370 -0.3867
13344TIP3    H261448   0.449   1.050  13.110 -1.1936 -2.3016  0.0726
13345TIP3   OH261449   3.723   2.440   0.240 -0.0553 -0.1293  0.3062
13345TIP3    H161450   3.783   2.366   0.228 -0.6225 -0.1968 -3.3568
13345TIP3    H261451   3.641   2.399   0.267  0.3736 -0.5035  1.0823
13346TIP3   OH261452   1.196   2.845  12.422 -0.0001 -0.3968 -0.1939
13346TIP3    H161453   1.243   2.770  12.385  0.2764 -0.3479  0.0527
13346TIP3    H261454   1.124   2.806  12.472  1.2782 -0.6250  1.5888
13347TIP3   OH261455   1.113   0.244  12.418 -0.3005  0.2149  0.1107
13347TIP3    H161456   1.124   0.222  12.511  0.0403  0.9681  0.2569
13347TIP3    H261457   1.031   0.203  12.394 -0.1581 -0.3967  0.6196
13348TIP3   OH261458   6.213   0.303  14.046  0.0576 -0.0835 -0.0493
13348TIP3    H161459   6.281   0.315  13.980 -1.2669  0.2639 -1.3908
13348TIP3    H261460   6.232   0.216  14.083  2.6628  0.9781  1.4036
13349TIP3   OH261461   6.150   6.696  12.293  0.4317 -0.2207 -0.2075
13349TIP3    H161462   6.093   6.679  12.218  2.4014 -0.2043 -1.7889
13349TIP3    H261463   6.196   6.613  12.308 -0.2684 -0.3803  1.3582
13350TIP3   OH261464   5.163   2.883   5.788  0.0841  0.7723 -0.5112
13350TIP3    H161465   5.144   2.856   5.878 -1.1038 -0.1057 -0.9953
13350TIP3    H261466   5.227   2.820   5.757 -1.3352 -0.4692 -1.0470
13351TIP3   OH261467   0.805   5.626  16.419 -0.7169  0.1188 -0.0009
13351TIP3    H161468   0.735   5.561  16.418 -1.0640  0.5009 -0.4676
13351TIP3    H261469   0.862   5.598  16.491  0.5438 -2.2298 -1.7793
13352TIP3   OH261470   4.790   4.902   1.706  0.1829  0.0597 -0.6586
13352TIP3    H161471   4.705   4.928   1.670  0.0117 -1.1438 -1.1697
13352TIP3    H261472   4.778   4.811   1.734  1.2964 -0.1274 -0.7251
13353TIP3   OH261473   0.940   1.126  12.281 -0.2987 -0.1686 -0.0343
13353TIP3    H161474   1.018   1.098  12.330 -0.4917  0.3546  0.5915
13353TIP3    H261475   0.961   1.216  12.254 -0.7198  0.0103  0.2219
13354TIP3   OH261476   3.948   4.432  14.866  0.1229  0.9582 -0.4163
13354TIP3    H161477   3.920   4.344  14.840 -0.9583  1.1706 -0.0457
13354TIP3    H261478   4.043   4.426  14.872  0.0612 -0.2205 -0.2550
13355TIP3   OH261479   1.748   5.171   0.722 -0.6627  0.3808  0.8865
13355TIP3    H161480   1.687   5.176   0.795 -1.0885 -2.0886  0.7775
13355TIP3    H261481   1.761   5.262   0.695 -2.2987  1.1557  2.5286
13356TIP3   OH261482   6.174   4.809   0.494  0.2290 -0.3284 -0.3852
13356TIP3    H161483   6.145   4.761   0.572  0.7426 -0.3331 -0.1947
13356TIP3    H261484   6.249   4.860   0.524  0.1088  0.0649 -0.7553
13357TIP3   OH261485   6.311   4.811  13.964 -0.0067 -0.2489  0.7851
13357TIP3    H161486   6.261   4.756  13.904 -0.2493  1.3463 -0.5396
13357TIP3    H261487   6.272   4.796  14.050 -1.7767 -0.1841  0.0160
13358TIP3   OH261488   6.159   3.963  11.458 -0.0456  0.3418 -0.0747
13358TIP3    H161489   6.237   4.017  11.459  0.0997  0.1444 -0.5826
13358TIP3    H261490   6.120   3.978  11.372 -0.1886 -0.0894 -0.0903
13359TIP3   OH261491   6.218   2.077   3.724  0.2033 -0.3292 -0.0708
13359TIP3    H161492   6.231   2.171   3.738 -2.8359 -0.2087  3.1772
13359TIP3    H261493   6.299   2.037   3.753  0.6059  1.1917  1.0320
13360TIP3   OH261494   1.034   4.202   1.037 -0.0819  0.3424  0.8014
13360TIP3    H161495   1.091   4.206   0.960 -0.5852 -0.8810  0.3543
13360TIP3    H261496   1.091   4.228   1.110  1.2247 -1.3467  0.4468
13361TIP3   OH261497   5.425   6.196   0.395  0.0780  0.9711 -0.4838
13361TIP3    H161498   5.330   6.198   0.405 -0.0690 -0.7181 -1.1056
13361TIP3    H261499   5.458   6.187   0.485 -0.4814 -0.3495 -0.3791
13362TIP3   OH261500   0.760   5.974   3.354 -0.4212  0.6269  0.2374
13362TIP3    H161501   0.801   6.060   3.365  1.5470 -0.3257  0.8379
13362TIP3    H261502   0.718   5.957   3.438  0.8412  0.2037  0.8007
13363TIP3   OH261503   2.234   2.580   3.434  0.2565 -0.5317  0.1298
13363TIP3    H161504   2.145   2.595   3.466  0.1587 -2.5399  0.9439
13363TIP3    H261505   2.230   2.598   3.340 -1.4756 -2.2103 -0.1760
13364TIP3   OH261506   6.118   3.716  14.560  0.6245 -0.2396  0.2422
13364TIP3    H161507   6.120   3.788  14.623  1.4613 -1.2924  1.4724
13364TIP3    H261508   6.142   3.756  14.477 -0.1553  1.1200  0.6446
13365TIP3   OH261509   3.360   5.006   3.320 -0.4199 -0.4204 -0.2194
13365TIP3    H161510   3.429   5.034   3.260 -1.3351  0.6546 -0.8198
13365TIP3    H261511   3.329   4.923   3.283 -0.9863  0.2381 -1.2932
13366TIP3   OH261512   0.451   1.372  13.181 -0.5571  0.1533 -0.2577
13366TIP3    H161513   0.385   1.439  13.199 -1.7336 -1.1779  0.6182
13366TIP3    H261514   0.418   1.293  13.225  2.6574 -0.0836  2.1292
13367TIP3   OH261515   5.889   2.943   2.043  0.3542  0.3238  0.3970
13367TIP3    H161516   5.969   2.901   2.012  0.9666  0.0347  2.2711
13367TIP3    H261517   5.851   2.880   2.105 -0.1691  1.3864  1.1773
13368TIP3   OH261518   1.156   4.697   4.610 -0.5045  0.4813 -0.0499
13368TIP3    H161519   1.175   4.621   4.665 -2.4914  0.5270  0.7724
13368TIP3    H261520   1.163   4.665   4.520  1.4979  0.0822  0.1901
13369TIP3   OH261521   1.945   4.504   4.749  0.2850  0.0540 -0.8545
13369TIP3    H161522   1.984   4.504   4.836 -1.3853  1.4710 -0.0400
13369TIP3    H261523   1.963   4.592   4.715 -1.3326  0.4362 -0.8145
13370TIP3   OH261524   5.523   0.362   1.363  0.2906  0.0660 -0.8352
13370TIP3    H161525   5.442   0.311   1.365 -0.6719  1.5352 -1.0039
13370TIP3    H261526   5.578   0.318   1.297  0.2451 -1.7796  0.2785
13371TIP3   OH261527   0.341   3.456  12.172  0.2546  0.0410 -0.2470
13371TIP3    H161528   0.270   3.458  12.108 -0.9020 -0.7055  0.9465
13371TIP3    H261529   0.388   3.375  12.154 -0.8178 -0.7928  0.5780
13372TIP3   OH261530   3.125   1.022   1.575  0.8094 -0.0719  0.6576
13372TIP3    H161531   3.092   1.073   1.649  0.0463 -0.0162  0.2869
13372TIP3    H261532   3.166   1.086   1.517  2.5015 -0.2528  1.5769
13373TIP3   OH261533   1.893   3.493  12.011  0.0003 -0.3944  0.0311
13373TIP3    H161534   1.962   3.493  11.945 -0.7578 -1.5834 -0.8081
13373TIP3    H261535   1.818   3.534  11.967 -0.0535  0.2365  0.6885
13374TIP3   OH261536   2.322   1.021  15.051 -0.1907  0.2064 -0.6671
13374TIP3    H161537   2.386   1.014  14.980  0.1576  1.0316 -0.4391
13374TIP3    H261538   2.315   1.114  15.068 -0.4417  0.0261  0.2413
13375TIP3   OH261539   5.965   5.683  11.148  0.1886 -0.4902  0.3584
13375TIP3    H161540   5.923   5.682  11.233  0.6767  0.5483  0.6285
13375TIP3    H261541   6.044   5.736  11.160  0.1791 -0.1755 -0.7640
13376TIP3   OH261542   4.393   6.553   0.921  0.4338  0.2014  0.0088
13376TIP3    H161543   4.475   6.535   0.875  0.3605  0.4523 -0.2202
13376TIP3    H261544   4.325   6.529   0.858  0.3089 -1.1401  0.6098
13377TIP3   OH261545   4.357   1.878   3.611 -0.8121  0.0733  0.3719
13377TIP3    H161546   4.439   1.915   3.644 -0.9624  0.9165 -0.1698
13377TIP3    H261547   4.382   1.793   3.573  0.0442  0.8696 -0.9261
13378TIP3   OH261548   6.468   5.087  12.090  0.5935  0.0754  0.3119
13378TIP3    H161549   6.405   5.152  12.057 -2.2106 -2.1403  0.8835
13378TIP3    H261550   6.512   5.132  12.163  1.1937  2.3602 -1.3330
13379TIP3   OH261551   2.211   4.678  11.884  0.3559  0.0664 -0.8598
13379TIP3    H161552   2.221   4.690  11.978  0.5158 -1.7504 -0.5997
13379TIP3    H261553   2.246   4.590  11.867 -0.2735  0.0877 -2.5032
13380TIP3   OH261554   4.401   6.259   5.516 -0.4556 -0.2680  0.1595
13380TIP3    H161555   4.406   6.168   5.489  0.0203 -0.1615 -0.1221
13380TIP3    H261556   4.484   6.275   5.562 -0.6523 -0.0544  0.4447
13381TIP3   OH261557   6.030   6.336   0.426  0.0832 -0.2598 -0.6859
13381TIP3    H161558   6.019   6.418   0.473  2.6850 -0.3457  0.2591
13381TIP3    H261559   5.941   6.308   0.403 -1.0344  1.4829  1.2614
13382TIP3   OH261560   0.251   6.462  10.563 -0.2853  0.1083 -0.5813
13382TIP3    H161561   0.203   6.538  10.528  0.3372  0.1608 -1.3672
13382TIP3    H261562   0.244   6.396  10.494  0.2801 -0.0777 -0.4690
13383TIP3   OH261563   6.520   3.695  14.206  0.5865 -0.4906  0.0049
13383TIP3    H161564   6.516   3.756  14.132 -1.1923 -1.9377 -1.2158
13383TIP3    H261565   6.466   3.736  14.274  0.3580 -0.1604 -0.3669
13384TIP3   OH261566   3.900   0.426   4.020 -0.0949 -0.0296 -0.0336
13384TIP3    H161567   3.882   0.483   4.095 -1.8167 -0.7573  0.1507
13384TIP3    H261568   3.814   0.410   3.981  0.5994 -0.8869 -1.2812
13385TIP3   OH261569   2.465   4.117  12.843 -0.0934  0.1745  0.3719
13385TIP3    H161570   2.433   4.205  12.821 -0.2285 -0.1260 -0.6879
13385TIP3    H261571   2.426   4.060  12.777  0.7777 -0.5433  0.4596
13386TIP3   OH261572   3.833   5.613   4.695 -0.4697 -0.0992  0.2791
13386TIP3    H161573   3.759   5.641   4.748  0.0373  0.6551  0.5995
13386TIP3    H261574   3.892   5.689   4.693  0.2843 -0.6757  0.0148
13387TIP3   OH261575   6.497   0.947  13.033  0.2047 -0.4226 -0.1226
13387TIP3    H161576   6.551   0.875  13.000 -0.7655 -0.6796 -1.2311
13387TIP3    H261577   6.517   1.020  12.974 -0.2466 -0.3521 -0.1872
13388TIP3   OH261578   1.338   0.518   1.384  0.1448 -0.2092  0.2151
13388TIP3    H161579   1.258   0.471   1.359  0.2656 -0.1004 -0.3873
13388TIP3    H261580   1.350   0.498   1.477 -1.9053  1.7122  0.9744
13389TIP3   OH261581   4.876   4.167   4.519  0.0612 -0.7259  0.1065
13389TIP3    H161582   4.967   4.141   4.512 -0.0022 -1.0745  0.5339
13389TIP3    H261583   4.878   4.250   4.567  0.1704 -0.5983 -0.1181
13390TIP3   OH261584   6.022   1.323  15.838 -0.1860 -0.6082  0.3881
13390TIP3    H161585   5.937   1.300  15.800 -0.7425  1.5477  0.1612
13390TIP3    H261586   6.014   1.298  15.930 -0.8067 -1.0749  0.2120
13391TIP3   OH261587   4.451   5.078  16.316 -0.0020  0.0628  0.4465
13391TIP3    H161588   4.423   5.114  16.232 -1.0243 -1.6191  0.0035
13391TIP3    H261589   4.530   5.029  16.295 -0.8751 -1.2980  0.1880
13392TIP3   OH261590   2.674   2.818  17.292 -0.4707  0.3022  0.3100
13392TIP3    H161591   2.730   2.896  17.291  0.5971 -0.4135  1.3174
13392TIP3    H261592   2.728   2.750  17.331 -1.6459 -0.7572  0.1689
13393TIP3   OH261593   5.518   6.387  12.257  0.2443 -0.1101 -0.0895
13393TIP3    H161594   5.431   6.406  12.292 -0.0667 -0.5744 -0.5960
13393TIP3    H261595   5.510   6.403  12.163  0.4524 -1.0540 -0.2738
13394TIP3   OH261596   2.020   5.818  14.437  0.8882 -0.1034  0.5667
13394TIP3    H161597   1.939   5.856  14.405  0.6298  1.7754  3.1041
13394TIP3    H261598   2.020   5.728  14.404 -1.1721  0.4743 -1.1864
13395TIP3   OH261599   1.507   3.974   2.309 -0.2409  0.2527 -0.0576
13395TIP3    H161600   1.594   3.938   2.325  0.2435  1.4864  0.2334
13395TIP3    H261601   1.450   3.898   2.298  1.2461 -0.6291 -2.4139
13396TIP3   OH261602   2.940   6.253   0.628  0.2970 -0.0990 -0.0151
13396TIP3    H161603   2.892   6.238   0.709  2.5916  0.1539  1.4833
13396TIP3    H261604   2.951   6.165   0.590 -1.4936 -0.1320 -0.5371
13397TIP3   OH261605   3.831   1.308  12.135 -0.8865 -0.1224  0.4769
13397TIP3    H161606   3.737   1.326  12.135 -0.7771  0.6518  1.8760
13397TIP3    H261607   3.852   1.287  12.044 -2.2729  0.4624 -0.0087
13398TIP3   OH261608   5.958   1.866  15.563  0.0865 -0.4398  0.2275
13398TIP3    H161609   5.903   1.940  15.537  1.8692  1.2990  1.1707
13398TIP3    H261610   5.918   1.833  15.643  0.7727  1.3143  1.3492
13399TIP3   OH261611   3.843   4.546  15.630  0.0381  0.0992 -0.2371
13399TIP3    H161612   3.822   4.478  15.694 -0.1455 -0.4112 -0.8300
13399TIP3    H261613   3.864   4.623  15.683 -0.3515 -0.2436  0.4277
13400TIP3   OH261614   3.293   5.265  13.806 -0.2226  0.2577 -0.0511
13400TIP3    H161615   3.377   5.251  13.850 -0.2725  0.5673  0.1504
13400TIP3    H261616   3.228   5.230  13.868 -0.2127 -0.4334 -0.4223
13401TIP3   OH261617   0.957   4.645   0.869 -0.4169  0.4846  0.1330
13401TIP3    H161618   0.997   4.705   0.931  1.2784 -0.1999 -0.2404
13401TIP3    H261619   0.871   4.625   0.906 -0.6765  2.4492  0.6827
13402TIP3   OH261620   5.129   2.936  14.564 -0.6863 -0.4606 -0.2837
13402TIP3    H161621   5.088   2.922  14.478 -1.1167  0.8691 -0.3266
13402TIP3    H261622   5.177   2.855  14.581 -0.1757 -0.5802 -2.0071
13403TIP3   OH261623   2.806   0.631   4.622 -0.1206  0.2561  0.2607
13403TIP3    H161624   2.863   0.645   4.547 -0.8402 -0.0718 -0.3652
13403TIP3    H261625   2.858   0.659   4.698 -0.4708  3.6926 -0.6057
13404TIP3   OH261626   1.404   1.569   1.007  0.1725 -0.3616 -0.2298
13404TIP3    H161627   1.345   1.515   0.953  0.2141 -0.0210 -0.6260
13404TIP3    H261628   1.490   1.555   0.968  0.2275 -0.2334 -0.1505
13405TIP3   OH261629   3.494   4.158   2.156  0.4139 -0.3170 -0.2384
13405TIP3    H161630   3.493   4.096   2.083 -1.4971 -2.3420  1.3962
13405TIP3    H261631   3.441   4.231   2.126  0.2140 -0.8130 -1.1254
13406TIP3   OH261632   2.041   4.553   0.537  0.1442 -0.3612  0.1627
13406TIP3    H161633   2.093   4.492   0.590  3.1640  1.2749 -0.6971
13406TIP3    H261634   2.098   4.629   0.525 -2.4155  1.4944 -1.1348
13407TIP3   OH261635   4.617   2.784  14.047 -0.2520  0.2308 -0.0133
13407TIP3    H161636   4.685   2.736  14.000 -0.0115  1.4802 -0.9861
13407TIP3    H261637   4.620   2.872  14.010 -1.4126  0.7048  0.9666
13408TIP3   OH261638   3.167   2.270   2.070 -0.2615  0.6235 -0.2046
13408TIP3    H161639   3.249   2.227   2.095 -1.6149 -1.5809  0.7326
13408TIP3    H261640   3.175   2.359   2.105  2.0337  0.7443 -0.8788
13409TIP3   OH261641   2.953   0.680  13.556 -0.0834 -0.5179 -0.1017
13409TIP3    H161642   2.886   0.672  13.623  0.4994 -0.5981  0.4804
13409TIP3    H261643   3.029   0.718  13.601  0.2081 -0.2569 -0.7854
13410TIP3   OH261644   5.734   5.161   3.085 -0.1520  0.1202 -0.2333
13410TIP3    H161645   5.640   5.145   3.095 -0.2404 -0.8130 -2.1511
13410TIP3    H261646   5.746   5.179   2.992  1.0916  4.0013  0.5003
13411TIP3   OH261647   1.281   2.313  15.169 -0.5341 -0.0007  0.1022
13411TIP3    H161648   1.339   2.349  15.237 -1.1708  0.8429  0.2199
13411TIP3    H261649   1.228   2.248  15.214 -0.5014  0.0854  0.2648
13412TIP3   OH261650   6.559   0.090   0.670  0.2152 -0.0224  0.2032
13412TIP3    H161651   6.620   0.065   0.600  0.0352  1.2651 -0.4507
13412TIP3    H261652   6.580   0.032   0.742 -0.0636 -1.8989 -1.1411
13413TIP3   OH261653   0.122   3.020  14.786 -0.2619  0.0648 -0.7065
13413TIP3    H161654   0.156   3.040  14.699  0.2471 -1.5305 -0.9164
13413TIP3    H261655   0.026   3.024  14.776 -0.2132 -0.3268 -1.4094
13414TIP3   OH261656   3.947   3.560  14.226 -0.7348 -0.4558 -0.1359
13414TIP3    H161657   3.903   3.529  14.306  0.2163  0.7877  0.9147
13414TIP3    H261658   3.949   3.655  14.235  0.7210 -0.3841 -0.9238
13415TIP3   OH261659   4.009   3.801  13.705  0.0218 -0.1101  0.5971
13415TIP3    H161660   3.945   3.733  13.685  1.3146 -0.9786 -0.8477
13415TIP3    H261661   3.998   3.818  13.798 -1.2398 -1.3401  0.7035
13416TIP3   OH261662   1.248   0.664  16.645 -0.1275 -0.2455  0.2795
13416TIP3    H161663   1.303   0.594  16.682 -3.2910 -1.7337  2.6483
13416TIP3    H261664   1.162   0.625  16.638 -1.3841  2.5449 -1.3926
13417TIP3   OH261665   4.879   3.971   1.100 -0.1166  0.3966 -0.0308
13417TIP3    H161666   4.788   3.993   1.121 -0.0079  0.0203  0.8712
13417TIP3    H261667   4.904   4.035   1.034 -1.3543 -0.1394 -1.0533
13418TIP3   OH261668   0.418   5.962  17.041 -0.3297  0.1049 -0.1741
13418TIP3    H161669   0.468   6.029  17.087 -0.1845  0.6093 -1.0498
13418TIP3    H261670   0.367   6.010  16.976  0.2899 -0.6736 -1.2821
13419TIP3   OH261671   2.861   3.076   4.312  0.1052  0.6256 -0.3334
13419TIP3    H161672   2.869   2.989   4.352  1.8678  0.9163  0.0522
13419TIP3    H261673   2.785   3.069   4.254 -1.1763 -0.4703  1.3946
13420TIP3   OH261674   0.629   1.758  14.227 -0.4524 -0.4099  0.1317
13420TIP3    H161675   0.544   1.768  14.271 -0.7100 -0.8552 -0.2448
13420TIP3    H261676   0.616   1.683  14.169  0.0597 -0.1876 -0.2732
13421TIP3   OH261677   6.543   3.480  14.379 -0.3606 -0.1277  0.3961
13421TIP3    H161678   6.593   3.555  14.349 -0.8229  0.2135  0.4694
13421TIP3    H261679   6.484   3.515  14.446  0.1021 -0.7368  1.1337
13422TIP3   OH261680   6.380   5.788  12.450 -0.2985  0.5574 -0.3159
13422TIP3    H161681   6.344   5.866  12.406 -0.3639  0.4740 -0.4100
13422TIP3    H261682   6.413   5.734  12.378  0.2088  0.7312 -0.2160
13423TIP3   OH261683   4.919   5.409  15.491 -0.6033 -0.2516  0.1035
13423TIP3    H161684   4.924   5.494  15.449 -0.0595 -0.1069  0.4455
13423TIP3    H261685   4.853   5.361  15.442 -0.4856  0.1607 -0.4584
13424TIP3   OH261686   4.245   4.939  16.683  0.1979 -0.7542 -0.4424
13424TIP3    H161687   4.274   4.922  16.773 -0.3973  0.9625  0.1295
13424TIP3    H261688   4.278   5.026  16.664 -0.7526 -0.5972 -1.4248
13425TIP3   OH261689   2.608   0.770   0.532  0.5349  0.2506 -0.2073
13425TIP3    H161690   2.638   0.860   0.544 -1.1514  0.8448 -0.2155
13425TIP3    H261691   2.536   0.777   0.470  0.1357 -1.0559  0.0870
13426TIP3   OH261692   5.347   1.860  13.002  0.2460 -0.0394 -0.6559
13426TIP3    H161693   5.330   1.768  12.984  0.1758 -0.0914 -0.3259
13426TIP3    H261694   5.272   1.890  13.053  0.1380  0.2711 -0.9936
13427TIP3   OH261695   4.062   5.933  16.520 -0.2151  0.3262  0.4501
13427TIP3    H161696   4.066   6.003  16.586 -2.6415  0.9332  0.0365
13427TIP3    H261697   3.996   5.872  16.553 -1.3842  0.5748 -1.2946
13428TIP3   OH261698   4.298   4.490  13.432  0.6112  0.6072 -0.4928
13428TIP3    H161699   4.306   4.396  13.420  1.7698  0.7750 -1.2131
13428TIP3    H261700   4.204   4.505  13.446 -0.2280 -0.2841 -4.0532
13429TIP3   OH261701   6.333   4.848  13.301  0.2416 -0.0476  0.1293
13429TIP3    H161702   6.294   4.880  13.219 -2.9696  0.7114  1.8152
13429TIP3    H261703   6.353   4.928  13.350 -1.1614 -0.5011  1.4839
13430TIP3   OH261704   5.739   1.715  17.238 -0.1178  0.2627  0.7939
13430TIP3    H161705   5.731   1.764  17.320 -1.4309  0.9596  0.2764
13430TIP3    H261706   5.760   1.782  17.172 -0.9457 -0.0058  0.2452
13431TIP3   OH261707   1.415   3.522  14.886 -0.4499  0.3240  0.1526
13431TIP3    H161708   1.436   3.436  14.922 -4.8885 -1.1480 -0.2606
13431TIP3    H261709   1.422   3.511  14.791 -0.1676  0.7178  0.1239
13432TIP3   OH261710   5.889   4.031  14.661  0.3469  0.0471  0.3421
13432TIP3    H161711   5.851   4.054  14.576  0.6669 -0.9719 -0.0967
13432TIP3    H261712   5.876   4.109  14.715  0.5002  0.8761 -0.7622
13433TIP3   OH261713   0.374   5.550   5.671 -0.3245  0.0655  0.0730
13433TIP3    H161714   0.305   5.541   5.738 -0.6431 -2.1422 -0.4626
13433TIP3    H261715   0.380   5.644   5.656 -1.7926  0.4716  1.6159
13434TIP3   OH261716   4.096   1.881  15.048  0.3592  0.7455 -0.2462
13434TIP3    H161717   4.133   1.792  15.042 -0.9676  0.1791 -0.2816
13434TIP3    H261718   4.172   1.938  15.039  1.6314 -0.3818  2.3698
13435TIP3   OH261719   5.229   2.320  11.804  0.9548  0.2758  0.2442
13435TIP3    H161720   5.260   2.301  11.893  0.9372  1.8839  0.6287
13435TIP3    H261721   5.156   2.260  11.791  0.2315  0.7598  1.7649
13436TIP3   OH261722   5.098   5.572  14.887 -0.1883  0.2888 -0.1562
13436TIP3    H161723   5.073   5.646  14.942 -0.1819  0.4109 -0.3172
13436TIP3    H261724   5.018   5.548  14.840 -0.3675 -0.2523  0.4120
13437TIP3   OH261725   6.398   2.207  12.895  0.1743  0.1119 -0.7736
13437TIP3    H161726   6.382   2.232  12.986 -1.9434  0.1632 -1.1148
13437TIP3    H261727   6.429   2.287  12.854 -0.7254  0.6193 -0.5003
13438TIP3   OH261728   3.807   6.153   4.608  0.3704  0.0009 -0.0593
13438TIP3    H161729   3.850   6.200   4.679 -2.4991  0.4857  1.5168
13438TIP3    H261730   3.757   6.084   4.651 -0.7797 -0.2416 -1.6780
13439TIP3   OH261731   4.310   1.015   0.177 -0.1665  0.1945 -0.0716
13439TIP3    H161732   4.255   0.974   0.111  0.6916 -0.4126 -0.4355
13439TIP3    H261733   4.314   1.107   0.153  0.7672 -0.1522 -1.3419
13440TIP3   OH261734   3.506   3.856   2.590  0.0334  0.0494  0.4210
13440TIP3    H161735   3.417   3.823   2.584 -1.5461  3.5510  1.8636
13440TIP3    H261736   3.526   3.890   2.503  0.9785 -2.7339 -0.5524
13441TIP3   OH261737   6.513   5.943  15.619  0.4465  0.4042  0.0961
13441TIP3    H161738   6.481   5.885  15.688 -1.3690  1.2932  0.0532
13441TIP3    H261739   6.558   6.013  15.665  1.4232 -0.2837  0.2194
13442TIP3   OH261740   1.928   6.718   2.938 -0.4647  0.0138  0.0308
13442TIP3    H161741   1.982   6.669   3.000 -0.1041  0.4019  0.0228
13442TIP3    H261742   1.870   6.771   2.993 -0.8183 -0.3709  0.0388
13443TIP3   OH261743   6.269   2.340   0.309 -0.1446 -0.1277 -0.0627
13443TIP3    H161744   6.198   2.377   0.361  0.4860  1.0833 -0.0418
13443TIP3    H261745   6.334   2.410   0.303  1.2496 -1.3484  0.2767
13444TIP3   OH261746   5.255   5.474   5.737 -0.1901 -0.1574 -0.3004
13444TIP3    H161747   5.171   5.442   5.769 -0.6305 -0.4233 -1.6717
13444TIP3    H261748   5.291   5.402   5.685  1.6599 -0.6718  1.5346
13445TIP3   OH261749   0.102   3.926  14.031 -0.0661 -0.2800  0.0547
13445TIP3    H161750   0.151   3.990  14.081 -2.5593  0.4045  1.8219
13445TIP3    H261751   0.088   3.967  13.945  2.1976 -0.4550 -0.4516
13446TIP3   OH261752   2.925   4.312  11.138 -0.4203 -0.4109 -0.4947
13446TIP3    H161753   2.897   4.383  11.081 -0.5277  0.7336  0.9395
13446TIP3    H261754   3.020   4.326  11.149 -0.3607 -0.7499 -0.5687
13447TIP3   OH261755   5.008   2.681   4.341  0.3554 -0.0406 -0.1827
13447TIP3    H161756   4.945   2.751   4.327  0.0022 -0.7236 -2.5443
13447TIP3    H261757   4.959   2.600   4.324  1.3730 -0.6965 -0.1438
13448TIP3   OH261758   2.323   2.788  15.572 -0.1057 -0.5213 -0.1561
13448TIP3    H161759   2.414   2.797  15.542 -0.2746  0.2224 -0.4634
13448TIP3    H261760   2.319   2.699  15.609  0.6727 -0.6615 -0.3807
13449TIP3   OH261761   3.336   0.883  14.684  0.1224  0.0880 -0.1925
13449TIP3    H161762   3.396   0.895  14.758  2.3496  0.4261 -1.9531
13449TIP3    H261763   3.268   0.825  14.718 -0.0426  1.7450  2.6682
13450TIP3   OH261764   0.236   0.221  16.142  0.3121 -0.2638  0.1638
13450TIP3    H161765   0.156   0.274  16.144  0.0109 -0.5336 -2.1609
13450TIP3    H261766   0.304   0.278  16.180 -0.4255  1.0032 -0.3767
13451TIP3   OH261767   2.897   5.176   4.776  0.3434  0.3267 -0.6622
13451TIP3    H161768   2.828   5.145   4.834 -0.6077 -2.2403 -2.9800
13451TIP3    H261769   2.971   5.192   4.835 -0.5728 -2.0157  1.3244
13452TIP3   OH261770   6.511   2.150  14.082  0.2777  0.2479 -0.2320
13452TIP3    H161771   6.578   2.217  14.083 -0.3913  0.9691  1.5808
13452TIP3    H261772   6.439   2.189  14.032  0.6672  0.0228 -0.9837
13453TIP3   OH261773   1.347   5.028   3.829  0.1064  0.0932 -0.1906
13453TIP3    H161774   1.289   4.976   3.884 -0.3406 -2.2660 -2.6880
13453TIP3    H261775   1.299   5.109   3.813 -1.2619 -0.6362  0.0700
13454TIP3   OH261776   5.198   4.475   5.749  0.1631 -0.0335 -0.4472
13454TIP3    H161777   5.141   4.406   5.716  1.1954 -0.7014 -0.8589
13454TIP3    H261778   5.244   4.434   5.823  1.4992 -0.1172 -1.3001
13455TIP3   OH261779   5.200   5.301  15.551  0.5431 -0.5798  0.1008
13455TIP3    H161780   5.243   5.323  15.469 -0.7656  2.0006 -0.0019
13455TIP3    H261781   5.107   5.318  15.535  0.5117  3.1128  2.8679
13456TIP3   OH261782   2.292   3.389  11.696  0.5454 -0.6855 -0.1935
13456TIP3    H161783   2.377   3.390  11.740  0.6234 -1.2429 -0.3228
13456TIP3    H261784   2.252   3.306  11.724  0.8759 -1.3743 -1.7020
13457TIP3   OH261785   5.185   3.329   4.670 -0.7013 -0.5138 -0.1671
13457TIP3    H161786   5.138   3.299   4.592 -0.2533  1.0852 -1.1140
13457TIP3    H261787   5.277   3.330   4.643 -0.2777 -1.9980  1.1123
13458TIP3   OH261788   3.168   1.384   3.025 -0.3516  0.2522 -0.4112
13458TIP3    H161789   3.212   1.386   2.940 -0.2823 -0.0074 -0.3847
13458TIP3    H261790   3.239   1.386   3.089 -0.3860  0.0261 -0.3652
13459TIP3   OH261791   6.594   4.060   4.910  0.5611 -0.2396 -0.2567
13459TIP3    H161792   6.608   4.102   4.825  1.9433 -1.7776 -0.8447
13459TIP3    H261793   6.540   3.983   4.890  1.4349 -0.9754  0.1142
13460TIP3   OH261794   6.656   3.489   4.183 -0.7294 -0.0625 -0.8413
13460TIP3    H161795   6.646   3.530   4.269 -2.2920 -2.5658  0.2942
13460TIP3    H261796   6.750   3.492   4.165 -0.0758 -1.2291  1.9254
13461TIP3   OH261797   6.491   4.002   5.644 -1.0590  0.1198 -0.1487
13461TIP3    H161798   6.474   3.908   5.639 -1.5693  0.0944  1.4150
13461TIP3    H261799   6.586   4.009   5.650 -0.7813 -0.0927 -3.0009
13462TIP3   OH261800   6.340   1.927   2.843 -0.0014  0.0165 -0.1619
13462TIP3    H161801   6.322   1.841   2.880 -0.5522 -0.3844 -1.3184
13462TIP3    H261802   6.366   1.980   2.918  1.2352 -1.3826  0.4636
13463TIP3   OH261803   0.523   4.478  15.944 -0.1273 -0.0091 -0.1203
13463TIP3    H161804   0.613   4.458  15.968 -0.1752 -0.3002 -0.1798
13463TIP3    H261805   0.471   4.408  15.985 -0.5422  1.2744  1.6681
13464TIP3   OH261806   5.679   4.018  13.206 -0.4986  0.4992 -0.6343
13464TIP3    H161807   5.629   4.038  13.285 -1.7188  0.0663 -1.2746
13464TIP3    H261808   5.666   3.924  13.192 -2.9297  1.0613 -3.0496
13465TIP3   OH261809   4.931   2.181  16.091  0.1016 -0.4333 -0.5370
13465TIP3    H161810   4.882   2.193  16.009 -2.0919  1.0783  0.8962
13465TIP3    H261811   4.884   2.112  16.137 -1.1203  1.3903  1.0887
13466TIP3   OH261812   3.488   4.200   0.894 -0.6325  0.8927 -0.0751
13466TIP3    H161813   3.494   4.272   0.956  1.1418  0.3925  0.3701
13466TIP3    H261814   3.394   4.188   0.881 -1.0133  3.5289 -0.4840
13467TIP3   OH261815   1.938   0.980  14.563 -0.0468  0.5867 -0.1140
13467TIP3    H161816   1.989   0.939  14.492 -0.4949  0.8073 -0.5676
13467TIP3    H261817   1.863   1.018  14.519 -1.2499 -0.7601  0.6870
13468TIP3   OH261818   1.701   2.881  12.613  0.5054 -0.2675  0.3931
13468TIP3    H161819   1.776   2.939  12.602 -0.2204  0.6459  0.0919
13468TIP3    H261820   1.625   2.935  12.589 -0.2188 -1.2611  0.3719
13469TIP3   OH261821   3.920   2.007   4.429 -0.1105  0.0716 -0.0104
13469TIP3    H161822   3.990   1.943   4.419  0.6750  1.0113 -0.7788
13469TIP3    H261823   3.886   1.992   4.517  0.3564 -1.0889 -0.0152
13470TIP3   OH261824   1.188   6.696  14.758 -0.0781  0.0773  0.0577
13470TIP3    H161825   1.196   6.754  14.833  0.1749  0.9865 -0.6461
13470TIP3    H261826   1.121   6.737  14.703  0.7186  0.2055 -0.8658
13471TIP3   OH261827   3.800   2.546  11.055 -0.3714 -0.6990 -0.4381
13471TIP3    H161828   3.824   2.504  11.138  1.5063 -1.4878 -1.3243
13471TIP3    H261829   3.775   2.635  11.080 -1.7483 -1.4611  1.1660
13472TIP3   OH261830   1.500   4.304  16.570 -0.2255  0.3980 -0.2194
13472TIP3    H161831   1.450   4.223  16.571  0.4104 -0.0201 -1.1291
13472TIP3    H261832   1.495   4.335  16.479 -0.6645  1.5103  0.1624
13473TIP3   OH261833   4.354   2.011   3.363  0.4563 -0.6243 -0.2939
13473TIP3    H161834   4.408   2.089   3.372 -0.2895  0.2500 -2.4744
13473TIP3    H261835   4.314   1.999   3.449 -0.0460  1.9259 -0.0886
13474TIP3   OH261836   4.433   2.841  12.168 -0.4616 -0.0290  0.3896
13474TIP3    H161837   4.466   2.886  12.091  0.2685 -0.8252  0.2217
13474TIP3    H261838   4.462   2.750  12.158  1.0221  0.1605  2.3486
13475TIP3   OH261839   5.694   3.227  13.890  0.6327 -0.1032 -0.2701
13475TIP3    H161840   5.776   3.200  13.931 -0.5276  0.4409  2.6878
13475TIP3    H261841   5.626   3.181  13.940 -0.9362 -0.1756 -2.3216
13476TIP3   OH261842   0.831   4.143   0.648  0.2241 -0.2163 -0.1675
13476TIP3    H161843   0.911   4.151   0.596  1.1443 -2.1590  0.8497
13476TIP3    H261844   0.817   4.230   0.685  0.4665  0.7841 -2.3008
13477TIP3   OH261845   2.017   5.059   3.317  0.0023  0.1253 -0.4005
13477TIP3    H161846   1.943   5.105   3.277 -1.2167  0.9048  2.4763
13477TIP3    H261847   2.078   5.044   3.245 -2.0345  1.3027 -2.4987
13478TIP3   OH261848   1.207   0.742   5.829 -0.0131  0.6099 -0.5396
13478TIP3    H161849   1.160   0.724   5.910  1.4717  1.3368  0.5497
13478TIP3    H261850   1.284   0.685   5.832 -0.1788  0.2973 -1.6838
13479TIP3   OH261851   4.712   5.752   6.002 -0.0335 -0.0550 -0.2017
13479TIP3    H161852   4.700   5.742   6.096  1.4409 -2.4045 -0.1794
13479TIP3    H261853   4.637   5.804   5.973 -0.6153  0.5633  2.2085
13480TIP3   OH261854   0.982   0.839  11.569  0.1386 -0.0367  0.6557
13480TIP3    H161855   0.966   0.797  11.653  1.2976 -0.7289  0.5481
13480TIP3    H261856   0.967   0.932  11.585  0.9907 -0.0814  1.8013
13481TIP3   OH261857   2.222   5.365  14.035 -0.1871 -0.5747 -0.1734
13481TIP3    H161858   2.178   5.307  14.097 -0.8167 -1.4611 -1.3956
13481TIP3    H261859   2.248   5.308  13.962  0.0368  0.5121 -0.9847
13482TIP3   OH261860   1.415   4.359  15.952 -0.1485 -0.7070 -0.3414
13482TIP3    H161861   1.342   4.401  15.999 -0.1471 -2.0335  0.8956
13482TIP3    H261862   1.455   4.431  15.903 -1.6783  0.2488 -0.2721
13483TIP3   OH261863   2.189   6.098  10.973 -0.4376  0.1541  0.1757
13483TIP3    H161864   2.183   6.140  10.887  1.1141  1.9404  0.8568
13483TIP3    H261865   2.201   6.005  10.953  2.5523  0.8009 -1.7085
13484TIP3   OH261866   5.851   5.939   3.673 -0.2872 -0.4915  0.5056
13484TIP3    H161867   5.793   5.889   3.732 -0.2004 -1.9217 -0.5482
13484TIP3    H261868   5.793   6.001   3.630 -0.3560  0.5473  2.0472
13485TIP3   OH261869   3.908   3.083   2.747 -0.1619 -0.9066  0.5693
13485TIP3    H161870   3.935   3.021   2.679  1.6101  0.7544 -0.3578
13485TIP3    H261871   3.988   3.133   2.766 -1.0811 -0.0967  2.5728
13486TIP3   OH261872   1.242   0.954   0.859  0.1903  0.4319 -0.2482
13486TIP3    H161873   1.179   1.025   0.854 -1.8475 -1.3746 -2.9074
13486TIP3    H261874   1.205   0.893   0.924  0.1651  0.2399 -0.4411
13487TIP3   OH261875   2.164   2.316  10.967 -0.4344 -0.1798 -0.1775
13487TIP3    H161876   2.114   2.254  11.021  0.4832 -0.1768  0.6857
13487TIP3    H261877   2.112   2.396  10.968 -1.3043 -0.7099 -0.7680
13488TIP3   OH261878   1.206   1.116  17.312 -0.2727  0.6960 -0.2489
13488TIP3    H161879   1.268   1.046  17.293 -1.4237 -0.7092  0.9040
13488TIP3    H261880   1.150   1.120  17.235 -0.1873  0.3320 -0.3325
13489TIP3   OH261881   6.350   1.057   5.260 -0.2611  0.2013 -0.2862
13489TIP3    H161882   6.283   0.996   5.293  1.4641 -0.7243  1.7040
13489TIP3    H261883   6.341   1.135   5.315 -0.1523  0.3512 -0.4799
13490TIP3   OH261884   3.234   5.495  11.272  0.6665  0.4984  0.3447
13490TIP3    H161885   3.262   5.546  11.349  3.3835  2.0045 -1.4415
13490TIP3    H261886   3.199   5.561  11.212 -1.0442 -0.6013  0.0823
13491TIP3   OH261887   0.030   6.436  14.338 -0.0265 -0.0372 -0.3513
13491TIP3    H161888  -0.044   6.488  14.369  1.2175  0.9043  1.2150
13491TIP3    H261889   0.055   6.382  14.414  2.2758  1.3505 -0.0147
13492TIP3   OH261890   0.928   5.292  13.764  0.2420  0.1499 -0.0353
13492TIP3    H161891   0.853   5.319  13.711  1.1795 -1.0004 -2.0802
13492TIP3    H261892   1.003   5.338  13.726  1.0742 -1.3374 -0.2905
13493TIP3   OH261893   1.528   5.474   4.115 -0.1306  0.5881 -0.0135
13493TIP3    H161894   1.499   5.514   4.197  0.9497  0.4116  0.4657
13493TIP3    H261895   1.512   5.541   4.049 -0.7450  0.8378  0.3727
13494TIP3   OH261896   2.609   2.866  13.440 -0.4197 -0.2750 -0.3285
13494TIP3    H161897   2.665   2.942  13.421  2.5101 -2.6296 -2.0696
13494TIP3    H261898   2.520   2.901  13.438  0.7674  3.2042 -0.3264
13495TIP3   OH261899   6.378   2.728   1.317  0.1506 -0.0950 -0.0317
13495TIP3    H161900   6.427   2.737   1.235 -0.5092  0.1564 -0.4028
13495TIP3    H261901   6.354   2.818   1.340 -1.5814 -0.3439 -0.7438
13496TIP3   OH261902   0.282   4.197   0.528 -0.2657 -0.1207 -0.3728
13496TIP3    H161903   0.239   4.113   0.514  0.0472 -0.1689 -1.1022
13496TIP3    H261904   0.369   4.174   0.560  0.1673 -0.1146 -1.5155
13497TIP3   OH261905   5.445   4.864   4.885 -0.1774 -0.5993 -0.3828
13497TIP3    H161906   5.427   4.854   4.792 -1.5351  0.5149 -0.2741
13497TIP3    H261907   5.409   4.785   4.926  0.2373 -0.9899 -0.7610
13498TIP3   OH261908   2.891   6.554   0.518 -0.1758  0.8107 -0.3981
13498TIP3    H161909   2.894   6.515   0.430 -0.5932 -0.7234  0.2328
13498TIP3    H261910   2.830   6.498   0.566  0.5684  1.2323  1.0603
13499TIP3   OH261911   2.096   1.050   0.279  0.7949 -0.0744 -0.0541
13499TIP3    H161912   2.173   1.052   0.336  0.6501 -0.3510  0.1565
13499TIP3    H261913   2.025   1.021   0.337  0.7406 -0.8413 -0.4861
13500TIP3   OH261914   5.124   5.453   4.379 -0.0257  0.2479 -0.1087
13500TIP3    H161915   5.203   5.444   4.431  0.5996 -0.0096 -1.0779
13500TIP3    H261916   5.101   5.364   4.352 -1.7522  0.0758  1.7148
13501TIP3   OH261917   0.753   4.431   5.068 -0.3261 -0.1744  0.0599
13501TIP3    H161918   0.675   4.385   5.100  0.1990 -0.7177  0.5950
13501TIP3    H261919   0.818   4.362   5.057  0.4359  0.4138  0.7604
13502TIP3   OH261920   1.356   3.754   3.354  0.1269  0.1276  0.6646
13502TIP3    H161921   1.408   3.757   3.434 -0.1648 -1.0780  0.9119
13502TIP3    H261922   1.267   3.775   3.382  0.0924  0.0733  0.5965
13503TIP3   OH261923   4.603   0.996  15.548 -0.7381  0.1312  0.0232
13503TIP3    H161924   4.570   1.068  15.494 -1.0996 -0.1495 -0.1317
13503TIP3    H261925   4.696   1.015  15.558 -1.0104  1.1259  0.7772
13504TIP3   OH261926   1.352   2.379   0.238  0.1026 -0.0374 -0.3082
13504TIP3    H161927   1.259   2.368   0.256 -0.3705  1.8131 -1.3965
13504TIP3    H261928   1.377   2.299   0.191 -0.2454 -1.7610  2.1998
13505TIP3   OH261929   2.134   5.405  12.111  0.5193  0.2914 -0.3527
13505TIP3    H161930   2.107   5.496  12.101  3.5703  1.3387 -0.2856
13505TIP3    H261931   2.215   5.398  12.059  0.7494 -2.1891  0.2015
13506TIP3   OH261932   1.427   3.249   4.905 -0.1356 -0.3882 -0.0655
13506TIP3    H161933   1.476   3.252   4.822  1.1920  0.4816  0.7172
13506TIP3    H261934   1.397   3.339   4.917  0.3889 -0.3217  0.7934
13507TIP3   OH261935   6.242   2.403   5.228  0.2727  0.4913  0.5238
13507TIP3    H161936   6.186   2.480   5.239  1.7344  1.4207  1.9523
13507TIP3    H261937   6.183   2.329   5.233 -1.3325  1.4873 -1.9182
13508TIP3   OH261938   4.565   3.489   5.709  0.2636 -0.3605  0.1234
13508TIP3    H161939   4.650   3.496   5.752 -0.0418 -0.8452  0.8198
13508TIP3    H261940   4.584   3.507   5.617  1.2577 -1.2248  0.1344
13509TIP3   OH261941   0.478   0.079   2.707 -0.0183  0.4171 -0.1739
13509TIP3    H161942   0.495   0.016   2.776 -1.3169  1.1102  0.8162
13509TIP3    H261943   0.540   0.056   2.637  1.7884  0.1133  1.4530
13510TIP3   OH261944   0.784   4.270  13.249  0.5627  0.2016  0.1147
13510TIP3    H161945   0.735   4.188  13.248 -0.0179  0.4911  1.6268
13510TIP3    H261946   0.844   4.262  13.324  0.1477  1.3320  0.5961
13511TIP3   OH261947   3.355   1.757  17.039  0.8690 -0.7221  0.0722
13511TIP3    H161948   3.338   1.666  17.062  1.7780 -0.5400  1.5951
13511TIP3    H261949   3.271   1.802  17.054  1.0115 -0.9087  1.5982
13512TIP3   OH261950   3.899   3.493   4.370  0.2998  0.0710 -0.2989
13512TIP3    H161951   3.920   3.495   4.276  0.3511  0.1137 -0.2867
13512TIP3    H261952   3.969   3.440   4.409 -0.2406 -0.7582 -0.4170
13513TIP3   OH261953   3.900   6.588  13.009  0.2465 -0.0179 -0.0137
13513TIP3    H161954   3.946   6.657  13.057  0.8707 -1.6649  1.8346
13513TIP3    H261955   3.807   6.611  13.018  0.4808  1.3444 -0.7089
13514TIP3   OH261956   4.270   4.092   1.288  0.0339  0.2611 -0.3342
13514TIP3    H161957   4.312   4.020   1.241 -1.3913 -0.5820 -0.3768
13514TIP3    H261958   4.329   4.167   1.275  0.9771 -0.6072 -1.2452
13515TIP3   OH261959   2.076   4.932   5.981  0.5780  0.1009 -0.7585
13515TIP3    H161960   2.144   4.959   6.042  1.5531 -1.4696 -1.0740
13515TIP3    H261961   2.032   5.013   5.955  1.1444  0.9513  0.8330
13516TIP3   OH261962   4.395   4.563  11.591 -0.0058  0.1604 -0.2929
13516TIP3    H161963   4.343   4.628  11.543  0.5212  1.1385  0.4321
13516TIP3    H261964   4.340   4.484  11.590 -2.0865  1.4598  1.4220
13517TIP3   OH261965   0.109   2.982  16.934 -0.4483 -0.0226 -0.7049
13517TIP3    H161966   0.199   2.950  16.937 -0.6083 -0.7215 -2.3697
13517TIP3    H261967   0.117   3.071  16.898 -0.2698  0.7648  1.1633
13518TIP3   OH261968   1.620   4.271  15.111  0.4261  0.1328  0.2442
13518TIP3    H161969   1.702   4.228  15.138  1.0095  2.6306  2.9815
13518TIP3    H261970   1.643   4.319  15.032  1.3263  0.0335  0.4364
13519TIP3   OH261971   2.575   5.358  17.077  0.5969 -0.4510 -0.2926
13519TIP3    H161972   2.636   5.308  17.131  0.7150 -0.2842 -0.2705
13519TIP3    H261973   2.534   5.419  17.138  0.4448 -0.5265 -0.3177
13520TIP3   OH261974   4.877   6.746   6.829  0.1095  0.3057  0.7034
13520TIP3    H161975   4.892   6.822   6.885 -1.1504  0.2260  1.1868
13520TIP3    H261976   4.781   6.740   6.822  0.1703 -1.4225  0.9429
13521TIP3   OH261977   2.154   0.620   0.390  0.6037 -0.8601  0.6826
13521TIP3    H161978   2.121   0.532   0.373 -1.0009 -0.7188  2.6170
13521TIP3    H261979   2.076   0.676   0.386  1.3318  0.2098  1.0456
13522TIP3   OH261980   3.885   5.958  15.665 -0.0840 -0.1147 -0.9819
13522TIP3    H161981   3.853   5.899  15.733 -0.9920 -0.4631 -1.6932
13522TIP3    H261982   3.810   5.971  15.607  1.0137 -0.8285 -2.6240
13523TIP3   OH261983   3.934   4.331   2.691  0.1727 -0.0891  0.6476
13523TIP3    H161984   3.874   4.354   2.620 -0.0320 -0.4674  0.6905
13523TIP3    H261985   3.882   4.272   2.747  1.1190 -1.8552 -0.2542
13524TIP3   OH261986   1.361   4.473   6.485  0.1022  0.1372  0.0671
13524TIP3    H161987   1.268   4.452   6.494 -0.5237  0.6463 -3.6290
13524TIP3    H261988   1.368   4.563   6.518 -0.3859 -0.3365  1.5488
13525TIP3   OH261989   5.214   4.067  16.651  0.5280  0.3521 -0.3421
13525TIP3    H161990   5.249   4.046  16.564  0.1524  2.1085 -0.9448
13525TIP3    H261991   5.156   3.993  16.671  0.7817 -0.1872 -1.4747
13526TIP3   OH261992   6.565   0.961  15.543  0.0346 -0.4783  0.1962
13526TIP3    H161993   6.511   1.035  15.516  0.4300  0.0493  0.8244
13526TIP3    H261994   6.651   0.978  15.505 -0.1776 -1.2316 -0.6617
13527TIP3   OH261995   3.362   3.136  12.706 -0.8420  0.4598 -0.2892
13527TIP3    H161996   3.407   3.116  12.788 -0.2013  1.9177 -0.2530
13527TIP3    H261997   3.377   3.229  12.693 -0.1455  0.0894 -2.5469
13528TIP3   OH261998   4.663   2.585   2.796 -0.2504 -0.5063  0.1459
13528TIP3    H161999   4.677   2.665   2.746  1.6971 -0.2919  0.9276
13528TIP3    H262000   4.743   2.575   2.848 -0.0568 -3.3763 -0.5158
13529TIP3   OH262001   1.129   3.953  15.781  0.7374  0.1359  0.1808
13529TIP3    H162002   1.198   3.979  15.842 -0.0457  0.1619  1.0968
13529TIP3    H262003   1.059   4.017  15.796  0.4784  0.0529 -0.6532
13530TIP3   OH262004   5.373   5.721  11.781 -0.3152 -0.2773 -0.4543
13530TIP3    H162005   5.392   5.632  11.752  0.6420  0.1505 -1.1665
13530TIP3    H262006   5.313   5.756  11.714  0.5723  0.1410 -1.0491
13531TIP3   OH262007   3.679   5.291   3.325 -0.3908 -0.2522  0.7300
13531TIP3    H162008   3.613   5.272   3.259 -0.0850 -2.4456  0.9619
13531TIP3    H262009   3.762   5.268   3.283  0.3117  2.5412  0.4149
13532TIP3   OH262010   4.989   2.943  15.284  0.1578 -0.6831  0.3481
13532TIP3    H162011   4.955   2.975  15.368 -0.0978 -0.5586  0.1976
13532TIP3    H262012   5.084   2.949  15.293  0.1114  0.6198  0.1326
13533TIP3   OH262013   5.231   6.369   1.335  0.4864 -0.3226 -0.2479
13533TIP3    H162014   5.222   6.289   1.283  0.3340 -0.8260  0.5459
13533TIP3    H262015   5.281   6.428   1.278  1.2198 -1.2203 -0.5749
13534TIP3   OH262016   6.554   3.534  11.535 -0.1529  0.2069 -0.1536
13534TIP3    H162017   6.606   3.571  11.606 -1.9192  1.5375  0.5080
13534TIP3    H262018   6.564   3.596  11.463  1.8387 -1.2628 -1.2566
13535TIP3   OH262019   3.870   3.662  17.172  0.9489 -0.2480 -0.2702
13535TIP3    H162020   3.789   3.621  17.201  0.2213  0.8442 -0.6925
13535TIP3    H262021   3.936   3.633  17.235  0.5070 -2.1266 -0.6195
13536TIP3   OH262022   2.767   3.863  15.184  0.0288  0.1448  0.4761
13536TIP3    H162023   2.818   3.820  15.253  1.4085 -0.9817 -1.1774
13536TIP3    H262024   2.729   3.791  15.134 -1.8833  0.9607  0.6824
13537TIP3   OH262025   3.527   6.413   4.192  0.2502 -0.4901  0.8332
13537TIP3    H162026   3.564   6.341   4.243 -1.7429 -2.1130  0.1489
13537TIP3    H262027   3.434   6.414   4.218 -0.2619  0.2919 -0.9163
13538TIP3   OH262028   1.684   2.424  16.489 -0.1443  0.5479  0.3261
13538TIP3    H162029   1.662   2.331  16.494 -1.6715  0.8929  0.9661
13538TIP3    H262030   1.641   2.455  16.409  1.0342  0.5488 -0.3141
13539TIP3   OH262031   6.234   2.083  16.014 -0.1021  0.7413 -0.5337
13539TIP3    H162032   6.313   2.134  16.031 -0.1297  0.1993  1.3639
13539TIP3    H262033   6.193   2.072  16.099 -0.9815 -1.0193 -1.1362
13540TIP3   OH262034   2.525   4.871  12.080 -0.3621 -0.0090  0.2933
13540TIP3    H162035   2.514   4.851  12.173 -0.9565  3.0936  0.9838
13540TIP3    H262036   2.442   4.845  12.040  0.1447 -2.0140  0.4156
13541TIP3   OH262037   1.577   6.181  16.319 -0.2010 -0.5232 -0.1602
13541TIP3    H162038   1.554   6.272  16.303 -0.1757 -0.5856 -0.5669
13541TIP3    H262039   1.497   6.132  16.299 -0.2920 -0.5707  0.3027
13542TIP3   OH262040   5.163   4.686  11.857  0.0541  0.3398  0.4904
13542TIP3    H162041   5.197   4.596  11.852  0.0729  0.3051  1.1650
13542TIP3    H262042   5.210   4.733  11.788  0.7869  0.0660  0.7928
13543TIP3   OH262043   5.672   3.375  13.657  0.2834  0.3205 -0.5821
13543TIP3    H162044   5.744   3.436  13.642 -0.1715  0.7201 -1.2062
13543TIP3    H262045   5.701   3.320  13.730  1.1020  0.6483 -0.6543
13544TIP3   OH262046   2.292   2.977   0.516  0.2135  0.2514  0.1228
13544TIP3    H162047   2.198   2.997   0.509  0.0619 -0.6024 -0.3536
13544TIP3    H262048   2.334   3.050   0.469 -0.1213  1.2800  1.3517
13545TIP3   OH262049   1.676   4.586   5.269 -0.3096  0.4002  0.3367
13545TIP3    H162050   1.732   4.608   5.194  0.8616  0.5310  1.2286
13545TIP3    H262051   1.590   4.569   5.230  0.5996 -0.9688 -1.1988
13546TIP3   OH262052   0.186   1.578   4.706 -0.1360 -0.0101 -0.0109
13546TIP3    H162053   0.125   1.622   4.766  0.9265  1.0910  0.3051
13546TIP3    H262054   0.245   1.530   4.764 -1.0755 -1.6109 -0.3428
13547TIP3   OH262055   4.789   0.152   5.459 -0.1340 -0.3092  0.4912
13547TIP3    H162056   4.771   0.059   5.470  2.9044 -1.4357 -2.4393
13547TIP3    H262057   4.884   0.158   5.454 -0.2214  2.9457  0.2207
13548TIP3   OH262058   3.522   3.028  12.480 -0.1941  0.4623 -0.1335
13548TIP3    H162059   3.459   3.083  12.434 -0.1409  1.5566  1.0338
13548TIP3    H262060   3.494   3.032  12.572  0.8112 -0.0920  0.2092
13549TIP3   OH262061   2.379   6.696   5.665  0.3790  0.1886 -0.2636
13549TIP3    H162062   2.439   6.627   5.694  1.2015  0.0921 -2.0257
13549TIP3    H262063   2.433   6.752   5.609 -0.2357  2.3576  1.1742
13550TIP3   OH262064   5.300   5.204   4.422 -0.2184 -0.0541  0.2510
13550TIP3    H162065   5.335   5.247   4.499  0.2471  0.5679 -0.2970
13550TIP3    H262066   5.369   5.143   4.396 -0.2610 -0.0674  0.1693
13551TIP3   OH262067   3.025   2.041   2.037 -0.3336 -0.5569 -0.3497
13551TIP3    H162068   2.935   2.071   2.025  0.3419  0.9106 -2.2273
13551TIP3    H262069   3.072   2.119   2.067  0.6510 -0.7995 -1.1993
13552TIP3   OH262070   3.242   3.352   2.275  0.6519  0.4147  0.2863
13552TIP3    H162071   3.176   3.411   2.310 -0.4823 -0.0802 -0.9256
13552TIP3    H262072   3.247   3.373   2.182 -0.0860 -1.6216 -0.2726
13553TIP3   OH262073   1.803   1.959   4.979  0.0087 -0.1688  0.3455
13553TIP3    H162074   1.788   1.871   5.013  0.9701 -0.4404  0.0978
13553TIP3    H262075   1.808   1.948   4.884 -0.0361  0.1796  0.2993
13554TIP3   OH262076   2.967   2.197  11.287  0.2202  0.2774  0.0986
13554TIP3    H162077   2.997   2.280  11.326 -0.4564  0.8797 -0.6293
13554TIP3    H262078   2.986   2.206  11.194  0.4227 -0.5208  0.0621
13555TIP3   OH262079   4.371   0.724  15.824 -0.0032 -0.3799  0.0806
13555TIP3    H162080   4.281   0.750  15.806  0.4445 -0.1452 -2.0985
13555TIP3    H262081   4.380   0.732  15.919 -1.7963  1.1782  0.1714
13556TIP3   OH262082   5.672   5.773   3.798 -0.2152  0.4191 -0.2161
13556TIP3    H162083   5.644   5.683   3.782 -2.3012  0.8495  0.6835
13556TIP3    H262084   5.592   5.824   3.793  0.9462  2.2814 -0.8446
13557TIP3   OH262085   6.075   2.641   5.257 -0.6593 -0.2551 -0.2954
13557TIP3    H162086   6.071   2.655   5.163 -2.1166  1.4995 -0.0391
13557TIP3    H262087   5.989   2.607   5.280 -0.3261 -0.6425  0.4120
13558TIP3   OH262088   1.241   4.321   5.199  0.6844  0.0229  0.0767
13558TIP3    H162089   1.221   4.414   5.191  1.1307  0.1428  0.3061
13558TIP3    H262090   1.156   4.279   5.207  0.5265  0.5887  1.6889
13559TIP3   OH262091   3.785   5.873  14.621  0.6524  0.3739  0.2333
13559TIP3    H162092   3.831   5.865  14.538 -0.3017 -0.0878 -0.2672
13559TIP3    H262093   3.850   5.849  14.687  1.0243 -0.6017 -0.4742
13560TIP3   OH262094   4.857   1.558  15.699  0.2087 -0.5225  0.4924
13560TIP3    H162095   4.879   1.498  15.628 -1.2469  0.8591 -1.2264
13560TIP3    H262096   4.908   1.526  15.774  2.4466 -1.5930 -1.3432
13561TIP3   OH262097   1.474   1.574  13.866 -0.0217  0.0401 -0.2465
13561TIP3    H162098   1.417   1.519  13.812  1.1686 -0.7980 -0.7010
13561TIP3    H262099   1.562   1.558  13.831  0.6560  0.2397  1.2959
13562TIP3   OH262100   6.571   2.807  13.793 -0.7051 -0.0887  0.2693
13562TIP3    H162101   6.534   2.855  13.719 -2.0788 -1.6543 -0.1211
13562TIP3    H262102   6.494   2.774  13.841  0.1540 -1.6043  0.6742
13563TIP3   OH262103   4.858   5.183   3.197  0.6500 -0.3770  0.2122
13563TIP3    H162104   4.913   5.194   3.274  1.1185  0.6538 -0.2561
13563TIP3    H262105   4.915   5.144   3.131 -0.4535 -4.0273  1.1917
13564TIP3   OH262106   5.068   4.425   2.036 -0.1911  0.1966  0.3176
13564TIP3    H162107   5.000   4.437   2.102 -0.8939  0.9547 -0.5372
13564TIP3    H262108   5.150   4.423   2.087 -0.7185  0.7888  1.2105
13565TIP3   OH262109   3.584   0.198  15.610 -0.4739 -0.2442  0.4334
13565TIP3    H162110   3.491   0.175  15.616 -0.3928 -0.4905  0.7733
13565TIP3    H262111   3.614   0.158  15.529 -1.4409  2.5785 -1.4785
13566TIP3   OH262112   3.642   5.496   5.164 -0.6532  0.5308 -0.3677
13566TIP3    H162113   3.646   5.580   5.209 -1.1845 -0.2872  1.3143
13566TIP3    H262114   3.550   5.470   5.172 -0.1789 -0.9545  0.6416
13567TIP3   OH262115   6.671   4.711   5.390 -0.2319 -0.5388 -0.0264
13567TIP3    H162116   6.727   4.646   5.349 -0.9181 -1.4710  0.4704
13567TIP3    H262117   6.724   4.790   5.394  0.5956 -1.0508 -0.6942
13568TIP3   OH262118   6.237   1.634  14.464  0.5751 -0.0924  0.2339
13568TIP3    H162119   6.288   1.714  14.453  0.4588 -0.0067  0.3105
13568TIP3    H262120   6.247   1.611  14.556 -0.3287  0.4801  0.4876
13569TIP3   OH262121   3.503   4.542   5.348  0.1343  0.0163  0.5474
13569TIP3    H162122   3.536   4.480   5.284 -1.0760  1.9218 -2.0961
13569TIP3    H262123   3.416   4.509   5.371  1.4940 -2.0218  3.3015
13570TIP3   OH262124   5.174   1.700  12.638 -0.4126  0.3486 -0.3108
13570TIP3    H162125   5.148   1.687  12.547 -0.7883  0.5433 -0.2291
13570TIP3    H262126   5.192   1.793  12.645 -0.7351  0.3936 -0.0899
13571TIP3   OH262127   6.326   6.024  13.449  0.1420  0.8469  0.1706
13571TIP3    H162128   6.337   5.942  13.402  0.3338  0.3144  1.1198
13571TIP3    H262129   6.367   6.009  13.534 -1.5710  1.2331  1.1218
13572TIP3   OH262130   4.255   5.049  12.346 -0.3619 -0.1621  0.0760
13572TIP3    H162131   4.285   5.093  12.425  0.7702  0.3274 -0.5987
13572TIP3    H262132   4.186   4.990  12.376 -0.3590  0.4393  1.3316
13573TIP3   OH262133   0.154   5.714   3.952  0.3281  0.0731  0.1234
13573TIP3    H162134   0.105   5.636   3.925  0.7157 -0.2221  0.2598
13573TIP3    H262135   0.145   5.774   3.878  0.5325 -0.3419 -0.2494
13574TIP3   OH262136   5.785   0.778  12.719 -0.5566  0.3749 -0.7668
13574TIP3    H162137   5.757   0.732  12.640 -0.8329 -1.4661  0.3420
13574TIP3    H262138   5.873   0.744  12.736 -0.1976  1.3091 -0.6492
13575TIP3   OH262139   5.174   2.675   2.785  0.4191  0.3697  0.5063
13575TIP3    H162140   5.244   2.612   2.773 -1.9256 -2.4674  0.5248
13575TIP3    H262141   5.169   2.722   2.702  1.8036  0.0579  0.2311
13576TIP3   OH262142   3.560   5.639  10.921 -0.3058  0.3578 -0.0545
13576TIP3    H162143   3.622   5.579  10.880  0.0641 -1.5707  3.0196
13576TIP3    H262144   3.482   5.587  10.936 -0.5579  1.0665  1.2938
13577TIP3   OH262145   5.390   4.819  16.991  0.4705  0.2441 -0.2428
13577TIP3    H162146   5.298   4.839  16.972 -0.2103 -1.7627  0.5660
13577TIP3    H262147   5.419   4.890  17.048 -0.7759  0.6122 -0.0408
13578TIP3   OH262148   6.626   2.737   5.214  0.0804  0.1529  0.2640
13578TIP3    H162149   6.558   2.702   5.270  0.5503  0.5510  1.1041
13578TIP3    H262150   6.581   2.800   5.157 -0.3051  0.1841  0.6036
13579TIP3   OH262151   5.776   6.472   5.763  0.4232  0.3680 -0.2295
13579TIP3    H162152   5.705   6.475   5.700 -1.8673  0.0279  2.1742
13579TIP3    H262153   5.808   6.562   5.768 -0.6665  0.7803 -0.4686
13580TIP3   OH262154   2.461   1.294   5.012 -0.1634 -0.0613  0.2585
13580TIP3    H162155   2.432   1.247   5.090 -1.0796  2.6373  1.6514
13580TIP3    H262156   2.548   1.326   5.034  0.2200 -0.5888 -0.4552
13581TIP3   OH262157   6.734   2.019   4.521 -0.0241 -0.2800 -0.1902
13581TIP3    H162158   6.766   1.950   4.579 -1.7533 -0.2101  0.9374
13581TIP3    H262159   6.731   2.097   4.577 -1.2142 -0.0844 -0.5068
13582TIP3   OH262160   3.783   5.898  10.972 -0.0989  0.0033 -0.4361
13582TIP3    H162161   3.850   5.939  10.917 -0.8871  1.0937 -0.6191
13582TIP3    H262162   3.822   5.895  11.059  0.0228  1.0852 -0.4388
13583TIP3   OH262163   4.922   5.112   5.391 -0.2466 -0.5015 -0.7573
13583TIP3    H162164   4.878   5.034   5.356  0.8174 -0.7832 -1.5103
13583TIP3    H262165   4.962   5.153   5.314  1.4086 -0.6567 -0.0107
13584TIP3   OH262166   4.087   6.184  12.986 -0.3270  0.7298  0.0854
13584TIP3    H162167   4.180   6.206  12.991 -0.3183  0.7999 -0.3263
13584TIP3    H262168   4.081   6.117  12.917 -0.8972  2.6346 -1.8254
13585TIP3   OH262169   4.955   6.086   3.586  0.2701  0.0128 -0.1229
13585TIP3    H162170   5.050   6.093   3.581  0.1517  2.6569  0.0035
13585TIP3    H262171   4.938   6.043   3.670  1.3370  1.6229  0.9522
13586TIP3   OH262172   0.946   3.947   2.982  0.1408  0.1248 -0.5147
13586TIP3    H162173   1.026   3.992   2.954  0.1374  0.6072  0.2164
13586TIP3    H262174   0.970   3.855   2.986  0.3381  0.1304 -1.3878
13587TIP3   OH262175   4.220   5.386   1.070  0.0775 -0.4875 -0.1735
13587TIP3    H162176   4.261   5.305   1.039  0.0356 -0.1963 -1.0200
13587TIP3    H262177   4.277   5.418   1.140  1.4780  0.0734 -1.5261
13588TIP3   OH262178   0.812   2.020   3.784  0.2347  0.1250 -0.5409
13588TIP3    H162179   0.805   1.958   3.857  1.6748  0.4369 -0.0986
13588TIP3    H262180   0.866   2.091   3.819  0.1019  0.7643 -1.6015
13589TIP3   OH262181   6.714   4.933   6.893 -0.4523 -0.3829 -0.2981
13589TIP3    H162182   6.653   4.898   6.829  0.8229  1.1737 -2.5040
13589TIP3    H262183   6.692   5.026   6.899 -0.6632 -0.5085  1.7433
13590TIP3   OH262184   6.387   5.961  14.483  0.2244 -0.1292  0.2244
13590TIP3    H162185   6.320   6.016  14.443  0.3898  0.0841  0.2370
13590TIP3    H262186   6.468   6.011  14.472  0.1256  0.4106  1.6989
13591TIP3   OH262187   4.551   4.815   4.050 -0.3108 -0.5186  0.3516
13591TIP3    H162188   4.493   4.891   4.042  0.5344 -0.0491 -1.9909
13591TIP3    H262189   4.638   4.853   4.066 -0.1012 -1.0596  0.5323
13592TIP3   OH262190   6.419   1.476  16.998 -0.0237 -0.4296  0.2991
13592TIP3    H162191   6.433   1.480  16.904  1.1277 -0.9232  0.4234
13592TIP3    H262192   6.351   1.410  17.010 -2.3432  1.7292 -0.3279
13593TIP3   OH262193   6.178   3.057  15.990  0.1004  0.0302  0.3302
13593TIP3    H162194   6.235   3.014  16.054  0.0756 -1.2882 -0.4952
13593TIP3    H262195   6.114   2.990  15.966  0.0472  0.5134 -0.9833
13594TIP3   OH262196   3.663   6.206  14.489 -0.0194 -0.1531  0.0730
13594TIP3    H162197   3.714   6.150  14.431 -0.7650 -1.0495  0.2536
13594TIP3    H262198   3.706   6.198  14.574  0.6815  0.6377 -0.1994
13595TIP3   OH262199   4.870   0.652   6.582 -0.7706  0.7816  0.0532
13595TIP3    H162200   4.799   0.656   6.646 -0.6911  0.1848  0.1865
13595TIP3    H262201   4.907   0.740   6.581 -1.5754  1.1271 -0.0898
13596TIP3   OH262202   5.736   4.819   5.331 -0.0888  0.3218 -0.4074
13596TIP3    H162203   5.793   4.761   5.280  0.2616  0.0678  0.2610
13596TIP3    H262204   5.719   4.770   5.411  1.2281  1.6531  0.7222
13597TIP3   OH262205   5.567   2.595  17.301  0.3248 -0.4696 -0.2337
13597TIP3    H162206   5.503   2.552  17.245 -2.0768  1.3210  0.9034
13597TIP3    H262207   5.595   2.528  17.363 -3.8548 -0.5232  1.9707
13598TIP3   OH262208   0.994   3.112  11.804  0.0389  0.2009 -0.3919
13598TIP3    H162209   1.053   3.166  11.857 -0.8620 -0.5795  1.4996
13598TIP3    H262210   0.907   3.142  11.828 -0.4068 -0.4763 -1.1243
13599TIP3   OH262211   0.077   1.556   0.030 -0.3829 -0.0485 -0.3114
13599TIP3    H162212   0.023   1.544   0.108 -1.3636  0.3357 -0.9068
13599TIP3    H262213   0.014   1.559  -0.042  0.2736  2.2061 -0.8697
13600TIP3   OH262214   5.173   2.161  17.179 -0.1725  0.2109  0.2783
13600TIP3    H162215   5.103   2.188  17.239  0.1933  1.3796  0.2149
13600TIP3    H262216   5.204   2.078  17.214 -1.0494  0.0810  0.7797
13601TIP3   OH262217   2.016   1.858  12.949 -0.3220  0.1371  0.5697
13601TIP3    H162218   1.935   1.899  12.919 -1.2584 -0.4994  2.1400
13601TIP3    H262219   2.025   1.779  12.896 -1.2860 -0.3227  1.0723
13602TIP3   OH262220   2.187   6.738   0.707 -0.0994  0.3073 -0.0291
13602TIP3    H162221   2.155   6.816   0.661  0.0839  0.7878  0.6566
13602TIP3    H262222   2.193   6.764   0.798  0.3059 -0.4046  0.1549
13603TIP3   OH262223   6.006   3.849   0.172 -0.1570 -0.4105 -0.1190
13603TIP3    H162224   5.952   3.771   0.186  0.6897 -0.6144  2.6545
13603TIP3    H262225   6.096   3.820   0.189  0.1930  1.1210  0.9110
13604TIP3   OH262226   0.026   2.778  11.409  0.1895 -0.2075  0.4482
13604TIP3    H162227   0.014   2.739  11.495  0.2894 -0.4860  0.3350
13604TIP3    H262228   0.076   2.858  11.425  0.8635 -0.6535  0.5598
13605TIP3   OH262229   4.380   1.552   6.072  0.4861 -0.0376  0.2289
13605TIP3    H162230   4.348   1.636   6.104 -2.3184 -0.7763 -0.3851
13605TIP3    H262231   4.377   1.494   6.149  0.5945 -0.0523  0.2228
13606TIP3   OH262232   0.847   0.963   0.285 -0.1116  0.8901 -0.1564
13606TIP3    H162233   0.760   0.924   0.292  0.0619  0.7678  2.3297
13606TIP3    H262234   0.897   0.901   0.233 -0.6472 -0.7997  1.2181
13607TIP3   OH262235   1.075   4.171   0.517  0.0063 -0.0136  0.4124
13607TIP3    H162236   1.166   4.151   0.494 -0.5418 -1.0377 -1.0034
13607TIP3    H262237   1.026   4.159   0.436 -1.2324  1.8150  0.8150
13608TIP3   OH262238   0.382   6.240   0.211  0.1221  0.3961 -0.5893
13608TIP3    H162239   0.434   6.230   0.132  0.8317 -2.0088  0.0780
13608TIP3    H262240   0.299   6.277   0.181 -0.1025 -1.5998 -2.7122
13609TIP3   OH262241   5.361   4.212   5.137  0.0869 -0.4512  0.0176
13609TIP3    H162242   5.454   4.235   5.149  0.6778 -3.1848  1.5045
13609TIP3    H262243   5.316   4.256   5.208  0.4794 -0.3349  0.1960
13610TIP3   OH262244   1.897   4.181   5.189  0.9820 -0.8416 -0.2440
13610TIP3    H162245   1.985   4.206   5.161  0.0366  0.8096 -2.0018
13610TIP3    H262246   1.873   4.247   5.253  0.6587 -0.6872 -0.5212
13611TIP3   OH262247   6.643   0.157  16.477 -0.1075  0.3071 -0.1400
13611TIP3    H162248   6.705   0.230  16.487 -1.8612  1.5882  2.9510
13611TIP3    H262249   6.667   0.095  16.546 -1.3598  0.1498  0.1777
13612TIP3   OH262250   5.025   4.242  13.100  0.4791  0.4232  0.1533
13612TIP3    H162251   4.984   4.158  13.080 -0.2590  1.3092 -2.3611
13612TIP3    H262252   4.972   4.279  13.171  1.1250 -1.3720  1.6702
13613TIP3   OH262253   4.892   6.575   5.411  0.0143  0.5511  0.0139
13613TIP3    H162254   4.797   6.587   5.413 -0.2338 -0.9425 -1.1472
13613TIP3    H262255   4.917   6.591   5.320  0.9564  1.2379  0.3626
13614TIP3   OH262256   6.006   4.318  15.291  0.0786 -0.0155 -0.3249
13614TIP3    H162257   6.038   4.390  15.237  0.4759 -1.2659 -1.8168
13614TIP3    H262258   5.923   4.293  15.251 -1.1421  0.9208  1.4486
13615TIP3   OH262259   4.498   3.323   2.851  0.5854  0.0729 -0.2252
13615TIP3    H162260   4.491   3.230   2.874  2.3199 -0.6761 -2.3248
13615TIP3    H262261   4.501   3.323   2.755 -2.6201  2.6282 -0.5165
13616TIP3   OH262262   5.405   4.936   4.606  0.3170  0.6340 -0.5422
13616TIP3    H162263   5.404   4.858   4.552 -2.6588  0.7692 -0.8529
13616TIP3    H262264   5.410   5.009   4.543  1.7072  0.7361 -0.3313
13617TIP3   OH262265   0.996   4.274   5.345 -0.5661  0.1125 -0.0108
13617TIP3    H162266   0.965   4.253   5.257 -0.6253  2.3001 -0.5798
13617TIP3    H262267   0.920   4.312   5.388 -0.4053 -0.5171  0.8360
13618TIP3   OH262268   4.936   5.071   5.688  0.2101  0.4327  0.2670
13618TIP3    H162269   4.841   5.075   5.684  0.2538  1.2652 -0.0344
13618TIP3    H262270   4.965   5.071   5.597  0.4788 -0.5688  0.3413
13619TIP3   OH262271   5.363   3.295  15.244  0.0461 -0.2572  0.3204
13619TIP3    H162272   5.398   3.244  15.171 -1.9390 -1.5985  0.2421
13619TIP3    H262273   5.309   3.363  15.204  0.0555 -0.1260  0.5236
13620TIP3   OH262274   2.690   5.026   4.410  0.4756  0.0504  0.5213
13620TIP3    H162275   2.737   5.028   4.327  1.5458  3.0625  1.0674
13620TIP3    H262276   2.757   5.000   4.474 -0.4117 -2.5489  0.5176
13621TIP3   OH262277   1.065   2.928   2.800  0.3515  0.1375 -0.4020
13621TIP3    H162278   1.016   2.890   2.728 -1.6935  1.0312  0.4331
13621TIP3    H262279   1.142   2.968   2.759 -0.7799  0.6480 -2.0974
13622TIP3   OH262280   1.913   4.398  14.474 -0.4371  0.6433  0.4321
13622TIP3    H162281   1.875   4.460  14.411  0.9358  1.0546 -0.0174
13622TIP3    H262282   1.949   4.328  14.420  1.2845  1.2916  0.6793
13623TIP3   OH262283   4.054   4.264   1.217 -0.1334 -0.4850 -0.1523
13623TIP3    H162284   3.979   4.224   1.262 -0.0814  0.5724  0.9107
13623TIP3    H262285   4.128   4.209   1.240 -0.3121 -0.6122  0.1256
13624TIP3   OH262286   4.350   1.791  12.437  0.1898  0.0577  0.1772
13624TIP3    H162287   4.271   1.751  12.401  0.9773 -0.2034 -1.3475
13624TIP3    H262288   4.384   1.845  12.366  2.4843 -1.4160  0.0337
13625TIP3   OH262289   6.440   3.631   3.535 -0.5989 -0.1874  0.3353
13625TIP3    H162290   6.346   3.638   3.520 -0.6824  0.2345  0.9934
13625TIP3    H262291   6.456   3.684   3.613  0.1939 -0.2131  0.2047
13626TIP3   OH262292   4.432   1.958  16.096 -0.8148 -0.1638  0.0151
13626TIP3    H162293   4.471   1.911  16.170 -0.8780  1.0565  0.8515
13626TIP3    H262294   4.338   1.947  16.108 -0.8993  1.3495  1.0629
13627TIP3   OH262295   1.703   0.572  13.661  0.1176  0.1159 -0.1609
13627TIP3    H162296   1.789   0.561  13.620  0.3959  0.9798  0.1879
13627TIP3    H262297   1.653   0.624  13.599  0.2810  0.7459  0.2292
13628TIP3   OH262298   5.308   4.004   4.701 -0.3247 -0.0401 -0.1905
13628TIP3    H162299   5.351   3.953   4.770 -0.4797  0.8990  0.6198
13628TIP3    H262300   5.216   4.006   4.726 -0.2238  1.1817  0.1743
13629TIP3   OH262301   4.883   2.348  15.245  0.0245  0.6113  0.9754
13629TIP3    H162302   4.844   2.384  15.325 -2.2850 -2.2196  1.3048
13629TIP3    H262303   4.959   2.298  15.275  1.5493  2.7198  0.8341
13630TIP3   OH262304   4.705   4.464  10.446  0.1651  0.2957  0.7810
13630TIP3    H162305   4.792   4.483  10.482  0.8770  0.5925 -0.9910
13630TIP3    H262306   4.704   4.368  10.439  1.4611  0.3912 -1.6560
13631TIP3   OH262307   0.347   0.105   3.232  0.0481 -0.1832  0.0019
13631TIP3    H162308   0.385   0.151   3.307 -0.0121 -0.8027  0.4176
13631TIP3    H262309   0.269   0.061   3.266 -0.3624  0.0840 -0.5772
13632TIP3   OH262310   3.886   6.689  11.944 -0.5379 -0.2181 -0.7020
13632TIP3    H162311   3.967   6.687  11.892 -0.1393  2.0168 -0.2506
13632TIP3    H262312   3.817   6.672  11.880  0.0408  1.2365 -1.7730
13633TIP3   OH262313   1.052   2.380   4.929  0.6282  0.3650  0.2770
13633TIP3    H162314   1.061   2.452   4.867 -1.5433  0.4729  0.0267
13633TIP3    H262315   0.962   2.350   4.919  0.7310 -0.7573  2.1627
13634TIP3   OH262316   6.424   0.299   1.584 -0.1890  0.0312  0.5765
13634TIP3    H162317   6.507   0.347   1.583  1.2035 -2.2217  0.6629
13634TIP3    H262318   6.363   0.357   1.627  0.9377  2.3704 -0.7892
13635TIP3   OH262319   1.195   5.007  12.649  0.1513  0.2084  0.5609
13635TIP3    H162320   1.159   4.926  12.683  2.0701  0.0075  2.3124
13635TIP3    H262321   1.209   5.062  12.726  1.9430  0.8938 -0.1722
13636TIP3   OH262322   3.948   6.666  11.073  0.3091  0.1756  0.0196
13636TIP3    H162323   4.021   6.722  11.047 -1.9437  2.7955 -1.1266
13636TIP3    H262324   3.960   6.586  11.022  2.6706  0.2340  0.3602
13637TIP3   OH262325   0.113   2.271   4.181  0.8014  0.1071 -0.7603
13637TIP3    H162326   0.129   2.194   4.236 -1.9457  1.1185  1.7440
13637TIP3    H262327   0.181   2.334   4.208  1.2005 -0.3760 -0.6209
13638TIP3   OH262328   0.468   6.607  16.124 -0.0748 -0.0060  0.6717
13638TIP3    H162329   0.381   6.576  16.097 -0.1798 -0.7698  1.8199
13638TIP3    H262330   0.513   6.625  16.041 -0.6335 -1.5707 -0.0266
13639TIP3   OH262331   0.542   0.445  12.331  0.1741  0.6100 -0.2629
13639TIP3    H162332   0.570   0.451  12.422 -1.9429  0.8116  0.4267
13639TIP3    H262333   0.487   0.522  12.318 -0.8134 -0.2409 -1.2416
13640TIP3   OH262334   2.872   6.131   5.114  0.5373  0.2608 -0.1941
13640TIP3    H162335   2.807   6.109   5.047  0.1013  0.8015  0.0453
13640TIP3    H262336   2.940   6.179   5.066  1.7353 -1.8989 -0.8175
13641TIP3   OH262337   3.326   1.931  15.177  0.1320  0.1879  0.1931
13641TIP3    H162338   3.400   1.908  15.121  0.7847  0.6631  0.8361
13641TIP3    H262339   3.304   2.021  15.151  0.0938  0.2179  0.3282
13642TIP3   OH262340   4.171   1.883  16.616 -0.3445  0.7981 -0.2286
13642TIP3    H162341   4.176   1.788  16.628  2.9952  0.8102 -0.7467
13642TIP3    H262342   4.137   1.893  16.527 -1.2892  0.1543  0.0345
13643TIP3   OH262343   3.292   0.701   5.831 -0.7683 -0.7746  0.2685
13643TIP3    H162344   3.263   0.785   5.865 -1.5720 -1.2062  0.6867
13643TIP3    H262345   3.217   0.643   5.845 -1.2633 -0.9260 -2.4240
13644TIP3   OH262346   4.205   2.938  12.652  0.2855 -0.5844  0.2963
13644TIP3    H162347   4.210   2.935  12.747 -0.1767  0.3653  0.3640
13644TIP3    H262348   4.184   3.030  12.632  0.5041 -0.7443 -0.7204
13645TIP3   OH262349   5.211   5.725   2.000 -0.5856 -0.2609 -0.0767
13645TIP3    H162350   5.173   5.645   1.964  0.7924 -1.4984  1.0298
13645TIP3    H262351   5.193   5.792   1.935 -2.7302 -1.2046 -0.5651
13646TIP3   OH262352   4.720   0.208  14.509  0.0148  0.2763  0.2180
13646TIP3    H162353   4.755   0.144  14.571 -1.1221  0.7557  1.3880
13646TIP3    H262354   4.708   0.288  14.560  0.2642  1.0841 -0.9378
13647TIP3   OH262355   4.087   4.908   6.273  0.3685  0.3643 -0.3856
13647TIP3    H162356   3.997   4.919   6.303  0.6034  1.3987 -0.0136
13647TIP3    H262357   4.141   4.938   6.346  1.0231 -0.2559 -0.5964
13648TIP3   OH262358   0.351   1.211   0.991 -0.0607 -0.2469 -0.2704
13648TIP3    H162359   0.325   1.248   0.906 -1.1677 -0.1321  0.0955
13648TIP3    H262360   0.445   1.196   0.983 -0.3273 -1.3635 -1.9536
13649TIP3   OH262361   3.821   2.144  12.475  0.0334  0.3295  0.2479
13649TIP3    H162362   3.910   2.148  12.440 -0.0869 -2.4456 -0.5598
13649TIP3    H262363   3.772   2.209  12.424  0.1393 -2.6861 -4.2271
13650TIP3   OH262364   5.374   0.875  16.942 -0.2908  0.0244  0.3654
13650TIP3    H162365   5.465   0.847  16.925 -0.1708  1.1518 -1.0893
13650TIP3    H262366   5.348   0.825  17.019  1.8904  0.3582  1.4138
13651TIP3   OH262367   4.062   5.229   6.360 -0.9139 -0.6095  0.0167
13651TIP3    H162368   3.977   5.238   6.404 -0.2667 -0.3823  1.2603
13651TIP3    H262369   4.090   5.319   6.343 -0.3647 -0.6310  0.7490
13652TIP3   OH262370   3.135   5.286  12.394  0.2321  0.4389  0.1214
13652TIP3    H162371   3.228   5.285  12.373 -0.0570 -0.7724 -1.2704
13652TIP3    H262372   3.092   5.320  12.315 -0.6024 -0.2280  0.2689
13653TIP3   OH262373   0.255   3.413   5.067  0.0704 -0.0619  0.4682
13653TIP3    H162374   0.179   3.383   5.017  1.5863 -1.6075 -1.0207
13653TIP3    H262375   0.273   3.501   5.034  0.1506 -0.4923 -0.6490
13654TIP3   OH262376   0.797   2.835   0.072 -0.2997 -0.1680 -0.3791
13654TIP3    H162377   0.793   2.815   0.165 -0.7695  1.0775 -0.1153
13654TIP3    H262378   0.740   2.771   0.030 -0.4569 -0.4323  0.2414
13655TIP3   OH262379   3.178   2.176  12.753  0.0820 -0.4761  0.4871
13655TIP3    H162380   3.221   2.239  12.811 -0.4225  1.8825 -1.5145
13655TIP3    H262381   3.114   2.132  12.809  1.8289 -0.7394  2.4236
13656TIP3   OH262382   5.316   1.846  15.392 -0.0899 -0.1865  0.6263
13656TIP3    H162383   5.367   1.844  15.472  0.3708 -3.6894  0.4220
13656TIP3    H262384   5.248   1.911  15.408  1.0663  0.5233  3.1127
13657TIP3   OH262385   1.605   1.498   2.662 -0.5612 -0.0100  0.1092
13657TIP3    H162386   1.588   1.549   2.583 -0.1594 -0.8804 -0.5576
13657TIP3    H262387   1.548   1.422   2.654  0.3510 -0.7134  0.0361
13658TIP3   OH262388   1.680   0.633   1.532 -0.0340  0.5954  0.5922
13658TIP3    H162389   1.607   0.689   1.508 -0.4049  0.3749  1.1707
13658TIP3    H262390   1.731   0.623   1.452 -2.3173 -1.7994 -0.7459
13659TIP3   OH262391   5.284   2.562  12.346  0.1455  0.6563 -0.1638
13659TIP3    H162392   5.337   2.627  12.301 -0.4362  0.9024 -0.5112
13659TIP3    H262393   5.293   2.482  12.293 -1.2394  1.1799 -1.2651
13660TIP3   OH262394   2.028   0.119  12.331  0.5598  0.2149 -0.0066
13660TIP3    H162395   2.036   0.026  12.353  2.1544  0.2340 -0.3177
13660TIP3    H262396   1.955   0.150  12.384 -1.5201 -1.6782 -1.5699
13661TIP3   OH262397   6.095   6.051  17.110  0.1781 -0.2941  0.4622
13661TIP3    H162398   6.073   5.958  17.099  0.5177 -0.2203 -1.0831
13661TIP3    H262399   6.011   6.096  17.111 -0.0583 -0.1386 -4.1354
13662TIP3   OH262400   6.077   6.649   2.911  0.1375  0.1322  0.3950
13662TIP3    H162401   6.019   6.634   2.986  0.7563  0.5014  0.9554
13662TIP3    H262402   6.075   6.743   2.897 -1.4437 -0.1147 -1.2635
13663TIP3   OH262403   2.698   5.197  12.251  0.3131  0.1320  0.0203
13663TIP3    H162404   2.694   5.293  12.241  2.5951  0.2119 -0.8148
13663TIP3    H262405   2.744   5.167  12.172  0.4477 -1.5718  0.7100
13664TIP3   OH262406   0.162   4.441   4.793 -0.3720  0.2761 -0.3351
13664TIP3    H162407   0.117   4.382   4.853  1.7931 -1.4905 -0.2874
13664TIP3    H262408   0.237   4.474   4.844 -0.4682  1.5854 -0.9846
13665TIP3   OH262409   4.664   5.434   1.637 -0.1385  0.0051  0.3258
13665TIP3    H162410   4.683   5.375   1.710 -0.7990  0.0924  0.5723
13665TIP3    H262411   4.736   5.498   1.639  0.6017 -0.7910  0.0370
13666TIP3   OH262412   6.768   0.468  12.159  0.5498  0.0007  0.2248
13666TIP3    H162413   6.716   0.510  12.228  0.8198  0.6420  0.0419
13666TIP3    H262414   6.852   0.449  12.201  0.3419 -0.5977  0.3807
13667TIP3   OH262415   2.939   4.716   6.679 -0.1198  0.0361 -0.0123
13667TIP3    H162416   3.021   4.683   6.715  0.2279 -0.0222 -0.8478
13667TIP3    H262417   2.937   4.809   6.705  0.1040 -0.0187  0.1973
13668TIP3   OH262418   1.891   3.279  12.424  0.4442 -0.1559  0.4452
13668TIP3    H162419   1.893   3.311  12.514  2.3156  0.9209  0.0692
13668TIP3    H262420   1.845   3.346  12.375  0.7851  0.0135  0.3510
13669TIP3   OH262421   2.201   3.120   5.143 -0.4326  0.2545  0.6884
13669TIP3    H162422   2.208   3.100   5.050 -1.3043  0.7114  0.5115
13669TIP3    H262423   2.158   3.206   5.146  1.3885  1.1829  1.4748
13670TIP3   OH262424   5.013   3.946  14.338  0.1403 -0.5285 -0.2427
13670TIP3    H162425   5.049   3.858  14.330 -0.1076 -0.6470 -0.0669
13670TIP3    H262426   4.976   3.965  14.252 -0.8117 -1.0424  0.0355
13671TIP3   OH262427   4.025   4.570   5.211 -0.1704  0.4374 -0.6811
13671TIP3    H162428   4.019   4.646   5.154  1.4192  0.8046 -0.3857
13671TIP3    H262429   3.998   4.602   5.297  0.6004  0.7013 -0.5340
13672TIP3   OH262430   0.568   3.444   5.564  0.4117  0.3174  0.2012
13672TIP3    H162431   0.636   3.377   5.562  0.7276  0.6251  0.3829
13672TIP3    H262432   0.568   3.475   5.655  2.0254  2.3064 -0.3980
13673TIP3   OH262433   3.491   3.537  15.331  0.1503 -0.1533 -0.1816
13673TIP3    H162434   3.528   3.472  15.271  0.4995  0.0757 -0.2206
13673TIP3    H262435   3.421   3.491  15.377  1.3095 -0.9792  0.8188
13674TIP3   OH262436   2.402   4.209  17.314 -0.0510  0.1142 -0.5694
13674TIP3    H162437   2.459   4.286  17.319 -0.5511  0.5906 -1.8489
13674TIP3    H262438   2.462   4.136  17.298  0.1856  0.7160 -2.6714
13675TIP3   OH262439   5.106   3.088  11.048  0.2107 -0.0997 -0.6928
13675TIP3    H162440   5.042   3.154  11.022 -0.6486 -1.0115 -0.9744
13675TIP3    H262441   5.065   3.004  11.024  0.3696 -0.8705  1.5147
13676TIP3   OH262442   3.225   3.811  14.897 -0.4125  0.3705 -0.0325
13676TIP3    H162443   3.186   3.880  14.844 -0.4252  0.1764 -0.2752
13676TIP3    H262444   3.194   3.829  14.986  2.0466  2.5002  0.5042
13677TIP3   OH262445   6.101   0.280   3.149  0.4174  0.2440  0.1041
13677TIP3    H162446   6.060   0.215   3.206 -0.2400 -0.2875 -0.9438
13677TIP3    H262447   6.110   0.358   3.204 -0.5616 -0.1304  0.8201
13678TIP3   OH262448   4.755   3.306  14.995 -0.1699  0.0603  0.4631
13678TIP3    H162449   4.797   3.222  14.974 -0.1600  0.1185  0.2436
13678TIP3    H262450   4.679   3.310  14.937 -0.0852  0.2721  0.3654
13679TIP3   OH262451   4.415   4.175   4.654  0.1189 -0.2455  0.1164
13679TIP3    H162452   4.495   4.137   4.692 -0.2377  0.6932  1.9294
13679TIP3    H262453   4.405   4.130   4.570  0.9346 -2.5380  1.1452
13680TIP3   OH262454   3.267   0.844   1.175  0.1166 -0.1082 -0.5912
13680TIP3    H162455   3.349   0.834   1.128  0.4897 -1.1045  0.2236
13680TIP3    H262456   3.287   0.815   1.264 -0.4808  2.0194  0.2960
13681TIP3   OH262457   0.789   4.883  12.383  0.1024  0.3236 -0.1528
13681TIP3    H162458   0.812   4.962  12.432  0.1554  1.0123 -1.2516
13681TIP3    H262459   0.872   4.854  12.345  0.3788 -1.1443  1.4235
13682TIP3   OH262460   0.689   2.011  12.902  0.0975  0.4812  0.2649
13682TIP3    H162461   0.661   1.954  12.829 -2.5894  1.6164  0.2845
13682TIP3    H262462   0.783   2.021  12.889 -0.2439  0.6252 -3.0956
13683TIP3   OH262463   2.976   6.085  11.536  0.6312 -0.2958 -0.5608
13683TIP3    H162464   2.885   6.057  11.548  1.3965 -3.1339 -0.5177
13683TIP3    H262465   2.976   6.133  11.454 -1.0421  0.5715 -0.0938
13684TIP3   OH262466   6.570   2.462   6.156  0.3521 -0.4591 -0.4042
13684TIP3    H162467   6.649   2.422   6.119  0.2973  0.0635 -1.1007
13684TIP3    H262468   6.511   2.473   6.082  0.8755  2.1574 -0.5431
13685TIP3   OH262469   1.913   6.169   1.191  0.3131 -0.1362  0.5531
13685TIP3    H162470   1.910   6.246   1.135  3.2498 -1.0744 -1.1323
13685TIP3    H262471   1.944   6.202   1.276 -0.1544  0.7467  0.3896
13686TIP3   OH262472   2.592   0.770  12.891  0.0662 -0.1332 -0.0981
13686TIP3    H162473   2.525   0.709  12.861 -0.3942  1.1541 -1.8232
13686TIP3    H262474   2.544   0.836  12.942 -0.4178  1.8502 -2.8852
13687TIP3   OH262475   4.291   6.752   6.138 -0.3645 -0.1863  0.2225
13687TIP3    H162476   4.326   6.670   6.173 -1.0767 -0.2054  0.9236
13687TIP3    H262477   4.275   6.806   6.215 -0.9104  0.2028 -0.1550
13688TIP3   OH262478   5.834   5.599   4.176 -0.1909 -0.1160  0.3399
13688TIP3    H162479   5.890   5.595   4.253  1.2902  2.5496 -0.4532
13688TIP3    H262480   5.876   5.541   4.112 -0.7973 -1.4447  1.1005
13689TIP3   OH262481   4.038   3.929  14.872  0.3332 -0.0269  0.2673
13689TIP3    H162482   4.098   3.874  14.822  0.3677  0.1995  0.0578
13689TIP3    H262483   3.953   3.915  14.831  0.8508  2.5119 -1.8922
13690TIP3   OH262484   5.016   4.372  14.710  0.2638 -0.4180  0.4190
13690TIP3    H162485   4.940   4.409  14.757  0.9032  0.5243  0.7490
13690TIP3    H262486   5.002   4.399  14.619 -0.1605 -0.8714  0.3449
13691TIP3   OH262487   3.812   5.622   0.591 -0.8764 -0.2495 -0.0666
13691TIP3    H162488   3.883   5.639   0.530 -0.6648  0.8486  0.4713
13691TIP3    H262489   3.853   5.577   0.665 -1.0279 -1.0243 -0.4398
13692TIP3   OH262490   4.380   1.928  11.775  0.0783 -0.2972  0.0993
13692TIP3    H162491   4.475   1.922  11.761  0.0836  0.7163 -0.3698
13692TIP3    H262492   4.371   1.963  11.864  0.1093 -1.7256  0.6904
13693TIP3   OH262493   5.395   0.708  12.698  0.1082  0.5632  0.1304
13693TIP3    H162494   5.351   0.624  12.709  1.3859 -0.3740 -1.5253
13693TIP3    H262495   5.476   0.699  12.747  1.2164  0.0075 -1.7171
13694TIP3   OH262496   5.663   2.082  13.262 -0.2426 -0.3497  0.1480
13694TIP3    H162497   5.685   1.991  13.243 -0.1563 -0.2385 -0.3051
13694TIP3    H262498   5.569   2.089  13.243  0.1816  0.2054 -2.1275
13695TIP3   OH262499   5.406   6.583  13.489 -0.1639 -0.2942  0.0279
13695TIP3    H162500   5.395   6.556  13.580 -0.6304 -1.2452 -0.3012
13695TIP3    H262501   5.336   6.647  13.474  0.2880  0.3261  0.4992
13696TIP3   OH262502   3.818   5.718   2.238 -0.1319  0.1355  0.4579
13696TIP3    H162503   3.760   5.671   2.177  0.5744 -1.1001  0.7133
13696TIP3    H262504   3.860   5.785   2.184 -2.4088  1.6952  0.4301
13697TIP3   OH262505   2.553   4.899   1.559 -0.0415  0.6143 -0.2664
13697TIP3    H162506   2.536   4.837   1.489 -0.4631  0.4676 -0.0399
13697TIP3    H262507   2.573   4.981   1.514 -0.4919  0.5683 -0.5611
13698TIP3   OH262508   1.077   4.715  12.041  0.2374 -0.4150 -0.4182
13698TIP3    H162509   1.102   4.641  11.987  1.3967 -0.7021  0.4579
13698TIP3    H262510   1.127   4.789  12.005 -0.3872 -0.2059 -0.8620
13699TIP3   OH262511   3.853   5.055  13.065  0.7043  0.1819 -0.0912
13699TIP3    H162512   3.922   5.118  13.086  1.3647 -0.3532 -0.6197
13699TIP3    H262513   3.864   4.985  13.130  1.1130 -0.2430 -0.6156
13700TIP3   OH262514   3.837   4.110  12.532 -0.3670 -0.2402  0.1474
13700TIP3    H162515   3.893   4.069  12.467 -0.3214  1.3851 -0.8906
13700TIP3    H262516   3.781   4.039  12.564  0.2632 -1.2612 -0.9556
13701TIP3   OH262517   6.213   1.739  15.854  0.2948 -0.0912  0.0425
13701TIP3    H162518   6.291   1.770  15.809  0.4700  1.0143  1.0740
13701TIP3    H262519   6.243   1.661  15.902  0.6815  0.1322  0.1693
13702TIP3   OH262520   5.819   0.333  11.578  0.2438 -0.0005  0.8029
13702TIP3    H162521   5.800   0.319  11.670 -1.5524  0.3450  0.5198
13702TIP3    H262522   5.738   0.369  11.541  0.3044 -1.7726 -1.2669
13703TIP3   OH262523   5.677   0.095   0.158 -0.1873 -0.7583  0.1859
13703TIP3    H162524   5.672   0.001   0.178 -0.1115 -0.6783  0.5884
13703TIP3    H262525   5.661   0.100   0.063  2.6566 -1.4478 -0.4084
13704TIP3   OH262526   2.073   3.403  14.194 -0.0828  0.1692  0.3751
13704TIP3    H162527   2.120   3.333  14.240  0.6938 -0.1079 -0.8048
13704TIP3    H262528   2.131   3.478  14.199 -1.2174  0.9925  2.2515
13705TIP3   OH262529   6.192   6.707   4.027  0.6009  0.3491 -0.7689
13705TIP3    H162530   6.236   6.768   4.086 -0.9454  0.0069  0.8129
13705TIP3    H262531   6.135   6.655   4.084  0.7905 -1.6061 -2.2605
13706TIP3   OH262532   2.946   2.739  17.254  0.0203  0.6885 -0.2123
13706TIP3    H162533   2.932   2.697  17.339 -1.5236  0.7823 -0.3849
13706TIP3    H262534   2.973   2.828  17.276 -0.0176  0.6085  0.1766
13707TIP3   OH262535   2.964   2.983   4.809 -0.2411  0.2081  0.4897
13707TIP3    H162536   3.038   2.931   4.778  0.0412  0.3249  0.9603
13707TIP3    H262537   2.907   2.991   4.733 -0.5001 -1.1551  0.5053
13708TIP3   OH262538   1.882   3.174  13.116  0.2164  0.4145  0.1104
13708TIP3    H162539   1.825   3.237  13.161 -1.4828 -1.3153  0.4860
13708TIP3    H262540   1.891   3.101  13.177 -1.2193 -1.4981 -1.7971
13709TIP3   OH262541   0.945   0.421  12.699 -0.4351 -0.1778  0.4242
13709TIP3    H162542   0.891   0.396  12.774 -1.0405 -1.2664 -0.3460
13709TIP3    H262543   0.883   0.442  12.630  0.0885 -1.5943 -0.5201
13710TIP3   OH262544   3.936   4.180  11.613 -0.1484 -0.2656 -0.1000
13710TIP3    H162545   3.885   4.203  11.536 -0.5358 -0.3659  0.1252
13710TIP3    H262546   4.016   4.140  11.577 -0.9659 -1.6570 -0.4468
13711TIP3   OH262547   3.712   1.523   4.563  0.4084 -0.0628  0.2447
13711TIP3    H162548   3.719   1.537   4.657 -1.1964  0.1850  0.3597
13711TIP3    H262549   3.736   1.432   4.549 -1.3144 -0.6907  1.1792
13712TIP3   OH262550   4.643   5.102  11.873  0.1902  0.1799 -0.1446
13712TIP3    H162551   4.588   5.081  11.797 -1.0966  1.6762  0.3174
13712TIP3    H262552   4.581   5.135  11.939  1.2096 -1.5298  1.7730
13713TIP3   OH262553   6.556   5.286  14.170  0.7204 -0.4217  0.5862
13713TIP3    H162554   6.542   5.196  14.141  1.8995 -1.2164  2.2718
13713TIP3    H262555   6.470   5.316  14.200  0.4134 -1.1644  0.4685
13714TIP3   OH262556   4.549   6.368   1.320 -0.4453  0.1418  0.0299
13714TIP3    H162557   4.558   6.459   1.346 -0.0058  0.1155 -0.0196
13714TIP3    H262558   4.632   6.327   1.345 -0.6209 -0.2313  0.0093
13715TIP3   OH262559   1.960   0.834   0.440  0.2432  0.2936 -0.3988
13715TIP3    H162560   1.871   0.869   0.436 -0.2332 -0.8216  0.1242
13715TIP3    H262561   1.987   0.846   0.531  0.4988  0.2950 -0.4725
13716TIP3   OH262562   3.842   4.636   2.057 -0.6237  0.1030  0.4264
13716TIP3    H162563   3.872   4.719   2.018 -0.6237  0.3320  0.9106
13716TIP3    H262564   3.759   4.658   2.099 -0.5815 -0.1226  0.6312
13717TIP3   OH262565   5.728   2.438  11.117 -0.5019 -0.1767  0.4464
13717TIP3    H162566   5.786   2.449  11.042  1.1197  0.7005  1.7862
13717TIP3    H262567   5.692   2.525  11.133 -0.6430 -0.3061  0.8397
13718TIP3   OH262568   1.477   3.927  13.353 -0.2835  0.0410 -0.3801
13718TIP3    H162569   1.414   3.963  13.290 -1.9273  0.5744  1.4363
13718TIP3    H262570   1.535   3.872  13.301 -3.1357 -1.6761 -2.0389
13719TIP3   OH262571   5.056   4.220  10.992 -0.4417 -0.5801 -0.0152
13719TIP3    H162572   5.033   4.168  10.915  0.7897 -0.5061 -0.4516
13719TIP3    H262573   5.107   4.293  10.957 -0.6738 -0.0208  0.7825
13720TIP3   OH262574   1.882   3.270   4.377  0.0302  0.0593  0.0930
13720TIP3    H162575   1.925   3.225   4.450  0.6176  0.9615  0.3283
13720TIP3    H262576   1.924   3.356   4.375 -0.7507  0.4342 -0.6192
13721TIP3   OH262577   6.632   0.656   1.816 -0.2483 -0.1447 -0.0733
13721TIP3    H162578   6.712   0.695   1.782 -1.0468  1.6537  0.0096
13721TIP3    H262579   6.607   0.591   1.751  2.1370 -1.9925  0.6927
13722TIP3   OH262580   2.134   1.646  17.044  0.1488 -0.0056  0.0285
13722TIP3    H162581   2.090   1.715  16.994  0.2589  0.8876  1.1323
13722TIP3    H262582   2.186   1.599  16.979  0.3630  1.1758 -0.6810
13723TIP3   OH262583   0.770   2.544   5.428  0.1749 -0.1320 -0.0115
13723TIP3    H162584   0.767   2.573   5.337  2.8100 -0.9709 -0.4665
13723TIP3    H262585   0.696   2.587   5.470  1.2833  3.7665 -1.5666
13724TIP3   OH262586   1.152   0.583   1.775 -0.1830  0.6181  0.0341
13724TIP3    H162587   1.120   0.661   1.731  1.4127  0.5250 -1.3568
13724TIP3    H262588   1.087   0.516   1.754 -0.4897  1.0682 -0.4852
13725TIP3   OH262589   2.871   6.290   5.804 -0.2137  0.3031 -0.1181
13725TIP3    H162590   2.964   6.311   5.808 -0.4420  1.2506  0.3666
13725TIP3    H262591   2.828   6.374   5.790 -1.0189 -0.0999 -0.0956
13726TIP3   OH262592   3.288   5.924   1.331 -0.0489 -0.4549  0.2564
13726TIP3    H162593   3.300   5.867   1.255 -0.9881  0.8908 -0.9596
13726TIP3    H262594   3.342   6.000   1.314 -0.4195 -0.0452  0.8456
13727TIP3   OH262595   3.128   1.102   0.474  0.2804  0.2046  0.3683
13727TIP3    H162596   3.053   1.155   0.446  1.4611  0.0779 -3.6108
13727TIP3    H262597   3.090   1.029   0.522 -2.5834 -1.2769 -3.6702
13728TIP3   OH262598   2.715   0.553   2.872  0.1746 -0.1186 -0.0428
13728TIP3    H162599   2.781   0.507   2.923  0.6637 -0.6870 -1.1573
13728TIP3    H262600   2.761   0.584   2.794 -0.9533 -0.9054 -1.0587
13729TIP3   OH262601   2.841   0.206   2.792  0.3144 -0.6036 -0.7299
13729TIP3    H162602   2.854   0.253   2.874  0.2012 -1.4661 -0.2127
13729TIP3    H262603   2.791   0.267   2.737 -1.5554 -0.8509  0.6299
13730TIP3   OH262604   3.552   5.840  11.141  0.3182 -0.1183  0.2881
13730TIP3    H162605   3.514   5.923  11.113 -1.4000 -1.6252 -2.2534
13730TIP3    H262606   3.604   5.810  11.066 -0.9940 -2.3595  0.1613
13731TIP3   OH262607   1.295   4.889  12.893  0.1638 -0.2416  0.7725
13731TIP3    H162608   1.209   4.878  12.853  0.5017 -1.0600  0.2360
13731TIP3    H262609   1.278   4.926  12.979 -0.6178  1.0823  0.0742
13732TIP3   OH262610   1.457   0.211  11.470  0.0856 -0.2728 -0.1877
13732TIP3    H162611   1.446   0.302  11.443  0.5720  0.1445  0.9692
13732TIP3    H262612   1.534   0.181  11.422  0.1834  0.0531 -0.2377
13733TIP3   OH262613   3.584   3.563   0.839  0.4635  0.4588 -0.2179
13733TIP3    H162614   3.584   3.610   0.923  2.2049  1.9196 -0.9490
13733TIP3    H262615   3.612   3.629   0.776  0.4240 -0.9364 -1.7448
13734TIP3   OH262616   5.716   5.140  14.893  0.0817  0.2427  0.1738
13734TIP3    H162617   5.688   5.207  14.830 -0.6170  0.2634  0.4992
13734TIP3    H262618   5.635   5.108  14.932  0.3876 -0.8714 -0.0459
13735TIP3   OH262619   1.876   3.925   5.089  0.1274  0.6180  0.2036
13735TIP3    H162620   1.793   3.887   5.061  1.0468 -0.8055 -0.7593
13735TIP3    H262621   1.863   4.020   5.085 -1.2681  0.4120 -0.4237
13736TIP3   OH262622   3.311   2.199  11.270  0.2621 -0.5735 -0.1188
13736TIP3    H162623   3.346   2.282  11.301  0.4369 -0.4197 -0.7129
13736TIP3    H262624   3.342   2.192  11.180  0.8926 -1.6402  0.1621
13737TIP3   OH262625   6.106   3.184   2.313  0.0145 -0.0366 -0.5533
13737TIP3    H162626   6.124   3.101   2.268  1.5994  0.9923 -1.9115
13737TIP3    H262627   6.156   3.249   2.265 -1.0938  1.7252  0.5624
13738TIP3   OH262628   2.422   1.557  15.321 -0.1156 -0.3200  0.6359
13738TIP3    H162629   2.448   1.528  15.234  4.3482  0.9959  1.3053
13738TIP3    H262630   2.373   1.483  15.357 -1.5067 -1.1698 -2.6184
13739TIP3   OH262631   5.023   0.060   0.932 -0.6838  0.6347 -0.1435
13739TIP3    H162632   4.954   0.055   0.998 -0.8247  0.9716 -0.2599
13739TIP3    H262633   5.063   0.146   0.946 -0.8312  0.7834 -0.6063
13740TIP3   OH262634   4.685   0.948   4.492  0.2037 -0.0872 -0.2684
13740TIP3    H162635   4.724   0.885   4.553 -1.8451 -0.4080  0.7897
13740TIP3    H262636   4.704   1.033   4.531 -1.7274 -0.3098  1.3308
13741TIP3   OH262637   3.210   1.017   0.211  0.2195 -0.0153  0.2904
13741TIP3    H162638   3.142   0.950   0.218  0.9110 -0.6070  1.7690
13741TIP3    H262639   3.215   1.055   0.299  0.2945  1.5584 -0.3516
13742TIP3   OH262640   6.364   4.168  16.772 -0.3835  0.3144  0.0447
13742TIP3    H162641   6.390   4.208  16.855 -1.3964 -0.4375  0.7557
13742TIP3    H262642   6.268   4.168  16.774 -0.5588 -3.7278  0.9979
13743TIP3   OH262643   1.452   0.572  12.513  0.2339 -0.0348 -0.0960
13743TIP3    H162644   1.370   0.587  12.465  0.2304  0.7521  0.1426
13743TIP3    H262645   1.424   0.555  12.603  0.2261 -1.7372 -0.3831
13744TIP3   OH262646   4.140   1.158  16.120  0.5536  0.1696  0.1697
13744TIP3    H162647   4.209   1.223  16.110 -0.0518  0.6725 -1.0168
13744TIP3    H262648   4.073   1.184  16.056 -0.0221 -1.2038  0.1734
13745TIP3   OH262649   6.753   1.734  13.377 -0.4380 -0.8218 -0.1573
13745TIP3    H162650   6.675   1.724  13.432 -0.1130  1.9612  0.9737
13745TIP3    H262651   6.826   1.710  13.434 -0.2161  0.5445  0.1687
13746TIP3   OH262652   3.759   0.226   0.020 -0.1108  0.1124 -0.4861
13746TIP3    H162653   3.774   0.197  -0.070  2.3013  0.6735 -0.3510
13746TIP3    H262654   3.699   0.300   0.012 -1.6573 -1.1910 -1.3904
13747TIP3   OH262655   0.923   2.959  12.224  0.1821 -0.7605 -0.4447
13747TIP3    H162656   1.016   2.982  12.219 -0.3876  1.5801 -1.5810
13747TIP3    H262657   0.910   2.934  12.316  1.4733  1.2171  0.3414
13748TIP3   OH262658   6.439   5.300   0.354  0.7486 -0.1250 -0.0217
13748TIP3    H162659   6.483   5.246   0.288 -0.9580  1.2529 -2.4638
13748TIP3    H262660   6.473   5.388   0.338 -2.2949  0.8827 -1.6284
13749TIP3   OH262661   5.097   3.607   4.734 -0.1098 -0.3561  0.1823
13749TIP3    H162662   5.056   3.527   4.699 -0.2035 -0.7620  1.1962
13749TIP3    H262663   5.153   3.638   4.663 -0.9359 -0.6875 -0.6456
13750TIP3   OH262664   3.474   2.906  12.072 -0.0187  0.3150 -0.7160
13750TIP3    H162665   3.439   2.891  12.159 -1.0306  1.4233 -0.9059
13750TIP3    H262666   3.558   2.860  12.072 -0.5688 -0.7638  0.4032
13751TIP3   OH262667   3.532   0.960  16.008 -0.2423 -0.2595 -1.1260
13751TIP3    H162668   3.454   0.956  15.954 -0.3667 -1.0191 -0.8892
13751TIP3    H262669   3.504   1.006  16.087 -0.2379  0.2098 -1.3927
13752TIP3   OH262670   4.970   3.839   1.315 -0.1231 -0.1862 -0.0027
13752TIP3    H162671   5.024   3.789   1.254  2.1671  1.8685  0.1821
13752TIP3    H262672   4.909   3.887   1.260  0.2103 -0.3064 -0.4826
13753TIP3   OH262673   5.058   4.007   4.778 -0.3785 -0.1257 -0.4219
13753TIP3    H162674   5.036   4.098   4.762  0.2603 -0.2427 -2.1896
13753TIP3    H262675   4.974   3.963   4.788 -0.7646  0.3985 -1.2448
13754TIP3   OH262676   5.162   5.713   5.912 -0.3455 -0.0756  0.4470
13754TIP3    H162677   5.114   5.693   5.992 -0.3009  0.6314  0.6526
13754TIP3    H262678   5.230   5.646   5.908 -0.2962 -0.0661  1.0394
13755TIP3   OH262679   6.255   0.664  13.790  0.4431  0.7395  0.0319
13755TIP3    H162680   6.253   0.759  13.774  0.3553  0.6081 -0.7985
13755TIP3    H262681   6.191   0.629  13.729 -0.0707  0.2057  0.8680
13756TIP3   OH262682   1.022   4.965  15.183  0.0340 -0.2806 -0.0649
13756TIP3    H162683   1.051   4.887  15.229 -1.7040 -1.2061 -0.4521
13756TIP3    H262684   0.945   4.937  15.133 -1.5620  1.9814  0.9237
13757TIP3   OH262685   0.571   5.705  10.455  0.5008  0.0743  0.2961
13757TIP3    H162686   0.596   5.739  10.370 -2.3107  3.1247  0.5039
13757TIP3    H262687   0.629   5.749  10.517  0.5257  0.2110  0.1741
13758TIP3   OH262688   3.298   3.861  13.274  0.4965 -0.4696  0.3804
13758TIP3    H162689   3.245   3.934  13.242  0.4345 -0.2518  0.9579
13758TIP3    H262690   3.352   3.835  13.199 -0.2366 -0.5271 -0.1345
13759TIP3   OH262691   6.736   1.698  14.886  0.1892  0.0925  0.2075
13759TIP3    H162692   6.776   1.649  14.957  3.4602  0.5413 -1.1345
13759TIP3    H262693   6.778   1.664  14.807 -0.7391  1.9690 -1.1648
13760TIP3   OH262694   0.345   0.412  11.566  0.0139  0.2681  0.2522
13760TIP3    H162695   0.434   0.436  11.541  0.2941  1.4158  2.1429
13760TIP3    H262696   0.305   0.494  11.595 -1.6573 -0.2441 -0.4931
13761TIP3   OH262697   0.738   6.365  16.986 -0.0168  0.4200 -0.8174
13761TIP3    H162698   0.739   6.271  16.968 -1.7956  0.1439  0.3437
13761TIP3    H262699   0.797   6.376  17.060 -1.0540 -0.0495  0.0987
13762TIP3   OH262700   2.941   6.501  15.547 -0.1961 -0.2061 -0.1123
13762TIP3    H162701   2.910   6.540  15.465 -1.1069  0.4997  0.5512
13762TIP3    H262702   3.010   6.440  15.520 -2.9332 -2.8130 -1.8037
13763TIP3   OH262703   1.395   4.000  15.341  0.1851  0.0068 -0.3040
13763TIP3    H162704   1.396   4.068  15.408 -2.5574  0.7907 -0.9341
13763TIP3    H262705   1.344   4.038  15.269 -1.7034 -2.7359 -0.5709
13764TIP3   OH262706   6.649   6.233   4.525 -0.0598  0.0876 -0.0320
13764TIP3    H162707   6.648   6.314   4.475 -0.7281  1.3038  1.8468
13764TIP3    H262708   6.573   6.239   4.583  0.7908 -1.1342  1.2855
13765TIP3   OH262709   4.933   0.617   1.359 -0.5223 -0.0374 -0.3519
13765TIP3    H162710   4.932   0.712   1.345  1.6191  0.0471 -0.2549
13765TIP3    H262711   4.928   0.607   1.454 -1.0170 -0.0546 -0.3746
13766TIP3   OH262712   2.214   6.006   2.825  0.1454 -0.4311  0.6016
13766TIP3    H162713   2.235   5.913   2.829  1.1828 -0.2949 -0.9433
13766TIP3    H262714   2.299   6.050   2.826 -0.2415  0.3949 -0.6519
13767TIP3   OH262715   6.312   0.536   5.967 -0.2817  0.2950 -0.3750
13767TIP3    H162716   6.278   0.515   5.880 -1.0388 -0.1282  0.0120
13767TIP3    H262717   6.310   0.632   5.971 -0.9611  0.2969 -0.5559
13768TIP3   OH262718   2.949   1.222   2.968 -0.2585  0.0762 -0.4216
13768TIP3    H162719   3.002   1.142   2.959 -0.3239  0.0203 -0.3035
13768TIP3    H262720   3.014   1.291   2.984 -0.2995 -0.1675  0.8537
13769TIP3   OH262721   5.116   4.482   3.058 -0.2992  0.1113 -0.1025
13769TIP3    H162722   5.211   4.490   3.052 -0.2199  0.6190  1.4146
13769TIP3    H262723   5.097   4.393   3.029  0.7565 -0.3782  0.6463
13770TIP3   OH262724   5.285   6.132   4.572  0.0258 -0.4645 -0.0341
13770TIP3    H162725   5.235   6.111   4.650 -0.6535  2.7283  0.5040
13770TIP3    H262726   5.228   6.105   4.499 -1.7359  1.3680  0.5852
13771TIP3   OH262727   6.243   6.069   1.221  0.0816  0.4643 -0.3422
13771TIP3    H162728   6.181   6.040   1.288 -1.1007  0.5086 -1.4019
13771TIP3    H262729   6.201   6.048   1.138  0.6212  2.2354 -1.1180
13772TIP3   OH262730   1.030   1.510   3.326 -0.5109  0.4792  0.0284
13772TIP3    H162731   0.976   1.545   3.255  0.0513  1.4042  0.0468
13772TIP3    H262732   0.981   1.529   3.406 -2.1396 -2.3440 -0.1663
13773TIP3   OH262733   4.299   1.651   4.916  0.0092 -0.0057 -0.0359
13773TIP3    H162734   4.365   1.583   4.900  0.1858  0.2760 -0.5199
13773TIP3    H262735   4.232   1.607   4.969 -0.0922 -0.6772 -0.7056
13774TIP3   OH262736   4.282   3.513  11.837 -0.3280 -0.4317  0.3008
13774TIP3    H162737   4.220   3.482  11.902  0.2198 -0.5049  0.7941
13774TIP3    H262738   4.239   3.495  11.753 -1.5067  0.6224  0.6373
13775TIP3   OH262739   5.107   4.828   5.432  0.4680 -0.0098  0.1383
13775TIP3    H162740   5.181   4.836   5.491  0.4851  1.0660 -0.0034
13775TIP3    H262741   5.032   4.812   5.489  0.6036  0.2485  0.3902
13776TIP3   OH262742   0.055   6.131  12.356  0.1146  0.2848 -0.1073
13776TIP3    H162743  -0.005   6.156  12.427 -0.9290  0.6649 -1.0903
13776TIP3    H262744   0.042   6.198  12.289  2.1912  0.7791 -0.0690
13777TIP3   OH262745   6.695   6.512  12.471 -0.1353  0.1230 -0.7534
13777TIP3    H162746   6.634   6.582  12.497 -1.8915 -1.5108 -0.2400
13777TIP3    H262747   6.650   6.468  12.399  1.9465  0.8184 -2.5829
13778TIP3   OH262748   3.705   3.433   2.245  0.3969  0.5026  0.0286
13778TIP3    H162749   3.651   3.496   2.198  0.3792 -1.3773 -2.7213
13778TIP3    H262750   3.795   3.460   2.227  0.3911  0.9010  0.5849
13779TIP3   OH262751   5.251   3.022  15.271  1.4274 -0.0943  0.0570
13779TIP3    H162752   5.217   3.063  15.192  5.1638  1.3145 -1.0623
13779TIP3    H262753   5.284   3.094  15.324  1.2217 -1.1887  1.7632
13780TIP3   OH262754   2.791   4.561  13.972 -0.3670  0.3639 -0.3249
13780TIP3    H162755   2.822   4.530  14.057 -1.3595 -0.3110 -0.2040
13780TIP3    H262756   2.725   4.628  13.993  1.0678  1.9328 -0.5812
13781TIP3   OH262757   4.035   1.253  12.318  0.6194  0.5824  0.0012
13781TIP3    H162758   4.079   1.171  12.293  0.4630  0.3883  0.3617
13781TIP3    H262759   3.959   1.257  12.260  0.5452  0.3988  0.0864
13782TIP3   OH262760   0.509   6.366  14.880  0.0531 -0.7842  0.3150
13782TIP3    H162761   0.558   6.324  14.809  0.3272 -1.4333  0.8702
13782TIP3    H262762   0.574   6.376  14.951 -0.1545  0.0668  0.3918
13783TIP3   OH262763   2.736   4.787  14.899 -0.1915  0.0868  0.5346
13783TIP3    H162764   2.642   4.803  14.889 -0.3435  0.3690  2.0783
13783TIP3    H262765   2.775   4.874  14.893 -0.0438 -0.0034  0.1412
13784TIP3   OH262766   2.618   6.046   4.300 -0.6002 -0.1842  0.1738
13784TIP3    H162767   2.645   6.115   4.360 -0.1975 -0.2881  0.1101
13784TIP3    H262768   2.522   6.051   4.300 -0.6106 -0.2410  0.8965
13785TIP3   OH262769   3.882   2.623  10.719 -0.1503 -0.3324  0.1596
13785TIP3    H162770   3.855   2.705  10.678 -1.4921  0.5274  2.5742
13785TIP3    H262771   3.975   2.637  10.740  0.0559 -0.0719 -0.8852
13786TIP3   OH262772   0.434   1.939   0.685 -0.3073 -0.1902 -0.1614
13786TIP3    H162773   0.418   2.033   0.692 -1.1215 -0.1896 -1.5416
13786TIP3    H262774   0.496   1.930   0.612 -0.5839 -0.7543 -0.3362
13787TIP3   OH262775   3.511   4.662  14.860  0.9413  0.1093  0.1027
13787TIP3    H162776   3.498   4.568  14.876  0.6161 -0.0184 -0.8610
13787TIP3    H262777   3.575   4.665  14.788  2.0656  0.6557  1.0846
13788TIP3   OH262778   0.722   4.325  17.212 -0.4598  0.1836 -0.0664
13788TIP3    H162779   0.741   4.263  17.283 -0.1327  0.1457 -0.1864
13788TIP3    H262780   0.772   4.403  17.234 -0.6506  0.3050 -0.0616
13789TIP3   OH262781   3.830   0.805  11.818 -0.3925 -0.0797  0.1756
13789TIP3    H162782   3.882   0.834  11.893 -1.6530  1.8718  0.4046
13789TIP3    H262783   3.821   0.884  11.764 -1.9738 -0.6729 -0.4956
13790TIP3   OH262784   4.606   6.284   5.674 -0.2089 -0.1211 -0.4737
13790TIP3    H162785   4.698   6.282   5.648  0.4532 -0.0804  1.6711
13790TIP3    H262786   4.597   6.215   5.740 -1.9685 -0.7758 -1.3275
13791TIP3   OH262787   6.479   0.184   1.133 -0.4592  0.1188  0.0729
13791TIP3    H162788   6.402   0.212   1.181  1.1149  1.1825  2.1204
13791TIP3    H262789   6.517   0.264   1.099  0.3645 -0.2610  0.0746
13792TIP3   OH262790   5.411   1.168  11.668 -0.4509  0.2040 -0.0977
13792TIP3    H162791   5.367   1.242  11.626  2.7957  1.5689 -1.3911
13792TIP3    H262792   5.406   1.097  11.604  0.1082  0.6883 -0.6851
13793TIP3   OH262793   1.266   5.739   4.200 -0.1765  0.2268  0.1738
13793TIP3    H162794   1.191   5.746   4.258  1.1174 -0.4347  2.0105
13793TIP3    H262795   1.231   5.696   4.121 -2.3739  2.8810 -0.4355
13794TIP3   OH262796   6.126   5.507   6.027 -0.3697  0.2145  0.3926
13794TIP3    H162797   6.152   5.585   6.074  1.8844 -0.5240  0.4957
13794TIP3    H262798   6.069   5.459   6.088  2.8514 -0.9725  2.7730
13795TIP3   OH262799   0.230   3.029  13.267  0.3397  0.0275 -0.2192
13795TIP3    H162800   0.239   2.947  13.218  0.3323  0.4933 -1.0233
13795TIP3    H262801   0.313   3.040  13.312  0.8658  0.2692 -1.2226
13796TIP3   OH262802   2.822   0.049   5.955  0.6385  0.6384  0.3960
13796TIP3    H162803   2.739   0.066   5.911 -0.1956  0.8203  1.9646
13796TIP3    H262804   2.821  -0.044   5.975  0.6557  0.7031  0.7087
13797TIP3   OH262805   3.200   5.484   4.039  0.0375 -0.1155  0.6739
13797TIP3    H162806   3.203   5.509   4.131  2.7634 -1.4904  1.0381
13797TIP3    H262807   3.247   5.555   3.994  1.5403 -0.9956  0.8031
13798TIP3   OH262808   1.774   2.010  12.702  0.2766  0.1948 -0.0639
13798TIP3    H162809   1.819   2.068  12.640  0.7008 -0.5806 -0.4954
13798TIP3    H262810   1.732   1.943  12.647 -1.4400  0.8929  0.3212
13799TIP3   OH262811   3.933   0.320  16.967  0.1701  0.2780  0.1493
13799TIP3    H162812   3.912   0.368  17.048 -1.2907 -1.3839  0.8220
13799TIP3    H262813   3.902   0.376  16.897  1.1483  1.6015  0.7213
13800TIP3   OH262814   2.052   1.446  14.414 -0.0688 -0.5006 -0.3114
13800TIP3    H162815   1.981   1.504  14.440 -0.1163 -1.2190  1.2696
13800TIP3    H262816   2.130   1.500  14.418 -0.1880 -0.3826  0.5938
13801TIP3   OH262817   6.277   0.117   3.324  0.2328 -0.3385 -0.4735
13801TIP3    H162818   6.278   0.036   3.376  0.7986 -0.2001 -0.2616
13801TIP3    H262819   6.195   0.112   3.275  0.5608 -1.3553 -0.9589
13802TIP3   OH262820   1.433   3.803   1.585 -0.3571  0.6298  0.3104
13802TIP3    H162821   1.472   3.814   1.672  0.0509  1.3552  0.0472
13802TIP3    H262822   1.360   3.865   1.584 -0.5103  0.4502  0.2157
13803TIP3   OH262823   1.671   4.885  16.118 -0.7029  0.1304  0.1528
13803TIP3    H162824   1.714   4.916  16.038 -1.4618 -0.1192 -0.3667
13803TIP3    H262825   1.590   4.936  16.123 -1.6481 -1.2675 -0.3549
13804TIP3   OH262826   3.097   5.181   4.336  0.5477 -0.3046  0.5229
13804TIP3    H162827   3.146   5.163   4.256 -0.9455  0.6320 -0.6550
13804TIP3    H262828   3.017   5.129   4.328 -2.1900  3.6749 -1.2957
13805TIP3   OH262829   6.016   1.068   4.765 -0.1613 -0.1954  0.0018
13805TIP3    H162830   6.011   0.981   4.725  0.7123 -0.4867  0.4923
13805TIP3    H262831   5.927   1.085   4.796 -0.9151  0.1093 -2.1532
13806TIP3   OH262832   6.247   4.032  13.776 -0.4217 -0.6208  0.1814
13806TIP3    H162833   6.312   4.102  13.769 -0.5446 -0.6465 -2.0303
13806TIP3    H262834   6.284   3.960  13.726 -1.2090 -1.4006  0.6966
13807TIP3   OH262835   3.220   4.543  14.541 -0.1670 -0.0590  0.5821
13807TIP3    H162836   3.188   4.456  14.518 -0.8999  0.1470  0.8089
13807TIP3    H262837   3.303   4.551  14.494  0.0719 -1.0094  0.8263
13808TIP3   OH262838   1.852   6.259  13.376  0.0896 -0.1860 -0.2065
13808TIP3    H162839   1.925   6.287  13.320  0.6097  0.4862  0.7948
13808TIP3    H262840   1.866   6.304  13.459 -1.4174 -0.1340  0.0433
13809TIP3   OH262841   4.284   4.035  15.422 -0.0479 -0.4612 -0.1878
13809TIP3    H162842   4.370   4.025  15.462  0.1002 -0.7286 -0.5656
13809TIP3    H262843   4.267   4.129  15.424 -0.0367 -0.4699  0.4805
13810TIP3   OH262844   0.065   2.527  14.453  0.0223 -0.5692  0.0184
13810TIP3    H162845  -0.016   2.477  14.459  1.0937 -2.2288  1.9059
13810TIP3    H262846   0.041   2.615  14.484 -0.9581 -1.1852  1.1051
13811TIP3   OH262847   4.267   2.070   5.697 -0.1718  0.4301  0.0623
13811TIP3    H162848   4.239   2.019   5.773 -1.0118  0.0389 -0.4944
13811TIP3    H262849   4.335   2.017   5.655 -1.1750 -0.3499 -0.6240
13812TIP3   OH262850   6.098   5.400  13.207  0.4887  0.0620  0.3428
13812TIP3    H162851   6.003   5.414  13.208  0.5852  1.3718 -1.7529
13812TIP3    H262852   6.133   5.471  13.261  0.3641  1.4380 -1.2847
13813TIP3   OH262853   3.924   6.035  17.309  0.1287 -0.8734  0.0276
13813TIP3    H162854   3.837   6.070  17.290  0.1344  0.2201  1.7750
13813TIP3    H262855   3.950   5.989  17.229 -3.7357 -4.7981  0.6179
13814TIP3   OH262856   5.174   6.596  11.048  0.5674 -0.6997 -0.3076
13814TIP3    H162857   5.162   6.503  11.032 -1.2241 -0.6947  0.6937
13814TIP3    H262858   5.096   6.622  11.098  0.0318  1.7293 -2.1591
13815TIP3   OH262859   1.791   0.748   1.846 -0.1042 -0.3402  0.5313
13815TIP3    H162860   1.769   0.687   1.776 -2.3444  0.9759 -0.0120
13815TIP3    H262861   1.754   0.832   1.818  2.9272  1.3690  1.1990
13816TIP3   OH262862   4.887   5.486   2.205 -0.1476 -0.2485  0.4726
13816TIP3    H162863   4.826   5.453   2.271 -1.3173  0.6394 -0.1445
13816TIP3    H262864   4.878   5.426   2.132 -2.4738  1.4658 -0.7559
13817TIP3   OH262865   0.488   1.415   5.908 -0.2654 -0.2948  0.8964
13817TIP3    H162866   0.444   1.497   5.885 -0.1807 -0.5677 -0.3123
13817TIP3    H262867   0.546   1.438   5.981  1.4442  1.2687 -0.8302
13818TIP3   OH262868   4.514   1.586   1.388  0.1222 -0.5371  0.1779
13818TIP3    H162869   4.575   1.556   1.320  0.4645  0.6635 -0.0706
13818TIP3    H262870   4.516   1.681   1.381 -0.3565 -0.4196  1.4357
13819TIP3   OH262871   2.084   3.944   3.974  0.4288 -0.1024  0.0450
13819TIP3    H162872   2.074   4.003   4.048  0.3944  0.4295 -0.3752
13819TIP3    H262873   2.177   3.951   3.951  0.1766  0.7779 -0.7976
13820TIP3   OH262874   6.256   0.063  11.992 -0.5354  0.3964  0.4819
13820TIP3    H162875   6.307  -0.012  11.961 -0.6623 -0.2164  1.6796
13820TIP3    H262876   6.301   0.140  11.957  0.3384 -0.1933  0.2962
13821TIP3   OH262877   4.794   2.017  16.704 -0.0380 -0.0155 -0.1204
13821TIP3    H162878   4.721   2.055  16.656  1.1646 -1.8909 -3.9368
13821TIP3    H262879   4.771   2.025  16.796 -3.1055  3.0451 -0.9679
13822TIP3   OH262880   0.579   0.717  15.175  0.0659 -0.4675  0.1604
13822TIP3    H162881   0.544   0.712  15.264 -0.1196 -0.7335  0.0722
13822TIP3    H262882   0.669   0.687  15.182  0.8654  1.8583  0.7077
13823TIP3   OH262883   1.233   0.745  15.146 -0.1311 -0.0711 -0.3827
13823TIP3    H162884   1.252   0.809  15.077  2.3255 -0.5708 -0.2794
13823TIP3    H262885   1.318   0.706  15.166 -1.2758 -2.2158  0.7071
13824TIP3   OH262886   2.126   4.718   5.528 -0.0208 -0.1638 -0.1215
13824TIP3    H162887   2.127   4.656   5.601  1.6234 -0.8968 -0.7228
13824TIP3    H262888   2.211   4.707   5.486  0.0740  2.0677 -0.6357
13825TIP3   OH262889   1.700   0.056  11.473 -0.6422  0.0354 -0.1468
13825TIP3    H162890   1.767   0.103  11.425  0.0500 -0.8481 -0.0770
13825TIP3    H262891   1.732   0.053  11.563 -1.7837  1.4111  0.3288
13826TIP3   OH262892   0.696   0.420  12.559  0.0133 -0.1030 -0.0493
13826TIP3    H162893   0.665   0.356  12.623  0.0734 -1.6704 -1.5391
13826TIP3    H262894   0.661   0.503  12.590 -0.7425 -0.9495  1.4975
13827TIP3   OH262895   3.702   1.972   3.455  0.3035 -0.0213  0.4601
13827TIP3    H162896   3.614   1.997   3.427  0.0342 -0.0244  1.2757
13827TIP3    H262897   3.749   1.953   3.374 -0.7362 -0.9830  0.0592
13828TIP3   OH262898   1.538   5.451  15.914  0.1540  0.2139  0.5143
13828TIP3    H162899   1.629   5.434  15.939 -0.0864  0.3006  1.4608
13828TIP3    H262900   1.495   5.477  15.995 -0.6654  0.4099  0.0265
13829TIP3   OH262901   6.101   2.263  14.733  0.3235 -0.5639 -0.0293
13829TIP3    H162902   6.080   2.355  14.748 -0.3442 -0.4264 -1.5513
13829TIP3    H262903   6.069   2.217  14.810  0.1831  0.4186  0.5097
13830TIP3   OH262904   0.905   0.172   0.500  0.2709  0.5989  0.2282
13830TIP3    H162905   0.915   0.088   0.544  0.4978  1.1854  1.3444
13830TIP3    H262906   0.828   0.161   0.445 -1.1997  0.3723  2.2004
13831TIP3   OH262907   4.877   6.299   1.973  0.0125  0.2015 -0.5036
13831TIP3    H162908   4.842   6.218   1.939 -0.4482  0.0875  0.2242
13831TIP3    H262909   4.888   6.283   2.067 -0.1057  0.9804 -0.3501
13832TIP3   OH262910   1.993   6.469   4.687  0.4958 -0.3422 -0.5825
13832TIP3    H162911   2.058   6.403   4.661  0.1028 -0.6105 -0.8898
13832TIP3    H262912   1.982   6.523   4.609  0.5789 -0.1076 -0.4317
13833TIP3   OH262913   1.756   1.073  14.380  0.5849 -0.0326  0.8519
13833TIP3    H162914   1.805   1.151  14.355 -1.5054  1.2873  0.6032
13833TIP3    H262915   1.713   1.044  14.299  2.8581 -2.7259  0.4403
13834TIP3   OH262916   3.484   6.093   1.827 -0.1319  0.5738  0.6012
13834TIP3    H162917   3.496   6.011   1.874  1.4164  0.9954  0.9860
13834TIP3    H262918   3.397   6.085   1.788  0.1062 -1.3645  0.3644
13835TIP3   OH262919   5.030   3.224   5.947  0.2412 -0.0231 -0.2730
13835TIP3    H162920   4.989   3.142   5.977 -1.6305  0.5108 -1.1971
13835TIP3    H262921   4.956   3.279   5.920  1.4721  1.8805  0.0470
13836TIP3   OH262922   1.326   1.734   2.694  0.3843  0.0036  0.4706
13836TIP3    H162923   1.309   1.668   2.761  0.5601 -0.2977  0.2243
13836TIP3    H262924   1.422   1.739   2.689  0.3729  0.1405  0.3555
13837TIP3   OH262925   5.012   4.134   2.353  0.2684  0.4635 -0.0411
13837TIP3    H162926   5.040   4.043   2.351  0.3175  0.4823 -0.4341
13837TIP3    H262927   5.077   4.180   2.299 -0.9873  0.3665 -1.7355
13838TIP3   OH262928   5.949   1.467  16.122 -0.0809  0.2173  0.3627
13838TIP3    H162929   5.950   1.507  16.035 -1.6870  1.1791  0.7515
13838TIP3    H262930   5.915   1.535  16.180 -2.1538 -1.4102  1.1895
13839TIP3   OH262931   0.009   2.754  14.132  0.2463  0.5721 -0.7385
13839TIP3    H162932  -0.038   2.681  14.172 -1.6323  1.6963 -0.8002
13839TIP3    H262933   0.003   2.737  14.038  1.9738 -0.4422 -0.7103
13840TIP3   OH262934   6.575   4.587   4.431  0.2045 -0.1037  0.3658
13840TIP3    H162935   6.540   4.628   4.352 -1.0471  0.9120  1.3866
13840TIP3    H262936   6.561   4.494   4.418 -1.1978  0.1441 -0.0794
13841TIP3   OH262937   3.800   1.085   4.269 -0.1464 -0.4476  0.3472
13841TIP3    H162938   3.831   1.019   4.206 -1.1072 -0.2376 -0.3764
13841TIP3    H262939   3.725   1.125   4.226 -0.2528  0.3606  1.2535
13842TIP3   OH262940   1.279   1.186  12.654  0.3424 -0.4027  0.1276
13842TIP3    H162941   1.327   1.132  12.717 -0.0849 -1.0595 -0.0941
13842TIP3    H262942   1.188   1.176  12.679  0.2399  0.0009 -0.0864
13843TIP3   OH262943   0.289   3.444   0.778 -0.3662  0.2964 -0.5819
13843TIP3    H162944   0.266   3.537   0.788 -2.5477 -0.4250  2.8754
13843TIP3    H262945   0.259   3.422   0.690 -2.8580  2.1907 -0.3341
13844TIP3   OH262946   3.883   2.442  13.313  0.2671  0.4095 -0.4606
13844TIP3    H162947   3.889   2.488  13.229 -0.2303 -0.7147 -1.1411
13844TIP3    H262948   3.837   2.504  13.370 -0.7595  0.6299 -1.4659
13845TIP3   OH262949   6.498   6.198   2.828 -0.3296 -0.5000  0.2208
13845TIP3    H162950   6.504   6.230   2.738  1.7201 -1.6069 -0.1057
13845TIP3    H262951   6.440   6.121   2.823  0.2519 -0.9141 -0.2868
13846TIP3   OH262952   5.906   5.829  13.760 -0.6188 -0.5718 -0.4869
13846TIP3    H162953   5.995   5.863  13.750 -0.3829 -1.0758 -0.1556
13846TIP3    H262954   5.885   5.792  13.674 -0.9404  0.5351 -0.8964
13847TIP3   OH262955   2.279   2.401  11.643  0.5657 -0.3319 -0.3267
13847TIP3    H162956   2.297   2.456  11.719 -1.3484 -0.6907  0.4380
13847TIP3    H262957   2.365   2.372  11.614  1.4528  1.1605  0.6723
13848TIP3   OH262958   0.325   5.896   4.514 -0.2916 -0.1742  0.3529
13848TIP3    H162959   0.361   5.906   4.603 -0.8528  1.3845  0.4471
13848TIP3    H262960   0.254   5.960   4.511 -0.0500  0.0400 -1.3461
13849TIP3   OH262961   5.730   0.423  12.857 -0.0454 -0.3720 -0.4553
13849TIP3    H162962   5.700   0.355  12.797  0.8084 -0.7277 -0.5043
13849TIP3    H262963   5.659   0.487  12.859  0.0102 -0.2169 -2.0675
13850TIP3   OH262964   0.591   4.408  16.813 -0.0260 -0.4194  0.3610
13850TIP3    H162965   0.658   4.465  16.776 -3.2255  4.4700  1.1880
13850TIP3    H262966   0.578   4.340  16.747  0.4022  2.9679 -3.6057
13851TIP3   OH262967   5.868   1.899  17.050  0.1985  0.2037 -0.5158
13851TIP3    H162968   5.962   1.917  17.057 -0.1133  1.2817  1.6674
13851TIP3    H262969   5.826   1.975  17.089 -1.5337 -0.9980  0.0769
13852TIP3   OH262970   3.655   5.741  15.548 -0.0367  0.2140  0.2786
13852TIP3    H162971   3.642   5.696  15.632 -1.7162 -0.7338 -0.4498
13852TIP3    H262972   3.726   5.692  15.505 -1.4783 -1.4864 -0.2747
13853TIP3   OH262973   2.775   4.279   1.386 -0.3327  0.1340 -0.0962
13853TIP3    H162974   2.831   4.331   1.444 -1.4099  1.3789 -0.1239
13853TIP3    H262975   2.721   4.226   1.445  1.4373 -1.7713 -0.0803
13854TIP3   OH262976   0.433   6.439  15.685 -0.9141 -0.1630 -0.2884
13854TIP3    H162977   0.492   6.367  15.662  0.5470  0.7680  0.3832
13854TIP3    H262978   0.402   6.472  15.601  1.4439  0.8383 -0.8405
13855TIP3   OH262979   5.994   5.738   3.535 -0.1833  0.4120  0.1532
13855TIP3    H162980   5.951   5.801   3.594 -0.5005 -0.1402  0.5218
13855TIP3    H262981   6.087   5.756   3.544 -0.2640  0.7319  0.3701
13856TIP3   OH262982   5.276   0.767  11.299 -0.8356  0.4779  0.1111
13856TIP3    H162983   5.268   0.732  11.210 -1.0235  1.8236 -0.4337
13856TIP3    H262984   5.368   0.752  11.322 -1.2115 -1.6122  0.4919
13857TIP3   OH262985   3.316   1.283  11.229  0.2226 -0.2292 -0.1398
13857TIP3    H162986   3.279   1.328  11.152  0.4103 -0.0064 -0.1027
13857TIP3    H262987   3.411   1.293  11.219  0.2243  1.0646  0.8586
13858TIP3   OH262988   4.476   1.964  14.510  0.0030  0.1183 -0.0790
13858TIP3    H162989   4.515   2.047  14.537 -0.4561 -0.0167  1.0388
13858TIP3    H262990   4.429   1.986  14.429 -1.0245  1.2208  0.7810
13859TIP3   OH262991   4.156   5.587   2.134  0.3148  0.0629 -0.7445
13859TIP3    H162992   4.118   5.537   2.207  0.3401  0.6872 -0.2979
13859TIP3    H262993   4.147   5.678   2.161 -0.7803  0.3669 -2.0675
13860TIP3   OH262994   6.165   1.637  16.499  0.1494 -0.0428  0.1192
13860TIP3    H162995   6.161   1.707  16.564 -0.2778 -1.9492  2.2905
13860TIP3    H262996   6.252   1.644  16.461  1.9153 -0.9427  3.5372
13861TIP3   OH262997   2.077   2.372  12.441 -0.3120 -0.1909  0.4723
13861TIP3    H162998   2.032   2.289  12.457  1.3803 -1.0934  0.7592
13861TIP3    H262999   2.170   2.350  12.441  0.1585  1.5884 -0.2058
13862TIP3   OH263000   0.305   3.017  17.228  0.0991 -0.5858 -0.7048
13862TIP3    H163001   0.344   2.992  17.312 -0.2567 -1.5579 -0.8173
13862TIP3    H263002   0.377   3.057  17.179 -0.0606  1.4906  0.6376
13863TIP3   OH263003   3.306   2.760  12.797 -0.0381 -0.2657 -0.0683
13863TIP3    H163004   3.217   2.736  12.822  0.3009 -1.5797 -0.0709
13863TIP3    H263005   3.337   2.686  12.743  0.8452  0.4392 -0.5614
13864TIP3   OH263006   0.656   0.362  16.505  0.0413  0.1198  0.8267
13864TIP3    H163007   0.688   0.343  16.416 -1.7490  2.2701 -0.3867
13864TIP3    H263008   0.576   0.310  16.513 -0.9340  1.4792  0.3057
13865TIP3   OH263009   2.011   3.242  16.235  0.4079  0.1210 -0.4073
13865TIP3    H163010   2.086   3.196  16.198 -0.4629 -0.2245 -1.8346
13865TIP3    H263011   2.006   3.323  16.186 -1.7000 -1.0297 -2.2648
13866TIP3   OH263012   6.692   4.579  14.488 -0.7638  0.2861  0.4205
13866TIP3    H163013   6.781   4.613  14.498 -0.9992  0.4966  2.0221
13866TIP3    H263014   6.650   4.595  14.572 -1.4091 -2.4237  0.7192
13867TIP3   OH263015   6.584   2.742  12.931  0.3175  0.8161  0.2961
13867TIP3    H163016   6.672   2.759  12.967  0.9315  0.8550 -1.1405
13867TIP3    H263017   6.531   2.722  13.008  2.0885 -1.4281  1.0581
13868TIP3   OH263018   5.787   2.885  12.501  0.6409  0.0707  0.2358
13868TIP3    H163019   5.806   2.795  12.474  0.2758  0.1632 -0.3697
13868TIP3    H263020   5.868   2.933  12.484  0.4937  0.0783 -0.5191
13869TIP3   OH263021   0.003   4.199  15.934  0.4098  0.0380 -0.0813
13869TIP3    H163022   0.029   4.226  15.846 -2.5879 -2.0453 -1.8009
13869TIP3    H263023  -0.079   4.245  15.951  0.3990 -0.3961  1.1906
13870TIP3   OH263024   3.717   2.709  13.400 -0.3767 -0.7113 -0.4664
13870TIP3    H163025   3.676   2.627  13.425 -1.4194  0.2365  1.0963
13870TIP3    H263026   3.801   2.709  13.446 -0.9991 -0.3042  0.7181
13871TIP3   OH263027   5.988   4.667  15.944 -0.4570  0.5092 -0.5112
13871TIP3    H163028   6.035   4.626  15.872  1.7261  1.2705  0.3943
13871TIP3    H263029   5.896   4.645  15.929 -0.0407  0.4389 -3.3405
13872TIP3   OH263030   3.407   2.942  15.788  0.5294 -0.3735 -0.0408
13872TIP3    H163031   3.471   3.013  15.790  0.0132  0.0894  0.9956
13872TIP3    H263032   3.445   2.876  15.730  1.1760  0.6012 -0.7600
13873TIP3   OH263033   5.547   6.193  15.710 -0.1735  0.6041 -0.1466
13873TIP3    H163034   5.568   6.111  15.754 -1.7976 -0.5403 -1.3941
13873TIP3    H263035   5.597   6.259  15.758 -0.8372 -0.7146  2.5623
13874TIP3   OH263036   1.610   2.118  16.880 -0.2364  0.5261 -0.4805
13874TIP3    H163037   1.639   2.207  16.858  1.8421 -0.1875 -0.8632
13874TIP3    H263038   1.522   2.130  16.915  0.1603  2.7849 -0.0752
13875TIP3   OH263039   3.153   3.149  13.596  0.3686 -0.1420 -0.2704
13875TIP3    H163040   3.151   3.243  13.577 -0.3668 -0.3345 -1.2219
13875TIP3    H263041   3.171   3.108  13.512  0.9244 -0.8591  0.1835
13876TIP3   OH263042   5.574   4.770  11.791  0.3191  0.1227 -0.0796
13876TIP3    H163043   5.500   4.823  11.760 -0.0464  1.4605  2.7170
13876TIP3    H263044   5.534   4.698  11.839  0.8048  0.1371  0.3621
13877TIP3   OH263045   1.804   1.303   4.543  0.5256  0.2717  0.8176
13877TIP3    H163046   1.721   1.350   4.554 -0.2176 -0.8314  0.2106
13877TIP3    H263047   1.818   1.302   4.448  0.9322 -0.0404  0.8803
13878TIP3   OH263048   1.850   2.710  15.809 -0.3269  0.8886  0.2144
13878TIP3    H163049   1.902   2.779  15.849 -0.6420  2.0151 -1.2474
13878TIP3    H263050   1.777   2.697  15.869 -0.1317  1.6489  0.6245
13879TIP3   OH263051   3.157   4.634   5.441 -0.3604  0.4657  0.4070
13879TIP3    H163052   3.202   4.561   5.485  0.1536  1.4654  1.6009
13879TIP3    H263053   3.073   4.640   5.486 -1.3725 -0.8168 -1.2184
13880TIP3   OH263054   4.083   0.287   6.114 -0.1392 -0.3419 -0.2429
13880TIP3    H163055   4.069   0.257   6.024 -0.5607  0.4957 -0.4732
13880TIP3    H263056   3.995   0.289   6.152  0.1855 -2.1908  0.7078
13881TIP3   OH263057   6.118   1.360   2.303 -0.3874  0.0888  0.6529
13881TIP3    H163058   6.108   1.293   2.235  0.2904  0.8075 -0.1741
13881TIP3    H263059   6.210   1.355   2.327 -0.4621  0.3530  0.9960
13882TIP3   OH263060   0.168   5.365   4.205 -0.2005 -0.0597 -0.4701
13882TIP3    H163061   0.230   5.330   4.142 -0.1562  2.4118 -1.9255
13882TIP3    H263062   0.212   5.355   4.290  1.2883 -0.2567 -1.2295
13883TIP3   OH263063   0.265   2.339   2.159  0.5140 -0.3551  0.2328
13883TIP3    H163064   0.179   2.332   2.117  1.0192 -0.5804 -0.7883
13883TIP3    H263065   0.254   2.409   2.223 -0.1915  0.2367 -0.5132
13884TIP3   OH263066   5.579   6.644   3.054 -0.5722  0.4976  0.2017
13884TIP3    H163067   5.562   6.738   3.049 -0.0197  0.5483 -1.1388
13884TIP3    H263068   5.506   6.609   3.106 -1.7942  1.4187 -0.8306
13885TIP3   OH263069   3.719   0.830   0.726 -0.0155  0.1676 -0.2036
13885TIP3    H163070   3.774   0.753   0.742 -1.8082 -1.0703  0.3374
13885TIP3    H263071   3.775   0.890   0.678  1.8005 -1.0086  0.3452
13886TIP3   OH263072   5.187   4.493   3.839  0.0569  0.4945  0.2053
13886TIP3    H163073   5.189   4.397   3.838  3.3299  0.4442 -1.5430
13886TIP3    H263074   5.095   4.515   3.825 -0.9231 -2.3361  1.3908
13887TIP3   OH263075   6.533   1.507   4.992  0.2117 -0.0433 -0.5928
13887TIP3    H163076   6.466   1.530   4.928 -0.9562 -0.8105  0.2969
13887TIP3    H263077   6.610   1.557   4.966 -1.0220  1.7499 -1.0064
13888TIP3   OH263078   5.380   0.749  12.262  0.3693 -0.3141 -0.1416
13888TIP3    H163079   5.384   0.657  12.236 -0.5856  0.1089 -1.8573
13888TIP3    H263080   5.369   0.797  12.181  0.5405  1.3208  0.7613
13889TIP3   OH263081   5.041   5.817   5.518  0.3195 -0.0361  0.0195
13889TIP3    H163082   4.992   5.798   5.598  0.1407 -0.1559 -0.1167
13889TIP3    H263083   5.078   5.733   5.493 -2.3781 -0.7989 -1.8709
13890TIP3   OH263084   4.877   5.019  17.300  0.1785  0.2210  0.0180
13890TIP3    H163085   4.810   4.952  17.293  0.5986 -0.2144  0.1479
13890TIP3    H263086   4.830   5.098  17.326  0.0694 -0.7479  3.1672
13891TIP3   OH263087   1.092   3.985   4.444 -0.1641 -0.0563  0.0822
13891TIP3    H163088   1.152   3.961   4.373 -0.0012 -0.2610  0.2896
13891TIP3    H263089   1.005   3.963   4.411 -0.0249 -0.8364  0.2304
13892TIP3   OH263090   5.765   4.074   5.012 -0.1310  0.3204  0.0434
13892TIP3    H163091   5.743   4.106   4.924 -3.5895 -1.6059  0.0270
13892TIP3    H263092   5.764   4.153   5.067 -1.7474  1.1265 -1.0537
13893TIP3   OH263093   4.910   2.928  16.414 -0.0542 -0.4902 -0.1824
13893TIP3    H163094   4.914   2.987  16.339  0.5172  0.6050  0.6884
13893TIP3    H263095   4.834   2.959  16.464  0.6787  0.0012  0.6588
13894TIP3   OH263096   3.604   1.743   0.676 -0.8815 -0.1211 -0.3525
13894TIP3    H163097   3.551   1.714   0.750  0.3294  0.6463  0.8595
13894TIP3    H263098   3.680   1.786   0.716  0.1704 -0.3277 -2.0371
13895TIP3   OH263099   1.109   1.976   2.934  0.2705  0.4630  0.2104
13895TIP3    H163100   1.054   2.033   2.879  0.3998 -1.8397 -2.5403
13895TIP3    H263101   1.193   2.022   2.939 -0.5612  2.0029  0.8532
13896TIP3   OH263102   2.471   1.527   1.709  0.3188 -0.0629 -0.4058
13896TIP3    H163103   2.403   1.594   1.703  0.6165  0.5014  1.7281
13896TIP3    H263104   2.547   1.566   1.665 -0.0966  0.1899 -0.9030
13897TIP3   OH263105   0.607   4.115   4.595  0.2095  0.0409 -0.2085
13897TIP3    H163106   0.588   4.175   4.667  0.6440  0.1063 -0.1489
13897TIP3    H263107   0.683   4.066   4.624 -0.0442 -0.4307 -0.3255
13898TIP3   OH263108   0.914   1.192  14.989 -0.6930  0.2813 -0.3580
13898TIP3    H163109   0.851   1.231  14.930 -0.4487 -0.2433 -0.9807
13898TIP3    H263110   0.897   1.233  15.074 -0.1902  2.0361 -1.0473
13899TIP3   OH263111   1.831   5.493   0.831  0.3413  0.4129  0.0209
13899TIP3    H163112   1.888   5.524   0.761 -1.9000 -1.4423 -2.8565
13899TIP3    H263113   1.868   5.410   0.858 -1.4678 -1.4748 -2.8053
13900TIP3   OH263114   2.172   0.098  13.955 -0.3332 -0.4823  0.4161
13900TIP3    H163115   2.154   0.062  13.868 -0.2845  1.6682 -0.5428
13900TIP3    H263116   2.242   0.042  13.990 -0.2132 -1.2664 -0.9971
13901TIP3   OH263117   3.283   1.006  13.613 -0.3165 -0.0983 -0.3362
13901TIP3    H163118   3.271   1.079  13.674 -1.3294 -0.3194 -0.2514
13901TIP3    H263119   3.240   1.035  13.532 -3.1009 -1.5547  0.4840
13902TIP3   OH263120   3.697   0.382  12.826  0.1515 -0.0181  0.1135
13902TIP3    H163121   3.611   0.361  12.788 -1.1432  1.8833  1.7551
13902TIP3    H263122   3.711   0.474  12.803  0.5127  0.4340  1.9857
13903TIP3   OH263123   4.395   4.189   0.964  0.1501 -0.1414 -0.1294
13903TIP3    H163124   4.399   4.101   1.001  2.4617 -0.2564 -0.5432
13903TIP3    H263125   4.419   4.247   1.036  3.0745 -0.2480 -0.9172
13904TIP3   OH263126   3.332   0.768   1.421  0.2313 -0.6755 -0.0678
13904TIP3    H163127   3.393   0.723   1.480  0.3888  0.6080  0.7838
13904TIP3    H263128   3.291   0.835   1.476 -1.0232 -0.6950 -0.9520
13905TIP3   OH263129   1.973   6.424   2.462 -0.2668 -0.0505  0.2983
13905TIP3    H163130   1.970   6.348   2.403  0.8793  0.3051 -0.2372
13905TIP3    H263131   1.923   6.492   2.416  1.0118  0.3739 -0.5168
13906TIP3   OH263132   0.999   5.956  13.049 -0.2138  0.0851  0.0078
13906TIP3    H163133   1.015   6.016  13.121  0.3608 -0.0445 -0.0045
13906TIP3    H263134   0.950   6.007  12.985 -0.0899  0.4163  0.1748
13907TIP3   OH263135   0.662   3.091   3.465  0.4080 -0.4069  0.5146
13907TIP3    H163136   0.607   3.043   3.403  0.7567  0.8337 -0.7821
13907TIP3    H263137   0.752   3.074   3.436  0.6148 -0.4303  1.1480
13908TIP3   OH263138   1.461   2.775  16.824 -0.1264  0.0914 -0.0189
13908TIP3    H163139   1.366   2.787  16.823 -0.0840  1.4740  2.7737
13908TIP3    H263140   1.477   2.710  16.893  0.9451 -0.1489 -0.4645
13909TIP3   OH263141   2.530   1.584   0.019 -0.4283  0.0850 -0.1604
13909TIP3    H163142   2.465   1.651   0.000 -0.6554 -0.1079 -0.0664
13909TIP3    H263143   2.479   1.509   0.050 -0.1293  0.1130  0.4255
13910TIP3   OH263144   6.217   3.422  12.590 -0.0158 -0.2789  0.8823
13910TIP3    H163145   6.198   3.398  12.681  0.8302  0.5494  1.3019
13910TIP3    H263146   6.200   3.342  12.540  0.7161 -1.1364  1.9415
13911TIP3   OH263147   1.292   0.667   4.654 -0.4265  0.4098  0.3984
13911TIP3    H163148   1.329   0.736   4.709 -0.0881  0.7912 -0.3038
13911TIP3    H263149   1.339   0.588   4.680 -0.0180  0.6545  0.4191
13912TIP3   OH263150   6.090   4.407   5.578  0.2855 -0.2351  0.3021
13912TIP3    H163151   6.113   4.479   5.636  0.0104 -0.0162  0.1410
13912TIP3    H263152   6.092   4.329   5.634 -1.4088  0.1565  0.9775
13913TIP3   OH263153   0.363   4.336   5.552  0.2827  0.6552 -0.7957
13913TIP3    H163154   0.315   4.388   5.616  2.7412  0.2381  1.6183
13913TIP3    H263155   0.353   4.245   5.581 -1.8693 -0.0923 -3.4774
13914TIP3   OH263156   4.525   5.906   3.311 -0.3824  0.7262  0.0161
13914TIP3    H163157   4.511   5.811   3.316 -0.6374  0.7988  0.8513
13914TIP3    H263158   4.606   5.921   3.359 -0.6268  0.9931  0.3461
13915TIP3   OH263159   4.979   5.604  15.313  0.3385 -0.7048  0.1742
13915TIP3    H163160   5.064   5.648  15.316 -0.8907  1.8231  2.6841
13915TIP3    H263161   4.943   5.626  15.228  0.8825  1.0028  0.3606
13916TIP3   OH263162   5.222   4.607  14.551  0.1874  0.1043  0.1339
13916TIP3    H163163   5.218   4.580  14.459  0.9151 -0.2285  0.1940
13916TIP3    H263164   5.301   4.565  14.585  0.1660  0.5906  0.7993
13917TIP3   OH263165   6.522   0.261   6.349 -0.1879  0.1109 -0.3789
13917TIP3    H163166   6.587   0.219   6.293 -1.3725 -0.7756 -1.1666
13917TIP3    H263167   6.485   0.330   6.295  1.3141  1.8389  0.6992
13918TIP3   OH263168   3.385   4.320  15.269  0.1730 -0.1015  0.2184
13918TIP3    H163169   3.398   4.415  15.274 -1.7461  0.2605 -0.7035
13918TIP3    H263170   3.416   4.287  15.354 -1.3453  1.6737  1.5541
13919TIP3   OH263171   6.368   5.366   0.954 -0.0151 -0.0756 -0.1326
13919TIP3    H163172   6.410   5.332   0.875 -0.7749 -0.4628 -0.3803
13919TIP3    H263173   6.275   5.373   0.931 -0.2978 -0.5074  0.8250
13920TIP3   OH263174   3.778   4.898  11.058  0.2853  0.3037  0.0014
13920TIP3    H163175   3.746   4.987  11.041 -1.0578 -0.1281  0.1676
13920TIP3    H263176   3.786   4.893  11.153 -2.1181 -0.5278  0.2221
13921TIP3   OH263177   3.532   1.641   5.865 -0.4363  0.3574 -0.1614
13921TIP3    H163178   3.549   1.552   5.834  2.2160  1.0203 -0.8406
13921TIP3    H263179   3.527   1.632   5.960  1.3790 -0.3649 -0.0815
13922TIP3   OH263180   1.685   2.871   0.908 -0.1412  0.4507  0.0112
13922TIP3    H163181   1.778   2.848   0.897 -0.2717 -0.0482 -0.0857
13922TIP3    H263182   1.685   2.966   0.915  0.6162  0.3420  2.3181
13923TIP3   OH263183   3.446   2.476   6.145 -0.0050  0.2821  0.6091
13923TIP3    H163184   3.369   2.421   6.160  1.3109 -1.7775  0.1879
13923TIP3    H263185   3.445   2.493   6.051 -0.3204  0.8749  0.7141
13924TIP3   OH263186   0.317   4.647   3.728  0.1520  0.0791  0.0647
13924TIP3    H163187   0.260   4.674   3.656  0.7559  0.6528 -0.2142
13924TIP3    H263188   0.393   4.607   3.684  0.5617  0.5029  0.3690
13925TIP3   OH263189   4.840   4.303  15.272 -0.6793  0.1636  0.1855
13925TIP3    H163190   4.931   4.305  15.244 -0.8032 -0.3588 -0.2708
13925TIP3    H263191   4.800   4.233  15.221 -0.8730 -0.9983  1.8510
13926TIP3   OH263192   3.659   2.571  15.445 -0.2321  0.4727  0.0435
13926TIP3    H163193   3.718   2.532  15.380 -1.2042 -3.4971  1.3183
13926TIP3    H263194   3.573   2.572  15.401 -0.5972 -0.8207  0.6843
13927TIP3   OH263195   2.470   1.951   0.323 -0.7721  0.1419  0.3797
13927TIP3    H163196   2.466   1.862   0.356  3.3463 -0.4111 -0.0989
13927TIP3    H263197   2.424   1.948   0.239 -0.9443 -1.4639  0.5083
13928TIP3   OH263198   6.660   4.479  11.284  0.2470 -0.6908  0.3644
13928TIP3    H163199   6.730   4.544  11.286  0.0038 -0.3174 -1.3428
13928TIP3    H263200   6.705   4.395  11.292  0.8126 -0.4101  0.1959
13929TIP3   OH263201   6.194   1.502   0.584 -0.3948  0.1243 -0.1528
13929TIP3    H163202   6.186   1.440   0.511  1.4905 -0.2812 -0.0858
13929TIP3    H263203   6.253   1.569   0.552 -1.6781  1.4207  0.1087
13930TIP3   OH263204   2.896   2.782   1.761 -0.2579  0.2489  0.3302
13930TIP3    H163205   2.804   2.757   1.763 -0.3149 -0.1213 -2.3074
13930TIP3    H263206   2.897   2.869   1.722  0.5127 -0.1856 -0.6994
13931TIP3   OH263207   2.474   2.181   0.528  0.4658  0.0241 -0.2563
13931TIP3    H163208   2.400   2.222   0.482  0.5739 -1.0823 -1.4857
13931TIP3    H263209   2.490   2.100   0.479  0.1345 -1.6202  2.1847
13932TIP3   OH263210   5.791   0.613   2.589  0.1718 -0.0306  0.5184
13932TIP3    H163211   5.751   0.662   2.661  0.1402 -0.1632  0.5910
13932TIP3    H263212   5.739   0.533   2.582 -0.8569  0.7237 -0.7406
13933TIP3   OH263213   3.899   5.412   3.157 -0.3557 -0.0522  0.4490
13933TIP3    H163214   3.886   5.341   3.094 -0.6462 -0.7472  1.2788
13933TIP3    H263215   3.823   5.470   3.143  0.3049  0.5637 -0.7980
13934TIP3   OH263216   5.954   4.548   0.907  0.6487  0.6458 -0.4034
13934TIP3    H163217   6.038   4.504   0.894  0.3522 -0.2047  0.4176
13934TIP3    H263218   5.958   4.581   0.996 -0.0852  0.1219 -0.1621
13935TIP3   OH263219   2.413   0.451   0.834  0.0515  0.4695 -0.0999
13935TIP3    H163220   2.327   0.477   0.799 -0.3287 -1.2422 -0.5339
13935TIP3    H263221   2.393   0.392   0.906  0.8853  1.1019  0.6795
13936TIP3   OH263222   2.969   1.698  12.185  0.1373  0.8253  0.2094
13936TIP3    H163223   2.890   1.658  12.223  0.0857 -1.1061 -1.7394
13936TIP3    H263224   3.027   1.711  12.259 -0.1338 -2.3459  1.0897
13937TIP3   OH263225   1.273   4.137  13.925  0.4275  0.2012  0.3467
13937TIP3    H163226   1.266   4.041  13.926  0.8574  0.1600 -0.0374
13937TIP3    H263227   1.320   4.158  14.006  1.2731 -0.0041 -0.0782
13938TIP3   OH263228   2.268   1.717   2.922 -0.0653 -0.6050  0.2374
13938TIP3    H163229   2.281   1.632   2.881 -0.6887 -0.5865 -0.0154
13938TIP3    H263230   2.323   1.777   2.872  0.8571 -0.9528  0.7991
13939TIP3   OH263231   5.019   1.467   4.423  0.3545  0.0047 -0.0810
13939TIP3    H163232   4.956   1.538   4.409  0.4868 -0.0636 -1.1015
13939TIP3    H263233   5.048   1.444   4.335 -0.6127 -2.1895  0.1272
13940TIP3   OH263234   2.095   6.645   4.171  0.3305 -0.1689 -0.6571
13940TIP3    H163235   2.175   6.694   4.153 -0.3392  1.5621  0.7334
13940TIP3    H263236   2.042   6.657   4.092  0.6529  0.3911 -0.7972
13941TIP3   OH263237   2.199   4.297   4.234 -0.4148  0.0999 -0.1088
13941TIP3    H163238   2.231   4.296   4.324  0.6808 -0.5880 -0.4845
13941TIP3    H263239   2.172   4.387   4.219  0.7311  0.5515  0.4512
13942TIP3   OH263240   0.538   2.697   3.118  0.2220  0.4158 -0.3346
13942TIP3    H163241   0.507   2.661   3.035 -0.0697  1.6032 -0.7696
13942TIP3    H263242   0.627   2.664   3.128  0.3562  0.4788 -1.2642
13943TIP3   OH263243   3.133   4.484  17.333 -0.0752 -0.4212 -0.0375
13943TIP3    H163244   3.182   4.566  17.337 -1.2266  0.3086 -0.4620
13943TIP3    H263245   3.161   4.443  17.251 -2.8307  1.7924 -2.2838
13944TIP3   OH263246   0.150   1.847  13.968 -0.3992 -0.0078  0.0043
13944TIP3    H163247   0.186   1.921  13.917 -2.4747 -0.1336 -1.7688
13944TIP3    H263248   0.067   1.880  14.003 -0.4767 -0.9475  0.7320
13945TIP3   OH263249   4.826   1.082  15.700 -0.0189  0.5795  0.2331
13945TIP3    H163250   4.825   0.988  15.718 -1.9081  0.8785  2.0777
13945TIP3    H263251   4.918   1.101  15.679  0.9628 -1.2544  2.3655
13946TIP3   OH263252   5.170   2.316  13.846  0.3495  0.6093  0.1300
13946TIP3    H163253   5.243   2.333  13.786 -1.4356 -0.0392 -2.3691
13946TIP3    H263254   5.110   2.261  13.796 -0.2365 -1.9501  3.3070
13947TIP3   OH263255   2.220   2.805  14.136 -0.1853  0.2324 -0.2920
13947TIP3    H163256   2.141   2.752  14.126  1.6900 -2.6086 -1.2998
13947TIP3    H263257   2.240   2.801  14.230 -0.9336  0.5869 -0.1061
13948TIP3   OH263258   2.217   6.118  14.187 -0.3817 -0.2787  0.0233
13948TIP3    H163259   2.301   6.106  14.232  0.4299  0.2703 -1.2778
13948TIP3    H263260   2.192   6.030  14.160  0.7777 -0.2632 -1.2465
13949TIP3   OH263261   6.242   5.697  15.405  0.3140  0.1640  0.1215
13949TIP3    H163262   6.299   5.654  15.469 -1.2169 -1.1802  0.6500
13949TIP3    H263263   6.157   5.656  15.418 -0.6308  1.6409 -1.0988
13950TIP3   OH263264   2.348   2.005   3.414 -0.2562 -0.2702 -0.2462
13950TIP3    H163265   2.435   1.966   3.413  1.1822  2.6158  0.6090
13950TIP3    H263266   2.362   2.094   3.446 -3.6888 -0.0328  1.0544
13951TIP3   OH263267   2.638   5.764   0.698  0.5415 -0.1430 -0.3705
13951TIP3    H163268   2.573   5.739   0.763  0.9279 -2.6034 -0.8239
13951TIP3    H263269   2.714   5.792   0.749  0.2469 -0.3821  0.2002
13952TIP3   OH263270   6.423   2.078  16.778 -0.2992 -0.1668  0.0906
13952TIP3    H163271   6.387   2.106  16.862  0.0206 -0.5975  0.3729
13952TIP3    H263272   6.416   2.155  16.722 -1.3000 -0.1233  0.2584
13953TIP3   OH263273   4.545   0.561  10.819  0.3517 -0.6727  0.5840
13953TIP3    H163274   4.507   0.473  10.823  0.4259 -0.6578  3.0740
13953TIP3    H263275   4.631   0.547  10.780  0.4149 -1.7437  1.0588
13954TIP3   OH263276   1.252   3.014  16.602 -0.1691  0.5900  0.3341
13954TIP3    H163277   1.181   3.023  16.665 -1.2226  1.7878 -0.9808
13954TIP3    H263278   1.241   2.926  16.566 -1.4287  1.0247 -0.3719
13955TIP3   OH263279   0.229   2.287   1.715 -0.4557  0.5899 -0.0097
13955TIP3    H163280   0.305   2.320   1.667  0.7917 -0.3108  1.2753
13955TIP3    H263281   0.260   2.275   1.805 -1.1084 -2.9785 -0.1031
13956TIP3   OH263282   5.897   4.476   4.910 -0.2983 -0.0629 -0.2263
13956TIP3    H163283   5.987   4.492   4.938 -0.4995 -0.1632  0.4951
13956TIP3    H263284   5.905   4.442   4.821  0.2960  1.4182 -0.7790
13957TIP3   OH263285   6.539   3.540   4.420 -0.4298 -0.5514 -0.2195
13957TIP3    H163286   6.458   3.493   4.401 -0.0399 -1.0995 -0.5539
13957TIP3    H263287   6.579   3.490   4.491 -1.3450  0.8613  1.3415
13958TIP3   OH263288   1.179   6.151   1.045 -0.0369  0.1005  0.1412
13958TIP3    H163289   1.259   6.100   1.059 -0.1222 -0.2381 -0.5549
13958TIP3    H263290   1.125   6.130   1.121 -0.1003 -0.9207 -0.1676
13959TIP3   OH263291   0.289   4.060  14.166  0.2042 -0.3270  0.0245
13959TIP3    H163292   0.328   4.123  14.105  0.3721 -0.4246  0.0298
13959TIP3    H263293   0.360   4.038  14.226  0.0958 -0.3864  0.1317
13960TIP3   OH263294   6.202   4.794   4.495  0.0490  0.7918 -0.5886
13960TIP3    H163295   6.229   4.734   4.565 -3.6863  0.5714  0.9316
13960TIP3    H263296   6.189   4.738   4.419  1.4663  0.5670 -0.6859
13961TIP3   OH263297   4.287   4.532   2.526 -0.4487 -0.7002  0.4772
13961TIP3    H163298   4.321   4.620   2.510  0.7018 -0.9861  1.1854
13961TIP3    H263299   4.192   4.540   2.516 -0.4848  0.8979  1.7161
13962TIP3   OH263300   1.188   2.796  14.424 -0.0628  0.1580 -0.3679
13962TIP3    H163301   1.123   2.832  14.485 -0.4613  1.3826 -1.4703
13962TIP3    H263302   1.159   2.826  14.338  2.3456  1.3335 -0.8490
13963TIP3   OH263303   6.542   4.348   0.697 -0.3453 -0.2692  0.0294
13963TIP3    H163304   6.468   4.406   0.717  0.1459  0.1854  0.5498
13963TIP3    H263305   6.568   4.311   0.781 -0.7230 -1.3452 -0.3162
13964TIP3   OH263306   1.032   4.087   5.527  0.2677  0.3147  0.1505
13964TIP3    H163307   1.018   4.149   5.455 -0.2539 -1.3708 -1.2745
13964TIP3    H263308   1.082   4.016   5.487 -1.2362 -1.3374  1.0576
13965TIP3   OH263309   3.400   6.689   1.177 -0.4935  0.4467 -0.0922
13965TIP3    H163310   3.339   6.741   1.126 -1.6088  0.9271  1.6191
13965TIP3    H263311   3.344   6.632   1.230  0.6220 -0.5110  0.1074
13966TIP3   OH263312   1.683   0.831  13.727 -0.2900  0.5392  0.0014
13966TIP3    H163313   1.637   0.856  13.807 -0.4360 -0.6082  0.2901
13966TIP3    H263314   1.699   0.737  13.737  0.9835  0.6682 -0.6660
13967TIP3   OH263315   3.440   0.584   2.772 -0.5539 -0.9437 -0.2765
13967TIP3    H163316   3.417   0.634   2.694 -1.8155  1.9056  1.7570
13967TIP3    H263317   3.484   0.506   2.738 -0.1564  0.6099 -3.7592
13968TIP3   OH263318   4.654   1.972  16.967  0.0653  0.1331  0.4676
13968TIP3    H163319   4.584   2.026  17.003  1.6722  1.1077  2.3365
13968TIP3    H263320   4.662   1.899  17.028 -0.1925 -0.6968 -0.4733
13969TIP3   OH263321   2.068   1.452   4.325 -0.0088 -0.0459  0.1961
13969TIP3    H163322   2.056   1.412   4.239  1.0173  0.0488 -0.0039
13969TIP3    H263323   1.992   1.509   4.336 -1.2629 -1.6626  0.2868
13970TIP3   OH263324   0.599   5.116  12.295  0.1724 -0.4658 -0.3411
13970TIP3    H163325   0.588   5.021  12.290  0.4096 -0.5459  0.5884
13970TIP3    H263326   0.577   5.138  12.385 -0.6822  0.4772 -0.7586
13971TIP3   OH263327   2.504   1.514  15.870  0.5878  0.2953 -0.2692
13971TIP3    H163328   2.508   1.422  15.847  2.8886  0.0478  0.8363
13971TIP3    H263329   2.486   1.559  15.787  1.8719 -0.9840 -1.2750
13972TIP3   OH263330   0.460   5.009  13.185 -0.1130  0.5093 -0.4713
13972TIP3    H163331   0.393   5.001  13.253 -0.2950  1.8497 -0.4742
13972TIP3    H263332   0.450   5.098  13.151  1.7233  0.7797 -0.4175
13973TIP3   OH263333   0.528   5.954  11.633  0.3981  0.0587 -0.1449
13973TIP3    H163334   0.518   5.867  11.593 -0.4558  0.0725  0.0228
13973TIP3    H263335   0.620   5.959  11.656  0.9908  0.1054 -2.2702
13974TIP3   OH263336   2.440   2.251   3.542  0.0539  0.1599 -0.0207
13974TIP3    H163337   2.440   2.334   3.590 -1.5825  0.7404 -0.9387
13974TIP3    H263338   2.360   2.207   3.570 -2.4968  1.6844 -3.9213
13975TIP3   OH263339   4.923   2.183  15.506  0.0926  0.1754  0.0444
13975TIP3    H163340   4.858   2.243  15.543  0.3720  0.0841  0.7065
13975TIP3    H263341   5.007   2.224  15.528  0.2707 -0.1600 -0.0176
13976TIP3   OH263342   0.811   2.346   5.912 -0.0922 -0.4571 -0.1596
13976TIP3    H163343   0.804   2.251   5.919  0.3118 -0.5276 -0.6560
13976TIP3    H263344   0.762   2.380   5.987  1.6699 -1.0921  1.3289
13977TIP3   OH263345   0.507   0.674  14.060 -0.6809  0.0112 -0.7203
13977TIP3    H163346   0.594   0.637  14.049 -0.9026 -1.0979  0.9332
13977TIP3    H263347   0.453   0.631  13.994  0.1159  1.1636 -2.1729
13978TIP3   OH263348   4.912   2.585  12.658 -0.1176  0.1556  0.0256
13978TIP3    H163349   4.869   2.665  12.627  0.2949 -0.3468 -1.9463
13978TIP3    H263350   4.852   2.550  12.724 -0.3857  1.9807  0.8198
13979TIP3   OH263351   1.857   5.101   1.632  0.4398  0.1809  0.0219
13979TIP3    H163352   1.853   5.083   1.726  0.3194 -1.6612 -0.3008
13979TIP3    H263353   1.951   5.099   1.612  0.4925  0.9264  0.1318
13980TIP3   OH263354   1.210   4.347  13.353  0.4708  0.2174 -0.0514
13980TIP3    H163355   1.160   4.312  13.280 -0.0862 -0.8328  0.7994
13980TIP3    H263356   1.196   4.284  13.424  3.5738 -0.5450  0.0460
13981TIP3   OH263357   4.913   1.528  14.000  0.2417 -0.2047  0.2171
13981TIP3    H163358   4.912   1.545  14.094  2.0834  0.0031  0.2386
13981TIP3    H263359   4.980   1.461  13.988 -1.6904 -2.0827 -0.7155
13982TIP3   OH263360   6.191   2.836  15.435  0.1090  0.7411  0.2116
13982TIP3    H163361   6.156   2.785  15.508 -1.4703 -0.5302 -1.3302
13982TIP3    H263362   6.241   2.773  15.383  0.4045  1.3952 -0.3133
13983TIP3   OH263363   6.438   4.213   4.504 -0.2340 -0.4678  0.6624
13983TIP3    H163364   6.359   4.267   4.503  0.0436  0.0042 -1.4400
13983TIP3    H263365   6.474   4.222   4.415  0.5468 -3.0645  0.6274
13984TIP3   OH263366   1.575   4.236  11.447  0.2074 -0.4579  0.2255
13984TIP3    H163367   1.593   4.189  11.365  1.2468  0.5675 -0.1675
13984TIP3    H263368   1.536   4.170  11.504  0.8027 -1.5768 -0.6086
13985TIP3   OH263369   2.072   1.922  11.258  0.1304  0.3626  0.1587
13985TIP3    H163370   2.016   1.867  11.313 -0.3321  1.4007  0.7526
13985TIP3    H263371   2.161   1.901  11.286 -0.1020  0.9619  1.4148
13986TIP3   OH263372   3.921   5.898   4.620  0.4053 -0.4300  0.0213
13986TIP3    H163373   3.970   5.939   4.548  0.1915 -2.8197 -1.6142
13986TIP3    H263374   3.936   5.955   4.695  2.0931  1.2536 -1.4952
13987TIP3   OH263375   2.903   0.213  16.504  0.0721 -0.2107 -0.0063
13987TIP3    H163376   2.878   0.140  16.448 -0.1744  0.1092 -0.3161
13987TIP3    H263377   2.900   0.177  16.593 -0.1238 -0.5528 -0.1504
13988TIP3   OH263378   5.344   4.207  16.121 -0.5474  0.1152 -0.6125
13988TIP3    H163379   5.365   4.115  16.138  0.9566  0.5797  0.2508
13988TIP3    H263380   5.419   4.240  16.072 -1.2017  0.8308 -1.1596
13989TIP3   OH263381   1.985   0.779  12.443 -0.3116  0.0393  0.5085
13989TIP3    H163382   2.074   0.772  12.408 -0.6743 -1.1368 -0.2357
13989TIP3    H263383   1.943   0.697  12.419 -1.1231 -0.0978  2.2581
13990TIP3   OH263384   3.068   1.003   4.025 -0.4295 -0.1541  0.2454
13990TIP3    H163385   3.129   0.997   3.950  1.9113  1.3698  1.8909
13990TIP3    H263386   3.066   1.096   4.046 -2.5573 -0.3280  0.9422
13991TIP3   OH263387   0.371   1.892  11.568  0.4499  0.2644  0.5833
13991TIP3    H163388   0.313   1.957  11.529 -0.1956 -0.8463 -0.3953
13991TIP3    H263389   0.380   1.824  11.501 -2.2597 -2.7020  2.8989
13992TIP3   OH263390   0.706   3.169  17.177  0.9072 -0.2823  0.2633
13992TIP3    H163391   0.626   3.117  17.182  0.9103 -0.2040  1.5216
13992TIP3    H263392   0.732   3.165  17.085 -0.3977 -0.5225 -0.1176
13993TIP3   OH263393   6.581   5.340   6.045 -0.0243 -0.4659  0.5117
13993TIP3    H163394   6.558   5.253   6.078 -1.4259  0.2290  1.5060
13993TIP3    H263395   6.500   5.371   6.003  0.8846 -0.1861 -1.1213
13994TIP3   OH263396   4.359   1.880  13.918  0.6593  0.1845  0.7533
13994TIP3    H163397   4.437   1.879  13.973  0.8573  1.8969  0.5642
13994TIP3    H263398   4.377   1.816  13.849  1.6111  0.0897  1.0810
13995TIP3   OH263399   4.168   2.551  13.318 -0.0395 -0.2324 -0.5674
13995TIP3    H163400   4.130   2.624  13.366  0.5126 -1.2307  1.5199
13995TIP3    H263401   4.109   2.477  13.336  0.3805 -0.7207 -1.1351
13996TIP3   OH263402   5.628   4.170  17.114  0.2829  0.3870  0.6317
13996TIP3    H163403   5.693   4.208  17.172  0.3819  0.4233  0.4966
13996TIP3    H263404   5.547   4.216  17.136 -0.2454 -1.2901  2.4625
13997TIP3   OH263405   3.463   0.939   0.705  0.1251 -0.1668 -0.3187
13997TIP3    H163406   3.479   1.026   0.667  1.2207 -0.3667 -0.3456
13997TIP3    H263407   3.550   0.900   0.712 -0.1214 -0.4350  1.6990
13998TIP3   OH263408   6.576   0.081  13.487 -0.7182  0.0990 -0.6452
13998TIP3    H163409   6.559   0.119  13.401 -2.4596  1.0859  0.0841
13998TIP3    H263410   6.660   0.036  13.477 -0.5895  0.6849 -2.6805
13999TIP3   OH263411   2.587   6.145   3.129  0.3611  0.4709 -0.0928
13999TIP3    H163412   2.571   6.239   3.121 -1.8532  0.1096 -0.6072
13999TIP3    H263413   2.524   6.115   3.194  2.2974 -0.4198  1.4856
14000TIP3   OH263414   2.992   1.239   4.837  0.2317  0.4912 -0.1465
14000TIP3    H163415   2.960   1.155   4.805 -0.7717  1.1405 -0.9046
14000TIP3    H263416   2.985   1.233   4.932 -1.8399  0.4418 -0.2519
14001TIP3   OH263417   3.416   0.133   5.538  0.8291 -0.2809  0.0117
14001TIP3    H163418   3.390   0.182   5.460 -1.8202 -0.1983  0.8482
14001TIP3    H263419   3.376   0.046   5.527  0.6271 -0.3528  1.1567
14002TIP3   OH263420   4.806   3.532  14.228 -0.3678 -0.0097  0.2443
14002TIP3    H163421   4.801   3.443  14.191  2.0870 -0.4498  0.8514
14002TIP3    H263422   4.751   3.584  14.169 -0.1820 -1.5376 -1.3926
14003TIP3   OH263423   2.681   6.073  15.889 -0.6971  0.1510 -0.7136
14003TIP3    H163424   2.691   6.005  15.822 -2.2850 -0.6124 -0.2336
14003TIP3    H263425   2.729   6.039  15.965 -1.0849 -0.2281 -0.6320
14004TIP3   OH263426   5.849   5.368   0.485 -0.5497 -0.2647 -0.4507
14004TIP3    H163427   5.851   5.459   0.516  4.0766 -0.3655  0.3224
14004TIP3    H263428   5.837   5.376   0.390 -2.8877  0.8531 -0.1325
14005TIP3   OH263429   0.549   6.193  14.109  0.4923 -0.2729 -0.4188
14005TIP3    H163430   0.614   6.133  14.072  0.1150 -0.5085 -0.7070
14005TIP3    H263431   0.576   6.280  14.081  1.6183 -0.1856  0.8313
14006TIP3   OH263432   3.644   1.463   1.436  0.7304 -0.0396 -0.1805
14006TIP3    H163433   3.710   1.400   1.466 -0.1596 -0.1836  1.6075
14006TIP3    H263434   3.661   1.542   1.486 -0.8586 -0.3083  0.8732
14007TIP3   OH263435   6.072   0.691  10.454 -0.0054 -0.1918 -0.3941
14007TIP3    H163436   6.111   0.757  10.511 -2.9631  0.9761  0.4823
14007TIP3    H263437   5.983   0.724  10.436 -0.7986 -2.8100 -1.8618
14008TIP3   OH263438   5.192   5.303  11.732  0.0901  0.3991  0.0711
14008TIP3    H163439   5.224   5.230  11.784 -0.7545  0.3263  0.5067
14008TIP3    H263440   5.262   5.320  11.669  0.5300 -0.4163  0.3237
14009TIP3   OH263441   3.636   5.694  13.392  0.6198  0.0549  0.3567
14009TIP3    H163442   3.729   5.712  13.404  0.5963 -0.3655  1.2990
14009TIP3    H263443   3.592   5.750  13.456  0.2295  0.1665 -0.0031
14010TIP3   OH263444   2.962   2.516  15.071 -0.2236  0.9068 -0.0482
14010TIP3    H163445   2.897   2.460  15.029 -2.6034  3.3862  0.0856
14010TIP3    H263446   2.942   2.511  15.164  2.4648 -1.3917  0.5511
14011TIP3   OH263447   4.759   5.064  15.576 -0.1495  0.5929 -0.2208
14011TIP3    H163448   4.720   5.116  15.646  0.0694 -0.9943  1.1457
14011TIP3    H263449   4.809   4.996  15.622  0.6406 -0.0375 -1.9286
14012TIP3   OH263450   6.659   6.089  12.094  0.5712 -0.0581 -0.3770
14012TIP3    H163451   6.577   6.104  12.141  0.3162 -1.2001 -0.4316
14012TIP3    H263452   6.708   6.171  12.103 -0.4013  0.4902  0.0021
14013TIP3   OH263453   0.565   4.406  15.635  0.3789  0.3427  0.1410
14013TIP3    H163454   0.657   4.415  15.660  0.5243  0.6022 -0.4620
14013TIP3    H263455   0.517   4.445  15.707  0.7928  1.2314 -0.0489
14014TIP3   OH263456   1.590   4.634  16.042  0.8496 -0.2250  0.6890
14014TIP3    H163457   1.523   4.657  15.977  0.7934 -0.6053  0.6081
14014TIP3    H263458   1.624   4.718  16.072 -1.8627  0.1982  3.1041
14015TIP3   OH263459   0.610   1.707   5.664  0.2242  0.6784 -0.2660
14015TIP3    H163460   0.585   1.774   5.601  1.2275  0.6870 -0.6722
14015TIP3    H263461   0.532   1.651   5.671 -0.1694  1.1279 -0.9143
14016TIP3   OH263462   1.819   5.947   5.171  0.4917  0.7808 -0.3968
14016TIP3    H163463   1.810   5.860   5.209 -0.7728  1.0060 -0.1325
14016TIP3    H263464   1.821   6.006   5.246  1.3834  0.9982 -0.5727
14017TIP3   OH263465   2.179   0.395   6.102  0.0373  0.3922  0.1684
14017TIP3    H163466   2.109   0.382   6.038 -1.9174 -1.4749  2.5063
14017TIP3    H263467   2.193   0.490   6.102 -2.5213  0.8551 -0.3984
14018TIP3   OH263468   2.032   0.527  16.172  0.1889  0.2114 -0.6358
14018TIP3    H163469   2.006   0.543  16.081 -0.7448  0.0699 -0.4018
14018TIP3    H263470   1.972   0.581  16.223  1.9959  1.8899 -0.1609
14019TIP3   OH263471   4.815   6.543  12.824  0.9759  0.1235 -0.3858
14019TIP3    H163472   4.748   6.597  12.783  0.0911 -1.0746 -0.5619
14019TIP3    H263473   4.863   6.504  12.751 -0.6425 -2.0620 -0.4108
14020TIP3   OH263474   1.539   0.767   3.093  0.5003 -0.7992  0.5982
14020TIP3    H163475   1.479   0.777   3.167 -0.5020 -1.3185 -0.1075
14020TIP3    H263476   1.485   0.726   3.025  1.3864 -0.3166 -0.4203
14021TIP3   OH263477   4.458   6.388  10.908  0.7833  0.6126  0.3083
14021TIP3    H163478   4.511   6.438  10.846 -0.6403  1.9432  0.1062
14021TIP3    H263479   4.455   6.300  10.871  4.0392  0.0394  1.1105
14022TIP3   OH263480   6.086   0.196  16.954  0.3480  0.0157  0.2572
14022TIP3    H163481   6.145   0.210  17.028  0.5228  0.2685  0.0745
14022TIP3    H263482   6.077   0.283  16.914 -0.6303  0.0943  0.6441
14023TIP3   OH263483   4.348   6.128   3.296 -0.3271 -0.2131 -0.5510
14023TIP3    H163484   4.293   6.090   3.227 -0.4899 -1.4267  0.2124
14023TIP3    H263485   4.414   6.061   3.313 -0.5474 -0.1093  0.7641
14024TIP3   OH263486   6.406   1.694  13.604  0.2293  0.1423 -0.5924
14024TIP3    H163487   6.360   1.645  13.536  1.9752 -0.2668 -1.5327
14024TIP3    H263488   6.359   1.778  13.609 -0.6261 -0.2625 -1.4775
14025TIP3   OH263489   6.223   2.002  16.311 -0.0783  0.3487  0.5699
14025TIP3    H163490   6.310   1.992  16.348  0.9432  0.3321 -1.6840
14025TIP3    H263491   6.164   1.966  16.378  1.7142 -0.6591  1.6762
14026TIP3   OH263492   6.440   1.856   6.504  0.2385  0.4112  0.2160
14026TIP3    H163493   6.433   1.894   6.416  0.6214 -0.2193 -0.0886
14026TIP3    H263494   6.349   1.854   6.536  0.2776  2.5341  0.6737
14027TIP3   OH263495   0.140   0.383  14.896  0.5320 -0.0651 -0.1725
14027TIP3    H163496   0.196   0.339  14.831 -0.9891 -0.9532 -0.9437
14027TIP3    H263497   0.115   0.465  14.854  1.0648  0.2288  0.0794
14028TIP3   OH263498   3.690   0.101  16.807 -0.0029  0.0349  0.0828
14028TIP3    H163499   3.597   0.098  16.832 -0.3154 -1.0857 -1.1321
14028TIP3    H263500   3.733   0.143  16.882 -1.3787 -0.1253  1.0042
14029TIP3   OH263501   1.903   0.090   4.744  0.2763  0.1664 -0.8064
14029TIP3    H163502   1.984   0.102   4.793 -0.9931 -0.9588  1.7441
14029TIP3    H263503   1.931   0.076   4.653  2.7983  1.3604 -0.2874
14030TIP3   OH263504   4.439   1.140   3.452 -0.5710 -0.7794  0.7822
14030TIP3    H163505   4.515   1.093   3.487 -1.1244 -1.8455  0.5942
14030TIP3    H263506   4.444   1.126   3.358 -0.0100  0.6757  0.5841
14031TIP3   OH263507   0.008   2.831   3.460 -0.2106  0.2330 -0.7600
14031TIP3    H163508   0.049   2.918   3.466 -0.1328  0.1464  0.1644
14031TIP3    H263509   0.073   2.771   3.497 -0.4332 -0.1668 -1.0091
14032TIP3   OH263510   4.977   4.343  17.069 -0.1529  0.7580  0.1745
14032TIP3    H163511   5.011   4.426  17.101 -0.0195  0.5597  0.5550
14032TIP3    H263512   5.025   4.327  16.987 -0.3336  1.1559 -0.0105
14033TIP3   OH263513   3.019   2.493   1.123  0.2258 -0.2152  0.1721
14033TIP3    H163514   3.053   2.517   1.209  1.1628  0.9218 -0.4749
14033TIP3    H263515   3.097   2.480   1.069 -0.3111 -2.7142 -0.0859
14034TIP3   OH263516   3.776   4.454  13.225 -0.5468 -0.4445  0.4568
14034TIP3    H163517   3.704   4.515  13.207  0.2423  0.2934 -0.3145
14034TIP3    H263518   3.794   4.465  13.318  0.6809  1.8135  0.0323
14035TIP3   OH263519   5.838   5.635   0.551  0.3254  0.0936 -0.1589
14035TIP3    H163520   5.878   5.657   0.636  0.4272 -0.4930 -0.0501
14035TIP3    H263521   5.897   5.675   0.487 -0.2735  1.3797  0.0578
14036TIP3   OH263522   5.986   5.901  11.367  0.5539  0.5228 -0.3826
14036TIP3    H163523   5.951   5.989  11.351 -0.1455  0.1020 -1.1738
14036TIP3    H263524   6.048   5.914  11.440 -0.4395  1.4536  0.3315
14037TIP3   OH263525   0.171   1.238  14.543 -0.3732  0.2967 -0.1505
14037TIP3    H163526   0.257   1.221  14.582  0.5029 -0.4048 -2.2509
14037TIP3    H263527   0.151   1.159  14.493 -2.1093  0.5874  0.0211
14038TIP3   OH263528   3.857   2.190  11.432 -0.2922 -0.1018 -0.1785
14038TIP3    H163529   3.932   2.166  11.485 -1.6960 -0.2505  1.8251
14038TIP3    H263530   3.879   2.160  11.344  1.5968 -0.9364  0.5409
14039TIP3   OH263531   3.589   3.584   5.197  0.2349  0.7001  0.2677
14039TIP3    H163532   3.528   3.528   5.245  0.1197  0.1191 -0.5488
14039TIP3    H263533   3.654   3.608   5.263  0.8962 -1.2670  0.4073
14040TIP3   OH263534   0.849   3.398  14.887 -0.0607 -0.1587 -0.5877
14040TIP3    H163535   0.862   3.407  14.981 -2.0411 -0.1652 -0.2699
14040TIP3    H263536   0.900   3.470  14.849  1.0977 -0.4124  0.4423
14041TIP3   OH263537   4.069   5.134   2.844  0.0478 -0.4663 -0.3038
14041TIP3    H163538   3.983   5.159   2.878  0.3289 -0.2076  0.2207
14041TIP3    H263539   4.131   5.175   2.903  0.6293  2.0009 -2.4416
14042TIP3   OH263540   5.409   5.584   1.415 -0.6638 -0.1187  0.1934
14042TIP3    H163541   5.482   5.646   1.419 -1.5688  1.3017 -2.4415
14042TIP3    H263542   5.390   5.563   1.507  3.4022 -1.1431  1.0079
14043TIP3   OH263543   4.937   6.657  11.199  0.0162  0.1334  0.4565
14043TIP3    H163544   4.932   6.611  11.282 -0.0183  1.6356  1.3215
14043TIP3    H263545   4.918   6.748  11.221  0.2957  0.6114 -1.1560
14044TIP3   OH263546   1.731   6.588  12.403 -0.0056  0.2202 -0.4482
14044TIP3    H163547   1.765   6.664  12.449  1.2114 -1.1823  1.0975
14044TIP3    H263548   1.637   6.604  12.394 -0.2772  0.6651  2.4048
14045TIP3   OH263549   0.854   2.476  12.047 -0.0118  0.2712  0.0187
14045TIP3    H163550   0.787   2.527  12.091  0.8768 -0.6049  2.6148
14045TIP3    H263551   0.937   2.510  12.081  0.6614 -1.6021  0.4029
14046TIP3   OH263552   6.562   1.690   6.177 -0.1098  0.2230  0.1496
14046TIP3    H163553   6.556   1.596   6.195 -1.0955  0.3459  0.5092
14046TIP3    H263554   6.475   1.715   6.147  0.4213  0.8278 -0.9737
14047TIP3   OH263555   0.755   0.108   5.424 -0.5083  0.7467 -0.2325
14047TIP3    H163556   0.665   0.111   5.458 -0.1222  0.8606  0.8190
14047TIP3    H263557   0.770   0.016   5.403  0.2698  0.0560  2.8825
14048TIP3   OH263558   1.516   1.250   3.731  0.7168 -0.1605 -0.3364
14048TIP3    H163559   1.492   1.247   3.824  0.3919 -0.5076 -0.4291
14048TIP3    H263560   1.472   1.174   3.693  0.2396  0.4036 -0.9257
14049TIP3   OH263561   4.539   3.241   4.833 -0.3155 -0.2229 -0.1238
14049TIP3    H163562   4.507   3.243   4.923 -0.3017 -0.7601 -0.1034
14049TIP3    H263563   4.536   3.332   4.804 -2.6738 -0.3472 -0.4206
14050TIP3   OH263564   4.280   1.432  13.027 -0.1974 -0.3416 -0.8218
14050TIP3    H163565   4.329   1.453  13.107 -2.6189 -1.3503  1.0848
14050TIP3    H263566   4.274   1.515  12.980 -0.1148  0.7127  0.9206
14051TIP3   OH263567   2.092   3.660  16.712 -0.4101 -0.0226  0.2175
14051TIP3    H163568   2.016   3.625  16.760  0.2693  0.4929  1.7203
14051TIP3    H263569   2.055   3.724  16.652 -1.2292 -0.1994  0.5177
14052TIP3   OH263570   6.470   2.646  12.707 -0.0329 -0.3430 -0.3260
14052TIP3    H163571   6.526   2.694  12.768  0.3059  1.6991 -2.0877
14052TIP3    H263572   6.401   2.610  12.761  1.1501 -0.0679  1.4668
14053TIP3   OH263573   3.370   2.782  11.848  0.1508  0.3595  0.4165
14053TIP3    H163574   3.408   2.816  11.929  0.6991 -1.3061  0.8860
14053TIP3    H263575   3.336   2.696  11.871  0.0538 -0.0171 -1.0555
14054TIP3   OH263576   1.092   1.196  13.616 -0.4471 -0.6913  0.0387
14054TIP3    H163577   1.028   1.251  13.661  2.3810  2.5246  0.6142
14054TIP3    H263578   1.054   1.178  13.531 -3.4741 -1.9359  1.5169
14055TIP3   OH263579   5.614   6.471  12.859 -0.1802  0.5237  0.2132
14055TIP3    H163580   5.630   6.553  12.812  0.8197  0.7362  0.8837
14055TIP3    H263581   5.519   6.469  12.872 -0.5941  0.0684 -2.4389
14056TIP3   OH263582   6.511   5.838  11.326  0.5302  0.4900  0.3421
14056TIP3    H163583   6.517   5.743  11.328  1.4207  0.5479  0.5219
14056TIP3    H263584   6.518   5.860  11.233  1.2550  0.4366  0.3830
14057TIP3   OH263585   5.173   0.143  14.838 -0.1353  0.0101 -0.2160
14057TIP3    H163586   5.203   0.126  14.748 -0.7688  0.5011 -0.5273
14057TIP3    H263587   5.216   0.225  14.862  2.0052 -1.3337  0.8665
14058TIP3   OH263588   5.001   1.344   6.876  0.1186 -0.2417  0.0933
14058TIP3    H163589   5.085   1.380   6.905  0.1698  0.8922 -1.3357
14058TIP3    H263590   4.960   1.416   6.829 -1.1142 -1.1833 -0.3035
14059TIP3   OH263591   1.619   5.855   6.598 -0.3655  0.1131 -0.4579
14059TIP3    H163592   1.668   5.840   6.679  0.9605  0.4281 -1.1622
14059TIP3    H263593   1.615   5.950   6.589 -1.5944  0.1008 -0.1457
14060TIP3   OH263594   3.576   4.994   1.615  0.2588 -0.1142 -0.0537
14060TIP3    H163595   3.582   4.904   1.648  0.2867  0.7552  2.5312
14060TIP3    H263596   3.482   5.014   1.617  0.4589  0.9602  2.7005
14061TIP3   OH263597   2.262   3.373   0.862 -0.1944  0.1840  0.0214
14061TIP3    H163598   2.241   3.289   0.902  0.5026 -2.0774 -3.8745
14061TIP3    H263599   2.336   3.406   0.913 -0.5427 -1.4971  1.7090
14062TIP3   OH263600   5.662   1.106  13.046  0.6209 -0.1503  0.2966
14062TIP3    H163601   5.648   1.051  12.969  0.4321  1.0038 -0.5214
14062TIP3    H263602   5.757   1.110  13.057  0.9484  2.8306 -2.3162
14063TIP3   OH263603   2.358   5.412   5.555 -0.2296 -0.2295 -0.2440
14063TIP3    H163604   2.301   5.476   5.596 -0.3437 -0.0418 -0.6911
14063TIP3    H263605   2.370   5.344   5.621 -0.5904 -0.0388  0.0156
14064TIP3   OH263606   5.671   0.666  12.115 -0.2697 -0.0933 -0.1303
14064TIP3    H163607   5.669   0.760  12.100  0.3789  0.0853  0.8298
14064TIP3    H263608   5.719   0.630  12.041 -1.0400  0.2492 -0.8171
14065TIP3   OH263609   2.085   4.986  15.422  0.0065 -0.0025 -0.5819
14065TIP3    H163610   2.057   4.900  15.455  2.9576 -0.6602  0.5049
14065TIP3    H263611   2.118   5.031  15.500  0.0643  1.4692 -1.4313
14066TIP3   OH263612   4.408   1.436  15.531  0.3685 -0.1421 -0.2853
14066TIP3    H163613   4.460   1.512  15.506  2.3405 -1.7556 -1.3561
14066TIP3    H263614   4.321   1.454  15.495  1.0061  1.2444 -1.2338
14067TIP3   OH263615   6.601   5.096  16.216  0.1419  0.3823  0.3801
14067TIP3    H163616   6.670   5.129  16.158  0.5944 -0.7693  0.2325
14067TIP3    H263617   6.647   5.072  16.296  0.2899 -2.2608 -0.4175
14068TIP3   OH263618   5.965   2.039  12.173  0.0938  0.0627  0.5217
14068TIP3    H163619   6.035   2.104  12.184 -0.4715  1.0170 -1.0825
14068TIP3    H263620   5.989   1.967  12.231  2.6031  0.2089 -0.2054
14069TIP3   OH263621   5.146   0.333   2.043 -0.2403  0.7767  0.5824
14069TIP3    H163622   5.090   0.329   1.965 -1.3554 -0.2043  1.3856
14069TIP3    H263623   5.100   0.394   2.102  0.3246  1.1129  0.6850
14070TIP3   OH263624   1.521   0.230  13.257 -0.5121 -0.0385  0.3318
14070TIP3    H163625   1.438   0.275  13.243  0.4025  1.1503 -1.9462
14070TIP3    H263626   1.582   0.300  13.284 -0.1704 -0.8540  1.7938
14071TIP3   OH263627   5.001   6.742   5.610 -0.2861 -0.1807  0.4170
14071TIP3    H163628   5.062   6.693   5.663  2.6581  1.3733 -1.2532
14071TIP3    H263629   4.985   6.686   5.534  0.5366  0.1182  0.0125
14072TIP3   OH263630   1.520   1.468   5.678  0.1630 -0.5576  0.5063
14072TIP3    H163631   1.593   1.470   5.739  2.0479  0.1279 -1.6376
14072TIP3    H263632   1.560   1.453   5.592 -2.1905 -0.0138 -0.7975
14073TIP3   OH263633   0.520   1.740   1.508  0.1313 -0.1606 -0.2862
14073TIP3    H163634   0.578   1.677   1.465  0.6284  0.6184 -0.7807
14073TIP3    H263635   0.548   1.739   1.600  0.8578  0.1218 -0.4974
14074TIP3   OH263636   2.426   3.298   5.027  0.2592 -0.6915  0.5441
14074TIP3    H163637   2.424   3.336   4.940  3.2121 -0.0125  0.6455
14074TIP3    H263638   2.389   3.210   5.017 -1.1220  0.0222 -0.9604
14075TIP3   OH263639   3.596   6.233   4.393  0.0978  0.1222 -0.3777
14075TIP3    H163640   3.691   6.221   4.405 -0.1256 -0.7990  0.5928
14075TIP3    H263641   3.557   6.200   4.474 -1.1084 -0.3211 -1.1110
14076TIP3   OH263642   5.654   2.938  14.481  0.2325 -0.4886 -0.0166
14076TIP3    H163643   5.644   3.029  14.511  1.5536  0.1506 -1.3650
14076TIP3    H263644   5.689   2.892  14.557  0.6336  0.4017  0.3617
14077TIP3   OH263645   2.592   1.870   3.013 -0.3596  0.1187 -0.0410
14077TIP3    H163646   2.513   1.831   3.051 -0.6209  0.5471 -0.1358
14077TIP3    H263647   2.599   1.831   2.926  0.5475 -1.2827  0.6319
14078TIP3   OH263648   3.381   2.894  14.000 -0.6119  0.1642 -0.0284
14078TIP3    H163649   3.449   2.872  14.063 -1.4274 -0.3115  0.7026
14078TIP3    H263650   3.358   2.810  13.960 -0.7336  0.3314 -0.3139
14079TIP3   OH263651   0.710   3.247  14.737  0.2497 -0.9376 -0.3777
14079TIP3    H163652   0.748   3.321  14.785  0.2625 -0.3148 -1.3175
14079TIP3    H263653   0.616   3.252  14.755  0.1367 -0.1577 -1.1259
14080TIP3   OH263654   1.645   4.517  13.342  0.8840 -0.0727  0.3786
14080TIP3    H163655   1.597   4.464  13.406 -0.2731  1.2001  0.6113
14080TIP3    H263656   1.595   4.508  13.261 -0.0997  1.6577  0.7462
14081TIP3   OH263657   5.919   4.843   2.858 -0.5410 -0.2241  0.2365
14081TIP3    H163658   5.875   4.859   2.942  0.5716  1.5208  0.5280
14081TIP3    H263659   5.982   4.773   2.877  0.6993  1.1030  1.2802
14082TIP3   OH263660   0.457   3.785  15.680 -0.4963 -0.5715 -0.0606
14082TIP3    H163661   0.383   3.788  15.618 -0.9391 -0.9767  0.4378
14082TIP3    H263662   0.423   3.828  15.758  0.4132  0.9117 -0.4487
14083TIP3   OH263663   3.679   4.783  15.501  0.0773 -0.4702  0.8165
14083TIP3    H163664   3.596   4.790  15.547  0.3988  1.1363  1.2212
14083TIP3    H263665   3.745   4.784  15.570  0.4604 -1.6126  0.4925
14084TIP3   OH263666   2.792   5.416   2.306 -0.5339  0.2878  0.3657
14084TIP3    H163667   2.728   5.403   2.236  0.7173 -0.4487 -0.6669
14084TIP3    H263668   2.750   5.480   2.364 -1.1042  1.8670 -1.6768
14085TIP3   OH263669   5.569   5.627   4.275  0.2808  0.2936 -0.3851
14085TIP3    H163670   5.586   5.546   4.323 -1.1371 -1.6430 -2.8631
14085TIP3    H263671   5.649   5.642   4.224  0.3597  0.1554 -0.3013
14086TIP3   OH263672   0.347   1.854   4.784 -0.1970  0.4133 -0.4046
14086TIP3    H163673   0.264   1.858   4.738  0.7359  0.2513 -2.1665
14086TIP3    H263674   0.390   1.937   4.763 -0.0943  0.7291  0.9266
14087TIP3   OH263675   0.542   2.437  12.095 -1.1375 -0.1034  0.4550
14087TIP3    H163676   0.592   2.362  12.127  0.4675  0.9652  0.5313
14087TIP3    H263677   0.465   2.440  12.153 -0.1478 -0.4192  1.8443
14088TIP3   OH263678   6.465   2.941   5.559 -0.0936  0.2472  0.2126
14088TIP3    H163679   6.429   2.880   5.624 -0.1577  0.9211  0.8294
14088TIP3    H263680   6.499   2.885   5.489 -1.1797 -0.4530  0.2191
14089TIP3   OH263681   5.230   0.021   3.231  0.3339  0.3487  0.0960
14089TIP3    H163682   5.146   0.038   3.275  0.2375 -0.7230  0.3483
14089TIP3    H263683   5.263   0.108   3.208 -1.6479  0.7387 -1.5430
14090TIP3   OH263684   1.838   2.287   3.080  0.3256 -0.1757 -0.0288
14090TIP3    H163685   1.860   2.298   3.173 -3.5918 -0.6129  1.1067
14090TIP3    H263686   1.845   2.193   3.065  0.4969 -0.1593 -0.0560
14091TIP3   OH263687   2.392   4.552   5.735  0.5765  0.3587  0.0369
14091TIP3    H163688   2.376   4.645   5.719 -1.2621 -0.2639 -2.2864
14091TIP3    H263689   2.487   4.545   5.745  0.7245  2.4949  0.7176
14092TIP3   OH263690   3.182   2.067   0.144  0.3319 -0.2775 -0.3410
14092TIP3    H163691   3.089   2.057   0.125  0.2986  1.3605 -1.2677
14092TIP3    H263692   3.200   2.159   0.127  2.0269 -0.4523  0.3115
14093TIP3   OH263693   6.000   4.068   4.479 -0.4731 -0.3929  0.1068
14093TIP3    H163694   5.953   4.009   4.538 -0.3841 -1.2065 -0.6234
14093TIP3    H263695   6.077   4.095   4.529 -1.3408  0.3929  1.0462
14094TIP3   OH263696   4.185   0.014   3.403 -0.6096 -0.5015 -0.0923
14094TIP3    H163697   4.226  -0.056   3.352  0.1142  0.0528 -0.2920
14094TIP3    H263698   4.116  -0.030   3.452 -1.4248 -1.0343 -1.6404
14095TIP3   OH263699   2.891   5.366   1.901 -0.5984 -0.6715  0.0526
14095TIP3    H163700   2.906   5.459   1.917  0.2510 -0.2226 -2.8372
14095TIP3    H263701   2.906   5.325   1.986 -1.6297  1.8528  1.5702
14096TIP3   OH263702   0.783   6.397   5.463 -0.0618  0.4111 -0.1927
14096TIP3    H163703   0.705   6.392   5.518 -0.8419 -0.2530 -1.3162
14096TIP3    H263704   0.852   6.427   5.522 -1.2745  1.5322  0.7174
14097TIP3   OH263705   5.285   6.487  10.483  0.3471 -0.5217  0.7741
14097TIP3    H163706   5.208   6.511  10.535 -0.1160 -0.0584 -0.1103
14097TIP3    H263707   5.349   6.555  10.502 -0.4075  0.5879 -0.5162
14098TIP3   OH263708   0.986   5.400   3.537 -0.0623  0.2939  0.4080
14098TIP3    H163709   0.934   5.333   3.493 -0.5133  1.4638 -0.9091
14098TIP3    H263710   1.060   5.352   3.574 -0.8732 -1.0654  0.3332
14099TIP3   OH263711   2.888   5.771   0.262 -0.2968  0.0170  0.5092
14099TIP3    H163712   2.837   5.727   0.330 -2.5283  2.5559  0.6414
14099TIP3    H263713   2.860   5.730   0.180  0.6077 -1.4030  0.8787
14100TIP3   OH263714   0.109   3.977  13.001 -0.7620 -0.3063 -0.1358
14100TIP3    H163715   0.078   4.067  12.991 -2.9998 -0.9454  0.4807
14100TIP3    H263716   0.191   3.985  13.050 -0.1485  1.4657 -1.3652
14101TIP3   OH263717   5.402   1.015  10.581  0.0133  0.2109  0.2919
14101TIP3    H163718   5.333   1.069  10.620  0.4040 -0.6740  2.3080
14101TIP3    H263719   5.359   0.969  10.509 -0.7594  1.8026 -0.3202
14102TIP3   OH263720   6.304   0.584  11.446 -1.0322  0.5975  0.5979
14102TIP3    H163721   6.361   0.582  11.369 -3.4219 -0.3373 -1.2895
14102TIP3    H263722   6.268   0.672  11.447 -0.7429  0.7133  0.8550
14103TIP3   OH263723   4.038   4.469   3.454  0.1832 -0.0499 -0.1376
14103TIP3    H163724   4.126   4.483   3.421  0.2130 -0.4191 -0.2150
14103TIP3    H263725   4.049   4.462   3.549  0.0619  1.2922 -0.0067
14104TIP3   OH263726   5.114   3.079   5.095  0.2446  1.0030 -0.0294
14104TIP3    H163727   5.152   3.151   5.045  0.4908  2.1023  1.6632
14104TIP3    H263728   5.190   3.034   5.133  0.1772 -1.0087 -2.1245
14105TIP3   OH263729   6.180   5.169   5.110 -0.4739  0.1439  0.5167
14105TIP3    H163730   6.275   5.168   5.102 -0.5991  0.9430 -2.0039
14105TIP3    H263731   6.155   5.078   5.123  0.6509  0.0474  2.2945
14106TIP3   OH263732   2.147   2.681   0.206 -0.1323  0.8455 -0.2869
14106TIP3    H163733   2.127   2.771   0.179 -0.7416  0.4119 -1.3370
14106TIP3    H263734   2.138   2.630   0.126  0.7288 -0.0791  0.1895
14107TIP3   OH263735   2.670   4.755   3.114 -0.3258 -0.4603 -0.6393
14107TIP3    H163736   2.699   4.664   3.120 -0.9142 -0.5693  0.9688
14107TIP3    H263737   2.596   4.752   3.053 -0.4408 -1.0837 -0.4793
14108TIP3   OH263738   0.493   3.639  12.270  0.2741 -0.0366 -0.5320
14108TIP3    H163739   0.411   3.606  12.232 -1.1504  1.5611  0.9959
14108TIP3    H263740   0.530   3.563  12.315  0.9819 -1.4407 -3.2161
14109TIP3   OH263741   4.241   2.392  17.341  0.0326  0.0308 -0.3921
14109TIP3    H163742   4.256   2.309  17.296  1.5018  0.0078  0.0619
14109TIP3    H263743   4.263   2.374  17.433  0.7925  0.9957 -0.3575
14110TIP3   OH263744   5.561   3.067   4.658  0.4329 -0.1524  0.8389
14110TIP3    H163745   5.543   2.977   4.633  0.6589  0.2609 -0.9113
14110TIP3    H263746   5.523   3.075   4.746 -0.0211 -1.7949  0.8269
14111TIP3   OH263747   4.784   5.405   1.035  0.2126 -0.6575 -0.0983
14111TIP3    H163748   4.756   5.401   0.944 -1.2491 -1.9618  0.3726
14111TIP3    H263749   4.832   5.323   1.049  0.5522 -0.4033  0.2700
14112TIP3   OH263750   0.175   0.838  14.043  0.4392 -0.3390  0.0634
14112TIP3    H163751   0.180   0.894  13.966  0.4148 -0.0156  0.2961
14112TIP3    H263752   0.148   0.753  14.009 -1.8972  0.3786 -0.0241
14113TIP3   OH263753   1.855   6.358   3.691  0.3215 -0.1683 -0.3046
14113TIP3    H163754   1.847   6.263   3.697 -1.6593  0.0258  0.7583
14113TIP3    H263755   1.844   6.389   3.780 -1.3165  1.1690 -0.9149
14114TIP3   OH263756   5.718   0.986   0.325  0.9319 -0.4063 -0.0387
14114TIP3    H163757   5.724   0.925   0.250  0.3081  1.2326 -1.4965
14114TIP3    H263758   5.669   1.060   0.291 -0.5165 -0.1397  2.4128
14115TIP3   OH263759   4.208   5.293   2.608  0.3579 -0.2760 -0.2443
14115TIP3    H163760   4.174   5.265   2.693 -0.0151  0.7013 -0.0619
14115TIP3    H263761   4.299   5.262   2.607  0.2293 -0.6742  0.3277
14116TIP3   OH263762   0.451   4.551  15.109 -0.0693 -0.4452 -0.0963
14116TIP3    H163763   0.480   4.469  15.069  1.0601 -0.6019  0.9884
14116TIP3    H263764   0.394   4.524  15.181 -1.6906 -0.1799 -1.2399
14117TIP3   OH263765   6.075   2.890  14.181 -0.2186 -0.4183  0.0329
14117TIP3    H163766   6.139   2.864  14.247  0.9439 -2.1875 -1.6606
14117TIP3    H263767   6.083   2.823  14.113 -2.7463  0.2243 -1.0001
14118TIP3   OH263768   6.456   1.846   5.713 -0.3623  0.5542  0.4539
14118TIP3    H163769   6.398   1.865   5.786 -0.1585  1.9596  0.2917
14118TIP3    H263770   6.544   1.860   5.748 -0.1707 -0.4399  0.3907
14119TIP3   OH263771   5.018   6.110  17.128  0.2117  0.0904 -0.3968
14119TIP3    H163772   5.036   6.073  17.215 -1.0626  1.6182  0.5929
14119TIP3    H263773   5.003   6.034  17.072  0.2437 -0.9275  0.9200
14120TIP3   OH263774   2.729   0.463  16.703  0.1473 -0.4055  0.1209
14120TIP3    H163775   2.657   0.494  16.648 -1.9147 -1.4805  2.0294
14120TIP3    H263776   2.806   0.466  16.647 -1.1218  1.9716 -1.6631
14121TIP3   OH263777   2.715   1.123  10.878 -0.7330  0.1139 -0.1870
14121TIP3    H163778   2.751   1.035  10.868  1.6883  1.0636 -0.6526
14121TIP3    H263779   2.726   1.143  10.971 -0.9868  0.0498 -0.1426
14122TIP3   OH263780   5.963   3.450  16.383  0.1679  0.2940  0.2463
14122TIP3    H163781   6.008   3.476  16.463 -0.1979  0.5849  0.3599
14122TIP3    H263782   5.893   3.392  16.412 -0.0435  0.5011  0.1507
14123TIP3   OH263783   3.258   4.434  11.344  0.5689 -0.3242 -0.0200
14123TIP3    H163784   3.316   4.447  11.268  1.0572 -0.5984  0.2979
14123TIP3    H263785   3.251   4.339  11.353  0.7959 -0.3007  0.4770
14124TIP3   OH263786   5.282   1.559  16.694 -0.3834 -0.0440 -0.1191
14124TIP3    H163787   5.351   1.502  16.661 -1.8113 -1.3478 -0.9880
14124TIP3    H263788   5.270   1.624  16.624  1.1080  1.2710  0.7875
14125TIP3   OH263789   5.540   4.641   5.898 -0.5552 -0.3977 -0.1138
14125TIP3    H163790   5.504   4.639   5.810 -0.6525 -1.6856 -0.0628
14125TIP3    H263791   5.498   4.717   5.940 -1.6634 -0.6814 -0.6912
14126TIP3   OH263792   0.573   3.908   3.613 -0.3307 -0.5843 -0.4500
14126TIP3    H163793   0.658   3.914   3.570  1.2224 -1.4157  2.2637
14126TIP3    H263794   0.533   3.829   3.575  0.9522 -1.2769 -0.4291
14127TIP3   OH263795   5.484   0.565   5.323 -0.0263 -0.1279 -0.3720
14127TIP3    H163796   5.414   0.524   5.271  0.5762 -1.1844 -0.3840
14127TIP3    H263797   5.513   0.496   5.382 -1.3567  1.3278  2.1229
14128TIP3   OH263798   6.749   3.183   0.230 -0.1008 -0.7517 -0.3583
14128TIP3    H163799   6.827   3.221   0.271 -1.0405  0.8649  0.0382
14128TIP3    H263800   6.694   3.156   0.304 -2.3725  3.3339 -0.2658
14129TIP3   OH263801   3.113   2.645   4.949 -0.2799 -0.5358  0.3275
14129TIP3    H163802   3.203   2.614   4.937  0.3579 -0.3904  3.8049
14129TIP3    H263803   3.123   2.734   4.983 -1.8857  0.3924 -1.4528
14130TIP3   OH263804   2.656   4.231   5.582  0.3142  0.2777  0.2566
14130TIP3    H163805   2.708   4.170   5.635  0.2381 -1.3443 -1.4444
14130TIP3    H263806   2.714   4.257   5.511 -0.2062  0.9191  0.0542
14131TIP3   OH263807   3.757   6.244   2.049  0.4404 -0.3766  0.7456
14131TIP3    H163808   3.787   6.296   1.974  1.6457  0.3834  1.7145
14131TIP3    H263809   3.688   6.189   2.013  0.7487  0.2063 -0.8543
14132TIP3   OH263810   4.150   1.827  12.818 -0.3731  0.0555  0.2093
14132TIP3    H163811   4.158   1.865  12.731  1.2732 -0.2552  0.1997
14132TIP3    H263812   4.058   1.800  12.824 -0.4922  0.0053 -1.4587
14133TIP3   OH263813   0.780   5.521  11.322 -1.2018 -0.3693  0.0139
14133TIP3    H163814   0.794   5.571  11.242 -1.1802  2.5066  1.6740
14133TIP3    H263815   0.687   5.499  11.321 -1.3056  0.0750 -0.5693
14134TIP3   OH263816   6.096   3.708   4.809  0.2195 -0.5318  0.4603
14134TIP3    H163817   6.018   3.652   4.808 -1.1801  1.2782 -1.2481
14134TIP3    H263818   6.084   3.766   4.884  0.1362 -0.5591  0.4681
14135TIP3   OH263819   3.632   5.941   4.370 -0.5749 -0.4914 -0.0051
14135TIP3    H163820   3.711   5.994   4.357  0.4351 -1.7041  0.9703
14135TIP3    H263821   3.593   5.976   4.450 -1.5488  0.7036 -0.9778
14136TIP3   OH263822   5.694   1.773  14.996 -0.0863 -0.0643  0.0647
14136TIP3    H163823   5.786   1.762  15.020 -0.3703 -0.5277  1.0008
14136TIP3    H263824   5.657   1.824  15.068 -0.3155  1.1217 -0.8739
14137TIP3   OH263825   2.032   4.342  16.292  0.5255  0.3398  0.5925
14137TIP3    H163826   1.987   4.276  16.239  0.8683 -0.2085  0.9810
14137TIP3    H263827   2.068   4.403  16.228  0.9880 -0.3493  0.1875
14138TIP3   OH263828   4.743   6.467  11.855  0.9949  0.0907 -0.0067
14138TIP3    H163829   4.795   6.394  11.822 -0.5461  0.2915 -3.1993
14138TIP3    H263830   4.665   6.427  11.893  0.6942  0.0017 -0.7054
14139TIP3   OH263831   0.079   4.760  13.327 -0.2240 -0.1575 -0.1814
14139TIP3    H163832   0.079   4.854  13.342 -0.9756 -0.1965  0.0773
14139TIP3    H263833   0.120   4.749  13.241  0.1190  0.3767 -0.0897
14140TIP3   OH263834   0.958   2.234  15.608 -0.6401 -0.4318  0.2942
14140TIP3    H163835   1.052   2.244  15.624 -0.3759 -2.6801  0.5059
14140TIP3    H263836   0.920   2.220  15.695 -0.9572 -0.8578  0.0911
14141TIP3   OH263837   0.145   3.956  15.943 -0.2564  0.0435 -0.8083
14141TIP3    H163838   0.090   4.034  15.939  0.3003  0.5078  0.2207
14141TIP3    H263839   0.095   3.895  15.997  0.7016  0.9008  1.1512
14142TIP3   OH263840   4.322   5.784  13.152  0.0632 -0.3549 -0.1580
14142TIP3    H163841   4.341   5.757  13.242 -0.9723 -1.0531 -0.1229
14142TIP3    H263842   4.273   5.866  13.161 -1.5751 -1.3025  0.0416
14143TIP3   OH263843   4.110   4.926   6.563 -0.4044 -0.4724 -0.2417
14143TIP3    H163844   4.124   4.876   6.643  1.5077  1.0566  0.4482
14143TIP3    H263845   4.105   5.017   6.592 -0.8881  0.0232 -1.7607
14144TIP3   OH263846   6.401   3.738  14.839 -0.2138  0.1854  0.1940
14144TIP3    H163847   6.392   3.811  14.901 -2.9667  0.3289 -0.2810
14144TIP3    H263848   6.326   3.682  14.855  0.8342 -1.5939 -0.7544
14145TIP3   OH263849   2.771   2.921   3.210  0.2472  0.5703 -0.5373
14145TIP3    H163850   2.711   2.961   3.147  0.4698  1.4543 -0.2093
14145TIP3    H263851   2.752   2.827   3.206 -2.0551  0.9312  0.4722
14146TIP3   OH263852   0.051   1.023   3.632 -0.6550  0.2103  0.4309
14146TIP3    H163853   0.106   0.959   3.587 -1.2424  0.5538 -0.8184
14146TIP3    H263854  -0.032   0.977   3.647 -1.1183  0.7044 -0.5760
14147TIP3   OH263855   5.351   1.890   1.803 -0.3976 -0.0637  0.3895
14147TIP3    H163856   5.393   1.972   1.830 -0.0468  0.2562 -1.0737
14147TIP3    H263857   5.292   1.915   1.732 -0.4688 -1.0460  0.0899
14148TIP3   OH263858   4.740   5.540  11.309  0.0227  0.3412  0.4996
14148TIP3    H163859   4.723   5.486  11.232 -1.7989 -0.6988  1.5683
14148TIP3    H263860   4.708   5.488  11.382  1.1587  1.5654  1.9201
14149TIP3   OH263861   5.014   4.746  12.956 -0.0341  0.7895  0.6325
14149TIP3    H163862   4.959   4.691  13.011  0.8157 -0.3685  0.3407
14149TIP3    H263863   5.091   4.765  13.010 -0.4532  1.9828  0.8504
14150TIP3   OH263864   6.448   4.195   3.030  0.0597  0.1409 -0.3795
14150TIP3    H163865   6.356   4.186   3.006 -0.5698  0.5322  1.6897
14150TIP3    H263866   6.462   4.130   3.099  1.4957 -0.2718 -1.0160
14151TIP3   OH263867   4.590   2.992  13.651  0.4173  0.0963  0.3023
14151TIP3    H163868   4.501   3.010  13.623  1.0676  1.7497 -0.8880
14151TIP3    H263869   4.595   3.026  13.740 -0.5008 -1.3230  0.9324
14152TIP3   OH263870   0.501   1.989  14.039  0.1301  0.0630  0.5357
14152TIP3    H163871   0.519   2.075  14.000  1.5463 -0.2748  0.3577
14152TIP3    H263872   0.481   1.933  13.964  4.2764 -0.9366 -0.0748
14153TIP3   OH263873   3.780   6.424   4.107  0.2975  0.6835 -0.1816
14153TIP3    H163874   3.824   6.411   4.191  1.0854 -0.0771 -0.6983
14153TIP3    H263875   3.687   6.429   4.130  0.4523 -0.0549  0.6803
14154TIP3   OH263876   2.680   6.349   0.003 -0.3040  0.0555  0.1725
14154TIP3    H163877   2.659   6.339  -0.090 -0.7438  0.2760  0.2492
14154TIP3    H263878   2.606   6.397   0.040  0.4841  1.1623  0.3725
14155TIP3   OH263879   6.030   6.163   2.778 -0.1886  0.7710  0.4527
14155TIP3    H163880   6.075   6.147   2.695 -1.6951 -0.4335 -0.1962
14155TIP3    H263881   6.037   6.258   2.791 -1.1412  1.2409 -1.8502
14156TIP3   OH263882   0.438   6.230  12.746  0.2764 -0.2721  0.1729
14156TIP3    H163883   0.507   6.297  12.741 -0.8812  0.9294 -0.2606
14156TIP3    H263884   0.420   6.209  12.654  0.3182 -0.8546  0.2978
14157TIP3   OH263885   5.408   0.113  10.692  0.4332 -0.1022 -0.2517
14157TIP3    H163886   5.427   0.078  10.605 -0.3192  0.1750 -0.5386
14157TIP3    H263887   5.448   0.051  10.752 -0.7614 -1.4103 -0.7445
14158TIP3   OH263888   0.623   3.130  16.575  0.2703  0.1989 -0.1239
14158TIP3    H163889   0.711   3.094  16.566  0.2869  0.2145 -0.0295
14158TIP3    H263890   0.622   3.205  16.515 -0.1002 -0.5669 -1.1024
14159TIP3   OH263891   3.706   3.197  14.891  0.0212  0.2168 -0.3712
14159TIP3    H163892   3.667   3.110  14.880  2.0179 -0.9020  0.7743
14159TIP3    H263893   3.709   3.233  14.803 -1.4520 -0.5889 -0.7811
14160TIP3   OH263894   6.711   3.426   4.612  0.6993  0.1370  0.7510
14160TIP3    H163895   6.757   3.345   4.635 -1.1690 -0.9620  0.8685
14160TIP3    H263896   6.706   3.476   4.693  2.0069  0.4776  0.6422
14161TIP3   OH263897   0.761   3.206  11.926  0.0918 -0.5599 -0.8669
14161TIP3    H163898   0.704   3.256  11.868  0.1662 -0.9692 -1.3051
14161TIP3    H263899   0.779   3.264  12.000 -1.0198 -0.4837 -0.6435
14162TIP3   OH263900   2.787   0.168  13.904 -0.2870 -0.1307 -0.0255
14162TIP3    H163901   2.860   0.124  13.947  0.8113  0.3506 -1.3175
14162TIP3    H263902   2.773   0.248  13.954  1.0340  0.4718 -0.5837
14163TIP3   OH263903   4.571   2.503  16.567 -0.3517 -0.6470  0.5011
14163TIP3    H163904   4.486   2.492  16.524 -0.0083  0.2145 -0.4414
14163TIP3    H263905   4.634   2.462  16.507 -0.2392 -2.8770  2.0143
14164TIP3   OH263906   4.311   5.306   2.256 -0.5912 -0.1122 -0.3193
14164TIP3    H163907   4.227   5.344   2.280 -0.8784 -0.6515 -0.4706
14164TIP3    H263908   4.356   5.375   2.206 -1.2284 -0.0757 -0.8480
14165TIP3   OH263909   5.742   1.054  12.319 -0.3636 -0.2564  0.0909
14165TIP3    H163910   5.740   1.108  12.240  1.9780 -0.8876 -0.4904
14165TIP3    H263911   5.759   1.116  12.390  1.4651 -0.0725 -0.4587
14166TIP3   OH263912   3.522   0.716   4.508 -0.0133 -0.0499 -0.1845
14166TIP3    H163913   3.522   0.693   4.601 -2.1246 -1.3903 -0.4578
14166TIP3    H263914   3.594   0.779   4.499  1.2636 -1.0816  2.0319
14167TIP3   OH263915   6.159   5.898  13.691  0.2489 -0.3496 -0.5610
14167TIP3    H163916   6.130   5.969  13.634 -0.6234 -0.3412 -0.1258
14167TIP3    H263917   6.235   5.933  13.737  0.2480  0.0490 -0.8555
14168TIP3   OH263918   5.900   1.826   0.914  0.6093 -0.3743  0.1914
14168TIP3    H163919   5.989   1.840   0.948  0.6986 -3.2122  1.3512
14168TIP3    H263920   5.914   1.796   0.824  0.8621 -1.2207  0.5078
14169TIP3   OH263921   4.171   0.979   4.326 -0.5149 -0.2797  0.0689
14169TIP3    H163922   4.206   0.903   4.372 -1.7848  0.4329  2.4006
14169TIP3    H263923   4.230   1.051   4.348 -0.1297 -0.2578 -0.9486
14170TIP3   OH263924   5.794   3.376   4.493  0.3645 -0.0200  0.0695
14170TIP3    H163925   5.746   3.347   4.415  2.0871 -0.6374 -0.8285
14170TIP3    H263926   5.886   3.377   4.465  0.8249  1.9509  1.4508
14171TIP3   OH263927   5.307   1.832  11.500 -0.6998 -0.4696 -0.1797
14171TIP3    H163928   5.379   1.894  11.509 -0.7867 -0.3990  0.0460
14171TIP3    H263929   5.296   1.794  11.587 -1.3360 -0.0300 -0.0616
14172TIP3   OH263930   5.695   2.128  15.056 -0.5354 -0.6821  0.1397
14172TIP3    H163931   5.685   2.111  15.150 -1.5462 -0.9217 -0.0094
14172TIP3    H263932   5.784   2.098  15.036  0.5857  1.4411  1.4770
14173TIP3   OH263933   3.073   2.476   3.751 -0.4015  0.1360 -0.1462
14173TIP3    H163934   3.008   2.464   3.820 -0.8469 -0.4109 -0.6594
14173TIP3    H263935   3.106   2.565   3.765  0.5668 -0.4508  1.6573
14174TIP3   OH263936   5.974   1.589  15.819 -0.5360  0.7639  0.2560
14174TIP3    H163937   6.068   1.607  15.813 -0.3925 -0.1932 -0.7217
14174TIP3    H263938   5.967   1.494  15.811 -1.6446  0.8898 -0.4984
14175TIP3   OH263939   1.720   1.601   1.154 -0.4281 -0.0419  0.0749
14175TIP3    H163940   1.687   1.667   1.215 -1.0714 -0.5455  0.2866
14175TIP3    H263941   1.701   1.517   1.197  1.9569 -0.3674  0.6362
14176TIP3   OH263942   5.757   0.303   6.171  0.4150 -0.1558  0.3394
14176TIP3    H163943   5.779   0.211   6.160  0.2886 -0.3368  1.5010
14176TIP3    H263944   5.702   0.306   6.249 -0.6165  0.7607 -0.3899
14177TIP3   OH263945   5.232   5.605  15.458  0.4257  0.0914 -0.1255
14177TIP3    H163946   5.185   5.588  15.539 -3.2157 -0.0861 -2.0685
14177TIP3    H263947   5.248   5.519  15.421  1.8948  0.1808  0.2369
14178TIP3   OH263948   1.850   6.444  16.771 -0.0114  0.4431 -0.1472
14178TIP3    H163949   1.852   6.505  16.697  0.8533 -0.5998 -1.0129
14178TIP3    H263950   1.918   6.475  16.830  0.1236  0.5879 -0.3752
14179TIP3   OH263951   6.398   3.422   1.725 -0.0247  0.0457  0.3505
14179TIP3    H163952   6.319   3.460   1.763 -0.1191  0.0070  0.1931
14179TIP3    H263953   6.468   3.444   1.786 -0.0974  0.3841  0.3093
14180TIP3   OH263954   0.060   6.591   1.712  0.5099 -0.4467 -0.4874
14180TIP3    H163955   0.045   6.667   1.656  1.9110 -1.0172 -1.6821
14180TIP3    H263956  -0.029   6.559   1.731 -0.1537  1.7900  0.5656
14181TIP3   OH263957   5.894   0.801   3.562  0.1651  0.5950  0.1114
14181TIP3    H163958   5.887   0.858   3.638  1.1069  1.4669 -0.4334
14181TIP3    H263959   5.805   0.772   3.546 -0.7438  3.5973 -0.8671
14182TIP3   OH263960   0.166   6.772   1.291 -0.2387  0.1113 -0.3184
14182TIP3    H163961   0.186   6.681   1.267  0.5429 -0.7639  3.1442
14182TIP3    H263962   0.158   6.817   1.207  2.0761 -2.5501 -2.1631
14183TIP3   OH263963   5.831   6.567   3.560 -0.3210  0.4202  0.3392
14183TIP3    H163964   5.747   6.593   3.523 -0.9171 -2.0369 -0.2162
14183TIP3    H263965   5.887   6.643   3.547 -1.8771  1.3949 -1.1570
14184TIP3   OH263966   0.447   4.075   1.891 -0.0966  0.0989  0.1813
14184TIP3    H163967   0.411   4.129   1.962  0.9391  0.1204  0.7106
14184TIP3    H263968   0.482   3.998   1.936 -0.1618 -0.2726 -0.4004
14185TIP3   OH263969   0.467   6.215  11.857  0.1444 -0.1972  0.1520
14185TIP3    H163970   0.473   6.120  11.849  2.4587 -0.0857 -0.1095
14185TIP3    H263971   0.556   6.244  11.874  0.1424  2.1896 -2.9196
14186TIP3   OH263972   0.574   5.349   0.280  0.1735  0.4101 -0.0785
14186TIP3    H163973   0.479   5.339   0.277  0.1847  0.1919  0.3311
14186TIP3    H263974   0.593   5.381   0.367  0.3483  1.9200 -0.6490
14187TIP3   OH263975   0.734   4.047  16.625 -0.0318  0.8693 -0.1999
14187TIP3    H163976   0.720   4.006  16.540  0.9896  0.3168 -0.1183
14187TIP3    H263977   0.670   4.117  16.629  0.8346  1.8155 -2.0300
14188TIP3   OH263978   0.141   1.189   5.470  0.2014  0.0463 -0.1793
14188TIP3    H163979   0.163   1.270   5.424  0.5775 -0.3735 -0.7577
14188TIP3    H263980   0.051   1.170   5.443  0.9621 -1.0790 -2.1144
14189TIP3   OH263981   4.649   5.060   5.619 -0.0032  0.5841  0.2027
14189TIP3    H163982   4.586   5.127   5.590 -1.1611 -0.8376 -0.7162
14189TIP3    H263983   4.644   4.992   5.553  1.2595 -0.3638  1.0351
14190TIP3   OH263984   1.195   0.981   1.325 -0.1549  0.0208  0.0714
14190TIP3    H163985   1.106   0.972   1.358 -0.2781 -1.5954 -0.6239
14190TIP3    H263986   1.242   0.908   1.365 -0.3036 -2.0342 -3.2084
14191TIP3   OH263987   3.904   6.408   1.879  0.0728  0.2290 -0.4240
14191TIP3    H163988   3.978   6.442   1.929 -0.1512  3.1868 -1.9000
14191TIP3    H263989   3.941   6.384   1.794 -0.3812  0.2842 -0.6437
14192TIP3   OH263990   1.545   4.980  13.363 -0.1354  0.1632 -0.5163
14192TIP3    H163991   1.638   4.962  13.375 -0.2533  0.2285  0.5400
14192TIP3    H263992   1.514   5.006  13.449 -1.3183 -0.6649 -0.6699
14193TIP3   OH263993   0.209   0.862   1.013 -0.1589  0.1349 -0.4770
14193TIP3    H163994   0.297   0.829   0.995 -0.5472  0.0014 -2.2879
14193TIP3    H263995   0.157   0.835   0.938 -1.5204  1.1024  0.0736
14194TIP3   OH263996   0.226   6.327   1.951 -0.2350 -0.2522  0.3015
14194TIP3    H163997   0.222   6.421   1.937  1.2278 -0.1558  0.4136
14194TIP3    H263998   0.273   6.317   2.034 -0.1553 -1.0911  0.1609
14195TIP3   OH263999   2.904   1.259   0.511  0.4662  0.3540 -0.0593
14195TIP3    H164000   2.946   1.337   0.547 -0.5776  1.0512 -0.3127
14195TIP3    H264001   2.864   1.216   0.587  0.4744  0.4325 -0.0104
14196TIP3   OH264002   6.133   4.319  11.390 -0.3508 -0.1466 -0.4081
14196TIP3    H164003   6.061   4.305  11.451 -1.0209  5.4257  0.6530
14196TIP3    H264004   6.211   4.320  11.445 -0.0023 -1.6733 -0.8330
14197TIP3   OH264005   6.202   3.103   3.415 -0.4475  0.4483 -0.0019
14197TIP3    H164006   6.220   3.149   3.333  1.5960 -2.5930 -1.4703
14197TIP3    H264007   6.278   3.121   3.470  1.4166 -2.4222 -1.3590
14198TIP3   OH264008   5.706   6.490  15.064  0.4664  0.1675  0.3927
14198TIP3    H164009   5.642   6.549  15.104  2.0654  1.8868  0.5968
14198TIP3    H264010   5.783   6.497  15.121  0.3672 -3.0804  1.0734
14199TIP3   OH264011   2.676   5.445  16.358  0.2472  0.9349 -0.3412
14199TIP3    H164012   2.764   5.415  16.333 -0.0112 -0.6172  0.4995
14199TIP3    H264013   2.641   5.484  16.278  1.1700  0.2761 -1.0932
14200TIP3   OH264014   3.433   1.652  11.868 -0.1756 -0.6043 -0.5490
14200TIP3    H164015   3.441   1.559  11.844  0.9554 -0.8784  0.7808
14200TIP3    H264016   3.445   1.699  11.786  0.2259 -1.6045 -1.0809
14201TIP3   OH264017   1.101   0.483   4.268  0.2982  0.6011 -0.2253
14201TIP3    H164018   1.093   0.561   4.213 -0.0582  0.0773 -0.9251
14201TIP3    H264019   1.111   0.518   4.357  1.0742  1.4647 -0.6255
14202TIP3   OH264020   2.664   0.969  12.393 -0.3023  0.2945 -0.2534
14202TIP3    H164021   2.747   0.943  12.432 -1.8471 -1.0207  2.4009
14202TIP3    H264022   2.597   0.936  12.453 -2.7414  2.5217 -1.5269
14203TIP3   OH264023   1.957   1.665   1.281  0.4450 -0.5499  0.2087
14203TIP3    H164024   1.951   1.573   1.305 -1.3559 -0.2914  0.9376
14203TIP3    H264025   1.887   1.677   1.216 -0.9309  0.7563  1.8483
14204TIP3   OH264026   4.517   3.450  11.369 -0.9357 -0.2409 -0.1055
14204TIP3    H164027   4.488   3.378  11.424 -2.1777 -1.1380 -1.8273
14204TIP3    H264028   4.436   3.488  11.333 -0.4487  2.9546  1.7616
14205TIP3   OH264029   1.788   0.265   2.226 -0.6617 -0.8262 -0.4747
14205TIP3    H164030   1.754   0.305   2.146 -1.0805  1.4505  0.7528
14205TIP3    H264031   1.883   0.276   2.219 -0.5032 -2.4266 -1.4927
14206TIP3   OH264032   5.142   4.078   1.215 -0.1777 -0.1911  0.0037
14206TIP3    H164033   5.167   4.109   1.128  0.7190 -0.3845  0.1812
14206TIP3    H264034   5.060   4.030   1.200 -0.5690  0.6227 -0.5640
14207TIP3   OH264035   4.942   6.092  13.563 -0.0607 -0.2282 -0.4123
14207TIP3    H164036   4.951   6.178  13.522 -1.1059  0.3548  0.5011
14207TIP3    H264037   5.028   6.051  13.553  0.6357  1.1531 -0.3536
14208TIP3   OH264038   3.905   3.728   3.972  0.4597  0.5132 -0.4620
14208TIP3    H164039   3.951   3.785   4.035  0.5876  0.8541 -0.8601
14208TIP3    H264040   3.960   3.730   3.894  0.3062  0.0792 -0.5846
14209TIP3   OH264041   4.099   2.175  16.813 -0.5704  0.2464 -0.9814
14209TIP3    H164042   4.035   2.125  16.864 -0.1354  0.5814 -0.0806
14209TIP3    H264043   4.085   2.266  16.840  0.0022  0.3692 -1.0724
14210TIP3   OH264044   1.135   6.220   4.635  0.5749  0.1069  0.4857
14210TIP3    H164045   1.134   6.124   4.643  1.7222  0.1317  1.0386
14210TIP3    H264046   1.164   6.251   4.720  0.3765  0.9557  0.2546
14211TIP3   OH264047   5.247   3.082   1.092 -0.3261  0.2018 -0.4480
14211TIP3    H164048   5.218   3.094   1.002 -0.0082 -1.1516 -0.7517
14211TIP3    H264049   5.170   3.051   1.139 -1.0518  2.8023  0.2579
14212TIP3   OH264050   0.899   3.484  14.112 -0.4100 -0.1083 -0.2769
14212TIP3    H164051   0.873   3.398  14.145 -0.4232 -1.0297 -2.4904
14212TIP3    H264052   0.994   3.486  14.124 -0.2527 -0.9450 -1.2402
14213TIP3   OH264053   3.557   2.767  13.175  0.2805  0.1603 -0.0437
14213TIP3    H164054   3.602   2.743  13.256  0.2474  0.0770 -0.0494
14213TIP3    H264055   3.481   2.709  13.172  0.3621  0.0596 -0.2097
14214TIP3   OH264056   1.401   4.580   1.253  0.7097 -0.6204  0.2131
14214TIP3    H164057   1.430   4.670   1.239  1.4854 -0.8899  0.0123
14214TIP3    H264058   1.311   4.588   1.285  0.0715  0.1446 -1.6435
14215TIP3   OH264059   6.529   1.939   4.313 -0.1459  0.1660  0.0269
14215TIP3    H164060   6.516   1.998   4.387  0.3994 -0.3691  0.5672
14215TIP3    H264061   6.613   1.895   4.332 -0.1172 -0.1473 -0.7871
14216TIP3   OH264062   5.426   2.486   0.350 -0.2839  0.0143  0.3144
14216TIP3    H164063   5.512   2.471   0.311 -0.5513  0.5773 -0.5267
14216TIP3    H264064   5.381   2.402   0.340 -0.5075  0.2755 -1.0348
14217TIP3   OH264065   4.185   2.598   3.708  0.3648  0.2090 -0.2755
14217TIP3    H164066   4.149   2.679   3.744 -1.2853 -0.7699  0.4226
14217TIP3    H264067   4.132   2.581   3.631  1.5415  0.4267 -1.1537
14218TIP3   OH264068   6.133   1.465   4.955 -0.2873 -0.0882  0.0271
14218TIP3    H164069   6.125   1.531   5.024 -1.1950  0.5691 -0.6682
14218TIP3    H264070   6.166   1.387   5.000  3.5871  1.5424  0.4182
14219TIP3   OH264071   6.650   3.651   6.041  0.5861 -0.2275 -0.4119
14219TIP3    H164072   6.570   3.704   6.036  0.1579 -0.7876  0.3378
14219TIP3    H264073   6.671   3.648   6.134  0.9382 -0.8855 -0.5097
14220TIP3   OH264074   3.028   6.580   5.800  0.3649 -0.0709  0.0825
14220TIP3    H164075   3.064   6.666   5.779 -0.0152  0.3404  1.0693
14220TIP3    H264076   2.984   6.592   5.884 -0.7312 -0.9383 -0.3483
14221TIP3   OH264077   2.240   0.723  13.053 -0.0349  0.5200 -0.4510
14221TIP3    H164078   2.153   0.697  13.023  0.0499  1.7079 -1.8472
14221TIP3    H264079   2.249   0.682  13.139 -2.1995  0.8595 -0.0018
14222TIP3   OH264080   0.997   0.041  14.579 -0.1983 -0.0901 -0.2674
14222TIP3    H164081   1.056   0.015  14.507 -0.5150  1.3022 -1.0555
14222TIP3    H264082   0.917   0.069  14.535 -0.3248  0.9811  0.6139
14223TIP3   OH264083   1.682   6.556  15.513 -0.0724  0.7873  0.3483
14223TIP3    H164084   1.710   6.620  15.448 -0.6538  0.7313  0.0318
14223TIP3    H264085   1.587   6.551  15.502  0.0181 -0.6316 -0.1254
14224TIP3   OH264086   1.488   2.564  17.077  0.3675 -0.4129 -0.0887
14224TIP3    H164087   1.463   2.599  17.163 -1.3502  3.4528 -1.9348
14224TIP3    H264088   1.582   2.549  17.085  0.4569  0.8283  2.1961
14225TIP3   OH264089   5.391   1.040  12.641 -0.2904 -0.4072 -0.5728
14225TIP3    H164090   5.427   1.004  12.560 -1.2316  0.7694 -1.5674
14225TIP3    H264091   5.423   1.131  12.642 -1.0541 -0.1403 -0.1205
14226TIP3   OH264092   0.326   6.164   6.424 -0.1532 -0.2961 -0.1415
14226TIP3    H164093   0.240   6.138   6.456 -0.5894  0.4220 -0.6952
14226TIP3    H264094   0.363   6.217   6.495  0.2459 -1.3987  0.4930
14227TIP3   OH264095   5.643   4.890   2.201  0.3802  0.2397  0.9445
14227TIP3    H164096   5.700   4.816   2.224 -0.1099 -1.1229 -1.8213
14227TIP3    H264097   5.689   4.935   2.130 -0.4515  1.1420  0.9518
14228TIP3   OH264098   2.816   1.308   4.057 -0.4565  0.2127  0.1189
14228TIP3    H164099   2.775   1.394   4.063 -2.4691 -0.7493  1.0219
14228TIP3    H264100   2.833   1.283   4.148  0.0231 -0.3889 -0.1232
14229TIP3   OH264101   6.685   1.865   5.911 -0.0835  0.3255 -0.4928
14229TIP3    H164102   6.780   1.856   5.917 -0.0037  1.2722 -0.0117
14229TIP3    H264103   6.669   1.958   5.928 -1.0505  0.2971 -1.1737
14230TIP3   OH264104   6.205   1.939  13.619  0.5359 -0.3173  0.0835
14230TIP3    H164105   6.181   1.955  13.710 -0.9881  1.7671 -0.6157
14230TIP3    H264106   6.276   2.000  13.602  0.7242 -0.6062 -0.1619
14231TIP3   OH264107   0.160   3.685   0.817  0.3729  0.0091 -0.1719
14231TIP3    H164108   0.104   3.745   0.766 -0.1113 -0.0512  0.2777
14231TIP3    H264109   0.203   3.742   0.881  0.5801  0.0060 -0.3085
14232TIP3   OH264110   3.376   3.149  17.143  0.3728  0.1065 -0.0991
14232TIP3    H164111   3.326   3.230  17.134  0.2618 -0.0306 -0.8161
14232TIP3    H264112   3.375   3.130  17.236 -0.7164  0.2371 -0.0681
14233TIP3   OH264113   2.206   4.618   4.015  0.0807 -0.4871  0.2440
14233TIP3    H164114   2.188   4.563   3.939 -0.0854 -0.9479  0.6119
14233TIP3    H264115   2.180   4.706   3.988  2.2706 -0.1922 -1.0739
14234TIP3   OH264116   5.181   6.305  11.726 -0.0115  0.3711 -0.2206
14234TIP3    H164117   5.197   6.286  11.633  0.2563  0.4096 -0.1847
14234TIP3    H264118   5.146   6.394  11.726  0.8738  0.7348 -0.2209
14235TIP3   OH264119   4.714   5.297  12.386  0.4286 -0.6496  0.0706
14235TIP3    H164120   4.746   5.244  12.460  1.2897  0.5229  0.5704
14235TIP3    H264121   4.729   5.242  12.309  1.0978 -1.2269  0.5973
14236TIP3   OH264122   1.267   4.507  14.998  0.2601  0.0229  0.0226
14236TIP3    H164123   1.212   4.432  14.977  0.3148 -0.5398  1.7844
14236TIP3    H264124   1.329   4.512  14.925  2.5039 -3.8016  1.3476
14237TIP3   OH264125   5.807   1.453   4.219  0.3934  0.2827  0.6978
14237TIP3    H164126   5.787   1.532   4.168 -0.3437  0.1821  0.8174
14237TIP3    H264127   5.792   1.380   4.159  1.3307  0.2293  0.5062
14238TIP3   OH264128   4.519   5.104   1.824  0.0802 -0.0208 -0.3365
14238TIP3    H164129   4.615   5.110   1.826  0.0359  1.4080 -1.0227
14238TIP3    H264130   4.501   5.018   1.787  1.1140 -0.2200 -0.4081
14239TIP3   OH264131   3.770   4.827  10.593 -0.7603 -0.3299 -0.4090
14239TIP3    H164132   3.680   4.823  10.560 -0.5983 -0.2209 -0.8702
14239TIP3    H264133   3.790   4.920  10.597  0.2981 -0.3853 -3.0062
14240TIP3   OH264134   3.296   1.538   2.166 -0.2961  0.6615  0.2132
14240TIP3    H164135   3.320   1.453   2.203  0.7830  0.4357 -0.9122
14240TIP3    H264136   3.312   1.528   2.072 -0.6494  1.9515 -0.0069
14241TIP3   OH264137   0.170   5.188   3.076  0.1524  0.4459  0.7133
14241TIP3    H164138   0.097   5.242   3.045  0.4682  0.8748  0.7062
14241TIP3    H264139   0.166   5.194   3.171 -1.3841 -1.6210  0.8454
14242TIP3   OH264140   3.023   0.177   3.592  0.3289 -0.0434 -0.7528
14242TIP3    H164141   2.939   0.219   3.573  0.3929  0.7024  0.5006
14242TIP3    H264142   3.001   0.089   3.620 -0.2501  0.7615  1.5562
14243TIP3   OH264143   1.632   2.880  16.264  0.0726  0.1072  0.3281
14243TIP3    H164144   1.672   2.967  16.254  1.9269 -0.6693  0.6527
14243TIP3    H264145   1.630   2.866  16.359 -0.6524 -0.0347  0.3000
14244TIP3   OH264146   6.362   2.435  14.299 -0.1507  0.1598  0.0062
14244TIP3    H164147   6.298   2.387  14.246 -1.1126  0.2611  1.0427
14244TIP3    H264148   6.342   2.410  14.389  2.9087 -1.8130  0.2970
14245TIP3   OH264149   4.414   1.409  14.237 -0.2682  0.0617  0.5302
14245TIP3    H164150   4.505   1.420  14.267 -0.3312 -0.3894  0.8955
14245TIP3    H264151   4.393   1.492  14.194  0.1478  0.3616  0.8935
14246TIP3   OH264152   3.113   1.172   3.287 -0.0867 -0.1657 -0.2289
14246TIP3    H164153   3.158   1.114   3.227  1.1408 -0.8490  1.2828
14246TIP3    H264154   3.172   1.247   3.298 -0.1395 -0.2018  0.3583
14247TIP3   OH264155   3.440   5.640   2.349  0.1411  0.0982 -0.0566
14247TIP3    H164156   3.352   5.665   2.376  0.1111 -0.3954  0.3188
14247TIP3    H264157   3.480   5.606   2.429  0.5774  0.0515 -0.2931
14248TIP3   OH264158   1.749   2.431   0.680 -0.7669  0.0545  0.2113
14248TIP3    H164159   1.724   2.414   0.589  0.2956  0.7321 -0.2303
14248TIP3    H264160   1.840   2.403   0.685 -0.4779  1.0642  0.7577
14249TIP3   OH264161   0.978   1.954   3.592 -0.7597 -0.0852  0.2788
14249TIP3    H164162   0.945   1.885   3.535 -1.9165  0.5005  0.2079
14249TIP3    H264163   0.904   2.014   3.602  0.2874  1.2662  0.1543
14250TIP3   OH264164   5.979   5.660  16.453  0.8268  0.2870 -0.4732
14250TIP3    H164165   5.923   5.705  16.390  0.2521 -0.8422 -0.8008
14250TIP3    H264166   6.063   5.652  16.409  0.2094 -1.1961 -1.4681
14251TIP3   OH264167   2.222   3.636  15.641 -0.1450  0.3910 -0.3198
14251TIP3    H164168   2.297   3.694  15.631  1.1217 -1.3393 -1.4355
14251TIP3    H264169   2.177   3.641  15.557  0.0019 -0.2796 -0.4380
14252TIP3   OH264170   1.107   1.423  11.979  0.0700  0.2144 -0.0096
14252TIP3    H164171   1.103   1.513  11.945  0.1049  0.3818  0.4269
14252TIP3    H264172   1.197   1.395  11.962  0.3562  0.6284  0.7705
14253TIP3   OH264173   5.129   5.111  10.574  0.3086 -0.3135 -0.0293
14253TIP3    H164174   5.147   5.172  10.646  1.6902 -0.7278  0.0111
14253TIP3    H264175   5.215   5.092  10.537  0.0732 -2.9192  0.5310
14254TIP3   OH264176   3.163   5.788  16.818 -0.2428 -0.2168  0.0789
14254TIP3    H164177   3.077   5.785  16.778  0.4235 -1.2252 -1.3638
14254TIP3    H264178   3.210   5.857  16.771  1.1704 -2.6642 -2.3840
14255TIP3   OH264179   5.093   1.107  13.768  0.2419 -0.8011  0.2155
14255TIP3    H164180   5.062   1.195  13.750  0.0584 -0.5844  1.4669
14255TIP3    H264181   5.049   1.051  13.704 -1.3719 -0.2724  0.8296
14256TIP3   OH264182   1.734   0.997   1.769  0.5271 -0.1573  0.1032
14256TIP3    H164183   1.808   1.045   1.807  0.5864  0.2489 -0.5119
14256TIP3    H264184   1.681   1.065   1.728 -1.7208  0.0052  2.9176
14257TIP3   OH264185   4.899   4.891  15.753 -0.4907  0.1542 -0.2663
14257TIP3    H164186   4.956   4.833  15.803 -2.2864 -0.2607  1.4466
14257TIP3    H264187   4.871   4.958  15.817 -1.1952  0.8622 -1.2808
14258TIP3   OH264188   3.642   4.015   3.141  0.6618 -0.2221  0.3532
14258TIP3    H164189   3.624   3.975   3.056  0.0550 -3.3048  1.7935
14258TIP3    H264190   3.585   4.092   3.145  1.2829  0.4629 -2.2696
14259TIP3   OH264191   0.953   3.978   1.976 -0.3282 -0.2968 -0.5119
14259TIP3    H164192   0.971   4.068   2.000  2.3707 -1.0474  0.6199
14259TIP3    H264193   0.913   3.940   2.054 -2.5958  0.1353 -1.3851
14260TIP3   OH264194   2.481   1.358  13.482  0.1795  0.4824  0.5159
14260TIP3    H164195   2.568   1.358  13.521 -0.0658  2.7718  1.2226
14260TIP3    H264196   2.439   1.438  13.516 -2.5945 -1.0672  1.0844
14261TIP3   OH264197   1.631   4.113   5.306 -0.1465  0.3928 -0.3438
14261TIP3    H164198   1.588   4.195   5.327  1.2492  0.5830  2.1713
14261TIP3    H264199   1.679   4.131   5.225 -0.1702  1.9306 -0.0368
14262TIP3   OH264200   4.741   3.715   0.873  0.2611 -0.5832 -0.0374
14262TIP3    H164201   4.828   3.749   0.853  0.3414 -0.0567  1.1544
14262TIP3    H264202   4.692   3.728   0.791  1.2865 -0.8957 -0.7197
14263TIP3   OH264203   6.471   5.011  15.937 -0.1051 -0.0784 -0.0996
14263TIP3    H164204   6.430   4.948  15.996 -0.8453 -1.1482 -1.6654
14263TIP3    H264205   6.451   5.097  15.975 -3.7023 -0.5270 -0.6242
14264TIP3   OH264206   2.801   4.687   6.032  0.2877 -0.2193  0.5750
14264TIP3    H164207   2.848   4.645   6.104  1.2940  0.8104  0.5418
14264TIP3    H264208   2.714   4.703   6.066  0.4107 -0.7837  1.1656
14265TIP3   OH264209   0.328   1.016   0.417  0.1932 -0.4862 -0.0577
14265TIP3    H164210   0.386   0.951   0.458  0.7904 -0.6963 -1.2126
14265TIP3    H264211   0.383   1.093   0.403 -0.1128 -0.2759 -0.1209
14266TIP3   OH264212   0.596   4.595  12.089 -0.2277  0.1820 -0.3584
14266TIP3    H164213   0.615   4.611  12.181 -1.1940 -0.8163  0.0255
14266TIP3    H264214   0.671   4.545  12.057 -1.1189 -1.8548  0.6012
14267TIP3   OH264215   1.321   1.853   1.325 -0.2211 -0.0784  0.8671
14267TIP3    H164216   1.358   1.770   1.297 -0.2522 -0.0750  0.8161
14267TIP3    H264217   1.348   1.916   1.258 -2.1527 -0.4952 -0.3554
14268TIP3   OH264218   2.719   3.947  15.668 -0.0927  0.4477 -0.4256
14268TIP3    H164219   2.768   4.025  15.641 -0.9737  0.9243 -0.6496
14268TIP3    H264220   2.707   3.896  15.588 -1.4459  1.1650 -0.7028
14269TIP3   OH264221   2.516   6.396   0.313  0.2235  0.0370  0.1305
14269TIP3    H164222   2.554   6.480   0.288  2.0071 -0.0965  2.0899
14269TIP3    H264223   2.561   6.331   0.259 -0.2978  0.2331 -0.5439
14270TIP3   OH264224   0.173   3.903   2.007  0.0809  0.2418  0.0792
14270TIP3    H164225   0.119   3.899   1.928 -0.7185  0.4607  0.6084
14270TIP3    H264226   0.224   3.821   2.005 -0.4556 -0.0886 -0.2956
14271TIP3   OH264227   1.952   1.657   4.618 -0.1424 -0.0065  0.5296
14271TIP3    H164228   2.025   1.611   4.578 -0.5624 -0.1321 -0.1052
14271TIP3    H264229   1.877   1.637   4.562 -0.7814 -0.3208  1.4615
14272TIP3   OH264230   5.715   3.216   6.275 -0.2297 -0.1553  0.3012
14272TIP3    H164231   5.711   3.124   6.302  0.0962 -0.1838  0.2609
14272TIP3    H264232   5.656   3.262   6.334 -0.3980 -0.3925  0.3167
14273TIP3   OH264233   2.708   6.150   0.365  0.1042  0.0234 -0.4791
14273TIP3    H164234   2.758   6.130   0.444  0.0520  0.0696 -0.4342
14273TIP3    H264235   2.769   6.134   0.294 -0.5911 -2.6233 -0.6116
14274TIP3   OH264236   0.898   4.326  16.895 -0.4170 -0.3464 -0.3341
14274TIP3    H164237   0.938   4.385  16.831 -0.7788  0.5628  0.2582
14274TIP3    H264238   0.820   4.371  16.925  0.3550 -0.1831  1.6201
14275TIP3   OH264239   5.010   3.889  12.853  0.1267 -0.8237 -0.1957
14275TIP3    H164240   5.039   3.975  12.822  3.4495 -0.4759  3.1760
14275TIP3    H264241   5.045   3.827  12.789  0.8912  0.1303 -0.7196
14276TIP3   OH264242   0.387   1.154   4.653  0.3470  0.1294  0.1373
14276TIP3    H164243   0.445   1.193   4.717  0.7603 -2.6456  1.6303
14276TIP3    H264244   0.393   1.210   4.576  1.5870  2.3140  1.7383
14277TIP3   OH264245   2.069   2.778  16.924 -0.1443 -0.1311  0.9932
14277TIP3    H164246   2.033   2.855  16.967 -0.1270  1.4414 -1.6144
14277TIP3    H264247   2.162   2.797  16.915 -0.4451  0.5492 -1.4232
14278TIP3   OH264248   2.339   4.630  16.269  0.1325 -0.0140 -0.1127
14278TIP3    H164249   2.307   4.593  16.350  0.2752  0.3771  0.1265
14278TIP3    H264250   2.261   4.664  16.224  0.1388  0.4297  0.2042
14279TIP3   OH264251   3.876   6.058   0.586  0.1082  0.3996  0.4182
14279TIP3    H164252   3.807   6.008   0.630 -1.3051  2.3961  0.5943
14279TIP3    H264253   3.853   6.054   0.493  0.3971  0.1639  0.3537
14280TIP3   OH264254   0.643   6.309  15.163 -0.4331 -0.1308 -0.2173
14280TIP3    H164255   0.632   6.353  15.247  0.0496  0.9877 -0.7157
14280TIP3    H264256   0.737   6.291  15.158 -0.3033  0.7079 -0.9410
14281TIP3   OH264257   2.451   1.667  12.300  0.1076  0.7883 -0.3573
14281TIP3    H164258   2.370   1.718  12.307 -1.5761 -1.6754 -0.5086
14281TIP3    H264259   2.479   1.679  12.210 -1.8806 -0.6890 -1.2578
14282TIP3   OH264260   1.669   4.149  11.803 -0.3434  0.0372  0.0433
14282TIP3    H164261   1.620   4.165  11.883 -1.0525  2.5055 -0.8009
14282TIP3    H264262   1.728   4.223  11.794  0.0480 -0.4149 -1.4882
14283TIP3   OH264263   4.393   2.976   0.563  0.0715 -0.3538  0.2813
14283TIP3    H164264   4.440   2.941   0.639 -2.2275  0.3953  2.1677
14283TIP3    H264265   4.379   3.068   0.585 -1.8738 -0.4569 -0.3809
14284TIP3   OH264266   0.382   0.564   1.783 -0.4005 -0.3657 -0.1259
14284TIP3    H164267   0.420   0.612   1.709 -0.6920  0.4696  0.2526
14284TIP3    H264268   0.458   0.535   1.833 -0.2242  0.0649 -0.1363
14285TIP3   OH264269   1.880   4.782   1.325  0.2323 -0.3424 -0.3361
14285TIP3    H164270   1.865   4.689   1.309  1.6961 -0.5811 -0.3858
14285TIP3    H264271   1.798   4.812   1.366 -0.8633 -1.2767 -1.7489
14286TIP3   OH264272   4.671   6.625  16.629 -0.2975 -0.8843  0.1843
14286TIP3    H164273   4.744   6.687  16.633 -2.0788  1.4153 -1.1397
14286TIP3    H264274   4.640   6.619  16.720 -0.7386  1.0632  0.2113
14287TIP3   OH264275   5.909   3.836  14.229 -0.4072 -0.1553  0.2535
14287TIP3    H164276   5.868   3.839  14.142 -0.5844  0.3993  0.3473
14287TIP3    H264277   5.970   3.762  14.225  2.4555  2.0834 -1.6556
14288TIP3   OH264278   2.782   1.308  13.472  0.4788  0.0947  0.0169
14288TIP3    H164279   2.823   1.386  13.507 -0.7846  0.5216  0.6014
14288TIP3    H264280   2.790   1.317  13.377  1.3084  0.3794  0.1036
14289TIP3   OH264281   6.511   0.309   4.940  0.1882 -0.4004 -0.1327
14289TIP3    H164282   6.583   0.302   4.877  0.6578  1.7198  0.1090
14289TIP3    H264283   6.461   0.228   4.927  1.4611 -1.0042 -1.7139
14290TIP3   OH264284   3.700   3.704  12.393 -0.0115  0.3870 -0.0001
14290TIP3    H164285   3.653   3.764  12.451 -0.4658 -0.9511  1.0651
14290TIP3    H264286   3.632   3.650  12.354  0.3860  0.6055 -1.0321
14291TIP3   OH264287   6.555   1.088   4.284 -0.1675 -0.0464  0.2970
14291TIP3    H164288   6.544   1.071   4.377  0.4615  0.5368  0.4887
14291TIP3    H264289   6.558   1.183   4.277  1.1255 -0.0914 -0.1330
14292TIP3   OH264290   0.514   5.705  16.480  0.4008  0.1048 -0.8697
14292TIP3    H164291   0.605   5.718  16.507  0.5977 -1.0823 -0.8933
14292TIP3    H264292   0.475   5.653  16.551 -0.1715  0.3475 -1.0030
14293TIP3   OH264293   3.730   4.828  14.610 -0.2496 -0.2560 -0.3999
14293TIP3    H164294   3.739   4.732  14.607 -1.1499 -0.3841  0.4347
14293TIP3    H264295   3.664   4.847  14.544 -1.2891 -0.4048  0.5620
14294TIP3   OH264296   6.497   0.395   2.495 -0.2192 -0.0301  0.3900
14294TIP3    H164297   6.430   0.461   2.509 -2.2762 -1.7302 -0.7514
14294TIP3    H264298   6.533   0.377   2.582 -2.1239  0.0965  1.2408
14295TIP3   OH264299   4.956   3.746  16.940  0.2630  0.7422 -0.2359
14295TIP3    H164300   4.996   3.781  16.861 -1.1776  1.2977 -0.7468
14295TIP3    H264301   4.888   3.810  16.963 -0.6232 -0.3740  0.3377
14296TIP3   OH264302   6.543   4.386  10.600 -0.1010 -0.2867 -0.2713
14296TIP3    H164303   6.561   4.479  10.609 -1.1258  0.0272 -1.2776
14296TIP3    H264304   6.450   4.381  10.576 -0.0629 -1.5621 -0.2389
14297TIP3   OH264305   3.558   1.415   0.647  0.2446 -0.0352  0.0240
14297TIP3    H164306   3.572   1.470   0.570  2.1899 -0.2781  0.1560
14297TIP3    H264307   3.645   1.386   0.673 -0.6799 -3.7040 -0.3719
14298TIP3   OH264308   5.066   3.719  15.763 -0.0281 -0.0324  0.6627
14298TIP3    H164309   5.030   3.635  15.789 -1.0703 -0.0652 -0.7803
14298TIP3    H264310   5.116   3.701  15.683  0.6188  0.5454  0.9237
14299TIP3   OH264311   0.619   2.723   1.680  0.1098  0.1925  0.0421
14299TIP3    H164312   0.556   2.769   1.625 -0.5667 -0.3034  0.3765
14299TIP3    H264313   0.704   2.748   1.645 -0.2959 -0.1347 -1.2622
14300TIP3   OH264314   5.190   4.758  16.156 -0.3006  0.0471 -0.1283
14300TIP3    H164315   5.147   4.686  16.203 -0.0562  1.2672  2.1024
14300TIP3    H264316   5.261   4.716  16.108  0.7158 -1.1013  2.2251
14301TIP3   OH264317   0.292   0.008   4.376  0.0712 -0.3869  0.6952
14301TIP3    H164318   0.380  -0.014   4.346  0.4571  1.1024  0.6605
14301TIP3    H264319   0.303   0.033   4.467 -0.2315  0.3459  0.5326
14302TIP3   OH264320   5.320   1.518   1.216  0.0224  0.2828 -0.3943
14302TIP3    H164321   5.317   1.612   1.233 -0.9904 -0.1669  2.3760
14302TIP3    H264322   5.232   1.498   1.182  0.0140  0.2150 -0.3298
14303TIP3   OH264323   4.164   0.662  11.277  0.2480 -0.2639  0.9391
14303TIP3    H164324   4.256   0.660  11.302  0.5268 -3.3448  0.1062
14303TIP3    H264325   4.161   0.618  11.192 -2.0332 -0.7550  1.1893
14304TIP3   OH264326   1.471   2.032  16.072  0.0179 -0.0495  0.4204
14304TIP3    H164327   1.462   2.029  15.977  0.7073  1.4865  0.2846
14304TIP3    H264328   1.562   2.007  16.089  0.0962  0.3510  0.6161
14305TIP3   OH264329   4.710   3.276   1.346 -0.1245 -0.2759 -0.0863
14305TIP3    H164330   4.781   3.267   1.282  0.0800  1.2087 -0.1238
14305TIP3    H264331   4.635   3.305   1.293 -0.9990 -2.4975 -0.1532
14306TIP3   OH264332   5.925   0.453   1.738 -0.0168 -0.0045  0.4839
14306TIP3    H164333   5.896   0.449   1.647  2.4324 -2.5074 -0.3304
14306TIP3    H264334   5.883   0.378   1.780  1.2262 -0.7021  0.5497
14307TIP3   OH264335   0.145   5.202  16.838 -0.6311  0.1247  0.1280
14307TIP3    H164336   0.155   5.109  16.817  0.4378 -0.0485  1.2518
14307TIP3    H264337   0.121   5.203  16.931 -1.4021  0.9478 -0.0708
14308TIP3   OH264338   5.883   1.953  11.372 -0.1883  0.0122 -0.2005
14308TIP3    H164339   5.961   1.906  11.343  2.4628  1.1168  4.2539
14308TIP3    H264340   5.884   2.034  11.320  1.7578  0.0618 -0.1546
14309TIP3   OH264341   3.287   5.174  11.732 -0.2808  0.1322  0.2530
14309TIP3    H164342   3.294   5.079  11.728 -1.9353  0.0290 -1.3665
14309TIP3    H264343   3.196   5.193  11.707  0.6108  2.2293 -1.8255
14310TIP3   OH264344   2.206   4.783   0.837 -0.2527  0.0170 -0.1281
14310TIP3    H164345   2.111   4.791   0.846 -0.5993 -0.8313 -2.5343
14310TIP3    H264346   2.235   4.751   0.923 -2.1602 -0.0314  0.5433
14311TIP3   OH264347   2.344   5.877   5.676 -0.0033  0.0401  0.0558
14311TIP3    H164348   2.284   5.938   5.633 -0.8595 -1.6784 -1.3173
14311TIP3    H264349   2.425   5.883   5.624  0.4126  1.0121  0.7900
14312TIP3   OH264350   0.088   0.157  11.289  0.1444  0.3317  0.2637
14312TIP3    H164351   0.080   0.071  11.248 -2.1308  0.7593 -0.2833
14312TIP3    H264352   0.135   0.210  11.224  2.2196 -0.6105  0.8970
14313TIP3   OH264353   5.999   3.693   5.126 -0.4053 -0.4132 -0.0406
14313TIP3    H164354   5.949   3.742   5.190 -0.3275  0.6784 -0.7749
14313TIP3    H264355   6.076   3.748   5.110 -0.5245 -0.5576 -1.1955
14314TIP3   OH264356   6.565   1.949  16.149 -0.3538  0.1789  0.0400
14314TIP3    H164357   6.540   1.947  16.242 -0.4666  2.0868  0.1082
14314TIP3    H264358   6.548   2.040  16.122 -0.8235 -0.4650 -2.0036
14315TIP3   OH264359   3.467   4.373   5.116  0.1549  0.0349  0.1644
14315TIP3    H164360   3.478   4.430   5.039  0.1888 -0.7810 -0.4523
14315TIP3    H264361   3.372   4.363   5.124  0.1756 -1.0365 -0.6692
14316TIP3   OH264362   3.547   0.505   5.847 -0.0466  0.1622 -0.0908
14316TIP3    H164363   3.467   0.548   5.876 -0.2989 -0.6144  0.4099
14316TIP3    H264364   3.599   0.495   5.926  0.8240  1.1950 -0.5078
14317TIP3   OH264365   6.439   3.536   2.026  0.0557 -0.5124  0.0125
14317TIP3    H164366   6.432   3.630   2.008  0.0141 -0.7357 -1.1764
14317TIP3    H264367   6.532   3.517   2.022  0.0423 -0.5749 -0.0109
14318TIP3   OH264368   3.527   4.886   6.845 -0.1184  0.1657  0.1012
14318TIP3    H164369   3.472   4.823   6.799  1.4922 -1.4191  0.2306
14318TIP3    H264370   3.587   4.919   6.779  0.5303 -0.1933  0.4933
14319TIP3   OH264371   3.410   2.579  15.336 -0.3414  0.4483  0.1216
14319TIP3    H164372   3.353   2.606  15.264  0.0127 -0.1506 -0.3931
14319TIP3    H264373   3.374   2.495  15.365  0.1230  0.1869 -0.0436
14320TIP3   OH264374   3.139   6.203   3.355 -0.0135  0.5829  0.2008
14320TIP3    H164375   3.228   6.238   3.358  0.1667  0.8121 -3.1785
14320TIP3    H264376   3.106   6.232   3.270 -3.1576  0.0468  1.1283
14321TIP3   OH264377   6.763   4.935   4.753  0.0446 -0.6068 -0.5623
14321TIP3    H164378   6.729   4.863   4.701 -0.3570 -0.6109 -0.3012
14321TIP3    H264379   6.699   4.946   4.824  0.3807 -0.3519 -0.2916
14322TIP3   OH264380   2.377   5.071  12.898 -0.6337 -0.0456 -0.0955
14322TIP3    H164381   2.414   5.149  12.940  2.6889 -1.1253 -0.6893
14322TIP3    H264382   2.351   5.015  12.971  1.3169 -0.2347  0.5180
14323TIP3   OH264383   2.705   1.411   6.286  0.4899  0.5043 -0.0576
14323TIP3    H164384   2.671   1.459   6.361 -2.0320  0.3034 -0.9699
14323TIP3    H264385   2.693   1.471   6.212  1.6919  0.2024 -0.5189
14324TIP3   OH264386   5.114   3.774   0.151 -0.1528  0.1142 -0.3053
14324TIP3    H164387   5.167   3.710   0.103  1.5138  0.3391  1.1162
14324TIP3    H264388   5.167   3.854   0.149 -0.6933  0.5125  0.6827
14325TIP3   OH264389   4.246   3.187   2.461  0.3058 -0.1648 -0.3929
14325TIP3    H164390   4.185   3.206   2.532  2.3397 -0.7853  1.6312
14325TIP3    H264391   4.254   3.270   2.414  0.8211  1.0595  1.6942
14326TIP3   OH264392   6.553   5.732  17.086  0.5029 -0.0088  0.3930
14326TIP3    H164393   6.488   5.773  17.029  0.6548 -0.2521  0.0458
14326TIP3    H264394   6.627   5.792  17.086  0.6122 -0.1429  0.1116
14327TIP3   OH264395   4.634   1.228   4.451  0.2145  0.3130 -0.8091
14327TIP3    H164396   4.699   1.208   4.384  0.2359  1.8684 -1.2868
14327TIP3    H264397   4.675   1.296   4.505  1.0339 -2.2425  2.0967
14328TIP3   OH264398   3.578   2.495  12.100 -0.0654  0.0662 -0.2388
14328TIP3    H164399   3.596   2.402  12.110 -1.1789  0.0326  2.1657
14328TIP3    H264400   3.484   2.500  12.084  0.0660  0.7731 -0.8425
14329TIP3   OH264401   3.480   2.174   4.282 -0.2355 -0.3399 -0.3034
14329TIP3    H164402   3.574   2.186   4.269 -0.2159 -0.0836  0.0823
14329TIP3    H264403   3.445   2.263   4.289 -0.6294 -0.4034 -1.2848
14330TIP3   OH264404   3.062   4.640  11.739  0.1638 -0.2939  0.1987
14330TIP3    H164405   3.005   4.643  11.815  2.1164  1.2420  1.7169
14330TIP3    H264406   3.103   4.554  11.742 -1.2464 -1.0080 -0.3227
14331TIP3   OH264407   3.468   4.577  17.111 -1.0692 -0.2317 -0.2129
14331TIP3    H164408   3.484   4.487  17.139  0.5406 -0.0631 -0.4712
14331TIP3    H264409   3.529   4.590  17.039 -1.7837  0.8560 -0.6404
14332TIP3   OH264410   1.119   4.504  15.882 -0.2290  0.0387  0.2309
14332TIP3    H164411   1.064   4.541  15.813  0.3314 -0.1224 -0.3126
14332TIP3    H264412   1.198   4.474  15.836  0.4531  0.5521  1.0387
14333TIP3   OH264413   4.430   3.999   3.153  0.0581 -0.5726  0.2166
14333TIP3    H164414   4.340   3.978   3.132 -0.4075  0.6932  0.8219
14333TIP3    H264415   4.445   4.085   3.112  0.2214  0.2963  1.9745
14334TIP3   OH264416   6.743   6.190  10.583  0.2350 -0.7173  0.1014
14334TIP3    H164417   6.759   6.252  10.654 -0.1709 -1.2083  0.6333
14334TIP3    H264418   6.830   6.156  10.560  0.5082  0.3506 -0.4828
14335TIP3   OH264419   3.539   5.829   5.235  0.3114  0.2498 -0.1694
14335TIP3    H164420   3.548   5.923   5.215 -0.9948  0.3196 -0.5734
14335TIP3    H264421   3.453   5.822   5.276  0.3695 -0.7819 -0.2009
14336TIP3   OH264422   0.921   2.228  12.658 -0.0064 -0.5223 -0.1029
14336TIP3    H164423   1.008   2.243  12.623  0.2079  0.6441  0.8532
14336TIP3    H264424   0.863   2.229  12.582  0.7775 -1.1365 -0.7242
14337TIP3   OH264425   0.683   5.888   3.615  0.1937 -0.0779  0.3039
14337TIP3    H164426   0.607   5.945   3.612  0.2122 -0.0871 -0.5049
14337TIP3    H264427   0.665   5.828   3.687 -0.3685  0.1884  0.3917
14338TIP3   OH264428   4.766   4.752   0.816 -0.0140  0.1688  0.1721
14338TIP3    H164429   4.699   4.701   0.771  0.0912  0.6850 -0.6014
14338TIP3    H264430   4.811   4.689   0.872  0.5398 -0.7643 -1.2456
14339TIP3   OH264431   2.584   3.490   0.255  0.3430  0.1185  0.0311
14339TIP3    H164432   2.627   3.547   0.191  1.5653  2.2207  2.5340
14339TIP3    H264433   2.572   3.407   0.209  0.2673  1.7570 -3.1781
14340TIP3   OH264434   2.390   4.454   0.815  0.1957  0.3889  0.5901
14340TIP3    H164435   2.459   4.468   0.879  0.3694 -1.2846  0.8088
14340TIP3    H264436   2.310   4.449   0.867  0.3425 -1.0191  0.7270
14341TIP3   OH264437   1.458   0.488   5.518 -0.0369  0.6106  0.0215
14341TIP3    H164438   1.407   0.407   5.522  0.8906 -0.1462 -1.8704
14341TIP3    H264439   1.433   0.536   5.597 -0.7882 -1.4168  1.1169
14342TIP3   OH264440   0.475   3.324  13.036 -0.0852 -0.2127 -0.4331
14342TIP3    H164441   0.547   3.263  13.053 -1.0791 -1.0166  1.1890
14342TIP3    H264442   0.509   3.384  12.970  1.7663 -1.0728 -0.3277
14343TIP3   OH264443   4.972   3.506   5.468 -0.4280 -0.0911  0.5763
14343TIP3    H164444   4.976   3.579   5.406 -0.1180 -0.9843 -0.4807
14343TIP3    H264445   5.018   3.538   5.546 -4.0831  2.5126  1.9842
14344TIP3   OH264446   1.035   5.427   3.826  0.2453  0.5996  0.4978
14344TIP3    H164447   1.057   5.349   3.776  2.9010  1.7221 -0.2078
14344TIP3    H264448   0.964   5.468   3.777  0.8641  0.1926 -0.7589
14345TIP3   OH264449   2.038   5.807   5.002 -0.2826  0.0065  0.2640
14345TIP3    H164450   2.066   5.889   4.962  1.6911 -0.2252  1.0277
14345TIP3    H264451   1.973   5.832   5.067 -0.3106  0.8671 -0.0870
14346TIP3   OH264452   2.959   5.428  12.689 -0.2555  0.0614  0.2537
14346TIP3    H164453   3.012   5.350  12.672  0.9206  1.0519 -0.8166
14346TIP3    H264454   2.968   5.481  12.610  1.2229  2.5319  1.9228
14347TIP3   OH264455   5.701   5.774  16.592 -0.0424  0.4266 -0.0275
14347TIP3    H164456   5.769   5.719  16.552  0.4987  0.9791  0.1091
14347TIP3    H264457   5.746   5.857  16.611 -0.9088  1.0208 -0.5032
14348TIP3   OH264458   1.371   4.165  16.844  0.0416  0.2186  0.4191
14348TIP3    H164459   1.399   4.145  16.755 -1.2780  0.8446 -0.1550
14348TIP3    H264460   1.320   4.089  16.871 -0.1923  0.3564  0.3629
14349TIP3   OH264461   0.238   6.267   3.163  0.2759  0.0579 -0.4178
14349TIP3    H164462   0.153   6.303   3.136 -0.2314 -1.7626 -1.3664
14349TIP3    H264463   0.287   6.256   3.082  1.2197  0.5533  0.0686
14350TIP3   OH264464   2.790   4.041   5.387  0.5240  0.2824  0.2468
14350TIP3    H164465   2.836   4.042   5.303  0.3210 -0.5758  0.1158
14350TIP3    H264466   2.855   4.006   5.448  0.2639 -0.3047  0.1909
14351TIP3   OH264467   3.345   5.366  12.222  0.1501 -0.1710 -0.2469
14351TIP3    H164468   3.315   5.445  12.268 -1.9213 -2.0662  1.9162
14351TIP3    H264469   3.314   5.377  12.132 -0.4408  1.2872  0.1075
14352TIP3   OH264470   1.743   0.618   4.151 -0.2301  0.5166 -0.2150
14352TIP3    H164471   1.690   0.630   4.072 -1.2411 -1.1299  0.1689
14352TIP3    H264472   1.805   0.550   4.129 -0.2734  0.3090  0.2887
14353TIP3   OH264473   2.043   6.129   6.422  0.1915 -0.0349 -0.0551
14353TIP3    H164474   2.019   6.215   6.387 -0.6073 -0.6285 -1.0325
14353TIP3    H264475   2.002   6.127   6.508 -2.7345 -0.6719 -1.3305
14354TIP3   OH264476   3.829   1.836   4.011  1.1363 -0.5514 -0.0086
14354TIP3    H164477   3.772   1.869   4.080  1.0050 -1.3102  0.2592
14354TIP3    H264478   3.911   1.885   4.022  1.6159 -1.6124  1.5845
14355TIP3   OH264479   3.938   4.723   6.059  0.2667  0.3040 -0.5896
14355TIP3    H164480   3.891   4.658   6.111  1.1531 -0.6975 -0.9813
14355TIP3    H264481   3.993   4.770   6.122  1.4167 -0.9730 -0.5947
14356TIP3   OH264482   2.899   3.936   2.969  0.3744 -0.3261 -0.1068
14356TIP3    H164483   2.875   3.874   3.038 -2.6484 -1.5812 -2.0540
14356TIP3    H264484   2.962   3.889   2.915  0.1889 -0.6263 -0.0617
14357TIP3   OH264485   0.807   0.135   0.852  0.3504 -0.3968 -0.7037
14357TIP3    H164486   0.715   0.108   0.843 -0.1574  0.8334  0.3101
14357TIP3    H264487   0.856   0.072   0.801 -0.9374 -1.9482 -0.1318
14358TIP3   OH264488   5.332   0.916   3.366 -0.2241  0.7195  0.1892
14358TIP3    H164489   5.274   0.984   3.331 -0.1997  1.3010  1.2314
14358TIP3    H264490   5.281   0.875   3.436  0.8576  1.7554  1.6510
14359TIP3   OH264491   2.648   4.813   5.626 -0.2365  0.0301  0.1823
14359TIP3    H164492   2.665   4.778   5.714 -0.7831 -1.1878 -0.1870
14359TIP3    H264493   2.554   4.831   5.625 -0.8697 -2.7995 -1.0920
14360TIP3   OH264494   2.565   2.341   1.857  0.1781 -0.2983 -0.4869
14360TIP3    H164495   2.629   2.411   1.873  2.1525 -2.1220  0.0679
14360TIP3    H264496   2.541   2.310   1.943  2.0917 -2.5923 -0.6766
14361TIP3   OH264497   3.011   5.919  13.508 -0.3197 -0.3137 -0.0706
14361TIP3    H164498   3.060   5.989  13.551  3.0221 -2.3795 -0.1118
14361TIP3    H264499   2.957   5.882  13.578  1.1113 -0.3500  1.0625
14362TIP3   OH264500   2.818   6.281  11.867 -0.5891  0.2401  0.4554
14362TIP3    H164501   2.752   6.216  11.891 -4.3812  2.6506 -2.3022
14362TIP3    H264502   2.854   6.310  11.951  0.0003 -3.9191  1.8745
14363TIP3   OH264503   4.334   0.171   1.548  0.3567 -0.7363 -0.0193
14363TIP3    H164504   4.420   0.146   1.515  0.0970 -1.0952 -0.4284
14363TIP3    H264505   4.310   0.248   1.497  1.2132  0.4873  1.3275
14364TIP3   OH264506   3.137   0.950  16.888  0.3321 -0.2599 -0.2039
14364TIP3    H164507   3.074   1.010  16.847 -0.3243 -0.3972  0.5718
14364TIP3    H264508   3.198   0.927  16.818 -1.1428 -1.0184 -1.2815
14365TIP3   OH264509   0.918   1.327  15.220  0.2858 -0.4470  0.3331
14365TIP3    H164510   0.932   1.359  15.309 -1.2715  2.1015 -0.2477
14365TIP3    H264511   0.917   1.405  15.166  0.6086 -1.8872 -1.8909
14366TIP3   OH264512   3.086   3.432   4.592 -0.4818 -0.2572  0.2005
14366TIP3    H164513   3.046   3.345   4.597  0.7634 -0.9915 -1.8578
14366TIP3    H264514   3.028   3.487   4.646 -1.0811 -2.3917  1.8794
14367TIP3   OH264515   5.866   5.032   5.195 -0.1370 -0.2383  0.2460
14367TIP3    H164516   5.849   4.951   5.242 -0.0034 -0.2611  0.2541
14367TIP3    H264517   5.906   5.004   5.112  0.8158 -0.1314  0.6558
14368TIP3   OH264518   5.870   5.111   4.417 -0.4338  0.0089 -0.2434
14368TIP3    H164519   5.799   5.048   4.429 -1.1635  0.7564 -0.5362
14368TIP3    H264520   5.845   5.162   4.340 -1.4689  2.7088  1.7080
14369TIP3   OH264521   3.008   3.230   2.483 -0.0853 -0.0843  0.6734
14369TIP3    H164522   3.092   3.252   2.523 -0.3294  0.1815  1.0502
14369TIP3    H264523   2.982   3.148   2.526 -0.9231  0.8298  1.9635
14370TIP3   OH264524   2.408   1.597  15.610  0.3669  0.7362  0.4394
14370TIP3    H164525   2.367   1.576  15.526 -0.4178  1.3423  0.6573
14370TIP3    H264526   2.500   1.574  15.598  0.6388  2.4094 -1.1781
14371TIP3   OH264527   0.737   2.507  14.517  0.5156  0.7282  0.0693
14371TIP3    H164528   0.646   2.534  14.504  0.8596  0.4975 -3.9359
14371TIP3    H264529   0.788   2.588  14.510  0.7596  0.5842  0.1445
14372TIP3   OH264530   4.145   2.955  14.042 -0.3641 -0.3272  0.2212
14372TIP3    H164531   4.153   2.942  13.948  0.4243 -0.2542  0.2688
14372TIP3    H264532   4.225   3.003  14.066 -0.4768 -0.4942  0.9470
14373TIP3   OH264533   0.114   0.965  12.275 -0.4174 -0.0994 -0.2029
14373TIP3    H164534   0.028   1.003  12.254 -0.7111 -0.2609  0.6589
14373TIP3    H264535   0.096   0.872  12.288 -0.2471 -0.0139  0.6944
14374TIP3   OH264536   0.215   0.296   2.945 -0.4726 -0.1108 -0.3304
14374TIP3    H164537   0.245   0.221   2.997 -0.3715 -0.2639 -0.6037
14374TIP3    H264538   0.215   0.370   3.006 -0.6935 -0.3601 -0.0294
14375TIP3   OH264539   2.029   5.971  13.728  0.3890 -0.2070  0.2361
14375TIP3    H164540   1.999   5.899  13.672  1.0945 -0.2962 -0.0288
14375TIP3    H264541   2.058   6.039  13.667  0.4029  0.0192  0.4923
14376TIP3   OH264542   2.629   2.080  13.452  0.1772 -0.3508  0.0610
14376TIP3    H164543   2.537   2.072  13.429  0.2166  0.2590 -0.3441
14376TIP3    H264544   2.632   2.068  13.547 -0.5900  1.6108  0.3806
14377TIP3   OH264545   2.084   1.059   2.713 -0.6432 -0.3232 -0.3466
14377TIP3    H164546   2.082   0.966   2.689 -1.4281  0.0083 -1.6822
14377TIP3    H264547   2.170   1.071   2.754  0.1108 -1.3182 -1.5372
14378TIP3   OH264548   5.329   0.747  13.648  0.3163 -0.0072 -0.1438
14378TIP3    H164549   5.358   0.670  13.599 -0.5765  0.1789 -0.9934
14378TIP3    H264550   5.395   0.814  13.629  0.3588 -0.1508 -0.5087
14379TIP3   OH264551   2.044   4.314  15.213  0.0224 -0.2112 -0.1906
14379TIP3    H164552   2.069   4.233  15.257 -1.3105 -0.1917  0.6566
14379TIP3    H264553   1.982   4.286  15.145 -0.6145  0.1108  0.2514
14380TIP3   OH264554   4.985   3.515  14.431 -0.2398 -0.6393  0.4227
14380TIP3    H164555   4.927   3.493  14.504  0.0109 -1.2724  0.4344
14380TIP3    H264556   4.931   3.505  14.353 -1.4205  2.8754  0.6028
14381TIP3   OH264557   6.398   0.172  10.502 -0.4095  0.1833 -0.3089
14381TIP3    H164558   6.391   0.083  10.537  0.3118  0.4331  0.4988
14381TIP3    H264559   6.478   0.171  10.450 -0.4878  0.3155 -0.4313
14382TIP3   OH264560   1.632   5.186   2.445  0.6829  0.3960  0.7585
14382TIP3    H164561   1.603   5.272   2.416  0.4518  0.1670  0.2852
14382TIP3    H264562   1.727   5.188   2.436  0.5363 -0.1698 -1.5389
14383TIP3   OH264563   5.385   0.692  10.261  0.0547  0.1426  0.1134
14383TIP3    H164564   5.422   0.625  10.319 -0.7406  0.6354  1.2346
14383TIP3    H264565   5.461   0.741  10.229  0.5700 -0.6954  0.0338
14384TIP3   OH264566   4.311   5.370  16.311  0.8966 -0.3205 -0.1500
14384TIP3    H164567   4.314   5.394  16.218 -0.6295  1.5022  0.2165
14384TIP3    H264568   4.245   5.301  16.315 -0.7522  1.1779 -0.1771
14385TIP3   OH264569   1.785   4.985   1.884  0.2982 -0.5199 -0.0740
14385TIP3    H164570   1.717   5.005   1.949  0.0492 -0.9002 -0.2184
14385TIP3    H264571   1.814   4.896   1.905 -1.5804 -1.6730 -2.0428
14386TIP3   OH264572   5.650   1.172  15.533 -0.1095  0.4157  0.1443
14386TIP3    H164573   5.576   1.164  15.594 -0.3311  0.9040 -0.0595
14386TIP3    H264574   5.623   1.121  15.456  0.4147 -0.6969  0.6694
14387TIP3   OH264575   4.696   4.576  12.270 -0.2463  0.8979 -0.2068
14387TIP3    H164576   4.677   4.496  12.319  1.2738  0.2815 -0.5645
14387TIP3    H264577   4.677   4.552  12.179  0.6917  0.7720 -0.3751
14388TIP3   OH264578   2.348   6.339   5.759 -0.3902 -0.0228 -0.0357
14388TIP3    H164579   2.380   6.250   5.770 -1.3115 -0.3232  0.3615
14388TIP3    H264580   2.409   6.393   5.807  0.1376 -0.4480 -0.2166
14389TIP3   OH264581   0.380   5.423   5.988 -0.5979  0.0687 -0.1383
14389TIP3    H164582   0.342   5.476   6.058 -0.4657 -0.8060  0.6283
14389TIP3    H264583   0.308   5.408   5.927 -0.7746  0.6658 -0.0802
14390TIP3   OH264584   0.374   4.724  13.444  0.0262  0.2934 -0.4562
14390TIP3    H164585   0.410   4.690  13.362  0.2996 -2.8322  0.8500
14390TIP3    H264586   0.305   4.663  13.468 -0.3861  1.4086  1.4136
14391TIP3   OH264587   6.425   4.003  14.287  0.0100  0.1279 -0.6980
14391TIP3    H164588   6.458   4.039  14.204  0.1174  4.2030  0.8840
14391TIP3    H264589   6.503   3.974  14.333  0.0621 -1.0389 -1.4617
14392TIP3   OH264590   0.887   5.575   4.327 -0.2083 -0.1178 -0.3856
14392TIP3    H164591   0.918   5.485   4.338 -1.9671 -1.1080 -2.7092
14392TIP3    H264592   0.881   5.587   4.232  1.4073  3.0233 -0.2174
14393TIP3   OH264593   4.042   4.879  12.384  0.3002 -0.7239 -0.7518
14393TIP3    H164594   3.979   4.897  12.314  0.4189 -1.0022 -0.9281
14393TIP3    H264595   3.999   4.813  12.439 -0.8987  1.2766  0.8974
14394TIP3   OH264596   1.297   3.496   2.602 -0.2936  0.1695  0.1339
14394TIP3    H164597   1.251   3.565   2.553 -3.1099 -1.4837  0.2340
14394TIP3    H264598   1.293   3.420   2.545  1.7875 -0.2525  0.4851
14395TIP3   OH264599   4.946   4.288   1.630 -0.5482 -1.1979 -0.2091
14395TIP3    H164600   4.907   4.289   1.718 -1.3699  0.1609 -0.5513
14395TIP3    H264601   4.953   4.195   1.608 -2.2549 -1.5320  0.4797
14396TIP3   OH264602   2.761   6.319  11.610  0.1324  0.4261 -0.1477
14396TIP3    H164603   2.747   6.228  11.584 -1.2032  0.9406 -1.4201
14396TIP3    H264604   2.782   6.315  11.703  0.6453 -1.2143 -0.3056
14397TIP3   OH264605   3.317   4.310  15.726 -0.3748 -0.3867  0.3731
14397TIP3    H164606   3.400   4.344  15.691 -1.1544  0.3551 -0.8150
14397TIP3    H264607   3.342   4.265  15.807  0.8194  2.6812  1.8936
14398TIP3   OH264608   0.635   2.087  15.661  0.1072  0.6171 -0.2461
14398TIP3    H164609   0.637   2.008  15.714 -2.3308  0.3617 -0.4537
14398TIP3    H264610   0.673   2.060  15.577 -2.4097 -0.9443 -0.9888
14399TIP3   OH264611   4.032   1.742  16.871  0.3914 -0.0927 -0.0255
14399TIP3    H164612   3.962   1.806  16.859 -1.2239 -1.7666 -0.0873
14399TIP3    H264613   4.089   1.781  16.937  0.1203  1.8858 -0.8870
14400TIP3   OH264614   2.288   1.981  15.457  0.5216 -0.3368 -0.1762
14400TIP3    H164615   2.225   1.971  15.386  2.3470 -2.6023 -1.6032
14400TIP3    H264616   2.310   2.075  15.457 -0.5917 -0.0489 -1.6117
14401TIP3   OH264617   4.383   0.385   4.433 -0.2879 -0.4094 -0.0966
14401TIP3    H164618   4.358   0.296   4.410 -0.3718 -0.1987 -0.8551
14401TIP3    H264619   4.471   0.396   4.397  0.1079 -0.4919  0.8210
14402TIP3   OH264620   0.057   6.427  16.748 -0.0297 -0.4797 -0.9186
14402TIP3    H164621   0.027   6.411  16.838 -0.8831  1.4167 -0.8353
14402TIP3    H264622   0.041   6.344  16.703 -2.0359 -0.6740  0.0482
14403TIP3   OH264623   4.540   3.919  17.040 -0.2579 -0.5694 -0.2830
14403TIP3    H164624   4.470   3.909  16.975 -1.1666  0.7963  0.4489
14403TIP3    H264625   4.541   3.836  17.087 -2.3318 -0.1529  0.5787
14404TIP3   OH264626   1.192   3.570  17.196  0.8393  0.1384  0.1358
14404TIP3    H164627   1.249   3.607  17.128 -1.2148  0.6600 -1.4142
14404TIP3    H264628   1.136   3.508  17.148  1.5677 -2.0857  1.9939
14405TIP3   OH264629   1.265   0.931  14.959  0.3345 -0.2787 -0.3490
14405TIP3    H164630   1.228   0.956  14.874  0.1070 -2.2737 -0.8946
14405TIP3    H264631   1.353   0.901  14.938  0.4097 -0.4273  0.1799
14406TIP3   OH264632   4.026   5.824   5.596 -0.2689  0.2103 -0.3907
14406TIP3    H164633   4.039   5.918   5.604 -1.0607  0.2667  0.4631
14406TIP3    H264634   4.089   5.796   5.529 -1.3153  1.6348 -2.0614
14407TIP3   OH264635   5.135   4.859   2.781 -0.1051  0.0825 -0.5090
14407TIP3    H164636   5.144   4.837   2.689  0.1950  1.8169 -0.9328
14407TIP3    H264637   5.086   4.786   2.819  0.5658 -1.0966 -1.8308
14408TIP3   OH264638   4.515   0.611  14.632 -0.2402  0.0275  0.2413
14408TIP3    H164639   4.542   0.697  14.666 -2.8614  1.3471 -0.6979
14408TIP3    H264640   4.530   0.617  14.538 -1.3362 -0.1360  0.0408
14409TIP3   OH264641   4.083   2.851  10.808 -0.0478  0.3024 -0.3626
14409TIP3    H164642   4.173   2.862  10.838  0.0038  1.3446 -0.8569
14409TIP3    H264643   4.032   2.908  10.866 -0.4394 -0.5530  0.1419
14410TIP3   OH264644   1.187   3.985  17.158 -0.2181 -0.0688 -0.5669
14410TIP3    H164645   1.173   3.913  17.096  0.9518  0.7605 -1.8728
14410TIP3    H264646   1.109   4.040  17.150 -0.4489 -0.4167 -0.6854
14411TIP3   OH264647   4.565   2.482   4.914  0.4731  0.2836  0.4837
14411TIP3    H164648   4.580   2.388   4.920 -0.8887  0.0089 -0.0703
14411TIP3    H264649   4.652   2.521   4.913  1.0669 -1.0261 -0.0860
14412TIP3   OH264650   1.673   2.125   1.074  0.3820 -0.1670 -0.2401
14412TIP3    H164651   1.767   2.109   1.067  0.6547  0.8583  0.9302
14412TIP3    H264652   1.655   2.194   1.010  0.1049 -1.4476 -1.6136
14413TIP3   OH264653   2.235   6.764  16.423  0.0811 -0.5595 -0.2176
14413TIP3    H164654   2.172   6.692  16.418  0.2949 -0.7801  0.2753
14413TIP3    H264655   2.317   6.723  16.450  0.1458 -0.1015  0.2962
14414TIP3   OH264656   0.407   1.888   5.301  0.1341  0.3646 -0.1985
14414TIP3    H164657   0.447   1.973   5.283 -1.2757  0.8907 -1.0309
14414TIP3    H264658   0.480   1.826   5.303  1.2846  1.7049  1.3250
14415TIP3   OH264659   0.527   4.634   1.535  0.4155 -0.2430 -0.2033
14415TIP3    H164660   0.480   4.614   1.616  0.0388  1.3787  0.0306
14415TIP3    H264661   0.601   4.688   1.563  0.6316 -0.1767 -0.8797
14416TIP3   OH264662   4.200   1.103   2.735 -1.0160  0.0143  1.1426
14416TIP3    H164663   4.243   1.022   2.762 -2.6756 -0.9699  1.0298
14416TIP3    H264664   4.208   1.161   2.811 -2.2041 -1.3033  2.3526
14417TIP3   OH264665   0.384   6.570  15.438 -0.2989  0.5485 -0.0897
14417TIP3    H164666   0.347   6.625  15.369 -1.9097 -1.3530 -0.8075
14417TIP3    H264667   0.430   6.501  15.391  1.1239  0.8456  0.8029
14418TIP3   OH264668   0.530   0.540   4.775 -0.7156 -0.6148  0.1702
14418TIP3    H164669   0.444   0.513   4.744 -1.0077  0.1587  0.2870
14418TIP3    H264670   0.584   0.461   4.769 -1.3545 -1.0290 -0.1775
14419TIP3   OH264671   2.303   5.717  12.752  0.0765  0.1462 -0.4954
14419TIP3    H164672   2.397   5.731  12.752  0.1787 -0.5455 -0.2780
14419TIP3    H264673   2.289   5.644  12.812 -0.3984 -1.1418 -2.1071
14420TIP3   OH264674   5.927   5.706  13.047  0.3740  0.5772 -0.2860
14420TIP3    H164675   5.865   5.677  12.980 -0.8299  0.8908  0.6680
14420TIP3    H264676   5.873   5.744  13.116  1.3314 -1.9532  2.0412
14421TIP3   OH264677   2.203   0.418   3.784 -0.0145  0.1994  0.4093
14421TIP3    H164678   2.236   0.331   3.806  1.0717  0.4872 -0.0253
14421TIP3    H264679   2.232   0.473   3.856 -1.6097  0.0409  1.2319
14422TIP3   OH264680   0.793   2.899   3.724  0.3164 -0.0224  0.0886
14422TIP3    H164681   0.770   2.925   3.814 -1.9861 -0.1173 -0.4027
14422TIP3    H264682   0.888   2.889   3.725  0.5435  1.7674  2.0385
14423TIP3   OH264683   0.755   0.024  16.722  0.1930 -0.6211  0.3787
14423TIP3    H164684   0.663   0.028  16.697 -0.3545 -0.1876  2.3128
14423TIP3    H264685   0.770   0.106  16.770  0.9200 -1.7496  2.1534
14424TIP3   OH264686   5.574   5.365   3.662  0.1647  0.1948  0.4544
14424TIP3    H164687   5.584   5.270   3.673 -1.7206 -0.0575  0.4663
14424TIP3    H264688   5.647   5.391   3.605  0.1354 -1.4538 -0.4099
14425TIP3   OH264689   0.774   6.246  15.480 -0.3126  0.3787 -0.2203
14425TIP3    H164690   0.682   6.263  15.460 -0.8682 -0.9788  1.0283
14425TIP3    H264691   0.794   6.165  15.434  0.1508  0.4437 -0.1357
14426TIP3   OH264692   5.397   4.370   2.578 -0.5469 -0.6275 -0.0201
14426TIP3    H164693   5.345   4.450   2.582 -0.6356 -0.7213  1.4095
14426TIP3    H264694   5.486   4.399   2.558 -0.5623 -0.1484  0.5701
14427TIP3   OH264695   3.083   0.815   4.244  1.5137 -0.2444  0.1094
14427TIP3    H164696   3.091   0.883   4.177  0.6762 -0.7869 -0.5600
14427TIP3    H264697   3.139   0.845   4.316  1.3489  1.0223 -0.2758
14428TIP3   OH264698   1.642   1.395  15.140  0.0674 -0.2225  0.0409
14428TIP3    H164699   1.581   1.322  15.135  0.1731 -0.3864  0.9969
14428TIP3    H264700   1.715   1.369  15.084 -0.8725  0.1373 -1.4068
14429TIP3   OH264701   4.410   1.426   2.868 -0.1678  0.2797 -0.1916
14429TIP3    H164702   4.484   1.474   2.832 -1.4383  2.4037 -0.1167
14429TIP3    H264703   4.333   1.470   2.833 -1.4312 -1.6205  0.0365
14430TIP3   OH264704   4.353   2.186   0.833 -0.5803 -0.8572 -0.0649
14430TIP3    H164705   4.313   2.236   0.761 -0.1313  0.0880  0.3190
14430TIP3    H264706   4.353   2.096   0.802 -2.0786 -0.7441 -0.4891
14431TIP3   OH264707   1.060   6.736   3.124 -0.4310 -0.1412  0.6062
14431TIP3    H164708   1.052   6.697   3.211  0.2374  0.1577  0.8060
14431TIP3    H264709   0.970   6.742   3.092 -0.5164 -3.2190 -0.0608
14432TIP3   OH264710   2.857   2.174  12.435 -0.4873 -0.3205 -0.5020
14432TIP3    H164711   2.847   2.080  12.418 -0.7011 -0.5842  0.9973
14432TIP3    H264712   2.774   2.213  12.407  0.7843  0.0135 -4.5154
14433TIP3   OH264713   0.378   4.425   2.771 -0.5366  0.3460 -0.1428
14433TIP3    H164714   0.444   4.420   2.702 -1.6130 -0.7746 -1.1351
14433TIP3    H264715   0.411   4.368   2.840 -0.4443 -0.1884 -0.6231
14434TIP3   OH264716   4.500   4.676  12.775  0.1597 -0.0201 -0.3478
14434TIP3    H164717   4.549   4.626  12.710  0.8464  0.2754 -0.0665
14434TIP3    H264718   4.420   4.626  12.790 -0.7336  0.6543 -2.5258
14435TIP3   OH264719   3.925   1.463   2.710 -0.7108 -0.6280  0.5362
14435TIP3    H164720   3.952   1.385   2.759  1.0309 -1.6216 -1.7902
14435TIP3    H264721   4.002   1.520   2.711 -0.6194 -0.6777 -0.9393
14436TIP3   OH264722   3.591   4.356  14.114 -0.4613  0.2959  0.5159
14436TIP3    H164723   3.512   4.395  14.154 -1.7791 -1.1918 -0.5378
14436TIP3    H264724   3.598   4.270  14.155 -0.1432 -0.0992 -0.3618
14437TIP3   OH264725   3.692   2.450   5.533  0.4003  0.0200 -0.0922
14437TIP3    H164726   3.631   2.518   5.507  0.0974 -0.1641  0.1351
14437TIP3    H264727   3.754   2.444   5.459 -0.8218 -0.9469 -1.0874
14438TIP3   OH264728   5.465   4.804  10.534 -0.2668  0.1379 -0.8008
14438TIP3    H164729   5.447   4.711  10.542  0.9964  0.0649  2.1709
14438TIP3    H264730   5.393   4.847  10.580  0.5861  0.4337  0.3167
14439TIP3   OH264731   5.250   3.268   4.940 -0.3464 -0.1936 -0.4898
14439TIP3    H164732   5.248   3.290   4.847 -0.1439 -1.1998 -0.7347
14439TIP3    H264733   5.248   3.353   4.984  0.8435  0.3482 -1.4287
14440TIP3   OH264734   0.250   6.324  12.902  0.2161  0.7096  0.1389
14440TIP3    H164735   0.327   6.283  12.862 -0.1509 -0.9823  1.0502
14440TIP3    H264736   0.219   6.259  12.965 -1.6528  1.5697  0.1675
14441TIP3   OH264737   3.854   5.704  17.233 -0.2929  0.4139 -0.1653
14441TIP3    H164738   3.899   5.737  17.311  0.2847  1.2598 -0.8367
14441TIP3    H264739   3.907   5.631  17.203 -1.4509 -1.0786  1.1952
14442TIP3   OH264740   1.316   5.832   0.476 -0.3215  0.5677  0.0189
14442TIP3    H164741   1.356   5.869   0.554 -0.5998  0.8920  0.0134
14442TIP3    H264742   1.223   5.856   0.483 -0.0830  1.9925 -1.1947
14443TIP3   OH264743   0.977   6.467  15.858 -0.6993 -1.0512  0.3057
14443TIP3    H164744   0.913   6.479  15.788 -0.3826 -1.7669 -0.1116
14443TIP3    H264745   1.050   6.422  15.817  0.0991 -0.2236  0.7776
14444TIP3   OH264746   3.628   3.071   0.373  0.2781 -0.9951 -0.8649
14444TIP3    H164747   3.549   3.125   0.382 -0.5308 -2.2455 -0.2323
14444TIP3    H264748   3.664   3.066   0.462  0.7304 -0.9556 -1.0418
14445TIP3   OH264749   5.807   3.417   3.379 -0.3159 -1.0459  0.2412
14445TIP3    H164750   5.824   3.507   3.353  0.0661 -1.0441  0.4915
14445TIP3    H264751   5.820   3.366   3.298 -2.0192 -0.7236 -0.2749
14446TIP3   OH264752   3.201   0.198  17.328 -0.0196  0.4518  0.4504
14446TIP3    H164753   3.244   0.190  17.243 -0.3381  0.0191  0.3216
14446TIP3    H264754   3.254   0.144  17.387  0.1801  0.7220  0.5178
14447TIP3   OH264755   5.543   4.749  16.366  0.1288  0.4821  0.4081
14447TIP3    H164756   5.570   4.816  16.429  1.9490  0.9228 -0.7819
14447TIP3    H264757   5.545   4.793  16.281  0.0648 -0.7272 -0.2416
14448TIP3   OH264758   3.564   3.215   0.014  0.0238  0.4862  0.8456
14448TIP3    H164759   3.620   3.192  -0.061 -1.7811 -1.0307 -0.1121
14448TIP3    H264760   3.559   3.134   0.066 -2.0364  0.2645  0.3753
14449TIP3   OH264761   5.167   1.077   4.188 -0.1749  0.0123  0.1219
14449TIP3    H164762   5.234   1.044   4.248 -0.8098  0.6185  1.1696
14449TIP3    H264763   5.216   1.103   4.110  0.6650 -0.6945  0.4032
14450TIP3   OH264764   5.430   4.994  12.143  0.7093  0.2774 -0.2422
14450TIP3    H164765   5.512   4.999  12.191  0.2094  2.3699  0.4904
14450TIP3    H264766   5.410   4.901  12.138  3.0998 -0.2797 -0.4379
14451TIP3   OH264767   5.364   1.208  14.735  0.1469  0.2529 -0.1871
14451TIP3    H164768   5.387   1.230  14.826 -0.3962 -1.0258  0.2862
14451TIP3    H264769   5.408   1.274  14.683  1.2720  0.4610  0.9609
14452TIP3   OH264770   4.629   0.686  13.434  0.1561 -0.5062 -0.6795
14452TIP3    H164771   4.614   0.607  13.383  1.1921 -2.5202  1.9077
14452TIP3    H264772   4.700   0.663  13.493 -1.8207  1.1424  2.6076
14453TIP3   OH264773   0.500   3.237   4.345  0.6325  0.3418  0.0120
14453TIP3    H164774   0.516   3.323   4.385  1.3202 -0.0763  0.6620
14453TIP3    H264775   0.407   3.220   4.360  0.8982  0.1293  1.6086
14454TIP3   OH264776   1.313   4.010  15.957 -0.3195  0.3014 -0.8426
14454TIP3    H164777   1.394   4.057  15.938 -1.0403  1.0653 -2.1172
14454TIP3    H264778   1.318   3.991  16.051 -0.1428  3.2215 -0.1915
14455TIP3   OH264779   0.684   5.638  14.644 -0.0439  0.3838  0.1744
14455TIP3    H164780   0.631   5.648  14.724 -0.1270 -2.6425  0.6024
14455TIP3    H264781   0.621   5.609  14.578  0.6341 -0.6140 -0.0347
14456TIP3   OH264782   4.792   0.497   1.966 -0.3105  0.1537 -0.2193
14456TIP3    H164783   4.699   0.503   1.986  0.0031  1.6911  1.0383
14456TIP3    H264784   4.803   0.548   1.886 -0.2176  2.4749  1.1533
14457TIP3   OH264785   4.241   0.083  16.375 -0.6369  0.3853 -0.2141
14457TIP3    H164786   4.305   0.142  16.335 -1.0734  1.3554  0.4816
14457TIP3    H264787   4.277  -0.005  16.361  1.6103  0.9641  1.4725
14458TIP3   OH264788   4.291   2.949  15.663  0.5415 -0.2060 -0.1475
14458TIP3    H164789   4.340   2.961  15.582  1.5258 -1.7469  0.1794
14458TIP3    H264790   4.244   2.867  15.652 -1.0138  0.5965  0.0581
14459TIP3   OH264791   1.019   2.118  17.021  0.1790  0.1915 -0.6429
14459TIP3    H164792   0.926   2.097  17.021  0.0602  0.5322  1.2416
14459TIP3    H264793   1.052   2.082  17.103  1.6589  0.3010 -1.1602
14460TIP3   OH264794   1.888   0.391  17.072  0.3001  0.1877  0.1225
14460TIP3    H164795   1.970   0.391  17.022  0.1210 -0.9318 -0.2028
14460TIP3    H264796   1.914   0.412  17.161  0.8661  0.3484 -0.0724
14461TIP3   OH264797   0.519   3.579  11.166 -0.0033  0.8719 -0.2783
14461TIP3    H164798   0.494   3.493  11.132  0.1815  0.9184 -0.5379
14461TIP3    H264799   0.586   3.610  11.105  0.0009  1.1575 -0.1300
14462TIP3   OH264800   2.888   3.403  11.542  0.3936 -0.0054  0.1363
14462TIP3    H164801   2.888   3.307  11.548  1.1430 -0.0083  0.1842
14462TIP3    H264802   2.954   3.423  11.476 -0.8299  0.4230 -0.9910
14463TIP3   OH264803   5.899   6.248   5.223  0.3433  0.4814  0.5183
14463TIP3    H164804   5.925   6.216   5.137  0.4715  0.9755  0.3683
14463TIP3    H264805   5.974   6.298   5.254  0.4379 -0.0008  1.0816
14464TIP3   OH264806   5.146   3.356  13.358  0.5575  0.0679  0.4006
14464TIP3    H164807   5.192   3.427  13.401  1.6653 -0.5306  0.2478
14464TIP3    H264808   5.215   3.294  13.333 -0.4702 -1.8424  1.9499
14465TIP3   OH264809   3.885   3.228   1.296 -0.5044 -0.1042  0.0754
14465TIP3    H164810   3.965   3.182   1.275  0.1426  0.6539  0.7962
14465TIP3    H264811   3.829   3.162   1.338  0.2886 -0.3078  0.8356
14466TIP3   OH264812   1.021   5.828   4.361  1.0798  0.2465 -0.3567
14466TIP3    H164813   0.996   5.866   4.445  1.1227  2.9813 -1.4982
14466TIP3    H264814   0.958   5.756   4.348  0.7104  0.1447  1.7014
14467TIP3   OH264815   0.880   6.110  16.921  0.0497 -0.9834  0.6304
14467TIP3    H164816   0.857   6.119  16.829  0.1948  1.0787  0.7490
14467TIP3    H264817   0.974   6.127  16.925  0.3698 -2.6743  0.9855
14468TIP3   OH264818   1.313   3.039   2.775  0.0295 -0.1759 -0.5342
14468TIP3    H164819   1.390   2.995   2.810  0.5194  0.0629 -1.2796
14468TIP3    H264820   1.319   3.129   2.808  0.9647  0.2904 -1.9055
14469TIP3   OH264821   3.702   5.169  13.867 -0.3027  0.1522 -0.3466
14469TIP3    H164822   3.710   5.200  13.777  0.1439 -2.0300 -1.1286
14469TIP3    H264823   3.757   5.090  13.870 -2.4958 -1.4239  1.0405
14470TIP3   OH264824   4.569   5.790  11.932  0.1005 -0.3801 -0.4784
14470TIP3    H164825   4.538   5.866  11.981 -1.2510 -1.4153  0.3242
14470TIP3    H264826   4.572   5.820  11.841 -2.1241  0.1653 -0.4382
14471TIP3   OH264827   5.965   0.274   4.265  0.2150  0.1997 -0.4029
14471TIP3    H164828   5.903   0.229   4.323  0.3899 -0.3785 -0.6591
14471TIP3    H264829   6.026   0.317   4.325 -0.1970  0.4351 -0.1519
14472TIP3   OH264830   4.046   0.123   4.888  0.8722 -0.3805 -0.4639
14472TIP3    H164831   4.021   0.205   4.844  2.9061  0.1202 -0.7855
14472TIP3    H264832   4.010   0.132   4.976  0.8209  0.7360 -0.5743
14473TIP3   OH264833   1.255   4.403   4.726 -0.2808 -0.1158 -0.1441
14473TIP3    H164834   1.283   4.402   4.634  0.4725  0.0926  0.0763
14473TIP3    H264835   1.223   4.315   4.742 -1.5846  0.1839 -0.9507
14474TIP3   OH264836   2.309   0.660  11.714  0.5007  0.1720  0.0503
14474TIP3    H164837   2.332   0.654  11.621  1.1077 -0.4647  0.2310
14474TIP3    H264838   2.214   0.675  11.715  0.4180 -0.2708 -0.6651
14475TIP3   OH264839   4.860   1.901  12.981 -0.1792  0.2334  0.1208
14475TIP3    H164840   4.853   1.821  12.929  0.2215  0.6089 -0.5249
14475TIP3    H264841   4.870   1.971  12.917 -2.1949  1.0229  0.5887
14476TIP3   OH264842   5.588   1.145  10.747 -0.4973 -0.4071  0.5963
14476TIP3    H164843   5.518   1.132  10.683 -0.9101  2.6026  0.3212
14476TIP3    H264844   5.659   1.185  10.697 -0.2931  0.6872  1.7225
14477TIP3   OH264845   6.258   3.645   0.414 -0.2929  0.2772  0.2402
14477TIP3    H164846   6.184   3.672   0.469  0.8735  0.4773  1.7897
14477TIP3    H264847   6.290   3.727   0.375  0.3681  0.5124  1.2334
14478TIP3   OH264848   5.727   6.058   4.449  0.7791 -0.2135  0.3880
14478TIP3    H164849   5.692   6.088   4.533 -0.7874 -3.0383  0.8586
14478TIP3    H264850   5.651   6.030   4.399  1.9295 -1.2828 -0.8526
14479TIP3   OH264851   3.085   2.202  15.596  0.4067 -0.0802  0.0533
14479TIP3    H164852   3.111   2.202  15.688  1.9896 -0.9488 -0.3625
14479TIP3    H264853   2.992   2.179  15.598  0.5798 -0.7572  1.4010
14480TIP3   OH264854   4.340   0.411  13.785  0.3726 -0.0819  0.6399
14480TIP3    H164855   4.401   0.437  13.716 -0.0840  1.2625  0.7031
14480TIP3    H264856   4.361   0.470  13.858  0.5342 -1.1642  1.4866
14481TIP3   OH264857   1.919   5.009   1.096 -0.3021  0.2164  0.1663
14481TIP3    H164858   1.823   5.008   1.095 -0.3096  0.9291  0.0214
14481TIP3    H264859   1.942   4.962   1.176 -0.7455 -1.1646 -0.4897
14482TIP3   OH264860   4.256   0.158   3.054  0.2922  0.5809  0.5499
14482TIP3    H164861   4.337   0.115   3.028  1.0108  1.6470  0.9405
14482TIP3    H264862   4.202   0.159   2.975  0.9006  0.3739  0.1303
14483TIP3   OH264863   4.228   5.648  14.737  0.3643 -0.4095 -0.3737
14483TIP3    H164864   4.229   5.590  14.813 -0.7156 -0.9144 -0.7176
14483TIP3    H264865   4.317   5.643  14.701  1.2244  0.6541  1.4164
14484TIP3   OH264866   3.920   4.883  17.105  0.3192  0.1438  0.6688
14484TIP3    H164867   3.886   4.922  17.025  0.3402  0.7023  0.9288
14484TIP3    H264868   3.860   4.913  17.174  0.6732  0.1989  0.9593
14485TIP3   OH264869   3.010   2.769  12.519  0.3323  0.2387  0.4161
14485TIP3    H164870   3.069   2.702  12.553 -1.9430 -1.2786  1.6848
14485TIP3    H264871   2.942   2.778  12.587 -0.7804  2.0616 -0.8191
14486TIP3   OH264872   3.457   1.177  12.012  0.3273 -0.7430  0.7754
14486TIP3    H164873   3.372   1.180  12.056  0.5756 -1.9758  1.3949
14486TIP3    H264874   3.514   1.231  12.068 -0.6013  2.4279 -1.1013
14487TIP3   OH264875   2.307   2.911   5.943  0.1969 -0.5761 -0.3756
14487TIP3    H164876   2.340   2.829   5.905  0.0619 -1.2050  0.8085
14487TIP3    H264877   2.278   2.886   6.031  0.3419  0.7888  0.0762
14488TIP3   OH264878   0.673   5.466   2.177  1.0889 -0.3245 -0.6376
14488TIP3    H164879   0.760   5.435   2.204  1.1562  0.6866  0.4096
14488TIP3    H264880   0.656   5.540   2.235 -1.0188 -1.2529  0.0000
14489TIP3   OH264881   5.602   5.803   5.135 -0.4068 -0.2016  0.2613
14489TIP3    H164882   5.627   5.873   5.196 -0.1891  0.0892 -0.1513
14489TIP3    H264883   5.537   5.752   5.183 -1.4475  0.9611  0.1591
14490TIP3   OH264884   3.857   3.960  17.167 -0.1175  0.0571 -0.0344
14490TIP3    H164885   3.877   3.974  17.260  0.3694 -0.2915 -0.0857
14490TIP3    H264886   3.854   3.865  17.158  0.0051  0.0929 -0.4188
14491TIP3   OH264887   4.562   6.716   3.303 -0.1635  0.2150  0.0958
14491TIP3    H164888   4.578   6.683   3.392  0.5540  0.7713  0.1809
14491TIP3    H264889   4.509   6.648   3.261 -0.3390 -0.1431  0.8840
14492TIP3   OH264890   3.053   3.802  17.257  0.6348 -0.3886  0.1051
14492TIP3    H164891   3.037   3.718  17.301 -1.9642 -0.4771 -0.8312
14492TIP3    H264892   3.055   3.866  17.328 -0.2195 -0.9138  0.6218
14493TIP3   OH264893   5.277   0.319  16.169 -0.0786  0.1565  0.4166
14493TIP3    H164894   5.284   0.251  16.235  0.9213  0.1132  0.2932
14493TIP3    H264895   5.205   0.292  16.113  1.6770 -2.0435 -0.9821
14494TIP3   OH264896   4.709   2.009  14.875 -0.1081 -0.4256 -0.6590
14494TIP3    H164897   4.663   1.925  14.880 -2.4114  0.8464  1.1205
14494TIP3    H264898   4.762   2.012  14.954  2.2272 -1.3105 -2.0730
14495TIP3   OH264899   2.195   3.889   0.521  0.1947 -0.7882 -0.2210
14495TIP3    H164900   2.288   3.881   0.504  0.0601  1.7980 -2.9061
14495TIP3    H264901   2.154   3.890   0.435 -1.8646  2.0479  0.6222
14496TIP3   OH264902   6.465   6.185  14.294 -0.3533  0.6121 -0.1945
14496TIP3    H164903   6.496   6.275  14.305 -1.2444  0.7440  1.5571
14496TIP3    H264904   6.371   6.189  14.311 -0.3123 -0.7211  0.5545
14497TIP3   OH264905   2.800   5.264   1.679  0.1601  0.4740 -0.1875
14497TIP3    H164906   2.768   5.352   1.659 -0.4635  0.2520 -0.1840
14497TIP3    H264907   2.843   5.272   1.764 -2.5221  0.1895  1.2999
14498TIP3   OH264908   2.257   6.407   1.303 -0.0031  0.7233 -0.2026
14498TIP3    H164909   2.219   6.355   1.232 -0.5202 -0.0182  0.5926
14498TIP3    H264910   2.184   6.423   1.362  0.3424  1.6488 -0.0059
14499TIP3   OH264911   5.464   1.416  13.304  0.3482 -0.3530  0.5404
14499TIP3    H164912   5.501   1.459  13.227  0.2856 -0.4294  0.4675
14499TIP3    H264913   5.396   1.358  13.269  1.5830 -1.8147  0.4566
14500TIP3   OH264914   0.869   6.550  16.801 -0.0040 -0.3786 -0.0248
14500TIP3    H164915   0.798   6.498  16.839 -0.0981 -0.5268 -0.3991
14500TIP3    H264916   0.827   6.631  16.772  0.2492  0.1751  1.1097
14501TIP3   OH264917   2.656   1.544  13.744  0.9436  0.5550  0.0037
14501TIP3    H164918   2.663   1.449  13.731  1.2339  0.8195 -2.0221
14501TIP3    H264919   2.646   1.580  13.656 -2.0692  2.2162  0.8808
14502TIP3   OH264920   6.479   5.737   4.695  0.4164 -0.0409 -0.3125
14502TIP3    H164921   6.465   5.810   4.635 -1.8095 -0.5296 -0.4779
14502TIP3    H264922   6.409   5.745   4.760  0.6524 -1.5288  0.1655
14503TIP3   OH264923   1.028   5.374  12.705 -0.3790 -0.0090  0.1853
14503TIP3    H164924   1.094   5.327  12.756  1.5011  0.7326 -1.4036
14503TIP3    H264925   1.018   5.322  12.625 -0.5608  0.6838 -0.2514
14504TIP3   OH264926   3.350   4.607   1.201  0.5908  0.3651  0.0904
14504TIP3    H164927   3.349   4.702   1.206  1.1996  0.4189 -0.6692
14504TIP3    H264928   3.367   4.578   1.291 -2.6093  0.8565  0.9478
14505TIP3   OH264929   0.981   5.649   0.667  0.0695 -0.2639 -0.4527
14505TIP3    H164930   1.025   5.712   0.724  0.2964 -1.2847  0.5265
14505TIP3    H264931   0.889   5.674   0.670 -0.2043 -1.3528  1.7927
14506TIP3   OH264932   6.264   4.646   5.109 -0.5354 -0.0070  0.0045
14506TIP3    H164933   6.269   4.676   5.018  0.5396 -1.4560 -0.4459
14506TIP3    H264934   6.289   4.554   5.106 -1.9465 -0.4985  1.5915
14507TIP3   OH264935   5.798   2.559  12.795  0.1975 -0.0175  0.0853
14507TIP3    H164936   5.888   2.584  12.775  0.7160 -1.2918  0.6936
14507TIP3    H264937   5.751   2.568  12.712  1.0656 -0.0664 -0.4193
14508TIP3   OH264938   3.563   6.381  17.263 -0.0962 -0.2320  0.4187
14508TIP3    H164939   3.655   6.401  17.283 -0.0033 -0.7537  0.5460
14508TIP3    H264940   3.532   6.456  17.212 -0.0460  0.6769  1.6814
14509TIP3   OH264941   4.693   4.434   2.117 -0.3102  0.3303  0.1973
14509TIP3    H164942   4.653   4.382   2.187 -1.6195  0.2552 -0.5698
14509TIP3    H264943   4.732   4.509   2.162 -0.1341 -0.2924  1.1142
14510TIP3   OH264944   2.154   0.560   0.695  0.6120 -0.3880  0.3729
14510TIP3    H164945   2.218   0.543   0.627  0.9059  0.1635  0.5130
14510TIP3    H264946   2.095   0.625   0.658 -1.4869 -2.7666 -0.7828
14511TIP3   OH264947   2.141   2.146   1.906  0.2307 -0.3030  0.0051
14511TIP3    H164948   2.082   2.082   1.947  1.0546 -0.0647  1.6319
14511TIP3    H264949   2.098   2.230   1.919  1.1212 -0.0631  1.6767
14512TIP3   OH264950   3.793   1.227   3.657  0.0900 -0.4206 -0.0594
14512TIP3    H164951   3.800   1.181   3.573  0.6970 -0.6920  0.1385
14512TIP3    H264952   3.832   1.313   3.641 -4.3028  1.6185 -1.5200
14513TIP3   OH264953   4.617   0.226   1.993  0.0344 -0.8952  0.6992
14513TIP3    H164954   4.610   0.321   1.989 -0.8465 -0.7926  2.9910
14513TIP3    H264955   4.529   0.197   2.016  0.7682 -2.0456  2.2613
14514TIP3   OH264956   0.216   3.939   3.825 -0.0998  0.1135 -0.4816
14514TIP3    H164957   0.213   3.892   3.742 -2.1908  0.4629 -0.6446
14514TIP3    H264958   0.183   3.875   3.889  0.7881  0.0963 -0.0224
14515TIP3   OH264959   1.177   1.958  17.255  0.1467 -0.0449 -0.1119
14515TIP3    H164960   1.169   2.045  17.294 -0.0825  0.0219 -0.3029
14515TIP3    H264961   1.231   1.908  17.317  1.8512  0.7583 -0.9047
14516TIP3   OH264962   2.250   1.989   5.630 -0.2176 -0.5597  0.2423
14516TIP3    H164963   2.167   1.967   5.588 -0.7315  1.0091  0.3624
14516TIP3    H264964   2.301   2.032   5.562 -0.0217 -0.3365  0.5265
14517TIP3   OH264965   1.551   3.559  16.482  0.2563  0.4790 -0.2692
14517TIP3    H164966   1.505   3.557  16.398  0.7845  2.3796 -0.6490
14517TIP3    H264967   1.621   3.622  16.469  0.5134  0.6028  1.5332
14518TIP3   OH264968   4.961   3.301  12.402  0.1250  0.1598  0.4166
14518TIP3    H164969   4.987   3.391  12.422 -0.7907  0.3005  1.0592
14518TIP3    H264970   5.004   3.282  12.319  1.0486  0.8728  0.7104
14519TIP3   OH264971   2.199   3.764   5.360  0.0523  0.0054 -0.0722
14519TIP3    H164972   2.179   3.825   5.289  0.0270 -0.2754 -0.3079
14519TIP3    H264973   2.206   3.679   5.317 -1.5224 -0.4333  0.4790
14520TIP3   OH264974   0.691   0.493  13.998 -0.8296  0.1052 -0.6221
14520TIP3    H164975   0.679   0.421  13.935  0.5829 -0.5214 -0.2250
14520TIP3    H264976   0.779   0.478  14.034 -0.0208  2.6621 -1.3355
14521TIP3   OH264977   0.028   1.717  12.221  0.2954  0.7032 -0.0008
14521TIP3    H164978   0.044   1.632  12.261 -0.1505 -0.5507 -2.3160
14521TIP3    H264979   0.060   1.780  12.285  0.4378 -1.1781  1.8802
14522TIP3   OH264980   2.001   2.106  12.550 -1.3478  0.0667 -0.0776
14522TIP3    H164981   1.990   2.084  12.458 -0.7807 -1.9598  0.2850
14522TIP3    H264982   2.061   2.039  12.584 -1.5927  0.7221  1.7688
14523TIP3   OH264983   3.317   3.378   3.509 -0.5635 -0.2401 -0.0195
14523TIP3    H164984   3.321   3.468   3.477  0.2782 -0.5958 -1.0188
14523TIP3    H264985   3.404   3.362   3.545  0.1187 -1.3486 -1.9830
14524TIP3   OH264986   1.376   6.479  14.186 -0.5639 -0.1144  0.2603
14524TIP3    H164987   1.437   6.482  14.112  0.9405 -0.4773  1.4198
14524TIP3    H264988   1.292   6.505  14.149  0.5942  2.0111 -1.0924
14525TIP3   OH264989   5.148   6.052  14.486 -0.0192 -0.3834 -0.0250
14525TIP3    H164990   5.064   6.097  14.491 -0.6822 -1.1640 -2.3801
14525TIP3    H264991   5.147   5.991  14.559 -2.1818 -1.3706 -0.7884
14526TIP3   OH264992   6.385   0.670  17.036  0.0764  0.8077  0.1660
14526TIP3    H164993   6.299   0.632  17.055  0.2352 -0.0181 -0.7030
14526TIP3    H264994   6.404   0.725  17.112 -0.6262 -0.0498  0.9889
14527TIP3   OH264995   5.912   4.796   1.979 -0.4022  0.4596  0.1743
14527TIP3    H164996   5.986   4.852   2.003 -0.2621 -0.0412  0.9592
14527TIP3    H264997   5.835   4.846   2.008 -0.4406  1.2849 -1.2494
14528TIP3   OH264998   5.181   4.705   2.144  0.0522 -0.0388  0.0251
14528TIP3    H164999   5.154   4.644   2.213 -0.6527 -0.4519 -0.6005
14528TIP3    H265000   5.272   4.683   2.127 -0.5922 -2.0099 -1.2555
14529TIP3   OH265001   1.602   1.492   4.369  0.5212  0.4378  0.3734
14529TIP3    H165002   1.545   1.479   4.444  0.8380  1.6682  0.8427
14529TIP3    H265003   1.565   1.436   4.300  0.5356 -1.1216  1.5789
14530TIP3   OH265004   1.981   2.722  12.283 -0.0514 -0.0297 -0.3453
14530TIP3    H165005   1.959   2.773  12.205  0.0909  1.8117  0.7616
14530TIP3    H265006   2.059   2.764  12.318 -0.0593 -0.8814  0.7456
14531TIP3   OH265007   0.633   1.819   3.764 -0.1075  0.2329  0.3048
14531TIP3    H165008   0.670   1.870   3.692  0.2073  0.6824  0.7827
14531TIP3    H265009   0.598   1.884   3.824 -3.5999 -0.1576 -1.0813
14532TIP3   OH265010   6.073   0.333  17.270 -0.1214 -0.1015  0.0126
14532TIP3    H165011   6.154   0.327  17.321 -0.0382  2.6517  0.3699
14532TIP3    H265012   6.007   0.290  17.325  0.8475 -1.3218  0.2563
14533TIP3   OH265013   1.930   0.634   2.342 -0.0203 -0.4758  0.4610
14533TIP3    H165014   1.870   0.572   2.383 -0.3606 -0.2609  0.2883
14533TIP3    H265015   1.884   0.664   2.264  0.4355 -0.5341  0.1674
14534TIP3   OH265016   2.324   4.343   5.577  0.3387  0.2624  0.1406
14534TIP3    H165017   2.386   4.372   5.510 -1.6800  2.1332 -1.0581
14534TIP3    H265018   2.328   4.412   5.644 -0.0102  0.0682  0.3652
14535TIP3   OH265019   2.163   3.630   3.884 -0.4874  0.6825 -0.2459
14535TIP3    H165020   2.250   3.595   3.864 -0.8910 -0.3879 -0.2279
14535TIP3    H265021   2.144   3.690   3.812 -0.4796 -0.4688 -1.2466
14536TIP3   OH265022   2.263   3.358   1.776  0.2635  0.3147 -0.0631
14536TIP3    H165023   2.203   3.350   1.851  1.7644  1.1802  1.2802
14536TIP3    H265024   2.218   3.310   1.705 -1.8971  0.7357  0.9270
14537TIP3   OH265025   4.429   2.343   0.496 -0.0282 -0.2717 -0.0645
14537TIP3    H165026   4.516   2.348   0.458 -0.3141  1.3258 -0.6168
14537TIP3    H265027   4.382   2.418   0.459 -1.0115  0.0795  1.7352
14538TIP3   OH265028   0.876   6.436  16.505 -0.4817 -0.4794  0.1008
14538TIP3    H165029   0.846   6.399  16.422  0.3768  2.7473 -1.8516
14538TIP3    H265030   0.971   6.438  16.498 -0.4729  2.2138 -0.1154
14539TIP3   OH265031   4.801   5.479   3.444 -0.0649 -0.8521 -0.0363
14539TIP3    H165032   4.881   5.487   3.392  0.3027 -2.4319  0.2412
14539TIP3    H265033   4.772   5.389   3.430 -1.6363 -0.4063  0.1246
14540TIP3   OH265034   1.660   1.377  15.458  0.0816 -0.2450 -0.4348
14540TIP3    H165035   1.604   1.413  15.526  1.8101  1.6063  0.0886
14540TIP3    H265036   1.636   1.425  15.379 -0.7298 -1.1883 -0.7850
14541TIP3   OH265037   6.098   3.004   4.172 -0.4357  0.9592 -0.4553
14541TIP3    H165038   6.187   3.028   4.197 -0.5014  0.0120  0.7400
14541TIP3    H265039   6.107   2.962   4.086  0.4986 -0.6782  0.4212
14542TIP3   OH265040   2.128   2.769  13.751 -0.1334  0.4747  0.2855
14542TIP3    H165041   2.084   2.770  13.836 -1.2598  1.1025 -0.2926
14542TIP3    H265042   2.085   2.838  13.700  0.0046 -0.3997 -1.0726
14543TIP3   OH265043   6.512   4.317  15.960  0.1819 -0.2551  0.4527
14543TIP3    H165044   6.447   4.376  15.921  1.0938  0.1257 -0.5407
14543TIP3    H265045   6.572   4.375  16.007  0.1124 -0.5589  0.9232
14544TIP3   OH265046   1.864   3.358  10.833  0.0915 -0.0194  0.2855
14544TIP3    H165047   1.937   3.383  10.889 -0.4024 -0.0683  0.9724
14544TIP3    H265048   1.815   3.294  10.885  0.2390 -0.9252 -0.6592
14545TIP3   OH265049   6.491   4.648   2.773  0.4307  0.2066 -0.2246
14545TIP3    H165050   6.583   4.675   2.766  0.1422  1.1304 -0.5754
14545TIP3    H265051   6.442   4.720   2.734 -0.3682 -0.8361 -1.2166
14546TIP3   OH265052   5.193   0.379   3.480  0.8235 -0.0878  0.1082
14546TIP3    H165053   5.208   0.287   3.457  0.6497 -0.0140 -0.3117
14546TIP3    H265054   5.197   0.381   3.575  2.9653 -0.1560  0.0762
14547TIP3   OH265055   6.516   0.236   0.311 -0.2125  0.3526 -0.0711
14547TIP3    H165056   6.496   0.165   0.250  0.4270  1.2316 -1.3597
14547TIP3    H265057   6.442   0.237   0.372 -0.4304 -1.1302 -0.2764
14548TIP3   OH265058   0.783   4.306  10.571  0.0891  0.4392 -0.0008
14548TIP3    H165059   0.820   4.317  10.659  2.2067  0.7257 -0.8591
14548TIP3    H265060   0.713   4.242  10.582  0.8416 -0.1533  1.7716
14549TIP3   OH265061   2.127   3.734   1.891  0.4954  0.4019  0.2177
14549TIP3    H165062   2.107   3.825   1.870 -3.0891 -0.1678  0.5915
14549TIP3    H265063   2.146   3.735   1.985 -1.6330  0.5926  0.7038
14550TIP3   OH265064   2.367   2.750   0.395 -0.3547 -0.3169 -1.1435
14550TIP3    H165065   2.302   2.718   0.332 -1.9450  0.4063  0.0588
14550TIP3    H265066   2.332   2.834   0.425  1.1243  0.0721 -0.4063
14551TIP3   OH265067   2.935   2.094  15.034 -0.5173 -0.0142  0.2635
14551TIP3    H165068   2.901   2.155  15.100 -1.8403 -0.6905  0.2196
14551TIP3    H265069   2.907   2.008  15.064  0.5481 -0.5296 -0.1762
14552TIP3   OH265070   5.433   3.312   0.814  0.3342  0.8372  0.3598
14552TIP3    H165071   5.390   3.248   0.757 -0.4840  0.2105  1.6503
14552TIP3    H265072   5.430   3.394   0.764 -0.1225  0.2461 -0.6085
14553TIP3   OH265073   5.893   6.564  13.033  0.0283  0.5194  0.8855
14553TIP3    H165074   5.916   6.512  13.110  3.3393 -1.3135 -1.1138
14553TIP3    H265075   5.816   6.521  12.997  0.4110 -0.6371  1.3878
14554TIP3   OH265076   4.465   1.710   0.416 -0.1732  0.0103  0.4935
14554TIP3    H165077   4.529   1.778   0.432 -0.1697  0.3711 -0.9263
14554TIP3    H265078   4.516   1.629   0.415 -0.1453 -0.0167  1.9512
14555TIP3   OH265079   3.036   6.692   5.025 -0.4292 -0.2997 -0.2984
14555TIP3    H165080   3.087   6.718   5.102 -0.3144  1.4974 -0.9457
14555TIP3    H265081   3.099   6.645   4.970 -0.7641 -2.5737  1.1094
14556TIP3   OH265082   4.578   5.201   4.109  0.3301 -0.1078 -0.0352
14556TIP3    H165083   4.614   5.270   4.165 -1.0566  0.1865  0.5318
14556TIP3    H265084   4.497   5.238   4.075 -0.9221 -1.7555  1.0030
14557TIP3   OH265085   5.256   2.592   1.564 -0.5510 -0.0692 -0.5910
14557TIP3    H165086   5.325   2.551   1.616 -0.1800 -1.0412 -1.8082
14557TIP3    H265087   5.179   2.536   1.578 -0.1313 -1.0368 -1.9950
14558TIP3   OH265088   4.961   3.471  15.775  0.1199 -0.3359  0.0823
14558TIP3    H165089   4.891   3.512  15.725 -0.5396 -1.6553 -0.1113
14558TIP3    H265090   5.021   3.437  15.709  2.1016  2.5439  0.2138
14559TIP3   OH265091   4.773   5.359   5.180  0.3487  0.7192 -0.4309
14559TIP3    H165092   4.830   5.436   5.189  0.1902  0.8409 -0.4556
14559TIP3    H265093   4.690   5.386   5.219 -0.7484  1.6739 -3.1253
14560TIP3   OH265094   5.356   1.495  15.119  0.2595  0.0616 -0.0144
14560TIP3    H165095   5.446   1.501  15.150 -0.1899  2.9679  1.0186
14560TIP3    H265096   5.304   1.538  15.187 -2.0215 -1.9911 -0.3231
14561TIP3   OH265097   6.108   2.283  15.577 -0.7027 -0.2531  0.1779
14561TIP3    H165098   6.100   2.357  15.636  1.0330 -0.1422  0.3434
14561TIP3    H265099   6.138   2.211  15.633  0.4265 -0.2927 -0.4469
14562TIP3   OH265100   2.644   3.387  13.547 -0.3533 -0.2147 -0.0206
14562TIP3    H165101   2.556   3.373  13.583  0.6870 -1.0806  2.3590
14562TIP3    H265102   2.692   3.308  13.570  0.9597  0.0475 -1.6941
14563TIP3   OH265103   3.307   1.481   5.459  0.0894  0.0820  0.2747
14563TIP3    H165104   3.248   1.550   5.427 -0.6912 -1.4709 -1.8480
14563TIP3    H265105   3.250   1.406   5.474  1.4293 -1.4316 -1.7314
14564TIP3   OH265106   4.397   1.027  17.071  0.3883  0.2763  0.3706
14564TIP3    H165107   4.377   1.106  17.021  0.4085  0.6839  0.9884
14564TIP3    H265108   4.423   1.060  17.158  1.9498 -0.3214  0.1632
14565TIP3   OH265109   0.488   0.317  11.067  0.4875 -0.1923 -0.3200
14565TIP3    H165110   0.527   0.336  10.981 -0.9311  2.0975 -0.5420
14565TIP3    H265111   0.549   0.356  11.130 -0.5987  2.1292 -0.5960
14566TIP3   OH265112   5.710   5.112   1.124  0.3713  0.0287  0.2554
14566TIP3    H165113   5.626   5.067   1.136  0.5379 -0.0125  1.3724
14566TIP3    H265114   5.724   5.158   1.207  1.7908 -0.5298  0.3371
14567TIP3   OH265115   5.786   1.790  13.621  0.1135  0.2727 -0.0745
14567TIP3    H165116   5.835   1.808  13.541 -0.2211 -0.1810 -0.3909
14567TIP3    H265117   5.826   1.846  13.688 -0.8472  2.1643 -0.9931
14568TIP3   OH265118   4.610   4.497   2.926  0.3906  0.1256  0.1611
14568TIP3    H165119   4.639   4.455   2.845  1.4126 -1.6588  1.3865
14568TIP3    H265120   4.517   4.515   2.912  0.7707  0.8475 -1.7803
14569TIP3   OH265121   2.364   5.384   3.976  0.7788 -0.6633  0.0475
14569TIP3    H165122   2.415   5.451   3.931 -2.1996  1.3223 -0.7089
14569TIP3    H265123   2.319   5.337   3.905 -0.5298 -0.4667  0.7123
14570TIP3   OH265124   1.420   4.158   3.859 -0.0229  0.5596  0.0599
14570TIP3    H165125   1.402   4.069   3.829  1.1173  0.7333 -1.2550
14570TIP3    H265126   1.363   4.214   3.807 -0.3274  0.6391  0.4782
14571TIP3   OH265127   6.423   1.531   1.806  0.5128  0.2258 -0.6463
14571TIP3    H165128   6.392   1.603   1.862  3.3619  0.3092  1.0050
14571TIP3    H265129   6.368   1.537   1.728 -0.5771  3.0482  0.1824
14572TIP3   OH265130   2.358   5.801  10.855  0.1136  0.3286 -0.2009
14572TIP3    H165131   2.356   5.818  10.949 -2.0739  1.6806 -0.4184
14572TIP3    H265132   2.276   5.837  10.822  1.0542  0.3944 -2.7392
14573TIP3   OH265133   5.548   1.814  15.241 -0.2739  0.0916  0.1234
14573TIP3    H165134   5.579   1.724  15.248 -0.8870 -0.0756  0.8247
14573TIP3    H265135   5.478   1.820  15.306  0.3964  1.3576  0.7625
14574TIP3   OH265136   2.456   0.058  10.932  0.6044 -0.4843  0.1156
14574TIP3    H165137   2.419   0.057  10.844  1.3706 -1.6002 -0.2316
14574TIP3    H265138   2.439   0.146  10.965  0.5870  0.0639 -1.2757
14575TIP3   OH265139   2.292   0.299   5.409  0.1414  0.6567  0.0302
14575TIP3    H165140   2.285   0.204   5.401 -0.7270  0.6707  0.5326
14575TIP3    H265141   2.265   0.333   5.324  1.9994  0.4249 -0.7120
14576TIP3   OH265142   1.866   6.309   0.586 -0.1051 -0.7210  0.1677
14576TIP3    H165143   1.897   6.383   0.639 -0.4654 -0.1975 -0.3317
14576TIP3    H265144   1.838   6.349   0.503 -3.0779 -0.9825  0.9491
14577TIP3   OH265145   4.819   0.387  13.370 -0.1923 -0.2522  0.2464
14577TIP3    H165146   4.842   0.369  13.461 -0.2676 -1.1845  0.0931
14577TIP3    H265147   4.736   0.340  13.357  0.0353 -0.4747 -0.4175
14578TIP3   OH265148   5.964   2.467  13.413  0.1170  0.0660 -0.2736
14578TIP3    H165149   5.902   2.440  13.481 -1.7379  2.3537 -0.9187
14578TIP3    H265150   5.936   2.418  13.336 -0.1071  0.1466 -0.2466
14579TIP3   OH265151   5.630   5.822  11.839  0.6316 -0.0891 -0.3212
14579TIP3    H165152   5.541   5.789  11.830  1.0342 -0.8441 -1.7930
14579TIP3    H265153   5.621   5.898  11.896 -0.5514 -1.7367  1.8344
14580TIP3   OH265154   2.729   1.172   0.744  0.3775  0.0832  0.1011
14580TIP3    H165155   2.690   1.256   0.718  1.8144  0.8205  0.2451
14580TIP3    H265156   2.655   1.120   0.775 -0.8378  0.5934 -1.7419
14581TIP3   OH265157   3.724   2.259  15.365  0.6195 -0.2515  0.1180
14581TIP3    H165158   3.699   2.268  15.273  0.7269 -1.1460 -0.0126
14581TIP3    H265159   3.661   2.196  15.402  0.2169  0.5403  0.8119
14582TIP3   OH265160   2.360   2.454  14.847  0.0325  0.0174  0.1197
14582TIP3    H165161   2.319   2.444  14.933 -0.0536  0.7494  0.1652
14582TIP3    H265162   2.426   2.385  14.844 -0.2102 -0.2399  0.6269
14583TIP3   OH265163   0.431   2.153   4.337 -0.2181  0.5454 -0.6499
14583TIP3    H165164   0.339   2.127   4.345  0.0117 -0.6349 -1.5705
14583TIP3    H265165   0.478   2.071   4.319  1.4102  0.6635  2.3148
14584TIP3   OH265166   5.296   3.712  17.006 -0.1965 -0.0272 -0.3592
14584TIP3    H165167   5.306   3.745  16.917  2.6093  0.5427  0.0783
14584TIP3    H265168   5.244   3.779  17.050 -1.0924 -0.0197 -1.3777
14585TIP3   OH265169   2.636   0.301  15.235 -0.4243  0.1980  0.0472
14585TIP3    H165170   2.555   0.336  15.271 -1.8072 -3.0363  0.4778
14585TIP3    H265171   2.609   0.250  15.159  1.2278 -0.5752 -0.0697
14586TIP3   OH265172   0.686   2.817   2.144  0.2662 -0.4115  0.1196
14586TIP3    H165173   0.624   2.852   2.208  0.1138 -0.5087  0.0234
14586TIP3    H265174   0.766   2.801   2.196  1.3692  2.8124 -0.3462
14587TIP3   OH265175   5.919   4.321  17.239 -0.2166  0.1836 -0.0057
14587TIP3    H165176   5.986   4.315  17.307  0.4829 -0.9827 -0.7754
14587TIP3    H265177   5.848   4.372  17.280  0.5013  0.1479  1.3280
14588TIP3   OH265178   1.713   1.702   5.022  0.1338 -0.0877 -0.1157
14588TIP3    H165179   1.621   1.692   4.998 -0.0175  1.2818 -0.2003
14588TIP3    H265180   1.757   1.627   4.983 -0.5987  0.4237 -2.0194
14589TIP3   OH265181   3.599   1.189   4.112  0.6475  0.2458  0.0186
14589TIP3    H165182   3.540   1.264   4.107  0.7216  0.4556  1.7100
14589TIP3    H265183   3.661   1.203   4.041 -0.4844  0.7572 -0.9099
14590TIP3   OH265184   3.981   6.169   5.153 -0.0831 -0.0140 -0.3386
14590TIP3    H165185   4.018   6.209   5.232 -0.7604  0.1018 -0.0712
14590TIP3    H265186   4.057   6.141   5.102  0.3424 -1.6917  1.1600
14591TIP3   OH265187   1.893   6.424   2.058 -0.2369 -0.2998 -0.0054
14591TIP3    H165188   1.844   6.371   1.995  1.3344 -0.6164 -0.9954
14591TIP3    H265189   1.932   6.361   2.118 -0.6750 -0.0690  0.5353
14592TIP3   OH265190   0.358   4.979  12.386 -0.6081  0.0813  0.2252
14592TIP3    H165191   0.347   4.964  12.480 -1.3651 -0.7077  0.0212
14592TIP3    H265192   0.328   5.068  12.372  1.8302  1.1376  1.1085
14593TIP3   OH265193   1.564   4.410   1.687 -0.5687  0.1402  0.3551
14593TIP3    H165194   1.525   4.437   1.770  0.9599  2.5257  0.3902
14593TIP3    H265195   1.657   4.429   1.697 -0.1135 -0.9419 -1.3960
14594TIP3   OH265196   1.659   4.095   5.028 -0.2108  0.0771  0.1380
14594TIP3    H165197   1.576   4.135   5.001  0.1443  1.5098  1.0159
14594TIP3    H265198   1.726   4.146   4.983  0.2013 -1.5139 -1.1038
14595TIP3   OH265199   6.134   5.562   2.707 -0.5335 -0.6754 -0.2590
14595TIP3    H165200   6.117   5.572   2.800 -0.4189  1.6543 -0.4379
14595TIP3    H265201   6.047   5.545   2.668 -0.5810 -1.6345  0.2354
14596TIP3   OH265202   2.001   2.441   1.158  0.4192 -0.4651  0.0208
14596TIP3    H165203   1.963   2.450   1.070  0.6537 -2.4832 -0.3340
14596TIP3    H265204   1.926   2.442   1.217  0.0599 -1.3195 -0.4068
14597TIP3   OH265205   2.773   3.442  15.300 -0.2339 -0.1895  0.1598
14597TIP3    H165206   2.842   3.423  15.364 -0.1073 -0.2986 -0.0058
14597TIP3    H265207   2.696   3.462  15.353  0.0624  0.4628  0.3510
14598TIP3   OH265208   1.985   6.715  14.983 -0.6078  0.0799 -0.2215
14598TIP3    H165209   2.002   6.636  15.034 -0.0841  0.2149 -0.1796
14598TIP3    H265210   2.064   6.726  14.929  0.1531  1.5823  1.0957
14599TIP3   OH265211   2.223   4.936   2.244  0.5516 -0.1325 -0.2836
14599TIP3    H165212   2.156   4.983   2.293  0.5578 -0.2806 -0.1290
14599TIP3    H265213   2.204   4.844   2.259  0.9418 -0.1749 -0.0207
14600TIP3   OH265214   0.692   2.372  13.131  0.5123  0.3590  0.2264
14600TIP3    H165215   0.716   2.348  13.041  0.2175  2.5390 -0.4722
14600TIP3    H265216   0.723   2.298  13.183  0.9333 -0.8486 -1.6199
14601TIP3   OH265217   6.734   2.160  16.894  0.4346  0.2983 -0.9373
14601TIP3    H165218   6.696   2.235  16.849  1.6334  1.3145 -0.3141
14601TIP3    H265219   6.675   2.144  16.967 -0.6849 -0.3909 -1.9631
14602TIP3   OH265220   2.992   2.813  13.857  0.5233  0.3417 -0.0755
14602TIP3    H165221   2.927   2.742  13.854  1.6750 -0.8400  1.3252
14602TIP3    H265222   3.044   2.800  13.778  0.1580  0.1918 -0.2953
14603TIP3   OH265223   3.590   6.617  14.723 -0.3798 -0.5243  0.2122
14603TIP3    H165224   3.551   6.531  14.740  0.8427 -1.2310 -0.4077
14603TIP3    H265225   3.562   6.640  14.634 -0.4234 -0.4377  0.2482
14604TIP3   OH265226   3.571   3.864  12.601  0.3255  0.0338  0.0250
14604TIP3    H165227   3.527   3.873  12.685  0.3589  0.9517 -0.0538
14604TIP3    H265228   3.523   3.921  12.541  0.3726 -0.5186 -0.5621
14605TIP3   OH265229   3.307   0.457   0.011 -0.0832  0.0199  0.0376
14605TIP3    H165230   3.267   0.370   0.003 -0.2751 -0.1011  1.9593
14605TIP3    H265231   3.257   0.499   0.081 -0.2176  1.8325 -1.1019
14606TIP3   OH265232   3.842   6.754  14.715  0.0256  0.3865 -0.0550
14606TIP3    H165233   3.855   6.728  14.624  0.2002  1.1504 -0.2576
14606TIP3    H265234   3.754   6.722  14.736  0.0427  0.0712 -0.4431
14607TIP3   OH265235   5.092   3.077   5.605  0.0346 -0.0208 -0.0499
14607TIP3    H165236   5.006   3.110   5.632  0.3692  0.2823  0.6659
14607TIP3    H265237   5.103   2.996   5.653 -1.1980 -1.7924 -2.5187
14608TIP3   OH265238   4.602   2.977  16.121  0.1238  0.0260  0.3247
14608TIP3    H165239   4.648   2.985  16.038 -0.2463 -0.8787  0.0305
14608TIP3    H265240   4.536   3.046  16.119  1.5554  1.4808  0.8352
14609TIP3   OH265241   3.007   4.993  16.432 -0.0862 -0.2908  0.4642
14609TIP3    H165242   3.072   5.006  16.362 -1.1632  2.7533 -0.1041
14609TIP3    H265243   3.050   5.028  16.511 -0.8366  1.3947  0.1586
14610TIP3   OH265244   1.460   0.549   5.826 -0.4807  0.4145  0.3794
14610TIP3    H165245   1.506   0.574   5.906  0.9506 -1.2660  0.1393
14610TIP3    H265246   1.430   0.460   5.841 -1.1280  0.4544 -0.5648
14611TIP3   OH265247   0.467   2.123   2.257  0.5448  0.0374  0.1277
14611TIP3    H165248   0.469   2.191   2.324 -0.9036 -1.3378  1.6463
14611TIP3    H265249   0.402   2.154   2.194 -2.1192 -1.0253  2.1640
14612TIP3   OH265250   6.073   6.601  16.879  0.2602  0.0372  0.4409
14612TIP3    H165251   6.149   6.567  16.926 -0.4011 -0.9265  0.8470
14612TIP3    H265252   6.022   6.646  16.946  0.4603  0.6945  0.1661
14613TIP3   OH265253   2.585   2.727  13.225 -0.2514 -0.1500  0.5171
14613TIP3    H165254   2.628   2.740  13.310  0.2669  0.7456  0.1287
14613TIP3    H265255   2.507   2.783  13.229 -0.0892  0.0927  0.3116
14614TIP3   OH265256   2.945   0.468  11.754 -0.1479 -0.2035 -0.0744
14614TIP3    H165257   3.031   0.463  11.713  0.7193 -0.4642  1.6762
14614TIP3    H265258   2.909   0.380  11.743 -1.0301  0.3902 -2.4335
14615TIP3   OH265259   1.924   1.256   1.195  0.5092  0.5763  0.2220
14615TIP3    H165260   1.896   1.273   1.285 -1.4484 -0.0962 -0.1981
14615TIP3    H265261   1.999   1.197   1.203 -0.4721 -0.5637  1.4195
14616TIP3   OH265262   3.480   1.685   3.802  0.0456 -0.1709 -0.4127
14616TIP3    H165263   3.553   1.715   3.748 -0.6186  0.2492 -1.0943
14616TIP3    H265264   3.405   1.681   3.742 -1.2128  2.2735  0.8196
14617TIP3   OH265265   1.117   1.082  15.125  0.1082 -0.1384 -0.3450
14617TIP3    H165266   1.046   1.118  15.072  0.0221  0.1457 -0.0372
14617TIP3    H265267   1.174   1.039  15.061 -0.9476 -1.4106 -0.4739
14618TIP3   OH265268   5.915   3.216  15.091 -0.1080  0.2878 -0.1815
14618TIP3    H165269   5.972   3.196  15.166 -1.1689 -0.2205  0.5164
14618TIP3    H265270   5.884   3.305  15.108  1.5582  1.1224 -1.2944
14619TIP3   OH265271   2.727   1.558   0.201  0.4737  0.2658  0.1741
14619TIP3    H165272   2.639   1.555   0.164  1.5164 -1.2203 -2.4323
14619TIP3    H265273   2.734   1.478   0.253  0.1155  0.6904  0.8927
14620TIP3   OH265274   0.984   1.834  16.452 -0.2912 -0.5317 -0.1807
14620TIP3    H165275   1.038   1.824  16.374  1.5103 -1.0093  1.0613
14620TIP3    H265276   0.953   1.924  16.449 -0.1656 -0.5149 -1.3802
14621TIP3   OH265277   2.626   0.061  13.511 -0.1359 -0.3350 -0.2478
14621TIP3    H165278   2.635   0.136  13.570 -0.4817  1.3796 -2.2695
14621TIP3    H265279   2.709   0.057  13.464 -0.3533 -0.8442 -0.6007
14622TIP3   OH265280   2.671   6.748  12.610  0.2349  0.1022 -0.2354
14622TIP3    H165281   2.662   6.759  12.704 -0.5462  0.8918 -0.3865
14622TIP3    H265282   2.651   6.655  12.595 -0.1303  0.0830  0.3260
14623TIP3   OH265283   3.676   3.410   4.792 -0.9874 -0.0855  0.3446
14623TIP3    H165284   3.757   3.364   4.771 -1.4907  0.2666 -2.9515
14623TIP3    H265285   3.618   3.342   4.827  0.3040 -0.5747  1.6062
14624TIP3   OH265286   2.939   3.895   2.630  0.3518 -0.6851  0.1182
14624TIP3    H165287   2.904   3.806   2.635 -1.9720  0.1418 -0.0634
14624TIP3    H265288   2.862   3.950   2.614  1.4495  1.5513  1.9334
14625TIP3   OH265289   1.913   5.826  12.834 -0.0954 -0.0959 -0.5422
14625TIP3    H165290   1.845   5.829  12.901  1.3339 -1.0262  1.0049
14625TIP3    H265291   1.927   5.733  12.817  0.1649  0.1057 -1.5385
14626TIP3   OH265292   2.424   5.146   2.697 -0.5694 -0.3781 -0.1029
14626TIP3    H165293   2.329   5.136   2.687 -1.2167  2.2083  2.2399
14626TIP3    H265294   2.461   5.105   2.619 -3.5544 -2.0267 -0.7905
14627TIP3   OH265295   2.578   0.810  10.871 -1.1844 -0.4482  0.1689
14627TIP3    H165296   2.530   0.888  10.899 -0.0848 -0.0052  0.9078
14627TIP3    H265297   2.664   0.820  10.911  0.3756 -0.0184 -2.9965
14628TIP3   OH265298   5.929   6.359  13.629  0.9836  0.1184 -0.1099
14628TIP3    H165299   5.955   6.440  13.671 -1.3770  0.5428  0.6545
14628TIP3    H265300   5.845   6.379  13.587  1.0474 -1.5459 -1.1424
14629TIP3   OH265301   2.017   0.286   4.184 -0.0119  0.2788 -0.1490
14629TIP3    H165302   2.108   0.277   4.156 -0.0249  0.6452 -0.3146
14629TIP3    H265303   1.981   0.354   4.127 -0.5992 -0.3898 -0.5916
14630TIP3   OH265304   3.886   5.618  16.070  0.1639  0.2834 -0.1275
14630TIP3    H165305   3.810   5.566  16.044 -0.5917  0.3878  1.6935
14630TIP3    H265306   3.891   5.607  16.165  2.2182  0.5921 -0.1465
14631TIP3   OH265307   1.618   3.711  14.148  0.4672 -0.1787 -0.4363
14631TIP3    H165308   1.694   3.659  14.121  0.9221  0.6336 -0.7716
14631TIP3    H265309   1.609   3.778  14.080 -0.1420  0.1422 -0.0526
14632TIP3   OH265310   4.774   1.118   5.911 -0.3493 -0.3577 -0.1374
14632TIP3    H165311   4.864   1.125   5.940 -0.8073 -1.1805  1.6220
14632TIP3    H265312   4.723   1.166   5.977 -1.1413  0.8686 -1.5809
14633TIP3   OH265313   5.552   2.877  12.381  0.4562  0.3101 -0.0058
14633TIP3    H165314   5.635   2.864  12.427  0.6325 -0.9406 -0.6289
14633TIP3    H265315   5.486   2.840  12.439  0.5932 -0.5826 -0.3953
14634TIP3   OH265316   3.475   1.552  13.016 -0.4532  0.2100  0.7090
14634TIP3    H165317   3.509   1.617  12.954 -4.0335  0.0861 -1.6565
14634TIP3    H265318   3.544   1.486  13.022  1.7294  2.2980  0.2187
14635TIP3   OH265319   1.933   6.758   2.498  0.0741 -0.8926 -0.1052
14635TIP3    H165320   1.980   6.701   2.559  0.4783 -1.6314 -1.0843
14635TIP3    H265321   1.929   6.708   2.416 -0.6557 -0.0152 -0.6225
14636TIP3   OH265322   1.691   2.237  14.799  0.4921 -0.2416  0.5918
14636TIP3    H165323   1.755   2.183  14.846  0.0319  0.1645  1.7093
14636TIP3    H265324   1.659   2.298  14.864 -0.5595 -0.0024 -0.1315
14637TIP3   OH265325   5.208   1.732   5.880 -0.0218 -0.9276  0.2437
14637TIP3    H165326   5.239   1.641   5.886  0.7057 -0.6186  2.0305
14637TIP3    H265327   5.278   1.778   5.834 -0.0870 -1.1556 -0.0818
14638TIP3   OH265328   0.995   1.163  10.129 -0.1760  0.2382 -0.0675
14638TIP3    H165329   0.988   1.173  10.224 -0.7125 -0.1371 -0.0623
14638TIP3    H265330   1.057   1.230  10.102  0.7535 -0.2958  0.6715
14639TIP3   OH265331   4.735   0.894   1.584  0.2687  0.0377 -0.7407
14639TIP3    H165332   4.776   0.866   1.502  0.8280  0.9857 -0.7954
14639TIP3    H265333   4.798   0.872   1.652  0.1943  0.0702 -0.6600
14640TIP3   OH265334   1.297   4.085   5.036  0.1890  0.4870  0.8157
14640TIP3    H165335   1.202   4.091   5.044 -0.1717  0.9498 -2.5908
14640TIP3    H265336   1.327   4.175   5.025  1.1092  0.3818  2.2258
14641TIP3   OH265337   2.065   5.093  11.829 -0.2531  0.3895  0.8903
14641TIP3    H165338   2.026   5.168  11.784 -0.0318 -0.2132 -0.3583
14641TIP3    H265339   1.995   5.028  11.833 -0.3645  0.5487  1.7263
14642TIP3   OH265340   6.749   3.245  16.319  0.3875 -0.0641  0.0016
14642TIP3    H165341   6.834   3.224  16.282  0.4788 -2.1798  1.2950
14642TIP3    H265342   6.766   3.260  16.412 -0.6450 -0.6124  0.2986
14643TIP3   OH265343   0.575   6.075   4.583  0.0373  0.3290 -0.1424
14643TIP3    H165344   0.519   6.028   4.644 -0.1703  0.7242 -0.0257
14643TIP3    H265345   0.542   6.164   4.583  0.9854  0.6962  0.3121
14644TIP3   OH265346   3.462   0.818   6.533  0.2469 -0.5349 -0.2663
14644TIP3    H165347   3.432   0.854   6.616 -1.6782 -1.3747 -0.5248
14644TIP3    H265348   3.537   0.764   6.556  1.3241  1.2212  0.5297
14645TIP3   OH265349   3.470   3.662  12.932  0.1070 -0.2829 -0.0711
14645TIP3    H165350   3.460   3.757  12.928 -0.5978 -0.1897  2.0733
14645TIP3    H265351   3.564   3.648  12.938  0.1744  0.5934  2.7862
14646TIP3   OH265352   4.877   0.207  15.665 -0.1152 -0.3014 -0.4147
14646TIP3    H165353   4.881   0.159  15.748 -0.9619  1.5833  0.7977
14646TIP3    H265354   4.784   0.228  15.655  0.1095  0.2754 -1.3792
14647TIP3   OH265355   4.510   1.292  13.991  0.0961  0.4105 -0.1544
14647TIP3    H165356   4.459   1.351  14.047  0.4856  1.2540 -0.6702
14647TIP3    H265357   4.568   1.246  14.051  2.3762  3.1708 -0.0465
14648TIP3   OH265358   4.525   2.069  13.667  0.8950 -0.0448 -1.0721
14648TIP3    H165359   4.435   2.049  13.691  0.7897  1.0170 -0.5519
14648TIP3    H265360   4.562   1.984  13.641 -0.3000 -0.4526 -1.4872
14649TIP3   OH265361   6.047   4.610   5.347 -0.4607  0.1317  0.0759
14649TIP3    H165362   6.083   4.544   5.405  0.7945  1.8295  1.3460
14649TIP3    H265363   6.106   4.610   5.271 -0.3958 -0.1159  0.1265
14650TIP3   OH265364   5.992   1.018  13.591  0.3822  0.6034 -0.7577
14650TIP3    H165365   6.000   1.113  13.581  0.6125  0.7916  0.9986
14650TIP3    H265366   6.045   0.997  13.667 -1.4531 -0.6213  0.2574
14651TIP3   OH265367   5.687   0.232   3.424 -0.4417 -0.0744 -0.1388
14651TIP3    H165368   5.611   0.233   3.481 -1.1903 -1.2790 -1.0756
14651TIP3    H265369   5.761   0.212   3.481 -1.0262 -0.2523  0.5571
14652TIP3   OH265370   3.415   4.951   2.618 -0.5520  0.1025  0.1755
14652TIP3    H165371   3.480   4.958   2.549  0.0596  0.6783  0.7953
14652TIP3    H265372   3.392   5.042   2.639 -0.1432 -0.0354  1.2632
14653TIP3   OH265373   6.511   2.651   3.667  0.6217 -0.4741  0.2641
14653TIP3    H165374   6.565   2.652   3.746  1.7647 -0.2239 -0.4946
14653TIP3    H265375   6.524   2.737   3.628  0.1082 -0.6156 -0.2290
14654TIP3   OH265376   5.037   2.391   2.594  0.0576  0.1797 -0.6081
14654TIP3    H165377   5.127   2.360   2.587  0.2980  0.7549 -0.1275
14654TIP3    H265378   4.995   2.328   2.653  0.2829  0.2089 -0.4175
14655TIP3   OH265379   2.362   2.113  12.166  0.3835  0.1668  0.0277
14655TIP3    H165380   2.425   2.043  12.147 -0.7177 -0.4815 -1.4750
14655TIP3    H265381   2.333   2.096  12.256  0.3730 -1.1499 -0.2048
14656TIP3   OH265382   5.161   1.593   6.381  0.1608 -0.6438 -0.0006
14656TIP3    H165383   5.227   1.575   6.448  1.1311  0.4281 -0.6271
14656TIP3    H265384   5.212   1.616   6.304 -0.9406  1.8745 -0.0424
14657TIP3   OH265385   4.932   2.636  11.811 -0.0380  0.2492  0.2987
14657TIP3    H165386   4.955   2.721  11.847  1.9510  0.5655 -1.5145
14657TIP3    H265387   4.962   2.573  11.877  2.0313  0.8547 -0.0087
14658TIP3   OH265388   4.429   4.327  14.141  0.8230  0.1714  1.0885
14658TIP3    H165389   4.415   4.261  14.074  0.4847  1.1356  0.1771
14658TIP3    H265390   4.358   4.314  14.204  1.8512 -1.5480  1.9765
14659TIP3   OH265391   5.420   0.087  16.243  0.6626 -0.0057  0.2110
14659TIP3    H165392   5.496   0.042  16.208  0.1875 -0.9042  0.3060
14659TIP3    H265393   5.346   0.029  16.224  0.0288  0.7423  0.3165
14660TIP3   OH265394   2.985   5.562   2.177  0.0240 -0.1349  0.0149
14660TIP3    H165395   2.918   5.521   2.232 -0.0801 -1.3378 -0.9597
14660TIP3    H265396   3.067   5.526   2.209  0.1055  0.3837  0.3997
14661TIP3   OH265397   5.631   4.799  10.320  0.2394  0.3191 -0.6986
14661TIP3    H165398   5.602   4.881  10.281 -1.3713  0.0943 -0.0395
14661TIP3    H265399   5.597   4.802  10.410  0.0540 -1.1228 -0.7077
14662TIP3   OH265400   4.885   2.398  14.588 -0.0924 -0.2342 -0.2736
14662TIP3    H165401   4.831   2.477  14.584 -0.2802 -0.4029 -1.2916
14662TIP3    H265402   4.934   2.407  14.670 -0.4038  0.7444 -0.1795
14663TIP3   OH265403   3.224   2.717   0.205 -1.2406  0.2185 -0.5817
14663TIP3    H165404   3.141   2.725   0.252 -0.6538 -1.1357  0.7630
14663TIP3    H265405   3.291   2.721   0.273 -0.2766 -0.2135 -1.4748
14664TIP3   OH265406   2.098   6.520  16.386 -0.1880 -0.0954 -0.0274
14664TIP3    H165407   2.178   6.520  16.334 -0.9384 -0.4657 -1.2360
14664TIP3    H265408   2.053   6.440  16.360 -1.0966  0.2665  0.3908
14665TIP3   OH265409   6.113   6.199  15.519  0.5981 -0.8162 -0.3033
14665TIP3    H165410   6.126   6.124  15.576 -0.2179 -1.1527 -0.5389
14665TIP3    H265411   6.020   6.221  15.529  0.7833  0.0345 -0.3837
14666TIP3   OH265412   2.742   2.181   5.975  0.2840  0.2525 -0.2877
14666TIP3    H165413   2.753   2.250   6.040  2.6353 -0.2337 -0.0665
14666TIP3    H265414   2.673   2.213   5.917  0.6782  2.3734  0.3300
14667TIP3   OH265415   0.149   4.282  16.412 -0.2277  0.1619 -0.1471
14667TIP3    H165416   0.137   4.237  16.328 -2.2783 -1.3121  0.8462
14667TIP3    H265417   0.184   4.214  16.470 -0.7630  0.6028  0.7004
14668TIP3   OH265418   4.545   5.340  15.741 -0.2272  0.5056 -0.7682
14668TIP3    H165419   4.637   5.337  15.769 -0.8080  0.3279  1.2372
14668TIP3    H265420   4.550   5.365  15.648  1.8681 -0.1443 -0.8977
14669TIP3   OH265421   6.207   5.163  11.728 -0.0443  0.5602 -0.7662
14669TIP3    H165422   6.257   5.101  11.674  0.3379  0.9242 -0.8360
14669TIP3    H265423   6.257   5.171  11.809  0.4890  1.5863 -1.1748
14670TIP3   OH265424   1.300   1.503  14.728 -0.3075 -0.4319  0.5269
14670TIP3    H165425   1.314   1.467  14.816  0.8368 -0.2436  0.4372
14670TIP3    H265426   1.213   1.542  14.732 -1.0050 -1.9648  1.0422
14671TIP3   OH265427   0.731   3.786   5.824  0.3971  0.6193 -0.3271
14671TIP3    H165428   0.811   3.839   5.825 -0.4666  2.0768 -2.1412
14671TIP3    H265429   0.669   3.834   5.879  0.2419  0.3748 -0.2839
14672TIP3   OH265430   1.165   4.824   0.352  0.3791 -0.3489 -0.8912
14672TIP3    H165431   1.085   4.860   0.314 -0.1035  1.4426  1.5191
14672TIP3    H265432   1.203   4.897   0.401  1.2161 -2.2311  1.4814
14673TIP3   OH265433   6.281   0.547  16.629  0.3580 -0.2729  0.5625
14673TIP3    H165434   6.220   0.613  16.663  1.0775 -0.1681  1.7278
14673TIP3    H265435   6.270   0.550  16.534 -2.0052 -0.8202  0.7752
14674TIP3   OH265436   4.695   5.435   0.398  0.1499  0.0937 -0.7414
14674TIP3    H165437   4.614   5.458   0.443  0.4871  1.9923 -0.9750
14674TIP3    H265438   4.704   5.341   0.409 -0.6553  0.2389  1.6768
14675TIP3   OH265439   3.906   3.972  11.312  0.5367 -0.1120 -0.2333
14675TIP3    H165440   3.862   4.055  11.331 -0.0505 -0.6204  0.6916
14675TIP3    H265441   3.949   3.987  11.228 -1.1419  0.5033 -1.0269
14676TIP3   OH265442   0.340   2.381  13.422 -0.1604 -0.3744 -0.6656
14676TIP3    H165443   0.282   2.453  13.447 -1.2889 -1.4662 -0.0415
14676TIP3    H265444   0.283   2.318  13.379  0.7217 -1.1293 -0.7622
14677TIP3   OH265445   5.862   1.417   0.953  0.5841 -0.3525  0.3687
14677TIP3    H165446   5.950   1.453   0.955  0.2090  0.6931 -0.6106
14677TIP3    H265447   5.855   1.374   0.867  0.9620 -2.6760  1.4436
14678TIP3   OH265448   4.371   0.737   2.954 -0.8253  0.0742  0.1230
14678TIP3    H165449   4.453   0.773   2.920 -0.2643 -1.9595 -0.8409
14678TIP3    H265450   4.316   0.728   2.876 -0.8880 -1.1874  0.2918
14679TIP3   OH265451   6.213   4.136   2.266  0.0489 -0.2230  0.3867
14679TIP3    H165452   6.289   4.079   2.280 -1.4183 -2.7012 -1.1694
14679TIP3    H265453   6.228   4.176   2.180  0.4389  0.8059  0.9062
14680TIP3   OH265454   3.749   3.981  12.002  0.2256 -0.0506 -0.2998
14680TIP3    H165455   3.689   4.002  11.931  1.2984  0.6677 -1.0293
14680TIP3    H265456   3.835   3.978  11.961  0.8920  0.4539  0.9881
14681TIP3   OH265457   4.228   5.427  14.252 -1.1093 -0.1219  1.2004
14681TIP3    H165458   4.276   5.385  14.323 -0.1043 -0.4783  0.3321
14681TIP3    H265459   4.161   5.363  14.228  0.0144 -1.0066  0.3068
14682TIP3   OH265460   0.843   4.849  11.600  0.0930 -0.3750 -0.5207
14682TIP3    H165461   0.817   4.841  11.691 -0.2403 -0.0994 -0.5877
14682TIP3    H265462   0.875   4.939  11.592 -0.0774 -0.3312 -0.7242
14683TIP3   OH265463   1.930   4.660  15.862 -0.2859  0.3613  0.0730
14683TIP3    H165464   1.895   4.614  15.785  0.7136  1.1953 -0.9212
14683TIP3    H265465   1.911   4.752  15.845 -0.5099  0.5144  1.0945
14684TIP3   OH265466   4.950   3.104  13.855  0.1033  0.5746  0.2226
14684TIP3    H165467   4.919   3.036  13.796 -0.2084  0.4321  0.5446
14684TIP3    H265468   4.937   3.186  13.808 -0.9402  0.5341  0.4217
14685TIP3   OH265469   5.763   4.973  12.073  0.8091 -0.3681 -0.2589
14685TIP3    H165470   5.767   5.025  12.153  1.8236 -0.8657  0.0328
14685TIP3    H265471   5.767   5.037  12.002 -1.9943  0.2408  0.0092
14686TIP3   OH265472   4.414   3.728   0.199 -0.0175  0.2409 -0.5053
14686TIP3    H165473   4.435   3.796   0.135  0.2099  0.5586 -0.0987
14686TIP3    H265474   4.363   3.664   0.150 -1.9503  1.6591 -0.4580
14687TIP3   OH265475   0.454   4.274   6.214 -0.4393 -0.0019 -0.5277
14687TIP3    H165476   0.381   4.288   6.274  0.2239 -0.9454  0.5394
14687TIP3    H265477   0.438   4.189   6.174  1.5166 -1.7190  1.9999
14688TIP3   OH265478   1.513   1.651   0.696  0.2199 -0.1735 -0.2455
14688TIP3    H165479   1.504   1.746   0.700 -0.4880 -0.2461  0.0405
14688TIP3    H265480   1.564   1.628   0.773  0.3062 -0.0318 -0.2613
14689TIP3   OH265481   5.240   2.305   0.713 -0.7844  0.4125  0.4439
14689TIP3    H165482   5.242   2.242   0.785 -0.7330 -0.4563 -0.3092
14689TIP3    H265483   5.195   2.381   0.750 -0.2246  0.2239  1.5789
14690TIP3   OH265484   5.387   4.374  11.339  0.1975  0.0252  0.1585
14690TIP3    H165485   5.450   4.302  11.334 -1.1175 -1.1893  0.1207
14690TIP3    H265486   5.405   4.417  11.422  1.1643 -0.1892  0.0700
14691TIP3   OH265487   5.985   4.718   3.176 -0.0945 -0.2034 -0.0409
14691TIP3    H165488   6.024   4.701   3.091  1.2240  1.1762  0.2501
14691TIP3    H265489   5.918   4.650   3.185 -0.4467 -0.2367 -2.2634
14692TIP3   OH265490   0.447   1.376  14.842 -0.3135 -0.1870 -0.1437
14692TIP3    H165491   0.430   1.290  14.804 -0.3315 -0.1515 -0.2175
14692TIP3    H265492   0.541   1.388  14.834 -0.1998 -0.5372  0.5965
14693TIP3   OH265493   1.024   0.438   5.751  0.2774  0.0016 -0.2576
14693TIP3    H165494   1.108   0.402   5.779  1.1478  0.8766 -1.6700
14693TIP3    H265495   0.992   0.485   5.828  2.1037  1.4372 -0.2992
14694TIP3   OH265496   3.747   1.731   2.137  0.2510 -0.1827  0.1025
14694TIP3    H165497   3.742   1.765   2.047  0.6845  0.4306  0.3000
14694TIP3    H265498   3.798   1.797   2.184  0.0668 -0.5267  0.7894
14695TIP3   OH265499   5.360   5.221   4.687 -0.0382 -0.1311  0.0816
14695TIP3    H165500   5.374   5.239   4.780 -2.2219  1.6215  0.1571
14695TIP3    H265501   5.318   5.135   4.685  1.5224 -0.9396  0.5400
14696TIP3   OH265502   6.073   6.469  14.701 -0.1402  0.5375  0.0695
14696TIP3    H165503   6.079   6.474  14.796  0.7210  0.1308  0.0395
14696TIP3    H265504   5.982   6.442  14.684 -0.3861  0.9141  0.7535
14697TIP3   OH265505   3.836   2.451  12.394  0.2280 -0.2510 -0.2646
14697TIP3    H165506   3.786   2.501  12.328 -0.7020  0.1023  0.6694
14697TIP3    H265507   3.919   2.430  12.351  0.4117  1.6082 -0.9047
14698TIP3   OH265508   0.539   5.786   1.168 -0.0327  0.0581  0.2586
14698TIP3    H165509   0.541   5.706   1.220  1.5949  0.0278  0.1981
14698TIP3    H265510   0.487   5.763   1.091  0.4768 -0.9584  0.2111
14699TIP3   OH265511   5.491   6.130  10.665 -0.3299  0.0545 -0.1199
14699TIP3    H165512   5.564   6.083  10.624 -0.5919 -0.4413 -0.0157
14699TIP3    H265513   5.422   6.129  10.600 -0.2996  0.3915 -0.1587
14700TIP3   OH265514   0.819   0.942  11.123  0.2879 -0.2462  0.3918
14700TIP3    H165515   0.750   0.885  11.157 -0.2595  0.1790  0.0067
14700TIP3    H265516   0.853   0.987  11.200 -0.0783 -0.2267  0.5446
14701TIP3   OH265517   4.109   3.350   0.393  0.2676  0.0859  0.5605
14701TIP3    H165518   4.024   3.312   0.372  1.3973 -2.2245 -0.1340
14701TIP3    H265519   4.152   3.285   0.450  1.2588  1.5877  1.6293
14702TIP3   OH265520   6.127   4.899  16.053 -0.3845 -0.8370 -0.5571
14702TIP3    H165521   6.198   4.866  16.108 -1.1816 -2.0070 -0.1899
14702TIP3    H265522   6.088   4.820  16.015 -1.3114 -0.1958 -0.9561
14703TIP3   OH265523   4.848   6.175  12.345  0.3307  0.9064 -0.1922
14703TIP3    H165524   4.850   6.271  12.350  0.0960  0.8933  0.2235
14703TIP3    H265525   4.807   6.148  12.427  2.8225  0.3144  0.9481
14704TIP3   OH265526   5.182   2.939   3.433 -0.0422  0.3449 -0.0853
14704TIP3    H165527   5.258   2.973   3.385 -0.0209 -0.4490 -0.6271
14704TIP3    H265528   5.107   2.965   3.381 -0.0812  0.2983 -0.0518
14705TIP3   OH265529   5.323   2.664  14.362  0.0128  0.4142 -0.5978
14705TIP3    H165530   5.280   2.602  14.304 -0.9197 -0.0599  0.5501
14705TIP3    H265531   5.334   2.743  14.309 -1.7248  0.3418 -1.1206
14706TIP3   OH265532   5.486   5.161   2.008 -0.1592 -0.1512  0.0541
14706TIP3    H165533   5.486   5.167   2.103 -1.8374 -0.7807  0.1310
14706TIP3    H265534   5.555   5.099   1.987  1.3803  1.2673  0.7195
14707TIP3   OH265535   6.061   3.026  15.674 -0.2159 -0.5037  0.5012
14707TIP3    H165536   5.999   2.954  15.661  0.8734 -1.6238  1.2767
14707TIP3    H265537   6.097   3.011  15.761 -1.1468  1.9476  1.4096
14708TIP3   OH265538   0.474   2.808  16.364  0.3579 -0.0621 -0.2490
14708TIP3    H165539   0.457   2.717  16.387  0.9061 -0.8901 -2.7878
14708TIP3    H265540   0.421   2.824  16.286  2.6478  0.7412 -1.7500
14709TIP3   OH265541   2.470   3.452   0.686 -0.4997 -0.1507 -0.8715
14709TIP3    H165542   2.400   3.408   0.735  0.2126  0.3517  0.6835
14709TIP3    H265543   2.547   3.397   0.700  0.2283  1.1382  0.4899
14710TIP3   OH265544   3.752   3.057  17.229 -0.3581  0.1710 -0.6832
14710TIP3    H165545   3.742   3.052  17.134  0.0149 -0.7226 -0.6835
14710TIP3    H265546   3.832   3.106  17.242 -0.4505  0.3627 -0.8292
14711TIP3   OH265547   0.869   1.228   1.868 -0.3532 -0.4530 -0.1442
14711TIP3    H165548   0.851   1.250   1.959 -1.8184 -0.9985 -0.2863
14711TIP3    H265549   0.859   1.311   1.821 -0.9877 -0.4494 -0.0060
14712TIP3   OH265550   0.455   4.878  13.675  0.1933  0.7005 -0.3902
14712TIP3    H165551   0.518   4.948  13.657 -0.5539  1.6765  0.6333
14712TIP3    H265552   0.451   4.828  13.593  2.2865  0.5936 -0.4683
14713TIP3   OH265553   0.119   3.914  16.979  0.1162 -0.0967  0.3525
14713TIP3    H165554   0.151   3.913  17.069 -0.1891  0.8047  0.4895
14713TIP3    H265555   0.077   4.000  16.970 -2.6460 -1.3211  0.3428
14714TIP3   OH265556   0.490   3.713   3.429  0.2159 -0.4800 -0.7076
14714TIP3    H165557   0.416   3.678   3.380 -0.5594 -0.2512  0.2729
14714TIP3    H265558   0.561   3.651   3.412 -0.6934 -1.6848 -0.2452
14715TIP3   OH265559   5.072   1.873  12.146 -0.4347 -0.4143  0.7587
14715TIP3    H165560   5.118   1.815  12.085 -2.2806  0.2658 -1.4315
14715TIP3    H265561   5.142   1.911  12.200  1.1029 -2.4048  0.3058
14716TIP3   OH265562   5.767   2.201  12.537  0.0453 -0.1349  0.0451
14716TIP3    H165563   5.677   2.222  12.562 -0.0543  0.3638 -0.6860
14716TIP3    H265564   5.768   2.105  12.530  0.5072 -0.4954  3.4261
14717TIP3   OH265565   2.627   4.114   4.693  0.0905  0.3463 -0.4082
14717TIP3    H165566   2.684   4.184   4.725  0.1552 -1.0336  2.8957
14717TIP3    H265567   2.540   4.139   4.725 -0.0671 -0.5027 -0.1597
14718TIP3   OH265568   4.465   3.843  16.116  1.0819  0.0767 -0.4140
14718TIP3    H165569   4.373   3.815  16.115  1.7387 -2.2503 -1.5022
14718TIP3    H265570   4.465   3.926  16.068 -0.8046  1.6494  2.0258
14719TIP3   OH265571   5.893   2.295  16.589 -0.7328 -0.0010 -0.6228
14719TIP3    H165572   5.799   2.293  16.608 -0.6271  0.1675 -0.0721
14719TIP3    H265573   5.916   2.203  16.576 -1.2315  0.0556 -2.0923
14720TIP3   OH265574   3.037   3.926   5.946  0.2180  0.2697 -1.2083
14720TIP3    H165575   3.026   3.836   5.977 -1.3258  0.2357 -1.7496
14720TIP3    H265576   3.103   3.920   5.878  1.4609 -0.1376 -0.0027
14721TIP3   OH265577   1.722   3.957  16.006  0.4621 -0.3299  0.2486
14721TIP3    H165578   1.792   3.961  16.071 -0.3688  0.1712  1.1386
14721TIP3    H265579   1.670   4.036  16.023 -0.5425 -0.9047 -0.1247
14722TIP3   OH265580   6.238   2.597   4.755  0.1368 -0.1259  0.2708
14722TIP3    H165581   6.251   2.530   4.687  1.0532 -0.8043  1.0802
14722TIP3    H265582   6.321   2.645   4.756  0.0590 -0.0034  0.7841
14723TIP3   OH265583   0.134   3.479   4.058 -0.5509  0.2207 -0.0915
14723TIP3    H165584   0.137   3.384   4.059 -0.7914  0.1919 -1.5044
14723TIP3    H265585   0.140   3.503   3.966 -1.8198  1.5319  0.1369
14724TIP3   OH265586   4.596   5.727  12.765  0.2239 -0.1182 -0.4542
14724TIP3    H165587   4.545   5.721  12.846  0.1531 -1.0076 -0.5550
14724TIP3    H265588   4.534   5.760  12.700 -0.1256 -0.8118 -0.4836
14725TIP3   OH265589   0.304   4.529  12.011  0.3211  0.1571  0.0582
14725TIP3    H165590   0.330   4.579  11.934 -0.8093  0.4546 -0.1512
14725TIP3    H265591   0.347   4.444  12.000 -0.7241 -0.2225 -1.5141
14726TIP3   OH265592   1.035   1.368   6.522 -0.5152  0.0251  0.2683
14726TIP3    H165593   1.121   1.330   6.505 -1.2570 -1.1679 -0.9731
14726TIP3    H265594   1.044   1.409   6.608  0.7880 -1.6306  0.9785
14727TIP3   OH265595   2.383   2.224  14.146 -0.2405  0.0130 -0.1447
14727TIP3    H165596   2.417   2.210  14.058  1.9269  0.1904  0.5983
14727TIP3    H265597   2.369   2.136  14.181  1.2183 -0.1452  0.1233
14728TIP3   OH265598   1.407   3.829  14.332  0.0161  0.5226  0.1209
14728TIP3    H165599   1.330   3.832  14.276  0.3103  1.3817 -0.2700
14728TIP3    H265600   1.480   3.814  14.272 -0.0359 -2.9132  0.7351
14729TIP3   OH265601   1.526   1.102   6.256  0.4933 -0.1378 -0.0929
14729TIP3    H165602   1.431   1.091   6.252  0.5594 -0.6049 -0.4390
14729TIP3    H265603   1.539   1.174   6.318 -0.1252  0.4947 -0.6794
14730TIP3   OH265604   4.780   4.715  12.704 -0.1119  0.2796 -0.0786
14730TIP3    H165605   4.765   4.621  12.695  0.4704  0.2690 -1.0731
14730TIP3    H265606   4.783   4.748  12.615 -0.3761  1.2606  0.2652
14731TIP3   OH265607   6.710   4.460   3.198 -0.6019 -0.1443  0.1594
14731TIP3    H165608   6.685   4.521   3.129  2.7393  1.1023 -0.1321
14731TIP3    H265609   6.720   4.375   3.154 -1.2835 -0.0045 -0.2762
14732TIP3   OH265610   5.019   2.693   5.460  0.3711  0.7813 -0.2136
14732TIP3    H165611   4.943   2.749   5.443 -0.1858  0.0228 -0.2575
14732TIP3    H265612   5.000   2.652   5.544  0.4016  0.0457 -0.5610
14733TIP3   OH265613   1.753   1.622  16.444  0.8394 -0.6583  0.4523
14733TIP3    H165614   1.757   1.542  16.497  1.1701  0.1901  1.7834
14733TIP3    H265615   1.664   1.623  16.408  0.3648 -0.9720  1.5454
14734TIP3   OH265616   3.768   5.447  13.833 -0.0934  0.5005  0.3793
14734TIP3    H165617   3.825   5.430  13.759 -1.8623 -0.3020 -0.8842
14734TIP3    H265618   3.766   5.364  13.881  0.7961  0.9225  1.1911
14735TIP3   OH265619   3.117   1.802  11.959  0.0337 -0.5623  0.7415
14735TIP3    H165620   3.057   1.772  12.027  0.0414 -0.9874  0.5670
14735TIP3    H265621   3.113   1.734  11.892  1.0155 -0.8066  0.9103
14736TIP3   OH265622   0.611   3.606   2.110  0.5426  0.4076 -0.2209
14736TIP3    H165623   0.597   3.525   2.158 -0.1514  0.1778 -0.7982
14736TIP3    H265624   0.693   3.592   2.062  1.2735  0.6650  0.9211
14737TIP3   OH265625   1.301   2.501   4.241  0.0349 -0.0185  0.1101
14737TIP3    H165626   1.238   2.429   4.254 -2.9846  2.0045 -1.9222
14737TIP3    H265627   1.270   2.570   4.300  2.1028  0.1558  1.0797
14738TIP3   OH265628   2.167   5.573   4.148  0.3800 -0.2852  0.2386
14738TIP3    H165629   2.202   5.603   4.232  0.9698 -0.6310  0.1243
14738TIP3    H265630   2.238   5.520   4.110  0.6600  0.9710 -1.0872
14739TIP3   OH265631   0.934   1.947  11.621 -0.5707  0.1044  0.3881
14739TIP3    H165632   0.908   1.856  11.637  0.0346 -0.5566 -2.0250
14739TIP3    H265633   0.856   1.989  11.586 -0.3054 -0.0705 -0.4445
14740TIP3   OH265634   4.099   3.370   3.130  0.7271 -1.1242 -0.2965
14740TIP3    H165635   4.102   3.275   3.140  1.2856 -1.1956 -1.0395
14740TIP3    H265636   4.162   3.389   3.061 -0.4942 -0.3462 -1.2370
14741TIP3   OH265637   4.734   1.095  15.067 -0.1237 -0.2882 -0.1961
14741TIP3    H165638   4.732   1.074  14.973  2.4450  2.0288 -0.9228
14741TIP3    H265639   4.693   1.181  15.073 -1.4831 -0.9950  1.0665
14742TIP3   OH265640   3.886   2.120  14.270 -0.2987  0.3434  0.1153
14742TIP3    H165641   3.889   2.165  14.354 -0.4640 -1.3520  1.0611
14742TIP3    H265642   3.793   2.100  14.257 -0.1198 -0.5587  0.1791
14743TIP3   OH265643   0.504   5.272   4.572 -0.0334  0.2733  0.2431
14743TIP3    H165644   0.582   5.313   4.533  1.3203 -1.4118  1.0443
14743TIP3    H265645   0.492   5.318   4.655 -0.4531  1.1172 -0.2657
14744TIP3   OH265646   0.579   0.145   5.731 -0.1121  0.1466  0.3278
14744TIP3    H165647   0.626   0.069   5.696 -0.3234  0.6423 -1.1119
14744TIP3    H265648   0.489   0.115   5.740  0.0006 -0.0736  0.7511
14745TIP3   OH265649   4.280   3.801  13.848  0.3736  0.3477 -0.4197
14745TIP3    H165650   4.359   3.857  13.851  0.4571  0.2082  1.2391
14745TIP3    H265651   4.227   3.839  13.778  0.6696  2.2146  0.2913
14746TIP3   OH265652   2.543   2.529   1.057 -0.2017 -0.4271 -0.3641
14746TIP3    H165653   2.452   2.555   1.071 -0.0653 -0.0784 -0.1167
14746TIP3    H265654   2.554   2.529   0.962  0.5018  2.9739 -0.4055
14747TIP3   OH265655   3.990   0.365  15.487 -0.3556  0.1657 -0.1919
14747TIP3    H165656   3.974   0.314  15.566  0.5575 -0.0462 -0.1409
14747TIP3    H265657   3.954   0.452  15.507 -1.5800 -0.3283 -0.1512
14748TIP3   OH265658   2.675   5.647   3.528  0.1132  0.7893  0.7764
14748TIP3    H165659   2.688   5.742   3.523 -0.6248  0.8531 -0.0506
14748TIP3    H265660   2.687   5.626   3.621  1.3531  1.5190  0.8099
14749TIP3   OH265661   2.683   3.022  11.766  0.1334 -0.4724  0.4776
14749TIP3    H165662   2.716   3.031  11.856 -0.1662  0.2909  0.5184
14749TIP3    H265663   2.590   3.001  11.777  0.4409 -2.0607  0.3547
14750TIP3   OH265664   5.603   1.537   0.384  0.2279  0.4917 -0.0629
14750TIP3    H165665   5.687   1.520   0.342  0.8978  2.7370  0.2059
14750TIP3    H265666   5.625   1.588   0.462 -1.4414  3.1932 -1.2127
14751TIP3   OH265667   3.195   1.986  16.371  0.0015  0.4779  0.1531
14751TIP3    H165668   3.252   1.991  16.294 -2.0060  3.0082 -1.3296
14751TIP3    H265669   3.107   1.978  16.336 -0.9743  1.4214  2.1789
14752TIP3   OH265670   2.561   1.304  12.819 -0.0870  0.9217 -0.1515
14752TIP3    H165671   2.561   1.278  12.911  1.5816 -1.2612 -0.6749
14752TIP3    H265672   2.513   1.387  12.817  0.7732  1.6064  2.8224
14753TIP3   OH265673   6.419   4.858  16.195  0.5359 -0.1726 -0.6945
14753TIP3    H165674   6.359   4.827  16.262  0.4595  0.7778 -0.2978
14753TIP3    H265675   6.469   4.928  16.238 -0.3542  1.3199 -1.9474
14754TIP3   OH265676   6.173   5.924   0.137 -0.0925 -0.4675  0.4128
14754TIP3    H165677   6.225   5.879   0.070  1.7039 -0.7170  1.8930
14754TIP3    H265678   6.083   5.922   0.103  0.6051 -1.3548 -1.5471
14755TIP3   OH265679   4.078   1.074  13.856 -0.2021  0.3449  0.1240
14755TIP3    H165680   4.047   1.155  13.897 -0.0873 -0.2990  1.5375
14755TIP3    H265681   4.170   1.070  13.879 -0.4134 -0.6287  0.8486
14756TIP3   OH265682   4.135   0.417  11.780 -0.4250 -0.0976 -0.3965
14756TIP3    H165683   4.074   0.398  11.851 -0.3006  0.5054 -0.1286
14756TIP3    H265684   4.098   0.372  11.704 -0.5542 -0.7487  0.0487
14757TIP3   OH265685   3.325   3.557  13.160  0.4347 -0.6053 -0.4898
14757TIP3    H165686   3.231   3.574  13.156  0.6629  1.3535  0.8958
14757TIP3    H265687   3.356   3.569  13.070 -0.5407 -0.6182 -0.8368
14758TIP3   OH265688   1.086   3.292  11.297 -0.1552  0.4595  0.2304
14758TIP3    H165689   1.050   3.214  11.255  1.3198 -1.4577  2.2836
14758TIP3    H265690   1.051   3.365  11.246 -0.5881 -1.5458 -2.5848
14759TIP3   OH265691   2.656   5.645   2.447 -0.0801  0.0673 -0.1145
14759TIP3    H165692   2.705   5.678   2.372  0.7897  0.4958  0.6326
14759TIP3    H265693   2.690   5.693   2.522 -0.4093 -0.8875  0.6708
14760TIP3   OH265694   1.714   2.729   2.371  0.1525 -0.3448  0.2236
14760TIP3    H165695   1.782   2.696   2.312 -0.4721 -0.3739 -0.4978
14760TIP3    H265696   1.701   2.820   2.344  0.3572 -0.1404  0.7938
14761TIP3   OH265697   4.939   2.458  16.073  0.3979  0.0992 -0.2897
14761TIP3    H165698   4.854   2.489  16.106 -0.0807  0.9480 -2.2016
14761TIP3    H265699   4.934   2.362  16.081  0.2463  0.2459  1.8400
14762TIP3   OH265700   3.297   3.098   5.900  0.0810  0.0496 -0.3865
14762TIP3    H165701   3.238   3.146   5.959  0.6703  1.1496 -0.6745
14762TIP3    H265702   3.372   3.155   5.889  0.8147 -0.9530 -0.7462
14763TIP3   OH265703   6.261   3.424   0.817 -0.1071 -0.2618 -0.0073
14763TIP3    H165704   6.263   3.378   0.901  0.3746 -2.4892 -1.1375
14763TIP3    H265705   6.188   3.382   0.770 -0.7722  1.3757 -0.5112
14764TIP3   OH265706   0.995   2.086   1.374  0.0754  0.0473 -0.6819
14764TIP3    H165707   1.015   2.048   1.289 -0.2905  0.2541 -0.8599
14764TIP3    H265708   1.020   2.018   1.437 -2.1278 -1.2116 -1.0415
14765TIP3   OH265709   5.114   0.103   3.630 -0.1410  0.5956 -0.6151
14765TIP3    H165710   5.156   0.183   3.664 -1.1886  0.8272  0.2094
14765TIP3    H265711   5.072   0.064   3.707  0.0281 -0.5522 -1.0884
14766TIP3   OH265712   5.584   3.492  12.260 -0.3816  0.3228 -0.1460
14766TIP3    H165713   5.570   3.541  12.341 -1.1925 -1.5902  0.9396
14766TIP3    H265714   5.654   3.430  12.280 -1.2960 -0.8895 -0.5118
14767TIP3   OH265715   0.261   5.789   2.549 -0.3531  0.0498  0.5640
14767TIP3    H165716   0.256   5.855   2.618  1.4983 -0.6965  1.4609
14767TIP3    H265717   0.250   5.705   2.594 -0.4416 -0.3834 -0.2387
14768TIP3   OH265718   6.667   1.203   5.324 -0.5565  0.0241  0.1540
14768TIP3    H165719   6.630   1.287   5.349 -1.8859  0.2253 -2.1802
14768TIP3    H265720   6.668   1.205   5.228 -1.1772 -2.8257  0.0070
14769TIP3   OH265721   3.561   3.484  14.696  0.1361 -0.4708  0.3069
14769TIP3    H165722   3.502   3.477  14.771 -3.3298  1.0364 -2.0224
14769TIP3    H265723   3.601   3.571  14.706 -0.2946 -0.2856  0.4590
14770TIP3   OH265724   5.982   2.761  13.362  0.5536  0.4941  0.2369
14770TIP3    H165725   6.033   2.680  13.365 -0.6478 -0.3060 -0.2408
14770TIP3    H265726   5.923   2.749  13.288  0.1770  1.7094  0.3298
14771TIP3   OH265727   2.300   0.394  13.237 -0.2018 -0.2276 -0.1022
14771TIP3    H165728   2.323   0.486  13.247  0.7110 -0.6955  3.5259
14771TIP3    H265729   2.242   0.375  13.310 -1.0488 -2.3856 -1.2174
14772TIP3   OH265730   3.607   4.561   2.328  0.4765  0.4786  0.4715
14772TIP3    H165731   3.556   4.594   2.402  0.7364 -0.3349  1.0268
14772TIP3    H265732   3.569   4.604   2.252  0.4723  1.6459  1.1113
14773TIP3   OH265733   1.323   5.091   4.152 -0.0299  0.2244  0.1041
14773TIP3    H165734   1.279   5.169   4.119 -0.1886  0.7155  1.4094
14773TIP3    H265735   1.416   5.111   4.145 -0.0609  0.2756 -0.1548
14774TIP3   OH265736   2.676   3.522   4.202 -0.4422 -0.5604  0.0387
14774TIP3    H165737   2.622   3.579   4.256 -0.0094  0.4217 -0.5448
14774TIP3    H265738   2.756   3.572   4.185 -0.2949 -1.0905 -0.9644
14775TIP3   OH265739   0.409   2.334   4.603 -0.0859 -1.0057  0.2500
14775TIP3    H165740   0.476   2.368   4.543 -0.0174 -0.0171  0.8737
14775TIP3    H265741   0.326   2.357   4.562 -0.0390 -0.3780  0.5055
14776TIP3   OH265742   2.763   1.510  12.918  0.0516  0.0301 -0.0020
14776TIP3    H165743   2.831   1.570  12.889 -1.0473  1.9647  1.1638
14776TIP3    H265744   2.683   1.543  12.877 -1.0173  1.0436  2.6487
14777TIP3   OH265745   5.302   2.298   6.493 -0.3938  0.3584 -0.4725
14777TIP3    H165746   5.324   2.368   6.555 -2.9922 -1.5880  3.0237
14777TIP3    H265747   5.363   2.227   6.514  1.1532  0.8701 -2.8775
14778TIP3   OH265748   5.979   5.384  11.354  0.2817 -0.1379  0.5825
14778TIP3    H165749   5.921   5.341  11.417 -1.3913  0.1877 -0.6508
14778TIP3    H265750   5.988   5.473  11.387 -0.9781  0.1691  0.1569
14779TIP3   OH265751   1.883   6.318   4.897 -0.2504  0.4518  0.2225
14779TIP3    H165752   1.889   6.354   4.985  0.0732 -1.4060  1.0038
14779TIP3    H265753   1.955   6.359   4.848  0.7930  0.0650  1.3838
14780TIP3   OH265754   6.620   2.856  11.767 -0.8492 -0.0237  0.3654
14780TIP3    H165755   6.608   2.881  11.858 -1.5196 -2.6169  1.0556
14780TIP3    H265756   6.668   2.930  11.728 -2.0731  1.9318  2.3412
14781TIP3   OH265757   0.944   3.682  13.453  0.6823 -0.8553  0.4332
14781TIP3    H165758   0.975   3.601  13.412 -1.6983 -2.0120  0.7691
14781TIP3    H265759   0.859   3.699  13.412  1.0499  1.4423  0.4781
14782TIP3   OH265760   2.583   2.490   6.047 -0.6644 -0.4062  0.1529
14782TIP3    H165761   2.592   2.580   6.079  0.5940 -0.3496 -0.3001
14782TIP3    H265762   2.670   2.467   6.015 -1.6598 -0.6536 -2.7081
14783TIP3   OH265763   6.073   4.552   1.395  0.1266 -0.1340 -0.3715
14783TIP3    H165764   5.979   4.540   1.381 -0.0690  0.4582  0.3447
14783TIP3    H265765   6.085   4.538   1.489  0.3980  1.9092 -0.0503
14784TIP3   OH265766   2.979   4.426   2.549 -0.5646  0.1666  0.4599
14784TIP3    H165767   3.025   4.346   2.526 -0.9790  0.4615 -1.5342
14784TIP3    H265768   2.902   4.397   2.598 -1.1139 -0.7380 -0.8957
14785TIP3   OH265769   5.042   4.248   3.257  0.3912 -0.1198  0.5530
14785TIP3    H165770   4.991   4.287   3.329  1.3749  2.6987 -0.1504
14785TIP3    H265771   4.989   4.266   3.179  1.2682  0.6649  0.1166
14786TIP3   OH265772   5.722   6.127   6.423 -0.3445  0.1164 -0.3666
14786TIP3    H165773   5.766   6.080   6.494  1.3095  0.4275 -1.1274
14786TIP3    H265774   5.649   6.071   6.398  0.2258 -0.9396  0.2703
14787TIP3   OH265775   2.398   1.793  11.727 -0.2915 -0.2467 -0.3151
14787TIP3    H165776   2.420   1.885  11.744 -0.4318 -0.2878  0.0944
14787TIP3    H265777   2.306   1.795  11.700 -0.4756 -0.3295  0.2915
14788TIP3   OH265778   2.978   2.782  10.535  0.0718  0.2090 -0.1886
14788TIP3    H165779   2.941   2.777  10.623  0.7829 -1.9766  0.0529
14788TIP3    H265780   3.055   2.838  10.545  1.0589 -1.2687  0.9834
14789TIP3   OH265781   3.729   1.344  13.853 -0.0297  0.2180 -0.3376
14789TIP3    H165782   3.724   1.276  13.786  0.6621 -0.9284  0.7249
14789TIP3    H265783   3.806   1.321  13.905 -0.5612  1.0463  0.8710
14790TIP3   OH265784   6.103   2.037  11.696  0.1128 -0.5527 -1.3135
14790TIP3    H165785   6.099   2.093  11.618 -0.1411 -1.2968 -1.8538
14790TIP3    H265786   6.030   1.976  11.685 -3.5798  2.6622  2.2065
14791TIP3   OH265787   5.279   3.878   6.106  0.0034 -0.1836  0.7494
14791TIP3    H165788   5.294   3.967   6.139 -2.1683  0.2403  0.7441
14791TIP3    H265789   5.198   3.850   6.149  0.8975 -2.3664  1.1073
14792TIP3   OH265790   0.739   5.994   0.251 -0.1242  0.4708 -0.0179
14792TIP3    H165791   0.834   5.981   0.260 -0.0549 -0.2517 -1.5671
14792TIP3    H265792   0.701   5.930   0.311  0.3599 -1.0619 -1.2707
14793TIP3   OH265793   3.562   6.514   1.296  0.3489 -0.7383 -0.5908
14793TIP3    H165794   3.552   6.555   1.382 -0.9163 -1.9901 -0.1028
14793TIP3    H265795   3.546   6.585   1.233  1.5915  0.2604  0.1676
14794TIP3   OH265796   4.727   2.847   5.891 -0.5396  0.1052 -0.2581
14794TIP3    H165797   4.741   2.752   5.888  0.2029  0.2341 -2.1408
14794TIP3    H265798   4.689   2.868   5.806 -1.0900  1.4535  0.3070
14795TIP3   OH265799   1.787   0.243  11.791 -0.3565 -0.3545  0.2449
14795TIP3    H165800   1.845   0.170  11.769  0.5625  0.8418 -1.5340
14795TIP3    H265801   1.714   0.202  11.838  0.6704 -2.2484  0.2847
14796TIP3   OH265802   1.323   5.096   1.573  0.7113 -0.6267  0.0403
14796TIP3    H165803   1.250   5.145   1.612 -0.3610 -1.3658 -0.9377
14796TIP3    H265804   1.383   5.080   1.645  0.1114  0.3894  0.7884
14797TIP3   OH265805   5.181   1.665  11.994 -0.3950  0.4845  0.4848
14797TIP3    H165806   5.171   1.622  11.909  1.2093 -0.1421  0.5697
14797TIP3    H265807   5.154   1.598  12.058  1.3884 -0.1971  0.5811
14798TIP3   OH265808   4.258   1.749   2.073  0.9033  0.3157  0.1073
14798TIP3    H165809   4.335   1.696   2.052  0.7529  0.2340 -0.2446
14798TIP3    H265810   4.246   1.804   1.995 -0.0371 -0.4275 -0.2837
14799TIP3   OH265811   2.207   5.303  13.503 -0.2495  0.3058 -0.2505
14799TIP3    H165812   2.133   5.247  13.481 -1.2436  1.0866  0.9320
14799TIP3    H265813   2.201   5.315  13.598  0.0032  2.2694 -0.4403
14800TIP3   OH265814   3.694   1.862   2.790 -0.0883  0.0971  0.1358
14800TIP3    H165815   3.728   1.883   2.703  2.1749 -1.5427  0.5219
14800TIP3    H265816   3.661   1.773   2.781  0.5686 -0.2499  1.0262
14801TIP3   OH265817   4.922   1.221   0.696 -0.3698  0.8046 -0.3027
14801TIP3    H165818   4.877   1.163   0.635  2.2331 -0.8921 -0.7701
14801TIP3    H265819   4.998   1.253   0.647  0.1390  1.8420  1.1035
14802TIP3   OH265820   3.533   6.575  15.293 -0.1271  0.2084  0.1922
14802TIP3    H165821   3.506   6.559  15.203 -1.6034  0.6357  0.5195
14802TIP3    H265822   3.589   6.652  15.288 -1.2445  1.0259 -0.2467
14803TIP3   OH265823   6.110   1.449  13.795 -0.3045  0.0779  0.5516
14803TIP3    H165824   6.044   1.418  13.858 -0.5472  0.3723  0.4456
14803TIP3    H265825   6.080   1.414  13.711 -1.3023  1.6472  0.2123
14804TIP3   OH265826   3.293   0.303  14.931  0.1130 -0.7089  0.1003
14804TIP3    H165827   3.214   0.296  14.877  0.6627  0.5144 -0.9021
14804TIP3    H265828   3.360   0.255  14.882  0.0854 -1.4614  0.7853
14805TIP3   OH265829   2.893   5.254   5.148  0.3761 -0.1611  0.5281
14805TIP3    H165830   2.897   5.304   5.066 -2.2860  0.3888  0.6526
14805TIP3    H265831   2.977   5.271   5.190  0.2179  3.0397 -0.1374
14806TIP3   OH265832   1.107   5.509   1.265 -0.5919 -0.3141  0.1366
14806TIP3    H165833   1.116   5.567   1.341  2.0762  0.7466 -0.8418
14806TIP3    H265834   1.183   5.452   1.270 -0.5722 -0.4896 -1.4876
14807TIP3   OH265835   6.271   3.115   3.018  0.7309 -0.1502  0.4364
14807TIP3    H165836   6.279   3.151   2.930  1.3717 -1.0147  0.1334
14807TIP3    H265837   6.285   3.190   3.076  0.9779  0.2939 -0.1902
14808TIP3   OH265838   6.624   2.003  12.429  0.0336 -0.4231  0.0457
14808TIP3    H165839   6.592   2.056  12.356  0.8583 -0.6522 -0.4973
14808TIP3    H265840   6.562   2.021  12.501 -0.7525 -0.1476 -0.6814
14809TIP3   OH265841   3.279   3.633   3.452  0.1048  0.0858  0.3781
14809TIP3    H165842   3.261   3.654   3.360  0.1588 -1.3225  0.0254
14809TIP3    H265843   3.194   3.640   3.495 -0.5519 -2.2398 -0.4157
14810TIP3   OH265844   3.246   1.306  16.286  0.1718 -0.5159 -0.5446
14810TIP3    H165845   3.249   1.337  16.195 -1.7992 -0.9991 -0.8316
14810TIP3    H265846   3.208   1.219  16.280 -1.4479  0.0342  0.8462
14811TIP3   OH265847   1.743   4.203  13.356 -0.1832 -0.1212 -0.4292
14811TIP3    H165848   1.691   4.221  13.278 -0.6905 -0.1731 -0.1087
14811TIP3    H265849   1.680   4.202  13.427  0.4849  1.6104  0.2396
14812TIP3   OH265850   1.077   2.650   3.241 -0.7806  0.3073  0.4986
14812TIP3    H165851   1.091   2.714   3.311  1.2752 -1.7159  2.0809
14812TIP3    H265852   1.134   2.679   3.170 -0.1572  0.4531  1.0516
14813TIP3   OH265853   0.961   5.470  16.583 -0.0217  0.3834 -0.4780
14813TIP3    H165854   0.970   5.375  16.587 -1.2218  0.2660 -0.2077
14813TIP3    H265855   0.966   5.499  16.674 -1.5177  0.3616 -0.3558
14814TIP3   OH265856   3.811   0.607   6.090 -0.1505  0.7575 -0.5723
14814TIP3    H165857   3.718   0.616   6.113 -0.2930  0.0528 -0.8438
14814TIP3    H265858   3.857   0.653   6.160 -0.7299  1.8044 -0.8481
14815TIP3   OH265859   0.086   1.849   0.929  0.1248 -0.0952 -0.4039
14815TIP3    H165860   0.145   1.923   0.917  0.0878  0.0728  0.4167
14815TIP3    H265861   0.042   1.866   1.012  0.6917 -1.4300  0.1974
14816TIP3   OH265862   3.737   3.756   2.720  0.1028 -0.2646 -0.2887
14816TIP3    H165863   3.811   3.816   2.728 -0.3296  0.1476  0.7527
14816TIP3    H265864   3.685   3.792   2.648  1.5826 -1.3308 -1.9886
14817TIP3   OH265865   3.540   3.670  13.317  0.1571  0.1337 -0.5076
14817TIP3    H165866   3.488   3.626  13.251  0.2049 -0.7187  0.0087
14817TIP3    H265867   3.553   3.759  13.283 -3.3852  1.0927  0.2605
14818TIP3   OH265868   4.654   6.112   5.878  0.0597 -0.3676  0.1088
14818TIP3    H165869   4.740   6.069   5.872  0.3535 -0.2103  2.2960
14818TIP3    H265870   4.656   6.158   5.962 -2.5410 -1.2369  0.7384
14819TIP3   OH265871   4.344   2.668   6.290 -0.1061 -1.0009  0.0081
14819TIP3    H165872   4.438   2.676   6.272 -0.2132 -0.1278 -0.2515
14819TIP3    H265873   4.305   2.740   6.239 -0.9261 -1.4431  0.0048
14820TIP3   OH265874   0.639   5.413  16.492  0.8246 -0.1046  0.2109
14820TIP3    H165875   0.611   5.445  16.577  0.5778  1.5406 -0.4576
14820TIP3    H265876   0.607   5.322  16.489  2.5458 -0.8879  2.6100
14821TIP3   OH265877   4.467   3.522   3.742  0.3216  0.3460  0.2738
14821TIP3    H165878   4.420   3.478   3.671 -0.2878 -0.2375  1.0105
14821TIP3    H265879   4.398   3.565   3.793  0.5192 -0.6874  1.4826
14822TIP3   OH265880   3.170   0.359   3.011  0.5171 -0.3430 -0.0726
14822TIP3    H165881   3.174   0.418   2.936 -0.1295 -1.3890 -0.9556
14822TIP3    H265882   3.231   0.289   2.991  0.1583 -0.7605  0.2604
14823TIP3   OH265883   4.466   4.259   1.623  0.6197 -0.2594 -0.8435
14823TIP3    H165884   4.491   4.166   1.627 -0.9512 -0.7350  3.7580
14823TIP3    H265885   4.514   4.299   1.695 -0.7944  1.9492 -1.0546
14824TIP3   OH265886   0.933   3.252  16.667  0.5389  0.0260 -0.2098
14824TIP3    H165887   0.961   3.328  16.718 -1.1470 -0.0003  0.8474
14824TIP3    H265888   0.899   3.289  16.586  0.2543  0.3751  0.0615
14825TIP3   OH265889   5.974   5.007   4.648  0.0719 -0.0523  0.2897
14825TIP3    H165890   5.959   4.914   4.669 -0.2140 -0.6910 -2.3568
14825TIP3    H265891   5.927   5.020   4.566  0.1396  2.4705  0.5938
14826TIP3   OH265892   4.819   3.792  15.355 -0.8323  0.7836 -0.3747
14826TIP3    H165893   4.879   3.809  15.281 -0.9197  0.7524 -0.4531
14826TIP3    H265894   4.814   3.876  15.401 -0.1829  0.6088  0.0359
14827TIP3   OH265895   0.318   1.881   1.287  0.2082  0.0674  0.8668
14827TIP3    H165896   0.375   1.939   1.235  0.7632  0.5151  1.9358
14827TIP3    H265897   0.231   1.893   1.249  1.1134 -2.5688 -2.5348
14828TIP3   OH265898   3.206   0.746  12.652 -0.9589  0.1616  0.0055
14828TIP3    H165899   3.145   0.688  12.698  0.4767 -0.3062  1.3889
14828TIP3    H265900   3.151   0.791  12.587 -2.3886 -1.6763 -0.1453
14829TIP3   OH265901   6.599   3.046  13.210 -0.3834 -0.0210 -0.4081
14829TIP3    H165902   6.534   3.004  13.265 -1.4346  1.0565 -0.7767
14829TIP3    H265903   6.667   2.980  13.198  1.1200  0.3910  4.0607
14830TIP3   OH265904   5.318   0.505   0.945  0.1239 -0.1733  0.3562
14830TIP3    H165905   5.331   0.588   0.900  1.1458 -0.0619  0.8375
14830TIP3    H265906   5.292   0.530   1.034 -0.8449 -0.3852  0.1431
14831TIP3   OH265907   1.440   5.752  12.280 -0.4988  0.0235 -0.0736
14831TIP3    H165908   1.393   5.719  12.203 -0.5427 -1.8579  0.7126
14831TIP3    H265909   1.525   5.708  12.276  0.3945  1.6835 -0.2551
14832TIP3   OH265910   4.607   2.113  14.085  0.1143 -0.1552  0.2846
14832TIP3    H165911   4.655   2.100  14.003 -0.5388 -0.9306  0.0108
14832TIP3    H265912   4.672   2.148  14.146  0.6150  0.4038 -0.5500
14833TIP3   OH265913   0.160   1.816  10.776  0.0410 -0.0284 -0.4264
14833TIP3    H165914   0.187   1.897  10.819  3.1274  0.3213 -2.6601
14833TIP3    H265915   0.067   1.808  10.796  0.0578  2.9669  1.5298
14834TIP3   OH265916   0.336   3.943  10.985 -0.1148  0.0982 -0.4037
14834TIP3    H165917   0.390   3.918  10.910  0.0381  0.4335 -0.4088
14834TIP3    H265918   0.335   4.039  10.983  0.5522  0.1438  0.4737
14835TIP3   OH265919   3.819   4.014   1.788  0.0459 -0.3036 -0.5247
14835TIP3    H165920   3.892   4.065   1.823  0.1667 -0.1583 -0.9777
14835TIP3    H265921   3.791   4.063   1.710 -2.2174  1.0638  1.0353
14836TIP3   OH265922   3.730   1.612  13.308  0.2566  0.2986 -0.3660
14836TIP3    H165923   3.785   1.584  13.236  0.4855  0.6221 -0.3183
14836TIP3    H265924   3.731   1.539  13.369  0.8741  0.4175 -0.2287
14837TIP3   OH265925   4.846   3.729   0.572  0.6181  0.5312 -0.9128
14837TIP3    H165926   4.932   3.759   0.600 -0.0150 -1.3029  3.8897
14837TIP3    H265927   4.785   3.795   0.604 -0.0748 -1.1813  1.6572
14838TIP3   OH265928   3.144   0.804  16.585  0.0640 -0.1721 -0.1408
14838TIP3    H165929   3.107   0.748  16.653  0.8899  1.2245  1.5641
14838TIP3    H265930   3.068   0.834  16.535 -0.6044 -0.9792  0.3537
14839TIP3   OH265931   0.898   2.400   0.554  0.2747  0.6035  0.2433
14839TIP3    H165932   0.807   2.428   0.553  0.4752  1.3658  1.7946
14839TIP3    H265933   0.894   2.307   0.531 -0.4901  1.4552 -3.8095
14840TIP3   OH265934   3.882   5.363   5.602 -0.1357  0.4895  0.8576
14840TIP3    H165935   3.818   5.294   5.582  0.0859  0.7071 -0.7598
14840TIP3    H265936   3.945   5.321   5.660  0.2521 -0.8491 -0.4483
14841TIP3   OH265937   4.622   6.212  16.272  0.2112 -0.2192  0.4633
14841TIP3    H165938   4.685   6.282  16.253 -0.9420  1.0069  1.0151
14841TIP3    H265939   4.558   6.219  16.201  0.2740 -0.9477  0.3349
14842TIP3   OH265940   2.867   5.240  10.983 -0.2129  0.0090  0.6745
14842TIP3    H165941   2.802   5.179  11.018 -0.1327 -1.1140 -1.0347
14842TIP3    H265942   2.933   5.184  10.942  0.1418  1.2186 -0.4710
14843TIP3   OH265943   2.906   6.148  15.155  0.0541 -0.4611 -0.1131
14843TIP3    H165944   2.877   6.117  15.069  1.5596  2.0392 -1.6375
14843TIP3    H265945   2.855   6.227  15.170  1.2512  0.2507  0.3289
14844TIP3   OH265946   1.273   6.003  16.241  0.4574  0.2580  0.5140
14844TIP3    H165947   1.192   6.001  16.191 -0.7827 -0.1649  2.4499
14844TIP3    H265948   1.312   5.917  16.228 -0.2608 -0.1303  0.8822
14845TIP3   OH265949   5.780   1.189   0.516  0.1639  0.2083 -0.2502
14845TIP3    H165950   5.754   1.115   0.462  2.2459  0.1506 -1.2815
14845TIP3    H265951   5.702   1.245   0.520 -0.3592 -0.2820 -2.4871
14846TIP3   OH265952   0.981   4.621  15.613  0.7705  0.5886 -0.4244
14846TIP3    H165953   0.969   4.609  15.518  0.7574  1.6548 -0.5599
14846TIP3    H265954   0.959   4.712  15.629  0.0106  0.2299  0.7386
14847TIP3   OH265955   4.303   3.191   5.847  0.1024  0.3146  0.2004
14847TIP3    H165956   4.263   3.188   5.934 -0.8574  1.1014 -0.1934
14847TIP3    H265957   4.239   3.150   5.789  1.1245 -1.0379 -0.0224
14848TIP3   OH265958   0.387   0.650  16.104 -0.4151  0.2356  0.2149
14848TIP3    H165959   0.437   0.722  16.143 -1.3877  0.3511  1.3122
14848TIP3    H265960   0.435   0.628  16.024 -0.1200  2.1601 -0.2092
14849TIP3   OH265961   0.821   1.449   1.698 -0.1507 -0.2611  0.1159
14849TIP3    H165962   0.877   1.457   1.621  1.3582 -0.7143  1.1096
14849TIP3    H265963   0.812   1.539   1.730  0.1746 -0.2047  0.0530
14850TIP3   OH265964   2.429   3.832  15.264 -0.0429  0.1351  1.0734
14850TIP3    H165965   2.449   3.811  15.356  1.7593  0.3996  0.7754
14850TIP3    H265966   2.489   3.904  15.242  0.6311 -0.9149 -0.7328
14851TIP3   OH265967   3.852   5.261   0.498 -0.4620 -0.2556 -0.0453
14851TIP3    H165968   3.843   5.283   0.590 -0.4717  0.0158 -0.1112
14851TIP3    H265969   3.827   5.169   0.493 -1.0246 -0.1159  0.1303
14852TIP3   OH265970   6.573   5.115   0.878  0.2095 -0.2113  0.3940
14852TIP3    H165971   6.599   5.195   0.832 -0.8151 -0.5383 -0.8213
14852TIP3    H265972   6.655   5.079   0.912  0.7487  1.0930  0.5546
14853TIP3   OH265973   5.551   1.634   4.435  0.1454  0.2954  0.5416
14853TIP3    H165974   5.525   1.630   4.343  0.8755  0.6347  0.3140
14853TIP3    H265975   5.587   1.547   4.454 -1.9484 -0.4997  1.1239
14854TIP3   OH265976   5.565   5.878  14.756  0.3790  0.0044  0.0692
14854TIP3    H165977   5.570   5.959  14.807  0.5893  0.3547 -0.5038
14854TIP3    H265978   5.490   5.890  14.698  1.1027  0.2849 -0.8430
14855TIP3   OH265979   1.684   1.065  17.159  0.2543  0.7651 -0.0917
14855TIP3    H165980   1.620   1.094  17.093 -1.1191 -0.4864  0.6357
14855TIP3    H265981   1.676   0.970  17.159 -1.3348  0.7712  3.3074
14856TIP3   OH265982   4.188   5.742   5.808 -0.0053 -0.4383  0.1352
14856TIP3    H165983   4.140   5.750   5.891  1.1497  1.3141  0.6890
14856TIP3    H265984   4.127   5.774   5.742  0.1435  1.1964  0.7527
14857TIP3   OH265985   1.422   2.705  12.350  0.3180  0.3243 -0.0231
14857TIP3    H165986   1.478   2.657  12.290  0.5191  1.0525 -0.4316
14857TIP3    H265987   1.476   2.720  12.428 -0.3124 -1.6422  0.8656
14858TIP3   OH265988   1.952   2.778  13.957 -0.2758 -0.4418 -0.3983
14858TIP3    H165989   1.903   2.855  13.988  2.2777  0.5957  1.3956
14858TIP3    H265990   1.948   2.717  14.030 -0.4729 -1.1242 -0.9768
14859TIP3   OH265991   0.540   0.869   4.261 -0.6886  0.2463  0.8953
14859TIP3    H165992   0.471   0.923   4.301 -1.0579 -0.5973  1.4207
14859TIP3    H265993   0.532   0.886   4.167 -0.8341  1.0599  1.0472
14860TIP3   OH265994   6.293   0.343   2.828 -0.2770  0.1737 -0.4494
14860TIP3    H165995   6.371   0.288   2.818 -0.5338 -0.2990  0.1058
14860TIP3    H265996   6.313   0.402   2.900 -1.1984 -1.3414  1.1132
14861TIP3   OH265997   0.864   3.496  16.834 -0.6301  0.2121 -0.0852
14861TIP3    H165998   0.827   3.422  16.882 -0.3123  0.8855  1.2440
14861TIP3    H265999   0.791   3.557  16.826 -0.5297  0.3527  0.0687
14862TIP3   OH266000   6.730   5.435  11.180  0.0102  0.1763 -0.0452
14862TIP3    H166001   6.714   5.406  11.090  0.1457  0.2433 -0.0914
14862TIP3    H266002   6.666   5.386  11.232 -1.6939  1.8624 -0.4436
14863TIP3   OH266003   2.121   3.716  17.266 -0.2715 -0.3018  0.2070
14863TIP3    H166004   2.217   3.719  17.265 -0.2999  1.4447 -0.8140
14863TIP3    H266005   2.099   3.713  17.359  0.7798  0.2731  0.4960
14864TIP3   OH266006   1.459   6.219   3.504 -0.1892 -0.8193 -0.4002
14864TIP3    H166007   1.368   6.243   3.522 -0.5008 -1.8248 -0.5609
14864TIP3    H266008   1.463   6.124   3.520  1.2207 -0.5403  1.1281
14865TIP3   OH266009   5.429   0.389  16.455 -0.4690 -0.1129  0.1476
14865TIP3    H166010   5.419   0.294  16.448  1.2214 -0.5293  2.4233
14865TIP3    H266011   5.340   0.423  16.453 -1.0477 -1.5794 -2.0502
14866TIP3   OH266012   2.376   2.115   5.008 -0.3787  0.2402 -0.5089
14866TIP3    H166013   2.362   2.181   4.940 -2.8485  1.5924  1.1390
14866TIP3    H266014   2.290   2.106   5.050  0.5617 -2.0321  1.1175
14867TIP3   OH266015   6.444   0.252  15.851  0.1945  0.5093 -0.1315
14867TIP3    H166016   6.526   0.260  15.803  0.3035 -0.4397 -0.1262
14867TIP3    H266017   6.378   0.236  15.784  0.2336 -0.1082 -0.0235
14868TIP3   OH266018   4.081   1.979  12.086 -0.3143 -0.3841 -0.2154
14868TIP3    H166019   4.107   1.994  12.177 -1.0659  0.0584 -0.0628
14868TIP3    H266020   4.104   2.060  12.041  1.5125 -1.1700 -0.7787
14869TIP3   OH266021   4.326   3.581  12.888  0.3918  0.2163  1.0018
14869TIP3    H166022   4.327   3.513  12.955  2.7945 -0.3225  0.5263
14869TIP3    H266023   4.416   3.584  12.856 -0.0163  2.5349 -0.1215
14870TIP3   OH266024   0.014   3.102  14.136  0.4974 -0.9172 -0.0868
14870TIP3    H166025   0.015   3.061  14.050 -2.8736  0.2920 -0.8221
14870TIP3    H266026   0.027   3.195  14.119 -1.1311 -0.5421  0.5852
14871TIP3   OH266027   5.986   4.745   0.725  0.4403  0.2781 -0.2936
14871TIP3    H166028   5.969   4.821   0.780 -1.8691 -0.2498 -0.2032
14871TIP3    H266029   5.990   4.671   0.786 -0.6870 -0.1125 -0.6732
14872TIP3   OH266030   2.341   4.892  12.463  0.2305  0.0998 -0.0708
14872TIP3    H166031   2.380   4.933  12.386 -0.0567 -0.7588 -0.6934
14872TIP3    H266032   2.278   4.957  12.496  0.0052  0.2855 -0.8506
14873TIP3   OH266033   3.334   2.051  11.499 -0.2789 -0.4507 -0.0028
14873TIP3    H166034   3.330   2.089  11.411  0.7251 -1.2675 -0.4306
14873TIP3    H266035   3.276   2.106  11.552 -1.4280 -0.3272 -1.3104
14874TIP3   OH266036   4.353   4.245  13.891 -0.0912 -0.0974 -0.1874
14874TIP3    H166037   4.339   4.334  13.923  0.4825  0.8917 -2.4593
14874TIP3    H266038   4.399   4.257  13.807 -0.3834 -2.5111 -0.7593
14875TIP3   OH266039   4.036   3.093   1.754 -0.6271 -0.2728  0.3440
14875TIP3    H166040   4.127   3.066   1.770 -0.3663  0.0202 -0.5631
14875TIP3    H266041   4.041   3.189   1.750 -0.9132 -0.2728 -0.0510
14876TIP3   OH266042   5.196   4.295   5.976  0.1387  0.4095 -0.5745
14876TIP3    H166043   5.186   4.236   6.051  1.2142  0.0568 -0.6928
14876TIP3    H266044   5.241   4.372   6.011  1.5433 -0.1704 -1.0227
14877TIP3   OH266045   1.032   1.770   3.802  0.1460 -0.7656 -0.3140
14877TIP3    H166046   1.125   1.781   3.823 -0.4122  0.3172  1.8686
14877TIP3    H266047   1.010   1.847   3.750  0.0813 -0.0605  0.7265
14878TIP3   OH266048   4.382   3.895  10.288 -0.1886  0.7632  0.0119
14878TIP3    H166049   4.434   3.829  10.242 -0.4285  0.8228 -0.3504
14878TIP3    H266050   4.335   3.942  10.219 -0.2216  1.1423  0.2856
14879TIP3   OH266051   1.127   6.700   1.545 -0.3050  0.2476  0.0854
14879TIP3    H166052   1.195   6.671   1.485  0.6144  0.7163  0.8805
14879TIP3    H266053   1.150   6.790   1.567 -1.3917  0.5469  0.0792
14880TIP3   OH266054   4.942   5.717   3.555  0.4653  0.3848 -0.4129
14880TIP3    H166055   4.897   5.634   3.540 -1.6060  1.1942  0.9275
14880TIP3    H266056   4.990   5.703   3.637  0.9034  0.2225 -0.6928
14881TIP3   OH266057   3.834   4.925  12.199  0.1743  0.3920  0.2426
14881TIP3    H166058   3.839   4.851  12.139  2.4916  0.0933  0.7171
14881TIP3    H266059   3.790   4.993  12.148  0.3876 -0.4618 -1.1554
14882TIP3   OH266060   3.495   0.492  15.791  0.2580  0.2998  0.1175
14882TIP3    H166061   3.416   0.449  15.760  0.1947  0.8374 -0.4995
14882TIP3    H266062   3.483   0.584  15.767  1.4575  0.2453 -0.8145
14883TIP3   OH266063   4.789   5.599  12.912  0.3604 -0.0604 -0.4693
14883TIP3    H166064   4.815   5.678  12.958  0.6235 -0.5236  0.1865
14883TIP3    H266065   4.722   5.628  12.850  0.0410  0.5745  0.1678
14884TIP3   OH266066   5.818   1.373   4.932 -0.1545  0.0261 -0.2212
14884TIP3    H166067   5.874   1.447   4.906 -0.3250 -0.0906 -0.9366
14884TIP3    H266068   5.813   1.319   4.854  1.3907 -1.6720  0.7706
14885TIP3   OH266069   0.230   2.030  17.102  0.3211  0.4801  0.1831
14885TIP3    H166070   0.157   1.976  17.132 -1.1813  1.9367 -0.7139
14885TIP3    H266071   0.308   1.985  17.134 -0.8383 -2.2342 -0.5991
14886TIP3   OH266072   5.374   5.105  13.120  0.1876  0.2566 -0.4392
14886TIP3    H166073   5.306   5.129  13.057  0.5251  2.1764 -0.1261
14886TIP3    H266074   5.331   5.112  13.205  0.8425  1.9543 -0.2044
14887TIP3   OH266075   4.765   5.277   3.822 -0.3470 -0.3579 -0.6312
14887TIP3    H166076   4.860   5.290   3.824 -0.2327 -1.1569  1.5372
14887TIP3    H266077   4.729   5.366   3.815  0.5079 -0.1254 -3.2263
14888TIP3   OH266078   4.208   2.211  11.970  0.8680  0.4961  0.1919
14888TIP3    H166079   4.185   2.261  11.891 -0.9310  3.0415  2.1699
14888TIP3    H266080   4.291   2.250  12.000  1.1585  0.0396 -0.0016
14889TIP3   OH266081   5.601   4.158  13.441 -0.6019  0.3244 -0.1074
14889TIP3    H166082   5.543   4.229  13.413 -0.4166  0.6516  0.3187
14889TIP3    H266083   5.586   4.150  13.535 -1.0571 -0.6138 -0.2589
14890TIP3   OH266084   6.458   4.301  16.546  0.4898  0.1666  0.2775
14890TIP3    H166085   6.553   4.304  16.553  0.4209  1.0120  1.0903
14890TIP3    H266086   6.429   4.265  16.630  0.1564 -2.0317 -0.7026
14891TIP3   OH266087   1.168   4.395   0.095 -0.6316  0.0278  0.2296
14891TIP3    H166088   1.112   4.318   0.090 -0.0744 -0.4319  0.8995
14891TIP3    H266089   1.142   4.438   0.177  0.4899 -0.6039  0.9435
14892TIP3   OH266090   4.416   3.818  12.498 -0.4237 -0.1332 -0.9691
14892TIP3    H166091   4.469   3.823  12.419 -0.4813 -0.3155 -1.0189
14892TIP3    H266092   4.474   3.850  12.567 -0.3643 -0.0020 -1.0803
14893TIP3   OH266093   0.254   2.090   3.423 -0.3449 -0.2934 -0.5969
14893TIP3    H166094   0.267   2.171   3.472 -2.1773  0.4719 -1.2741
14893TIP3    H266095   0.315   2.096   3.349  0.9086 -0.4660  0.4015
14894TIP3   OH266096   1.062   1.606  15.833 -0.3645  0.6863 -0.3744
14894TIP3    H166097   1.137   1.573  15.783 -0.8569  1.1147 -1.4098
14894TIP3    H266098   1.025   1.528  15.874 -0.7408  0.1089 -1.7585
14895TIP3   OH266099   6.144   4.323  12.251  0.2380  0.1216  0.0253
14895TIP3    H166100   6.213   4.321  12.184 -0.0121  1.3835 -0.3009
14895TIP3    H266101   6.108   4.412  12.245  0.7522  0.5676  2.4048
14896TIP3   OH266102   2.418   5.049  14.278  0.6142 -0.7844  0.3152
14896TIP3    H166103   2.362   4.985  14.235 -1.4690  1.4055 -0.4328
14896TIP3    H266104   2.376   5.063  14.363 -0.2581  1.0896 -0.3667
14897TIP3   OH266105   2.323   5.644  16.174 -0.0728 -0.6485 -0.5336
14897TIP3    H166106   2.247   5.663  16.119  1.6843 -1.0016 -3.2295
14897TIP3    H266107   2.300   5.561  16.217 -0.4699 -1.8746 -2.9203
14898TIP3   OH266108   1.049   2.640  12.887  0.1558 -0.4151  0.1723
14898TIP3    H166109   1.131   2.669  12.927  0.9672 -1.7959 -0.4023
14898TIP3    H266110   1.058   2.545  12.881 -1.8867 -0.6998  0.9361
14899TIP3   OH266111   2.449   1.314  11.146 -0.0604  0.0776  0.0743
14899TIP3    H166112   2.539   1.279  11.146 -0.0120  0.0577  2.1552
14899TIP3    H266113   2.426   1.320  11.054  2.8249  2.0001 -0.6588
14900TIP3   OH266114   4.519   2.131  12.004 -0.3973  0.0312  0.5814
14900TIP3    H166115   4.585   2.132  11.935 -1.4262 -0.2860 -0.4474
14900TIP3    H266116   4.546   2.061  12.063  0.1505 -0.1269  0.1469
14901TIP3   OH266117   3.202   4.070  15.595 -0.8750 -0.3509 -0.9059
14901TIP3    H166118   3.282   4.119  15.616 -1.1288  0.1363 -1.0792
14901TIP3    H266119   3.221   3.980  15.625 -0.8055  0.0761  0.4124
14902TIP3   OH266120   1.932   1.154  17.241  0.6574 -0.0733 -0.0897
14902TIP3    H166121   1.994   1.221  17.211  0.9374 -0.6958 -0.9344
14902TIP3    H266122   1.870   1.144  17.168  1.1006 -1.3084 -0.3182
14903TIP3   OH266123   4.114   0.074  12.241  0.0590  0.3532 -0.6029
14903TIP3    H166124   4.092   0.098  12.331 -0.7845  0.3882 -0.8095
14903TIP3    H266125   4.029   0.069  12.196  0.5044  0.7767 -1.5078
14904TIP3   OH266126   1.972   4.258   0.486 -0.1900 -0.3214 -0.3027
14904TIP3    H166127   1.943   4.330   0.543 -0.9510 -0.1571 -0.8796
14904TIP3    H266128   1.990   4.186   0.546 -0.9376 -0.1343  0.1603
14905TIP3   OH266129   1.157   1.983   3.295  0.8704  0.0319 -0.3129
14905TIP3    H166130   1.231   1.972   3.236  0.7365 -1.6558 -0.2132
14905TIP3    H266131   1.081   1.991   3.238  1.0311  1.0466 -0.4000
14906TIP3   OH266132   3.972   1.041  13.109  0.0257  0.7838 -0.0375
14906TIP3    H166133   3.912   1.047  13.184 -0.9059  2.4334 -0.8668
14906TIP3    H266134   4.029   1.117  13.118 -0.6858  1.5278 -1.4563
14907TIP3   OH266135   4.231   0.421  12.231  0.6637 -0.4003  0.0898
14907TIP3    H166136   4.140   0.444  12.254 -0.3683 -3.1086 -0.9439
14907TIP3    H266137   4.269   0.392  12.314  0.5172  0.4512  0.4715
14908TIP3   OH266138   4.021   3.743  11.386 -0.5104  0.4645 -0.0307
14908TIP3    H166139   3.994   3.825  11.346 -1.3508  1.0674  1.6386
14908TIP3    H266140   3.963   3.734  11.463  0.5509 -0.9307  0.6563
14909TIP3   OH266141   1.044   3.184   2.659 -0.2673 -0.1318  0.0864
14909TIP3    H166142   1.136   3.172   2.683 -0.5970 -1.1143  0.9226
14909TIP3    H266143   1.044   3.183   2.563  0.2584 -3.2913  0.0014
14910TIP3   OH266144   2.113   5.946  12.522  0.3778 -0.1931 -0.4678
14910TIP3    H166145   2.019   5.932  12.533  0.5605  0.1788  2.1319
14910TIP3    H266146   2.147   5.861  12.495 -0.5900 -0.5453 -0.6032
14911TIP3   OH266147   0.685   3.522   5.823 -0.3650  0.2326 -0.4563
14911TIP3    H166148   0.711   3.496   5.911 -0.2213 -0.2248 -0.6267
14911TIP3    H266149   0.712   3.613   5.815  0.2775  0.0609 -0.2815
14912TIP3   OH266150   5.170   2.372   1.361  0.2826  0.3543  0.1192
14912TIP3    H166151   5.095   2.364   1.421 -0.7933  0.4724 -1.1614
14912TIP3    H266152   5.172   2.465   1.338  0.0213  0.1281 -0.8391
14913TIP3   OH266153   6.484   3.910  15.078  0.0847  0.0139 -0.2406
14913TIP3    H166154   6.391   3.926  15.093  0.0586 -0.5243  0.1914
14913TIP3    H266155   6.527   3.951  15.153  0.2152  0.4592 -0.5547
14914TIP3   OH266156   0.662   0.904  11.382 -0.2298 -0.2095  0.2536
14914TIP3    H166157   0.591   0.944  11.331 -0.1293 -1.7075 -1.1745
14914TIP3    H266158   0.702   0.977  11.429 -1.0938  1.0704 -0.9021
14915TIP3   OH266159   0.851   3.994   0.888 -0.1957  0.0525 -0.1703
14915TIP3    H166160   0.824   4.046   0.813  2.0295 -0.5143 -1.4563
14915TIP3    H266161   0.942   4.019   0.903 -0.9349  1.2198  3.3385
14916TIP3   OH266162   5.337   3.609   6.302 -0.2698 -0.6740  0.1419
14916TIP3    H166163   5.339   3.659   6.384  0.7593 -0.6362  0.1038
14916TIP3    H266164   5.328   3.518   6.330 -1.8142 -0.5164  0.2233
14917TIP3   OH266165   0.570   1.514  15.640  0.1566  0.3473  0.0006
14917TIP3    H166166   0.578   1.592  15.696  1.6486  0.5662 -0.4724
14917TIP3    H266167   0.647   1.461  15.663 -0.6639 -0.8478  0.0749
14918TIP3   OH266168   6.504   4.332  14.268 -0.2037  0.8258  0.4315
14918TIP3    H166169   6.422   4.379  14.257 -0.8762 -0.7659 -2.6233
14918TIP3    H266170   6.479   4.239  14.272  1.3524  0.3288 -0.2234
14919TIP3   OH266171   4.367   3.919  13.335  0.1539 -0.5488 -0.5134
14919TIP3    H166172   4.448   3.874  13.310  1.1034  0.2285  0.9882
14919TIP3    H266173   4.327   3.861  13.401  0.7834  0.2133  0.5664
14920TIP3   OH266174   2.376   6.674  16.890  0.4300  0.0275  0.2502
14920TIP3    H166175   2.412   6.615  16.955  0.1796  1.7194  2.0162
14920TIP3    H266176   2.452   6.723  16.858  0.5115 -0.6063 -0.5606
14921TIP3   OH266177   1.410   0.903  12.448  0.0981  0.0539 -0.0111
14921TIP3    H166178   1.388   0.890  12.541  1.0364  1.8178  0.5007
14921TIP3    H266179   1.496   0.862  12.438  0.2796  0.4061  0.0725
14922TIP3   OH266180   2.246   2.366   4.428  0.2053 -0.1862 -0.5106
14922TIP3    H166181   2.223   2.432   4.494 -0.9183 -0.5004 -0.5737
14922TIP3    H266182   2.179   2.376   4.361  0.8948 -0.3981 -1.2483
14923TIP3   OH266183   4.846   2.832   6.288  0.0371  0.0662 -0.3566
14923TIP3    H166184   4.870   2.770   6.219  1.0512 -0.2986  0.2958
14923TIP3    H266185   4.806   2.777   6.356 -0.3361  0.3323 -0.3578
14924TIP3   OH266186   5.632   3.694   1.216  0.1350  0.3889 -0.1437
14924TIP3    H166187   5.580   3.617   1.240 -0.4259  0.0218 -2.3248
14924TIP3    H266188   5.588   3.767   1.260 -1.4337 -0.0978 -0.8232
14925TIP3   OH266189   2.869   3.216  13.656  0.5545 -0.1856  0.4898
14925TIP3    H166190   2.882   3.190  13.748  2.4057 -0.5608  0.1635
14925TIP3    H266191   2.920   3.296  13.646  1.4102 -0.8258 -0.5014
14926TIP3   OH266192   0.325   2.368   3.133  0.7704 -0.2943  0.7072
14926TIP3    H166193   0.272   2.370   3.053  0.6912  1.6614  0.7783
14926TIP3    H266194   0.269   2.406   3.200  1.4836 -0.2668  1.3018
14927TIP3   OH266195   6.062   2.299   6.241 -0.5590 -0.6751  0.2879
14927TIP3    H166196   6.158   2.293   6.245 -0.4821  0.7689  1.5104
14927TIP3    H266197   6.032   2.244   6.314 -0.6213 -0.3726  0.4895
14928TIP3   OH266198   2.988   2.134   0.791  0.6874 -0.3171  0.3566
14928TIP3    H166199   2.968   2.041   0.807 -2.3024  0.1600 -0.0270
14928TIP3    H266200   2.990   2.141   0.695 -0.0539  0.1560  0.3685
14929TIP3   OH266201   0.048   3.358   3.349  0.7475 -0.7494 -0.5393
14929TIP3    H166202   0.139   3.362   3.377  0.3960 -0.2340  0.5865
14929TIP3    H266203  -0.001   3.398   3.421 -0.1793  0.8855 -2.0024
14930TIP3   OH266204   4.647   2.568   2.344 -0.1041  0.2553 -0.3203
14930TIP3    H166205   4.727   2.589   2.392  0.5207  0.6899 -1.5164
14930TIP3    H266206   4.657   2.475   2.322 -0.5383 -0.0323  0.6171
14931TIP3   OH266207   3.448   1.055  12.942 -1.0661  0.1434  0.8848
14931TIP3    H166208   3.541   1.078  12.948 -1.0297  0.7822 -1.3016
14931TIP3    H266209   3.443   0.993  12.869 -2.4377  0.6801  0.4947
14932TIP3   OH266210   1.003   5.203  16.334  0.1797 -0.8489 -0.0577
14932TIP3    H166211   0.910   5.218  16.349  0.2142  1.1169 -1.3503
14932TIP3    H266212   1.039   5.291  16.322  1.8404 -1.6798 -1.5734
14933TIP3   OH266213   2.499   4.454   5.381 -0.6262 -0.3307  0.1116
14933TIP3    H166214   2.527   4.416   5.298  0.2293 -0.2419  0.3522
14933TIP3    H266215   2.580   4.467   5.430 -1.0717  0.1703  0.7276
14934TIP3   OH266216   5.454   0.083   4.532  0.0164 -0.2795  0.2078
14934TIP3    H166217   5.533   0.093   4.479  1.5447 -1.3891  2.1647
14934TIP3    H266218   5.397   0.025   4.481  0.5441  0.3357 -1.1151
14935TIP3   OH266219   1.221   5.551  13.127  0.7138 -0.4912  0.1230
14935TIP3    H166220   1.151   5.614  13.144  1.8663  1.8764 -2.9804
14935TIP3    H266221   1.301   5.597  13.153  1.3599 -2.7606  2.6250
14936TIP3   OH266222   5.954   5.062   2.314  0.2661  0.4467  0.3449
14936TIP3    H166223   5.874   5.114   2.309  1.4096  2.3139  0.3530
14936TIP3    H266224   5.971   5.053   2.408  1.4249  2.3684  0.3714
14937TIP3   OH266225   4.829   4.373   5.948  0.6096  0.0463 -0.1548
14937TIP3    H166226   4.852   4.298   6.003 -1.1206 -2.2405 -2.3079
14937TIP3    H266227   4.733   4.374   5.948  0.5559  2.4668 -0.0508
14938TIP3   OH266228   2.452   5.839  16.839  0.0366  0.4683 -0.6818
14938TIP3    H166229   2.512   5.899  16.795  0.1437  2.0517  1.4777
14938TIP3    H266230   2.508   5.771  16.875  0.4947  1.4869  0.6048
14939TIP3   OH266231   6.060   2.246  12.447 -0.0303  0.0349  0.4793
14939TIP3    H166232   6.095   2.306  12.513 -1.6837  1.0628  0.4761
14939TIP3    H266233   5.972   2.225  12.478 -0.1520 -0.9551 -0.4744
14940TIP3   OH266234   5.962   4.834  11.692 -0.1515 -0.3007  0.1452
14940TIP3    H166235   5.960   4.841  11.597 -2.1901 -3.0735 -0.1232
14940TIP3    H266236   6.043   4.787  11.711 -0.0678 -0.3290 -0.2620
14941TIP3   OH266237   1.346   2.734   1.461  0.1897 -0.5333 -0.5986
14941TIP3    H166238   1.266   2.785   1.453 -0.4248 -0.6864  2.8905
14941TIP3    H266239   1.348   2.678   1.383 -3.3705 -0.8905 -0.5701
14942TIP3   OH266240   0.648   4.640  12.363  0.2934 -0.3345 -0.6102
14942TIP3    H166241   0.692   4.724  12.381  0.5464 -0.0212 -2.5238
14942TIP3    H266242   0.584   4.632  12.434  1.7723  0.3556  0.9006
14943TIP3   OH266243   6.319   5.958   4.032  0.2920  0.5930 -0.8316
14943TIP3    H166244   6.414   5.964   4.041  0.3331  0.2186 -1.0030
14943TIP3    H266245   6.305   5.944   3.938 -0.0056  2.0809 -1.0243
14944TIP3   OH266246   0.775   0.564  12.048  0.1680  0.0498 -0.1319
14944TIP3    H166247   0.691   0.545  12.007 -0.8043  0.9583  1.3529
14944TIP3    H266248   0.801   0.649  12.013 -1.7008  1.8687  2.5219
14945TIP3   OH266249   2.696   1.206   0.111 -0.7315 -0.1932 -0.0539
14945TIP3    H166250   2.686   1.241   0.199  0.7858  1.7493 -0.5859
14945TIP3    H266251   2.621   1.147   0.100 -1.3751  0.1069  2.2242
14946TIP3   OH266252   2.815   3.686  16.201 -0.1848 -0.4351 -0.0062
14946TIP3    H166253   2.866   3.763  16.179  0.6036 -0.7516  0.6636
14946TIP3    H266254   2.880   3.620  16.226 -0.8188 -1.4590 -0.9798
14947TIP3   OH266255   4.837   3.424  12.750  0.4479 -0.3229  0.3480
14947TIP3    H166256   4.797   3.371  12.819 -0.9534  1.6686  1.1702
14947TIP3    H266257   4.772   3.425  12.680  0.2057  0.7235  0.5723
14948TIP3   OH266258   1.328   6.381  16.984  0.2723 -0.3056  0.2112
14948TIP3    H166259   1.296   6.326  17.056  0.4383 -0.6832 -0.0037
14948TIP3    H266260   1.421   6.359  16.976  0.8201  1.4230  1.4068
14949TIP3   OH266261   6.136   0.026  14.460  0.2518  0.3802 -0.4717
14949TIP3    H166262   6.135   0.022  14.556 -1.6239  1.3416 -0.4037
14949TIP3    H266263   6.216   0.073  14.438  1.1819 -0.6631  0.5549
14950TIP3   OH266264   6.449   2.271   2.764 -0.6150  0.1714  0.9278
14950TIP3    H166265   6.414   2.260   2.676  1.4920 -1.1197  0.1877
14950TIP3    H266266   6.371   2.273   2.820 -2.0784  2.3453 -1.0206
14951TIP3   OH266267   6.557   5.390  11.731  0.1962  0.2045  0.2161
14951TIP3    H166268   6.536   5.321  11.667  1.3302  0.0471 -0.0062
14951TIP3    H266269   6.561   5.470  11.679  1.9648 -0.0517 -0.0884
14952TIP3   OH266270   0.315   3.975   1.673  0.6395 -0.5110  0.5660
14952TIP3    H166271   0.359   3.912   1.616  1.6890 -1.0387  1.8987
14952TIP3    H266272   0.369   3.978   1.752 -0.1574  1.0258  1.1020
14953TIP3   OH266273   1.766   3.513   5.196 -0.3020 -0.2027 -0.6500
14953TIP3    H166274   1.671   3.512   5.207 -0.2405 -2.4884  0.2834
14953TIP3    H266275   1.800   3.531   5.284  0.1662  1.4459 -1.1328
14954TIP3   OH266276   2.684   1.669   5.758  0.1264 -0.3086  0.2035
14954TIP3    H166277   2.671   1.713   5.674  1.3056 -0.2070  0.0543
14954TIP3    H266278   2.656   1.732   5.823  2.1454  0.8832  0.0138
14955TIP3   OH266279   2.779   6.022  14.964 -0.1516  0.7716  0.5598
14955TIP3    H166280   2.818   5.970  14.894 -0.4847  0.8859  0.2870
14955TIP3    H266281   2.684   6.014  14.950 -0.2407  0.1899  1.4434
14956TIP3   OH266282   0.594   4.127   0.319 -0.2611  0.2083 -0.2998
14956TIP3    H166283   0.527   4.154   0.380 -0.0846 -1.2891  0.6161
14956TIP3    H266284   0.597   4.196   0.253 -0.4982  1.8372  1.3325
14957TIP3   OH266285   1.160   4.348   3.442  0.5042 -0.8342  0.1397
14957TIP3    H166286   1.086   4.409   3.443  1.3227  0.1971 -0.1464
14957TIP3    H266287   1.158   4.311   3.354  1.5004  0.7303 -0.5981
14958TIP3   OH266288   1.720   4.327   6.225  0.2355  0.5240 -0.0500
14958TIP3    H166289   1.725   4.312   6.320  0.4922 -0.7961 -0.2470
14958TIP3    H266290   1.634   4.367   6.211 -0.0842  0.1067  0.6701
14959TIP3   OH266291   1.240   5.909   0.869 -0.1626 -0.0414  0.0100
14959TIP3    H166292   1.230   6.001   0.894  1.4229  0.2422 -0.3013
14959TIP3    H266293   1.265   5.912   0.776 -0.3273 -0.8000 -0.0677
14960TIP3   OH266294   0.564   2.868  14.704  0.0838  0.2106  0.2658
14960TIP3    H166295   0.495   2.818  14.748 -0.0441  0.6440  0.5632
14960TIP3    H266296   0.517   2.922  14.641  0.1647  0.4105  0.3773
14961TIP3   OH266297   1.338   0.258   4.945  0.0326 -0.1369  0.1571
14961TIP3    H166298   1.375   0.177   4.982 -0.6084 -0.2282  0.6168
14961TIP3    H266299   1.268   0.281   5.006  1.3030  1.7072  1.0118
14962TIP3   OH266300   4.476   3.555  13.883  0.0057  0.1893  0.1096
14962TIP3    H166301   4.472   3.650  13.892  1.6028  0.2923  0.0380
14962TIP3    H266302   4.570   3.535  13.883 -0.2720 -1.6940  3.1953
14963TIP3   OH266303   0.029   0.011  14.300 -0.6609 -0.0148  0.6675
14963TIP3    H166304  -0.029  -0.056  14.334  0.6830 -1.2151  0.7093
14963TIP3    H266305  -0.000   0.092  14.341  0.4855 -1.2596  4.3464
14964TIP3   OH266306   0.570   2.171   0.584 -0.3585  0.2366 -0.6736
14964TIP3    H166307   0.603   2.204   0.667 -1.1321 -1.0804  0.2004
14964TIP3    H266308   0.483   2.210   0.576 -1.9568 -2.5694  1.1459
14965TIP3   OH266309   5.378   1.195  13.192 -0.2566 -0.1888 -0.1684
14965TIP3    H166310   5.345   1.148  13.115 -1.2069  0.6556 -0.3043
14965TIP3    H266311   5.393   1.127  13.257 -1.3396 -0.7180 -0.4544
14966TIP3   OH266312   0.945   0.803  15.255 -0.0011  0.0237 -0.4093
14966TIP3    H166313   1.029   0.792  15.209  0.5165  0.2351  0.4692
14966TIP3    H266314   0.910   0.715  15.264  0.0048 -0.0444 -0.9834
14967TIP3   OH266315   5.188   0.370   0.265 -0.3325  0.2097  0.3068
14967TIP3    H166316   5.276   0.381   0.300 -0.4680 -0.2151  0.7896
14967TIP3    H266317   5.146   0.455   0.280  0.1700  0.6094 -0.4619
14968TIP3   OH266318   6.097   0.148  15.129  0.1430 -0.4640 -0.1105
14968TIP3    H166319   6.082   0.243  15.125 -1.1535 -0.6712 -0.5854
14968TIP3    H266320   6.125   0.125  15.041 -0.4403 -0.6452 -0.2564
14969TIP3   OH266321   6.709   4.020  11.346 -0.1337  0.5664  0.2404
14969TIP3    H166322   6.769   3.993  11.416  0.4848  1.5906  0.1287
14969TIP3    H266323   6.748   3.985  11.266 -0.3953  0.1111  0.3077
14970TIP3   OH266324   3.532   4.085  11.862 -0.3330 -0.0603  0.1100
14970TIP3    H166325   3.571   4.157  11.911 -0.0827  0.0488 -0.2462
14970TIP3    H266326   3.559   4.100  11.771  3.1507 -2.7548  0.4951
14971TIP3   OH266327   5.669   0.231   1.103  0.2282  0.1917  0.0891
14971TIP3    H166328   5.714   0.176   1.167 -1.1051 -0.2437  0.6892
14971TIP3    H266329   5.618   0.169   1.051  0.1308  0.6956 -0.4183
14972TIP3   OH266330   3.724   1.126   5.603  0.3704 -0.0607  0.4946
14972TIP3    H166331   3.782   1.055   5.630 -0.3215 -0.8032  0.0529
14972TIP3    H266332   3.647   1.118   5.661 -0.2397 -0.4272 -0.3447
14973TIP3   OH266333   3.058   1.743   0.040 -0.0006  0.2214 -0.3580
14973TIP3    H166334   2.966   1.729   0.060 -0.3268  2.2685 -0.1474
14973TIP3    H266335   3.059   1.775  -0.051  0.5421 -0.2298 -0.5160
14974TIP3   OH266336   0.698   0.313   4.785 -0.0818 -0.0568 -1.0456
14974TIP3    H166337   0.740   0.230   4.762  1.0555 -0.2987  1.5118
14974TIP3    H266338   0.761   0.356   4.843 -0.7104  2.5706 -2.1807
14975TIP3   OH266339   4.935   5.150   1.748  0.0367 -0.1328 -0.1986
14975TIP3    H166340   4.902   5.148   1.838  0.1811  2.9000  0.0272
14975TIP3    H266341   4.860   5.175   1.695  0.6439  1.2663 -0.4455
14976TIP3   OH266342   3.941   5.366  11.839  0.0555 -0.5773 -0.1956
14976TIP3    H166343   3.871   5.404  11.785  2.0311 -0.5083 -2.9269
14976TIP3    H266344   3.915   5.386  11.929 -1.7572  2.3883 -1.2236
14977TIP3   OH266345   4.165   0.567   6.084 -0.2977  0.1784 -0.3017
14977TIP3    H166346   4.078   0.539   6.054  0.5638 -2.8929 -0.3252
14977TIP3    H266347   4.219   0.488   6.076  2.7715  2.1842 -1.1551
14978TIP3   OH266348   4.168   2.355  13.014  0.0318  0.2401 -0.1577
14978TIP3    H166349   4.108   2.286  12.988  0.2016  0.0864 -0.1428
14978TIP3    H266350   4.253   2.312  13.021  0.0619  0.3661  0.2499
14979TIP3   OH266351   4.084   0.392   4.478 -0.6010  0.1707 -0.1078
14979TIP3    H166352   4.125   0.310   4.505 -2.0069 -0.5418 -0.0229
14979TIP3    H266353   3.995   0.367   4.451 -2.0412  1.9812  2.4906
14980TIP3   OH266354   1.945   3.676  13.524 -0.0861 -0.2315  0.2742
14980TIP3    H166355   1.951   3.601  13.464  0.4210 -0.1531  0.2256
14980TIP3    H266356   1.852   3.680  13.547 -0.3937  0.1329 -0.9976
14981TIP3   OH266357   3.476   5.730  12.826 -0.2698  0.3355 -0.2004
14981TIP3    H166358   3.528   5.709  12.903  1.0089  0.7236 -0.9334
14981TIP3    H266359   3.386   5.709  12.852  0.3287 -1.2217  0.7989
14982TIP3   OH266360   0.906   3.492  13.829  0.1499  0.7586 -0.9586
14982TIP3    H166361   0.817   3.509  13.797  0.8194  1.6600 -2.4698
14982TIP3    H266362   0.895   3.472  13.922 -1.5089  2.1643 -0.8061
14983TIP3   OH266363   2.336   6.523   4.405  0.2179 -0.4666 -0.0378
14983TIP3    H166364   2.264   6.573   4.443 -1.3111 -1.3695 -1.5918
14983TIP3    H266365   2.349   6.563   4.318  1.0774 -0.8062 -0.0794
14984TIP3   OH266366   1.684   0.708  12.037  0.1170  1.0015 -0.2338
14984TIP3    H166367   1.632   0.658  12.100  2.3548 -0.6115  0.5066
14984TIP3    H266368   1.682   0.798  12.070  1.8706  0.1055  2.8082
14985TIP3   OH266369   4.800   2.789   0.123 -0.3551 -0.7161  0.0958
14985TIP3    H166370   4.731   2.800   0.188 -0.2666 -0.4875  0.1521
14985TIP3    H266371   4.801   2.872   0.075  0.3855 -0.4164  0.5911
14986TIP3   OH266372   6.630   4.382  14.904 -0.2351 -0.2444  0.2877
14986TIP3    H166373   6.662   4.322  14.837  0.4990  0.1510  0.2772
14986TIP3    H266374   6.676   4.464  14.887 -1.9006  0.6213 -0.2801
14987TIP3   OH266375   1.074   4.252   2.703 -0.0838 -0.8324 -0.5946
14987TIP3    H166376   1.001   4.196   2.732 -0.3327 -0.1788  0.0818
14987TIP3    H266377   1.090   4.310   2.778 -0.0149  0.1793 -1.3780
14988TIP3   OH266378   0.875   2.695   1.535 -0.5948  0.0932  0.4064
14988TIP3    H166379   0.916   2.618   1.573  2.2892  1.9359  1.3631
14988TIP3    H266380   0.898   2.690   1.442  1.4762  0.7738  0.8198
14989TIP3   OH266381   3.881   6.177  13.681  0.0770 -0.1917  0.3813
14989TIP3    H166382   3.845   6.095  13.714  0.5734 -0.2882  0.6933
14989TIP3    H266383   3.804   6.230  13.659 -0.2672 -1.4986 -1.8237
14990TIP3   OH266384   5.951   5.269  17.327  0.0873  0.2977  0.0176
14990TIP3    H166385   5.962   5.176  17.347  1.1103  0.0144 -1.6979
14990TIP3    H266386   5.924   5.309  17.410 -0.9053 -1.6028  0.6515
14991TIP3   OH266387   4.072   0.581   5.342 -0.1783  0.6001  0.3167
14991TIP3    H166388   4.161   0.553   5.365 -0.2881  0.0192  0.0478
14991TIP3    H266389   4.060   0.663   5.390  0.4393  0.5952  0.4924
14992TIP3   OH266390   6.242   6.272  15.283  0.3698  0.2787 -0.4711
14992TIP3    H166391   6.207   6.226  15.360 -1.0441  2.7960  0.5071
14992TIP3    H266392   6.332   6.292  15.306  1.2020 -2.3198 -1.1352
14993TIP3   OH266393   1.945   3.903  15.304  0.2068  0.5400 -0.2783
14993TIP3    H166394   1.852   3.922  15.291  0.3251  1.1179 -0.3062
14993TIP3    H266395   1.985   3.989  15.313  0.1525  0.3012  3.9542
14994TIP3   OH266396   1.155   0.175  15.964 -0.1226 -0.5661 -0.3408
14994TIP3    H166397   1.068   0.141  15.940 -0.1452 -0.5601 -0.2665
14994TIP3    H266398   1.186   0.217  15.884 -0.9471  1.0201  0.1215
14995TIP3   OH266399   4.006   4.665  11.423 -0.2289 -0.1539 -0.0005
14995TIP3    H166400   3.997   4.702  11.335 -0.2863  0.9875  0.4760
14995TIP3    H266401   3.954   4.584  11.420  0.5076 -0.6147 -1.2727
14996TIP3   OH266402   3.549   6.458   2.595 -0.2403 -0.0544 -0.4176
14996TIP3    H166403   3.499   6.380   2.617  0.5015 -0.4525 -0.1307
14996TIP3    H266404   3.562   6.452   2.500 -0.7844  0.0848 -0.5038
14997TIP3   OH266405   1.169   3.187  13.223 -0.6957  0.4101  0.0615
14997TIP3    H166406   1.240   3.123  13.221  0.7173  1.8850  0.1042
14997TIP3    H266407   1.102   3.150  13.166 -0.0821 -1.2391  0.3509
14998TIP3   OH266408   6.610   2.899  15.199 -0.0767 -0.5705 -0.4807
14998TIP3    H166409   6.574   2.811  15.207 -0.9471 -0.1689  0.1759
14998TIP3    H266410   6.573   2.933  15.118 -1.9998  0.1765  0.6421
14999TIP3   OH266411   0.756   5.455   2.916 -0.0506  0.0449 -0.6809
14999TIP3    H166412   0.784   5.546   2.923 -0.7006  0.3284 -1.4975
14999TIP3    H266413   0.806   5.408   2.982  0.6898  0.9042 -0.6248
15000TIP3   OH266414   3.232   3.335   6.733  0.2772 -0.5708  0.5491
15000TIP3    H166415   3.327   3.333   6.722  0.3885 -1.2528  1.5056
15000TIP3    H266416   3.199   3.360   6.647  1.3335  0.0400  0.2988
15001TIP3   OH266417   2.408   2.620  13.635  0.0326 -0.4111  0.3853
15001TIP3    H166418   2.386   2.697  13.583 -0.1014 -0.6222  0.1279
15001TIP3    H266419   2.325   2.594  13.675 -0.2430 -1.3067 -0.7157
15002TIP3   OH266420   2.657   5.598   3.255 -0.3336  0.3720 -0.0994
15002TIP3    H166421   2.691   5.600   3.344 -0.0514  0.9118 -0.2126
15002TIP3    H266422   2.564   5.579   3.265 -0.3987  0.8979  0.3470
15003TIP3   OH266423   4.409   3.238  11.554 -0.3229 -0.0447 -0.2806
15003TIP3    H166424   4.369   3.170  11.501 -2.5990  0.2573  0.9300
15003TIP3    H266425   4.429   3.195  11.637 -1.0287  0.5301  0.2028
15004TIP3   OH266426   2.175   2.525   0.769 -0.4587 -0.6831 -0.4461
15004TIP3    H166427   2.266   2.551   0.756 -0.3884 -0.4046  0.4703
15004TIP3    H266428   2.140   2.592   0.829 -1.7661  0.1934 -2.1187
15005TIP3   OH266429   1.378   4.796   5.401 -0.0532  0.2925 -0.7971
15005TIP3    H166430   1.452   4.856   5.408  2.0710 -2.3409  2.3848
15005TIP3    H266431   1.381   4.765   5.310  2.0554  1.1339 -1.0752
15006TIP3   OH266432   0.523   6.273   1.992 -0.0576 -0.2266  0.1128
15006TIP3    H166433   0.438   6.265   1.948 -0.1337 -0.7696  0.3526
15006TIP3    H266434   0.558   6.184   1.993  1.0731  0.1791 -1.0556
15007TIP3   OH266435   0.939   2.123   2.759  0.3398  0.0233 -0.0677
15007TIP3    H166436   0.961   2.207   2.798  0.1396  0.6082 -1.1932
15007TIP3    H266437   0.918   2.143   2.668 -0.9525 -1.0499 -0.0425
15008TIP3   OH266438   1.613   6.283   5.085  0.3476  0.0481  0.1969
15008TIP3    H166439   1.596   6.242   5.169  0.7740 -1.2532 -0.3204
15008TIP3    H266440   1.690   6.338   5.100 -0.4794  1.0102  1.0013
15009TIP3   OH266441   6.159   5.687   1.204 -0.3747 -0.1833 -0.2555
15009TIP3    H166442   6.093   5.619   1.188 -1.5251  1.1412 -1.3697
15009TIP3    H266443   6.126   5.734   1.280  0.1974 -0.5910  0.2487
15010TIP3   OH266444   3.313   6.093   4.137 -0.0418 -0.4378  0.0660
15010TIP3    H166445   3.232   6.042   4.134 -0.2442 -0.1179  0.0927
15010TIP3    H266446   3.382   6.028   4.123 -0.4125 -0.3654 -2.6748
15011TIP3   OH266447   3.788   2.750  14.342 -0.3940  0.7228  0.3452
15011TIP3    H166448   3.795   2.768  14.248 -0.0855  0.5913  0.3405
15011TIP3    H266449   3.878   2.751  14.374 -0.5224  1.0624  0.6998
15012TIP3   OH266450   3.984   3.217  15.493  0.2398 -0.2726  0.4538
15012TIP3    H166451   3.916   3.281  15.478 -0.0186 -0.4446  0.8774
15012TIP3    H266452   3.941   3.132  15.480  0.5519 -0.3679 -0.0009
15013TIP3   OH266453   3.482   5.497   3.450  0.2314  0.1046  0.5918
15013TIP3    H166454   3.398   5.520   3.490  0.0521 -0.3636  0.4920
15013TIP3    H266455   3.492   5.403   3.468 -1.1481 -0.8150 -2.7005
15014TIP3   OH266456   2.866   2.750  12.264 -0.3559 -0.1157  0.8481
15014TIP3    H166457   2.916   2.686  12.315 -1.2650  0.6698  2.8414
15014TIP3    H266458   2.930   2.818  12.244 -0.2097  0.1175  2.0017
15015TIP3   OH266459   2.410   0.904  15.514 -0.3203  0.0840  0.6918
15015TIP3    H166460   2.394   0.922  15.422 -2.4126 -0.5706  0.8732
15015TIP3    H266461   2.373   0.816  15.528  1.9908 -0.8090  1.6664
15016TIP3   OH266462   4.881   0.822   1.839  0.3347 -0.1487  0.1296
15016TIP3    H166463   4.888   0.740   1.792  1.3240  0.4831 -0.8852
15016TIP3    H266464   4.965   0.866   1.823  0.7138  0.1296  2.4454
15017TIP3   OH266465   1.108   2.098   1.714  0.1621 -0.8652 -0.1884
15017TIP3    H166466   1.023   2.084   1.756  0.1682 -0.0843  0.1097
15017TIP3    H266467   1.115   2.027   1.651 -0.3391 -1.4300  0.3659
15018TIP3   OH266468   4.383   2.278   3.072  0.1690  0.2567  0.2988
15018TIP3    H166469   4.425   2.348   3.122  0.4614  2.7306 -3.0428
15018TIP3    H266470   4.446   2.257   3.003 -1.5095 -0.4625 -1.0897
15019TIP3   OH266471   3.484   5.824  14.704 -0.0356 -0.3959 -0.1148
15019TIP3    H166472   3.443   5.834  14.618  0.6206  1.2739 -0.2675
15019TIP3    H266473   3.578   5.823  14.687  0.3071  3.0718  0.7151
15020TIP3   OH266474   4.910   6.215   6.139 -0.0420  0.3042  0.6302
15020TIP3    H166475   4.988   6.265   6.163  1.1276 -1.1903  0.1042
15020TIP3    H266476   4.880   6.255   6.057  2.1432 -1.1002 -0.9585
15021TIP3   OH266477   6.427   2.679  13.145 -0.2038  0.1602  0.2442
15021TIP3    H166478   6.411   2.588  13.169  1.1736  0.2283  1.5966
15021TIP3    H266479   6.340   2.719  13.142 -0.7040 -0.7655  1.5582
15022TIP3   OH266480   5.643   4.006   5.747 -0.1407  0.0567  0.4965
15022TIP3    H166481   5.612   3.983   5.660 -0.3825  0.4535  0.4745
15022TIP3    H266482   5.588   3.955   5.807  0.8068 -1.1245  0.3948
15023TIP3   OH266483   4.267   6.061   2.427  0.3616  0.6687 -0.0083
15023TIP3    H166484   4.327   6.133   2.445  0.8335  0.3518 -0.3005
15023TIP3    H266485   4.317   5.982   2.447 -0.6336  0.4316  1.7896
15024TIP3   OH266486   6.000   1.973  12.674 -0.5194  0.3009  0.0109
15024TIP3    H166487   6.024   1.967  12.581  0.1378  0.4904  0.1660
15024TIP3    H266488   6.027   2.061  12.700  0.6265 -0.2544  0.7524
15025TIP3   OH266489   6.265   1.218  11.182 -0.5050  0.0864 -0.0770
15025TIP3    H166490   6.183   1.259  11.156 -0.6502 -0.2849 -0.1980
15025TIP3    H266491   6.263   1.131  11.143 -0.5279 -0.3139  0.8022
15026TIP3   OH266492   2.202   5.597   4.566  0.1441 -0.5833 -0.4998
15026TIP3    H166493   2.252   5.539   4.622  0.9660 -0.1122 -0.7222
15026TIP3    H266494   2.257   5.609   4.488 -1.5813 -2.3862 -2.1009
15027TIP3   OH266495   6.084   2.635  12.194 -0.2805 -0.3853  0.8591
15027TIP3    H166496   6.088   2.628  12.099  1.8049  1.7516  0.7097
15027TIP3    H266497   6.141   2.565  12.226 -1.6780 -1.6835  0.6484
15028TIP3   OH266498   1.474   1.475   6.132  0.4341 -0.0260 -0.0168
15028TIP3    H166499   1.386   1.457   6.097 -0.5182  2.5097  0.8341
15028TIP3    H266500   1.465   1.559   6.177  3.7082  1.2347 -1.3774
15029TIP3   OH266501   6.663   1.919  14.011  0.1125  0.5511  1.0406
15029TIP3    H166502   6.616   1.995  14.044  0.1346  0.5693  1.0300
15029TIP3    H266503   6.651   1.923  13.916 -0.8986 -0.1117  1.1223
15030TIP3   OH266504   2.479   1.165   3.629 -0.3529 -0.1370  0.1343
15030TIP3    H166505   2.570   1.185   3.605 -0.3514 -2.1749 -1.8537
15030TIP3    H266506   2.464   1.217   3.708  2.3730  0.6239  0.2742
15031TIP3   OH266507   2.029   2.754  17.226 -0.8146 -0.1914  0.7955
15031TIP3    H166508   1.976   2.822  17.269 -0.2575  1.3948 -0.9055
15031TIP3    H266509   1.998   2.753  17.136 -0.6362 -2.0710  0.7171
15032TIP3   OH266510   6.555   2.304  14.875  0.3477 -0.3481  0.1586
15032TIP3    H166511   6.507   2.254  14.810  0.2621  1.3129 -1.1086
15032TIP3    H266512   6.502   2.299  14.954 -0.7695 -0.4217 -0.5803
15033TIP3   OH266513   3.557   6.560  11.503 -0.1748 -0.0819 -0.0225
15033TIP3    H166514   3.516   6.540  11.587  2.5437 -1.5246  1.0875
15033TIP3    H266515   3.651   6.553  11.519  0.4703 -1.2954 -3.4062
15034TIP3   OH266516   4.376   4.648   2.135 -0.1408  0.8531 -0.5532
15034TIP3    H166517   4.365   4.597   2.055 -1.0004 -1.5821  1.0009
15034TIP3    H266518   4.297   4.701   2.140 -1.9710 -1.7539  0.4432
15035TIP3   OH266519   4.123   3.317  14.056 -0.2220 -0.2116 -0.3323
15035TIP3    H166520   4.200   3.375  14.059 -0.9241  0.7079  0.3671
15035TIP3    H266521   4.090   3.316  14.146 -0.2003 -1.7624 -0.3140
15036TIP3   OH266522   4.002   0.823  12.094 -0.2557 -0.3077  0.6358
15036TIP3    H166523   4.040   0.859  12.174  1.3123 -2.8988  1.2052
15036TIP3    H266524   4.076   0.778  12.052 -1.2539  0.2225 -1.8304
15037TIP3   OH266525   5.327   1.845   2.912 -0.8689  0.4066 -0.2596
15037TIP3    H166526   5.267   1.884   2.848 -3.2057 -0.0975  1.4748
15037TIP3    H266527   5.270   1.794   2.970  1.4724 -1.4293  0.5737
15038TIP3   OH266528   1.492   4.040  11.613 -0.0153 -0.4880  0.1859
15038TIP3    H166529   1.401   4.067  11.624 -0.6777 -2.5971  0.4301
15038TIP3    H266530   1.539   4.081  11.686 -1.0316 -0.4243  0.8206
15039TIP3   OH266531   4.043   3.788   3.314 -0.2197 -0.7353  0.7934
15039TIP3    H166532   3.985   3.723   3.276 -1.6729  0.0187  1.6209
15039TIP3    H266533   3.991   3.829   3.383  0.6952  1.1614  0.4305
15040TIP3   OH266534   4.160   6.454  16.183  0.1605 -0.3665 -0.4067
15040TIP3    H166535   4.234   6.395  16.168  2.9891  2.2612  1.9175
15040TIP3    H266536   4.167   6.519  16.113 -0.5620 -0.6353 -0.7326
15041TIP3   OH266537   2.061   3.430   5.999  0.3321  0.2589 -0.4436
15041TIP3    H166538   1.972   3.423   6.033 -0.4773  1.6096 -2.1187
15041TIP3    H266539   2.059   3.381   5.916  1.7732 -1.4984  0.4680
15042TIP3   OH266540   2.208   2.848  12.098 -0.1331 -0.3979 -0.4666
15042TIP3    H166541   2.277   2.803  12.049  1.5945  1.7976 -0.1988
15042TIP3    H266542   2.246   2.860  12.185 -1.3239 -0.1194  0.0317
15043TIP3   OH266543   1.442   3.225   1.026  0.1179  0.2652 -0.0717
15043TIP3    H166544   1.495   3.196   0.952  0.4730  1.2938 -0.2299
15043TIP3    H266545   1.432   3.319   1.013 -2.1648  0.0509 -0.3131
15044TIP3   OH266546   3.119   2.547  12.692 -0.0031 -0.7023 -0.6095
15044TIP3    H166547   3.147   2.492  12.619  1.8739 -0.1903 -0.3241
15044TIP3    H266548   3.134   2.494  12.770 -2.1971 -1.3252 -0.5530
15045TIP3   OH266549   1.510   1.208   5.218 -0.1832 -0.3244  0.2367
15045TIP3    H166550   1.586   1.232   5.165  0.2509 -1.5575  0.2895
15045TIP3    H266551   1.500   1.281   5.279 -0.9511  1.3624 -1.7580
15046TIP3   OH266552   1.474   2.421   6.681  0.2071 -0.1861  0.0252
15046TIP3    H166553   1.423   2.477   6.623  2.3947  2.3806  0.3630
15046TIP3    H266554   1.564   2.428   6.649  1.1750 -0.3155  2.4458
15047TIP3   OH266555   5.941   0.697   0.481  0.3325  0.0074  0.5199
15047TIP3    H166556   5.914   0.607   0.464 -1.5693  0.3960  1.2064
15047TIP3    H266557   5.988   0.693   0.565  1.0637 -0.4569  0.0998
15048TIP3   OH266558   5.264   4.257   0.984 -0.0922  0.5366  0.5368
15048TIP3    H166559   5.328   4.313   1.027  0.4874 -0.8383  1.5361
15048TIP3    H266560   5.311   4.176   0.967 -1.1590  0.0256 -0.0780
15049TIP3   OH266561   1.865   3.126  14.809 -0.0045  0.4259  0.3669
15049TIP3    H166562   1.952   3.164  14.826  1.1235 -0.9928 -1.8501
15049TIP3    H266563   1.834   3.171  14.730  0.5202 -1.7858 -1.1819
15050TIP3   OH266564   4.191   3.405  15.418  0.1946 -0.4721 -0.3619
15050TIP3    H166565   4.176   3.492  15.453 -0.0142 -0.2546 -0.9828
15050TIP3    H266566   4.130   3.348  15.466 -1.0056  0.0259 -1.2561
15051TIP3   OH266567   4.205   2.233  14.777 -0.8409  0.5535 -0.0321
15051TIP3    H166568   4.286   2.219  14.728 -0.1324 -2.2411  1.7433
15051TIP3    H266569   4.158   2.300  14.726  2.1611  1.7054 -1.5481
15052TIP3   OH266570   6.045   4.330   3.893  0.0319 -0.3902 -0.2452
15052TIP3    H166571   6.047   4.238   3.869  0.3966 -0.3214 -0.4790
15052TIP3    H266572   6.131   4.348   3.929 -0.3508 -0.3767  0.6971
15053TIP3   OH266573   0.353   3.062  13.749  0.6448 -0.7534  0.1478
15053TIP3    H166574   0.440   3.066  13.789  1.1832 -2.9367 -0.6692
15053TIP3    H266575   0.321   2.974  13.771 -0.7126 -0.5318 -0.8328
15054TIP3   OH266576   4.191   5.260  12.812 -0.3553 -0.2703  0.1791
15054TIP3    H166577   4.156   5.339  12.772  1.6992  0.0607 -1.1335
15054TIP3    H266578   4.166   5.189  12.752 -0.9056 -0.4058  0.5634
15055TIP3   OH266579   2.045   2.528  13.515  0.1745 -0.1669  0.0775
15055TIP3    H166580   2.012   2.585  13.585 -1.3388  0.2344 -0.9234
15055TIP3    H266581   2.126   2.570  13.486  1.7556 -1.1723  2.5809
15056TIP3   OH266582   5.008   0.590  16.289 -0.0644 -0.0718  0.8117
15056TIP3    H166583   5.082   0.616  16.344 -0.1826 -1.7845  1.8471
15056TIP3    H266584   5.013   0.648  16.213  1.6788  0.5833  1.3769
15057TIP3   OH266585   2.437   3.111  11.372  0.2278  0.0814 -0.2626
15057TIP3    H166586   2.365   3.138  11.429 -0.0932 -0.9491 -0.1579
15057TIP3    H266587   2.472   3.032  11.413  1.7039  0.7912 -0.0864
15058TIP3   OH266588   1.932   1.021   3.660 -0.2274  0.8396  0.4370
15058TIP3    H166589   1.931   0.974   3.743  0.0448  1.2431  0.6728
15058TIP3    H266590   1.840   1.021   3.631 -0.2190  0.1284  0.4073
15059TIP3   OH266591   6.632   5.534  14.832 -0.1630 -0.2122  0.1322
15059TIP3    H166592   6.605   5.475  14.903  0.6408  1.0986  1.5993
15059TIP3    H266593   6.550   5.563  14.793 -0.6313 -0.8734  0.5854
15060TIP3   OH266594   5.549   6.536   3.970 -0.0990 -0.2350 -0.1614
15060TIP3    H166595   5.574   6.601   3.904  1.1163  0.3475  0.8307
15060TIP3    H266596   5.616   6.544   4.038  0.2578 -2.7418 -0.1341
15061TIP3   OH266597   3.622   4.174   5.664  0.6733 -0.1724  0.2137
15061TIP3    H166598   3.648   4.259   5.629  1.3238 -0.7092 -0.6213
15061TIP3    H266599   3.530   4.186   5.687  0.8708  0.8893  0.5341
15062TIP3   OH266600   1.555   6.099  15.721  0.3105 -0.1834 -0.5113
15062TIP3    H166601   1.499   6.064  15.651 -1.5173 -2.2277  1.8050
15062TIP3    H266602   1.625   6.034  15.729 -0.6139 -1.0677  0.8237
15063TIP3   OH266603   6.378   4.991   4.224 -0.9016  0.6738 -1.0128
15063TIP3    H166604   6.403   5.082   4.215 -1.0998  0.9222  0.5701
15063TIP3    H266605   6.292   4.994   4.267  0.3932 -0.2250  1.9089
15064TIP3   OH266606   6.570   6.030  15.057 -0.2600  0.5817  0.0877
15064TIP3    H166607   6.499   6.091  15.035 -0.6872 -0.2535 -0.9517
15064TIP3    H266608   6.631   6.037  14.983  0.2685  0.5932  0.5177
15065TIP3   OH266609   2.692   1.202  14.842 -0.3807 -0.0277 -0.6670
15065TIP3    H166610   2.737   1.124  14.808 -0.4591 -0.7348  0.7542
15065TIP3    H266611   2.603   1.195  14.809 -1.7213 -2.9896  2.8296
15066TIP3   OH266612   0.310   4.597  15.354 -0.4435  0.0341 -0.5235
15066TIP3    H166613   0.298   4.604  15.448  0.2550 -2.0294 -0.2351
15066TIP3    H266614   0.222   4.612  15.317 -0.8900 -0.0002  0.4956
15067TIP3   OH266615   0.746   1.468  12.986 -0.5914  0.3124  0.0025
15067TIP3    H166616   0.657   1.498  13.006 -0.4407  0.4226  0.5394
15067TIP3    H266617   0.803   1.528  13.035 -0.2356  0.0452 -0.0818
15068TIP3   OH266618   4.624   5.083   1.564 -0.2517 -0.5108  0.0355
15068TIP3    H166619   4.569   5.160   1.547  1.7983  1.3304  1.0831
15068TIP3    H266620   4.641   5.046   1.478  1.0119  1.9839 -0.8807
15069TIP3   OH266621   2.494   1.503  12.520  0.6750 -0.2288 -0.3231
15069TIP3    H166622   2.495   1.554  12.439 -1.7419 -2.0755 -1.6369
15069TIP3    H266623   2.530   1.418  12.496 -1.5150 -1.3248  0.0784
15070TIP3   OH266624   5.215   4.779  15.382  0.0624 -0.0447  0.4510
15070TIP3    H166625   5.183   4.865  15.356  0.7960 -0.2152 -1.1689
15070TIP3    H266626   5.139   4.736  15.421 -1.0689  0.4111 -1.1329
15071TIP3   OH266627   0.062   3.152  12.406  0.3741  0.5214 -0.2791
15071TIP3    H166628   0.065   3.197  12.490 -2.2549  1.0441 -0.3773
15071TIP3    H266629   0.152   3.120  12.392  1.4125  2.3504  1.6256
15072TIP3   OH266630   4.151   0.131  15.140 -0.5671 -0.0138 -0.1391
15072TIP3    H166631   4.114   0.216  15.116 -1.4846 -0.6460 -1.0930
15072TIP3    H266632   4.131   0.074  15.065 -0.9668 -1.3528  0.9317
15073TIP3   OH266633   4.788   3.913   4.839 -0.2737  0.0850  0.5791
15073TIP3    H166634   4.791   3.900   4.934  0.5546  0.4233  0.6099
15073TIP3    H266635   4.763   3.827   4.804 -0.2443 -0.1333  1.0796
15074TIP3   OH266636   2.079   6.464  14.776  0.2812  0.0651 -0.3012
15074TIP3    H166637   2.153   6.510  14.814  0.4063  0.2780 -0.7985
15074TIP3    H266638   2.084   6.483  14.682 -0.4657  0.1865 -0.3277
15075TIP3   OH266639   3.671   4.431   5.557  0.2052 -0.5370 -0.1451
15075TIP3    H166640   3.753   4.398   5.519  0.3863  0.5549 -0.7354
15075TIP3    H266641   3.635   4.489   5.490 -0.1836  0.3362  0.7948
15076TIP3   OH266642   4.309   3.677   3.017  0.0262 -0.0917  0.0483
15076TIP3    H166643   4.400   3.705   3.009 -0.1220  0.0978 -1.1493
15076TIP3    H266644   4.264   3.752   3.056 -0.2387  1.1887 -2.5058
15077TIP3   OH266645   1.742   3.776   2.951 -0.0053  0.0507  0.5578
15077TIP3    H166646   1.735   3.780   3.047 -1.7570  1.7284  0.4351
15077TIP3    H266647   1.651   3.765   2.922  0.4425  0.1189 -0.9213
15078TIP3   OH266648   2.216   0.298   4.570  1.0357 -0.1194  0.0383
15078TIP3    H166649   2.134   0.340   4.595  1.1516  0.8340 -1.0566
15078TIP3    H266650   2.284   0.362   4.594  1.4123 -0.6661  0.4420
15079TIP3   OH266651   3.777   5.155  13.559 -0.2545 -0.3371 -0.5211
15079TIP3    H166652   3.806   5.244  13.539  0.3400 -0.3355  0.3056
15079TIP3    H266653   3.859   5.105  13.569 -0.4831 -0.3065  2.0376
15080TIP3   OH266654   1.622   1.652  13.339  0.4767  0.1036  0.1304
15080TIP3    H166655   1.709   1.692  13.334  0.3621  0.3369  0.0052
15080TIP3    H266656   1.576   1.702  13.406  0.5515 -0.2406  0.4412
15081TIP3   OH266657   3.382   0.167  12.750  0.2735  0.0278  0.1164
15081TIP3    H166658   3.292   0.139  12.769  0.3463 -1.4187 -1.3969
15081TIP3    H266659   3.373   0.227  12.677  0.5028  0.2930  0.3070
15082TIP3   OH266660   2.289   2.328   4.805  0.1083  0.5654 -0.2028
15082TIP3    H166661   2.210   2.296   4.762  0.0639 -0.1938  0.4285
15082TIP3    H266662   2.356   2.327   4.736  0.2590 -1.4667 -0.0758
15083TIP3   OH266663   3.398   6.438  16.980 -0.6258 -0.0456 -0.7464
15083TIP3    H166664   3.427   6.479  16.899  1.6273  1.9829  0.9449
15083TIP3    H266665   3.460   6.367  16.995  1.5212  2.0056  1.0077
15084TIP3   OH266666   4.776   6.326   4.127  0.3152 -0.4528  0.2941
15084TIP3    H166667   4.778   6.377   4.046 -0.4687  0.6983  0.9738
15084TIP3    H266668   4.854   6.354   4.175  0.2359 -0.3743  0.3781
15085TIP3   OH266669   3.555   2.673   1.168  0.9332 -0.8184  0.0331
15085TIP3    H166670   3.615   2.619   1.220 -0.2431 -1.5875  0.6371
15085TIP3    H266671   3.495   2.610   1.127 -0.6381  0.0100  0.9597
15086TIP3   OH266672   1.424   5.460   6.091  0.5923  0.1099  0.0130
15086TIP3    H166673   1.467   5.415   6.018 -1.2005  2.0998 -2.4481
15086TIP3    H266674   1.370   5.393   6.131  2.7487 -1.4057  0.5638
15087TIP3   OH266675   3.935   3.905   2.954  0.1087  0.1970  0.1145
15087TIP3    H166676   3.955   3.970   3.021  0.1371  1.2008 -0.8514
15087TIP3    H266677   3.850   3.868   2.981 -0.6746  1.7458 -0.1606
15088TIP3   OH266678   5.777   5.577   2.228  0.1898 -0.2060 -0.3750
15088TIP3    H166679   5.734   5.544   2.150  0.0571 -0.5434 -0.1629
15088TIP3    H266680   5.716   5.641   2.265  0.9890  1.2411 -1.4738
15089TIP3   OH266681   0.717   2.989  11.792  0.6948 -0.3749 -0.7766
15089TIP3    H166682   0.808   2.999  11.764 -0.2828  1.3634 -3.8562
15089TIP3    H266683   0.703   3.058  11.856  1.6046 -0.9104  0.0178
15090TIP3   OH266684   6.001   6.531  13.853 -0.9278 -0.2520  0.2062
15090TIP3    H166685   5.919   6.577  13.868 -1.3232 -0.4904 -1.0637
15090TIP3    H266686   6.037   6.517  13.940 -0.8868  2.2294  0.6464
15091TIP3   OH266687   1.937   2.230  14.381 -0.2023  0.3645 -0.6816
15091TIP3    H166688   1.852   2.238  14.423  0.0387 -1.7240  0.3278
15091TIP3    H266689   1.986   2.306  14.412 -0.3095 -0.6432  2.2956
15092TIP3   OH266690   6.329   5.327  16.776  0.2403 -0.3510  0.1092
15092TIP3    H166691   6.321   5.400  16.837  0.4131  0.8897 -1.3039
15092TIP3    H266692   6.359   5.367  16.694  0.6218 -2.0463 -0.6235
15093TIP3   OH266693   0.666   1.257   0.145  0.1250  0.4199  0.2522
15093TIP3    H166694   0.734   1.241   0.079  0.5553 -0.1627  0.8225
15093TIP3    H266695   0.655   1.352   0.145  0.5737  0.4791 -0.2067
15094TIP3   OH266696   2.685   0.424  10.930 -0.5649 -0.1909 -0.1726
15094TIP3    H166697   2.619   0.402  10.995  0.5215  0.1582  1.0864
15094TIP3    H266698   2.725   0.340  10.907 -0.2734 -0.2050  0.3712
15095TIP3   OH266699   2.106   6.595   0.238  0.1593  0.1359 -0.5584
15095TIP3    H166700   2.143   6.522   0.286  0.4673  0.6001 -0.0842
15095TIP3    H266701   2.141   6.586   0.149 -0.5559 -0.8267 -0.7700
15096TIP3   OH266702   1.197   5.896  13.468 -0.6208  0.3621  0.3136
15096TIP3    H166703   1.193   5.992  13.470  0.3620  0.4500 -0.8217
15096TIP3    H266704   1.105   5.868  13.474 -0.9483  1.3745  0.2584
15097TIP3   OH266705   1.374   6.743  13.313  0.0377 -0.0524  0.0362
15097TIP3    H166706   1.448   6.780  13.264  0.0163 -0.0809 -0.0171
15097TIP3    H266707   1.329   6.820  13.350 -1.5532  0.2006 -2.2228
15098TIP3   OH266708   4.703   3.917   3.167  0.4829 -0.2175  0.2616
15098TIP3    H166709   4.608   3.922   3.163  0.5380  2.5283  0.1953
15098TIP3    H266710   4.722   3.893   3.258 -0.2240 -1.7574  0.0383
15099TIP3   OH266711   4.165   2.903  13.768 -0.3607 -0.6397  0.1532
15099TIP3    H166712   4.253   2.907  13.730 -1.4808  1.6758 -2.5779
15099TIP3    H266713   4.123   2.828  13.726 -1.1116  1.0554 -2.3744
15100TIP3   OH266714   0.345   6.604  12.149  0.0420  0.0802  0.1896
15100TIP3    H166715   0.257   6.586  12.115 -0.2194  0.5169  0.6353
15100TIP3    H266716   0.399   6.533  12.113 -0.4545 -0.0911 -0.2281
15101TIP3   OH266717   3.167   0.240  12.196  0.1949 -0.1238  0.2303
15101TIP3    H166718   3.170   0.314  12.136  0.8135  0.0698  0.4850
15101TIP3    H266719   3.076   0.211  12.196  0.4053 -0.8854 -1.6958
15102TIP3   OH266720   4.103   4.156   2.590  0.6683 -0.0121 -0.2444
15102TIP3    H166721   4.067   4.243   2.604 -1.6108 -0.6680 -1.5071
15102TIP3    H266722   4.111   4.148   2.495 -0.7665 -1.7275 -0.2665
15103TIP3   OH266723   1.738   1.108   6.069 -0.3579 -0.3671  0.6199
15103TIP3    H166724   1.694   1.119   5.984  1.2667 -0.1953 -0.2305
15103TIP3    H266725   1.666   1.103   6.132 -1.5914  1.3681 -0.5301
15104TIP3   OH266726   3.129   6.416  16.686 -0.2141  0.6586 -0.3810
15104TIP3    H166727   3.203   6.356  16.691  0.6488  1.7761  1.1470
15104TIP3    H266728   3.108   6.420  16.592  2.6536  1.4584 -1.0990
15105TIP3   OH266729   2.908   6.690   2.323  0.0414 -0.3698 -0.4776
15105TIP3    H166730   2.992   6.734   2.328 -0.0520  0.1259 -2.4153
15105TIP3    H266731   2.855   6.730   2.393  0.6521  1.0394 -0.7927
15106TIP3   OH266732   6.660   6.405  11.187  0.4624 -0.1221  0.4927
15106TIP3    H166733   6.664   6.361  11.103  2.6821 -0.1346  0.5538
15106TIP3    H266734   6.666   6.335  11.252  0.7507  0.0352  0.6379
15107TIP3   OH266735   4.243   3.990  11.233 -0.2487  0.3219  0.4749
15107TIP3    H166736   4.170   3.985  11.172 -0.8022  0.1160  1.1492
15107TIP3    H266737   4.310   4.041  11.186 -0.9730  0.8699  0.0197
15108TIP3   OH266738   0.310   6.345   1.020 -0.3788  0.3712  0.3674
15108TIP3    H166739   0.352   6.271   1.064 -0.1944 -0.6363 -1.4388
15108TIP3    H266740   0.221   6.315   1.002 -1.7850  2.2120  3.4633
15109TIP3   OH266741   5.467   1.618   2.496  0.2643  0.3383  0.6776
15109TIP3    H166742   5.518   1.600   2.418  0.7944 -0.5331  1.2067
15109TIP3    H266743   5.472   1.537   2.547  0.2462  1.0134  1.7840
15110TIP3   OH266744   4.310   1.017  15.446  0.4345 -0.3497  0.2551
15110TIP3    H166745   4.354   1.053  15.368 -1.7083  0.2828 -0.7468
15110TIP3    H266746   4.356   0.935  15.464  1.1197 -0.4215 -1.5873
15111TIP3   OH266747   5.312   4.551  15.209  0.5818  0.0698  0.2204
15111TIP3    H166748   5.279   4.632  15.247 -0.0491 -0.2440  0.3667
15111TIP3    H266749   5.386   4.577  15.155 -0.3529  0.9096 -0.7105
15112TIP3   OH266750   2.564   0.035  13.814 -0.5188  0.1499  0.4061
15112TIP3    H166751   2.617   0.088  13.873  0.2804  0.4684 -0.5754
15112TIP3    H266752   2.624  -0.031  13.779 -1.4729 -1.4032  1.5553
15113TIP3   OH266753   2.952   2.949   1.987 -0.6724 -0.2711 -0.2193
15113TIP3    H166754   3.027   2.890   1.975  0.7363  1.1496  1.0653
15113TIP3    H266755   2.944   2.995   1.904  1.7812  1.5602  0.4369
15114TIP3   OH266756   3.061   3.290   6.933 -0.1659 -0.0695 -0.0342
15114TIP3    H166757   3.120   3.233   6.982  0.4600  0.5169 -0.0943
15114TIP3    H266758   3.116   3.330   6.866 -0.7442  0.1033 -0.4156
15115TIP3   OH266759   6.734   3.810   0.640 -0.0444  0.9624 -0.2756
15115TIP3    H166760   6.698   3.896   0.661 -0.1261  1.4514 -2.1870
15115TIP3    H266761   6.681   3.779   0.566 -1.0276 -1.4438  1.3119
15116TIP3   OH266762   0.943   6.034   3.588 -0.0225 -0.0436  0.5118
15116TIP3    H166763   0.916   6.089   3.662  0.8947  2.6458 -1.0161
15116TIP3    H266764   0.890   5.955   3.597  0.7486 -0.3077  4.5520
15117TIP3   OH266765   0.592   0.218  14.804 -0.2493  0.1652 -0.2170
15117TIP3    H166766   0.586   0.123  14.796  1.5101 -0.2229  2.0551
15117TIP3    H266767   0.686   0.236  14.809 -0.4926  2.1712 -1.7527
15118TIP3   OH266768   4.611   4.506  15.211  0.3467 -0.2322 -0.5091
15118TIP3    H166769   4.583   4.422  15.247  0.2916  0.3207  0.7888
15118TIP3    H266770   4.649   4.553  15.285  1.1189  0.5861 -1.3850
15119TIP3   OH266771   4.761   1.569   3.458  0.1734  0.8091 -0.5882
15119TIP3    H166772   4.736   1.659   3.435 -1.4636  0.3301 -0.8495
15119TIP3    H266773   4.745   1.564   3.552  0.7520  0.9210 -0.4783
15120TIP3   OH266774   0.818   5.502   0.010 -0.2721  0.0062  0.0729
15120TIP3    H166775   0.783   5.589   0.028 -2.0360 -1.0017  2.0326
15120TIP3    H266776   0.756   5.463  -0.051  0.1353 -0.1334 -0.2607
15121TIP3   OH266777   6.595   4.838   4.971  0.0394 -1.0490  0.0116
15121TIP3    H166778   6.677   4.801   4.939  0.5786 -1.0328  1.2898
15121TIP3    H266779   6.616   4.869   5.060 -1.0121  0.1202 -0.1106
15122TIP3   OH266780   2.070   2.718   1.622  0.5735  0.0400  0.3973
15122TIP3    H166781   2.011   2.731   1.548 -0.7504  0.1024  1.4232
15122TIP3    H266782   2.141   2.780   1.608 -0.8238  1.6863  0.3630
15123TIP3   OH266783   5.646   1.800   0.428 -0.1603  0.0160 -0.1854
15123TIP3    H166784   5.559   1.838   0.420 -0.7280 -0.6675  2.1201
15123TIP3    H266785   5.704   1.876   0.441 -0.8146  0.3494  0.9504
15124TIP3   OH266786   3.479   2.441   1.739 -0.5420  0.1114 -0.4152
15124TIP3    H166787   3.558   2.390   1.719 -0.7054  0.4558 -2.0725
15124TIP3    H266788   3.409   2.376   1.737 -0.5186  0.0912 -0.7601
15125TIP3   OH266789   1.533   2.496   0.390 -0.1603 -0.6002  0.4249
15125TIP3    H166790   1.500   2.530   0.473 -1.5715  1.8174 -1.0222
15125TIP3    H266791   1.460   2.445   0.355 -0.2094 -0.1520 -0.1284
15126TIP3   OH266792   6.124   2.640  10.916 -0.1692 -0.5057  0.2755
15126TIP3    H166793   6.044   2.591  10.935 -1.7192  1.7783  0.0126
15126TIP3    H266794   6.108   2.728  10.949  1.9031  0.2844 -0.5972
15127TIP3   OH266795   6.768   3.748   2.579 -0.2689 -0.1533  0.0758
15127TIP3    H166796   6.736   3.810   2.645 -0.2539 -1.6256  1.5551
15127TIP3    H266797   6.862   3.767   2.572 -0.1623 -0.3179  0.9046
15128TIP3   OH266798   2.634   4.961  16.063  0.2637  0.4542  0.1637
15128TIP3    H166799   2.679   4.880  16.087 -1.0461 -0.1308  0.7218
15128TIP3    H266800   2.564   4.970  16.128  0.6924  2.3097  0.4259
15129TIP3   OH266801   5.083   1.102  10.376  0.2676 -0.0686  0.0360
15129TIP3    H166802   5.008   1.044  10.362 -0.9135  1.1364  1.1047
15129TIP3    H266803   5.157   1.042  10.384 -0.9890 -1.5318  1.7210
15130TIP3   OH266804   3.989   3.426  11.472 -0.8841  0.2044  0.4897
15130TIP3    H166805   3.970   3.520  11.473  0.8252  0.5790 -0.3047
15130TIP3    H266806   4.070   3.416  11.522  1.1876 -0.2732 -2.7142
15131TIP3   OH266807   2.365   0.198  15.938 -0.5266  0.4522  0.0399
15131TIP3    H166808   2.276   0.235  15.941 -0.6435  0.3293 -1.2653
15131TIP3    H266809   2.353   0.107  15.966 -1.1183 -0.0416 -1.6950
15132TIP3   OH266810   5.883   1.498   6.057 -0.0809 -0.0264 -0.1721
15132TIP3    H166811   5.811   1.444   6.026  0.0587 -0.1800 -0.2339
15132TIP3    H266812   5.868   1.507   6.151 -0.3983  0.2778 -0.2490
15133TIP3   OH266813   3.963   2.718  16.685  0.2760 -0.2492  0.2460
15133TIP3    H166814   3.980   2.780  16.756  0.2226  2.1689 -1.7621
15133TIP3    H266815   3.933   2.771  16.612  1.7611 -2.4287 -2.1264
15134TIP3   OH266816   6.174   0.607  10.710  0.3326  0.0496  0.3953
15134TIP3    H166817   6.133   0.693  10.701  1.6974  0.6067 -0.8111
15134TIP3    H266818   6.248   0.609  10.650  1.3500 -1.4047  1.5232
15135TIP3   OH266819   0.087   1.994  16.724 -0.7825  0.0144  0.6789
15135TIP3    H166820   0.051   2.030  16.805 -0.1436  0.9143  0.5823
15135TIP3    H266821   0.099   1.900  16.742  0.5902  0.4231  2.1088
15136TIP3   OH266822   0.308   0.878   3.036 -0.5490 -0.1227 -0.4251
15136TIP3    H166823   0.301   0.903   2.944 -4.3280 -0.6417 -0.4707
15136TIP3    H266824   0.243   0.933   3.080 -0.6854 -1.7067  1.4607
15137TIP3   OH266825   6.240   0.624   0.543  0.6652 -0.9134  0.5207
15137TIP3    H166826   6.188   0.657   0.616 -0.3207 -1.2888  0.0128
15137TIP3    H266827   6.327   0.610   0.580  0.4150 -0.2834  1.3983
15138TIP3   OH266828   5.027   1.878  15.568  0.0637  0.3811 -0.0287
15138TIP3    H166829   5.067   1.910  15.649 -0.5480  1.0277  0.0355
15138TIP3    H266830   5.018   1.957  15.513 -1.3842  0.3351  0.0849
15139TIP3   OH266831   1.300   4.021  13.147 -0.2030  0.2261  0.2649
15139TIP3    H166832   1.307   4.053  13.057 -0.0727 -0.7903 -0.1048
15139TIP3    H266833   1.274   3.929  13.137 -1.4082  0.4310  1.3055
15140TIP3   OH266834   2.217   5.721  14.165  0.7022  0.0377  0.5300
15140TIP3    H166835   2.212   5.770  14.083  1.3207 -1.1855 -0.2676
15140TIP3    H266836   2.127   5.691  14.181  1.0488 -2.3126 -1.3892
15141TIP3   OH266837   1.112   3.803  12.341 -0.1635 -0.6085  0.5675
15141TIP3    H166838   1.143   3.823  12.430  1.6662  0.3721 -0.2327
15141TIP3    H266839   1.189   3.767  12.297 -0.2435  1.4564 -1.3995
15142TIP3   OH266840   0.852   3.027  13.791 -0.5569  0.1988 -0.1248
15142TIP3    H166841   0.875   2.983  13.873  0.2555 -0.7935 -0.8684
15142TIP3    H266842   0.799   2.963  13.744  1.2092 -0.3091 -1.5171
15143TIP3   OH266843   2.316   6.545   3.222  0.6835  0.5591 -0.4402
15143TIP3    H166844   2.287   6.471   3.275 -0.2190  1.5707  0.5363
15143TIP3    H266845   2.390   6.582   3.270 -1.0138  2.3452  1.0042
15144TIP3   OH266846   2.773   5.595  14.160  0.5042 -0.6600  0.4138
15144TIP3    H166847   2.701   5.539  14.132  0.2578 -0.7357  1.1838
15144TIP3    H266848   2.811   5.551  14.236 -0.3673  0.7198  1.7150
15145TIP3   OH266849   1.011   6.661  12.496  0.6768 -0.6118 -0.1782
15145TIP3    H166850   0.960   6.737  12.468 -1.2495 -1.3245  1.2024
15145TIP3    H266851   1.038   6.681  12.585  1.1178 -1.0882 -0.1971
15146TIP3   OH266852   5.104   2.375  15.631  0.1642  0.5552 -0.0742
15146TIP3    H166853   5.049   2.453  15.623  2.5163  2.1643 -1.7907
15146TIP3    H266854   5.140   2.380  15.719 -0.1611  1.0853  0.0363
15147TIP3   OH266855   3.274   6.133   2.128  0.4743 -0.3265  0.0679
15147TIP3    H166856   3.359   6.114   2.090  0.0104  0.7959 -1.6473
15147TIP3    H266857   3.211   6.095   2.067 -0.2987 -1.2177  1.3525
15148TIP3   OH266858   0.007   5.376  15.950  0.0181  0.0351  0.2959
15148TIP3    H166859   0.023   5.287  15.919 -1.7379 -0.2266  0.0269
15148TIP3    H266860   0.073   5.391  16.018  1.0174 -1.0569 -0.4015
15149TIP3   OH266861   4.731   3.318  16.288 -0.9518  0.3272  0.3409
15149TIP3    H166862   4.768   3.236  16.257 -1.9086  0.1046 -0.2573
15149TIP3    H266863   4.744   3.379  16.215 -1.2747  0.3865  0.3303
15150TIP3   OH266864   1.429   3.020  12.281 -0.1922  0.3536  0.4285
15150TIP3    H166865   1.388   2.934  12.265 -3.2336  1.6441  0.5876
15150TIP3    H266866   1.514   3.015  12.236 -0.9436 -2.1879 -0.8994
15151TIP3   OH266867   3.327   1.661   0.484 -0.5923 -0.4129  0.1384
15151TIP3    H166868   3.281   1.729   0.435 -1.7010 -1.0023  0.3254
15151TIP3    H266869   3.357   1.599   0.417 -0.0682 -0.0314  0.0163
15152TIP3   OH266870   3.839   1.604  16.197 -0.0307  0.7715  0.2964
15152TIP3    H166871   3.769   1.539  16.189  0.6204  0.2458 -1.4396
15152TIP3    H266872   3.796   1.688  16.178 -0.0959  0.3898 -1.3391
15153TIP3   OH266873   5.218   0.009   0.377  0.2413 -0.5005 -0.3784
15153TIP3    H166874   5.231  -0.018   0.286 -1.2554  0.6190 -0.9700
15153TIP3    H266875   5.306   0.018   0.412  0.8513 -0.8183 -1.7618
15154TIP3   OH266876   4.547   5.546  15.042  0.1059 -0.3416 -0.2459
15154TIP3    H166877   4.564   5.618  14.981  1.1246  1.2297  1.7531
15154TIP3    H266878   4.472   5.575  15.094  0.8417 -0.4383  0.9183
15155TIP3   OH266879   0.921   6.203  12.656  0.2409 -0.2326  0.3343
15155TIP3    H166880   0.929   6.225  12.563  0.5744 -1.8123 -0.0496
15155TIP3    H266881   1.009   6.215  12.691  0.2305 -0.1354  0.3273
15156TIP3   OH266882   6.271   2.611   3.802  0.1471  0.5782  0.3177
15156TIP3    H166883   6.350   2.629   3.751 -0.6223 -0.3507 -1.2695
15156TIP3    H266884   6.201   2.657   3.756 -0.3324  1.1262  1.5257
15157TIP3   OH266885   1.350   3.700   0.358 -0.2799  0.3149 -0.2870
15157TIP3    H166886   1.424   3.724   0.303 -1.3984  2.1254 -1.1071
15157TIP3    H266887   1.385   3.701   0.447  0.7645  0.8395 -0.6811
15158TIP3   OH266888   2.767   1.191  16.005  0.5458 -0.4726  0.2857
15158TIP3    H166889   2.824   1.268  15.997  1.4825 -1.1848 -0.1801
15158TIP3    H266890   2.711   1.195  15.927  0.9908 -0.5620 -0.0467
15159TIP3   OH266891   4.806   6.428  13.072  0.2017  0.1426  0.5101
15159TIP3    H166892   4.834   6.457  12.985  0.0620 -0.4844  0.2550
15159TIP3    H266893   4.719   6.468  13.083 -1.3179 -2.4445 -1.0543
15160TIP3   OH266894   5.075   4.841  14.083 -0.1008  0.3315  0.0217
15160TIP3    H166895   5.142   4.851  14.150 -1.2517 -0.8516  1.4252
15160TIP3    H266896   5.084   4.750  14.053  0.3499  0.8233 -1.4063
15161TIP3   OH266897   6.726   4.332  14.598  0.3791 -0.6121  0.1722
15161TIP3    H166898   6.695   4.403  14.542  2.6941 -0.6272 -1.2257
15161TIP3    H266899   6.694   4.252  14.556 -1.0711 -0.5265  1.0136
15162TIP3   OH266900   6.566   3.886  13.161  0.3725  0.5887  0.3924
15162TIP3    H166901   6.593   3.975  13.184  0.6007  0.5375  0.3244
15162TIP3    H266902   6.544   3.891  13.067 -1.3849  0.9989  0.7802
15163TIP3   OH266903   0.115   1.318   1.440  0.5310  0.5802 -0.3465
15163TIP3    H166904   0.140   1.403   1.478 -0.1304  0.2721  0.8116
15163TIP3    H266905   0.123   1.331   1.346  1.0494  1.7434 -0.1590
15164TIP3   OH266906   3.926   5.607  14.016 -0.2309 -0.4086  0.1428
15164TIP3    H166907   3.866   5.563  13.957 -0.0160  0.9448 -1.1508
15164TIP3    H266908   3.902   5.576  14.103 -3.5665  0.8846 -0.1653
15165TIP3   OH266909   0.871   0.391  10.570  0.0013  0.8341 -0.0003
15165TIP3    H166910   0.919   0.428  10.644  0.5987  2.4147 -1.1228
15165TIP3    H266911   0.902   0.301  10.563  1.1591  1.1723  0.6432
15166TIP3   OH266912   1.563   0.176  11.957 -0.4872 -0.3381 -0.1492
15166TIP3    H166913   1.539   0.261  11.921 -0.9762 -0.4230 -0.0432
15166TIP3    H266914   1.614   0.196  12.035 -0.4479 -0.1415 -0.2250
15167TIP3   OH266915   5.646   4.075   1.157  0.6796 -0.3284  0.3807
15167TIP3    H166916   5.702   4.002   1.132  0.2748 -0.6194  0.2992
15167TIP3    H266917   5.632   4.063   1.251 -0.3047 -1.0198  0.1650
15168TIP3   OH266918   5.972   0.733  12.165  0.5988 -0.0768 -0.2040
15168TIP3    H166919   6.017   0.651  12.188  0.5664 -0.2882 -0.8848
15168TIP3    H266920   5.914   0.709  12.093 -3.2892 -0.6766  2.8008
15169TIP3   OH266921   2.831   6.096   3.229  0.0164  0.3735  0.0266
15169TIP3    H166922   2.896   6.088   3.160 -0.6472 -1.2430 -0.4551
15169TIP3    H266923   2.747   6.083   3.185 -0.4813  0.3163  0.9624
15170TIP3   OH266924   5.544   3.884   1.391 -0.6471  0.0218  0.6035
15170TIP3    H166925   5.595   3.904   1.470 -0.8211 -1.5459  1.1489
15170TIP3    H266926   5.454   3.904   1.414 -0.4107  2.1680 -0.1433
15171TIP3   OH266927   1.145   3.660  16.256 -0.0655 -0.8374  0.4581
15171TIP3    H166928   1.219   3.688  16.202  0.1859  0.8258  1.6014
15171TIP3    H266929   1.069   3.702  16.216 -0.0415 -0.5836  0.6713
15172TIP3   OH266930   3.783   2.396  11.868 -0.1422 -0.5057  0.0702
15172TIP3    H166931   3.827   2.426  11.948  1.4292  1.9064 -1.5537
15172TIP3    H266932   3.690   2.414  11.883  0.1488  0.0767  1.2843
15173TIP3   OH266933   0.101   1.776   3.811  0.2895 -0.0527 -0.2438
15173TIP3    H166934   0.057   1.692   3.816  1.3662 -0.6924 -0.9696
15173TIP3    H266935   0.082   1.808   3.722 -2.2169  1.7237  0.8082
15174TIP3   OH266936   1.564   5.816   5.869  0.6034 -0.0270  0.1386
15174TIP3    H166937   1.563   5.893   5.813  0.1375  0.0933  0.2993
15174TIP3    H266938   1.604   5.747   5.816  0.4945  0.1767 -0.2112
15175TIP3   OH266939   3.287   5.328  13.316  0.0665 -0.6864  0.0115
15175TIP3    H166940   3.361   5.387  13.302 -0.1123 -0.0843  1.4651
15175TIP3    H266941   3.301   5.291  13.403  0.0835 -2.7056 -0.7969
15176TIP3   OH266942   5.127   0.349   4.022  0.2611 -0.0392 -0.3614
15176TIP3    H166943   5.166   0.286   4.082 -1.7389 -1.3203 -0.3319
15176TIP3    H266944   5.158   0.434   4.053 -1.1187 -0.5777  2.8972
15177TIP3   OH266945   0.873   1.356   3.976 -0.2825 -0.8381 -0.0884
15177TIP3    H166946   0.790   1.335   4.017  0.1246 -0.5444  0.9064
15177TIP3    H266947   0.859   1.440   3.932 -0.0859  0.0287  1.4261
15178TIP3   OH266948   0.616   4.120   2.170  0.1785  0.5186 -0.5343
15178TIP3    H166949   0.523   4.102   2.157 -0.0134  0.4848  0.7322
15178TIP3    H266950   0.640   4.068   2.247  1.0164  1.2406 -0.2925
15179TIP3   OH266951   5.790   3.423  17.131  0.4769  0.2531 -0.4870
15179TIP3    H166952   5.851   3.410  17.059  0.0577  3.2702 -1.4874
15179TIP3    H266953   5.717   3.365  17.111  1.1506 -0.2695 -1.5201
15180TIP3   OH266954   0.544   4.052   6.560  0.1367 -0.0198  0.3006
15180TIP3    H166955   0.503   4.054   6.647 -0.3767 -0.3675  0.0742
15180TIP3    H266956   0.477   4.013   6.503  0.5331  0.0447 -0.2165
15181TIP3   OH266957   0.493   6.535   4.365 -0.3437  0.6647 -0.1422
15181TIP3    H166958   0.550   6.482   4.308 -0.1995 -0.2701  0.8393
15181TIP3    H266959   0.547   6.553   4.442 -0.9417  0.8841  0.2267
15182TIP3   OH266960   2.479   1.341   2.150  0.0153 -0.5187  0.0980
15182TIP3    H166961   2.421   1.412   2.120  0.2230 -0.9700 -1.4562
15182TIP3    H266962   2.431   1.300   2.222 -1.9673 -1.3009 -1.5673
15183TIP3   OH266963   0.480   0.788   3.971 -0.1331  0.7436  0.2379
15183TIP3    H166964   0.409   0.730   3.947  0.0940  0.7157 -0.3911
15183TIP3    H266965   0.439   0.873   3.984 -0.2538  0.7679 -0.3091
15184TIP3   OH266966   3.583   3.845  14.992 -0.3661 -0.2445 -0.0477
15184TIP3    H166967   3.641   3.847  15.068  1.4140  1.8016 -1.3467
15184TIP3    H266968   3.512   3.906  15.014  0.6404  1.0802 -0.3251
15185TIP3   OH266969   3.146   1.960   2.296  0.8117 -0.2883 -0.3369
15185TIP3    H166970   3.185   1.903   2.362  1.5069  0.0573 -0.4408
15185TIP3    H266971   3.129   1.903   2.221  1.3176 -0.4062 -0.3666
15186TIP3   OH266972   4.779   2.927   4.493  0.4510  0.4012  0.5522
15186TIP3    H166973   4.845   2.933   4.562  1.5246  0.2491 -0.4405
15186TIP3    H266974   4.698   2.959   4.534  1.0419  0.2141  1.8988
15187TIP3   OH266975   4.944   4.041   1.544 -0.1733  0.7059  0.6207
15187TIP3    H166976   4.964   3.983   1.470 -1.2786  1.6482 -0.4665
15187TIP3    H266977   4.918   3.982   1.614 -0.7526 -0.1677 -0.2909
15188TIP3   OH266978   5.631   1.368  14.590  0.0994  0.1576 -0.4767
15188TIP3    H166979   5.610   1.376  14.497 -0.9524 -0.0440 -0.2707
15188TIP3    H266980   5.637   1.458  14.621  3.3029  0.3507 -1.2990
15189TIP3   OH266981   6.414   2.845   2.644 -0.1355  0.6222 -0.1800
15189TIP3    H166982   6.416   2.797   2.727  0.3060 -0.4956 -0.8155
15189TIP3    H266983   6.324   2.875   2.637 -0.4399 -0.1411  0.2386
15190TIP3   OH266984   4.519   0.866   0.913 -0.2595 -0.1114  0.7106
15190TIP3    H166985   4.534   0.885   1.005 -1.3835 -1.8258  1.3064
15190TIP3    H266986   4.426   0.888   0.899 -0.0024  0.5002 -0.1264
15191TIP3   OH266987   3.107   2.991   1.297  0.4913  0.1983 -0.0377
15191TIP3    H166988   3.111   2.916   1.238 -0.7217  0.2998 -0.2841
15191TIP3    H266989   3.198   3.017   1.310  0.8421 -0.5321 -0.9475
15192TIP3   OH266990   3.975   2.957   2.171 -0.2619  0.1980 -0.1727
15192TIP3    H166991   4.052   3.013   2.171 -0.8190  0.9916  0.8585
15192TIP3    H266992   4.007   2.872   2.140  1.2833  0.1711  1.3747
15193TIP3   OH266993   3.994   3.268   2.361  0.4238  0.3383  0.0708
15193TIP3    H166994   3.945   3.295   2.438  1.0788  1.1574  0.2134
15193TIP3    H266995   3.927   3.239   2.299 -0.5670  4.0654 -0.8465
15194TIP3   OH266996   6.497   4.951  14.689  0.2776 -0.0976  0.0071
15194TIP3    H166997   6.482   4.885  14.757  3.8451 -1.7735 -0.5812
15194TIP3    H266998   6.541   4.903  14.619  0.3482  2.3728 -1.7673
15195TIP3   OH266999   0.577   2.244  11.237 -0.3435 -0.0571 -0.3621
15195TIP3    H167000   0.558   2.220  11.146  1.4565  0.8171 -1.0163
15195TIP3    H267001   0.647   2.309  11.231 -0.9580  0.8709  1.6236
15196TIP3   OH267002   5.603   4.760  14.340 -0.1908  0.5721  0.1737
15196TIP3    H167003   5.659   4.834  14.315  0.1200  0.2420 -0.1142
15196TIP3    H267004   5.544   4.748  14.266 -0.6353  0.9065  0.4689
15197TIP3   OH267005   5.230   0.105  11.248 -0.5308  0.0418  0.0555
15197TIP3    H167006   5.163   0.170  11.227 -0.4916 -0.0918 -0.4997
15197TIP3    H267007   5.293   0.112  11.177  0.2248  0.3970  0.7444
15198TIP3   OH267008   3.840   2.861  13.999 -0.0527 -0.0861  0.4754
15198TIP3    H167009   3.931   2.889  14.008  0.4995 -2.2065  2.1546
15198TIP3    H267010   3.843   2.788  13.937 -0.8091  0.5258 -0.3180
15199TIP3   OH267011   1.993   2.385  14.866  0.2193 -0.0735  0.6006
15199TIP3    H167012   1.979   2.294  14.841  0.3099  0.1569 -0.3123
15199TIP3    H267013   1.905   2.420  14.880  0.1103  0.0670 -0.4018
15200TIP3   OH267014   3.497   1.287   2.946 -0.3835  0.3587 -0.2137
15200TIP3    H167015   3.490   1.290   2.851 -0.6334 -0.6656 -0.2430
15200TIP3    H267016   3.589   1.307   2.964 -0.3564  0.6527 -0.6568
15201TIP3   OH267017   5.037   0.033  13.207  0.4355  1.0553  0.0988
15201TIP3    H167018   5.037   0.129  13.205 -1.2567  1.1170  0.8356
15201TIP3    H267019   4.996   0.008  13.125 -0.5940  1.0578  0.5834
15202TIP3   OH267020   4.186   2.981   4.245 -0.3577 -0.2932 -0.2548
15202TIP3    H167021   4.179   3.074   4.269 -0.3973 -0.4925  0.5324
15202TIP3    H267022   4.232   2.941   4.319  1.0132 -0.6390 -1.2532
15203TIP3   OH267023   3.306   3.000   1.020  0.1167 -0.8458 -0.5067
15203TIP3    H167024   3.225   2.962   0.986 -0.2999 -0.0177 -0.4611
15203TIP3    H267025   3.309   3.088   0.982  1.0273 -0.8890 -0.5563
15204TIP3   OH267026   5.495   4.513   3.123 -0.2352  0.0869 -0.3749
15204TIP3    H167027   5.459   4.428   3.148  0.1617 -0.3754 -1.3299
15204TIP3    H267028   5.430   4.576   3.153 -0.3180 -0.5040  0.7630
15205TIP3   OH267029   5.881   3.171  17.326  0.2025  0.6006  0.4895
15205TIP3    H167030   5.861   3.124  17.245 -1.1481  4.0358 -1.3847
15205TIP3    H267031   5.976   3.181  17.326  0.3529 -0.7308  0.1606
15206TIP3   OH267032   0.822   3.737  14.034 -0.0654  0.2329  0.7510
15206TIP3    H167033   0.837   3.646  14.060 -2.5613 -0.0053  1.6161
15206TIP3    H267034   0.782   3.778  14.110 -0.9628  1.4634 -0.3292
15207TIP3   OH267035   3.051   5.250   5.427  0.0887 -0.2572  0.4496
15207TIP3    H167036   3.113   5.284   5.363 -1.8743  1.6100 -0.5962
15207TIP3    H267037   3.045   5.157   5.407  0.3434  0.0751 -1.3974
15208TIP3   OH267038   0.202   1.132  17.202 -0.2743  0.6964 -0.3604
15208TIP3    H167039   0.287   1.156  17.166 -0.1340 -0.6878 -1.0329
15208TIP3    H267040   0.205   1.036  17.210 -1.3685  0.7246  0.6375
15209TIP3   OH267041   1.784   1.660  16.743 -0.1369 -0.4792 -0.3495
15209TIP3    H167042   1.757   1.730  16.684  0.0372  0.1350  0.2872
15209TIP3    H267043   1.878   1.649  16.727 -0.1834 -0.6264 -0.5157
15210TIP3   OH267044   2.791   3.420  16.816 -0.3021  0.6017  1.2397
15210TIP3    H167045   2.763   3.392  16.729  0.5370 -0.1304  1.1847
15210TIP3    H267046   2.862   3.482  16.799 -0.1185  0.4362  1.3940
15211TIP3   OH267047   3.890   2.231   0.081 -0.2952 -0.3033  0.2310
15211TIP3    H167048   3.857   2.173   0.012  0.5985 -0.0261 -0.4572
15211TIP3    H267049   3.890   2.318   0.040 -2.5889  0.4038  1.5733
15212TIP3   OH267050   6.581   4.803   6.710 -0.1002  0.3048 -0.0474
15212TIP3    H167051   6.504   4.767   6.754  0.7285 -0.6519  0.6551
15212TIP3    H267052   6.567   4.786   6.617 -1.4037  1.4523 -0.0998
15213TIP3   OH267053   4.096   5.636  11.741 -0.2143  0.0041 -0.6103
15213TIP3    H167054   4.053   5.693  11.804  1.2804  1.7539 -1.0805
15213TIP3    H267055   4.179   5.612  11.782 -0.3816 -1.0173 -0.8405
15214TIP3   OH267056   1.075   1.174   0.840 -0.3979  0.4718  0.0819
15214TIP3    H167057   0.983   1.160   0.859  0.0667 -2.3689  0.7751
15214TIP3    H267058   1.079   1.178   0.744 -1.2729  0.9769  0.0586
15215TIP3   OH267059   4.786   5.381   4.899 -0.0588  0.1547  0.4084
15215TIP3    H167060   4.760   5.290   4.887 -1.3574  0.4904  0.4684
15215TIP3    H267061   4.801   5.390   4.993  0.9417 -0.1934  0.2969
15216TIP3   OH267062   3.720   1.979  12.033 -0.2761  0.3207 -0.1131
15216TIP3    H167063   3.811   1.972  12.062 -0.0649  0.5035 -0.7050
15216TIP3    H267064   3.696   1.890  12.009  1.0728  0.7732 -3.7398
15217TIP3   OH267065   2.368   5.759  11.900 -0.2566 -0.0284  0.6473
15217TIP3    H167066   2.378   5.796  11.987  0.3960 -1.6203  1.2836
15217TIP3    H267067   2.371   5.835  11.841 -0.7631  1.0680  1.9979
15218TIP3   OH267068   1.979   3.270  15.626  0.4256 -0.3475  0.8454
15218TIP3    H167069   1.944   3.280  15.537  0.9121 -0.1606  0.6749
15218TIP3    H267070   2.062   3.318  15.625  1.9529 -2.8428  0.5114
15219TIP3   OH267071   0.508   5.180  12.588  0.4344 -0.0957  0.0891
15219TIP3    H167072   0.507   5.276  12.578 -0.1962 -0.2349 -1.5236
15219TIP3    H267073   0.460   5.164  12.669 -1.4535  0.8913 -0.7609
15220TIP3   OH267074   3.228   4.735   6.082 -0.6275 -0.2929 -0.2695
15220TIP3    H167075   3.277   4.703   6.158 -1.0302 -0.3845 -0.0418
15220TIP3    H267076   3.257   4.681   6.009 -1.0777 -0.9809  0.0489
15221TIP3   OH267077   5.067   0.352  15.350 -0.1933 -0.1133  0.0968
15221TIP3    H167078   4.998   0.288  15.367 -1.5230  0.7736 -1.5997
15221TIP3    H267079   5.034   0.434  15.387  1.0234 -0.1356  1.3161
15222TIP3   OH267080   2.501   4.744  12.314  0.3261  0.6953 -0.1346
15222TIP3    H167081   2.590   4.746  12.349  0.1131  0.4287  0.4394
15222TIP3    H267082   2.446   4.773  12.387 -0.0108  1.3761 -0.6437
15223TIP3   OH267083   0.958   1.578   2.603  0.3831 -0.3342  0.7631
15223TIP3    H167084   1.022   1.648   2.593 -1.1635  1.3450  2.0519
15223TIP3    H267085   0.989   1.529   2.679  1.0250 -0.5684  0.3581
15224TIP3   OH267086   2.126   2.815  14.780 -0.1245 -0.8508  0.5499
15224TIP3    H167087   2.177   2.879  14.731  0.6705 -2.1652 -0.3950
15224TIP3    H267088   2.177   2.798  14.859  0.1079 -0.9574  0.3789
15225TIP3   OH267089   4.324   4.374   0.132 -0.0086 -0.2898 -0.4432
15225TIP3    H167090   4.408   4.367   0.180  0.1082  1.7720 -0.2700
15225TIP3    H267091   4.348   4.360   0.041  0.6855  1.0457 -0.4883
15226TIP3   OH267092   2.352   2.676   5.807  0.1034  0.3091  0.3536
15226TIP3    H167093   2.355   2.583   5.830 -2.5808  0.6918  2.9591
15226TIP3    H267094   2.440   2.696   5.777  0.5945 -3.2090 -1.1082
15227TIP3   OH267095   3.382   2.878   1.271 -0.2142 -0.2471  1.2197
15227TIP3    H167096   3.353   2.913   1.187  1.9034  0.8889  0.8806
15227TIP3    H267097   3.423   2.795   1.250 -1.3482 -0.8784  1.4237
15228TIP3   OH267098   3.433   0.280   0.868 -0.1169 -0.1628  0.2016
15228TIP3    H167099   3.374   0.354   0.851 -0.5907 -0.4303  0.6443
15228TIP3    H267100   3.374   0.205   0.880  0.3416 -0.5344  0.1325
15229TIP3   OH267101   3.237   3.694   0.732  0.1014 -0.0135  0.0055
15229TIP3    H167102   3.218   3.616   0.783 -1.0441 -0.2381 -0.7364
15229TIP3    H267103   3.257   3.761   0.798 -1.0325 -0.3793  0.7530
15230TIP3   OH267104   4.222   6.652  15.517  0.3148  0.4362 -0.1671
15230TIP3    H167105   4.242   6.663  15.609  0.1631  0.3829 -0.1272
15230TIP3    H267106   4.127   6.658  15.512  0.2553 -0.4069 -0.2033
15231TIP3   OH267107   0.589   3.267   0.770  0.0775 -0.2862  0.3453
15231TIP3    H167108   0.649   3.337   0.744 -1.1758 -0.3192 -3.0834
15231TIP3    H267109   0.644   3.189   0.773  0.4784 -0.1682 -1.9364
15232TIP3   OH267110   0.944   2.712   1.222 -0.1617 -0.3983 -0.3297
15232TIP3    H167111   1.010   2.645   1.237  1.2060  1.0896  0.6684
15232TIP3    H267112   0.964   2.748   1.136  2.1671  1.9035  1.0528
15233TIP3   OH267113   6.389   0.641   3.216  0.5397  0.1789  0.3341
15233TIP3    H167114   6.385   0.574   3.149  0.1790  0.5713 -0.0433
15233TIP3    H267115   6.367   0.596   3.297  1.0372 -0.3078  0.2044
15234TIP3   OH267116   1.386   2.973  17.083  0.4083 -0.2722  0.3457
15234TIP3    H167117   1.351   2.945  17.167 -1.5779  0.1186 -0.3106
15234TIP3    H267118   1.317   2.954  17.020  1.6046  0.0283 -1.1213
15235TIP3   OH267119   1.299   2.687   4.042 -0.3099  0.0500 -0.2172
15235TIP3    H167120   1.225   2.746   4.058 -1.2233 -1.6122  2.3773
15235TIP3    H267121   1.291   2.621   4.110  2.0753 -1.7088 -1.5185
15236TIP3   OH267122   1.287   2.261   4.066 -0.3281  0.6375  0.2613
15236TIP3    H167123   1.266   2.296   3.980  0.4378 -1.1604 -0.7218
15236TIP3    H267124   1.377   2.289   4.082 -0.2687  0.4908  0.1930
15237TIP3   OH267125   5.715   2.858   4.215 -0.2063  0.2070  0.8116
15237TIP3    H167126   5.785   2.794   4.207  0.6207  1.1059  0.6436
15237TIP3    H267127   5.635   2.807   4.210  0.3961 -0.6222 -1.1829
15238TIP3   OH267128   4.586   6.652  12.060 -0.2692  0.1586 -0.1035
15238TIP3    H167129   4.495   6.673  12.038 -0.4553 -0.3389  0.1533
15238TIP3    H267130   4.633   6.655  11.977 -0.8348 -1.0734 -0.4998
15239TIP3   OH267131   1.228   2.489   2.933 -0.2621  0.4856 -0.5110
15239TIP3    H167132   1.223   2.584   2.942 -1.5436  0.3266  0.9524
15239TIP3    H267133   1.282   2.461   3.007 -0.7038  0.0049 -0.3668
15240TIP3   OH267134   4.725   2.529  12.843 -0.1114 -0.0250  0.2121
15240TIP3    H167135   4.718   2.625  12.846 -2.3223 -0.1774  2.1548
15240TIP3    H267136   4.641   2.500  12.808  0.2849 -1.3088  0.2744
15241TIP3   OH267137   1.549   6.674   5.876 -0.0399 -0.7017  0.2492
15241TIP3    H167138   1.541   6.581   5.899 -2.2399 -1.5000 -3.0720
15241TIP3    H267139   1.458   6.703   5.864  0.4938  2.2954  2.2986
15242TIP3   OH267140   1.036   4.017  16.352 -0.1940 -0.1628  0.5156
15242TIP3    H167141   1.085   4.059  16.282  1.7733 -3.1025 -0.0199
15242TIP3    H267142   1.076   4.049  16.433  0.2634  0.0839  0.1927
15243TIP3   OH267143   6.442   3.991   2.202 -0.2089  0.3910  0.1878
15243TIP3    H167144   6.498   3.942   2.142  0.3156  1.0399  0.1300
15243TIP3    H267145   6.397   3.924   2.253  0.0460 -0.1545 -0.2854
15244TIP3   OH267146   0.645   6.690  11.230  0.0454 -0.5030 -0.3831
15244TIP3    H167147   0.640   6.693  11.325  1.3517 -1.0268 -0.2722
15244TIP3    H267148   0.622   6.601  11.207 -0.2883 -0.3718 -0.5554
15245TIP3   OH267149   1.214   3.393   0.116 -0.5178 -0.3261 -0.4020
15245TIP3    H167150   1.214   3.458   0.046 -3.1224  0.8953  0.5899
15245TIP3    H267151   1.127   3.353   0.111  0.1005 -1.8924  0.6502
15246TIP3   OH267152   2.813   6.586  17.121  0.4711  0.0391 -0.3200
15246TIP3    H167153   2.743   6.643  17.152 -0.1971 -0.6136 -0.6236
15246TIP3    H267154   2.855   6.636  17.051  0.1396  0.3201 -0.3193
15247TIP3   OH267155   1.216   5.047   0.489  0.1666 -0.3370 -0.2678
15247TIP3    H167156   1.287   5.084   0.542 -2.0800  2.2807  1.1408
15247TIP3    H267157   1.191   5.117   0.430 -2.2253 -0.6061  0.3332
15248TIP3   OH267158   4.070   5.983  12.458 -0.0466 -0.2243  0.4486
15248TIP3    H167159   4.023   5.919  12.404  1.1321 -1.2034  0.5409
15248TIP3    H267160   4.082   6.059  12.400 -0.5772 -0.4699  0.0063
15249TIP3   OH267161   5.583   1.603  14.748 -0.1563  0.1430  0.7065
15249TIP3    H167162   5.501   1.635  14.712 -1.1006 -2.0078  0.8321
15249TIP3    H267163   5.611   1.672  14.809 -1.4940  1.2111  0.1556
15250TIP3   OH267164   2.607   2.861  14.559 -0.1702  0.5024 -0.1014
15250TIP3    H167165   2.688   2.819  14.589 -0.0852 -0.0969 -1.0930
15250TIP3    H267166   2.539   2.797  14.580 -0.2206  0.4699 -0.3568
15251TIP3   OH267167   5.642   4.610   0.393 -0.7683  0.1789  0.4004
15251TIP3    H167168   5.710   4.674   0.414 -0.7633  0.1733  0.4025
15251TIP3    H267169   5.587   4.653   0.328  0.5880 -0.6712 -1.4084
15252TIP3   OH267170   2.933   0.679  13.978  0.5144 -0.8005  0.3577
15252TIP3    H167171   2.846   0.665  13.941  1.4089 -0.8900 -1.8439
15252TIP3    H267172   2.968   0.755  13.931  1.8892 -1.1752  0.7060
15253TIP3   OH267173   5.310   1.459   5.081  0.0873 -0.0045 -0.2101
15253TIP3    H167174   5.336   1.542   5.040  2.9981 -0.8792 -0.3520
15253TIP3    H267175   5.275   1.407   5.009  1.0979  0.0322 -0.7414
15254TIP3   OH267176   1.081   0.357  13.452  0.1502 -0.2343 -0.2747
15254TIP3    H167177   1.072   0.439  13.500 -1.6743  0.2251 -1.3060
15254TIP3    H267178   0.991   0.323  13.445  0.5145 -0.9538 -2.1796
15255TIP3   OH267179   3.171   1.446  12.193 -0.0048 -0.6175  0.1517
15255TIP3    H167180   3.091   1.494  12.172  0.1178 -0.3908  0.2033
15255TIP3    H267181   3.197   1.479  12.278 -0.6087 -1.6786  0.7760
15256TIP3   OH267182   4.929   4.215  10.561  0.1601  0.6682 -0.2135
15256TIP3    H167183   4.949   4.270  10.486 -0.1746 -0.4037 -1.1166
15256TIP3    H267184   4.978   4.254  10.633 -0.8037  2.6952 -0.5708
15257TIP3   OH267185   0.340   1.585   1.284 -0.1691 -0.2405 -0.0879
15257TIP3    H167186   0.431   1.575   1.312 -0.7774 -2.5319  1.2317
15257TIP3    H267187   0.321   1.678   1.298  1.0934 -0.2847  2.4915
15258TIP3   OH267188   1.381   5.687  14.008 -0.6672  0.1441 -0.0908
15258TIP3    H167189   1.368   5.762  13.949 -2.1381 -0.6568 -0.8473
15258TIP3    H267190   1.445   5.632  13.963 -0.7991  0.1767 -0.3253
15259TIP3   OH267191   5.694   5.696  14.407 -0.1316  0.4473  0.1324
15259TIP3    H167192   5.746   5.750  14.467 -0.6694  0.9719  0.1337
15259TIP3    H267193   5.606   5.733  14.411 -0.9695 -1.4910  1.4426
15260TIP3   OH267194   2.290   4.141  15.610 -0.4027 -0.5481 -0.1421
15260TIP3    H167195   2.254   4.220  15.652  0.8068 -0.0152 -0.0700
15260TIP3    H267196   2.373   4.170  15.573 -0.2164 -1.6658 -0.6136
15261TIP3   OH267197   4.368   1.075   1.054  0.4852  0.3880  0.0666
15261TIP3    H167198   4.384   1.001   1.112 -0.7891 -0.6834 -0.8929
15261TIP3    H267199   4.281   1.107   1.078  0.7919  1.2302  0.0930
15262TIP3   OH267200   2.882   2.192  12.955  0.6628 -0.2152 -0.3294
15262TIP3    H167201   2.842   2.202  13.041  3.0813 -0.7775  0.9686
15262TIP3    H267202   2.907   2.281  12.930 -1.3496  0.1512 -1.1973
15263TIP3   OH267203   0.596   2.862  15.666 -0.4875  0.0993 -0.1057
15263TIP3    H167204   0.630   2.773  15.672 -1.7337 -0.3132  1.9336
15263TIP3    H267205   0.630   2.895  15.583  0.0615 -2.2451 -0.9014
15264TIP3   OH267206   5.060   0.453   5.670  0.2252  0.5423  0.0003
15264TIP3    H167207   5.095   0.444   5.581 -0.7603  0.9949 -0.4474
15264TIP3    H267208   5.100   0.533   5.704 -0.0027  0.8020 -0.3353
15265TIP3   OH267209   2.876   5.022   1.152 -0.4700 -0.1892 -0.2683
15265TIP3    H167210   2.792   5.006   1.108 -0.7120  2.6778 -1.0178
15265TIP3    H267211   2.940   4.975   1.099 -1.4431 -1.6565 -0.2105
15266TIP3   OH267212   0.769   5.884  10.858 -0.4859 -0.8404  0.7200
15266TIP3    H167213   0.732   5.848  10.777  0.7470 -0.2115 -0.1645
15266TIP3    H267214   0.796   5.973  10.834  0.8177 -0.9903  1.5242
15267TIP3   OH267215   4.114   0.763   1.876 -0.1094  0.0101 -0.1187
15267TIP3    H167216   4.057   0.829   1.915  0.7484  0.7869 -0.1530
15267TIP3    H267217   4.131   0.796   1.787 -1.4164 -1.3523 -0.9296
15268TIP3   OH267218   3.986   1.063   2.552  0.1252  0.3647  0.7866
15268TIP3    H167219   3.990   0.969   2.532  0.4598  0.6405 -0.5388
15268TIP3    H267220   4.068   1.080   2.599  1.1564  0.4022 -0.9515
15269TIP3   OH267221   5.360   1.231   0.831 -0.3357  0.1107 -0.4929
15269TIP3    H167222   5.389   1.205   0.918  0.1850  0.3661 -0.5819
15269TIP3    H267223   5.309   1.157   0.799 -0.4090 -0.0413 -0.0291
15270TIP3   OH267224   3.802   0.038   4.656  0.2764  1.0198 -0.5014
15270TIP3    H167225   3.786  -0.016   4.733 -0.6762  1.7974 -0.1332
15270TIP3    H267226   3.868  -0.010   4.606  0.9575  0.5229  0.8179
15271TIP3   OH267227   1.205   1.389  15.135  0.3143  0.1831  0.5221
15271TIP3    H167228   1.227   1.300  15.107  0.0273  0.0814  0.6072
15271TIP3    H267229   1.126   1.378  15.188 -0.0961  0.5610  0.0029
15272TIP3   OH267230   6.480   0.242  11.464 -0.0940 -0.3238  0.3547
15272TIP3    H167231   6.490   0.335  11.484 -1.6197  0.0728 -0.5999
15272TIP3    H267232   6.472   0.238  11.369  0.2811 -1.4751  0.3573
15273TIP3   OH267233   5.098   5.435   2.888  0.0529  0.1847 -0.0930
15273TIP3    H167234   5.026   5.388   2.929  1.3370 -1.8559 -0.0233
15273TIP3    H267235   5.111   5.391   2.803 -0.6221  2.3954 -1.4296
15274TIP3   OH267236   4.488   6.294  13.766  0.0650 -0.1366  0.6063
15274TIP3    H167237   4.463   6.233  13.697 -0.5242  0.7981 -0.0276
15274TIP3    H267238   4.581   6.310  13.752  0.3176 -1.1633  1.0142
15275TIP3   OH267239   1.879   3.956   4.725  0.0138  0.0714 -0.3231
15275TIP3    H167240   1.825   3.931   4.651 -2.8977  2.1413  0.8961
15275TIP3    H267241   1.924   3.876   4.750 -0.7165 -1.2347 -2.8464
15276TIP3   OH267242   3.322   4.932   3.585  0.0238  0.0456  0.0065
15276TIP3    H167243   3.399   4.875   3.579  0.2012  0.2326  0.4513
15276TIP3    H267244   3.320   4.978   3.501 -0.1011 -0.5868 -0.3423
15277TIP3   OH267245   0.700   4.763  15.639 -0.2837  0.0359  0.1168
15277TIP3    H167246   0.790   4.786  15.615 -0.0225 -1.6325 -0.6063
15277TIP3    H267247   0.652   4.846  15.633  1.1301  0.9104  0.2623
15278TIP3   OH267248   5.052   4.774   3.791  0.3856 -0.2986  0.5068
15278TIP3    H167249   5.007   4.732   3.865  0.7767 -0.5361  0.6145
15278TIP3    H267250   5.037   4.716   3.717 -2.5072  1.3480 -0.3768
15279TIP3   OH267251   5.147   3.127  15.039 -0.0922  0.3597 -0.4808
15279TIP3    H167252   5.076   3.190  15.049  0.0134  0.4361 -0.2194
15279TIP3    H267253   5.173   3.135  14.948 -0.9161 -0.1909 -0.7815
15280TIP3   OH267254   5.164   5.137  10.203 -0.1287  0.3574  0.0725
15280TIP3    H167255   5.209   5.157  10.285  0.1066  0.5062 -0.0923
15280TIP3    H267256   5.206   5.056  10.172 -1.1716 -0.4987  0.8105
15281TIP3   OH267257   5.080   2.839   4.037  0.3131 -0.1939  0.1235
15281TIP3    H167258   5.138   2.782   4.088 -0.2506 -2.1150 -1.2759
15281TIP3    H267259   4.993   2.825   4.074  0.1780 -0.1745 -0.1812
15282TIP3   OH267260   2.137   4.196   3.606 -0.7191  0.3067 -0.3024
15282TIP3    H167261   2.080   4.119   3.604 -0.0511 -0.2338  0.8474
15282TIP3    H267262   2.108   4.245   3.683  0.7673 -0.3107  0.6890
15283TIP3   OH267263   1.995   4.143  10.565  0.1987  0.1936  0.3255
15283TIP3    H167264   1.983   4.073  10.629  0.7393 -0.8272 -0.6629
15283TIP3    H267265   1.910   4.150  10.521 -0.8879  2.3753  2.5199
15284TIP3   OH267266   6.110   3.761   5.729  0.1867  0.1080 -0.3370
15284TIP3    H167267   6.052   3.829   5.764 -3.5125 -1.9730 -1.8291
15284TIP3    H267268   6.124   3.702   5.803 -1.4439 -0.4536 -0.4468
15285TIP3   OH267269   2.811   0.164   0.819  0.2557  0.5780  1.2734
15285TIP3    H167270   2.746   0.102   0.852  0.2115  0.2331  0.5457
15285TIP3    H267271   2.760   0.236   0.784  0.3071  1.0283  2.1061
15286TIP3   OH267272   5.011   2.175  11.769 -0.4896 -0.2160 -0.0614
15286TIP3    H167273   4.952   2.152  11.840 -1.0009  2.0572  0.3308
15286TIP3    H267274   4.954   2.186  11.693 -0.0657 -1.6801 -0.6157
15287TIP3   OH267275   5.163   3.697   3.896 -0.1765  0.2088 -0.3193
15287TIP3    H167276   5.198   3.624   3.946 -2.1717 -1.2475 -0.9056
15287TIP3    H267277   5.115   3.656   3.824 -0.8856  2.1144 -0.9968
15288TIP3   OH267278   4.409   2.865   4.864  0.6011  0.2987 -0.6070
15288TIP3    H167279   4.482   2.857   4.925  0.0670 -4.1103 -0.1904
15288TIP3    H267280   4.343   2.915   4.912  1.7792  0.6982  0.6638
15289TIP3   OH267281   4.417   4.703  15.307 -0.4124 -0.0779  0.1295
15289TIP3    H167282   4.431   4.629  15.248 -0.1910  2.6016 -3.5585
15289TIP3    H267283   4.324   4.725  15.295 -0.4989  0.2127  1.2336
15290TIP3   OH267284   1.666   1.723   1.607 -0.1096 -0.6076 -0.3404
15290TIP3    H167285   1.748   1.707   1.654 -0.0833 -0.6714 -0.4081
15290TIP3    H267286   1.674   1.813   1.574  0.6525 -1.1732 -1.7907
15291TIP3   OH267287   1.468   5.437  14.803  0.2449 -0.1799  0.0944
15291TIP3    H167288   1.541   5.387  14.767  0.7416 -0.2147  1.1071
15291TIP3    H267289   1.444   5.391  14.883 -0.7566 -0.0454 -0.1152
15292TIP3   OH267290   5.105   6.699  12.438 -0.2702 -0.6911 -0.1513
15292TIP3    H167291   5.060   6.675  12.519  0.8670  3.0832  1.8317
15292TIP3    H267292   5.036   6.731  12.381 -0.8682 -1.4975  0.1011
15293TIP3   OH267293   5.571   4.074  14.653 -0.9275 -0.5708 -0.3743
15293TIP3    H167294   5.625   4.021  14.594  0.4352  0.0690  0.2611
15293TIP3    H267295   5.497   4.017  14.675  0.0907 -1.9154 -0.3158
15294TIP3   OH267296   0.432   2.022  13.615  0.0305 -0.2463 -0.0801
15294TIP3    H167297   0.447   2.056  13.526 -1.6406 -2.2494 -1.2130
15294TIP3    H267298   0.511   2.046  13.663  1.5947 -0.2658 -2.4624
15295TIP3   OH267299   6.622   5.013   4.391  0.0122  0.2500 -0.2862
15295TIP3    H167300   6.546   4.955   4.399 -0.3026  0.8171  1.1327
15295TIP3    H267301   6.589   5.100   4.415  0.6925  0.8712 -1.4747
15296TIP3   OH267302   5.862   2.471   2.770  0.0088 -0.5116 -0.2113
15296TIP3    H167303   5.945   2.443   2.730 -0.1841 -0.9792 -0.2867
15296TIP3    H267304   5.840   2.401   2.831  0.8743  0.6908  1.5965
15297TIP3   OH267305   4.173   4.302  10.684 -0.1042  0.1382 -0.4680
15297TIP3    H167306   4.108   4.240  10.716 -1.2293  1.6994  0.3797
15297TIP3    H267307   4.126   4.357  10.622  0.0890  1.9484  0.9156
15298TIP3   OH267308   1.358   4.542   5.515  0.4147  0.2952  0.3873
15298TIP3    H167309   1.265   4.533   5.532  0.7953  0.8223  3.2034
15298TIP3    H267310   1.365   4.612   5.450 -1.1639 -0.3697 -0.5264
15299TIP3   OH267311   2.062   0.412  14.086  0.0974  0.4182 -0.3426
15299TIP3    H167312   2.116   0.490  14.074  0.7717  0.0456  0.2240
15299TIP3    H267313   1.978   0.434  14.046 -0.2695  2.0315  1.2036
15300TIP3   OH267314   5.460   1.019   3.613  0.1430  0.0430  0.3600
15300TIP3    H167315   5.463   0.981   3.526  1.4517  0.8921 -0.0018
15300TIP3    H267316   5.508   0.957   3.668  1.8479  0.8860 -0.1293
15301TIP3   OH267317   5.356   3.451   5.586 -0.2397 -0.0039  0.3309
15301TIP3    H167318   5.309   3.534   5.600  0.1948 -0.0227  2.2051
15301TIP3    H267319   5.300   3.385   5.626 -0.3097 -0.5570 -0.6540
15302TIP3   OH267320   6.417   2.305   2.467 -0.4846  0.2263  0.0607
15302TIP3    H167321   6.367   2.288   2.387 -0.5197 -0.2202  0.1751
15302TIP3    H267322   6.423   2.220   2.511  0.5191  0.2348 -0.0267
15303TIP3   OH267323   6.094   3.203   0.777  1.0904  0.3521 -0.0108
15303TIP3    H167324   6.001   3.192   0.758  1.5545 -2.1416 -1.2625
15303TIP3    H267325   6.098   3.214   0.872 -0.4644  0.5530  0.0552
15304TIP3   OH267326   0.569   2.245  12.722 -0.5953  0.4436  0.3770
15304TIP3    H167327   0.614   2.297  12.789 -3.1121  0.5304  2.1616
15304TIP3    H267328   0.568   2.156  12.757 -0.4210  0.1225 -0.4107
15305TIP3   OH267329   4.048   5.070   0.112  0.9686 -0.5136  0.5964
15305TIP3    H167330   3.998   5.064   0.194 -0.3842  0.8450 -0.0692
15305TIP3    H267331   4.076   4.981   0.094  0.8032 -0.9289  2.2408
15306TIP3   OH267332   2.101   4.813  16.507 -0.2637 -0.4463 -0.3384
15306TIP3    H167333   2.040   4.828  16.434 -0.9533 -1.5231 -0.0109
15306TIP3    H267334   2.187   4.831  16.470 -0.4563 -2.3970 -1.9009
15307TIP3   OH267335   6.187   6.749   1.743 -0.0595 -0.2549 -0.2230
15307TIP3    H167336   6.267   6.769   1.694  0.0965  0.2712  0.2301
15307TIP3    H267337   6.117   6.789   1.692 -0.1821 -1.6883 -1.2179
15308TIP3   OH267338   0.458   0.575   0.053  0.6540 -0.0162  0.3248
15308TIP3    H167339   0.438   0.655   0.100  0.9215  1.1121 -1.4018
15308TIP3    H267340   0.482   0.603  -0.035 -0.0676 -2.0471 -0.5948
15309TIP3   OH267341   6.729   4.974   2.263 -0.0307 -0.4458  0.2867
15309TIP3    H167342   6.752   5.017   2.346 -1.8195  1.2164 -0.0082
15309TIP3    H267343   6.640   5.003   2.245  0.4609 -0.3750 -2.4718
15310TIP3   OH267344   2.612   4.328   0.230 -0.4960 -0.3351 -0.0838
15310TIP3    H167345   2.601   4.417   0.262  1.2728 -0.7766  1.9429
15310TIP3    H267346   2.611   4.273   0.309  0.8463 -1.8423 -1.0476
15311TIP3   OH267347   3.615   0.114  11.691 -0.1280  0.1010  0.1901
15311TIP3    H167348   3.577   0.078  11.611  0.8183 -0.9604  0.2089
15311TIP3    H267349   3.645   0.038  11.741  0.1003  0.8001  1.1553
15312TIP3   OH267350   4.475   3.464   5.241  0.1267 -0.7553 -0.0174
15312TIP3    H167351   4.417   3.540   5.232  0.1088 -0.5718  1.3957
15312TIP3    H267352   4.543   3.492   5.303  1.4263 -1.1554 -1.2121
15313TIP3   OH267353   5.477   2.311   6.772 -0.1239 -0.5851  0.4411
15313TIP3    H167354   5.558   2.291   6.820  0.0117 -4.1700 -1.0253
15313TIP3    H267355   5.447   2.227   6.739 -3.1027  0.9983 -1.2747
15314TIP3   OH267356   3.877   3.945   0.112 -0.0062  0.0031  0.2279
15314TIP3    H167357   3.953   3.909   0.159  0.5294 -0.7707 -1.1771
15314TIP3    H267358   3.881   4.039   0.130  0.1765 -0.2576  1.7150
15315TIP3   OH267359   0.700   6.577  12.574 -0.3489  0.8565  0.5845
15315TIP3    H167360   0.784   6.603  12.536 -0.1472  0.3221  0.6505
15315TIP3    H267361   0.639   6.582  12.501  0.0851 -0.3909  0.0976
15316TIP3   OH267362   4.752   1.671   0.208  0.3488 -1.0971 -0.5860
15316TIP3    H167363   4.796   1.632   0.132  2.3056 -0.8019  0.3348
15316TIP3    H267364   4.820   1.676   0.275 -0.7240  0.7778  0.4378
15317TIP3   OH267365   3.505   2.363  11.844  0.1100  0.0935 -0.1020
15317TIP3    H167366   3.445   2.370  11.770  0.9024 -0.2969 -0.7942
15317TIP3    H267367   3.464   2.298  11.901 -0.8216  0.8535  0.1334
15318TIP3   OH267368   6.524   3.581   1.498  0.7503  0.5944  0.2077
15318TIP3    H167369   6.476   3.534   1.566  0.8481 -0.3813 -0.3892
15318TIP3    H267370   6.510   3.530   1.419  3.8371 -0.4794  0.2257
15319TIP3   OH267371   3.415   3.245   0.397  0.3473 -0.5393  0.2097
15319TIP3    H167372   3.374   3.283   0.320 -1.2183  0.5286  1.4855
15319TIP3    H267373   3.447   3.321   0.447 -0.6009 -1.0117  1.6133
15320TIP3   OH267374   6.169   4.677  15.495  0.1317  0.2104  0.4863
15320TIP3    H167375   6.119   4.619  15.552 -1.1985  0.4351 -0.4292
15320TIP3    H267376   6.256   4.637  15.492  0.2465  0.1940  2.6424
15321TIP3   OH267377   4.980   3.590   6.155 -0.4000  0.0940 -0.1310
15321TIP3    H167378   4.997   3.674   6.198 -0.6426  0.8951 -1.5232
15321TIP3    H267379   4.885   3.580   6.157 -0.3400 -0.4546  0.5426
15322TIP3   OH267380   1.023   5.116  14.225  0.4616 -0.1487 -0.1680
15322TIP3    H167381   0.986   5.170  14.155  0.4174  0.2677  0.1707
15322TIP3    H267382   0.994   5.027  14.204  0.1033  0.0305 -0.4535
15323TIP3   OH267383   3.748   2.165  16.578 -0.2053  0.2314  0.1675
15323TIP3    H167384   3.784   2.147  16.664  0.2165 -3.3011 -0.6022
15323TIP3    H267385   3.816   2.215  16.533  0.4650  0.2439  1.1687
15324TIP3   OH267386   3.883   4.482  12.075  0.3584  0.4101 -0.4258
15324TIP3    H167387   3.873   4.577  12.071  1.4535  0.5334 -0.7787
15324TIP3    H267388   3.865   4.453  11.985 -1.9883  0.0317  0.1219
15325TIP3   OH267389   0.754   4.784  15.187  0.1243  0.2968 -0.4184
15325TIP3    H167390   0.735   4.690  15.180  0.5949  0.0547  1.3132
15325TIP3    H267391   0.690   4.817  15.250  1.0192  0.8224  0.2233
15326TIP3   OH267392   1.988   0.301  14.361 -0.6799 -0.3320  0.0741
15326TIP3    H167393   1.972   0.388  14.398 -2.3697 -0.5595 -0.0495
15326TIP3    H267394   2.084   0.293  14.360 -0.4645  1.7037 -0.3306
15327TIP3   OH267395   0.941   3.092  16.084  0.2957 -0.3250  0.0276
15327TIP3    H167396   0.854   3.116  16.053  0.7500  0.4760 -0.6939
15327TIP3    H267397   0.968   3.020  16.027  1.0062  0.9436 -1.3043
15328TIP3   OH267398   1.659   1.884  13.859  0.0126  0.1714 -0.0400
15328TIP3    H167399   1.728   1.915  13.918 -0.5039 -1.1043  1.2815
15328TIP3    H267400   1.578   1.894  13.908 -0.5017 -0.3720 -0.7464
15329TIP3   OH267401   0.921   5.988   0.739  0.1786 -0.5601 -0.3178
15329TIP3    H167402   0.856   6.029   0.681  0.2372  0.2967  0.2048
15329TIP3    H267403   0.907   6.030   0.824  1.5765 -0.1780 -0.2495
15330TIP3   OH267404   0.523   4.230  16.625 -0.8233 -0.7930  0.1526
15330TIP3    H167405   0.485   4.272  16.548 -1.5778 -0.3880  0.7284
15330TIP3    H267406   0.448   4.205  16.678 -0.3054 -0.3232  1.1380
15331TIP3   OH267407   3.002   5.128  17.023  0.0569  0.1579 -0.3458
15331TIP3    H167408   3.091   5.117  17.056  0.2522 -0.2139 -0.9845
15331TIP3    H267409   2.978   5.217  17.049  0.2029 -0.1060  0.7784
15332TIP3   OH267410   0.087   4.501   2.206  0.1427  0.0341 -0.5419
15332TIP3    H167411   0.100   4.590   2.172  1.6425 -0.6705 -1.9495
15332TIP3    H267412   0.157   4.490   2.270 -1.3067  0.5494  1.2195
15333TIP3   OH267413   4.706   3.591  12.391  0.5090  0.1005 -0.4444
15333TIP3    H167414   4.650   3.663  12.363 -0.7038 -0.9048 -0.6698
15333TIP3    H267415   4.738   3.552  12.310  2.2574  1.1807 -0.3189
15334TIP3   OH267416   1.584   3.388   4.667 -0.2686 -0.1440 -0.0421
15334TIP3    H167417   1.571   3.473   4.709 -0.0184  0.0925 -0.4357
15334TIP3    H267418   1.654   3.346   4.718 -0.9635 -0.4648  0.6642
15335TIP3   OH267419   3.579   6.247  15.770 -0.0874  0.2112 -0.0468
15335TIP3    H167420   3.631   6.302  15.711 -0.5249  0.1881 -0.4612
15335TIP3    H267421   3.489   6.277  15.757 -0.1677  0.3328  0.7542
15336TIP3   OH267422   3.612   0.010  12.736 -1.0941 -0.6931 -0.5500
15336TIP3    H167423   3.536   0.050  12.695 -1.3200 -1.7793 -1.2413
15336TIP3    H267424   3.584  -0.008  12.826 -1.5977 -0.9252 -0.7507
15337TIP3   OH267425   1.532   3.227   5.511  0.1359 -0.0363  0.0161
15337TIP3    H167426   1.490   3.217   5.425  0.4353 -2.5383  0.0926
15337TIP3    H267427   1.459   3.230   5.573 -0.0434  0.1742 -0.2037
15338TIP3   OH267428   3.991   4.358  17.202  0.1531 -0.3997 -0.2067
15338TIP3    H167429   3.937   4.387  17.129 -0.0364 -0.9607 -0.2896
15338TIP3    H267430   3.977   4.264  17.207  0.0104 -0.3392  0.6827
15339TIP3   OH267431   5.911   5.915  16.937 -0.6662  0.4842 -0.3899
15339TIP3    H167432   5.818   5.924  16.959 -0.5690  0.2273  0.1541
15339TIP3    H267433   5.947   5.864  17.009  0.0616  1.2454 -0.2025
15340TIP3   OH267434   0.511   5.226  13.572 -0.1228  0.2994 -0.2889
15340TIP3    H167435   0.416   5.216  13.573 -0.0231 -0.7566 -0.4735
15340TIP3    H267436   0.539   5.209  13.662 -0.0486 -0.0486 -0.3767
15341TIP3   OH267437   2.596   1.915   1.561 -0.1225  0.6551  0.4009
15341TIP3    H167438   2.603   1.968   1.640  0.8948  0.5428  0.3960
15341TIP3    H267439   2.567   1.976   1.494  0.6185  1.1215  0.4934
15342TIP3   OH267440   1.017   4.811  14.596  0.3730 -0.1594 -0.1463
15342TIP3    H167441   1.017   4.761  14.515  0.6490  0.1354 -0.3300
15342TIP3    H267442   1.053   4.750  14.661 -2.8179 -1.5515  0.5072
15343TIP3   OH267443   1.860   5.561  11.505  0.7580 -0.0984  0.6185
15343TIP3    H167444   1.887   5.487  11.451 -0.1008 -1.2215  1.6590
15343TIP3    H267445   1.883   5.638  11.454  0.6848 -1.0997 -0.9864
15344TIP3   OH267446   1.999   6.262   4.385  0.4700  0.1540  0.8615
15344TIP3    H167447   2.080   6.302   4.417  0.1484  1.7537 -0.2022
15344TIP3    H267448   1.959   6.330   4.330 -0.2897 -1.5237 -0.7662
15345TIP3   OH267449   3.821   4.811   5.012  0.2303 -0.2998  0.2714
15345TIP3    H167450   3.912   4.800   5.040 -0.0082  2.5048  2.5974
15345TIP3    H267451   3.821   4.895   4.966 -1.5988  1.4831  3.2020
15346TIP3   OH267452   4.040   1.963   4.130  0.4384 -0.2898  0.0494
15346TIP3    H167453   4.106   2.018   4.089  1.3127  0.2906  2.1189
15346TIP3    H267454   4.004   2.017   4.200 -0.6901 -1.3743  0.3384
15347TIP3   OH267455   2.339   0.976  14.146 -0.5884  0.4604  0.1967
15347TIP3    H167456   2.386   0.968  14.229 -0.5900 -1.1152  0.0766
15347TIP3    H267457   2.342   0.888  14.108 -0.0459  1.2886 -1.7910
15348TIP3   OH267458   6.291   4.615   4.673  0.9332  0.0928  0.0196
15348TIP3    H167459   6.365   4.555   4.684  0.1370 -0.6113  1.8003
15348TIP3    H267460   6.307   4.684   4.737  0.4946  0.4268 -0.2274
15349TIP3   OH267461   0.717   6.145   5.864 -0.7192  0.5101 -0.1194
15349TIP3    H167462   0.706   6.236   5.891 -1.0130  0.3423  0.3308
15349TIP3    H267463   0.643   6.099   5.903 -0.3011 -0.0104  0.0797
15350TIP3   OH267464   2.906   3.767  11.156 -0.2818  0.8001  0.3225
15350TIP3    H167465   2.842   3.808  11.098 -1.9578 -0.8584  0.8691
15350TIP3    H267466   2.991   3.784  11.115 -1.1269  2.3039 -0.9215
15351TIP3   OH267467   3.555   3.504  15.657  0.5556 -0.4200 -0.5085
15351TIP3    H167468   3.602   3.587  15.655  1.2637 -0.7642  0.8350
15351TIP3    H267469   3.468   3.526  15.689  0.6050 -0.1283 -0.5778
15352TIP3   OH267470   1.423   4.771   4.715 -0.1092  0.1478 -0.4684
15352TIP3    H167471   1.362   4.762   4.642 -1.6837  2.8999  0.3704
15352TIP3    H267472   1.486   4.838   4.686  0.2247  0.0836  0.0890
15353TIP3   OH267473   0.456   4.710  12.838 -0.4859 -0.0913 -0.7082
15353TIP3    H167474   0.490   4.623  12.856 -0.4727 -0.1658 -1.0840
15353TIP3    H267475   0.535   4.765  12.829 -0.4817  0.5832  2.3940
15354TIP3   OH267476   6.015   0.451  13.233  0.0278 -0.4974 -0.3072
15354TIP3    H167477   5.990   0.398  13.309  1.1594 -0.6864 -0.0527
15354TIP3    H267478   5.959   0.420  13.162 -0.0892 -1.2632  0.1150
15355TIP3   OH267479   6.384   0.881   4.741  0.4484 -0.0744 -0.3753
15355TIP3    H167480   6.346   0.959   4.780 -1.1815 -0.9483 -0.1330
15355TIP3    H267481   6.423   0.834   4.815  2.8558  1.2168 -0.7339
15356TIP3   OH267482   4.702   2.457  11.312 -0.3763  0.5918  0.0852
15356TIP3    H167483   4.616   2.443  11.272 -1.1705  1.4987  1.3745
15356TIP3    H267484   4.690   2.536  11.365  0.7584 -0.2378  1.6414
15357TIP3   OH267485   0.444   1.079   3.966  0.2306  0.4755  0.6752
15357TIP3    H167486   0.479   1.146   4.025 -0.5301  0.4430  1.1864
15357TIP3    H267487   0.402   1.128   3.896  0.7418  0.5163  0.3903
15358TIP3   OH267488   5.323   0.216  14.635 -0.1491  0.2221  0.6489
15358TIP3    H167489   5.242   0.253  14.600 -0.7162 -2.2436 -0.9044
15358TIP3    H267490   5.392   0.258  14.583 -0.7061 -0.1868 -0.4616
15359TIP3   OH267491   3.358   3.641   2.480  0.5434 -0.4338  0.5050
15359TIP3    H167492   3.413   3.564   2.498  0.0365 -0.6537  1.1617
15359TIP3    H267493   3.380   3.665   2.390  0.4465 -1.5653  0.1539
15360TIP3   OH267494   3.544   2.232   3.948 -0.4271  0.3974 -0.0855
15360TIP3    H167495   3.597   2.253   3.871  0.4671 -1.3907 -0.0150
15360TIP3    H267496   3.575   2.292   4.016 -1.1748  1.9538 -1.0499
15361TIP3   OH267497   1.212   5.293   6.164 -0.0779 -0.0792  0.0586
15361TIP3    H167498   1.163   5.375   6.158  0.2802  0.3112  1.6789
15361TIP3    H267499   1.205   5.253   6.078 -0.2504  1.6766 -0.7862
15362TIP3   OH267500   1.721   0.091   3.061  0.4416  0.2494 -0.8621
15362TIP3    H167501   1.771   0.167   3.031 -0.0263  1.0059  0.2174
15362TIP3    H267502   1.633   0.104   3.026  0.4048  0.1269 -0.8160
15363TIP3   OH267503   6.255   3.042  14.769 -0.1824  0.1158  0.7163
15363TIP3    H167504   6.171   3.050  14.814  1.2565  2.2019  3.4142
15363TIP3    H267505   6.278   3.132  14.745 -0.0805 -0.7357 -2.9645
15364TIP3   OH267506   0.879   1.383   1.424 -0.5855  0.2331 -0.4588
15364TIP3    H167507   0.912   1.293   1.425 -0.9332  0.1035 -0.3118
15364TIP3    H267508   0.957   1.437   1.416 -0.2310 -0.0147  0.9919
15365TIP3   OH267509   2.611   3.421  14.154  0.0721  0.1765  0.0226
15365TIP3    H167510   2.556   3.387  14.226  0.3120  0.8247  0.5161
15365TIP3    H267511   2.676   3.352  14.140  1.0686  0.7598  1.5846
15366TIP3   OH267512   6.306   6.382  13.938 -0.0745 -0.1473 -0.1015
15366TIP3    H167513   6.336   6.369  13.848  0.1079 -2.4441  0.2208
15366TIP3    H267514   6.225   6.331  13.944 -1.1356  1.5180  0.5519
15367TIP3   OH267515   4.649   2.686  11.442 -0.4253  0.2710  0.6070
15367TIP3    H167516   4.741   2.699  11.464 -0.3786 -0.4015  0.8126
15367TIP3    H267517   4.608   2.770  11.463  0.5643  1.4621 -1.8837
15368TIP3   OH267518   3.633   3.525   4.207  0.6093 -0.1278  0.2667
15368TIP3    H167519   3.554   3.579   4.211  0.7929  0.3517 -1.5952
15368TIP3    H267520   3.689   3.559   4.276 -0.4088  0.1857  0.9542
15369TIP3   OH267521   5.044   2.516  13.504 -0.4727  0.1151  0.2896
15369TIP3    H167522   5.071   2.572  13.577 -1.8677 -0.3234  1.1655
15369TIP3    H267523   5.065   2.568  13.425  1.0377  0.5992  0.9638
15370TIP3   OH267524   5.510   6.186   1.157 -0.5895 -0.1070  0.0170
15370TIP3    H167525   5.467   6.119   1.210 -0.6953  1.1251  1.5618
15370TIP3    H267526   5.598   6.192   1.194 -0.2800 -0.0404 -0.7250
15371TIP3   OH267527   6.004   0.984  12.261 -0.4269 -0.2245 -0.3140
15371TIP3    H167528   6.009   0.895  12.227 -1.3765  0.5150 -2.6017
15371TIP3    H267529   5.910   1.003  12.267 -0.2443  0.9268 -0.7865
15372TIP3   OH267530   0.341   6.455  14.060 -0.6580 -0.2938  0.2428
15372TIP3    H167531   0.313   6.530  14.008 -0.7017 -0.6370 -0.2387
15372TIP3    H267532   0.321   6.379  14.005 -0.1966 -0.6316  0.5320
15373TIP3   OH267533   2.970   5.495   4.990 -0.2779  0.0645  0.1774
15373TIP3    H167534   2.908   5.557   4.951 -0.3651  0.7000  1.2784
15373TIP3    H267535   3.051   5.508   4.941 -0.7484 -0.1237 -0.6717
15374TIP3   OH267536   2.833   0.224  11.060 -0.2036  0.3936  0.2727
15374TIP3    H167537   2.832   0.150  11.121 -1.6500  0.3838  0.2727
15374TIP3    H267538   2.820   0.184  10.974  2.4140  0.3453 -0.1950
15375TIP3   OH267539   0.184   0.719  15.439  0.2456  0.0107  0.2573
15375TIP3    H167540   0.201   0.726  15.532  0.5344 -0.7828  0.2721
15375TIP3    H267541   0.201   0.806  15.404 -3.0869  1.3193  1.4286
15376TIP3   OH267542   1.441   5.170   1.808  0.6927 -0.0378  0.3767
15376TIP3    H167543   1.484   5.146   1.890  0.7416 -2.8353 -0.3658
15376TIP3    H267544   1.348   5.155   1.824  0.2816  2.4475  0.8106
15377TIP3   OH267545   3.497   3.809   3.691 -0.4012  0.5185 -0.3001
15377TIP3    H167546   3.560   3.749   3.651 -2.3213 -1.1280 -1.0251
15377TIP3    H267547   3.550   3.883   3.722  1.9340 -1.0815 -0.2630
15378TIP3   OH267548   5.547   4.204  14.341  0.1627 -0.2038  0.2246
15378TIP3    H167549   5.523   4.218  14.432  0.0840 -1.4774  0.4184
15378TIP3    H267550   5.552   4.292  14.303  0.5524  0.3606  1.5388
15379TIP3   OH267551   1.777   4.432  11.178  0.6452 -0.0111  0.0558
15379TIP3    H167552   1.862   4.466  11.149  1.0265 -0.9387  0.0491
15379TIP3    H267553   1.798   4.375  11.253 -0.0444  0.2868  0.4862
15380TIP3   OH267554   2.060   6.769  15.243  0.2137  0.2147 -0.5339
15380TIP3    H167555   2.004   6.834  15.284 -3.2470 -2.5437 -0.4000
15380TIP3    H267556   2.044   6.779  15.149  0.9098  0.5443 -0.6233
15381TIP3   OH267557   3.608   2.081   3.022 -0.3045 -0.1082  0.3308
15381TIP3    H167558   3.621   2.111   2.932 -0.2380 -0.8393  0.0878
15381TIP3    H267559   3.572   2.156   3.068 -0.6029  0.1843 -0.3780
15382TIP3   OH267560   2.360   1.669   5.450  0.1875  0.3185  0.4182
15382TIP3    H167561   2.273   1.694   5.417  0.2624  1.3644  0.9630
15382TIP3    H267562   2.411   1.750   5.447  0.7725 -0.0021  1.2701
15383TIP3   OH267563   3.705   1.488  16.792  0.1432  0.1318 -0.6847
15383TIP3    H167564   3.686   1.545  16.867  0.6388 -2.2145  1.3501
15383TIP3    H267565   3.800   1.478  16.793  0.0545 -0.7642 -0.9854
15384TIP3   OH267566   1.260   4.682  17.265  0.0739  0.0013 -0.2966
15384TIP3    H167567   1.242   4.689  17.171 -0.1736  0.8894 -0.1897
15384TIP3    H267568   1.261   4.772  17.297  0.2619 -0.2825  0.5373
15385TIP3   OH267569   0.540   2.919   5.422  0.1797  0.2387 -0.2078
15385TIP3    H167570   0.563   2.921   5.515 -0.1458  0.1355 -0.1226
15385TIP3    H267571   0.622   2.938   5.377  0.8790 -1.9411  0.0151
15386TIP3   OH267572   4.402   6.054   2.098 -0.2614  0.0851  0.3278
15386TIP3    H167573   4.459   6.063   2.022 -1.2626  0.5872 -0.3885
15386TIP3    H267574   4.379   6.143   2.122  1.5589  0.0542  2.4479
15387TIP3   OH267575   2.709   6.609   2.129  0.6510 -0.2528  0.2680
15387TIP3    H167576   2.725   6.515   2.136  0.1893 -0.2334  1.9458
15387TIP3    H267577   2.755   6.647   2.203 -0.6163  0.6463  0.6300
15388TIP3   OH267578   5.053   0.276   2.515  0.0716  0.2600  0.2761
15388TIP3    H167579   5.009   0.193   2.537 -1.0870  1.0648  1.1347
15388TIP3    H267580   4.982   0.335   2.491  0.8415  1.1452  0.1250
15389TIP3   OH267581   2.225   2.935  12.854  0.1459 -0.2733 -0.0031
15389TIP3    H167582   2.205   2.846  12.883  0.4832 -1.2716 -2.5977
15389TIP3    H267583   2.308   2.956  12.897  1.8471 -2.5971 -1.8882
15390TIP3   OH267584   1.723   5.839  15.342  0.2563 -0.6519 -0.3046
15390TIP3    H167585   1.713   5.930  15.312  1.5073 -1.2024 -2.5549
15390TIP3    H267586   1.638   5.799  15.323 -0.0437 -0.1721 -0.0222
15391TIP3   OH267587   2.577   6.432  15.486  0.8924  0.4966  0.1981
15391TIP3    H167588   2.604   6.385  15.407 -1.0080  1.1161 -0.8914
15391TIP3    H267589   2.597   6.372  15.558  0.9187 -0.8893 -0.9161
15392TIP3   OH267590   1.261   4.458  15.267  0.6122  0.8953 -0.0325
15392TIP3    H167591   1.217   4.383  15.226  2.8259 -0.3689 -0.2437
15392TIP3    H267592   1.295   4.509  15.194 -1.8036  2.8243  0.0547
15393TIP3   OH267593   2.476   5.832  15.133 -0.5483 -0.6545 -0.0772
15393TIP3    H167594   2.449   5.763  15.073  0.5836 -0.1289 -1.2524
15393TIP3    H267595   2.497   5.907  15.076 -1.6866  0.6518  1.1371
15394TIP3   OH267596   2.550   6.281  10.736  0.3007  0.8441  0.3878
15394TIP3    H167597   2.615   6.349  10.754 -1.0739  2.1146  0.8413
15394TIP3    H267598   2.548   6.274  10.641  2.2655 -0.4565  0.3840
15395TIP3   OH267599   1.499   1.857  16.331 -0.0521 -0.1611 -0.3410
15395TIP3    H167600   1.535   1.772  16.306  1.3872  0.9059 -2.1389
15395TIP3    H267601   1.449   1.886  16.255 -3.7634 -0.9486  1.5731
15396TIP3   OH267602   3.246   2.740   3.986  0.1108 -1.0475  0.0298
15396TIP3    H167603   3.299   2.712   3.911 -1.0364 -1.0592 -0.8166
15396TIP3    H267604   3.157   2.748   3.950 -0.3775 -0.5837  1.2876
15397TIP3   OH267605   5.319   1.629   3.533  0.4351 -0.4447  0.2504
15397TIP3    H167606   5.225   1.637   3.517  0.6481 -0.4780 -1.1212
15397TIP3    H267607   5.325   1.571   3.609 -0.6436 -0.4058  0.3865
15398TIP3   OH267608   4.141   2.383   3.906 -0.3037 -0.3717 -0.4025
15398TIP3    H167609   4.145   2.437   3.827 -0.2638 -0.4617 -0.4631
15398TIP3    H267610   4.157   2.443   3.978 -0.6542 -0.2311 -0.4419
15399TIP3   OH267611   1.118   2.370  14.820 -0.0609  0.1434 -0.2500
15399TIP3    H167612   1.023   2.379  14.817 -0.0269  0.4943 -0.2757
15399TIP3    H267613   1.152   2.447  14.775  0.2258 -0.4165 -1.0323
15400TIP3   OH267614   1.247   5.677  14.429 -0.8738 -0.4420  0.5310
15400TIP3    H167615   1.210   5.603  14.477  0.6280 -3.2252 -2.1824
15400TIP3    H267616   1.174   5.738  14.419 -2.4347 -1.8995  2.2768
15401TIP3   OH267617   3.692   2.394  14.222  0.3469  0.6111  0.1036
15401TIP3    H167618   3.636   2.472  14.215 -0.5072 -0.1325 -1.9312
15401TIP3    H267619   3.631   2.321  14.230  1.0487 -0.1023 -0.8132
15402TIP3   OH267620   3.884   0.460   2.764 -0.7390  0.1733  0.2831
15402TIP3    H167621   3.979   0.447   2.764 -0.8328 -0.6097  0.2402
15402TIP3    H267622   3.872   0.554   2.773 -0.0128  0.0685  3.4532
15403TIP3   OH267623   3.751   2.944  15.253 -0.1773 -0.5282 -0.2357
15403TIP3    H167624   3.669   2.926  15.207 -0.8875 -0.3434  0.8917
15403TIP3    H267625   3.766   3.037  15.241 -0.7878 -0.3193  0.5391
15404TIP3   OH267626   1.933   6.039   2.878 -0.2806 -0.2183  0.9198
15404TIP3    H167627   2.013   5.991   2.856  0.4361  1.0469  0.6739
15404TIP3    H267628   1.914   6.092   2.800 -1.1301 -0.1998  1.1278
15405TIP3   OH267629   5.151   3.287  17.123  0.3304  0.3555  0.4677
15405TIP3    H167630   5.153   3.324  17.034 -2.3952 -0.1424  0.1130
15405TIP3    H267631   5.101   3.351  17.174 -1.6446 -1.2277  0.6173
15406TIP3   OH267632   1.696   5.277   1.208 -0.1789 -0.1448  0.4095
15406TIP3    H167633   1.771   5.334   1.224  0.1656 -0.5835  0.3733
15406TIP3    H267634   1.654   5.267   1.293 -1.2226  1.5143  0.1261
15407TIP3   OH267635   3.354   2.834   5.174  0.3446  0.0609 -0.2312
15407TIP3    H167636   3.349   2.864   5.083 -0.5245 -1.4801 -0.7269
15407TIP3    H267637   3.340   2.913   5.226  1.0840  1.0066 -1.4207
15408TIP3   OH267638   3.355   0.720   2.539 -0.5259  0.4980 -0.2473
15408TIP3    H167639   3.328   0.805   2.573 -0.1986  0.8060 -0.7509
15408TIP3    H267640   3.273   0.671   2.532 -0.7855  0.9502 -0.4556
15409TIP3   OH267641   1.634   0.773   3.673 -0.1231 -0.7809  0.3175
15409TIP3    H167642   1.650   0.857   3.631 -0.2606 -0.9650 -0.1129
15409TIP3    H267643   1.539   0.766   3.678 -0.1131 -0.9310  0.3032
15410TIP3   OH267644   2.790   3.578   1.686 -0.2441  0.3807  0.0565
15410TIP3    H167645   2.789   3.609   1.595  2.4957  0.6704  0.0309
15410TIP3    H267646   2.874   3.610   1.721 -0.5016 -1.0932  2.2023
15411TIP3   OH267647   0.704   3.231  15.970  0.5686  0.0063 -0.9613
15411TIP3    H167648   0.664   3.145  15.964  2.0155 -0.6306 -2.2139
15411TIP3    H267649   0.637   3.291  15.939 -0.5181 -0.6380  0.0889
15412TIP3   OH267650   4.723   2.539  14.875 -0.2451  0.2047  0.2578
15412TIP3    H167651   4.724   2.450  14.908  0.5298 -0.2828 -1.0296
15412TIP3    H267652   4.812   2.555  14.844 -0.1440  1.7173  1.1800
15413TIP3   OH267653   6.419   0.987  13.314  0.4511 -0.2436  0.6267
15413TIP3    H167654   6.438   0.973  13.221 -1.2448 -2.1039  0.4737
15413TIP3    H267655   6.326   0.967  13.322  0.5163  0.0736  2.7180
15414TIP3   OH267656   5.717   1.807   1.855  0.5378  0.5988  0.1318
15414TIP3    H167657   5.805   1.842   1.843  0.1189  1.2229 -1.2930
15414TIP3    H267658   5.690   1.779   1.767 -0.4394 -0.1922  0.6628
15415TIP3   OH267659   3.355   5.529   5.146 -0.4339 -0.0997  0.2825
15415TIP3    H167660   3.384   5.607   5.098  1.3272  0.1440  1.6477
15415TIP3    H267661   3.302   5.563   5.218  0.1260 -0.1773  0.7324
15416TIP3   OH267662   5.628   5.492   5.396  0.4167 -0.0439  0.3114
15416TIP3    H167663   5.717   5.527   5.389 -0.1114  0.9806 -3.1066
15416TIP3    H267664   5.578   5.560   5.440  0.8363  0.5156 -0.0648
15417TIP3   OH267665   0.642   5.022  15.696  0.2309 -0.1098  0.0513
15417TIP3    H167666   0.664   5.073  15.618 -0.1639  0.0899  0.0671
15417TIP3    H267667   0.572   5.072  15.738 -0.2033 -0.6922  0.0319
15418TIP3   OH267668   2.424   5.067   5.430 -0.3934  0.3123  0.3091
15418TIP3    H167669   2.465   5.012   5.363  0.2148  1.5585 -0.3664
15418TIP3    H267670   2.468   5.152   5.422 -0.3121  0.4974  2.2863
15419TIP3   OH267671   2.581   5.140   0.741  0.4199 -0.5707  0.0928
15419TIP3    H167672   2.533   5.071   0.787 -0.2987  0.5993  1.1730
15419TIP3    H267673   2.515   5.182   0.686  0.6755 -0.2369  0.0422
15420TIP3   OH267674   4.535   4.112   6.214 -0.9631  0.0830 -0.0858
15420TIP3    H167675   4.578   4.191   6.248 -0.4771  0.3169 -1.2223
15420TIP3    H267676   4.454   4.144   6.175 -1.7663 -0.2486  1.2477
15421TIP3   OH267677   0.880   0.384   1.876  0.1144 -0.5549  0.0474
15421TIP3    H167678   0.926   0.433   1.944 -1.2759 -2.0722  2.2051
15421TIP3    H267679   0.903   0.292   1.894 -0.6367 -1.0309 -1.2878
15422TIP3   OH267680   3.572   0.044   1.877  0.2766  0.1632  0.4351
15422TIP3    H167681   3.490   0.018   1.834  0.9415  0.6131 -1.1632
15422TIP3    H267682   3.617  -0.038   1.894  0.8274  0.0244 -1.4676
15423TIP3   OH267683   4.297   0.870   4.076  0.0639  0.3354  0.7897
15423TIP3    H167684   4.352   0.813   4.022 -0.0826  2.0892 -1.3404
15423TIP3    H267685   4.216   0.880   4.026 -1.1748 -0.0278  2.6025
15424TIP3   OH267686   6.372   4.569   0.453  0.0008 -0.2303 -0.5436
15424TIP3    H167687   6.283   4.592   0.481 -0.7508 -2.4090 -0.9639
15424TIP3    H267688   6.429   4.627   0.504 -1.5972  0.2253  0.8076
15425TIP3   OH267689   0.666   4.450  14.369  0.3712 -0.8217  0.9094
15425TIP3    H167690   0.696   4.539  14.388 -0.8861 -0.4150  1.1108
15425TIP3    H267691   0.732   4.414  14.310  0.4668  0.5447  0.1422
15426TIP3   OH267692   4.780   2.376  11.921 -0.1237  0.0148 -0.0924
15426TIP3    H167693   4.764   2.290  11.882  1.3471  0.7089 -2.4497
15426TIP3    H267694   4.869   2.372  11.954 -0.5473  0.2099  1.1434
15427TIP3   OH267695   0.874   4.325  14.185  0.2470  0.2566 -0.5751
15427TIP3    H167696   0.842   4.284  14.105  0.6137 -1.1736 -0.0170
15427TIP3    H267697   0.901   4.252  14.241  0.3985  1.2413  0.6895
15428TIP3   OH267698   2.681   2.316  16.160 -0.0336 -0.0178  0.4405
15428TIP3    H167699   2.637   2.244  16.116 -2.7451  0.2831  2.4556
15428TIP3    H267700   2.722   2.277  16.237  2.4652 -0.0911 -0.8165
15429TIP3   OH267701   2.254   3.006   5.564  0.0297  0.7723  0.3022
15429TIP3    H167702   2.277   2.919   5.532 -0.5759  0.7998 -0.2310
15429TIP3    H267703   2.179   3.032   5.510  1.1410  2.2423 -0.6060
15430TIP3   OH267704   3.262   1.989  16.644  0.4768 -0.3411  0.0810
15430TIP3    H167705   3.281   2.010  16.552  0.8633  0.0637  0.2499
15430TIP3    H267706   3.344   1.952  16.677  0.0993 -1.2224  0.0554
15431TIP3   OH267707   1.711   2.422  17.172  0.8988  0.1726  0.4019
15431TIP3    H167708   1.799   2.398  17.201  1.6685  2.0760 -0.2027
15431TIP3    H267709   1.719   2.437  17.078  0.0711  0.9410  0.4381
15432TIP3   OH267710   4.386   3.546  15.054  0.5296 -0.2007 -0.6648
15432TIP3    H167711   4.381   3.465  15.002  0.9855  0.4926 -1.8316
15432TIP3    H267712   4.427   3.519  15.136 -3.3638 -2.0436  0.9422
15433TIP3   OH267713   0.373   6.241   2.922  0.5759  0.4554 -0.3143
15433TIP3    H167714   0.360   6.278   2.835  1.6028  2.2005  0.2104
15433TIP3    H267715   0.465   6.258   2.942  1.2439 -2.8247 -0.1401
15434TIP3   OH267716   2.739   5.925   1.521  0.5452 -0.7159 -0.1476
15434TIP3    H167717   2.718   5.855   1.459  1.6619 -0.4854 -0.8218
15434TIP3    H267718   2.798   5.883   1.584 -2.0513 -1.4734  1.9706
15435TIP3   OH267719   1.616   3.341   1.623  0.5162 -0.3934  0.3223
15435TIP3    H167720   1.664   3.263   1.597 -1.2633 -1.0962 -1.1143
15435TIP3    H267721   1.526   3.310   1.636 -0.4703  1.5214 -1.3078
15436TIP3   OH267722   1.725   2.657   0.107  0.6075  0.0872  0.6047
15436TIP3    H167723   1.689   2.715   0.174 -0.6016 -0.3401  0.3489
15436TIP3    H267724   1.667   2.667   0.032  1.5920  0.1007 -0.1864
15437TIP3   OH267725   5.988   4.451   2.758  0.1509 -0.0759  0.0888
15437TIP3    H167726   6.023   4.410   2.680  1.9311  1.4039  0.0514
15437TIP3    H267727   5.917   4.393   2.786 -0.4036 -0.7353 -2.4745
15438TIP3   OH267728   2.633   1.521   2.479  0.1543  0.1378 -0.3320
15438TIP3    H167729   2.541   1.526   2.453  0.0900 -0.9420 -0.3479
15438TIP3    H267730   2.630   1.510   2.574  0.3188  1.4088 -0.1590
15439TIP3   OH267731   2.921   2.354   1.943 -0.0384 -0.3161  0.1061
15439TIP3    H167732   2.985   2.300   1.990 -0.5237 -0.4899  0.5779
15439TIP3    H267733   2.970   2.432   1.918  0.3828 -0.4836  0.3910
15440TIP3   OH267734   4.499   5.033  15.457 -0.1175  0.5155 -0.1590
15440TIP3    H167735   4.581   5.066  15.494 -0.5379  2.6500 -1.0155
15440TIP3    H267736   4.434   5.046  15.527 -0.1269  0.7542 -0.2125
15441TIP3   OH267737   2.790   3.682   6.502 -0.0648  0.8038  0.3062
15441TIP3    H167738   2.764   3.654   6.589 -3.0124  1.5732 -0.2107
15441TIP3    H267739   2.791   3.602   6.450 -2.2331  0.7766  0.2232
15442TIP3   OH267740   1.256   2.529  14.997 -0.2794 -0.1255 -0.2407
15442TIP3    H167741   1.164   2.552  14.984 -0.3970 -1.5592 -2.3599
15442TIP3    H267742   1.253   2.447  15.047 -0.0695  0.4725  0.7954
15443TIP3   OH267743   5.999   6.196   4.986  0.8491  0.8748 -0.2083
15443TIP3    H167744   5.962   6.237   4.908 -0.1837 -2.1983 -1.4707
15443TIP3    H267745   6.041   6.116   4.954  0.6058 -0.3643  2.3260
15444TIP3   OH267746   6.657   1.968  14.960  0.0931 -0.0131  0.5927
15444TIP3    H167747   6.674   1.878  14.934 -0.7440 -0.0451  0.1111
15444TIP3    H267748   6.570   1.987  14.926  0.4014  1.1027  0.3691
15445TIP3   OH267749   1.080   0.924  11.219 -0.1852  0.2742  0.5331
15445TIP3    H167750   1.113   0.834  11.218 -2.6167 -0.7275  1.9928
15445TIP3    H267751   1.086   0.950  11.311 -2.1203  0.4964  0.6346
15446TIP3   OH267752   0.959   3.347  12.075 -0.1815 -0.3085 -0.4370
15446TIP3    H167753   0.936   3.433  12.111 -1.0197 -0.9380  0.5773
15446TIP3    H267754   1.035   3.365  12.019 -1.1802  1.3112 -1.3620
15447TIP3   OH267755   6.719   3.674   6.333 -0.1728  0.1182  0.4178
15447TIP3    H167756   6.760   3.635   6.410  0.6747 -0.6846 -0.4100
15447TIP3    H267757   6.629   3.643   6.335  0.1626 -0.8750  0.4522
15448TIP3   OH267758   1.194   4.820  14.156 -0.4596 -0.4278  0.4152
15448TIP3    H167759   1.200   4.746  14.095 -1.2500 -1.1854  1.2288
15448TIP3    H267760   1.213   4.897  14.102 -0.5292 -1.1414 -0.6505
15449TIP3   OH267761   5.141   3.831  11.448 -0.4088  0.5469 -0.1018
15449TIP3    H167762   5.140   3.854  11.355  2.0419  1.9695  0.1223
15449TIP3    H267763   5.232   3.806  11.465 -0.7029  0.7608  2.0133
15450TIP3   OH267764   1.008   4.418  13.738 -0.1964  0.4142 -0.3149
15450TIP3    H167765   0.915   4.439  13.746 -0.0591  1.0437 -0.3195
15450TIP3    H267766   1.037   4.408  13.829 -0.1137  0.9304 -0.2811
15451TIP3   OH267767   2.372   0.270   1.037 -1.1375 -0.5383  0.7328
15451TIP3    H167768   2.441   0.207   1.015 -1.3352 -0.9900  1.3870
15451TIP3    H267769   2.297   0.216   1.061 -1.2023 -0.0691  1.6422
15452TIP3   OH267770   2.436   4.441  14.820  0.3115 -0.2877 -0.0123
15452TIP3    H167771   2.385   4.506  14.868  1.3541  0.8531 -0.3841
15452TIP3    H267772   2.524   4.479  14.815  0.7245 -1.3213 -1.0223
15453TIP3   OH267773   4.318   2.261   0.217 -0.5132  0.6367 -0.2934
15453TIP3    H167774   4.311   2.194   0.285 -1.9323  0.2564 -0.7770
15453TIP3    H267775   4.397   2.238   0.168 -1.3107 -1.0918 -0.8368
15454TIP3   OH267776   5.510   3.524  16.098 -0.0914 -0.1564  0.3427
15454TIP3    H167777   5.426   3.500  16.057  0.6415 -3.0713  0.2895
15454TIP3    H267778   5.493   3.515  16.192  0.1820 -0.9744  0.3240
15455TIP3   OH267779   1.279   3.899  10.785 -0.4963  0.2654  0.6940
15455TIP3    H167780   1.273   3.815  10.739  2.0226 -0.1440  0.9866
15455TIP3    H267781   1.287   3.876  10.877  2.6308  0.5678  0.6217
15456TIP3   OH267782   3.387   5.794  17.262  0.3018  0.4621  0.1890
15456TIP3    H167783   3.388   5.755  17.175  2.0244  2.5502 -0.7962
15456TIP3    H267784   3.375   5.888  17.247  0.5874  0.8741  2.2126
15457TIP3   OH267785   2.472   2.452   6.735  0.0653 -0.3516  0.5975
15457TIP3    H167786   2.426   2.482   6.657  1.1689  1.1388  0.4637
15457TIP3    H267787   2.449   2.360   6.743 -1.0453 -0.2265 -0.7741
15458TIP3   OH267788   2.567   6.503  17.021  0.0025  0.2315 -0.1561
15458TIP3    H167789   2.651   6.536  17.055  0.3099  1.9608 -2.3393
15458TIP3    H267790   2.589   6.421  16.978  0.1976 -0.2855  0.8978
15459TIP3   OH267791   3.034   5.725  15.403 -0.5639 -0.3879  0.4817
15459TIP3    H167792   3.059   5.634  15.386  0.5061 -0.3311  1.6081
15459TIP3    H267793   3.081   5.748  15.483 -0.5672  1.2692  0.0351
15460TIP3   OH267794   4.645   6.739  13.177  0.2082 -1.0146  0.4360
15460TIP3    H167795   4.646   6.833  13.158  1.3285 -0.9988  0.4999
15460TIP3    H267796   4.625   6.733  13.271  1.8809 -0.7310  0.8421
15461TIP3   OH267797   3.560   3.588   3.558  0.2094 -0.4766 -0.0945
15461TIP3    H167798   3.490   3.597   3.624  1.4959  1.0273  1.1331
15461TIP3    H267799   3.519   3.615   3.476 -1.1434 -1.3668  0.2584
15462TIP3   OH267800   2.317   6.498  11.434 -0.3165 -0.4015 -0.2289
15462TIP3    H167801   2.339   6.408  11.412 -0.6857 -0.6785  0.5030
15462TIP3    H267802   2.348   6.550  11.359  0.1065 -1.1047 -0.5454
15463TIP3   OH267803   6.254   3.031  13.101 -0.8835  0.5386  0.5619
15463TIP3    H167804   6.249   2.957  13.040 -2.0997  0.6630  0.4752
15463TIP3    H267805   6.196   3.006  13.172  0.6607  0.3199  1.7935
15464TIP3   OH267806   4.923   1.046   0.480 -0.5329  0.8660 -0.0014
15464TIP3    H167807   4.908   0.964   0.432  2.1740 -0.5428  1.2917
15464TIP3    H267808   5.007   1.032   0.524 -1.1433  3.4543  2.2194
15465TIP3   OH267809   4.189   0.916  16.240 -0.1265  1.1707 -0.1885
15465TIP3    H167810   4.112   0.869  16.205  1.3836  0.5424 -2.9392
15465TIP3    H267811   4.174   1.007  16.216  0.3859  0.9018 -1.6433
15466TIP3   OH267812   2.117   4.116   2.071 -0.2426 -0.2603  0.6560
15466TIP3    H167813   2.125   4.088   2.162  0.2386  0.6465  0.9128
15466TIP3    H267814   2.023   4.131   2.059 -0.1562  1.2586  1.5463
15467TIP3   OH267815   2.382   6.696  14.049  0.0715  0.2000 -0.2009
15467TIP3    H167816   2.454   6.719  13.991  0.1313  0.1623 -0.1404
15467TIP3    H267817   2.385   6.601  14.055  0.7153  0.2693  0.7106
15468TIP3   OH267818   5.361   0.524  17.292 -0.0717 -0.0939 -0.3553
15468TIP3    H167819   5.430   0.466  17.260  0.2477  0.4327 -0.6384
15468TIP3    H267820   5.386   0.544  17.382 -0.0058 -0.1301 -0.3655
15469TIP3   OH267821   1.109   0.651  14.099 -0.1162  0.0023 -0.5815
15469TIP3    H167822   1.061   0.596  14.161 -0.7128  0.7903 -0.3383
15469TIP3    H267823   1.195   0.662  14.139 -0.0801 -0.5250 -0.5017
15470TIP3   OH267824   3.212   4.105   6.093 -0.1400  0.4551 -0.1124
15470TIP3    H167825   3.146   4.060   6.040 -0.2172 -1.1993  1.3024
15470TIP3    H267826   3.294   4.093   6.045 -0.2173 -0.9548  0.0705
15471TIP3   OH267827   2.630   0.983  15.287  0.0767 -0.1412  0.1516
15471TIP3    H167828   2.580   1.014  15.212 -0.5321 -0.2865  0.4942
15471TIP3    H267829   2.718   1.019  15.273 -0.2270  0.4715 -0.2331
15472TIP3   OH267830   3.707   4.812  15.912  0.0337 -0.4290 -0.4237
15472TIP3    H167831   3.640   4.752  15.879  1.2274 -1.3605 -1.2187
15472TIP3    H267832   3.671   4.899  15.894 -1.3849 -0.8778  0.0671
15473TIP3   OH267833   4.124   3.827  14.128  0.8526 -0.7987  0.0847
15473TIP3    H167834   4.167   3.754  14.084  1.3904 -0.1181 -0.5551
15473TIP3    H267835   4.033   3.823  14.098  0.3003 -2.5333  1.8228
15474TIP3   OH267836   1.404   0.125   4.085 -0.3244 -0.1896 -0.4404
15474TIP3    H167837   1.390   0.194   4.150 -0.4368  0.5537 -1.2320
15474TIP3    H267838   1.405   0.044   4.136  0.5904  0.4558  0.6164
15475TIP3   OH267839   2.262   5.054   1.110  0.3877 -0.0453 -0.0560
15475TIP3    H167840   2.167   5.053   1.119  0.3711 -1.2515 -0.0942
15475TIP3    H267841   2.294   5.015   1.192  1.0366  3.1176  1.3168
15476TIP3   OH267842   5.777   2.564  14.596 -0.0670  0.0699 -0.1566
15476TIP3    H167843   5.819   2.480  14.574  1.5513  1.6907 -4.3131
15476TIP3    H267844   5.690   2.559  14.556 -0.7456 -0.2392  1.2797
15477TIP3   OH267845   5.216   6.651  15.961 -0.4151  0.0371  0.5340
15477TIP3    H167846   5.175   6.697  15.887  0.5149  1.2178  0.7309
15477TIP3    H267847   5.304   6.629  15.930 -0.6174 -1.0464  0.6843
15478TIP3   OH267848   4.035   5.203   4.039  0.2089  0.1022  0.2726
15478TIP3    H167849   3.947   5.231   4.013  0.3796  0.7704  0.4068
15478TIP3    H267850   4.027   5.182   4.132  0.1904  0.1628  0.2849
15479TIP3   OH267851   5.462   4.981   4.112  0.3282  0.1934 -0.2797
15479TIP3    H167852   5.408   5.038   4.057  0.3088  1.3828  0.9361
15479TIP3    H267853   5.470   4.900   4.061 -1.7716  0.3313 -0.9403
15480TIP3   OH267854   3.074   6.006   4.835  0.3328  0.1453  0.3550
15480TIP3    H167855   3.147   5.989   4.894 -0.7480 -1.3104  1.3515
15480TIP3    H267856   3.089   6.095   4.802  2.5684 -0.1578  0.4566
15481TIP3   OH267857   1.385   0.822   5.263 -0.2375 -0.2457  0.0062
15481TIP3    H167858   1.351   0.831   5.353 -1.2025 -0.6711 -0.2989
15481TIP3    H267859   1.324   0.874   5.210  1.2213  1.3005 -0.2342
15482TIP3   OH267860   4.395   3.055  11.810 -0.0093  0.6835 -0.3926
15482TIP3    H167861   4.300   3.068  11.799 -0.3531 -0.7866  0.5109
15482TIP3    H267862   4.422   3.124  11.870 -0.2829  1.7912 -1.5160
15483TIP3   OH267863   4.765   4.351   0.468  0.3683 -0.2457 -0.8289
15483TIP3    H167864   4.802   4.286   0.409 -1.3672  0.3729 -2.6773
15483TIP3    H267865   4.836   4.414   0.481  1.1118 -0.9413 -1.4043
15484TIP3   OH267866   4.265   3.608  11.300  0.0809  0.4801 -0.3420
15484TIP3    H167867   4.192   3.654  11.341  0.3840  1.4022 -0.8091
15484TIP3    H267868   4.258   3.630  11.207  1.2316  0.9975 -0.3245
15485TIP3   OH267869   6.226   4.054   6.481 -0.1151  0.2382  0.3081
15485TIP3    H167870   6.159   4.026   6.418  0.6215  0.8366 -0.7764
15485TIP3    H267871   6.270   3.973   6.506 -0.1295  0.0396 -0.2890
15486TIP3   OH267872   4.085   4.560  15.470 -0.1671  0.2027 -0.0785
15486TIP3    H167873   4.011   4.564  15.530  0.3262  0.7221  0.5012
15486TIP3    H267874   4.051   4.595  15.388 -0.6064  0.2818  0.1368
15487TIP3   OH267875   6.611   2.207  12.222  0.0952  0.2271 -0.3376
15487TIP3    H167876   6.665   2.240  12.294  1.6616 -1.9306 -0.4062
15487TIP3    H267877   6.636   2.260  12.147 -0.2367  1.3317  0.3162
15488TIP3   OH267878   2.279   1.945  13.056  0.5542 -0.4897 -0.3003
15488TIP3    H167879   2.348   1.888  13.021 -0.6620 -3.2627  1.4904
15488TIP3    H267880   2.198   1.899  13.039 -0.6172  1.2045  0.3723
15489TIP3   OH267881   4.382   6.698  15.138 -0.4425 -0.3055 -0.3951
15489TIP3    H167882   4.420   6.675  15.223  1.1190  0.7911 -0.7650
15489TIP3    H267883   4.287   6.698  15.154 -0.2351 -1.1255  1.0701
15490TIP3   OH267884   0.499   5.418   2.710  0.1474  0.3447  0.4428
15490TIP3    H167885   0.547   5.453   2.784 -0.0341  1.7350 -0.0512
15490TIP3    H267886   0.563   5.414   2.639  0.1519 -0.3076  0.4774
15491TIP3   OH267887   3.902   5.987  11.371  0.7002 -0.4037  0.4881
15491TIP3    H167888   3.809   5.968  11.386  0.1963  1.9614  0.7060
15491TIP3    H267889   3.930   6.034  11.449  1.2381  1.5507 -0.8241
15492TIP3   OH267890   3.973   2.527   5.313 -0.2976 -0.1542  0.0644
15492TIP3    H167891   4.059   2.560   5.337 -0.5245  0.4460  0.0687
15492TIP3    H267892   3.945   2.582   5.239 -0.7122 -0.2881  0.1152
15493TIP3   OH267893   1.615   0.183   2.686 -0.2803  0.3353  0.0544
15493TIP3    H167894   1.586   0.274   2.686 -0.5204  0.2864 -1.3198
15493TIP3    H267895   1.577   0.145   2.765 -0.8351  1.2269  0.2291
15494TIP3   OH267896   4.208   0.842   6.124 -0.3284 -0.2541  0.1191
15494TIP3    H167897   4.125   0.889   6.135 -0.1790 -0.1932  1.0720
15494TIP3    H267898   4.185   0.750   6.132 -0.5417 -0.3416 -1.2404
15495TIP3   OH267899   2.312   1.649   3.957  0.0697  0.3207  0.1621
15495TIP3    H167900   2.383   1.648   4.020 -0.5518  1.2092  0.8967
15495TIP3    H267901   2.232   1.657   4.010 -0.4299  1.5730 -0.7413
15496TIP3   OH267902   4.214   3.563   1.701  0.2382 -0.5171 -0.3043
15496TIP3    H167903   4.296   3.539   1.659 -0.1561 -0.7239 -0.9557
15496TIP3    H267904   4.147   3.511   1.657 -0.2749 -0.1999  0.0817
15497TIP3   OH267905   6.141   5.653   1.659 -0.6795  1.0641 -0.0752
15497TIP3    H167906   6.221   5.706   1.657 -0.8076  1.3450  1.2937
15497TIP3    H267907   6.072   5.711   1.626 -0.6805  1.4972  0.6846
15498TIP3   OH267908   2.962   6.149  15.594  0.1299  0.3196 -0.3460
15498TIP3    H167909   2.903   6.148  15.519  0.8866  1.3218 -0.9682
15498TIP3    H267910   3.042   6.189  15.562  0.3530  1.0877  1.0723
15499TIP3   OH267911   1.859   0.137  15.458  0.4586  0.5950  0.2239
15499TIP3    H167912   1.809   0.218  15.471  1.0074  0.9425  0.2029
15499TIP3    H267913   1.795   0.074  15.426 -0.0485  0.9212  0.5776
15500TIP3   OH267914   5.568   1.817  12.628 -0.2680  0.7705 -0.5626
15500TIP3    H167915   5.504   1.749  12.649  1.1367 -0.8847 -1.4000
15500TIP3    H267916   5.630   1.814  12.701  0.7200 -0.0564 -1.4102
15501TIP3   OH267917   4.606   3.366  10.667 -0.0073 -0.5464 -0.5223
15501TIP3    H167918   4.551   3.361  10.589  0.1419  0.6500 -0.7206
15501TIP3    H267919   4.585   3.451  10.706  0.8074 -0.6056  0.0673
15502TIP3   OH267920   0.680   3.234  16.250  0.3105  0.2152 -0.1632
15502TIP3    H167921   0.695   3.281  16.168  2.8324  0.6621  0.4703
15502TIP3    H267922   0.737   3.158  16.245  0.7301  0.4050  1.2557
15503TIP3   OH267923   3.267   3.793  11.958  0.0898 -0.2110 -0.2425
15503TIP3    H167924   3.330   3.862  11.980  0.9725  0.0711 -3.1742
15503TIP3    H267925   3.187   3.840  11.935 -0.1054 -0.3391  0.1723
15504TIP3   OH267926   5.637   5.751   1.455  0.4018  0.1493 -0.1364
15504TIP3    H167927   5.731   5.760   1.470  0.3125  0.4101  0.2554
15504TIP3    H267928   5.619   5.807   1.379  0.4131  0.7551  0.3089
15505TIP3   OH267929   2.726   5.927  13.435  0.0449 -0.0082 -0.2173
15505TIP3    H167930   2.765   6.012  13.454  0.2271 -0.3330  0.9840
15505TIP3    H267931   2.727   5.920  13.340  0.3032  1.1996 -0.3136
15506TIP3   OH267932   6.580   2.341   0.041  0.6080 -0.2069 -1.0251
15506TIP3    H167933   6.660   2.385   0.013  0.8166 -0.6333 -1.1118
15506TIP3    H267934   6.570   2.269  -0.021  1.1654 -1.2748  0.0699
15507TIP3   OH267935   4.619   6.069   2.638 -0.3332 -0.1678 -0.2374
15507TIP3    H167936   4.615   6.105   2.726 -1.1388  0.1720 -0.4005
15507TIP3    H267937   4.625   6.145   2.580  0.9944 -0.4187 -0.4441
15508TIP3   OH267938   5.577   5.327   1.647  0.2810 -0.3335 -0.0830
15508TIP3    H167939   5.632   5.355   1.575  0.3528 -2.5082 -0.9604
15508TIP3    H267940   5.637   5.290   1.711  0.0195 -0.7316 -0.0621
15509TIP3   OH267941   4.021   6.146   2.918  0.4491 -0.2742  0.5153
15509TIP3    H167942   3.962   6.149   2.843  0.5606 -0.0181  0.4379
15509TIP3    H267943   4.101   6.188   2.888  0.7847 -0.8893  0.5241
15510TIP3   OH267944   4.293   3.661   5.514  0.3856  0.3419  0.7330
15510TIP3    H167945   4.361   3.644   5.450 -0.3792  0.9015 -0.2704
15510TIP3    H267946   4.332   3.724   5.574  1.5422 -1.1430  1.5905
15511TIP3   OH267947   1.428   5.315   3.013  0.2474 -0.0364 -0.0268
15511TIP3    H167948   1.409   5.309   3.107 -1.5502  3.3459  0.0221
15511TIP3    H267949   1.510   5.364   3.008  0.9006 -1.1263 -0.2638
15512TIP3   OH267950   6.738   5.327  13.670  0.3509  0.5765 -0.3287
15512TIP3    H167951   6.734   5.384  13.593 -0.6450  0.4278 -0.3925
15512TIP3    H267952   6.745   5.387  13.744 -0.5416  0.7875 -0.4066
15513TIP3   OH267953   2.296   1.403  12.019  0.0206  0.1421 -0.2977
15513TIP3    H167954   2.323   1.447  11.938  0.3160  0.5695  0.0307
15513TIP3    H267955   2.342   1.319  12.017  1.4994  0.9133  0.3178
15514TIP3   OH267956   1.832   4.329  14.794  0.4371  0.1652  0.0916
15514TIP3    H167957   1.787   4.411  14.812 -0.1034  0.1170 -0.9689
15514TIP3    H267958   1.807   4.307  14.704  1.1539 -0.7848  0.1094
15515TIP3   OH267959   5.122   4.414   4.469 -0.2057  0.0501  0.4291
15515TIP3    H167960   5.144   4.321   4.470 -1.2882 -0.3163 -2.0471
15515TIP3    H267961   5.046   4.422   4.527 -0.4641 -0.7367  0.2101
15516TIP3   OH267962   2.959   3.435   4.843 -0.3082 -0.1330  0.4677
15516TIP3    H167963   2.928   3.434   4.934 -0.3230  1.6589  0.5101
15516TIP3    H267964   2.881   3.415   4.792 -0.0182 -2.6159  0.8520
15517TIP3   OH267965   4.453   5.457  17.144 -0.2760  0.2299  0.3108
15517TIP3    H167966   4.480   5.468  17.053 -0.0244 -1.8607  0.0981
15517TIP3    H267967   4.450   5.362  17.157 -3.1643  0.3903  1.6213
15518TIP3   OH267968   5.781   2.076   3.577 -0.1283  0.2954 -0.1261
15518TIP3    H167969   5.687   2.068   3.596  0.2870  0.8118  2.5341
15518TIP3    H267970   5.823   2.025   3.646  1.5749  0.3469 -1.0865
15519TIP3   OH267971   1.176   2.577   1.202  0.1863 -0.0234  0.2264
15519TIP3    H167972   1.268   2.569   1.224  0.3231 -0.7690 -0.5364
15519TIP3    H267973   1.173   2.565   1.107 -0.6344  0.5459  0.1667
15520TIP3   OH267974   1.516   1.213  13.835  0.5378 -0.6019  0.7568
15520TIP3    H167975   1.435   1.263  13.824  1.7857  1.0522 -2.3435
15520TIP3    H267976   1.492   1.124  13.809 -1.0179 -1.0534  3.4107
15521TIP3   OH267977   0.608   2.831  12.510  0.1211  0.2012 -0.0315
15521TIP3    H167978   0.625   2.737  12.509 -2.2369 -0.2757 -0.3887
15521TIP3    H267979   0.516   2.839  12.485  0.3017  2.6227 -0.1266
15522TIP3   OH267980   6.749   0.157  15.849  0.2650 -0.6270  0.1946
15522TIP3    H167981   6.812   0.220  15.816  0.0384 -0.0899  0.7837
15522TIP3    H267982   6.724   0.106  15.772  1.2660 -0.7255 -0.0804
15523TIP3   OH267983   0.196   3.567   3.778  0.5426 -0.4237  0.4992
15523TIP3    H167984   0.243   3.485   3.762 -1.9536 -1.4738 -2.3624
15523TIP3    H267985   0.195   3.611   3.693 -1.2561  0.8498  1.1267
15524TIP3   OH267986   1.823   6.237  14.012 -0.0313  0.3182  0.0374
15524TIP3    H167987   1.820   6.291  14.091 -1.0488  0.7326 -0.2587
15524TIP3    H267988   1.763   6.281  13.951 -1.9196 -1.7807  0.2167
15525TIP3   OH267989   3.508   0.587   1.549 -0.2208  0.3803  0.1018
15525TIP3    H167990   3.507   0.591   1.645 -1.5937  0.7052  0.0991
15525TIP3    H267991   3.578   0.525   1.529 -0.1085  0.0723  1.3307
15526TIP3   OH267992   5.996   3.384  11.592  0.1357 -0.1973 -0.2337
15526TIP3    H167993   5.952   3.443  11.531  0.5719  0.3681 -0.0059
15526TIP3    H267994   5.930   3.366  11.659 -0.7758 -1.8199 -1.4944
15527TIP3   OH267995   4.917   4.742  11.710  0.4760  0.1454 -0.9153
15527TIP3    H167996   4.904   4.836  11.716  1.7843  0.2570  0.5690
15527TIP3    H267997   5.005   4.727  11.745 -0.4970 -1.8256  0.9329
15528TIP3   OH267998   0.521   6.758  11.907 -0.0620  0.0067 -0.4864
15528TIP3    H167999   0.427   6.745  11.910  0.2690 -2.8948  0.3596
15528TIP3    H268000   0.545   6.787  11.996  0.0081 -0.7830 -0.2452
15529TIP3   OH268001   5.362   5.425   2.951  0.0932  0.0798  0.2537
15529TIP3    H168002   5.401   5.359   2.894 -1.2291 -1.1016  0.6592
15529TIP3    H268003   5.273   5.436   2.917 -0.5471 -0.2488  1.7399
15530TIP3   OH268004   0.231   1.752  15.861 -0.5200  0.2435 -0.3151
15530TIP3    H168005   0.140   1.771  15.884 -0.4592  1.6243 -1.1302
15530TIP3    H268006   0.271   1.720  15.942 -1.2185  1.5198  0.5478
15531TIP3   OH268007   5.779   5.190   3.357  0.1714 -0.0133 -0.5946
15531TIP3    H168008   5.855   5.137   3.378 -0.1168 -0.4569 -0.6513
15531TIP3    H268009   5.777   5.193   3.261  2.1678  2.9919 -0.6964
15532TIP3   OH268010   4.587   5.996  11.038 -0.7774 -0.0318 -0.2694
15532TIP3    H168011   4.661   5.955  10.994 -1.7964 -0.4084 -1.6904
15532TIP3    H268012   4.511   5.978  10.982 -1.9918  0.2123  1.2011
15533TIP3   OH268013   2.008   6.616  12.887  0.0178 -0.3560  0.1503
15533TIP3    H168014   1.938   6.673  12.920 -0.5163 -1.3780  0.8203
15533TIP3    H268015   1.992   6.531  12.928  0.5937 -1.0971 -1.0987
15534TIP3   OH268016   1.679   0.612  16.033 -0.0380  0.2210 -0.1457
15534TIP3    H168017   1.606   0.610  15.971 -0.4581 -2.6367  0.2729
15534TIP3    H268018   1.756   0.625  15.979 -0.7550  4.4226 -0.5054
15535TIP3   OH268019   0.820   0.595  10.915  0.2132  0.0737  0.0811
15535TIP3    H168020   0.756   0.662  10.892 -0.1497 -0.6797 -1.2080
15535TIP3    H268021   0.769   0.515  10.926  0.6685 -0.0695  1.3704
15536TIP3   OH268022   5.655   4.261  16.126 -0.2684  0.0261 -0.3127
15536TIP3    H168023   5.624   4.348  16.152 -2.5896 -0.9115  0.3535
15536TIP3    H268024   5.722   4.239  16.191 -0.0956  1.0567 -0.1253
15537TIP3   OH268025   5.719   3.257   5.784  0.2502 -0.5222 -0.1354
15537TIP3    H168026   5.794   3.286   5.731 -0.0782  0.0768 -0.2707
15537TIP3    H268027   5.708   3.326   5.849 -0.0634 -0.7119  0.0116
15538TIP3   OH268028   1.106   2.584   2.707  0.0710 -0.1952 -0.0227
15538TIP3    H168029   1.182   2.581   2.649  0.4835  1.3718  0.4128
15538TIP3    H268030   1.141   2.564   2.794  0.2342  1.7233  0.3849
15539TIP3   OH268031   6.321   4.543  16.546 -0.3692 -0.1643  0.5033
15539TIP3    H168032   6.390   4.488  16.511  0.1967 -0.2956  1.7633
15539TIP3    H268033   6.333   4.539  16.641 -0.9623  1.2823  0.6675
15540TIP3   OH268034   5.536   5.268  16.205 -0.3073 -0.8041 -0.0494
15540TIP3    H168035   5.504   5.358  16.211  2.0118  0.0807 -0.1565
15540TIP3    H268036   5.521   5.243  16.114 -0.1960 -0.2290 -0.2297
15541TIP3   OH268037   6.089   5.414   5.750 -0.2749 -0.3384 -0.2022
15541TIP3    H168038   6.118   5.456   5.831  0.4692 -1.9389  0.4009
15541TIP3    H268039   6.117   5.474   5.681  0.2513  0.4216  0.6407
15542TIP3   OH268040   4.154   2.327   3.201  0.4413 -0.0042  0.3108
15542TIP3    H168041   4.235   2.294   3.164 -0.4555 -1.1495 -0.7304
15542TIP3    H268042   4.116   2.381   3.131  0.1795  0.2884  0.6770
15543TIP3   OH268043   4.133   3.073   5.671  0.3230  0.1494 -0.1614
15543TIP3    H168044   4.113   3.009   5.603  1.8316 -0.8118  0.2462
15543TIP3    H268045   4.151   3.154   5.623 -2.1957  0.4907 -0.6486
15544TIP3   OH268046   5.083   1.847   1.366  0.2667  0.3939 -0.0040
15544TIP3    H168047   4.995   1.820   1.393  0.2950  0.2514 -0.0526
15544TIP3    H268048   5.082   1.841   1.271  0.0594  1.2286 -0.0580
15545TIP3   OH268049   5.878   0.769  13.489  0.2339 -0.1947 -0.0927
15545TIP3    H168050   5.879   0.760  13.394 -1.5364 -1.8690 -0.0024
15545TIP3    H268051   5.919   0.854  13.505 -0.1229  0.4764 -2.3826
15546TIP3   OH268052   2.443   4.328   3.353  0.2141  0.2732  0.3872
15546TIP3    H168053   2.420   4.331   3.260 -0.6260 -1.3040  0.5060
15546TIP3    H268054   2.374   4.378   3.396  0.0387  0.1662  0.2362
15547TIP3   OH268055   6.001   4.181  16.156 -0.2032  0.3419  0.2551
15547TIP3    H168056   5.955   4.261  16.132 -0.3780  0.2330  0.2200
15547TIP3    H268057   6.066   4.168  16.087 -1.7139 -0.7977 -1.0437
15548TIP3   OH268058   5.596   0.134  13.720  0.1286 -0.1346  0.4689
15548TIP3    H168059   5.680   0.153  13.762 -0.3074  0.0658  1.2745
15548TIP3    H268060   5.531   0.160  13.785 -0.6070  1.2683 -0.7769
15549TIP3   OH268061   4.706   5.578  17.033  0.1619 -0.1318  0.5812
15549TIP3    H168062   4.664   5.628  16.963  0.0580 -1.5910 -0.4455
15549TIP3    H268063   4.756   5.510  16.987  1.4770 -0.0795  1.8764
15550TIP3   OH268064   6.074   3.106  16.863 -0.0759 -0.2305 -0.2402
15550TIP3    H168065   6.153   3.068  16.824 -0.5004  2.5095 -4.5033
15550TIP3    H268066   6.101   3.194  16.889 -1.7351  1.1849 -2.8375
15551TIP3   OH268067   1.635   3.164   0.832 -0.6853  0.2728  0.7580
15551TIP3    H168068   1.726   3.173   0.861 -1.2594  1.1678  2.3873
15551TIP3    H268069   1.639   3.179   0.737  0.9131 -0.1133  0.7401
15552TIP3   OH268070   2.671   0.335   1.398 -0.0511 -0.0255 -0.2506
15552TIP3    H168071   2.651   0.247   1.431  0.1105  0.5642  1.5626
15552TIP3    H268072   2.743   0.323   1.337 -0.7212 -1.2594 -0.8332
15553TIP3   OH268073   1.033   6.287  11.276  0.0345  0.0760  0.2950
15553TIP3    H168074   1.085   6.246  11.207  0.9585  1.1707  0.2996
15553TIP3    H268075   0.964   6.334  11.230 -0.1553 -0.2867  0.2056
15554TIP3   OH268076   6.752   4.916  14.962  0.0207 -0.0691 -0.2680
15554TIP3    H168077   6.757   5.010  14.979  1.6241 -0.4142  1.5821
15554TIP3    H268078   6.801   4.904  14.880 -0.1063  0.6835 -0.4626
15555TIP3   OH268079   2.449   1.629  16.678 -0.2830  0.1817 -0.2213
15555TIP3    H168080   2.531   1.677  16.675  0.5410 -1.1872 -0.6572
15555TIP3    H268081   2.475   1.537  16.678 -1.8212 -0.3066 -1.5313
15556TIP3   OH268082   0.363   0.045  13.066  0.4574 -0.4478  0.2546
15556TIP3    H168083   0.459   0.045  13.057  0.4326 -1.8356 -0.2482
15556TIP3    H268084   0.342  -0.043  13.096 -0.5521  0.3401  2.0338
15557TIP3   OH268085   0.802   4.193  12.493  0.1964 -0.0818  0.6367
15557TIP3    H168086   0.842   4.131  12.431  0.5484  0.4176  0.3581
15557TIP3    H268087   0.713   4.160  12.506  1.0644 -1.9770  2.2937
15558TIP3   OH268088   6.538   6.601  15.973 -0.2939  0.1400  0.2770
15558TIP3    H168089   6.522   6.591  15.879 -3.0163  2.4662  0.3345
15558TIP3    H268090   6.632   6.590  15.983  0.0055 -0.7971 -2.6162
15559TIP3   OH268091   1.600   2.189   6.085  0.1784  0.2495  0.1941
15559TIP3    H168092   1.577   2.225   6.170  3.9454  1.2262  0.9717
15559TIP3    H268093   1.639   2.262   6.037 -1.4087 -0.3962 -2.2886
15560TIP3   OH268094   5.699   5.127   6.179 -0.0134  0.4511 -0.2290
15560TIP3    H168095   5.781   5.117   6.130  1.0445 -0.2966  1.6181
15560TIP3    H268096   5.700   5.218   6.209  0.7876  0.0974  0.8594
15561TIP3   OH268097   0.181   1.808   1.641  0.1858 -0.1788  0.1473
15561TIP3    H168098   0.168   1.772   1.728  0.3052  0.7712  0.5734
15561TIP3    H268099   0.116   1.878   1.634  0.7227  0.2929 -0.2090
15562TIP3   OH268100   1.984   1.788  15.472 -0.1327 -0.5635  0.1588
15562TIP3    H168101   2.007   1.867  15.522  0.8429 -1.1037  0.5887
15562TIP3    H268102   1.955   1.726  15.538  1.0473 -1.2426  0.0779
15563TIP3   OH268103   2.839   1.816  15.117 -0.7929 -1.0667  0.6690
15563TIP3    H168104   2.781   1.862  15.177  0.5604 -0.6398  1.7053
15563TIP3    H268105   2.853   1.731  15.158  0.7672 -0.4850  1.4167
15564TIP3   OH268106   6.199   1.251  16.954 -0.3533  0.4493 -0.6570
15564TIP3    H168107   6.104   1.267  16.960 -0.4018 -0.4557  2.5919
15564TIP3    H268108   6.208   1.157  16.971  1.1817  0.6559 -0.2606
15565TIP3   OH268109   0.326   0.464  16.723 -0.0111 -0.3454 -1.0853
15565TIP3    H168110   0.361   0.449  16.810  3.8186  1.2133 -2.1565
15565TIP3    H268111   0.307   0.558  16.721  0.7609 -0.2017 -2.1780
15566TIP3   OH268112   4.673   2.188   6.120 -0.1592  0.4241 -0.2671
15566TIP3    H168113   4.761   2.206   6.152 -0.9425  1.7476  1.2807
15566TIP3    H268114   4.641   2.272   6.089 -0.9579 -0.0017 -0.6420
15567TIP3   OH268115   6.614   0.621  16.206 -0.2925 -0.0678  0.0325
15567TIP3    H168116   6.629   0.685  16.275  0.2145  0.7158 -0.7917
15567TIP3    H268117   6.649   0.662  16.126 -1.0604 -0.8631 -0.7361
15568TIP3   OH268118   3.031   0.832   0.175 -0.0301 -0.0147  0.3011
15568TIP3    H168119   3.017   0.824   0.081  0.4929  0.8913  0.1351
15568TIP3    H268120   2.952   0.874   0.208 -0.1266 -0.1460  0.2366
15569TIP3   OH268121   3.525   3.540   6.407  0.0507 -0.2705  0.6570
15569TIP3    H168122   3.513   3.507   6.318  0.2696  2.4589 -0.4823
15569TIP3    H268123   3.451   3.504   6.456 -0.9128 -0.6512 -1.0032
15570TIP3   OH268124   5.860   3.520   4.774  0.1060 -0.6312  0.4972
15570TIP3    H168125   5.807   3.461   4.720 -0.3702 -0.2170  0.5010
15570TIP3    H268126   5.861   3.480   4.861 -0.3193 -0.5729  0.5302
15571TIP3   OH268127   3.978   2.574  16.339 -0.1124  0.2098 -0.2042
15571TIP3    H168128   4.069   2.577  16.368  0.1071  4.4740 -0.6914
15571TIP3    H268129   3.936   2.512  16.399  2.8244 -0.9877  0.8064
15572TIP3   OH268130   0.783   6.329  11.734  0.0886  0.2887 -0.1134
15572TIP3    H168131   0.727   6.391  11.782 -0.4261 -0.5862  0.4396
15572TIP3    H268132   0.746   6.328  11.646 -0.7822 -0.2748  0.2458
15573TIP3   OH268133   2.532   6.066  12.644  0.2625  0.4467 -0.0917
15573TIP3    H168134   2.555   5.996  12.583  0.4151  0.3327  0.0988
15573TIP3    H268135   2.454   6.107  12.605 -0.3045 -0.3296  0.1975
15574TIP3   OH268136   0.776   6.004   5.507 -0.1945 -0.0575 -0.1157
15574TIP3    H168137   0.809   5.931   5.561 -0.7470 -0.5856 -0.4751
15574TIP3    H268138   0.681   5.988   5.502 -0.1903  0.1621 -0.9739
15575TIP3   OH268139   3.172   2.135  12.057  0.0296  0.1396 -0.7105
15575TIP3    H168140   3.178   2.094  11.971 -1.6926 -0.6072 -0.5287
15575TIP3    H268141   3.149   2.226  12.040  1.8811  0.5784 -1.0635
15576TIP3   OH268142   3.104   4.732  12.876  0.3291  0.0566 -0.5494
15576TIP3    H168143   3.045   4.752  12.804  0.2318  1.1954 -0.1824
15576TIP3    H268144   3.191   4.749  12.841  0.2562  1.0181 -0.2898
15577TIP3   OH268145   0.565   2.976   3.174 -0.1405  0.0410 -0.0672
15577TIP3    H168146   0.623   2.920   3.122  0.3241  1.0663 -0.6859
15577TIP3    H268147   0.492   2.919   3.199  0.5358 -0.9498 -0.2981
15578TIP3   OH268148   3.091   4.716  15.524 -0.0918 -0.1757 -0.0827
15578TIP3    H168149   3.108   4.626  15.552  0.9788  0.2817  0.8214
15578TIP3    H268150   3.147   4.770  15.580 -1.1360  1.1066 -0.2040
15579TIP3   OH268151   0.527   1.317   3.764  0.5124  0.3258  0.5124
15579TIP3    H168152   0.530   1.318   3.668 -0.4656 -0.2582  0.4551
15579TIP3    H268153   0.435   1.296   3.784  1.3879 -3.0631  1.5299
15580TIP3   OH268154   4.183   2.320  13.845  0.3034  0.1172  0.2342
15580TIP3    H168155   4.139   2.314  13.929 -0.1347  0.6966  0.0535
15580TIP3    H268156   4.276   2.307  13.866  0.2177  0.4178  0.8305
15581TIP3   OH268157   5.490   6.162  12.424  0.3551  0.3993  0.0268
15581TIP3    H168158   5.530   6.221  12.360  2.2036 -0.8967 -0.0882
15581TIP3    H268159   5.414   6.126  12.380  1.3358 -0.1110 -1.3052
15582TIP3   OH268160   3.957   6.254   0.172  0.0092 -0.1346 -0.0869
15582TIP3    H168161   3.996   6.208   0.246  0.1084 -0.1487 -0.1484
15582TIP3    H268162   3.920   6.184   0.117  0.1226 -0.1382 -0.1587
15583TIP3   OH268163   0.612   1.100   2.192  0.1092 -0.2821 -0.0667
15583TIP3    H168164   0.684   1.046   2.222  2.1796  1.1824 -2.0804
15583TIP3    H268165   0.612   1.090   2.097  0.2464  2.7104 -0.4798
15584TIP3   OH268166   3.956   5.765  11.983  0.2831 -0.2059  0.7912
15584TIP3    H168167   3.975   5.747  12.075 -1.4016  1.3887  1.5268
15584TIP3    H268168   3.860   5.770  11.979  0.3104 -0.5110 -1.1117
15585TIP3   OH268169   5.455   3.240   0.395 -0.4173 -0.0589 -0.7065
15585TIP3    H168170   5.370   3.209   0.427 -0.5156 -1.1605 -1.9542
15585TIP3    H268171   5.497   3.162   0.359 -0.5115  1.1243 -3.6755
15586TIP3   OH268172   3.896   5.076   1.512  0.2664 -0.3399 -0.4190
15586TIP3    H168173   3.954   5.090   1.438  0.0006  1.9532 -0.2528
15586TIP3    H268174   3.940   5.008   1.564  1.4201 -0.5913 -1.6730
15587TIP3   OH268175   4.476   0.469   0.548  0.4475  0.2036 -0.3276
15587TIP3    H168176   4.570   0.476   0.533  0.9545 -1.5688  1.5276
15587TIP3    H268177   4.455   0.544   0.603  1.0954 -0.1974  0.4824
15588TIP3   OH268178   2.739   3.148   4.968 -0.0466  0.7979 -0.3223
15588TIP3    H168179   2.821   3.112   5.004  0.3604  1.7124 -0.3128
15588TIP3    H268180   2.740   3.121   4.876  0.4469  1.0947 -0.4119
15589TIP3   OH268181   1.783   0.990   2.567  0.4987 -0.7165  0.1498
15589TIP3    H168182   1.717   0.978   2.635 -0.2338  1.7745 -0.0130
15589TIP3    H268183   1.848   1.048   2.607  0.6727 -0.1793 -0.8931
15590TIP3   OH268184   1.942   4.065  11.038 -0.7448 -0.4037 -0.3328
15590TIP3    H168185   1.958   3.997  11.104  0.5808  2.5149  2.6491
15590TIP3    H268186   1.856   4.101  11.061  0.5139  1.8820  1.2018
15591TIP3   OH268187   4.759   1.155  16.872  0.3754  0.1964 -0.0991
15591TIP3    H168188   4.719   1.097  16.806 -0.3186  0.0938  0.4061
15591TIP3    H268189   4.835   1.105  16.904  2.0864  1.1361 -2.3754
15592TIP3   OH268190   2.358   3.238   5.488  0.1475 -0.0324 -0.1877
15592TIP3    H168191   2.351   3.146   5.515 -2.5223 -0.1049 -0.8666
15592TIP3    H268192   2.284   3.281   5.530  1.7384  2.0246  0.6930
15593TIP3   OH268193   1.670   5.159  11.463  0.6332  0.5037 -0.7571
15593TIP3    H168194   1.744   5.098  11.459  0.4018  0.2558 -1.3389
15593TIP3    H268195   1.651   5.168  11.556  0.4643 -0.5695 -0.6750
15594TIP3   OH268196   2.613   0.074   5.118 -0.0294 -0.2333  0.1011
15594TIP3    H168197   2.617  -0.015   5.154  0.4367 -0.3781 -0.3031
15594TIP3    H268198   2.678   0.075   5.048  0.1040  0.4873  0.2284
15595TIP3   OH268199   6.751   5.996  13.135  0.0431 -0.6158  0.1027
15595TIP3    H168200   6.768   5.909  13.100  1.9294 -0.3622  0.3126
15595TIP3    H268201   6.690   5.982  13.207  0.6944 -1.8116  0.4321
15596TIP3   OH268202   0.795   2.590  12.612  0.0587  0.8400 -0.9239
15596TIP3    H168203   0.872   2.645  12.595  1.0894  0.0619  0.9040
15596TIP3    H268204   0.810   2.511  12.560  0.3156  0.8568 -0.8775
15597TIP3   OH268205   3.625   5.894   6.398 -0.6705 -0.3350  0.2688
15597TIP3    H168206   3.601   5.942   6.478  0.6071 -1.7351  1.5543
15597TIP3    H268207   3.542   5.858   6.366 -0.9886 -1.2657  2.0206
15598TIP3   OH268208   5.337   1.731   5.301 -0.3896 -0.5551  0.7708
15598TIP3    H168209   5.375   1.767   5.380 -1.1857 -3.4854  2.6409
15598TIP3    H268210   5.246   1.759   5.303 -0.4989 -0.9211  1.1254
15599TIP3   OH268211   5.284   2.985   0.329 -0.1027  0.0448  0.1022
15599TIP3    H168212   5.220   3.049   0.359  0.3567  0.1292  0.9377
15599TIP3    H268213   5.291   3.001   0.235 -0.1904  1.0568  0.2479
15600TIP3   OH268214   3.127   5.267   2.797 -0.0956 -0.2456  0.2668
15600TIP3    H168215   3.069   5.273   2.722 -0.4401  0.2267  0.5692
15600TIP3    H268216   3.088   5.324   2.863  0.5419 -0.1642  0.5834
15601TIP3   OH268217   1.949   5.880   1.852  0.4769  0.8415 -0.4336
15601TIP3    H168218   1.858   5.884   1.821 -0.1128 -0.7550  0.9727
15601TIP3    H268219   1.981   5.796   1.821  1.5732  1.4722 -1.0743
15602TIP3   OH268220   6.261   6.001  13.949 -0.8266 -0.1219 -0.0297
15602TIP3    H168221   6.192   5.980  14.011 -1.2993  1.1887 -0.0991
15602TIP3    H268222   6.341   5.967  13.990 -0.8230  2.2695  2.1910
15603TIP3   OH268223   5.339   0.748   1.663  0.0257  0.1143  0.1109
15603TIP3    H168224   5.387   0.678   1.707  1.3276  0.8885 -0.0138
15603TIP3    H268225   5.393   0.826   1.677  0.5025  0.4093 -2.8103
15604TIP3   OH268226   4.682   2.171  11.770 -0.0945 -0.3713  0.2516
15604TIP3    H168227   4.672   2.091  11.718 -0.3714 -2.0709  2.6980
15604TIP3    H268228   4.668   2.243  11.708 -2.1895 -2.2447 -1.6259
15605TIP3   OH268229   2.092   5.403  15.970  0.5113  0.0972  0.0741
15605TIP3    H168230   2.010   5.368  15.936 -0.0684  0.1282  1.3675
15605TIP3    H268231   2.152   5.403  15.895 -0.4943 -0.4627 -0.7487
15606TIP3   OH268232   3.643   2.399   5.166  0.0818  0.0169 -0.0279
15606TIP3    H168233   3.671   2.342   5.095  1.7676  1.0091 -0.2255
15606TIP3    H268234   3.614   2.339   5.235  2.1095 -1.1434 -0.1020
15607TIP3   OH268235   2.534   2.450   2.622  0.0731  0.6586  0.5460
15607TIP3    H168236   2.550   2.381   2.558  0.1325 -0.5707  1.8091
15607TIP3    H268237   2.439   2.448   2.637  0.1454  0.4269  1.0104
15608TIP3   OH268238   1.416   2.560   1.715  0.1420 -0.1668  0.3403
15608TIP3    H168239   1.357   2.487   1.697  1.9024 -1.3022 -1.0419
15608TIP3    H268240   1.398   2.624   1.646 -0.9906  0.5058  1.2180
15609TIP3   OH268241   3.169   4.675  16.115  0.7955 -0.1683  0.0078
15609TIP3    H168242   3.175   4.769  16.127 -1.3988  0.2366 -1.4501
15609TIP3    H268243   3.241   4.652  16.057  1.2327  0.6177  0.2295
15610TIP3   OH268244   1.446   2.373   0.864 -0.0517  0.1881 -0.3057
15610TIP3    H168245   1.536   2.352   0.840  0.0847 -0.5408  0.7451
15610TIP3    H268246   1.393   2.344   0.790  0.3423 -1.8908  0.1759
15611TIP3   OH268247   4.986   0.612  13.287 -0.7986  0.3808 -0.8189
15611TIP3    H168248   5.062   0.564  13.255 -1.8000 -0.4762 -2.0100
15611TIP3    H268249   4.941   0.550  13.344 -1.2853  0.4332 -1.1398
15612TIP3   OH268250   5.315   3.943  16.135 -0.4410 -0.0118  0.7287
15612TIP3    H168251   5.391   3.891  16.161 -0.4328  0.6061  2.0240
15612TIP3    H268252   5.323   3.951  16.040 -0.1464 -1.8830  0.5542
15613TIP3   OH268253   4.820   3.557   2.400  0.0604  0.7705  0.3242
15613TIP3    H168254   4.819   3.528   2.491 -1.0995  0.8696  0.3596
15613TIP3    H268255   4.909   3.538   2.370  0.0532 -0.5548  1.0606
15614TIP3   OH268256   6.740   0.731  17.297 -0.3210 -0.4499 -0.7960
15614TIP3    H168257   6.687   0.797  17.342 -0.9546 -1.5663  0.1428
15614TIP3    H268258   6.829   0.765  17.299 -0.2705 -0.5892  1.6036
15615TIP3   OH268259   6.598   6.411   1.219  0.6489 -0.3419 -0.1195
15615TIP3    H168260   6.644   6.433   1.138  0.2184  0.7419 -0.0852
15615TIP3    H268261   6.557   6.327   1.200 -0.0724  0.2459 -1.3151
15616TIP3   OH268262   2.317   1.106  11.826  0.1633  0.5284 -0.1516
15616TIP3    H168263   2.248   1.042  11.843  0.9848 -0.4868 -0.5630
15616TIP3    H268264   2.384   1.088  11.891  1.4039 -0.5584 -1.6509
15617TIP3   OH268265   0.294   4.945  11.198  0.2007  0.1055 -0.1140
15617TIP3    H168266   0.281   4.926  11.105 -0.7297  1.4167 -0.2871
15617TIP3    H268267   0.218   4.906  11.242  0.4443 -0.1867  0.0476
15618TIP3   OH268268   5.900   3.532   1.755 -0.0781 -0.0398  0.0786
15618TIP3    H168269   5.855   3.458   1.795 -1.9406  0.7793 -0.4003
15618TIP3    H268270   5.867   3.535   1.666  1.2666  0.3657 -0.4323
15619TIP3   OH268271   0.810   1.250  13.132  0.5870  0.4119  0.5386
15619TIP3    H168272   0.799   1.195  13.054 -1.5248  1.9600 -0.3679
15619TIP3    H268273   0.755   1.327  13.115  1.5073  1.6655  2.7932
15620TIP3   OH268274   0.503   0.246  13.579  0.1408 -0.1291  0.4824
15620TIP3    H168275   0.425   0.300  13.567  0.0979 -0.4918 -1.0622
15620TIP3    H268276   0.514   0.241  13.674 -1.4908  0.2363  0.7233
15621TIP3   OH268277   2.313   2.251  15.974  0.6588  0.4085 -0.2314
15621TIP3    H168278   2.228   2.214  15.949  0.6154  0.8274 -0.7165
15621TIP3    H268279   2.295   2.344  15.990  0.8385  0.3019  0.6208
15622TIP3   OH268280   4.075   2.170  15.260 -0.2221 -0.3420 -0.0337
15622TIP3    H168281   4.002   2.232  15.269 -0.1687 -0.1832 -0.6463
15622TIP3    H268282   4.053   2.120  15.181 -0.9160 -1.9825  1.1374
15623TIP3   OH268283   4.048   6.365   1.313 -0.8950  0.1800  0.3136
15623TIP3    H168284   4.041   6.347   1.219  2.4963  2.2063 -0.4966
15623TIP3    H268285   3.957   6.376   1.342 -2.0502 -0.1828 -2.7828
15624TIP3   OH268286   0.175   1.473  15.858  0.0122 -0.2288 -0.1747
15624TIP3    H168287   0.271   1.471  15.863  0.0135 -0.2537 -0.2112
15624TIP3    H268288   0.148   1.515  15.940  0.0261 -0.8105  0.1334
15625TIP3   OH268289   5.646   6.195   5.032 -0.1711  0.5209 -0.2913
15625TIP3    H168290   5.686   6.109   5.044 -0.6218  0.5175  1.4308
15625TIP3    H268291   5.662   6.216   4.940  0.8294 -0.9474 -0.4900
15626TIP3   OH268292   5.844   6.390   3.831  0.0003  0.0207  0.1357
15626TIP3    H168293   5.855   6.424   3.742  0.0332  1.4729  0.6650
15626TIP3    H268294   5.903   6.315   3.835 -0.5666 -0.5440 -1.2905
15627TIP3   OH268295   0.652   4.997   0.467  0.5699  0.1157 -0.5141
15627TIP3    H168296   0.702   4.926   0.426 -0.7200 -0.8348 -0.4936
15627TIP3    H268297   0.665   4.983   0.561 -1.8254 -1.8116 -0.3637
15628TIP3   OH268298   0.136   4.808   3.265  0.6239  0.0863 -0.0049
15628TIP3    H168299   0.111   4.865   3.192  0.1198  0.6340  0.5858
15628TIP3    H268300   0.063   4.815   3.327 -1.0679 -3.6524 -1.2480
15629TIP3   OH268301   3.753   4.745  11.547 -0.2400  0.0780  0.5049
15629TIP3    H168302   3.726   4.653  11.557 -2.8375  0.7030 -0.0423
15629TIP3    H268303   3.838   4.740  11.504 -1.0783 -2.0775 -1.0847
15630TIP3   OH268304   3.162   4.388  11.786  0.0914 -0.1490 -0.0586
15630TIP3    H168305   3.098   4.345  11.844  0.0204 -0.3820 -0.3086
15630TIP3    H268306   3.219   4.317  11.757  0.6936  0.1179  0.4583
15631TIP3   OH268307   3.634   2.960   1.065  0.2849 -0.7256 -0.0600
15631TIP3    H168308   3.555   2.988   1.020 -0.2394 -2.2765 -0.1751
15631TIP3    H268309   3.603   2.914   1.143  1.0148 -1.8796 -0.4128
15632TIP3   OH268310   1.821   3.105  15.773 -0.5492  0.0451  0.0556
15632TIP3    H168311   1.740   3.130  15.729  0.8656  0.3386 -2.6010
15632TIP3    H268312   1.889   3.155  15.728  1.4276 -2.3551  0.1826
15633TIP3   OH268313   0.920   2.760   2.248  0.3262  0.5628 -0.0719
15633TIP3    H168314   1.008   2.775   2.284  0.6654 -0.4221 -0.4696
15633TIP3    H268315   0.935   2.714   2.166 -0.6171 -1.8416  1.0194
15634TIP3   OH268316   3.663   5.245  14.214  0.2838 -0.4915 -0.1862
15634TIP3    H168317   3.579   5.248  14.168  0.0744  0.0779  0.2296
15634TIP3    H268318   3.681   5.152  14.223  0.4136 -0.6218 -1.5692
15635TIP3   OH268319   6.210   5.044   4.778 -0.2756 -0.5779  0.3118
15635TIP3    H168320   6.187   5.042   4.685 -1.9593 -1.3281  0.7005
15635TIP3    H268321   6.282   5.107   4.783  0.9186 -1.6625 -1.6924
15636TIP3   OH268322   3.959   0.424  16.313  0.2737 -0.2908 -0.0174
15636TIP3    H168323   3.960   0.343  16.365  2.4859 -0.8162 -0.7289
15636TIP3    H268324   3.930   0.396  16.226  0.1020 -0.1469 -0.0053
15637TIP3   OH268325   5.364   2.961   5.164  0.3385 -0.1743  0.0963
15637TIP3    H168326   5.452   2.999   5.161  0.0827  0.3953 -1.8593
15637TIP3    H268327   5.378   2.867   5.158  0.9043 -0.3569  3.0550
15638TIP3   OH268328   3.852   1.294  16.320  0.1255  0.2581 -0.0845
15638TIP3    H168329   3.934   1.280  16.367 -0.3511 -0.8081  0.4789
15638TIP3    H268330   3.790   1.321  16.388 -0.3426 -0.3843 -0.2470
15639TIP3   OH268331   3.402   2.953  12.966 -0.1978  0.4967  0.2737
15639TIP3    H168332   3.354   2.906  12.898 -0.9884  0.7359  0.6621
15639TIP3    H268333   3.467   2.890  12.997 -0.2784  0.1581 -0.2301
15640TIP3   OH268334   6.027   0.470   3.380 -0.3696  0.3761  0.0861
15640TIP3    H168335   6.087   0.544   3.390  1.6443 -0.9396 -1.4449
15640TIP3    H268336   5.993   0.454   3.468  2.5629  0.3850  1.3186
15641TIP3   OH268337   4.790   3.587  12.102 -0.2500  0.7130 -0.1285
15641TIP3    H168338   4.698   3.562  12.107 -0.0333 -0.2924 -0.9637
15641TIP3    H268339   4.801   3.623  12.014  0.6442 -1.3317 -0.9083
15642TIP3   OH268340   2.598   2.005  16.957 -0.3727 -0.3877 -0.0355
15642TIP3    H168341   2.655   1.930  16.975  0.1661  0.0179 -0.0181
15642TIP3    H268342   2.597   2.012  16.862 -1.8333 -1.4747 -0.1313
15643TIP3   OH268343   5.704   1.630   1.018  0.5053 -0.0074  0.6959
15643TIP3    H168344   5.767   1.702   1.018 -0.4903  0.9326  2.3463
15643TIP3    H268345   5.757   1.551   1.007  1.6081  0.9352 -1.3538
15644TIP3   OH268346   1.717   6.650  15.030 -0.5020  0.2024  0.8506
15644TIP3    H168347   1.788   6.713  15.021 -0.1582 -0.2227  0.5376
15644TIP3    H268348   1.666   6.661  14.950  0.1363 -0.6112  0.3095
15645TIP3   OH268349   6.012   4.583  16.863  0.1586 -0.2776  0.1504
15645TIP3    H168350   5.988   4.671  16.893  0.0171 -0.1318 -0.3840
15645TIP3    H268351   5.930   4.546  16.829  0.2228 -0.6075  0.3508
15646TIP3   OH268352   5.270   4.604   4.132  0.3250 -0.0928  0.2461
15646TIP3    H168353   5.351   4.648   4.160  0.7702 -1.1528  0.6740
15646TIP3    H268354   5.299   4.516   4.105 -0.8379 -0.8959  1.5323
15647TIP3   OH268355   2.231   6.081  14.755 -0.1632  0.3290  0.2366
15647TIP3    H168356   2.239   6.145  14.826  0.1285  0.1288  0.3882
15647TIP3    H268357   2.168   6.017  14.786 -2.7721  2.0765 -1.0853
15648TIP3   OH268358   6.708   2.847   1.127  0.3314 -0.3917 -0.4295
15648TIP3    H168359   6.769   2.810   1.190 -1.5524 -1.7384  0.7091
15648TIP3    H268360   6.689   2.776   1.066 -2.9625 -1.3944  1.5015
15649TIP3   OH268361   3.515   5.225   3.539 -0.3401  0.5875  0.7988
15649TIP3    H168362   3.567   5.181   3.606 -0.0233 -0.8618 -0.3496
15649TIP3    H268363   3.579   5.248   3.471 -0.8835  0.6548  0.3078
15650TIP3   OH268364   5.692   6.590  14.547 -0.1107 -0.2090 -0.3395
15650TIP3    H168365   5.608   6.632  14.564  0.4071  0.4596  0.6345
15650TIP3    H268366   5.672   6.496  14.544 -0.6648 -0.1966  1.5464
15651TIP3   OH268367   0.054   0.227  10.803 -0.3726  0.2153  0.1947
15651TIP3    H168368  -0.021   0.183  10.761 -1.1893  1.0159  0.7716
15651TIP3    H268369   0.119   0.235  10.733 -1.6368  1.3764 -0.9166
15652TIP3   OH268370   2.680   2.859  12.458  0.4939 -0.0458  0.0422
15652TIP3    H168371   2.671   2.954  12.464 -1.5375 -0.1525 -0.5647
15652TIP3    H268372   2.747   2.845  12.392 -0.1053  0.9767 -0.8024
15653TIP3   OH268373   4.345   1.287  16.486 -0.4870 -0.0534 -0.4024
15653TIP3    H168374   4.409   1.226  16.450 -1.1536 -0.4634 -0.9202
15653TIP3    H268375   4.377   1.307  16.574  1.8872  1.9818 -1.6018
15654TIP3   OH268376   0.252   3.631  15.504  0.0308  0.0406 -0.4158
15654TIP3    H168377   0.200   3.703  15.538 -0.3476 -0.3883 -0.0842
15654TIP3    H268378   0.252   3.566  15.574  0.8383 -0.0533 -0.4903
15655TIP3   OH268379   4.974   5.397  11.509 -0.3807 -0.3780  0.0329
15655TIP3    H168380   4.981   5.331  11.578 -0.9954  0.7859  1.2700
15655TIP3    H268381   5.043   5.461  11.529 -0.0898 -0.3892 -0.8737
15656TIP3   OH268382   2.042   1.602   3.289 -0.2019  0.3988 -0.0874
15656TIP3    H168383   1.953   1.620   3.322 -0.2276 -0.6834  0.4780
15656TIP3    H268384   2.054   1.665   3.218 -1.5615  0.3454 -0.4004
15657TIP3   OH268385   2.924   0.508  11.129  0.3814 -0.4554  0.0736
15657TIP3    H168386   3.007   0.488  11.087 -0.7766 -1.5062 -1.8504
15657TIP3    H268387   2.864   0.440  11.097 -0.9549 -0.4202  2.3004
15658TIP3   OH268388   4.077   3.624   0.487 -0.1684  0.0784  0.6410
15658TIP3    H168389   4.072   3.531   0.466 -0.0040  0.2410 -0.1293
15658TIP3    H268390   4.030   3.667   0.416  3.1040  0.8859 -1.2425
15659TIP3   OH268391   5.663   2.559   4.196 -0.6965 -0.0016 -0.5550
15659TIP3    H168392   5.612   2.605   4.129  1.3929  1.6757 -1.0785
15659TIP3    H268393   5.733   2.515   4.147  0.6935  1.0182  0.4552
15660TIP3   OH268394   5.834   4.051   1.951 -0.0726 -0.7585 -0.1641
15660TIP3    H168395   5.876   3.977   1.995 -2.1698 -1.3771  0.9505
15660TIP3    H268396   5.742   4.027   1.947 -0.4925  0.9052 -1.7025
15661TIP3   OH268397   2.784   2.060   4.502  0.1940 -0.3026 -0.0165
15661TIP3    H168398   2.691   2.053   4.477  0.1917  0.3947 -0.2235
15661TIP3    H268399   2.786   2.034   4.594 -0.5201  1.4974  0.5526
15662TIP3   OH268400   0.091   3.879   6.510 -0.0811 -0.2227 -0.1861
15662TIP3    H168401  -0.004   3.874   6.526  0.2158  0.6825  2.3106
15662TIP3    H268402   0.127   3.807   6.562  0.7413  0.7816  0.6613
15663TIP3   OH268403   4.603   0.799   3.108 -0.1323  0.4696 -0.4086
15663TIP3    H168404   4.635   0.715   3.076  0.5482 -0.1111  1.6149
15663TIP3    H268405   4.583   0.850   3.029 -0.9253 -1.7032 -1.6924
15664TIP3   OH268406   1.492   6.366   1.352 -0.3600 -0.7138 -0.4299
15664TIP3    H168407   1.435   6.290   1.344 -0.1047 -0.7645 -2.1983
15664TIP3    H268408   1.572   6.341   1.306  1.0685 -0.5669  1.8081
15665TIP3   OH268409   5.164   4.621  16.590  0.4508 -0.2066  0.1193
15665TIP3    H168410   5.232   4.686  16.605  2.0058 -0.3118 -4.7826
15665TIP3    H268411   5.198   4.542  16.633  1.5225  0.6741  0.9785
15666TIP3   OH268412   1.637   2.627  11.841  0.2993  0.1622 -0.0713
15666TIP3    H168413   1.570   2.566  11.870  1.5812 -2.1886 -1.6912
15666TIP3    H268414   1.594   2.683  11.777 -1.0537  1.4825  1.8877
15667TIP3   OH268415   5.782   0.042  11.698 -0.0207  0.3312  0.0398
15667TIP3    H168416   5.871   0.051  11.665  0.5971  0.1300  1.5550
15667TIP3    H268417   5.738   0.123  11.671  0.8158  0.7366 -0.1447
15668TIP3   OH268418   1.946   1.284  13.089 -0.0911 -0.4370 -0.1187
15668TIP3    H168419   2.019   1.284  13.028  0.7148 -0.7168  0.8281
15668TIP3    H268420   1.985   1.301  13.175 -0.9649 -1.6812  0.5714
15669TIP3   OH268421   2.437   6.036  12.940 -0.6125  0.4060  0.0975
15669TIP3    H168422   2.381   6.040  12.862  1.0946  4.8093 -1.2076
15669TIP3    H268423   2.526   6.028  12.905  0.0119 -1.9677  1.9441
15670TIP3   OH268424   0.058   4.448   1.233  0.1079  0.6155 -0.2064
15670TIP3    H168425   0.117   4.480   1.300 -0.9329  1.6666  0.2336
15670TIP3    H268426   0.060   4.515   1.164  0.5520 -0.0614 -0.8694
15671TIP3   OH268427   1.057   1.156   3.144  0.6175 -0.3964  0.4936
15671TIP3    H168428   0.982   1.211   3.122  1.8155  1.3629  0.6096
15671TIP3    H268429   1.113   1.212   3.198  1.4417 -2.0673  1.4661
15672TIP3   OH268430   0.772   0.916   0.737 -0.0875 -0.6393 -1.0385
15672TIP3    H168431   0.784   0.835   0.787  0.6530 -0.5290 -1.0364
15672TIP3    H268432   0.739   0.979   0.801  1.4056 -0.3359 -0.5340
15673TIP3   OH268433   5.297   3.985   0.202 -0.3056 -0.5344 -0.0091
15673TIP3    H168434   5.361   4.033   0.254  0.8994 -1.3795 -0.6510
15673TIP3    H268435   5.330   3.991   0.112 -2.0701  0.4677 -0.6374
15674TIP3   OH268436   3.522   4.933  16.898 -0.0287  0.7165  0.5658
15674TIP3    H168437   3.514   4.907  16.990 -1.0551  0.2377  0.3476
15674TIP3    H268438   3.435   4.919  16.861  0.7686 -0.6747 -0.9043
15675TIP3   OH268439   4.580   4.231   3.625  0.9387  0.0205  0.2550
15675TIP3    H168440   4.558   4.165   3.691  0.3279  1.1246  1.1881
15675TIP3    H268441   4.520   4.213   3.553  0.7453 -0.4151  0.5166
15676TIP3   OH268442   5.355   5.486  12.976  0.1352 -0.4693 -0.9079
15676TIP3    H168443   5.447   5.509  12.990  0.3478 -1.5345 -0.5077
15676TIP3    H268444   5.355   5.392  12.961 -0.9238 -0.5268 -0.6307
15677TIP3   OH268445   5.218   5.797  14.154 -0.2309 -0.0248  0.3826
15677TIP3    H168446   5.139   5.747  14.178 -0.9282  0.3573 -1.0230
15677TIP3    H268447   5.260   5.743  14.087  0.9365 -0.4117  1.3979
15678TIP3   OH268448   6.684   1.571   0.509  0.0026  0.0975  0.3932
15678TIP3    H168449   6.588   1.571   0.507 -0.0052  1.5018 -1.5771
15678TIP3    H268450   6.707   1.479   0.522 -1.5940 -0.2943  0.7200
15679TIP3   OH268451   4.399   4.923   0.047  0.4308  0.0532  0.1818
15679TIP3    H168452   4.468   4.864   0.075 -0.4772 -0.7248  0.8545
15679TIP3    H268453   4.360   4.881  -0.029 -0.9068 -0.7961  1.2863
15680TIP3   OH268454   1.143   4.116   4.014  0.0673 -0.5045  0.1674
15680TIP3    H168455   1.051   4.110   4.039  0.1325  1.1823  0.8974
15680TIP3    H268456   1.144   4.173   3.938  0.5616  0.0532  0.5801
15681TIP3   OH268457   1.268   0.747   2.729  0.4589  0.5163 -0.2258
15681TIP3    H168458   1.273   0.702   2.814 -2.9069 -2.5730 -1.3976
15681TIP3    H268459   1.344   0.715   2.681  0.3942 -0.6914  0.4215
15682TIP3   OH268460   4.569   2.002  11.067  0.1093 -0.7311  0.1247
15682TIP3    H168461   4.617   1.988  10.985 -1.9791 -3.8073 -0.7426
15682TIP3    H268462   4.531   2.089  11.058  2.2977  0.2240 -0.7883
15683TIP3   OH268463   2.022   5.852  11.424 -0.5326 -0.5122 -0.0519
15683TIP3    H168464   2.027   5.780  11.361 -2.9900 -1.7321  1.0286
15683TIP3    H268465   1.982   5.924  11.375 -1.1978 -1.0076 -0.2375
15684TIP3   OH268466   2.085   0.545  16.907  0.0106 -0.0489 -0.3366
15684TIP3    H168467   2.167   0.507  16.875 -0.2799  1.0838 -2.6185
15684TIP3    H268468   2.069   0.620  16.850 -1.8811  0.6448  0.9909
15685TIP3   OH268469   5.262   5.948  13.874 -0.0581 -0.0407 -0.0786
15685TIP3    H168470   5.286   5.923  13.785 -2.5165 -1.8430 -0.3699
15685TIP3    H268471   5.268   5.866  13.924  0.3238  0.7343  1.1953
15686TIP3   OH268472   0.244   3.878   2.550  0.0772 -0.6071  0.8790
15686TIP3    H168473   0.248   3.949   2.615 -0.0226 -0.1904  0.4404
15686TIP3    H268474   0.320   3.892   2.495 -0.0959 -0.6720  0.6225
15687TIP3   OH268475   5.401   2.150   0.243 -0.3614 -0.3025 -0.0566
15687TIP3    H168476   5.481   2.141   0.294 -0.8816  0.8319  1.0089
15687TIP3    H268477   5.421   2.218   0.178 -0.2326 -0.5463 -0.2737
15688TIP3   OH268478   6.036   4.020   5.464 -0.4105  0.6189  0.6479
15688TIP3    H168479   6.125   3.996   5.438  0.0890  0.4015  2.4265
15688TIP3    H268480   5.989   3.936   5.469 -1.3192  0.8569 -2.1209
15689TIP3   OH268481   6.182   4.532   3.313  0.6131  0.2191  0.6037
15689TIP3    H168482   6.159   4.441   3.297 -0.5061  0.3059  1.5662
15689TIP3    H268483   6.254   4.550   3.253 -2.1890  0.0848 -3.1621
15690TIP3   OH268484   4.950   4.857  16.286 -0.1672  0.0699 -0.5001
15690TIP3    H168485   4.919   4.779  16.330  1.9010 -0.6126 -0.1136
15690TIP3    H268486   5.044   4.842  16.273  0.1673  2.1778 -1.0648
15691TIP3   OH268487   0.973   0.703   2.791 -0.2641  0.2323 -0.1965
15691TIP3    H168488   0.895   0.709   2.736 -0.5724  1.5044  0.3375
15691TIP3    H268489   1.046   0.709   2.729 -0.5975  0.3077 -0.5880
15692TIP3   OH268490   3.860   1.011  16.233 -0.2286 -0.4420 -0.2207
15692TIP3    H168491   3.871   1.103  16.256  0.9236 -0.4518 -0.6650
15692TIP3    H268492   3.797   0.978  16.297  0.3765  0.3275  0.8018
15693TIP3   OH268493   0.628   5.784  11.342  0.2907 -0.4412 -0.6806
15693TIP3    H168494   0.649   5.757  11.431 -0.4912  1.3201  0.0959
15693TIP3    H268495   0.665   5.872  11.335 -2.4382  0.7913 -0.9274
15694TIP3   OH268496   1.024   1.010   6.086 -0.5875  0.1318 -0.3121
15694TIP3    H168497   0.969   0.941   6.049  0.3305 -1.0394  0.4410
15694TIP3    H268498   1.006   1.087   6.032 -2.0079 -0.5587 -0.8534
15695TIP3   OH268499   5.643   6.202   3.167  0.5754  0.1914 -0.2121
15695TIP3    H168500   5.655   6.274   3.229  0.1139 -0.2718  0.4338
15695TIP3    H268501   5.715   6.211   3.105  1.5713  0.1632  0.8998
15696TIP3   OH268502   2.756   0.843  16.171 -0.3228 -0.7623  0.6083
15696TIP3    H168503   2.693   0.882  16.232 -0.2341  2.1310 -0.9502
15696TIP3    H268504   2.704   0.783  16.118 -1.9157  1.5483 -0.6300
15697TIP3   OH268505   0.018   0.596  14.790 -0.1881  0.0943  0.8874
15697TIP3    H168506  -0.066   0.555  14.811 -0.1672 -0.5509 -0.2173
15697TIP3    H268507  -0.002   0.657  14.719  0.4092 -0.6932  0.0215
15698TIP3   OH268508   6.495   5.452  15.318  0.0388  0.5282 -0.3591
15698TIP3    H168509   6.460   5.402  15.393  1.3545  0.6402  0.3621
15698TIP3    H268510   6.492   5.543  15.347  1.0132  0.5293 -0.2302
15699TIP3   OH268511   0.695   6.370   3.647  0.2373 -0.2115  0.1935
15699TIP3    H168512   0.648   6.409   3.574  0.5421 -0.8851 -0.3833
15699TIP3    H268513   0.627   6.347   3.710 -0.1023 -0.2360 -0.1772
15700TIP3   OH268514   3.508   1.013  11.423  0.1897 -0.2781  0.2070
15700TIP3    H168515   3.473   0.927  11.402  1.0570 -1.1532  2.1357
15700TIP3    H268516   3.569   1.032  11.352  0.5353 -1.5760  0.1394
15701TIP3   OH268517   2.916   0.516   4.865  0.2996 -0.1025 -0.2121
15701TIP3    H168518   2.954   0.590   4.913  0.9525 -0.4293 -0.2092
15701TIP3    H268519   2.910   0.446   4.931 -1.1224  0.1896  0.0121
15702TIP3   OH268520   5.979   0.105   4.021  0.4715 -0.5374  0.2185
15702TIP3    H168521   6.034   0.028   4.004  1.2335 -0.1089  0.6878
15702TIP3    H268522   6.005   0.134   4.108  0.5900  0.5805 -0.1720
15703TIP3   OH268523   4.936   5.087  14.055  0.5470  0.3322  0.1800
15703TIP3    H168524   4.990   5.010  14.076  0.2102  0.0821  0.1312
15703TIP3    H268525   4.933   5.088  13.960 -1.3919 -0.9696  0.1842
15704TIP3   OH268526   0.865   2.027  16.225 -0.3303 -0.2461  0.4487
15704TIP3    H168527   0.808   1.960  16.189 -0.2017  0.5673 -1.4070
15704TIP3    H268528   0.954   1.999  16.202 -0.2053  0.0669  0.5373
15705TIP3   OH268529   6.578   3.161   0.435  0.2540 -0.2050 -0.3283
15705TIP3    H168530   6.606   3.155   0.526 -0.9570 -0.8256  0.0356
15705TIP3    H268531   6.508   3.226   0.435 -0.1364 -0.6116 -0.7084
15706TIP3   OH268532   3.234   0.032  16.117 -0.4437 -0.2484 -0.3066
15706TIP3    H168533   3.189   0.077  16.046  0.5098  2.0043  0.4410
15706TIP3    H268534   3.268  -0.048  16.076 -1.2626  0.1982 -1.9661
15707TIP3   OH268535   1.064   0.518  10.781  0.2055  0.0810  0.3004
15707TIP3    H168536   0.991   0.571  10.813 -1.7013 -1.4862 -1.2021
15707TIP3    H268537   1.085   0.556  10.696  0.4952 -0.0487  0.3141
15708TIP3   OH268538   1.024   2.725  12.629  0.4279 -0.1106  0.8488
15708TIP3    H168539   1.081   2.657  12.592  0.8955  0.6234  0.1981
15708TIP3    H268540   1.039   2.720  12.723 -1.1336 -2.3322  1.0840
15709TIP3   OH268541   6.149   3.809  13.009 -0.2421 -0.2864 -0.7680
15709TIP3    H168542   6.190   3.863  13.077  0.9055 -0.8118 -1.0289
15709TIP3    H268543   6.151   3.720  13.044 -0.3020 -0.4522 -1.1840
15710TIP3   OH268544   2.687   6.200   5.615  0.0038  0.5307 -0.2462
15710TIP3    H168545   2.707   6.220   5.524  2.0258 -2.2772 -0.5172
15710TIP3    H268546   2.762   6.233   5.665 -0.5725  1.0582  0.2969
15711TIP3   OH268547   5.960   0.152   0.094 -0.6896 -0.5922 -0.4393
15711TIP3    H168548   5.947   0.102   0.014  1.8016 -1.2430 -0.5261
15711TIP3    H268549   5.892   0.121   0.154 -0.0501 -3.1389 -0.9520
15712TIP3   OH268550   0.176   0.865  11.224  0.0088 -0.5731  0.0546
15712TIP3    H168551   0.190   0.779  11.263 -0.8314 -0.5710  0.3874
15712TIP3    H268552   0.117   0.849  11.151  0.5147 -0.3867 -0.4054
15713TIP3   OH268553   0.471   2.146   1.354 -0.2923  0.1255  0.4411
15713TIP3    H168554   0.553   2.177   1.316 -0.3837 -0.4272 -0.2266
15713TIP3    H268555   0.491   2.134   1.447  0.3001  0.2769  0.3390
15714TIP3   OH268556   6.026   4.835  17.022 -0.1990  0.4664  0.0192
15714TIP3    H168557   5.963   4.829  17.094 -0.7444 -0.5655 -0.5180
15714TIP3    H268558   6.051   4.927  17.020 -2.1108  1.0320 -0.0895
15715TIP3   OH268559   3.293   1.422   5.173 -0.0665 -0.5873  0.1858
15715TIP3    H168560   3.284   1.327   5.184  0.0630 -0.7512 -1.0075
15715TIP3    H268561   3.365   1.446   5.232  0.9133 -1.4715 -0.6182
15716TIP3   OH268562   1.858   3.707  14.028  0.0165  0.0878 -0.3604
15716TIP3    H168563   1.853   3.796  13.993  0.1794 -0.1234 -0.9312
15716TIP3    H268564   1.889   3.654  13.954  0.2279 -0.3903  0.0676
15717TIP3   OH268565   3.712   1.809  16.096  0.3937  0.1878  0.0223
15717TIP3    H168566   3.714   1.897  16.057 -0.6241 -0.4451 -1.5504
15717TIP3    H268567   3.619   1.787  16.101  0.6578 -1.5664 -1.5233
15718TIP3   OH268568   4.210   1.111   3.607  0.2571 -0.0714 -0.3967
15718TIP3    H168569   4.288   1.108   3.552  1.8980  0.9674  1.7370
15718TIP3    H268570   4.177   1.200   3.597 -1.4210 -0.8113 -2.1598
15719TIP3   OH268571   0.569   0.802   3.490  0.5180  0.4934  0.5088
15719TIP3    H168572   0.662   0.787   3.473  0.2989 -4.3309  2.0880
15719TIP3    H268573   0.525   0.772   3.411  0.2394 -1.7145  1.4460
15720TIP3   OH268574   4.703   1.475  17.338  0.3194  0.0336 -0.7488
15720TIP3    H168575   4.677   1.513  17.254 -1.4470 -0.9765 -0.7275
15720TIP3    H268576   4.780   1.422  17.317 -0.1609 -0.3042 -1.7932
15721TIP3   OH268577   3.039   5.189   1.262  0.4175  0.3506  0.3363
15721TIP3    H168578   3.030   5.192   1.358 -0.4012  0.7482  0.2593
15721TIP3    H268579   2.962   5.141   1.232  1.1558 -0.6026 -0.0749
15722TIP3   OH268580   2.968   3.147  16.822 -0.2869  0.1902 -0.2958
15722TIP3    H168581   2.916   3.086  16.875  0.4841 -0.5918 -0.4121
15722TIP3    H268582   3.041   3.094  16.790  0.6974  1.3051  0.0446
15723TIP3   OH268583   2.489   1.767  10.571  0.1008 -0.0060  0.1399
15723TIP3    H168584   2.550   1.692  10.576  0.8187  0.6381  1.8355
15723TIP3    H268585   2.419   1.737  10.513  1.1267 -1.4435 -0.4180
15724TIP3   OH268586   0.976   3.518  11.162 -0.5239  0.0455 -0.4582
15724TIP3    H168587   0.977   3.610  11.189 -0.5133  0.3932 -1.5703
15724TIP3    H268588   1.014   3.519  11.074  2.2686 -1.4172  0.6174
15725TIP3   OH268589   3.456   1.904  13.178  0.3099 -0.0084  0.2675
15725TIP3    H168590   3.424   1.967  13.114 -2.7692 -1.3637  0.2839
15725TIP3    H268591   3.417   1.933  13.261 -0.0473 -1.1565  0.5144
15726TIP3   OH268592   3.821   5.641   1.284  0.5834 -0.0448  0.2442
15726TIP3    H168593   3.728   5.623   1.298  0.5796  0.0696  0.3718
15726TIP3    H268594   3.852   5.674   1.369  0.3953  1.3575 -0.2063
15727TIP3   OH268595   3.387   5.872  11.679  0.2819  0.2759  0.0017
15727TIP3    H168596   3.386   5.779  11.654  0.6265  0.8681 -2.4789
15727TIP3    H268597   3.389   5.919  11.596  1.2206  2.5099  1.2028
15728TIP3   OH268598   1.581   3.726  13.203  0.2575  0.4153  0.0611
15728TIP3    H168599   1.581   3.635  13.235 -0.3873 -0.1004 -1.3389
15728TIP3    H268600   1.534   3.722  13.120 -1.3128  2.3377  0.7915
15729TIP3   OH268601   6.733   0.283  14.337 -0.0985  0.2888 -0.4223
15729TIP3    H168602   6.646   0.323  14.340 -0.8863 -1.1908 -1.9362
15729TIP3    H268603   6.793   0.358  14.335 -1.3968  1.3642 -0.8529
15730TIP3   OH268604   3.659   2.596   6.249  0.7394  0.5275 -0.1855
15730TIP3    H168605   3.731   2.533   6.248  0.3078 -0.0532  1.4389
15730TIP3    H268606   3.589   2.554   6.198  1.3638  0.8878 -1.3662
15731TIP3   OH268607   2.903   0.236   5.743  1.2435 -0.2967 -0.1613
15731TIP3    H168608   2.880   0.323   5.775  0.3951  0.3826 -2.3969
15731TIP3    H268609   2.866   0.176   5.807 -1.3910  0.9412 -0.3953
15732TIP3   OH268610   1.624   1.385  13.293 -0.2328  0.3273  0.7517
15732TIP3    H168611   1.713   1.366  13.323 -0.1505 -0.6509 -0.0547
15732TIP3    H268612   1.612   1.478  13.311  1.3133  0.7075  0.0026
15733TIP3   OH268613   0.211   5.264  15.205  0.2261  0.2151 -0.2144
15733TIP3    H168614   0.163   5.242  15.126  0.6311  0.0536 -0.4176
15733TIP3    H268615   0.303   5.252  15.182  0.4801  2.1049 -0.3353
15734TIP3   OH268616   2.727   5.706   0.995 -0.0445  0.1816 -0.7350
15734TIP3    H168617   2.784   5.630   1.008 -0.2949  0.2645  1.2084
15734TIP3    H268618   2.642   5.679   1.030 -0.1299  1.3348  0.0152
15735TIP3   OH268619   2.465   3.128   6.661 -0.1156  0.9195 -0.2768
15735TIP3    H168620   2.391   3.160   6.713  0.1992  2.7256 -0.8489
15735TIP3    H268621   2.493   3.205   6.611  2.4233  0.4080  0.2427
15736TIP3   OH268622   1.465   4.263   4.866 -0.3621  0.2525 -0.0397
15736TIP3    H168623   1.551   4.260   4.824 -0.0682 -0.2558  0.5848
15736TIP3    H268624   1.411   4.314   4.806  0.5910  1.3079 -0.0402
15737TIP3   OH268625   5.797   4.205  15.136 -0.1246 -0.4493 -0.3508
15737TIP3    H168626   5.706   4.181  15.150  0.5109 -2.4711  0.6477
15737TIP3    H268627   5.813   4.184  15.044 -0.8781  0.7979 -0.7941
15738TIP3   OH268628   3.556   4.419  15.655  0.1231 -0.0067 -0.1381
15738TIP3    H168629   3.641   4.404  15.696 -0.2970 -3.4832 -0.2074
15738TIP3    H268630   3.566   4.383  15.566 -0.6595  2.1129 -1.1513
15739TIP3   OH268631   3.439   1.647   0.025 -0.5842  0.1236  0.5569
15739TIP3    H168632   3.351   1.617   0.046 -1.5457 -0.4115 -3.3474
15739TIP3    H268633   3.486   1.567  -0.001 -0.0992  0.7700 -0.6591
15740TIP3   OH268634   4.175   0.882  14.543 -0.6406  0.2197 -0.2290
15740TIP3    H168635   4.111   0.924  14.487 -1.8348 -1.3363 -0.0864
15740TIP3    H268636   4.173   0.790  14.518  0.7169 -0.0608  0.5665
15741TIP3   OH268637   3.162   4.507   5.807 -0.1209 -0.0338  0.0242
15741TIP3    H168638   3.080   4.470   5.773  0.8931 -1.3314 -1.0927
15741TIP3    H268639   3.186   4.449   5.879  1.4522 -1.6646 -1.7060
15742TIP3   OH268640   5.514   5.127   2.829 -0.0349  0.4455  0.2381
15742TIP3    H168641   5.487   5.036   2.822 -1.0179  0.6821  0.6927
15742TIP3    H268642   5.474   5.157   2.912  1.2459  0.9582  0.6897
15743TIP3   OH268643   6.193   6.380   3.666  0.0006  0.3121  0.0477
15743TIP3    H168644   6.191   6.475   3.677  0.3678  0.2419  0.7635
15743TIP3    H268645   6.115   6.361   3.613 -0.9453  0.8485  1.1941
15744TIP3   OH268646   5.912   3.602   6.137  0.5904 -0.0069  0.0297
15744TIP3    H168647   6.001   3.621   6.107  1.6638  0.1828  3.0522
15744TIP3    H268648   5.880   3.685   6.170 -0.7019 -0.1191 -0.8618
15745TIP3   OH268649   5.929   3.554  13.874 -0.3323 -0.1926  0.1455
15745TIP3    H168650   5.889   3.534  13.790 -0.8078  0.6831  0.1636
15745TIP3    H268651   6.011   3.599  13.852  1.1495 -2.6917  0.0763
15746TIP3   OH268652   1.946   3.482   3.799  0.5975 -0.2317  0.0316
15746TIP3    H168653   2.021   3.523   3.843  1.0364 -0.9833  0.0200
15746TIP3    H268654   1.874   3.490   3.862 -0.3904  3.7190 -1.3375
15747TIP3   OH268655   2.826   1.930   6.756 -0.0455  0.2984  0.4124
15747TIP3    H168656   2.834   1.935   6.851  0.8776  1.2563  0.2978
15747TIP3    H268657   2.907   1.888   6.727  0.1010  0.8671 -0.0191
15748TIP3   OH268658   5.665   0.841   3.352  0.0666  0.1878  0.6034
15748TIP3    H168659   5.585   0.797   3.380 -0.4029  0.2050 -0.6592
15748TIP3    H268660   5.636   0.915   3.300  0.8894 -0.2349 -0.5122
15749TIP3   OH268661   0.174   5.802  13.021  0.1286  0.5682  0.6081
15749TIP3    H168662   0.147   5.747  12.948  0.2005  0.4934  0.6376
15749TIP3    H268663   0.205   5.882  12.980  0.7559  0.2835  0.5204
15750TIP3   OH268664   6.153   6.558   1.922  0.0677 -0.2202 -0.3880
15750TIP3    H168665   6.140   6.642   1.878 -1.7614 -0.4138 -0.3241
15750TIP3    H268666   6.190   6.502   1.855 -0.2098  0.2151 -0.9196
15751TIP3   OH268667   6.159   1.513  11.331 -0.4625 -0.4691  1.1196
15751TIP3    H168668   6.102   1.451  11.286 -1.3104  1.3208 -0.4320
15751TIP3    H268669   6.241   1.511  11.281 -0.2930 -0.7282  1.4053
15752TIP3   OH268670   0.264   6.741   5.464  0.3487  0.3367  0.0423
15752TIP3    H168671   0.247   6.649   5.482 -0.9774  0.5115 -0.1783
15752TIP3    H268672   0.177   6.781   5.459  0.9176  1.8452  1.3825
15753TIP3   OH268673   5.962   2.846   1.512  0.0605 -0.2390  0.1934
15753TIP3    H168674   5.963   2.818   1.421 -0.0774 -0.0603  0.1351
15753TIP3    H268675   6.027   2.917   1.516  0.0533 -0.2342  0.2284
15754TIP3   OH268676   1.967   2.923  15.933  0.6591  0.0805  0.4451
15754TIP3    H168677   2.058   2.939  15.909  0.4907  2.8188  1.3515
15754TIP3    H268678   1.917   2.990  15.887 -0.7121 -0.3215  1.2739
15755TIP3   OH268679   1.014   0.109   3.998  0.8335 -0.0863 -0.1372
15755TIP3    H168680   1.081   0.105   3.930  0.7057 -0.5564 -0.2378
15755TIP3    H268681   0.967   0.190   3.980  0.4084 -0.5130 -0.9917
15756TIP3   OH268682   5.462   2.765  15.507 -0.6568 -0.1004  0.2705
15756TIP3    H168683   5.474   2.860  15.510  1.6924 -0.3448  0.4284
15756TIP3    H268684   5.421   2.743  15.590 -1.2176  0.7470  0.2352
15757TIP3   OH268685   0.112   0.019  15.429 -0.1250  0.3680 -0.5004
15757TIP3    H168686   0.159  -0.005  15.349 -2.6163 -0.1606 -1.8899
15757TIP3    H268687   0.032  -0.033  15.427 -0.6885  1.0068  1.9129
15758TIP3   OH268688   1.886   1.876   1.496 -0.4256 -0.5171 -0.5091
15758TIP3    H168689   1.931   1.800   1.531 -1.3675 -0.7636  0.1883
15758TIP3    H268690   1.903   1.946   1.559  1.2316  0.1443 -1.6164
15759TIP3   OH268691   6.057   0.897  14.997 -0.1885  1.0492 -0.1577
15759TIP3    H168692   6.051   0.990  14.975 -0.0508  1.1763  0.3353
15759TIP3    H268693   6.126   0.892  15.063 -0.8552  0.7300  0.5272
15760TIP3   OH268694   4.228   0.493  16.860 -0.3857 -0.0668  0.0604
15760TIP3    H168695   4.254   0.421  16.917  0.2488  0.4337  0.4175
15760TIP3    H268696   4.135   0.477  16.842  0.0099 -1.6095 -0.8085
15761TIP3   OH268697   0.677   1.714  15.225  0.0224 -0.3740  0.4039
15761TIP3    H168698   0.668   1.807  15.246 -2.7251 -0.5213  0.1470
15761TIP3    H268699   0.711   1.713  15.135  1.6164  0.3237  0.9682
15762TIP3   OH268700   4.252   3.422   2.907  0.1430  0.0501  0.2416
15762TIP3    H168701   4.335   3.383   2.881 -0.6953 -0.7664 -1.3995
15762TIP3    H268702   4.273   3.514   2.926  1.8257 -0.7165  2.4059
15763TIP3   OH268703   4.743   1.422  15.283  0.2324  0.3629  0.4634
15763TIP3    H168704   4.767   1.465  15.201  0.3020  1.0781  0.8532
15763TIP3    H268705   4.827   1.404  15.325  0.2260 -0.6143  0.0776
15764TIP3   OH268706   2.341   0.605   3.926  0.1359  0.0531 -0.2919
15764TIP3    H168707   2.366   0.697   3.920  0.7321 -0.1372 -0.8457
15764TIP3    H268708   2.419   0.560   3.960 -0.6181 -0.0591  1.4129
15765TIP3   OH268709   4.325   0.340   1.202  0.1547  0.4300 -0.1521
15765TIP3    H168710   4.235   0.368   1.218 -0.0698 -0.6190  0.5120
15765TIP3    H268711   4.366   0.414   1.157 -0.4438  1.7823  1.4054
15766TIP3   OH268712   4.761   6.115   6.341  0.0890  0.0227  0.3355
15766TIP3    H168713   4.756   6.184   6.408  1.6445 -1.9718  2.7031
15766TIP3    H268714   4.821   6.151   6.275  0.7574  1.0341  1.4389
15767TIP3   OH268715   6.502   2.914   3.526 -0.1955  0.4075  0.2842
15767TIP3    H168716   6.587   2.894   3.486  0.5801  0.6329  1.7621
15767TIP3    H268717   6.499   3.009   3.532 -1.4872  0.5477 -1.6426
15768TIP3   OH268718   1.999   0.009  11.041 -0.8448  0.4940  0.2484
15768TIP3    H168719   1.922  -0.042  11.013  1.1489 -0.8503 -3.6309
15768TIP3    H268720   2.061  -0.057  11.071  0.2043  1.0584 -0.6176
15769TIP3   OH268721   3.513   1.535  13.901 -0.0917  0.0284  0.9853
15769TIP3    H168722   3.587   1.474  13.903  0.1773  0.3428  0.7320
15769TIP3    H268723   3.453   1.502  13.969 -0.6396 -1.3721 -0.1320
15770TIP3   OH268724   6.342   4.157  17.079  0.2513  0.4859  0.4296
15770TIP3    H168725   6.275   4.215  17.117  1.1790  1.6662  0.2963
15770TIP3    H268726   6.292   4.081  17.048 -0.7792  0.3461  2.2578
15771TIP3   OH268727   4.475   5.315   3.646  0.1471  0.5709  0.1059
15771TIP3    H168728   4.424   5.352   3.573 -0.5447 -1.2812 -0.4065
15771TIP3    H268729   4.531   5.249   3.605  0.7960  0.5037  1.0759
15772TIP3   OH268730   0.499   6.320  13.314 -0.5625  0.9377  0.6619
15772TIP3    H168731   0.413   6.314  13.355 -0.9453 -1.2617 -0.3181
15772TIP3    H268732   0.553   6.256  13.361 -0.8969 -1.3216 -1.7588
15773TIP3   OH268733   0.347   1.666   5.555 -0.0586  0.0460  0.5141
15773TIP3    H168734   0.342   1.621   5.471  1.5789  1.4660 -0.4167
15773TIP3    H268735   0.263   1.647   5.598 -1.4623  0.2658 -1.9624
15774TIP3   OH268736   2.158   2.303   5.644  0.0911  0.2254  0.4093
15774TIP3    H168737   2.242   2.300   5.690 -0.2364 -0.5649  0.9734
15774TIP3    H268738   2.126   2.213   5.647 -1.4234  0.7548  1.4275
15775TIP3   OH268739   6.088   2.747   2.783  0.0290  0.0421  0.2726
15775TIP3    H168740   6.050   2.827   2.819 -0.5173 -1.1599  2.5635
15775TIP3    H268741   6.172   2.737   2.829 -0.9544 -1.8515  1.7880
15776TIP3   OH268742   3.463   3.232   4.864 -0.0571  0.0981  0.2257
15776TIP3    H168743   3.447   3.218   4.958 -1.5440 -1.2336 -0.1950
15776TIP3    H268744   3.376   3.242   4.826  0.3384 -1.9217 -1.3715
15777TIP3   OH268745   4.664   6.055   2.315 -0.3923  0.1610  0.2104
15777TIP3    H168746   4.637   6.139   2.351  0.9907  0.5503  0.3882
15777TIP3    H268747   4.655   5.993   2.388 -0.8152  0.2628  0.2502
15778TIP3   OH268748   0.731   4.606  13.415  0.6423  0.7036 -0.4273
15778TIP3    H168749   0.749   4.573  13.327 -0.5050 -0.4989 -0.2319
15778TIP3    H268750   0.678   4.685  13.400 -0.0820  0.1548 -0.8136
15779TIP3   OH268751   5.319   6.715   4.868 -0.2426 -0.1729  0.0725
15779TIP3    H168752   5.259   6.707   4.942  0.4680  1.7070  0.9262
15779TIP3    H268753   5.270   6.682   4.793 -1.5782 -0.6011  1.0897
15780TIP3   OH268754   5.341   4.338  13.260 -0.2465  0.4024 -0.1779
15780TIP3    H168755   5.264   4.384  13.226  0.0470  0.0669 -1.3405
15780TIP3    H268756   5.412   4.401  13.253 -0.5526  1.0460  1.7834
15781TIP3   OH268757   6.578   3.015  11.071  0.0623 -0.5677  0.4652
15781TIP3    H168758   6.591   3.105  11.040 -1.9980 -0.5997 -0.6675
15781TIP3    H268759   6.619   2.960  11.004  0.1776 -0.5087  0.4866
15782TIP3   OH268760   3.231   5.656  11.051  0.5426 -0.2500  0.0857
15782TIP3    H168761   3.240   5.671  10.957 -1.4306 -2.5790 -0.5611
15782TIP3    H268762   3.190   5.736  11.085  1.1132  0.5408 -1.0299
15783TIP3   OH268763   4.454   0.610  16.689 -0.7504 -0.0007 -0.6086
15783TIP3    H168764   4.387   0.567  16.743 -1.4070 -0.9802 -2.1487
15783TIP3    H268765   4.498   0.670  16.749 -2.6576  0.2893  0.5775
15784TIP3   OH268766   4.626   1.942  13.428  0.0515 -0.0185  0.0819
15784TIP3    H168767   4.550   1.895  13.462  2.0764 -2.4674  1.6398
15784TIP3    H268768   4.607   1.954  13.335 -2.3826 -0.0984  0.4949
15785TIP3   OH268769   6.718   4.445  16.341  0.0953 -0.2875  0.2051
15785TIP3    H168770   6.749   4.528  16.378 -0.5766 -0.9640  2.4273
15785TIP3    H268771   6.789   4.383  16.358 -0.6647 -0.8593  1.4740
15786TIP3   OH268772   5.178   5.240  12.924 -0.3462 -0.3510  0.3756
15786TIP3    H168773   5.114   5.292  12.973 -0.1455 -0.3592  0.6538
15786TIP3    H268774   5.126   5.181  12.871 -0.5692 -0.4786  0.7297
15787TIP3   OH268775   2.002   5.019   2.379 -0.5970 -0.1369  0.3795
15787TIP3    H168776   1.975   5.107   2.352 -0.9230 -0.5804 -0.7838
15787TIP3    H268777   1.925   4.964   2.365  0.3907 -1.1227 -1.5264
15788TIP3   OH268778   5.424   4.785   0.547  1.1866 -0.2479 -0.2389
15788TIP3    H168779   5.460   4.811   0.462  1.5971 -1.7608 -0.5618
15788TIP3    H268780   5.476   4.709   0.573  2.2049  1.1689  2.2041
15789TIP3   OH268781   3.474   1.046  13.993 -0.1047  0.3385 -0.0578
15789TIP3    H168782   3.518   0.985  13.934 -2.6217 -0.7973 -0.9070
15789TIP3    H268783   3.535   1.056  14.066  2.5068  0.6559 -2.0984
15790TIP3   OH268784   1.515   3.082   5.886 -0.4666 -0.1456  0.2213
15790TIP3    H168785   1.447   3.048   5.945  0.5492  1.9466  2.7945
15790TIP3    H268786   1.586   3.018   5.894 -0.8229 -0.5550  0.2032
15791TIP3   OH268787   0.654   6.018  15.153  0.3078 -0.5361 -0.2614
15791TIP3    H168788   0.622   6.070  15.226 -1.1172 -2.4425  0.5550
15791TIP3    H268789   0.606   6.051  15.077 -0.5444 -0.6114  0.2360
15792TIP3   OH268790   3.644   1.062   0.118  0.1982 -0.9638 -0.7813
15792TIP3    H168791   3.639   1.157   0.126  1.8439 -0.9798  1.4739
15792TIP3    H268792   3.640   1.030   0.208 -0.3944 -3.0542 -1.4928
15793TIP3   OH268793   3.210   0.330   4.711 -0.4476  0.1665 -0.1418
15793TIP3    H168794   3.173   0.391   4.648  0.6448  0.1035 -0.8758
15793TIP3    H268795   3.284   0.377   4.749  0.3855 -0.6645 -0.6925
15794TIP3   OH268796   5.856   5.744  13.509  0.0099 -0.0090  0.2335
15794TIP3    H168797   5.762   5.762  13.510 -0.1576 -0.7105 -0.7238
15794TIP3    H268798   5.897   5.829  13.493 -0.5171  0.1657 -0.2286
15795TIP3   OH268799   5.294   1.156  11.912 -0.5004  0.0773  0.1809
15795TIP3    H168800   5.239   1.079  11.924 -0.8713  0.1034 -1.1849
15795TIP3    H268801   5.350   1.134  11.838 -1.3001  1.4741 -0.8931
15796TIP3   OH268802   5.844   4.006  17.194  0.1207 -0.4831 -0.1611
15796TIP3    H168803   5.858   3.913  17.174  0.7664 -0.2283 -0.9574
15796TIP3    H268804   5.750   4.012  17.213  0.1188 -1.3423  0.1661
15797TIP3   OH268805   0.361   1.742  14.471  0.5631  0.0205 -0.9595
15797TIP3    H168806   0.352   1.776  14.382 -0.1038 -0.2958 -1.0230
15797TIP3    H268807   0.291   1.676  14.478  0.8989 -0.2778 -0.3540
15798TIP3   OH268808   5.305   4.759  13.435  0.6444 -0.3143 -0.1061
15798TIP3    H168809   5.224   4.803  13.458  0.3969 -0.6837 -0.2622
15798TIP3    H268810   5.280   4.667  13.423  0.6492 -0.0796 -2.3859
15799TIP3   OH268811   1.565   3.022   3.310 -0.1627  0.3726 -0.0128
15799TIP3    H168812   1.497   3.084   3.283 -1.3817 -0.0610  1.8691
15799TIP3    H268813   1.630   3.075   3.355 -0.4839  0.4649  0.3401
15800TIP3   OH268814   5.144   0.345   2.787 -0.3435  0.3546 -0.1613
15800TIP3    H168815   5.080   0.278   2.764  0.1095  0.1345 -0.7795
15800TIP3    H268816   5.110   0.425   2.746 -0.6881  0.4382  0.2692
15801TIP3   OH268817   2.061   3.443  17.190  0.1962 -0.0775 -0.0182
15801TIP3    H168818   2.076   3.414  17.100 -0.2762 -1.0810  0.2185
15801TIP3    H268819   2.098   3.531  17.192  1.0414 -0.3836 -0.9478
15802TIP3   OH268820   4.022   6.642   2.728 -1.3051 -0.2355 -0.4216
15802TIP3    H168821   4.050   6.560   2.769 -0.2106  0.6152  0.6015
15802TIP3    H268822   4.101   6.696   2.726 -1.7945  0.4748 -1.9228
15803TIP3   OH268823   0.276   4.700  14.972  0.0095  0.4712 -0.9868
15803TIP3    H168824   0.334   4.767  14.937 -0.2448  0.4611 -1.4378
15803TIP3    H268825   0.330   4.650  15.033 -0.0527  1.7348  0.1852
15804TIP3   OH268826   2.737   5.941  16.452  0.4895 -0.0885  0.0226
15804TIP3    H168827   2.796   5.937  16.377  1.7670  0.1015  0.9838
15804TIP3    H268828   2.727   5.849  16.479  0.6399 -0.0886  0.0791
15805TIP3   OH268829   6.309   6.306   4.996 -0.2207  0.1242 -0.0628
15805TIP3    H168830   6.334   6.242   4.929  2.1481 -1.0327  1.7883
15805TIP3    H268831   6.274   6.380   4.946 -0.5225 -1.4895 -2.4300
15806TIP3   OH268832   2.003   0.177  16.810  0.0548  0.3801 -0.2207
15806TIP3    H168833   2.066   0.222  16.754  0.7687 -0.8510 -0.4574
15806TIP3    H268834   2.056   0.135  16.877 -0.8192  2.1372  1.6659
15807TIP3   OH268835   3.046   0.138   2.586  0.0254  0.5863  0.0715
15807TIP3    H168836   3.001   0.144   2.670 -0.7914  0.2471 -0.3231
15807TIP3    H268837   3.101   0.060   2.593  1.1846  1.4373  0.8333
15808TIP3   OH268838   5.587   0.746  11.318 -0.4624 -0.0890 -0.7804
15808TIP3    H168839   5.624   0.821  11.365 -0.8211 -0.4170  0.0532
15808TIP3    H268840   5.658   0.715  11.262 -0.7393  1.7554 -2.2522
15809TIP3   OH268841   3.110   0.627   2.542  0.0928  0.1064 -0.3788
15809TIP3    H168842   3.031   0.666   2.504 -0.3405 -1.5562 -1.3071
15809TIP3    H268843   3.091   0.533   2.544  1.7347 -0.2413  0.1842
15810TIP3   OH268844   2.489   3.716   1.361 -0.5256 -0.0530  0.0838
15810TIP3    H168845   2.455   3.740   1.275 -0.4260  0.0865  0.0831
15810TIP3    H268846   2.582   3.734   1.356 -0.4411 -0.5022  0.0631
15811TIP3   OH268847   6.042   2.688   3.629  0.2809  0.0678 -0.0928
15811TIP3    H168848   6.048   2.783   3.617  0.4761 -0.1721 -2.3255
15811TIP3    H268849   6.003   2.656   3.548 -1.3124 -1.6395  1.2632
15812TIP3   OH268850   5.216   4.099  12.437 -0.1847 -0.1413  1.0937
15812TIP3    H168851   5.149   4.069  12.375 -0.9136  0.5423  1.5318
15812TIP3    H268852   5.218   4.195  12.426  0.7963 -0.1538  1.0217
15813TIP3   OH268853   5.042   2.869  13.617 -0.1109  0.3281  0.2172
15813TIP3    H168854   5.129   2.849  13.651 -0.3422  1.1148  1.3351
15813TIP3    H268855   5.048   2.959  13.587  0.1317 -0.3964 -2.0913
15814TIP3   OH268856   3.843   0.881   0.014 -0.1143  0.1965  0.6207
15814TIP3    H168857   3.806   0.966   0.037 -2.4843 -0.2670 -1.1077
15814TIP3    H268858   3.871   0.891  -0.077 -0.3711 -0.8294  0.4135
15815TIP3   OH268859   1.009   6.748   6.246 -0.2048  0.3394  0.0201
15815TIP3    H168860   1.009   6.655   6.222  2.2881  0.3347 -0.1283
15815TIP3    H268861   0.921   6.778   6.222 -1.0859 -1.9505  0.0840
15816TIP3   OH268862   5.042   3.431  16.567 -0.5216 -0.3943  0.0688
15816TIP3    H168863   5.007   3.387  16.645  2.0012 -0.4828  1.2718
15816TIP3    H268864   5.084   3.361  16.517  2.1674  0.2720  1.2151
15817TIP3   OH268865   0.371   3.964   4.561 -0.2847  0.0183 -0.9072
15817TIP3    H168866   0.447   4.010   4.598  0.4926 -1.2544 -0.8386
15817TIP3    H268867   0.337   4.023   4.494  1.4187  0.1976 -1.6730
15818TIP3   OH268868   3.786   6.454   3.351 -0.7149  0.5670 -0.3546
15818TIP3    H168869   3.783   6.370   3.306  0.5372  0.8047 -0.9160
15818TIP3    H268870   3.728   6.511   3.300 -1.0535  0.2295 -0.3505
15819TIP3   OH268871   5.846   0.635  11.570  0.3923  0.0893 -0.2706
15819TIP3    H168872   5.810   0.681  11.646  0.7829 -2.9939  1.9731
15819TIP3    H268873   5.783   0.566  11.552  1.8553 -1.1793 -0.6942
15820TIP3   OH268874   6.409   4.609  14.671 -0.5301  0.0910 -0.0920
15820TIP3    H168875   6.386   4.517  14.660  1.2419 -0.4841  0.7949
15820TIP3    H268876   6.362   4.637  14.749 -0.4596 -0.2787  0.0823
15821TIP3   OH268877   1.613   5.756   1.217 -0.3703  0.2595  0.2672
15821TIP3    H168878   1.668   5.726   1.145 -0.3900  2.8026 -0.9086
15821TIP3    H268879   1.523   5.739   1.187 -0.3505  0.5103  0.0583
15822TIP3   OH268880   5.692   3.866   1.643  0.2316  1.0458 -0.0006
15822TIP3    H168881   5.726   3.788   1.598 -0.1334  0.4740  0.6935
15822TIP3    H268882   5.765   3.928   1.640  0.1181  1.1607 -1.6599
15823TIP3   OH268883   2.268   1.513   2.088  0.3504  0.2273 -0.2716
15823TIP3    H168884   2.272   1.598   2.044  0.1761 -0.1907 -1.1254
15823TIP3    H268885   2.181   1.510   2.126  1.5009  1.8889  2.8720
15824TIP3   OH268886   3.998   3.752  15.485  0.0235  0.2024  0.2973
15824TIP3    H168887   3.994   3.729  15.392  0.6361 -2.0949  0.7608
15824TIP3    H268888   3.906   3.750  15.514 -0.2359  1.5514 -0.3451
15825TIP3   OH268889   6.223   3.138  15.409  0.1385  0.5540 -0.5151
15825TIP3    H168890   6.239   3.135  15.315 -0.4171 -0.1979 -0.5920
15825TIP3    H268891   6.222   3.046  15.436  0.0687  0.7575  0.1862
15826TIP3   OH268892   4.069   6.363   2.592  0.2262 -0.2088  0.5292
15826TIP3    H168893   4.013   6.299   2.636 -0.3343  0.5036  0.8798
15826TIP3    H268894   4.027   6.377   2.507  0.8086 -0.9094  0.1118
15827TIP3   OH268895   4.767   0.878  11.343 -0.0811 -0.1889 -0.6209
15827TIP3    H168896   4.855   0.910  11.362 -0.0108 -0.9561  0.4552
15827TIP3    H268897   4.780   0.785  11.325 -0.9697 -1.0600  2.6081
15828TIP3   OH268898   4.527   3.023   6.012  0.1900 -0.3099 -0.1767
15828TIP3    H168899   4.583   2.950   5.984  2.9415  2.1265 -1.6260
15828TIP3    H268900   4.505   3.068   5.930  0.1502  1.5125  0.7958
15829TIP3   OH268901   6.468   5.256  13.305  0.7500 -0.6752  0.2065
15829TIP3    H168902   6.461   5.310  13.384  0.4297  1.5421 -1.2698
15829TIP3    H268903   6.381   5.218  13.294  0.1328  0.8661 -0.3348
15830TIP3   OH268904   5.247   3.206  12.482 -0.1864 -0.0229 -0.1921
15830TIP3    H168905   5.180   3.139  12.472 -1.0625  1.0425 -1.8900
15830TIP3    H268906   5.199   3.288  12.484  1.0690  0.7967 -1.8053
15831TIP3   OH268907   5.651   5.822   6.383 -0.0819 -0.2602  0.3259
15831TIP3    H168908   5.651   5.726   6.387 -0.6895 -0.2423  0.9945
15831TIP3    H268909   5.571   5.848   6.430 -0.7168  0.5386 -1.1428
15832TIP3   OH268910   3.177   1.544   2.471  0.2113  0.5727 -0.9959
15832TIP3    H168911   3.207   1.461   2.433  1.5621  0.3739  0.4212
15832TIP3    H268912   3.085   1.549   2.446 -0.2793 -2.0177 -0.0024
15833TIP3   OH268913   0.532   4.762   5.324 -0.3595 -0.2533  0.0159
15833TIP3    H168914   0.529   4.729   5.234 -0.5357  3.2432 -1.4294
15833TIP3    H268915   0.608   4.820   5.325  0.2800 -1.0295  2.5206
15834TIP3   OH268916   3.647   6.634  11.807  0.4746 -0.0683 -0.4856
15834TIP3    H168917   3.570   6.605  11.856 -0.2846  0.6081 -1.2455
15834TIP3    H268918   3.683   6.554  11.770 -0.1202 -0.3431 -0.4831
15835TIP3   OH268919   4.489   2.566   1.250  0.2695 -0.0053 -0.0959
15835TIP3    H168920   4.584   2.553   1.252  0.2358 -0.2173  0.5415
15835TIP3    H268921   4.455   2.486   1.210  0.2137 -0.9992  1.8155
15836TIP3   OH268922   1.886   0.891   5.098 -0.3444 -0.6970  0.0602
15836TIP3    H168923   1.848   0.814   5.141 -1.0260 -1.3321 -1.6059
15836TIP3    H268924   1.849   0.890   5.010  0.9373  0.6074 -0.5327
15837TIP3   OH268925   5.643   0.723   2.812  0.1728 -0.2459 -0.5630
15837TIP3    H168926   5.697   0.690   2.883 -0.3710  1.0128  0.4832
15837TIP3    H268927   5.555   0.694   2.833 -0.4644  2.3443  0.8171
15838TIP3   OH268928   0.876   1.847  14.332 -0.5822  0.4589  0.3071
15838TIP3    H168929   0.935   1.871  14.261  0.0825  0.2322  0.7714
15838TIP3    H268930   0.795   1.821  14.289 -0.6450  1.6012 -0.2996
15839TIP3   OH268931   4.187   3.874   5.267  0.1921  0.2935 -0.0158
15839TIP3    H168932   4.185   3.962   5.227  0.4909  0.3259  0.0385
15839TIP3    H268933   4.114   3.875   5.329 -1.8277 -0.5443 -2.1926
15840TIP3   OH268934   5.254   6.134  10.519  0.0193  0.5890 -0.7527
15840TIP3    H168935   5.301   6.129  10.436  1.1423 -0.8889 -0.0640
15840TIP3    H268936   5.164   6.106  10.498  0.2160  0.5280 -1.5238
15841TIP3   OH268937   3.772   6.253   3.117  0.2773 -0.9551 -0.2469
15841TIP3    H168938   3.850   6.236   3.065  0.5263 -0.8392  0.0862
15841TIP3    H268939   3.699   6.246   3.055  0.7108  1.5188 -1.1676
15842TIP3   OH268940   4.435   0.538  17.190  0.3261  0.4524  0.4845
15842TIP3    H168941   4.429   0.546  17.285  0.1239  1.6312  0.3928
15842TIP3    H268942   4.492   0.610  17.163  2.0723 -1.0762 -0.1277
15843TIP3   OH268943   1.948   5.521  13.308  0.0528  0.8545 -0.1267
15843TIP3    H168944   1.991   5.606  13.305 -0.9945  1.3974 -2.6323
15843TIP3    H268945   2.004   5.464  13.257 -0.7477  0.8671 -1.0554
15844TIP3   OH268946   5.417   5.519  15.824  0.3827 -0.1664  0.0732
15844TIP3    H168947   5.427   5.568  15.905  0.2207  0.6840 -0.4094
15844TIP3    H268948   5.482   5.558  15.765 -0.0611 -0.2345 -0.4599
15845TIP3   OH268949   4.858   6.229   3.372 -0.8649  0.2405  0.2709
15845TIP3    H168950   4.942   6.272   3.351 -0.6999 -0.1712  0.0845
15845TIP3    H268951   4.876   6.182   3.453 -1.3534  1.3973  1.0783
15846TIP3   OH268952   2.582   1.008  13.890  0.2443  0.3435  0.2840
15846TIP3    H168953   2.637   1.045  13.959  0.9754 -0.0191 -0.0783
15846TIP3    H268954   2.552   0.924  13.925 -0.0356  0.5189  0.4633
15847TIP3   OH268955   1.768   0.134  12.438 -0.0779 -0.2912  0.3153
15847TIP3    H168956   1.793   0.119  12.529  1.0376  3.0367  0.6806
15847TIP3    H268957   1.723   0.218  12.438 -0.2484 -0.2984 -2.1705
15848TIP3   OH268958   4.553   6.609   0.238 -0.1993 -0.9755 -0.4953
15848TIP3    H168959   4.619   6.554   0.197 -0.1329 -1.8617  0.7641
15848TIP3    H268960   4.603   6.679   0.281 -0.2290 -0.4138 -1.3638
15849TIP3   OH268961   2.557   5.380   2.716 -0.6404  0.1368 -0.2054
15849TIP3    H168962   2.504   5.449   2.675 -0.7143 -0.4045 -1.0465
15849TIP3    H268963   2.501   5.302   2.712 -1.3004  0.4016  2.4081
15850TIP3   OH268964   4.205   6.085  16.331  0.3565 -0.3905  0.0520
15850TIP3    H168965   4.157   6.031  16.393  0.4059 -0.7230 -0.1980
15850TIP3    H268966   4.253   6.023  16.276  1.4549 -0.0495  0.5988
15851TIP3   OH268967   4.598   5.854   2.101  0.3692  0.2731 -0.6710
15851TIP3    H168968   4.505   5.876   2.106  0.2258 -0.5251  0.6354
15851TIP3    H268969   4.642   5.927   2.143  0.1088 -0.5482  1.1071
15852TIP3   OH268970   1.004   2.341   2.921  0.0190 -0.2206  0.5484
15852TIP3    H168971   1.057   2.409   2.880 -0.7028 -0.1403 -0.2776
15852TIP3    H268972   1.048   2.324   3.004  2.2048 -1.1839 -0.6889
15853TIP3   OH268973   6.186   6.116  14.331  0.2292 -0.2222 -0.8390
15853TIP3    H168974   6.114   6.127  14.269 -1.2502  0.5369  0.9218
15853TIP3    H268975   6.150   6.146  14.415  1.9265 -1.7921  0.5291
15854TIP3   OH268976   3.815   2.782   4.302  0.2045 -0.0938  0.0151
15854TIP3    H168977   3.859   2.698   4.292  1.8185  0.7388 -0.2669
15854TIP3    H268978   3.829   2.826   4.218 -0.9581  0.3125  0.0220
15855TIP3   OH268979   0.117   2.162  15.340  0.4284  0.1274  0.3715
15855TIP3    H168980   0.144   2.251  15.320  1.7005 -0.5684 -1.1447
15855TIP3    H268981   0.198   2.115  15.356 -0.2371 -0.7564  1.3102
15856TIP3   OH268982   4.569   4.819  13.210 -0.4740  0.4165  0.5033
15856TIP3    H168983   4.622   4.802  13.132 -1.4280  1.4534 -0.4096
15856TIP3    H268984   4.623   4.878  13.263 -0.2463  0.5606  0.1195
15857TIP3   OH268985   4.161   3.850   3.861 -0.5005  0.0661  0.0378
15857TIP3    H168986   4.244   3.821   3.899  1.4468  3.2469 -1.4226
15857TIP3    H268987   4.152   3.941   3.888 -4.2661 -0.4565  1.1513
15858TIP3   OH268988   1.493   1.375  11.746  0.7894  0.0722  0.1552
15858TIP3    H168989   1.549   1.312  11.699  2.1097  1.4369 -0.1871
15858TIP3    H268990   1.406   1.363  11.709  0.8685 -1.9254  0.4989
15859TIP3   OH268991   4.776   5.892   3.005  0.3215  0.3468 -0.3525
15859TIP3    H168992   4.845   5.913   3.068 -0.9531  0.5870  1.0200
15859TIP3    H268993   4.793   5.801   2.981 -0.3739 -0.4633  2.0094
15860TIP3   OH268994   1.401   2.032   3.180  0.2049  0.6857 -0.2974
15860TIP3    H168995   1.383   2.071   3.094  1.4425  0.4427 -0.6970
15860TIP3    H268996   1.408   1.938   3.162 -1.9474  0.3241  0.5121
15861TIP3   OH268997   6.441   3.584   6.276 -0.0877 -0.7123  0.3067
15861TIP3    H168998   6.433   3.567   6.182  3.1078  1.8767 -0.6343
15861TIP3    H268999   6.359   3.627   6.300 -0.5002 -0.3558 -1.6079
15862TIP3   OH269000   3.444   2.960   3.097  0.2699 -0.5860  0.2438
15862TIP3    H169001   3.398   2.934   3.018  1.2781 -0.6205 -0.3490
15862TIP3    H269002   3.466   3.053   3.082  0.6779 -0.6594  0.3632
15863TIP3   OH269003   4.704   6.393  11.177  0.2877 -0.3108  0.2368
15863TIP3    H169004   4.616   6.426  11.160  0.0341  0.1907  2.3006
15863TIP3    H269005   4.698   6.351  11.263  1.8041 -1.3049 -0.0972
15864TIP3   OH269006   4.339   4.521  16.315  0.0542  0.1782 -0.4211
15864TIP3    H169007   4.390   4.594  16.349  1.2288 -0.8387  0.1093
15864TIP3    H269008   4.292   4.488  16.392 -0.3142  0.2507 -0.6151
15865TIP3   OH269009   2.275   2.070   4.426 -0.4428  0.5718  0.0996
15865TIP3    H169010   2.240   2.076   4.337  0.8653  1.4899 -0.3777
15865TIP3    H269011   2.312   2.156   4.444  0.0499  0.1508  1.2272
15866TIP3   OH269012   5.622   4.144   3.596  0.0019 -0.3750 -0.1203
15866TIP3    H169013   5.583   4.228   3.570  1.2392  0.6506  1.1307
15866TIP3    H269014   5.665   4.163   3.680 -0.7010 -2.5776  0.8064
15867TIP3   OH269015   1.032   0.797   5.595  0.0155 -0.2057  0.0711
15867TIP3    H169016   1.080   0.787   5.677 -1.2723 -0.0950  0.8734
15867TIP3    H269017   1.100   0.808   5.528  1.0893  0.2567  1.1947
15868TIP3   OH269018   0.248   6.085  15.780 -0.6266 -0.0746  0.2199
15868TIP3    H169019   0.284   6.053  15.863  1.7573  0.9908 -0.3246
15868TIP3    H269020   0.319   6.137  15.742 -2.7840  2.1360 -1.0028
15869TIP3   OH269021   1.845   6.086   5.387 -0.5733 -0.5740  0.1699
15869TIP3    H169022   1.845   6.100   5.482  1.2286 -1.6673  0.3871
15869TIP3    H269023   1.914   6.144   5.354  0.3140 -1.7607 -0.1492
15870TIP3   OH269024   2.165   1.260  11.664 -0.3539  0.1330  0.3603
15870TIP3    H169025   2.209   1.195  11.719  1.0414 -0.4932 -1.3907
15870TIP3    H269026   2.105   1.209  11.609 -0.6348  0.5603  0.2629
15871TIP3   OH269027   0.351   6.129   2.204 -0.0584  0.1675  0.0186
15871TIP3    H169028   0.382   6.122   2.294 -1.4108 -0.2303  0.4741
15871TIP3    H269029   0.411   6.191   2.163 -0.9270  2.3997  1.9086
15872TIP3   OH269030   6.152   4.975  11.268 -0.4858  0.4211 -0.0152
15872TIP3    H169031   6.123   5.010  11.184  0.4270  1.5523  0.1156
15872TIP3    H269032   6.187   5.050  11.315  0.5490 -0.4753  0.7157
15873TIP3   OH269033   0.953   3.726   1.847 -0.0781  0.3039  0.1695
15873TIP3    H169034   0.997   3.795   1.897 -0.1275 -0.7166  1.6908
15873TIP3    H269035   1.005   3.716   1.768  0.3467  1.5758  0.2748
15874TIP3   OH269036   2.064   2.696   5.836 -0.4464 -0.1114 -0.2963
15874TIP3    H169037   2.153   2.729   5.841 -0.6865  0.4745  0.3475
15874TIP3    H269038   2.068   2.624   5.773  0.9292 -1.5929  1.3659
15875TIP3   OH269039   0.014   3.592   2.035 -0.3174  0.5010 -0.0478
15875TIP3    H169040   0.107   3.595   2.012 -0.1907 -0.2282  0.3135
15875TIP3    H269041  -0.025   3.534   1.970 -0.6078  1.1426 -0.4546
15876TIP3   OH269042   5.905   4.503   3.696  0.3679 -0.2356 -1.3199
15876TIP3    H169043   5.949   4.422   3.721  0.6434  0.9967  2.7987
15876TIP3    H269044   5.976   4.567   3.686 -0.0109  0.0419 -2.3794
15877TIP3   OH269045   4.806   5.848   0.189  0.2935 -0.0874  0.2201
15877TIP3    H169046   4.718   5.872   0.158  0.0838  0.7576  1.4057
15877TIP3    H269047   4.813   5.754   0.171 -0.6755 -0.0782 -0.2842
15878TIP3   OH269048   3.692   4.750   1.765 -0.0455 -0.0814  0.4332
15878TIP3    H169049   3.698   4.660   1.733 -0.2629  0.1706 -0.3545
15878TIP3    H269050   3.603   4.757   1.802 -0.7186  0.2986 -1.1483
15879TIP3   OH269051   0.737   2.326  17.132  0.4385 -0.2972  0.3282
15879TIP3    H169052   0.747   2.281  17.048  0.9785  1.2683 -0.4683
15879TIP3    H269053   0.678   2.269  17.182  0.5601 -1.5438 -0.8841
15880TIP3   OH269054   0.261   5.875  17.230  0.2352  0.2346  0.2941
15880TIP3    H169055   0.329   5.898  17.167  1.3827 -0.7182  1.1415
15880TIP3    H269056   0.306   5.822  17.296 -1.1488  0.3058  1.3484
15881TIP3   OH269057   6.175   2.623  14.349  0.4962  0.1477 -0.0123
15881TIP3    H169058   6.219   2.681  14.411  0.8774 -1.5673  1.3872
15881TIP3    H269059   6.245   2.568  14.313  0.3072  1.1576 -2.1027
15882TIP3   OH269060   0.270   4.349   1.847 -0.2935  0.4753  0.4151
15882TIP3    H169061   0.206   4.323   1.913  0.6749 -0.0323  1.1851
15882TIP3    H269062   0.259   4.285   1.776 -1.3074  0.9977  0.0762
15883TIP3   OH269063   1.366   6.417  12.220  0.5271  0.7420  0.0597
15883TIP3    H169064   1.385   6.500  12.177  2.1605  0.6622  0.5444
15883TIP3    H269065   1.317   6.442  12.299  0.2471  1.1571 -0.2414
15884TIP3   OH269066   0.690   6.006  14.368  0.1843 -0.1847 -0.3290
15884TIP3    H169067   0.621   5.941  14.381  0.1880 -0.3738 -1.2349
15884TIP3    H269068   0.655   6.067  14.303  0.0189  0.9741  0.7902
15885TIP3   OH269069   6.692   1.565  16.965 -0.0015 -0.2508 -0.2607
15885TIP3    H169070   6.669   1.563  16.872 -1.3329 -0.6445  0.0541
15885TIP3    H269071   6.653   1.486  17.001 -0.6768  0.5709  0.8864
15886TIP3   OH269072   3.699   6.758   0.626 -0.8973  0.2776 -0.4806
15886TIP3    H169073   3.605   6.772   0.637 -0.8197  0.2360  0.2207
15886TIP3    H269074   3.737   6.778   0.711 -0.2429  0.5044 -0.8184
15887TIP3   OH269075   3.018   5.903   1.331 -0.3859 -0.6302  0.8221
15887TIP3    H169076   3.107   5.938   1.326 -0.0654 -1.4320  0.7278
15887TIP3    H269077   2.975   5.937   1.252  1.7080 -5.1278 -2.8001
15888TIP3   OH269078   4.923   4.694   0.446  0.1863 -0.2104 -0.1311
15888TIP3    H169079   4.883   4.780   0.460 -0.7890 -0.6647  0.0333
15888TIP3    H269080   4.873   4.636   0.504  2.8119 -0.3953  2.1440
15889TIP3   OH269081   6.673   4.023   3.461  0.4196  0.4308 -0.1345
15889TIP3    H169082   6.692   3.938   3.423  1.0845 -0.5895  2.3356
15889TIP3    H269083   6.599   4.007   3.519  1.3019  1.2595  1.2545
15890TIP3   OH269084   4.688   6.087   1.341  0.4380  0.3629 -0.1218
15890TIP3    H169085   4.747   6.109   1.269  0.5103  0.2615 -0.0940
15890TIP3    H269086   4.702   5.993   1.356  1.2681  0.6124  0.7834
15891TIP3   OH269087   3.350   4.579   4.958  0.8495 -0.6315  0.8829
15891TIP3    H169088   3.418   4.630   4.914  0.0673 -0.2520  0.0957
15891TIP3    H269089   3.325   4.631   5.034  0.0420  0.1853  0.0731
15892TIP3   OH269090   4.271   5.288   1.809 -0.2710  0.1140 -0.0391
15892TIP3    H169091   4.336   5.222   1.785 -0.2951  0.6110 -1.5747
15892TIP3    H269092   4.308   5.332   1.885  0.3968 -0.7332  0.1380
15893TIP3   OH269093   5.153   0.733  14.207 -0.4144 -0.1000  0.6061
15893TIP3    H169094   5.162   0.808  14.148  0.4481 -1.7272 -1.4880
15893TIP3    H269095   5.241   0.695  14.212 -1.3557 -2.8847 -1.2479
15894TIP3   OH269096   2.212   4.947   1.354 -0.2458 -0.3407 -0.3736
15894TIP3    H169097   2.212   4.852   1.342 -0.7702 -0.2978 -0.7595
15894TIP3    H269098   2.203   4.959   1.448  1.4001 -0.6770 -0.1444
15895TIP3   OH269099   1.073   5.659  17.254 -0.1492 -0.3932  0.2326
15895TIP3    H169100   1.091   5.575  17.212  0.3385 -0.8585  1.3305
15895TIP3    H269101   0.987   5.648  17.294 -0.0156 -0.4352  0.5131
15896TIP3   OH269102   4.080   2.810  12.351 -0.1015 -0.0677 -0.4610
15896TIP3    H169103   4.103   2.867  12.277 -0.9574  1.9355  0.7186
15896TIP3    H269104   4.103   2.862  12.428 -1.0952 -1.2852  0.6879
15897TIP3   OH269105   3.881   1.899   6.448 -0.5769 -0.8258 -0.0947
15897TIP3    H169106   3.838   1.983   6.431  1.4243  1.1468  3.4199
15897TIP3    H269107   3.938   1.884   6.373 -1.1924  0.8111 -0.9190
15898TIP3   OH269108   5.784   6.095   2.682  0.2833  0.2554 -0.3730
15898TIP3    H169109   5.874   6.120   2.702 -0.6993  3.7776  0.3510
15898TIP3    H269110   5.757   6.040   2.755  1.8290 -0.9727 -0.6768
15899TIP3   OH269111   2.863   5.542  13.411 -0.1170  0.4116  0.0513
15899TIP3    H169112   2.894   5.618  13.362  1.4667  0.3022  0.8168
15899TIP3    H269113   2.846   5.575  13.499 -0.8948  0.1666  0.0098
15900TIP3   OH269114   1.084   6.416  11.515 -0.4483 -1.1251 -0.0926
15900TIP3    H169115   1.120   6.359  11.583 -2.4916 -0.9756  1.1995
15900TIP3    H269116   1.073   6.359  11.439 -0.2441 -1.8683  0.4238
15901TIP3   OH269117   6.268   2.338  14.543 -0.4919 -0.3085 -0.2745
15901TIP3    H169118   6.311   2.405  14.596  1.5441 -2.3380  0.8286
15901TIP3    H269119   6.205   2.297  14.603 -0.8574 -0.1804 -0.5705
15902TIP3   OH269120   0.122   6.021  12.804  0.1369  0.0951 -0.5692
15902TIP3    H169121   0.189   6.067  12.753  0.8136  0.4914  0.6297
15902TIP3    H269122   0.141   5.928  12.790  0.0037  0.1824 -1.4162
15903TIP3   OH269123   3.405   0.766  16.346 -0.9091  0.3313  0.2192
15903TIP3    H169124   3.333   0.752  16.285 -1.9696 -1.3074  1.7325
15903TIP3    H269125   3.481   0.725  16.304 -1.4937 -0.3064 -0.2377
15904TIP3   OH269126   2.558   6.339  14.726  0.3033 -0.4068  0.2070
15904TIP3    H169127   2.632   6.300  14.772 -0.6698 -1.4649  0.9112
15904TIP3    H269128   2.482   6.318  14.780 -0.5735  0.3143 -0.7099
15905TIP3   OH269129   6.058   0.786  14.494 -0.3683  0.6719 -0.0925
15905TIP3    H169130   5.994   0.739  14.547  0.2051  0.4211  0.3867
15905TIP3    H269131   6.116   0.718  14.460 -0.7695  0.8195 -1.1126
15906TIP3   OH269132   3.800   0.010   3.643 -0.3341 -0.7320  0.0723
15906TIP3    H169133   3.746  -0.066   3.621 -0.9360 -0.4604  0.5726
15906TIP3    H269134   3.744   0.064   3.699  0.2846 -0.1944  0.1892
15907TIP3   OH269135   2.670   1.581   4.640 -0.0190  0.4899  0.1460
15907TIP3    H169136   2.716   1.657   4.605 -0.7624  0.4608 -0.9510
15907TIP3    H269137   2.638   1.534   4.563 -1.4326  0.2465  0.8359
15908TIP3   OH269138   1.073   4.181  16.555 -0.1922  0.0332 -0.0163
15908TIP3    H169139   1.019   4.255  16.581 -1.2772 -1.4133  2.1918
15908TIP3    H269140   1.075   4.124  16.632 -0.9887 -3.1271 -2.1077
15909TIP3   OH269141   2.177   2.606  13.221 -0.1448 -1.1217  0.1752
15909TIP3    H169142   2.088   2.571  13.218 -0.6896  0.2631 -1.0605
15909TIP3    H269143   2.224   2.560  13.152 -0.1399 -1.2173  0.2412
15910TIP3   OH269144   3.842   4.649  13.910  0.0644  0.5525 -0.0004
15910TIP3    H169145   3.926   4.694  13.916 -0.5542  1.5559  2.9695
15910TIP3    H269146   3.777   4.720  13.912 -0.8922 -0.3152  0.8650
15911TIP3   OH269147   6.309   3.820   0.189 -0.0369 -0.0420  0.4536
15911TIP3    H169148   6.367   3.893   0.211  0.4245 -0.0774 -0.6161
15911TIP3    H269149   6.368   3.747   0.170 -0.4300 -0.1423 -0.4229
15912TIP3   OH269150   0.945   6.031   3.058  0.0472 -0.2474 -0.0224
15912TIP3    H169151   1.020   5.972   3.065  0.4688  0.3574  0.6992
15912TIP3    H269152   0.873   5.983   3.100  0.2222 -0.5081 -0.0183
15913TIP3   OH269153   2.094   5.014   0.154  0.0861 -0.6269 -0.1062
15913TIP3    H169154   2.117   5.079   0.087 -0.0510 -0.1811  0.2711
15913TIP3    H269155   2.000   5.003   0.145  0.3177 -1.9457 -1.1998
15914TIP3   OH269156   5.537   2.168  15.759 -0.2599  0.1693 -0.0758
15914TIP3    H169157   5.480   2.181  15.684  1.2661 -0.7584 -1.4820
15914TIP3    H269158   5.526   2.076  15.782  0.7784 -0.0881 -0.5190
15915TIP3   OH269159   0.360   4.536  16.864 -0.2679  0.1292  0.6668
15915TIP3    H169160   0.449   4.501  16.871 -0.2138 -0.2815 -1.3952
15915TIP3    H269161   0.354   4.604  16.931  2.1797  1.3389 -0.2448
15916TIP3   OH269162   1.920   3.441   0.148  0.1086  0.3582 -0.2225
15916TIP3    H169163   1.950   3.381   0.080 -1.0398  1.0018 -1.3370
15916TIP3    H269164   1.990   3.439   0.214  0.8401 -0.9453 -0.9966
15917TIP3   OH269165   3.956   6.714  14.181  0.1273 -0.4340 -0.4698
15917TIP3    H169166   3.979   6.806  14.198 -0.5336 -0.4355  0.5112
15917TIP3    H269167   3.981   6.700  14.090  3.4255 -0.2793  0.2749
15918TIP3   OH269168   0.368   0.832   0.161 -0.6018  0.2467  0.3732
15918TIP3    H169169   0.447   0.828   0.214  0.7710  2.9517 -1.2378
15918TIP3    H269170   0.341   0.924   0.166 -2.6402 -0.2526 -0.5390
15919TIP3   OH269171   6.235   2.342  16.231 -0.1399 -0.0142  0.6258
15919TIP3    H169172   6.321   2.301  16.231 -0.3859 -0.5421 -0.1087
15919TIP3    H269173   6.203   2.333  16.321  1.0272  1.1886  1.1978
15920TIP3   OH269174   5.811   4.298   0.831  0.7925 -0.4615 -0.0926
15920TIP3    H169175   5.862   4.378   0.840  3.2994 -1.9071 -0.4940
15920TIP3    H269176   5.848   4.238   0.895 -1.9415 -0.9591  1.1756
15921TIP3   OH269177   2.151   0.638   4.286 -0.5866  0.8037  0.5012
15921TIP3    H169178   2.168   0.707   4.222  0.7182  1.9876  2.0442
15921TIP3    H269179   2.227   0.581   4.282 -1.3788 -0.2324 -0.3263
15922TIP3   OH269180   3.999   2.021  10.942 -0.3844  0.1122 -0.1670
15922TIP3    H169181   4.015   1.927  10.938 -1.4554 -0.1249  0.6581
15922TIP3    H269182   4.085   2.059  10.959  0.1816 -0.6442 -1.2202
15923TIP3   OH269183   3.488   0.264  15.174 -0.0952  0.4879  0.1439
15923TIP3    H169184   3.571   0.229  15.143  0.2239  0.3407  1.1330
15923TIP3    H269185   3.436   0.186  15.196  0.2658  0.5905  1.4481
15924TIP3   OH269186   1.455   2.078  14.995  0.1175 -0.4238 -0.0262
15924TIP3    H169187   1.484   2.022  14.923  0.0704  0.1060 -0.4621
15924TIP3    H269188   1.387   2.133  14.956 -0.3031 -0.5164  0.5662
15925TIP3   OH269189   6.665   0.090  15.197  0.0406  0.4524 -0.8930
15925TIP3    H169190   6.746   0.123  15.158  0.4495 -2.1402 -2.4948
15925TIP3    H269191   6.692   0.013  15.247 -0.9808  1.7764  1.9553
15926TIP3   OH269192   3.581   2.361   3.116  0.5970 -0.6973  0.2030
15926TIP3    H169193   3.487   2.376   3.102  0.2096 -2.1594  1.0146
15926TIP3    H269194   3.619   2.448   3.119 -0.7996 -0.0613  0.2457
15927TIP3   OH269195   1.607   0.878   2.746  0.3370  0.4028  0.0784
15927TIP3    H169196   1.523   0.914   2.715 -0.0756  0.8371  1.6279
15927TIP3    H269197   1.607   0.788   2.713 -1.5077 -0.1357  1.3521
15928TIP3   OH269198   4.517   1.126  14.804  1.1732 -0.7525  0.4884
15928TIP3    H169199   4.511   1.085  14.718 -0.7301 -2.8125  1.5164
15928TIP3    H269200   4.452   1.081  14.857  0.8285  1.8720  2.4813
15929TIP3   OH269201   0.400   4.251  13.953 -0.1380  0.0830 -0.6140
15929TIP3    H169202   0.417   4.306  13.877 -0.5807  0.0457 -0.7442
15929TIP3    H269203   0.482   4.252  14.003 -0.5218  1.8743  0.0270
15930TIP3   OH269204   0.936   0.581   0.498 -0.2739 -0.0030  0.2728
15930TIP3    H169205   0.889   0.580   0.582 -0.9548  2.4652 -0.0213
15930TIP3    H269206   0.937   0.673   0.471 -2.1858 -0.9314 -3.6305
15931TIP3   OH269207   4.555   2.719   4.029  0.2394  0.5596 -0.2199
15931TIP3    H169208   4.480   2.772   4.002  0.1341  0.2702 -0.5110
15931TIP3    H269209   4.591   2.764   4.105 -1.3737 -0.3107  1.1377
15932TIP3   OH269210   0.431   5.577   1.739 -0.2898  0.2797 -0.3747
15932TIP3    H169211   0.455   5.666   1.714  1.8179 -0.2801 -0.5862
15932TIP3    H269212   0.503   5.549   1.796 -0.5490 -1.5043 -0.8684
15933TIP3   OH269213   1.201   3.363  16.803  0.4204 -0.1788  0.7746
15933TIP3    H169214   1.262   3.436  16.793  1.7863 -1.2869  0.6493
15933TIP3    H269215   1.191   3.327  16.715 -1.1997  0.5409  0.6183
15934TIP3   OH269216   4.770   5.861   2.685  0.7944  0.7290  0.3739
15934TIP3    H169217   4.703   5.793   2.693  0.8629  0.4386 -1.2257
15934TIP3    H269218   4.722   5.939   2.657  0.8531  1.0886  1.2509
15935TIP3   OH269219   4.845   0.619  13.602  0.1067  0.2076  0.3606
15935TIP3    H169220   4.888   0.564  13.667 -0.9708  0.8137  1.6294
15935TIP3    H269221   4.859   0.708  13.632 -2.0526  0.4346  0.9138
15936TIP3   OH269222   6.157   2.180   1.322 -0.6636 -0.3995 -0.6920
15936TIP3    H169223   6.074   2.187   1.275  0.0331 -0.8550 -2.0477
15936TIP3    H269224   6.207   2.115   1.272  1.3372  1.4305 -1.2000
15937TIP3   OH269225   1.234   1.560  13.081  0.0046 -0.2360 -0.4092
15937TIP3    H169226   1.309   1.577  13.024 -0.0813 -2.1852 -1.1804
15937TIP3    H269227   1.159   1.593  13.032 -0.0191 -1.5205 -1.2743
15938TIP3   OH269228   4.341   5.459   3.197  0.1578 -0.6973  0.3030
15938TIP3    H169229   4.419   5.484   3.247  0.2253  1.3024 -0.6786
15938TIP3    H269230   4.272   5.518   3.228 -1.1294 -2.7013  1.4282
15939TIP3   OH269231   5.440   2.719   4.070  0.3473  0.1468  0.0664
15939TIP3    H169232   5.358   2.671   4.078 -0.3829  1.2571 -0.4160
15939TIP3    H269233   5.413   2.806   4.040  1.6581  0.7127  0.4761
15940TIP3   OH269234   0.240   0.396  13.916 -0.4386 -0.2887 -0.1457
15940TIP3    H169235   0.301   0.334  13.956 -1.6236 -2.0933 -0.9902
15940TIP3    H269236   0.249   0.381  13.822 -0.4066  1.2114 -0.4046
15941TIP3   OH269237   3.431   0.403  11.127 -0.5638  0.0749  0.4999
15941TIP3    H169238   3.401   0.480  11.079 -0.2766  0.1583  0.4493
15941TIP3    H269239   3.418   0.330  11.066  2.1100  0.4887 -0.7109
15942TIP3   OH269240   1.176   6.730  14.397 -0.8356 -0.3509 -0.7800
15942TIP3    H169241   1.243   6.662  14.398 -0.2797  0.1881 -0.7113
15942TIP3    H269242   1.135   6.722  14.311  0.6338  0.5650 -1.6029
15943TIP3   OH269243   0.007   2.318   1.111  0.0738 -0.2511 -0.3943
15943TIP3    H169244  -0.070   2.276   1.151  0.5761  0.6431  1.6604
15943TIP3    H269245   0.009   2.405   1.151  2.0967 -0.2235 -0.4822
15944TIP3   OH269246   4.907   3.634  13.295 -0.0317  0.1620 -0.0361
15944TIP3    H169247   4.893   3.662  13.386 -0.8389 -0.3951  0.0319
15944TIP3    H269248   4.955   3.706  13.254  1.9974 -0.3597  1.3050
15945TIP3   OH269249   6.088   2.568   2.002 -0.4983  0.3490  0.3605
15945TIP3    H169250   6.060   2.476   1.999 -0.4264  0.3157  0.6990
15945TIP3    H269251   6.086   2.596   1.911 -0.7832  0.0898  0.2845
15946TIP3   OH269252   6.751   0.267  14.058  0.0433  1.0493  0.4970
15946TIP3    H169253   6.745   0.262  14.154 -0.4693  1.2107  0.4767
15946TIP3    H269254   6.837   0.232  14.038 -0.3909 -0.3188  0.9166
15947TIP3   OH269255   1.133   5.495  13.721 -0.0484 -0.3161  0.2070
15947TIP3    H169256   1.166   5.580  13.692 -0.8529  0.3630  1.2220
15947TIP3    H269257   1.079   5.515  13.797 -0.9951 -1.6367 -0.0861
15948TIP3   OH269258   3.375   5.422  10.966  0.3846 -0.1965 -0.0834
15948TIP3    H169259   3.337   5.485  11.028 -0.8131  0.6534 -1.5953
15948TIP3    H269260   3.320   5.344  10.976 -0.5430  0.3336 -0.8321
15949TIP3   OH269261   0.134   1.178   4.395  0.4315  0.4269  0.2025
15949TIP3    H169262   0.099   1.171   4.484 -0.3614 -1.9937 -0.2271
15949TIP3    H269263   0.104   1.263   4.364 -2.1999 -0.0825  1.0820
15950TIP3   OH269264   1.670   5.870   5.442  0.4001  0.4341 -0.3702
15950TIP3    H169265   1.724   5.948   5.425  0.6926  0.9706  2.5447
15950TIP3    H269266   1.583   5.905   5.457 -0.4129 -0.2514 -2.9633
15951TIP3   OH269267   1.380   0.920  11.827  0.2608 -0.3236  0.8645
15951TIP3    H169268   1.443   0.886  11.764  0.8997  2.0243  0.1572
15951TIP3    H269269   1.433   0.949  11.901  0.0613  1.6791  0.2593
15952TIP3   OH269270   2.005   6.600  14.002  0.5922  0.1687  0.7748
15952TIP3    H169271   1.985   6.507  14.017  1.2360  0.0243  0.7508
15952TIP3    H269272   2.001   6.639  14.089 -1.0527  0.4034  0.6234
15953TIP3   OH269273   5.660   5.404  11.424  0.7875  0.2761 -0.2178
15953TIP3    H169274   5.669   5.389  11.518 -0.6647  0.4736 -0.0161
15953TIP3    H269275   5.682   5.496  11.411  1.0712  0.2263 -0.0857
15954TIP3   OH269276   0.947   4.169  10.785 -0.0362 -0.2989 -0.6121
15954TIP3    H169277   0.912   4.106  10.721  1.4956  0.8951 -2.7424
15954TIP3    H269278   1.040   4.176  10.763  0.2410  1.2457  0.8771
15955TIP3   OH269279   0.584   3.907   6.013  0.5679  0.1671  0.2353
15955TIP3    H169280   0.573   3.959   6.093 -1.5513  2.1474 -1.2263
15955TIP3    H269281   0.543   3.823   6.033  0.1678  0.5920  1.2547
15956TIP3   OH269282   5.295   1.137  13.539 -0.4202 -0.2332 -0.7846
15956TIP3    H169283   5.376   1.087  13.535 -1.2778 -1.8923  0.9299
15956TIP3    H269284   5.252   1.107  13.620 -1.6421  2.2972 -0.3885
15957TIP3   OH269285   1.116   0.923  12.090 -0.1483  0.4044  0.1240
15957TIP3    H169286   1.138   0.990  12.154 -0.0703 -0.7721  1.3762
15957TIP3    H269287   1.200   0.885  12.064 -0.2032  0.6633 -0.4544
15958TIP3   OH269288   5.241   2.049  15.023 -0.4027 -0.1746  0.3497
15958TIP3    H169289   5.246   2.049  14.928 -2.8275  1.4478  0.1356
15958TIP3    H269290   5.287   2.129  15.050 -1.0689  0.2103  0.3830
15959TIP3   OH269291   1.532   5.051   2.045  0.2158  0.7069  1.0298
15959TIP3    H169292   1.459   5.085   2.097 -0.1810  2.3444 -0.4897
15959TIP3    H269293   1.498   4.972   2.004 -0.4307  1.0156  0.9659
15960TIP3   OH269294   3.176   6.294   1.863 -0.1004 -0.7156 -0.1747
15960TIP3    H169295   3.123   6.220   1.892  0.1896 -0.2043  1.8031
15960TIP3    H269296   3.239   6.256   1.802 -1.9081 -1.5335 -1.6329
15961TIP3   OH269297   1.550   6.075   3.007  0.5107  0.3530  0.3067
15961TIP3    H169298   1.459   6.102   2.999  0.6339  0.8505  0.5109
15961TIP3    H269299   1.548   6.001   3.067  0.2991  0.7501  0.8015
15962TIP3   OH269300   5.050   5.254   0.070 -0.1697  0.3892  0.1346
15962TIP3    H169301   4.987   5.309   0.024  1.4251  0.9513 -1.4845
15962TIP3    H269302   5.123   5.313   0.091  1.1738 -0.8639 -0.8196
15963TIP3   OH269303   6.696   0.230   0.079 -0.4256  0.0796  0.8600
15963TIP3    H169304   6.701   0.243  -0.015 -0.0927  1.2642  1.0243
15963TIP3    H269305   6.640   0.153   0.090  0.0245 -0.4398 -0.3113
15964TIP3   OH269306   3.366   0.965   3.890  0.4203 -0.9587 -0.5626
15964TIP3    H169307   3.418   1.043   3.870  0.4039 -0.7916  0.0297
15964TIP3    H269308   3.405   0.896   3.837  0.9485 -0.7309 -0.4793
15965TIP3   OH269309   5.480   5.937  16.999 -0.0799 -0.4267 -0.0022
15965TIP3    H169310   5.556   5.985  17.031 -0.5357  1.8035 -1.9437
15965TIP3    H269311   5.405   5.986  17.032 -0.6520 -1.5986  0.4731
15966TIP3   OH269312   2.105   4.894  14.673  0.1077  0.2194 -0.0818
15966TIP3    H169313   2.075   4.805  14.690 -1.0146  0.4909 -0.5191
15966TIP3    H269314   2.028   4.949  14.691  0.7801  1.1049  0.1892
15967TIP3   OH269315   0.957   0.330  13.003 -0.5371 -0.5337 -0.2430
15967TIP3    H169316   0.866   0.357  12.988  0.0219  0.8159 -1.5068
15967TIP3    H269317   0.992   0.396  13.062 -0.4455 -1.2200  0.4794
15968TIP3   OH269318   4.489   1.228  17.335  0.0816  0.1804 -0.0282
15968TIP3    H169319   4.512   1.296  17.398 -1.7088  1.6635 -0.8842
15968TIP3    H269320   4.560   1.229  17.271  0.9866 -0.0817  0.9370
15969TIP3   OH269321   0.700   2.948  16.250  0.6811  0.1495 -0.1795
15969TIP3    H169322   0.619   2.905  16.276  0.2948  0.1178 -1.3533
15969TIP3    H269323   0.699   2.945  16.154  2.1431 -0.0030 -0.2254
15970TIP3   OH269324   0.601   4.038  13.264 -0.0050 -0.2746 -0.1662
15970TIP3    H169325   0.518   4.078  13.288 -0.4912 -1.9783  1.1683
15970TIP3    H269326   0.579   3.977  13.194  0.5136  0.7473 -1.2663
15971TIP3   OH269327   3.965   4.950  14.960 -0.2254 -0.1936  0.2067
15971TIP3    H169328   3.877   4.984  14.947  0.0814  0.0960 -1.4187
15971TIP3    H269329   3.965   4.865  14.916  0.6768  0.4472 -1.0916
15972TIP3   OH269330   2.288   2.304   0.097 -0.7961 -0.6876 -0.5684
15972TIP3    H169331   2.261   2.391   0.069 -2.6627 -0.0456  2.7829
15972TIP3    H269332   2.223   2.245   0.058 -0.8375 -0.3417 -1.0295
15973TIP3   OH269333   1.405   6.067  11.526 -0.1010 -0.3716 -0.0385
15973TIP3    H169334   1.486   6.024  11.553 -0.2653 -1.9877 -1.9640
15973TIP3    H269335   1.417   6.085  11.433 -0.7903  2.1857  0.2760
15974TIP3   OH269336   4.399   3.510  17.083  0.1274 -0.3999 -0.2005
15974TIP3    H169337   4.426   3.498  17.174 -2.5197 -3.9308  0.3272
15974TIP3    H269338   4.411   3.425  17.042  0.8323  0.9794 -3.1430
15975TIP3   OH269339   4.974   3.075  13.186 -0.0250  0.1393  0.2527
15975TIP3    H169340   4.951   2.997  13.135  2.4523 -0.3295 -0.2817
15975TIP3    H269341   5.046   3.115  13.137  1.2902  0.6218  2.4633
15976TIP3   OH269342   3.715   6.611   4.402 -0.7164  0.1674 -0.4357
15976TIP3    H169343   3.767   6.635   4.326 -0.1478 -1.4761 -0.6188
15976TIP3    H269344   3.776   6.563   4.458 -1.3363  0.6452  0.6885
15977TIP3   OH269345   4.561   5.868   4.496 -0.0882 -0.3249  0.1840
15977TIP3    H169346   4.565   5.822   4.412 -3.6834  1.8231 -1.4321
15977TIP3    H269347   4.627   5.826   4.550  1.0022 -3.2159 -3.0407
15978TIP3   OH269348   2.580   3.842   6.403  0.5777 -0.1484 -0.4361
15978TIP3    H169349   2.649   3.780   6.427  0.8705 -0.7033 -2.5030
15978TIP3    H269350   2.500   3.804   6.439  0.9438 -1.0682 -0.5679
15979TIP3   OH269351   2.802   1.793   0.053  0.0425 -0.5020 -0.6085
15979TIP3    H169352   2.740   1.725   0.078  0.2865 -0.5550 -0.1443
15979TIP3    H269353   2.753   1.849  -0.007 -0.1553 -1.0932 -1.0025
15980TIP3   OH269354   3.109   2.873  14.106  0.2230 -0.0785 -0.0906
15980TIP3    H169355   3.184   2.906  14.055  0.0320 -0.1362 -0.4136
15980TIP3    H269356   3.040   2.861  14.041  0.5341 -1.9164 -0.1657
15981TIP3   OH269357   1.192   4.658   2.106 -0.1853  0.5823 -0.1206
15981TIP3    H169358   1.174   4.590   2.041 -0.7627  1.4989 -0.9476
15981TIP3    H269359   1.244   4.724   2.058  1.8113 -0.0150  1.0988
15982TIP3   OH269360   1.243   0.744  11.545  0.2767 -0.5606  0.0482
15982TIP3    H169361   1.229   0.719  11.454 -1.3825  1.0576 -0.2082
15982TIP3    H269362   1.161   0.786  11.571  1.6947  1.5912  1.3691
15983TIP3   OH269363   3.589   2.522  16.901  0.7150 -0.2422 -0.3479
15983TIP3    H169364   3.565   2.516  16.994 -1.2937  0.8714 -0.7382
15983TIP3    H269365   3.575   2.434  16.867  0.5734 -0.4470  0.2254
15984TIP3   OH269366   5.856   3.954   4.718  0.1718 -0.0549  0.2604
15984TIP3    H169367   5.837   4.042   4.751  2.0857  0.6716 -0.4429
15984TIP3    H269368   5.848   3.897   4.795 -1.6474  0.5938  0.6052
15985TIP3   OH269369   3.098   5.194  12.649  0.2145 -0.0531  0.3454
15985TIP3    H169370   3.113   5.222  12.559 -1.1178 -0.6707 -0.0863
15985TIP3    H269371   3.180   5.151  12.674  0.5137 -0.0897 -0.6475
15986TIP3   OH269372   5.668   6.514   4.984  0.9527 -0.2693 -0.3395
15986TIP3    H169373   5.727   6.532   5.058  1.6639 -1.3074 -0.6265
15986TIP3    H269374   5.690   6.424   4.958 -0.9130 -0.7743 -0.3294
15987TIP3   OH269375   2.903   1.412   5.237  1.0985 -0.6803 -0.2109
15987TIP3    H169376   2.909   1.360   5.317 -0.8775 -1.0787 -0.2620
15987TIP3    H269377   2.903   1.503   5.267 -3.1901 -0.7600  0.7791
15988TIP3   OH269378   1.018   1.691   5.664 -0.0884  0.0272  0.8774
15988TIP3    H169379   1.002   1.770   5.612  0.5701 -0.7255 -0.5476
15988TIP3    H269380   1.057   1.724   5.745  0.4021  1.1641  0.2201
15989TIP3   OH269381   6.711   3.749  13.937  0.2286  0.4792  0.1044
15989TIP3    H169382   6.746   3.747  13.848  0.8171 -0.6882  0.3443
15989TIP3    H269383   6.758   3.820  13.980 -0.6852  1.6331 -0.7453
15990TIP3   OH269384   5.709   4.881   3.101 -0.2234  0.8183 -0.1167
15990TIP3    H169385   5.731   4.974   3.097 -1.0286  0.9682 -1.7231
15990TIP3    H269386   5.716   4.859   3.194  3.5938  1.5611 -0.0378
15991TIP3   OH269387   2.024   6.607  11.459  0.3917  0.1591 -0.1534
15991TIP3    H169388   2.085   6.602  11.532 -0.5228  0.7440  0.6859
15991TIP3    H269389   2.046   6.688  11.414  0.5732  0.0980 -0.1755
15992TIP3   OH269390   2.659   2.287  12.090  0.2633  1.0695 -0.2383
15992TIP3    H169391   2.585   2.328  12.045  2.1066  1.4761 -3.2308
15992TIP3    H269392   2.720   2.359  12.105  0.6810  0.5111  0.8798
15993TIP3   OH269393   6.400   1.267  12.170  0.0587  0.2397  0.5636
15993TIP3    H169394   6.359   1.199  12.115 -1.1472  2.5612 -1.6383
15993TIP3    H269395   6.326   1.307  12.216  0.4836  1.2111  0.4166
15994TIP3   OH269396   1.883   2.631   4.411  0.0471  0.0132 -0.2772
15994TIP3    H169397   1.890   2.705   4.350 -1.5454  0.0593 -0.4280
15994TIP3    H269398   1.926   2.558   4.364 -1.3086 -0.0008 -1.5818
15995TIP3   OH269399   2.271   5.368   1.654 -0.1963 -0.4953  0.0504
15995TIP3    H169400   2.260   5.462   1.640 -2.3591 -1.0354 -2.8548
15995TIP3    H269401   2.332   5.341   1.586 -1.5348 -1.5230 -0.7786
15996TIP3   OH269402   0.711   5.453  14.192 -0.1422  0.1719  0.3114
15996TIP3    H169403   0.648   5.459  14.264 -0.0663  3.2705  0.2611
15996TIP3    H269404   0.763   5.375  14.212 -2.9078 -1.5973  1.1841
15997TIP3   OH269405   1.445   5.517  12.875  0.2138 -0.2058  0.2295
15997TIP3    H169406   1.405   5.454  12.935  2.5244  0.0851  2.2648
15997TIP3    H269407   1.465   5.593  12.930  0.4286  1.0126 -1.4464
15998TIP3   OH269408   0.870   6.268  13.622 -0.6615  0.0488 -0.3017
15998TIP3    H169409   0.925   6.321  13.565 -0.4785  0.1822 -0.0009
15998TIP3    H269410   0.924   6.191  13.643 -1.7424 -1.4341 -2.6118
15999TIP3   OH269411   1.164   4.536   1.385 -0.1771 -0.5364 -0.5169
15999TIP3    H169412   1.147   4.577   1.470  0.7717  0.2292 -0.6763
15999TIP3    H269413   1.080   4.541   1.339 -0.0277  1.6125 -0.6649
16000TIP3   OH269414   0.093   4.653   6.225 -0.6749  0.0023  0.1594
16000TIP3    H169415   0.033   4.581   6.206  0.6292 -0.9947 -0.4132
16000TIP3    H269416   0.170   4.634   6.171  0.9055  0.2001  2.2241
16001TIP3   OH269417   3.206   6.317   1.467  0.2838  0.2122 -0.4029
16001TIP3    H169418   3.144   6.346   1.534  1.3601  0.6833  0.4269
16001TIP3    H269419   3.198   6.383   1.397  0.0796  0.4414 -0.1658
16002TIP3   OH269420   5.543   1.999   3.426 -0.7165 -0.1870  0.1854
16002TIP3    H169421   5.534   1.925   3.366  1.2768 -2.5676  2.5942
16002TIP3    H269422   5.489   1.975   3.502  0.3398  0.5763  1.2157
16003TIP3   OH269423   3.250   0.349   3.609 -0.1327  0.2722  0.0977
16003TIP3    H169424   3.168   0.303   3.590 -1.6004  1.7622  2.3029
16003TIP3    H269425   3.283   0.309   3.689  0.7185  0.4448 -0.1515
16004TIP3   OH269426   5.199   0.943   1.471 -0.0116  0.4026  0.4199
16004TIP3    H169427   5.247   0.878   1.419 -0.8477  0.7768 -0.8371
16004TIP3    H269428   5.205   0.909   1.561 -0.0769 -1.2146 -0.1419
16005TIP3   OH269429   4.489   4.123  16.740  0.3585  0.0984 -0.3756
16005TIP3    H169430   4.500   4.193  16.804 -0.5481  1.6760 -1.8665
16005TIP3    H269431   4.534   4.048  16.778  0.7427  1.2778  1.6083
16006TIP3   OH269432   5.739   2.159  12.971  0.1911 -0.3171 -0.0968
16006TIP3    H169433   5.677   2.094  13.005 -0.9040  1.1034  0.7348
16006TIP3    H269434   5.739   2.145  12.877 -0.6374 -1.0166 -0.0031
16007TIP3   OH269435   1.889   3.832  13.228  0.4364 -0.9923 -0.1567
16007TIP3    H169436   1.894   3.919  13.187 -1.0850 -0.0533  1.4840
16007TIP3    H269437   1.797   3.825  13.256  0.2317 -3.6155 -1.1890
16008TIP3   OH269438   2.677   0.545  12.303  0.2413 -0.2454  0.6325
16008TIP3    H169439   2.677   0.619  12.364  0.9324  0.8851 -0.6864
16008TIP3    H269440   2.630   0.577  12.226 -0.9185 -1.7615  0.6414
16009TIP3   OH269441   2.467   4.469   2.764 -0.4560 -0.0493 -0.5342
16009TIP3    H169442   2.548   4.483   2.813 -1.4900 -0.2059  1.2997
16009TIP3    H269443   2.468   4.376   2.741  1.7740  0.6388 -4.2227
16010TIP3   OH269444   0.611   0.731  14.514  0.9530  0.4081  0.4108
16010TIP3    H169445   0.551   0.700  14.447  2.2752 -2.1800  0.3010
16010TIP3    H269446   0.668   0.657  14.532  1.8524  1.5919  3.0762
16011TIP3   OH269447   3.642   3.170   2.736 -0.0901 -0.1403 -0.1865
16011TIP3    H169448   3.593   3.174   2.818 -0.9388 -0.3371 -0.6746
16011TIP3    H269449   3.728   3.136   2.762 -0.4973 -0.6435  0.5654
16012TIP3   OH269450   3.713   5.458  12.515  0.1770  0.1214  0.6131
16012TIP3    H169451   3.750   5.372  12.494 -1.0185 -0.5488  1.1882
16012TIP3    H269452   3.631   5.439  12.560 -0.8719  1.5570 -0.5716
16013TIP3   OH269453   5.875   5.850   4.556  0.2244 -0.0306  0.0896
16013TIP3    H169454   5.849   5.920   4.495  1.3084  0.7290  0.4870
16013TIP3    H269455   5.797   5.835   4.609  0.1559  1.2924  0.3886
16014TIP3   OH269456   0.977   1.754  12.669  0.4761  0.2963  0.0093
16014TIP3    H169457   0.890   1.792  12.683  0.2154  0.2226 -1.2672
16014TIP3    H269458   1.028   1.826  12.631  2.0997  1.4880  3.8807
16015TIP3   OH269459   4.917   2.668   3.522  0.0026 -0.2092 -0.1038
16015TIP3    H169460   4.861   2.591   3.516 -1.7820  1.0438 -0.2559
16015TIP3    H269461   4.931   2.680   3.617 -1.3324  0.3556  0.0442
16016TIP3   OH269462   5.395   3.832  13.222 -0.2753 -0.5571 -0.0846
16016TIP3    H169463   5.488   3.811  13.214 -0.2855 -0.6352  0.0033
16016TIP3    H269464   5.380   3.841  13.316  0.2385  2.1235 -0.1769
16017TIP3   OH269465   3.744   3.413  17.240  0.5711 -0.2081 -0.1759
16017TIP3    H169466   3.675   3.451  17.187  1.3714  0.1899 -0.9639
16017TIP3    H269467   3.806   3.376  17.177  0.8317 -1.0020  0.5226
16018TIP3   OH269468   2.113   4.962   3.572 -0.1934 -0.6157  0.0105
16018TIP3    H169469   2.138   4.876   3.540 -0.3190 -0.1304 -1.5029
16018TIP3    H269470   2.106   5.016   3.493 -0.7076  0.6295  0.8608
16019TIP3   OH269471   0.343   0.874  15.127 -0.3756 -0.2737 -0.0386
16019TIP3    H169472   0.394   0.912  15.056 -0.3499 -1.0592 -0.4520
16019TIP3    H269473   0.401   0.807  15.164 -0.5356 -0.1329  0.4701
16020TIP3   OH269474   4.346   4.370   6.415  0.0276  0.4420  0.1918
16020TIP3    H169475   4.279   4.436   6.433 -0.0309  0.4815 -0.1599
16020TIP3    H269476   4.362   4.328   6.500 -1.0175 -0.1036  0.1393
16021TIP3   OH269477   2.098   1.050  14.771  0.0565 -0.4227  0.6005
16021TIP3    H169478   2.053   1.014  14.694 -0.1007 -0.5314  0.7417
16021TIP3    H269479   2.106   1.144  14.753  0.3799 -0.5105  0.2737
16022TIP3   OH269480   5.672   0.988   2.531 -0.2503  0.1532 -0.8958
16022TIP3    H169481   5.731   1.041   2.477  2.2864 -1.4593  0.1020
16022TIP3    H269482   5.659   0.908   2.480  1.6121 -1.0925  0.4350
16023TIP3   OH269483   4.278   0.169   5.137 -0.1598 -0.0182 -0.8741
16023TIP3    H169484   4.187   0.156   5.110 -0.1675  1.6300 -1.8318
16023TIP3    H269485   4.296   0.260   5.113  1.4975 -0.0783  0.0377
16024TIP3   OH269486   6.619   4.099   0.618 -0.1021  0.4302  0.3632
16024TIP3    H169487   6.712   4.110   0.597 -0.1953  0.4303 -0.0704
16024TIP3    H269488   6.586   4.189   0.628 -0.1020  0.4385  0.2923
16025TIP3   OH269489   0.680   2.670  12.858 -0.3343  0.2143 -0.2535
16025TIP3    H169490   0.733   2.652  12.780 -1.0405  0.6000 -0.8287
16025TIP3    H269491   0.607   2.609  12.853 -0.6365  0.5631 -0.1430
16026TIP3   OH269492   3.822   3.682  11.620 -0.0586  0.3564  0.3752
16026TIP3    H169493   3.766   3.748  11.581  0.2537  0.2111 -0.3480
16026TIP3    H269494   3.762   3.614  11.651 -0.2703 -0.3692 -1.4559
16027TIP3   OH269495   1.361   0.895  13.458  0.3063  0.0640 -0.2595
16027TIP3    H169496   1.286   0.875  13.403 -0.3739 -0.2424  0.7549
16027TIP3    H269497   1.437   0.884  13.400 -0.1741 -2.9577 -0.5068
16028TIP3   OH269498   5.613   6.248   5.331  0.5180 -0.2667 -0.7305
16028TIP3    H169499   5.676   6.295   5.277  0.4200  1.8540  0.8392
16028TIP3    H269500   5.535   6.240   5.275  1.5544 -1.3190 -2.0688
16029TIP3   OH269501   1.071   3.812   4.968  0.0960  0.3386  0.5012
16029TIP3    H169502   1.028   3.759   4.901 -2.1553  0.1142  2.0155
16029TIP3    H269503   1.165   3.794   4.956 -0.4170 -1.9848 -0.6850
16030TIP3   OH269504   4.279   4.712  12.194  0.5947  0.4372 -0.0165
16030TIP3    H169505   4.340   4.782  12.217 -1.0198  2.0697 -0.3769
16030TIP3    H269506   4.228   4.749  12.121  0.5812 -1.6655 -1.1270
16031TIP3   OH269507   2.856   5.506  11.511  0.0675  0.1919 -0.0413
16031TIP3    H169508   2.905   5.446  11.454 -0.9310  0.7339 -1.5265
16031TIP3    H269509   2.789   5.451  11.551 -0.4966  0.1994 -0.9656
16032TIP3   OH269510   4.635   0.063   2.722 -0.7209  0.4892  0.1563
16032TIP3    H169511   4.692   0.115   2.666 -1.3086  1.1110  0.1155
16032TIP3    H269512   4.692  -0.003   2.760 -0.5658 -1.0361 -2.4328
16033TIP3   OH269513   4.770   3.044   0.973 -0.1564  0.0689 -0.4387
16033TIP3    H169514   4.758   2.950   0.961 -0.7131  0.1419 -0.4924
16033TIP3    H269515   4.755   3.081   0.886  2.2097  0.0229 -0.9191
16034TIP3   OH269516   4.998   2.035   1.736  0.2830 -0.0149  0.0035
16034TIP3    H169517   5.072   2.017   1.678  0.4030 -1.0070  0.4307
16034TIP3    H269518   5.014   2.123   1.769  0.8659  0.0802 -0.5034
16035TIP3   OH269519   4.991   4.060   1.849  0.4628  0.6319  0.4431
16035TIP3    H169520   4.936   4.128   1.889 -1.8911 -0.5316 -0.6818
16035TIP3    H269521   4.932   3.987   1.832  2.1521 -0.3392 -1.7398
16036TIP3   OH269522   3.396   1.141  15.673  0.0377 -0.6866 -0.2093
16036TIP3    H169523   3.353   1.223  15.651 -1.1010 -1.0224  0.6446
16036TIP3    H269524   3.324   1.080  15.690  0.7810 -1.0110  2.2827
16037TIP3   OH269525   4.462   2.182   4.499 -0.4337 -0.3077 -0.1731
16037TIP3    H169526   4.479   2.197   4.406  1.0278  0.4664  0.1913
16037TIP3    H269527   4.472   2.268   4.540 -1.1361 -0.6258  0.7058
16038TIP3   OH269528   0.104   5.455   1.043  0.3955  0.2126  0.5028
16038TIP3    H169529   0.182   5.463   1.098 -0.4624 -0.5821  1.8696
16038TIP3    H269530   0.119   5.518   0.972  1.3257  1.6007  1.8702
16039TIP3   OH269531   2.523   4.973  11.642  0.2232 -0.5786 -0.1434
16039TIP3    H169532   2.444   5.025  11.626  0.7302 -0.1852 -1.5102
16039TIP3    H269533   2.595   5.036  11.635  0.6301 -0.7642  1.9652
16040TIP3   OH269534   0.552   1.322  16.079 -0.6592  0.4379  0.0769
16040TIP3    H169535   0.541   1.412  16.048  1.4508  1.9018  3.0891
16040TIP3    H269536   0.485   1.312  16.147 -0.5524 -0.1111  0.1035
16041TIP3   OH269537   4.816   2.405   0.130  0.1817  0.0920  0.0757
16041TIP3    H169538   4.743   2.458   0.098  0.9361  1.1824  0.0956
16041TIP3    H269539   4.869   2.388   0.053  0.8034  0.7900  0.3300
16042TIP3   OH269540   4.532   1.601  15.343  0.5118 -0.6638 -0.4376
16042TIP3    H169541   4.561   1.520  15.300  1.7392 -0.2822 -0.3682
16042TIP3    H269542   4.613   1.642  15.373 -0.2744 -1.2667  2.9800
16043TIP3   OH269543   3.293   2.538   2.435  0.0254  0.0817 -0.3273
16043TIP3    H169544   3.219   2.593   2.409  1.1874  2.4863  1.1845
16043TIP3    H269545   3.346   2.530   2.355 -0.0118  1.4882 -0.5231
16044TIP3   OH269546   0.829   2.701   3.522  0.4873 -0.3980 -0.0122
16044TIP3    H169547   0.831   2.615   3.564 -0.2502  0.0746  1.0455
16044TIP3    H269548   0.796   2.760   3.590 -3.1464  0.0121 -1.8385
16045TIP3   OH269549   3.984   0.157   1.487 -0.1281  0.4417  0.0376
16045TIP3    H169550   3.906   0.131   1.535 -1.4733 -0.6964 -2.5776
16045TIP3    H269551   4.042   0.081   1.493 -0.5455  0.0696 -0.6407
16046TIP3   OH269552   4.899   6.269   5.177 -0.1810 -0.5412 -0.5157
16046TIP3    H169553   4.932   6.253   5.265 -0.1308 -1.6821 -0.7253
16046TIP3    H269554   4.933   6.196   5.125  4.3569  2.6782 -2.7899
16047TIP3   OH269555   0.155   6.720   3.341 -0.1997 -0.3689  0.4619
16047TIP3    H169556   0.077   6.668   3.321  0.7800 -1.9864  0.6145
16047TIP3    H269557   0.163   6.715   3.437  0.2384 -0.4638  0.4256
16048TIP3   OH269558   5.176   5.584  14.474 -0.2658 -0.1816  0.2101
16048TIP3    H169559   5.094   5.589  14.425  0.4577  1.2059 -0.9680
16048TIP3    H269560   5.166   5.509  14.532 -1.9568 -0.6660 -0.6560
16049TIP3   OH269561   2.532   4.489   2.491 -0.1514 -0.4475  0.1705
16049TIP3    H169562   2.591   4.557   2.458 -2.4438  1.0401 -1.1717
16049TIP3    H269563   2.521   4.509   2.584  2.1777 -1.4010  0.7231
16050TIP3   OH269564   0.501   5.827   1.651  0.2706 -0.6080  0.2652
16050TIP3    H169565   0.430   5.887   1.627 -0.6344 -0.7947  2.3046
16050TIP3    H269566   0.558   5.826   1.574 -1.4833  0.2038 -1.1152
16051TIP3   OH269567   5.496   4.987   1.222 -0.8218  0.1723 -0.4792
16051TIP3    H169568   5.461   5.065   1.264  1.7823  1.4038 -0.3516
16051TIP3    H269569   5.500   4.921   1.291  0.9790  1.3537  0.6222
16052TIP3   OH269570   1.323   2.449  12.175  0.3585 -0.3167 -0.3316
16052TIP3    H169571   1.407   2.461  12.219 -0.1887  2.4017  0.1446
16052TIP3    H269572   1.346   2.426  12.085  1.5169 -2.5095  0.4371
16053TIP3   OH269573   3.759   2.128  17.206 -0.3475 -0.2409  0.0977
16053TIP3    H169574   3.721   2.215  17.194  0.7418  0.6595  2.5623
16053TIP3    H269575   3.718   2.075  17.137 -1.5972  2.0075 -1.0299
16054TIP3   OH269576   0.347   4.862   3.924 -0.3607 -0.0101  0.6058
16054TIP3    H169577   0.325   4.778   3.885  0.4101  0.3043 -0.5243
16054TIP3    H269578   0.291   4.867   4.002 -0.5848 -1.4511  0.5588
16055TIP3   OH269579   1.544   5.537  16.405  0.0126  0.1354  0.3695
16055TIP3    H169580   1.605   5.605  16.433  0.2709  0.2565 -0.4596
16055TIP3    H269581   1.594   5.484  16.344 -0.2175 -0.7503  0.9381
16056TIP3   OH269582   6.585   5.658   3.265  0.4069 -0.1238 -0.4121
16056TIP3    H169583   6.575   5.563   3.272  0.6005 -0.1921 -1.0455
16056TIP3    H269584   6.551   5.680   3.178 -1.0670  0.5932  0.2927
16057TIP3   OH269585   4.404   6.354  17.124 -0.5450  0.0432 -0.1958
16057TIP3    H169586   4.413   6.377  17.032  0.0836 -0.9105 -0.3918
16057TIP3    H269587   4.310   6.356  17.141 -0.6643  0.1807 -0.8734
16058TIP3   OH269588   2.724   1.468  14.719  0.5225  0.2333  0.5709
16058TIP3    H169589   2.808   1.469  14.673 -0.2572 -0.0633 -0.9564
16058TIP3    H269590   2.717   1.379  14.753 -0.1300 -0.5047 -1.3060
16059TIP3   OH269591   2.312   6.545  10.836 -0.1828  0.2782 -0.2999
16059TIP3    H169592   2.347   6.634  10.830  2.0252 -0.1132  3.7075
16059TIP3    H269593   2.345   6.502  10.757  1.6659  2.1141 -0.6379
16060TIP3   OH269594   5.660   2.559   1.885  0.0842  0.0263 -0.1412
16060TIP3    H169595   5.568   2.566   1.859  0.2499 -0.3792 -0.8595
16060TIP3    H269596   5.709   2.593   1.810  0.4872  1.5597  0.7802
16061TIP3   OH269597   2.593   3.776  11.984 -0.5353  0.2541 -0.5529
16061TIP3    H169598   2.603   3.832  11.907 -0.1555  0.3292 -0.4516
16061TIP3    H269599   2.499   3.777  12.002 -0.6197  0.2773 -0.9835
16062TIP3   OH269600   0.230   0.112  14.132 -0.6694 -0.5056 -0.1120
16062TIP3    H169601   0.166   0.055  14.176 -0.1104 -0.4789  0.7686
16062TIP3    H269602   0.259   0.173  14.201  0.1475 -0.3835 -0.5488
16063TIP3   OH269603   4.514   3.471  17.322  0.0451  0.2921 -0.8252
16063TIP3    H169604   4.499   3.431  17.408  0.7428  0.5222 -0.5932
16063TIP3    H269605   4.596   3.431  17.291  0.2397  0.8277 -1.0132
16064TIP3   OH269606   1.217   5.956  12.858  0.1295 -0.0616  0.5653
16064TIP3    H169607   1.285   6.021  12.873 -0.4090  1.2341 -2.0403
16064TIP3    H269608   1.164   5.959  12.938 -0.1382  3.1144  0.4291
16065TIP3   OH269609   5.796   2.862   6.137  0.3234  0.1574  0.6629
16065TIP3    H169610   5.876   2.873   6.188  0.8974  1.0589 -0.3816
16065TIP3    H269611   5.811   2.912   6.057 -1.3132  0.3925  0.4579
16066TIP3   OH269612   6.128   5.287   4.185  0.0438  0.1057  0.1462
16066TIP3    H169613   6.145   5.379   4.208 -0.2666  0.5328 -1.2238
16066TIP3    H269614   6.204   5.240   4.218 -0.4344  0.6249  2.1222
16067TIP3   OH269615   5.989   2.374  15.041  0.5904 -0.1988 -0.0976
16067TIP3    H169616   5.975   2.419  14.957  0.0961 -0.8886 -0.3908
16067TIP3    H269617   6.003   2.283  15.018 -4.0039 -1.3658  0.7054
16068TIP3   OH269618   0.200   2.653  12.077  0.7084 -0.3936 -0.4393
16068TIP3    H169619   0.143   2.652  12.154 -0.8406 -1.5280 -1.5298
16068TIP3    H269620   0.273   2.709  12.102  0.7727 -1.5040  2.2048
16069TIP3   OH269621   5.786   4.891   2.618  0.5182 -0.1303 -0.5641
16069TIP3    H169622   5.846   4.865   2.688  2.8926 -1.1437 -2.8513
16069TIP3    H269623   5.824   4.971   2.583 -0.3108  0.0354 -1.1009
16070TIP3   OH269624   3.923   2.110   1.161  0.0018 -0.2375 -0.1884
16070TIP3    H169625   3.995   2.139   1.106 -1.0867 -0.6433 -1.9021
16070TIP3    H269626   3.860   2.182   1.157 -0.8865 -1.0287 -1.0321
16071TIP3   OH269627   5.110   1.879  10.948  0.5523 -0.3435 -0.2932
16071TIP3    H169628   5.065   1.940  11.006  0.0635 -1.9101  1.0418
16071TIP3    H269629   5.172   1.832  11.004  1.0940 -0.9110 -1.3262
16072TIP3   OH269630   5.461   4.214   6.774  0.1333  0.2320 -0.5648
16072TIP3    H169631   5.448   4.242   6.865  0.6603 -2.5253  0.4858
16072TIP3    H269632   5.540   4.258   6.746  0.5297  0.3760  0.6965
16073TIP3   OH269633   0.084   4.438  10.762 -0.7747 -0.1256  0.4317
16073TIP3    H169634   0.180   4.443  10.766 -0.7076  0.1349 -1.1889
16073TIP3    H269635   0.054   4.527  10.777 -0.6239  0.3642 -1.9331
16074TIP3   OH269636   3.058   2.365   2.352  0.3606 -0.4848  0.1253
16074TIP3    H169637   3.007   2.284   2.362  0.1932 -0.3087  0.7423
16074TIP3    H269638   3.149   2.336   2.355  0.3260 -0.8280 -1.1864
16075TIP3   OH269639   2.794   2.663   1.149 -0.0915  0.0383  0.1309
16075TIP3    H169640   2.720   2.619   1.109 -0.3387 -1.0427  1.6535
16075TIP3    H269641   2.867   2.601   1.141  0.1556  0.2983  0.3034
16076TIP3   OH269642   2.934   6.193  11.244 -1.2157 -0.0056 -0.0679
16076TIP3    H169643   2.947   6.106  11.207 -3.1776 -1.0750  1.5793
16076TIP3    H269644   3.007   6.245  11.210  0.0577 -2.2977 -1.0192
16077TIP3   OH269645   0.120   3.336  11.684  0.7422  0.4787  0.1280
16077TIP3    H169646   0.106   3.257  11.736  1.4504  1.7730  2.3916
16077TIP3    H269647   0.211   3.330  11.656  0.3356 -0.2621 -1.1099
16078TIP3   OH269648   6.518   3.637   0.940  0.4256  0.1368 -0.3923
16078TIP3    H169649   6.432   3.597   0.945  0.9166 -1.1491 -1.5250
16078TIP3    H269650   6.503   3.723   0.901 -0.4364  0.3240  0.3224
16079TIP3   OH269651   0.292   5.447  11.478  0.0891  0.5680  0.4645
16079TIP3    H169652   0.207   5.460  11.519  0.1222  0.3901  0.5893
16079TIP3    H269653   0.272   5.435  11.385  0.1032  2.1513  0.2260
16080TIP3   OH269654   3.951   4.898  14.459 -0.5463  0.5335  0.1658
16080TIP3    H169655   3.892   4.868  14.528 -2.3722 -1.0307 -1.9556
16080TIP3    H269656   4.011   4.958  14.504 -0.9740 -1.1684  3.2878
16081TIP3   OH269657   5.573   3.535   3.793  0.8996  0.4426  0.2615
16081TIP3    H169658   5.629   3.475   3.744 -1.6046 -1.0497 -0.9544
16081TIP3    H269659   5.569   3.498   3.882 -0.5394 -1.2610 -0.4487
16082TIP3   OH269660   4.066   2.277   1.819 -0.0653 -0.2117  0.0408
16082TIP3    H169661   4.129   2.212   1.851  1.6914  1.3974  0.0482
16082TIP3    H269662   4.020   2.307   1.898 -0.1666 -0.7004  0.1701
16083TIP3   OH269663   2.924   1.025  16.704 -0.2270  0.0642  0.2081
16083TIP3    H169664   2.853   0.961  16.708  0.9660 -1.3329 -0.4521
16083TIP3    H269665   2.943   1.034  16.611 -1.7029  2.9563  0.0692
16084TIP3   OH269666   3.915   6.660  14.459  0.0621 -0.0982  0.0194
16084TIP3    H169667   3.994   6.609  14.477  0.3852  0.1311 -0.6910
16084TIP3    H269668   3.925   6.688  14.368 -0.6236  0.3212  0.0644
16085TIP3   OH269669   0.843   2.154   0.992  0.7078  0.4122 -0.3386
16085TIP3    H169670   0.755   2.162   1.027  0.7206 -0.5966 -0.0560
16085TIP3    H269671   0.873   2.067   1.020  1.6459  0.5843 -0.7512
16086TIP3   OH269672   1.251   6.697  15.758  0.5208 -0.2204  0.1829
16086TIP3    H169673   1.178   6.757  15.747  0.4164 -0.6214 -1.5743
16086TIP3    H269674   1.214   6.610  15.741  1.4829 -0.3802 -1.2453
16087TIP3   OH269675   2.497   6.639   0.086 -0.4762 -0.3981 -0.4439
16087TIP3    H169676   2.559   6.686   0.029 -2.2794  3.3141  0.3354
16087TIP3    H269677   2.448   6.583   0.026  0.7462 -0.1517 -1.7401
16088TIP3   OH269678   6.123   6.773   5.273  0.2476 -0.7204 -0.0378
16088TIP3    H169679   6.065   6.786   5.348  0.4691 -0.1091  0.0410
16088TIP3    H269680   6.205   6.741   5.311 -0.7110 -3.8125 -0.3537
16089TIP3   OH269681   1.319   0.087  15.542  0.0427 -0.6591 -0.7299
16089TIP3    H169682   1.357   0.063  15.457  2.1533 -0.2544  0.0448
16089TIP3    H269683   1.348   0.017  15.601 -1.3005 -0.8682 -0.2819
16090TIP3   OH269684   4.732   5.317  13.851  0.4853 -0.2943 -0.2668
16090TIP3    H169685   4.740   5.365  13.933 -0.2592 -0.3477 -0.1586
16090TIP3    H269686   4.705   5.229  13.877  1.8714 -0.8127 -0.4583
16091TIP3   OH269687   1.829   4.375  11.696 -0.7319  0.3355 -0.0721
16091TIP3    H169688   1.823   4.469  11.679 -0.4176  0.1887 -1.1087
16091TIP3    H269689   1.922   4.355  11.684 -0.5200  0.1439  1.6805
16092TIP3   OH269690   3.627   0.850  13.883 -0.1672 -0.2278 -0.4445
16092TIP3    H169691   3.631   0.883  13.793 -0.0502  0.2755 -0.2580
16092TIP3    H269692   3.718   0.844  13.911 -0.0865 -2.3409 -1.0469
16093TIP3   OH269693   5.574   3.911   0.589 -0.4621 -0.4180 -0.2734
16093TIP3    H169694   5.619   3.995   0.595 -0.8097 -0.1206 -1.4871
16093TIP3    H269695   5.631   3.857   0.534 -0.6980 -0.6665 -0.2769
16094TIP3   OH269696   0.333   2.976   0.755 -0.0145 -0.2871 -0.0963
16094TIP3    H169697   0.318   3.054   0.702 -0.8928 -0.3608  0.0212
16094TIP3    H269698   0.359   2.909   0.692 -1.0249 -0.3684 -0.4429
16095TIP3   OH269699   5.784   5.323  12.791 -0.4603 -0.0429  0.4216
16095TIP3    H169700   5.736   5.384  12.847  0.1311 -0.0083  0.9085
16095TIP3    H269701   5.729   5.246  12.786 -0.4387 -0.1170  1.2143
16096TIP3   OH269702   1.398   4.597  12.517  0.0493  0.0217  0.5954
16096TIP3    H169703   1.340   4.535  12.562 -0.0806  0.4779  1.0671
16096TIP3    H269704   1.419   4.663  12.584 -0.4509  0.9132 -0.1013
16097TIP3   OH269705   2.769   4.661   2.461 -0.2491 -0.2989 -0.0423
16097TIP3    H169706   2.776   4.755   2.476  1.9739 -0.0609 -1.9419
16097TIP3    H269707   2.834   4.623   2.520 -2.0455 -0.8418  1.6806
16098TIP3   OH269708   1.208   3.562   5.328 -0.3154 -0.2503 -0.1600
16098TIP3    H169709   1.288   3.587   5.375 -0.3826  1.2987 -0.8111
16098TIP3    H269710   1.179   3.481   5.371  1.2003 -0.4420  0.5490
16099TIP3   OH269711   0.744   5.341   1.617  0.1744 -0.6773 -0.0762
16099TIP3    H169712   0.681   5.347   1.688  0.5061 -0.6367  0.2160
16099TIP3    H269713   0.704   5.282   1.554  1.0844 -3.0092  1.4067
16100TIP3   OH269714   4.770   3.057  11.917  0.1519  0.3130 -0.2406
16100TIP3    H169715   4.696   3.000  11.895  0.2047  0.8133 -1.8393
16100TIP3    H269716   4.767   3.126  11.851  1.5198  0.8248  0.2090
16101TIP3   OH269717   5.181   2.468   3.462 -0.1447  0.1596 -0.1051
16101TIP3    H169718   5.146   2.496   3.377 -0.1402  0.7544  0.0808
16101TIP3    H269719   5.235   2.542   3.490  0.8988 -0.5613 -0.1696
16102TIP3   OH269720   1.185   0.760   0.403 -0.2620  0.3953 -0.5252
16102TIP3    H169721   1.095   0.786   0.420  0.2410  2.2994 -0.5835
16102TIP3    H269722   1.194   0.764   0.308 -0.1799 -0.0201 -0.5359
16103TIP3   OH269723   5.086   0.747   2.549  0.0830 -0.1316 -0.5522
16103TIP3    H169724   5.161   0.774   2.602  0.6757  1.7555 -2.2038
16103TIP3    H269725   5.124   0.711   2.469 -0.7314  0.6747 -1.3375
16104TIP3   OH269726   3.680   1.364   3.307 -0.6864 -0.4115  0.8287
16104TIP3    H169727   3.771   1.370   3.336  0.0184  1.6170 -1.4601
16104TIP3    H269728   3.632   1.421   3.367  0.1959  1.2884 -0.0131
16105TIP3   OH269729   3.562   1.842  16.393  0.3852  0.1090  1.0916
16105TIP3    H169730   3.563   1.755  16.432 -0.9354  0.5074  2.0656
16105TIP3    H269731   3.477   1.848  16.348  0.9748  0.4537 -0.0379
16106TIP3   OH269732   5.008   0.145  16.498 -0.3764 -0.1608 -0.2380
16106TIP3    H169733   4.972   0.066  16.457 -2.1656  0.9316 -0.8810
16106TIP3    H269734   4.980   0.217  16.441  0.0692  1.0742  1.0338
16107TIP3   OH269735   2.907   3.918   3.711  0.4167 -0.6489  0.4365
16107TIP3    H169736   2.945   3.905   3.798 -1.2559  1.2723  1.5353
16107TIP3    H269737   2.940   4.003   3.683  0.0400 -0.7455 -0.3086
16108TIP3   OH269738   1.944   2.891   3.448 -0.2522  0.2265  0.0590
16108TIP3    H169739   1.907   2.805   3.470  0.7435  0.1553  1.6140
16108TIP3    H269740   1.994   2.875   3.368 -0.2773 -0.5938  0.1938
16109TIP3   OH269741   4.180   2.370   0.658 -0.2642 -0.3003  0.3797
16109TIP3    H169742   4.246   2.409   0.600 -1.0058 -0.9984 -0.9851
16109TIP3    H269743   4.121   2.442   0.679 -0.7938 -0.3263 -0.9172
16110TIP3   OH269744   3.731   1.698  13.882  0.1657  0.2316 -0.1217
16110TIP3    H169745   3.648   1.651  13.887  0.5114 -0.4380 -0.5491
16110TIP3    H269746   3.739   1.742  13.967 -0.6390  0.3414 -0.0974
16111TIP3   OH269747   0.669   5.415  12.985  0.5352 -0.1753  0.0690
16111TIP3    H169748   0.614   5.491  13.007  0.2764  0.2266 -1.8349
16111TIP3    H269749   0.610   5.340  12.993  1.1512 -0.4814  3.4603
16112TIP3   OH269750   6.098   4.663   5.696  0.2430  0.3451  0.6915
16112TIP3    H169751   6.018   4.707   5.726  0.8242  1.0189  1.2873
16112TIP3    H269752   6.125   4.609   5.771 -0.1117 -0.5434  0.1906
16113TIP3   OH269753   4.813   4.968  11.551  0.2141  0.4190 -0.0377
16113TIP3    H169754   4.734   4.917  11.567  1.1134 -0.4989  1.9255
16113TIP3    H269755   4.855   4.924  11.477 -0.0710 -0.4283  0.2835
16114TIP3   OH269756   6.107   6.200  14.564  0.0261 -0.5996  0.1581
16114TIP3    H169757   6.182   6.180  14.620  2.5538  0.0836 -2.6850
16114TIP3    H269758   6.109   6.295  14.555  0.2976 -0.7464 -1.7432
16115TIP3   OH269759   5.238   2.346  12.194  0.0347  0.0631  0.3923
16115TIP3    H169760   5.249   2.279  12.262 -0.2944 -0.7505 -0.3224
16115TIP3    H269761   5.290   2.313  12.120  0.5734  1.0421  0.3287
16116TIP3   OH269762   3.224   1.280   3.756 -0.2214  0.1988 -0.0640
16116TIP3    H169763   3.190   1.190   3.759  0.3307 -0.0119  0.0721
16116TIP3    H269764   3.148   1.333   3.733 -0.0785 -0.5909 -2.7282
16117TIP3   OH269765   3.569   0.345   3.248  0.2975  0.7981  0.0944
16117TIP3    H169766   3.567   0.372   3.340  0.3259  1.5353 -0.1168
16117TIP3    H269767   3.662   0.350   3.223  0.2285  1.0645 -0.1102
16118TIP3   OH269768   1.422   5.781  10.746  0.2929 -0.4004 -0.0063
16118TIP3    H169769   1.462   5.835  10.678  0.2193  0.3425  0.5312
16118TIP3    H269770   1.345   5.743  10.705 -0.8421  1.5465  0.1835
16119TIP3   OH269771   4.495   5.961  15.288 -0.1672  0.2266 -0.2867
16119TIP3    H169772   4.401   5.945  15.303 -0.7205  1.6689 -1.8695
16119TIP3    H269773   4.498   6.045  15.243  1.9034  0.1303 -0.4154
16120TIP3   OH269774   4.664   5.968  12.467 -0.0929 -0.0317 -0.2461
16120TIP3    H169775   4.577   5.941  12.497 -0.0700 -1.1514 -1.0998
16120TIP3    H269776   4.681   5.912  12.390  1.7113 -0.4302  0.3873
16121TIP3   OH269777   0.825   6.483  15.629  0.3799  0.1636  0.1417
16121TIP3    H169778   0.843   6.553  15.566  2.5356 -0.1219  0.3485
16121TIP3    H269779   0.821   6.404  15.576  2.1299 -0.0679  0.2858
16122TIP3   OH269780   1.606   4.016  17.245 -0.3282  0.1832  0.5434
16122TIP3    H169781   1.639   4.104  17.263  0.4115  0.0152  0.0910
16122TIP3    H269782   1.671   3.958  17.285 -0.4647 -0.1587  0.2726
16123TIP3   OH269783   6.120   1.643   6.066  0.2104  0.4435  1.0121
16123TIP3    H169784   6.037   1.601   6.043  0.4179 -0.4865  1.9051
16123TIP3    H269785   6.128   1.716   6.004 -0.0591 -0.9426 -0.7336
16124TIP3   OH269786   0.611   0.426   2.396 -0.1184 -0.9772 -0.1802
16124TIP3    H169787   0.522   0.431   2.429  0.8725  0.2927  2.5995
16124TIP3    H269788   0.635   0.517   2.377  0.2820 -1.4044 -1.8708
16125TIP3   OH269789   1.713   1.898  16.132  0.3765 -0.0112 -0.4031
16125TIP3    H169790   1.719   1.921  16.225 -2.3924 -0.0115 -0.1341
16125TIP3    H269791   1.747   1.809  16.127 -0.1171 -0.2826  0.7631
16126TIP3   OH269792   3.809   4.914   4.672  0.4922 -0.2470 -0.0949
16126TIP3    H169793   3.814   4.828   4.713 -1.1701 -0.6718 -0.6637
16126TIP3    H269794   3.784   4.973   4.743 -1.7509 -0.8682 -0.2814
16127TIP3   OH269795   3.022   5.602   1.581 -0.0753  0.0048  0.1794
16127TIP3    H169796   2.976   5.676   1.621 -1.2357 -0.6935  0.1741
16127TIP3    H269797   2.955   5.557   1.530  1.2222  0.5386 -2.1328
16128TIP3   OH269798   6.646   2.684  13.370 -0.0924 -0.4916  0.3002
16128TIP3    H169799   6.655   2.640  13.286  1.0718  0.4659 -0.0942
16128TIP3    H269800   6.559   2.658  13.401 -0.3552 -1.2187 -0.9710
16129TIP3   OH269801   3.672   5.481   0.869  1.0122 -0.2556 -0.2343
16129TIP3    H169802   3.583   5.514   0.853  1.6263  0.9863 -1.3013
16129TIP3    H269803   3.677   5.472   0.965  0.2314  1.1919 -0.0234
16130TIP3   OH269804   1.106   5.498  16.359  0.1687 -0.5660  0.0731
16130TIP3    H169805   1.135   5.450  16.437  0.4003  1.0080  1.0205
16130TIP3    H269806   1.017   5.527  16.380  0.1959 -0.2075 -0.2828
16131TIP3   OH269807   2.152   6.073   2.436 -0.4906 -0.2708 -0.2881
16131TIP3    H169808   2.131   6.015   2.510 -0.0974  0.4277  0.3869
16131TIP3    H269809   2.238   6.110   2.458 -0.2619 -0.2221 -1.2104
16132TIP3   OH269810   0.487   5.968  12.056  0.3185  0.2084  0.2716
16132TIP3    H169811   0.413   5.984  12.114  0.0302 -3.0706  1.0133
16132TIP3    H269812   0.538   6.049  12.058 -2.0364  1.7515  1.5139
16133TIP3   OH269813   0.861   5.814  15.849  0.1174  0.4232 -0.1899
16133TIP3    H169814   0.841   5.743  15.788  1.0319  0.8444 -1.0057
16133TIP3    H269815   0.839   5.894  15.801  0.6208  0.7501  0.1123
16134TIP3   OH269816   1.671   3.439   4.396 -0.1736 -0.0704  0.0231
16134TIP3    H169817   1.745   3.378   4.392 -0.1618 -0.1175  0.7502
16134TIP3    H269818   1.630   3.422   4.481 -0.0167  1.0998  0.3597
16135TIP3   OH269819   6.701   3.827  12.700  0.3470  0.2932  0.3770
16135TIP3    H169820   6.618   3.814  12.653 -0.0518 -0.4184  1.2391
16135TIP3    H269821   6.740   3.904  12.659 -0.4346  0.2597 -0.4750
16136TIP3   OH269822   1.392   4.106  14.174 -0.0875  0.1004 -0.1695
16136TIP3    H169823   1.486   4.098  14.158 -0.2298 -1.9966 -0.2883
16136TIP3    H269824   1.385   4.172  14.243  1.4683  0.2388 -0.1044
16137TIP3   OH269825   0.682   1.467   2.350  0.2720 -0.2101  0.0789
16137TIP3    H169826   0.659   1.491   2.260 -0.8892  1.4220  0.7689
16137TIP3    H269827   0.774   1.440   2.345 -0.4921 -2.8831 -2.0456
16138TIP3   OH269828   3.794   4.200   1.575  0.0309  0.5003  0.5414
16138TIP3    H169829   3.838   4.283   1.555  0.7184 -0.0357 -0.2303
16138TIP3    H269830   3.800   4.150   1.494  0.3230 -0.6226  1.2403
16139TIP3   OH269831   1.706   2.195  11.793 -0.2830  0.0625 -0.1868
16139TIP3    H169832   1.738   2.133  11.859  0.2086  0.9397  0.4231
16139TIP3    H269833   1.772   2.192  11.724 -0.4257 -0.3318 -0.3060
16140TIP3   OH269834   5.058   2.646   3.277  0.1308 -0.1198  0.0132
16140TIP3    H169835   5.133   2.705   3.287 -1.1876  1.8913 -1.1818
16140TIP3    H269836   5.015   2.647   3.362  0.8819 -0.4642  0.4026
16141TIP3   OH269837   4.210   2.568   4.103  0.5076 -0.7185 -0.0944
16141TIP3    H169838   4.224   2.569   4.197  2.1837 -1.6766 -0.3037
16141TIP3    H269839   4.254   2.648   4.072  1.4456 -1.2773 -0.2328
16142TIP3   OH269840   6.508   4.289   4.985 -0.2184 -0.3285 -0.6135
16142TIP3    H169841   6.536   4.197   4.991 -0.4830 -0.4657 -1.4662
16142TIP3    H269842   6.575   4.337   5.034  1.0065 -0.7671 -1.7996
16143TIP3   OH269843   0.933   3.651   6.639  0.3158 -0.2749  0.9318
16143TIP3    H169844   1.005   3.599   6.605 -0.0041  0.8847 -1.7563
16143TIP3    H269845   0.868   3.652   6.569 -1.1910  0.8288  2.2659
16144TIP3   OH269846   2.546   6.523   5.832  0.8763  0.0989  0.7747
16144TIP3    H169847   2.624   6.479   5.797  2.0921  1.7952  1.2385
16144TIP3    H269848   2.561   6.526   5.926  1.5467  2.6911  0.6614
16145TIP3   OH269849   5.699   5.961   3.992  0.0947  0.2702 -0.6139
16145TIP3    H169850   5.715   5.887   3.935 -1.4869 -1.0129  0.5068
16145TIP3    H269851   5.781   5.975   4.039  0.7039 -0.0982 -1.5425
16146TIP3   OH269852   0.290   0.953   0.741 -0.2091  0.0801 -0.1012
16146TIP3    H169853   0.361   0.932   0.681  1.1224  3.3982  0.1428
16146TIP3    H269854   0.331   1.001   0.812 -2.4101  0.1343  1.2422
16147TIP3   OH269855   5.973   5.422   1.638  0.1704 -1.0234 -0.2993
16147TIP3    H169856   6.010   5.510   1.627 -1.8295 -0.0539  0.1880
16147TIP3    H269857   5.994   5.398   1.728  1.5945 -1.5081 -0.7400
16148TIP3   OH269858   2.989   6.256  14.370  0.3849 -0.1501  0.4986
16148TIP3    H169859   2.958   6.295  14.452  0.6568 -1.3114  1.1751
16148TIP3    H269860   3.079   6.286  14.362  0.8086 -1.1441  1.3597
16149TIP3   OH269861   0.470   4.390  13.743  0.3132 -0.4087 -0.1742
16149TIP3    H169862   0.435   4.479  13.749 -0.9944 -0.8413 -0.9292
16149TIP3    H269863   0.547   4.399  13.686  1.5703  0.5742  1.5774
16150TIP3   OH269864   0.900   1.611  12.059  0.4152  0.1409 -0.4898
16150TIP3    H169865   0.808   1.635  12.050  0.2781  0.3614  1.2529
16150TIP3    H269866   0.901   1.515  12.056  0.0675  0.1222 -0.0072
16151TIP3   OH269867   3.210   2.609  12.282  0.6401 -0.5442 -0.0216
16151TIP3    H169868   3.272   2.673  12.315 -0.1271 -0.7390  1.8897
16151TIP3    H269869   3.168   2.573  12.360 -0.7002 -1.5998 -1.1769
16152TIP3   OH269870   1.404   6.056   0.302  0.0055 -0.2021 -0.0015
16152TIP3    H169871   1.361   5.994   0.361 -0.2652  0.5984  0.6529
16152TIP3    H269872   1.491   6.018   0.289 -0.4595 -1.1901 -0.3473
16153TIP3   OH269873   6.329   1.012  12.676 -0.7015 -0.5511  0.0161
16153TIP3    H169874   6.309   0.957  12.752 -1.1582  0.5835  0.7477
16153TIP3    H269875   6.252   1.068  12.666  0.5228  1.3758  0.5912
16154TIP3   OH269876   4.638   2.025  13.154  0.0023  0.5449 -0.2470
16154TIP3    H169877   4.552   1.993  13.127  0.1997  0.7092 -1.1077
16154TIP3    H269878   4.700   1.983  13.094  0.4632  0.8967 -0.0308
16155TIP3   OH269879   5.950   0.309  16.122 -0.4889 -0.0828  0.4652
16155TIP3    H169880   5.916   0.354  16.199 -0.9266 -1.4178  1.0906
16155TIP3    H269881   6.039   0.285  16.145 -0.4764 -0.1118  0.3870
16156TIP3   OH269882   2.202   1.448  12.258  0.5248 -0.0550 -0.0559
16156TIP3    H169883   2.272   1.465  12.321  0.7056 -0.1472 -0.2337
16156TIP3    H269884   2.246   1.424  12.177  0.2905  0.0442 -0.2156
16157TIP3   OH269885   0.839   0.873  12.036 -0.2491  0.2277 -0.2747
16157TIP3    H169886   0.764   0.931  12.021 -1.0754  0.5542  3.7890
16157TIP3    H269887   0.895   0.922  12.097  0.5883 -1.9792  0.8559
16158TIP3   OH269888   1.928   2.700   0.520 -0.5085 -0.4627  0.3138
16158TIP3    H169889   1.899   2.658   0.439  1.0556  0.6934 -0.9026
16158TIP3    H269890   2.001   2.645   0.551 -0.9082 -0.7324  0.8083
16159TIP3   OH269891   6.647   2.216   5.559  0.2442 -0.2511  0.0084
16159TIP3    H169892   6.551   2.208   5.562  0.3883 -2.4041  0.4026
16159TIP3    H269893   6.672   2.229   5.650  0.2260  2.8733 -0.3367
16160TIP3   OH269894   5.578   2.611   4.460 -0.0124 -0.1037 -0.0403
16160TIP3    H169895   5.559   2.523   4.493  3.4301 -0.4989  1.3736
16160TIP3    H269896   5.600   2.597   4.368  1.6267 -1.0243  0.4395
16161TIP3   OH269897   2.525   1.842  14.314  0.1284 -0.4366 -0.1184
16161TIP3    H169898   2.573   1.842  14.396  0.0018  1.4278  0.0006
16161TIP3    H269899   2.532   1.753  14.281  0.0660 -1.2467  1.9759
16162TIP3   OH269900   2.514   5.926   2.939  0.4761  0.2921  0.2393
16162TIP3    H169901   2.463   5.886   3.009  0.1849 -1.9877 -1.1758
16162TIP3    H269902   2.595   5.956   2.981 -1.2712  2.6010  2.2211
16163TIP3   OH269903   5.655   2.026  14.793  0.4487  0.1606 -0.2227
16163TIP3    H169904   5.657   2.073  14.876 -1.7792  0.1037 -0.0960
16163TIP3    H269905   5.719   1.955  14.804  1.4957  1.2119  0.7415
16164TIP3   OH269906   4.421   6.477  14.970 -0.2895  0.0269  0.1128
16164TIP3    H169907   4.500   6.445  15.013  1.1769  1.8216 -1.0871
16164TIP3    H269908   4.397   6.557  15.017  0.7762  1.4783 -1.6380
16165TIP3   OH269909   5.504   0.600  11.667 -0.6563 -0.2542 -0.2092
16165TIP3    H169910   5.562   0.666  11.704  0.7977 -0.7131 -1.5624
16165TIP3    H269911   5.479   0.545  11.741 -0.6006  0.8487  0.6507
16166TIP3   OH269912   0.350   3.196  15.219 -0.2214 -0.3432  0.3502
16166TIP3    H169913   0.443   3.178  15.201 -0.2435 -3.5995  2.6172
16166TIP3    H269914   0.305   3.172  15.139  0.8216  1.0399 -0.7013
16167TIP3   OH269915   4.164   5.752  12.590 -0.5805 -0.0375 -0.1343
16167TIP3    H169916   4.140   5.844  12.600 -0.8979  0.0259 -1.3839
16167TIP3    H269917   4.168   5.719  12.680  0.0314  1.3118  0.3595
16168TIP3   OH269918   3.273   4.822  11.917  0.4563  0.4151 -0.3575
16168TIP3    H169919   3.329   4.864  11.982  0.8485 -1.3990  0.5336
16168TIP3    H269920   3.305   4.732  11.912 -3.1165 -1.1225  1.1675
16169TIP3   OH269921   4.194   6.020  13.207 -0.5261  0.3041  0.2609
16169TIP3    H169922   4.117   6.072  13.230 -1.1951 -0.6083  0.1528
16169TIP3    H269923   4.257   6.038  13.276 -1.2854  0.1571  1.0155
16170TIP3   OH269924   6.600   0.415   1.117  0.5478 -0.3443  0.5454
16170TIP3    H169925   6.568   0.505   1.112  2.1714  0.1901 -1.7578
16170TIP3    H269926   6.674   0.420   1.179  0.0030 -0.3279  1.2052
16171TIP3   OH269927   4.107   3.018   0.798  0.0449 -0.0677  0.0417
16171TIP3    H169928   4.097   3.093   0.739 -0.6810 -0.5685 -0.4973
16171TIP3    H269929   4.043   3.033   0.868  1.2668  0.7916  1.0263
16172TIP3   OH269930   3.672   1.867   6.654 -0.5324  0.1019  0.9567
16172TIP3    H169931   3.726   1.832   6.725  0.8807  1.8937  0.8273
16172TIP3    H269932   3.733   1.881   6.582 -1.7558 -0.6937 -0.2798
16173TIP3   OH269933   6.708   5.045   4.103  0.1525  0.4193 -0.5459
16173TIP3    H169934   6.721   5.139   4.108  1.0034  0.2551  1.7975
16173TIP3    H269935   6.678   5.020   4.190 -1.2847 -1.3385 -1.4717
16174TIP3   OH269936   4.777   2.076   0.557 -0.2576 -0.1027  0.5332
16174TIP3    H169937   4.739   2.055   0.472 -1.2586 -0.0807  0.9595
16174TIP3    H269938   4.871   2.080   0.541 -0.5224  1.7526 -0.9991
16175TIP3   OH269939   5.924   2.599   3.364  0.0095  0.4045  0.6959
16175TIP3    H169940   5.863   2.547   3.416 -2.4246  2.5313  0.1411
16175TIP3    H269941   5.900   2.581   3.273  2.5370 -1.2945  0.2488
16176TIP3   OH269942   4.585   2.709  15.909  0.3914 -0.2821 -0.3002
16176TIP3    H169943   4.529   2.777  15.944  0.4872  0.0016 -0.6878
16176TIP3    H269944   4.530   2.630  15.911  0.6363 -0.4395  1.1478
16177TIP3   OH269945   3.820   3.775  15.890  0.0505 -0.3747 -0.2082
16177TIP3    H169946   3.803   3.707  15.954 -0.6788 -0.7752 -0.8052
16177TIP3    H269947   3.869   3.842  15.937 -0.4287 -0.6821  0.7458
16178TIP3   OH269948   2.241   0.623  14.035  0.7044  0.1322  0.2748
16178TIP3    H169949   2.310   0.597  13.974  0.5194  0.6575 -0.1660
16178TIP3    H269950   2.213   0.709  14.004  0.0764  0.0678  0.6508
16179TIP3   OH269951   1.122   0.659   3.606  0.3682  0.1594 -0.3712
16179TIP3    H169952   1.039   0.640   3.563  0.1410 -0.4884  0.3155
16179TIP3    H269953   1.174   0.706   3.541 -0.2367 -0.1480 -1.0839
16180TIP3   OH269954   6.045   0.599  13.628 -0.2558  0.1485  0.3931
16180TIP3    H169955   6.045   0.509  13.594  0.4933  0.2325  0.1383
16180TIP3    H269956   6.007   0.651  13.558 -0.7696  0.0241  0.5748
16181TIP3   OH269957   5.694   4.702  11.436  0.5979 -0.1935  0.0122
16181TIP3    H169958   5.628   4.679  11.370  0.8402  0.0233 -0.3075
16181TIP3    H269959   5.688   4.797  11.444  0.9280 -0.1636 -0.0793
16182TIP3   OH269960   4.981   3.593  13.945  0.3215  1.0869 -0.0363
16182TIP3    H169961   4.949   3.552  14.024 -1.4449  1.2842 -0.6135
16182TIP3    H269962   5.076   3.583  13.949  0.1726  0.1099  1.5359
16183TIP3   OH269963   2.165   4.796  17.331  0.1586  0.3496  0.2362
16183TIP3    H169964   2.170   4.867  17.395 -2.7566 -1.0662  2.3143
16183TIP3    H269965   2.086   4.816  17.281  2.0879  1.1269 -2.7216
16184TIP3   OH269966   0.536   3.691   4.470 -0.4262  0.1304  0.3874
16184TIP3    H169967   0.537   3.786   4.465 -1.8927  0.2007  0.8010
16184TIP3    H269968   0.459   3.665   4.419  0.3638 -0.8971 -0.3405
16185TIP3   OH269969   6.524   4.094   1.666  0.5498  0.0410 -0.0176
16185TIP3    H169970   6.581   4.093   1.743 -1.4698 -0.1193  1.5585
16185TIP3    H269971   6.479   4.010   1.667 -2.3081  1.4595  0.9113
16186TIP3   OH269972   2.313   1.682   3.693 -0.1915 -0.1142  0.7845
16186TIP3    H169973   2.309   1.681   3.788  0.7922  3.0149  0.9780
16186TIP3    H269974   2.394   1.729   3.672 -0.1548 -1.0887 -1.6098
16187TIP3   OH269975   6.688   1.340  14.470  0.2278 -0.6218 -0.5134
16187TIP3    H169976   6.620   1.336  14.538  0.0511 -0.5355 -0.6818
16187TIP3    H269977   6.770   1.322  14.516  0.2077  0.2253 -0.1314
16188TIP3   OH269978   5.790   5.846   0.257  0.1604 -0.0156  0.1089
16188TIP3    H169979   5.707   5.808   0.285  0.7032 -0.4382  1.2420
16188TIP3    H269980   5.851   5.824   0.328  1.2262  0.3246 -0.6738
16189TIP3   OH269981   2.041   3.132   3.083  1.0819  0.1145  0.8009
16189TIP3    H169982   1.954   3.094   3.074  1.2682  0.1053 -1.6934
16189TIP3    H269983   2.030   3.203   3.145 -1.2031  1.3686 -0.8852
16190TIP3   OH269984   5.258   2.531  10.625 -0.5283 -0.6803  0.0778
16190TIP3    H169985   5.337   2.498  10.667 -0.4731  0.1671  0.6499
16190TIP3    H269986   5.288   2.560  10.538 -0.0832  0.1717  0.5007
16191TIP3   OH269987   0.301   6.188   4.342 -0.5153 -0.0053 -0.3337
16191TIP3    H169988   0.257   6.271   4.357 -1.0011 -0.4971  1.2089
16191TIP3    H269989   0.388   6.199   4.381 -1.2072 -0.7627  1.5315
16192TIP3   OH269990   0.796   3.479   0.755 -0.9245  0.3399  0.5493
16192TIP3    H169991   0.869   3.519   0.709 -0.4058 -1.6985 -0.4900
16192TIP3    H269992   0.727   3.545   0.752  0.2654  1.6019 -0.0377
16193TIP3   OH269993   4.993   2.316   1.585  0.0534  0.1578  0.3561
16193TIP3    H169994   5.072   2.276   1.621  0.1644  1.3341  1.5331
16193TIP3    H269995   4.924   2.252   1.602  0.5142 -0.2851  0.6115
16194TIP3   OH269996   1.681   4.925   4.598 -0.1458  0.1709  0.7133
16194TIP3    H169997   1.667   4.976   4.518 -3.0204 -0.7033  0.5230
16194TIP3    H269998   1.691   4.835   4.567 -1.4941 -0.2047  1.2838
16195TIP3   OH269999   3.786   0.746  11.492  0.0247  0.2862  0.4766
16195TIP3    H170000   3.702   0.700  11.481  0.2276  0.1834 -0.8047
16195TIP3    H270001   3.843   0.681  11.534 -0.5662  0.4020  1.4799
16196TIP3   OH270002   3.906   3.451  15.786 -0.1677  0.7490 -0.3008
16196TIP3    H170003   3.987   3.501  15.774 -0.5285  1.1846 -1.0130
16196TIP3    H270004   3.850   3.510  15.837 -0.4285  0.9074 -0.7567
16197TIP3   OH270005   1.882   6.456  11.269 -0.4421 -0.7142 -0.2314
16197TIP3    H170006   1.936   6.495  11.338 -0.0092 -1.0845 -0.3573
16197TIP3    H270007   1.904   6.505  11.190 -1.5404  0.2601  0.0326
16198TIP3   OH270008   1.900   0.642  14.552 -0.4224  0.0630  0.1568
16198TIP3    H170009   1.982   0.612  14.591 -0.3918 -1.0141 -0.6943
16198TIP3    H270010   1.925   0.679  14.467 -0.5534  1.8978  0.8675
16199TIP3   OH270011   1.822   5.900  11.108 -0.0215 -0.3298 -0.6777
16199TIP3    H170012   1.873   5.950  11.171 -0.2283 -1.6258  0.5719
16199TIP3    H270013   1.746   5.868  11.157 -0.3217 -1.1558 -1.6336
16200TIP3   OH270014   4.584   2.773  15.453  0.6966  0.0990 -0.1515
16200TIP3    H170015   4.502   2.724  15.444  1.9644 -1.8787 -1.5715
16200TIP3    H270016   4.599   2.811  15.366  2.3667 -1.4286 -0.5877
16201TIP3   OH270017   5.975   6.697  16.467  0.3549 -0.4737 -0.4297
16201TIP3    H170018   6.050   6.709  16.526 -0.7090  0.6832  0.7302
16201TIP3    H270019   6.014   6.659  16.388  2.4864  1.6840 -0.5465
16202TIP3   OH270020   4.310   5.063   6.417 -0.1110 -0.0472  0.1529
16202TIP3    H170021   4.293   4.989   6.476 -0.3751 -0.0121  0.1234
16202TIP3    H270022   4.236   5.122   6.431  1.7003  1.8608  2.6555
16203TIP3   OH270023   4.018   4.269   4.457 -0.2629  0.0835  0.2314
16203TIP3    H170024   3.969   4.205   4.508 -2.1943  1.4702  0.2142
16203TIP3    H270025   3.954   4.307   4.397  0.4321  2.9886  1.1797
16204TIP3   OH270026   0.122   5.139   1.233  0.1694 -0.1368  0.5332
16204TIP3    H170027   0.075   5.083   1.295 -1.4642 -1.3354 -1.6574
16204TIP3    H270028   0.096   5.228   1.257 -2.8329 -0.7231 -0.1648
16205TIP3   OH270029   0.686   5.064   1.905 -0.1615  0.1656  0.0157
16205TIP3    H170030   0.642   5.097   1.984  0.4420  0.7848  0.1057
16205TIP3    H270031   0.642   5.109   1.833  0.6696  1.2179  0.1398
16206TIP3   OH270032   5.885   1.664   6.579 -0.0909  0.3925 -0.3929
16206TIP3    H170033   5.974   1.673   6.614  1.0779 -0.7915 -2.8664
16206TIP3    H270034   5.869   1.570   6.575 -1.5089  0.5839  0.0266
16207TIP3   OH270035   4.301   0.308   0.778 -0.0749 -0.5995  0.0618
16207TIP3    H170036   4.380   0.338   0.734  0.0248 -0.9515 -0.0017
16207TIP3    H270037   4.299   0.214   0.763  0.6751 -0.9503  1.9331
16208TIP3   OH270038   4.801   5.397  14.107 -0.5923 -0.1123  0.4248
16208TIP3    H170039   4.730   5.381  14.169 -0.8740  0.6196  0.2916
16208TIP3    H270040   4.880   5.371  14.155 -1.0382 -2.3342  0.0809
16209TIP3   OH270041   2.542   6.661  15.257 -0.0657 -0.2598  0.3097
16209TIP3    H170042   2.493   6.699  15.330 -0.3428  1.4602 -0.6900
16209TIP3    H270043   2.483   6.595  15.220 -0.9120  0.5134  0.2286
16210TIP3   OH270044   3.331   0.825   0.021  0.4532  0.0488 -0.4470
16210TIP3    H170045   3.398   0.793   0.081 -1.4058 -0.7240  1.3289
16210TIP3    H270046   3.286   0.894   0.070 -1.7174 -1.2457 -0.4881
16211TIP3   OH270047   5.239   5.571   1.207  0.6790  0.0900 -0.0463
16211TIP3    H170048   5.314   5.576   1.266  0.3150 -0.9055  0.5177
16211TIP3    H270049   5.220   5.478   1.199 -2.1858  0.3309  2.0343
16212TIP3   OH270050   3.092   1.815  17.098 -0.4826  0.5683 -0.0196
16212TIP3    H170051   2.997   1.817  17.084 -0.4129 -0.6108 -0.8409
16212TIP3    H270052   3.112   1.899  17.138 -1.5726  1.8023 -1.9061
16213TIP3   OH270053   0.810   1.118   4.179  0.1033 -0.2735  0.3114
16213TIP3    H170054   0.805   1.104   4.084 -0.2326 -0.2091  0.3175
16213TIP3    H270055   0.723   1.148   4.203  0.1361 -0.4622  0.6733
16214TIP3   OH270056   0.010   0.765   0.878  0.0377 -0.5021  0.6691
16214TIP3    H170057  -0.000   0.699   0.810 -0.4371 -1.5537  1.7157
16214TIP3    H270058  -0.052   0.834   0.854  0.9719 -0.1324 -0.7625
16215TIP3   OH270059   5.377   4.795   3.494 -0.4470 -0.1835  0.7514
16215TIP3    H170060   5.360   4.745   3.415  0.4167  0.8134 -0.0954
16215TIP3    H270061   5.404   4.881   3.463 -0.2252  0.2754  2.1353
16216TIP3   OH270062   6.256   0.917  15.169 -0.2561  0.3829  0.2067
16216TIP3    H170063   6.235   0.957  15.253  3.0707 -1.0631  1.9352
16216TIP3    H270064   6.348   0.940  15.154  0.2123 -2.1117 -1.3258
16217TIP3   OH270065   1.713   2.939  14.397  0.0329 -0.4555 -0.3601
16217TIP3    H170066   1.712   2.885  14.476  0.5051  0.0260 -0.0130
16217TIP3    H270067   1.650   3.009  14.416  1.7201  0.9004  0.5109
16218TIP3   OH270068   0.438   2.424   4.861  0.1035 -0.0850  0.0230
16218TIP3    H170069   0.429   2.430   4.766 -3.4308 -0.0432  0.2264
16218TIP3    H270070   0.466   2.512   4.888 -0.1560  0.2939 -0.8928
16219TIP3   OH270071   5.305   4.061   4.210  0.3529 -0.2871 -0.2216
16219TIP3    H170072   5.232   4.039   4.152  0.9868  1.8793 -1.9985
16219TIP3    H270073   5.367   3.989   4.200  0.1705 -0.2570 -1.8054
16220TIP3   OH270074   0.839   4.102   2.739  0.3276  0.3819 -0.0845
16220TIP3    H170075   0.799   4.048   2.670  0.0214 -1.3316  1.3744
16220TIP3    H270076   0.806   4.065   2.821  3.0614  0.3581  1.1261
16221TIP3   OH270077   5.224   1.004   0.810 -0.5213  0.3080  0.5189
16221TIP3    H170078   5.146   1.018   0.864 -1.7192 -0.5043 -0.9270
16221TIP3    H270079   5.232   0.909   0.803  0.8823  0.3672  1.0031
16222TIP3   OH270080   5.419   5.882   4.306 -0.2341 -0.4173  0.2122
16222TIP3    H170081   5.376   5.857   4.224 -0.5846 -1.1206  0.6087
16222TIP3    H270082   5.447   5.800   4.345 -0.4710 -0.1185  1.0199
16223TIP3   OH270083   1.689   6.288   3.310  0.2092 -0.2167 -0.2515
16223TIP3    H170084   1.699   6.209   3.258  0.2334 -0.1692 -0.3198
16223TIP3    H270085   1.613   6.272   3.365  1.2758 -1.0216  1.0528
16224TIP3   OH270086   2.898   5.298  13.927  0.3438 -0.3426  0.1887
16224TIP3    H170087   2.931   5.333  14.010 -1.4179 -1.9415  1.6540
16224TIP3    H270088   2.966   5.239  13.897  0.5674 -0.5288  1.0432
16225TIP3   OH270089   4.475   2.668   3.422  0.3448  0.2475  0.3777
16225TIP3    H170090   4.387   2.693   3.396  0.3164  0.1792  0.4073
16225TIP3    H270091   4.462   2.604   3.492  0.4208  0.4846  0.6115
16226TIP3   OH270092   5.131   5.623   5.123  0.3913 -0.0487 -0.0121
16226TIP3    H170093   5.111   5.662   5.039  2.8331 -1.1144 -1.2001
16226TIP3    H270094   5.050   5.631   5.174 -0.4541  2.7528 -1.5755
16227TIP3   OH270095   5.649   0.672  15.752 -0.2836  0.0243 -0.0111
16227TIP3    H170096   5.604   0.756  15.758  0.6988  0.6421 -0.8336
16227TIP3    H270097   5.579   0.608  15.742 -1.1167  0.5711  1.8769
16228TIP3   OH270098   1.396   2.232  14.641  0.1630 -0.4101 -0.5244
16228TIP3    H170099   1.434   2.275  14.718 -1.7890  0.1268  0.1901
16228TIP3    H270100   1.427   2.142  14.647  1.7496  0.1067 -0.3088
16229TIP3   OH270101   6.216   4.060  16.461  0.3250 -0.5554 -0.6003
16229TIP3    H170102   6.166   4.018  16.531  0.4689 -0.3237 -0.3573
16229TIP3    H270103   6.217   4.153  16.485  1.0059 -0.5765 -0.5156
16230TIP3   OH270104   5.442   2.989  15.898 -0.2100 -0.1602  0.2762
16230TIP3    H170105   5.468   3.020  15.985  1.0539 -0.3363 -0.0129
16230TIP3    H270106   5.424   3.069  15.849  1.0866  0.0473  0.1127
16231TIP3   OH270107   0.340   4.958   1.694 -0.4976 -0.0212  0.2344
16231TIP3    H170108   0.319   4.970   1.787  1.0405 -0.7333  0.7138
16231TIP3    H270109   0.359   4.865   1.686  0.4995  0.2249 -0.5346
16232TIP3   OH270110   1.243   1.606   4.771 -0.0020 -0.5834  0.8405
16232TIP3    H170111   1.232   1.680   4.710  0.8153 -1.7805 -0.8314
16232TIP3    H270112   1.280   1.646   4.850 -1.8428  1.1358  0.9240
16233TIP3   OH270113   6.703   0.191   5.157  0.0847  0.0312  0.2249
16233TIP3    H170114   6.646   0.226   5.089  0.8277  0.5476 -0.1386
16233TIP3    H270115   6.659   0.111   5.186  0.4252 -0.9738 -1.8315
16234TIP3   OH270116   5.985   3.564   2.655  0.4732 -0.1714  0.0906
16234TIP3    H170117   5.941   3.484   2.628  0.6586  0.3873 -2.0157
16234TIP3    H270118   5.923   3.607   2.714 -1.2507 -0.1010 -1.6834
16235TIP3   OH270119   4.732   5.305   2.747  0.1144  0.3843 -0.0601
16235TIP3    H170120   4.715   5.391   2.708 -0.1023  0.8369  0.9986
16235TIP3    H270121   4.811   5.274   2.703 -1.1756 -0.0169 -2.2679
16236TIP3   OH270122   5.945   6.160  13.272  0.3754 -0.2254  0.1400
16236TIP3    H170123   5.860   6.199  13.291 -0.4505 -1.4668 -0.8211
16236TIP3    H270124   5.940   6.135  13.180  2.0550  0.3110 -0.1131
16237TIP3   OH270125   3.193   4.046   2.284  1.0184 -0.0509 -0.1222
16237TIP3    H170126   3.148   4.127   2.260  0.9730 -0.0758 -0.1210
16237TIP3    H270127   3.259   4.073   2.347  0.3290 -0.1559  0.6693
16238TIP3   OH270128   3.491   5.301  13.995 -0.2545  0.4456  0.1617
16238TIP3    H170129   3.526   5.389  14.003  0.2016  0.1932  1.1610
16238TIP3    H270130   3.562   5.249  13.958 -1.0902  0.8180 -2.0913
16239TIP3   OH270131   1.635   6.033   3.700  0.2079 -0.4608  0.4546
16239TIP3    H170132   1.718   6.078   3.715 -1.0250  1.2657  2.7275
16239TIP3    H270133   1.613   5.995   3.785 -0.7473 -2.0038 -0.4347
16240TIP3   OH270134   4.569   4.011   2.822 -0.1373 -0.3033  0.3726
16240TIP3    H170135   4.531   4.085   2.870 -0.4913  1.0331 -1.8154
16240TIP3    H270136   4.571   3.940   2.885  0.1624  1.5444  2.5776
16241TIP3   OH270137   4.153   0.356   5.514 -0.3046 -0.4040  0.3376
16241TIP3    H170138   4.212   0.281   5.521  1.7018  1.1538  1.1538
16241TIP3    H270139   4.088   0.342   5.582  0.4581 -1.0592  0.9466
16242TIP3   OH270140   5.348   5.974   1.303  0.5015 -0.5553  0.4558
16242TIP3    H170141   5.332   5.990   1.396  0.1026  0.2185  0.2595
16242TIP3    H270142   5.262   5.982   1.262  0.6034 -1.3015  0.0669
16243TIP3   OH270143   3.479   0.329   6.253  0.1557 -0.2279 -0.1881
16243TIP3    H170144   3.542   0.257   6.263  1.4570  1.0624  1.5303
16243TIP3    H270145   3.469   0.364   6.341 -1.1359  1.1676 -0.8499
16244TIP3   OH270146   4.416   2.296   2.199  0.8040  0.3347  0.5015
16244TIP3    H170147   4.379   2.350   2.130 -2.2187  0.7027  2.2282
16244TIP3    H270148   4.510   2.313   2.195  0.4891  2.0906 -1.9669
16245TIP3   OH270149   2.855   3.109  12.475 -0.0263 -0.5779  0.3499
16245TIP3    H170150   2.920   3.177  12.490 -0.2595 -0.0104 -1.1233
16245TIP3    H270151   2.773   3.156  12.463 -0.2005 -1.0954 -0.6183
16246TIP3   OH270152   2.323   4.227   1.165 -0.1148  0.2117 -0.0311
16246TIP3    H170153   2.326   4.269   1.250  1.3426  0.3095 -0.1093
16246TIP3    H270154   2.276   4.288   1.109 -2.7550 -0.6572  1.0935
16247TIP3   OH270155   5.847   2.268  13.244  0.5673 -0.0068 -0.3965
16247TIP3    H170156   5.857   2.307  13.158  1.6897 -0.1403 -0.3367
16247TIP3    H270157   5.772   2.209  13.235 -0.4001  1.2354 -0.7998
16248TIP3   OH270158   6.268   0.979   2.326  0.1622 -0.0709 -0.1749
16248TIP3    H170159   6.294   0.915   2.260 -1.2357 -0.6383 -0.2171
16248TIP3    H270160   6.350   1.007   2.367  1.0120 -0.0367 -1.8277
16249TIP3   OH270161   3.599   2.643   4.710 -0.1426 -0.4706 -0.2776
16249TIP3    H170162   3.618   2.576   4.645  1.4170 -1.7801  1.4101
16249TIP3    H270163   3.674   2.702   4.706  0.6939 -1.3761  1.2554
16250TIP3   OH270164   6.567   2.322  13.627 -0.6130  0.2976  0.2918
16250TIP3    H170165   6.574   2.365  13.542  0.2693  2.6057  1.4320
16250TIP3    H270166   6.646   2.267  13.633 -0.4647  0.4542 -0.2236
16251TIP3   OH270167   6.318   5.505   4.358 -0.4837 -0.4555 -0.5060
16251TIP3    H170168   6.413   5.502   4.342 -0.8538 -0.5973 -3.1286
16251TIP3    H270169   6.281   5.531   4.274 -2.6530  2.2984  1.1394
16252TIP3   OH270170   1.145   0.319  11.486  0.1232 -0.0772  0.4403
16252TIP3    H170171   1.143   0.243  11.545  0.9487 -0.2493  0.2622
16252TIP3    H270172   1.177   0.284  11.403 -0.9205  0.1889 -0.0879
16253TIP3   OH270173   1.273   5.582  15.449  0.6243  0.7091  0.0524
16253TIP3    H170174   1.199   5.608  15.503  1.7642  0.7673  1.6765
16253TIP3    H270175   1.235   5.559  15.365 -1.3369 -0.1221  1.1022
16254TIP3   OH270176   4.548   6.225   6.529  0.0160  0.0494 -0.1833
16254TIP3    H170177   4.487   6.259   6.463  1.7515  0.0480 -1.8951
16254TIP3    H270178   4.620   6.288   6.530  1.3248 -1.3822 -0.3354
16255TIP3   OH270179   5.225   4.166  10.688  0.1451 -0.2264 -0.3690
16255TIP3    H170180   5.247   4.232  10.753  0.6754 -0.7175 -0.0365
16255TIP3    H270181   5.147   4.123  10.721 -1.5587  1.6905 -1.6712
16256TIP3   OH270182   3.338   2.892   2.869 -0.0873  0.3926 -0.5702
16256TIP3    H170183   3.355   2.799   2.882 -2.2860  0.0169 -0.0512
16256TIP3    H270184   3.351   2.906   2.775  2.0461  0.0325 -0.3969
16257TIP3   OH270185   1.304   0.041  12.948  0.7648 -0.3793  0.4407
16257TIP3    H170186   1.379  -0.016  12.966  0.1061 -1.7007 -0.8055
16257TIP3    H270187   1.337   0.129  12.964  2.9944 -0.8018 -1.2780
16258TIP3   OH270188   3.779   2.912  11.642  0.3254  0.0984 -0.1832
16258TIP3    H170189   3.690   2.946  11.653 -0.1210 -0.7629 -1.0500
16258TIP3    H270190   3.830   2.989  11.615  0.0367  0.7746  1.1271
16259TIP3   OH270191   3.990   3.429  15.037 -0.5074 -0.4581 -0.1584
16259TIP3    H170192   3.937   3.357  15.070  1.1125 -1.3609  0.5888
16259TIP3    H270193   4.081   3.397  15.042  0.1663  1.1938 -0.9254
16260TIP3   OH270194   6.224   2.006  14.192 -0.2107  0.2637 -0.7705
16260TIP3    H170195   6.281   1.968  14.259 -0.2413  3.1380  1.0815
16260TIP3    H270196   6.167   1.935  14.165  0.7488 -1.3779  1.2350
16261TIP3   OH270197   0.155   2.756   4.700 -0.5031 -0.2583 -0.8152
16261TIP3    H170198   0.164   2.763   4.795  1.3832 -0.5735 -0.9384
16261TIP3    H270199   0.148   2.846   4.669  1.5367  0.0338 -0.5629
16262TIP3   OH270200   1.569   2.462   3.482 -0.4987  0.1215 -0.7014
16262TIP3    H170201   1.578   2.441   3.575 -0.5479 -0.6299 -0.8583
16262TIP3    H270202   1.482   2.502   3.475  0.1743  1.7530 -0.1660
16263TIP3   OH270203   3.625   5.714  16.490 -0.1162 -1.3381  0.8459
16263TIP3    H170204   3.577   5.631  16.488  0.1409 -1.4948  1.1292
16263TIP3    H270205   3.651   5.729  16.398  0.2223 -1.7979  0.8616
16264TIP3   OH270206   2.586   4.553   4.732  0.0683 -0.2563 -0.5417
16264TIP3    H170207   2.502   4.511   4.713  0.0943 -0.3090 -0.5394
16264TIP3    H270208   2.572   4.645   4.710 -0.3380 -0.0503  0.5445
16265TIP3   OH270209   6.690   1.227  10.778 -0.2156  0.7734 -0.6719
16265TIP3    H170210   6.700   1.141  10.819 -0.3444  0.4951 -1.2118
16265TIP3    H270211   6.779   1.254  10.757 -0.2632  0.0511 -1.9330
16266TIP3   OH270212   0.635   4.990  14.689  0.1957  0.2062 -0.3281
16266TIP3    H170213   0.708   4.997  14.627  1.2487  3.5039  1.0373
16266TIP3    H270214   0.673   4.944  14.764  0.1621 -0.1428 -0.5226
16267TIP3   OH270215   6.565   4.157  11.674 -0.1963 -0.0240  0.2181
16267TIP3    H170216   6.600   4.177  11.761 -0.9311  3.4932 -0.1119
16267TIP3    H270217   6.636   4.179  11.614  0.1343 -1.9583 -0.1377
16268TIP3   OH270218   3.229   6.218  10.838 -0.1485  0.6571 -0.4077
16268TIP3    H170219   3.236   6.311  10.859 -0.0123  0.2625  1.4906
16268TIP3    H270220   3.135   6.201  10.842 -0.0586  0.3638  1.0993
16269TIP3   OH270221   0.429   6.313   4.591  0.1182 -0.3019 -0.4268
16269TIP3    H170222   0.336   6.332   4.605 -0.1826 -2.7944  1.9781
16269TIP3    H270223   0.473   6.355   4.665  1.1713  1.9421 -2.2227
16270TIP3   OH270224   6.419   5.428  13.511 -0.1070  0.3905  0.1880
16270TIP3    H170225   6.440   5.375  13.588 -1.9232  1.6572  1.6416
16270TIP3    H270226   6.326   5.448  13.520 -0.1680  1.3423 -1.8937
16271TIP3   OH270227   1.041   2.499   5.539 -0.3825 -0.0949  0.3029
16271TIP3    H170228   1.001   2.543   5.613 -0.4236  1.7864 -0.7651
16271TIP3    H270229   0.971   2.489   5.475 -0.0163 -0.2835 -0.0800
16272TIP3   OH270230   6.098   1.792  11.315 -0.8899 -0.3705 -0.4580
16272TIP3    H170231   6.094   1.806  11.221  1.0404 -0.9561 -0.6625
16272TIP3    H270232   6.127   1.701  11.325 -1.0864 -0.3215  0.6906
16273TIP3   OH270233   0.948   0.481   5.178  0.0796  0.0036  0.0119
16273TIP3    H170234   0.907   0.563   5.148  0.3709 -0.1639 -0.8400
16273TIP3    H270235   0.878   0.437   5.228 -0.1945  0.5928  0.1585
16274TIP3   OH270236   3.364   5.337  12.905 -0.1254  0.2217 -0.3648
16274TIP3    H170237   3.308   5.271  12.865  0.8031  0.0724 -1.4823
16274TIP3    H270238   3.304   5.407  12.932 -1.1023 -0.9865  0.6969
16275TIP3   OH270239   6.287   3.068   5.045  0.0113 -0.4025 -0.0983
16275TIP3    H170240   6.348   3.126   5.091 -1.1140  0.8795 -0.1508
16275TIP3    H270241   6.208   3.068   5.100 -0.2553 -1.3389 -0.4646
16276TIP3   OH270242   0.344   0.027  16.338  0.2014  0.0947 -0.1662
16276TIP3    H170243   0.311   0.091  16.400 -0.2517  0.8546 -1.1673
16276TIP3    H270244   0.316   0.060  16.252  0.7617 -0.9539 -0.7699
16277TIP3   OH270245   6.707   4.140   6.582 -0.3809  0.4092 -0.5656
16277TIP3    H170246   6.675   4.051   6.570  0.5101  0.0083 -0.0933
16277TIP3    H270247   6.802   4.133   6.573 -0.2991  1.3113 -0.5197
16278TIP3   OH270248   5.563   0.207  11.745 -0.1196 -0.2672  0.7633
16278TIP3    H170249   5.519   0.286  11.774  0.3174  0.4554 -0.4955
16278TIP3    H270250   5.516   0.180  11.666 -0.0335 -1.0637  0.9693
16279TIP3   OH270251   2.783   2.136   2.203  0.5979 -0.4012 -0.0049
16279TIP3    H170252   2.821   2.126   2.290 -2.1370  0.3598  1.4001
16279TIP3    H270253   2.766   2.046   2.174 -1.4030 -0.6724  1.7409
16280TIP3   OH270254   0.917   1.513  14.227  0.5233  0.4678 -0.1957
16280TIP3    H170255   0.896   1.428  14.188  0.1322  0.4020  0.1562
16280TIP3    H270256   0.999   1.498  14.274 -0.0143  0.0428  0.6311
16281TIP3   OH270257   1.836   4.548  16.899  0.3005  0.3063 -0.1656
16281TIP3    H170258   1.868   4.497  16.825  0.0762 -3.4003  2.0466
16281TIP3    H270259   1.741   4.538  16.896  0.3014 -0.0256  0.6871
16282TIP3   OH270260   3.116   0.665  15.061  0.2097 -0.5819 -0.0384
16282TIP3    H170261   3.064   0.585  15.063  1.5723 -1.5485 -1.0108
16282TIP3    H270262   3.065   0.729  15.111 -1.4937 -1.6984 -0.2681
16283TIP3   OH270263   0.596   5.787   2.821 -0.3702 -0.5076 -0.1590
16283TIP3    H170264   0.540   5.723   2.866  0.6334 -0.8946  0.5911
16283TIP3    H270265   0.599   5.862   2.881 -0.9926 -0.0201 -0.7253
16284TIP3   OH270266   4.637   5.015   4.289  0.1453  0.1624 -0.0501
16284TIP3    H170267   4.550   4.976   4.294  0.4701 -0.6604 -0.6589
16284TIP3    H270268   4.629   5.083   4.221 -0.0883  0.2768  0.0911
16285TIP3   OH270269   2.450   5.512  16.697 -0.0272 -0.3401  0.1627
16285TIP3    H170270   2.448   5.578  16.627  0.0049 -0.7563 -0.2296
16285TIP3    H270271   2.468   5.430  16.653  0.0967 -0.5940  0.6749
16286TIP3   OH270272   4.942   3.282   3.582 -0.3318 -0.2154 -0.5045
16286TIP3    H170273   4.912   3.199   3.621  1.2332 -0.1186  1.0305
16286TIP3    H270274   4.865   3.338   3.584 -2.1297 -2.2228 -3.6933
16287TIP3   OH270275   0.030   3.218  15.524 -0.3688 -0.7897  0.1609
16287TIP3    H170276  -0.061   3.235  15.497  0.4198  0.4667 -1.9828
16287TIP3    H270277   0.024   3.202  15.618 -2.9122 -1.6873 -0.0609
16288TIP3   OH270278   6.172   4.906  12.406  0.6662  0.3466  0.3502
16288TIP3    H170279   6.154   4.976  12.468 -1.2297 -1.1896  1.6155
16288TIP3    H270280   6.087   4.866  12.389  1.6695 -1.5555 -0.4602
16289TIP3   OH270281   0.002   2.638  13.883 -0.1743 -0.2009  0.2941
16289TIP3    H170282   0.069   2.594  13.831  0.4437 -1.1614  1.8249
16289TIP3    H270283  -0.059   2.674  13.819  0.5423 -1.3314 -1.0740
16290TIP3   OH270284   5.922   4.162   1.081 -0.3113  0.4288  0.1061
16290TIP3    H170285   6.009   4.200   1.097  0.3129 -1.1027  0.5296
16290TIP3    H270286   5.878   4.168   1.166 -1.0470  2.1735 -0.3636
16291TIP3   OH270287   6.406   1.011   1.104  0.3805 -0.1599  0.6893
16291TIP3    H170288   6.409   1.056   1.189 -0.0716 -0.0571  0.6529
16291TIP3    H270289   6.368   1.076   1.044  0.4293 -0.3316  0.4737
16292TIP3   OH270290   6.530   5.152  14.860 -0.7374 -0.4916  0.1743
16292TIP3    H170291   6.436   5.161  14.872 -0.7671 -0.8673  0.2061
16292TIP3    H270292   6.541   5.113  14.774 -0.5410  1.4287 -0.7397
16293TIP3   OH270293   4.094   5.410   5.810 -0.5748 -0.1811 -0.4734
16293TIP3    H170294   4.157   5.435   5.877  0.5400 -3.3838 -0.1632
16293TIP3    H270295   4.009   5.408   5.855 -0.2457  0.1194  0.1696
16294TIP3   OH270296   2.279   6.047  16.063  0.0760  0.3176 -0.3709
16294TIP3    H170297   2.188   6.017  16.061  0.2241 -0.1122 -0.9331
16294TIP3    H270298   2.316   6.016  15.980  0.9199 -0.0881  0.1572
16295TIP3   OH270299   1.172   4.303  13.070  0.7653  0.2368 -0.4440
16295TIP3    H170300   1.083   4.296  13.038  0.6582  0.4032 -0.1838
16295TIP3    H270301   1.224   4.249  13.009 -0.1183 -3.8395  2.0245
16296TIP3   OH270302   5.097   5.773   1.034 -0.0568 -0.3496  0.2340
16296TIP3    H170303   5.114   5.727   1.116 -0.7144 -1.8314 -0.4261
16296TIP3    H270304   5.007   5.752   1.013  0.1479 -0.1047 -0.9492
16297TIP3   OH270305   0.292   3.781  11.218 -0.2984 -0.3118 -0.1801
16297TIP3    H170306   0.342   3.837  11.158  0.4003 -0.2567  0.4406
16297TIP3    H270307   0.323   3.806  11.305 -0.9398 -0.7469  0.1761
16298TIP3   OH270308   1.256   2.131   5.358  0.0818 -0.0844  0.5427
16298TIP3    H170309   1.180   2.180   5.325 -0.7159 -0.9240  1.0996
16298TIP3    H270310   1.223   2.085   5.435  0.5860 -2.1616 -0.4315
16299TIP3   OH270311   0.729   1.521   4.278  0.2063  0.9191  0.5693
16299TIP3    H170312   0.729   1.449   4.341  0.6883  0.0707 -0.3791
16299TIP3    H270313   0.663   1.582   4.311 -0.9426 -0.4333  0.8298
16300TIP3   OH270314   1.136   0.303   4.778  0.7487  0.3233 -0.5907
16300TIP3    H170315   1.111   0.222   4.733 -2.2801 -1.5907  3.7514
16300TIP3    H270316   1.222   0.283   4.815 -0.7512 -1.9886  2.0545
16301TIP3   OH270317   1.962   2.468  13.145  0.1499  0.2932  0.5763
16301TIP3    H170318   1.881   2.494  13.101  0.1242  0.0603  0.4847
16301TIP3    H270319   2.012   2.422  13.078  1.5616  2.7486 -0.1627
16302TIP3   OH270320   3.690   0.241   4.186 -0.0168 -0.0213  0.5030
16302TIP3    H170321   3.705   0.333   4.207 -0.6057 -0.0002  0.8499
16302TIP3    H270322   3.601   0.224   4.216 -0.2620 -0.4520 -0.4359
16303TIP3   OH270323   0.761   2.998   5.302  0.1312  0.2721  0.4817
16303TIP3    H170324   0.760   3.065   5.234 -0.9282 -0.2698 -0.0804
16303TIP3    H270325   0.852   2.991   5.329  0.2079  2.1390  0.7777
16304TIP3   OH270326   6.302   6.709   1.262 -0.3509 -0.1007 -0.1842
16304TIP3    H170327   6.374   6.669   1.310  0.6209  1.4296 -0.2955
16304TIP3    H270328   6.230   6.712   1.325 -0.5871 -2.2562 -0.2710
16305TIP3   OH270329   5.365   1.892   2.354  0.0232 -0.3574  0.0161
16305TIP3    H170330   5.380   1.797   2.356  1.0938 -0.3318 -2.5395
16305TIP3    H270331   5.448   1.929   2.385  0.6208 -0.2949 -1.5552
16306TIP3   OH270332   3.777   6.044   3.789 -0.3311  0.1883 -0.2604
16306TIP3    H170333   3.764   6.045   3.884  1.5917  0.0744  0.0372
16306TIP3    H270334   3.818   6.128   3.769  0.7917 -0.4432 -0.7234
16307TIP3   OH270335   6.129   1.562  12.317 -0.3375 -0.3643  0.1245
16307TIP3    H170336   6.132   1.484  12.372 -1.0606 -0.0698  0.6064
16307TIP3    H270337   6.214   1.565  12.274  0.3789 -0.4262  1.4946
16308TIP3   OH270338   6.626   6.680  10.960  0.1091  0.4409  0.3773
16308TIP3    H170339   6.635   6.729  11.042 -0.1103  0.6852  0.2557
16308TIP3    H270340   6.541   6.708  10.925  0.1768  0.2915  0.0972
16309TIP3   OH270341   1.354   2.664  15.909 -0.1524  0.3602  0.0796
16309TIP3    H170342   1.259   2.677  15.912 -0.5466 -2.1295  0.7782
16309TIP3    H270343   1.390   2.740  15.954 -1.9013  0.8510  0.7266
16310TIP3   OH270344   1.172   1.505   5.923 -0.3013 -0.3027  0.8063
16310TIP3    H170345   1.141   1.474   6.008 -0.8484  0.7810  1.0271
16310TIP3    H270346   1.174   1.601   5.932 -2.0845 -0.0361 -0.9629
16311TIP3   OH270347   6.264   4.345  10.558 -0.3912 -0.1549 -0.3468
16311TIP3    H170348   6.196   4.307  10.502 -1.0924  1.9991 -1.0465
16311TIP3    H270349   6.220   4.362  10.641 -0.1156 -0.7368 -0.0785
16312TIP3   OH270350   6.356   5.046  13.481 -0.4319  0.8263 -0.6119
16312TIP3    H170351   6.284   5.109  13.481 -0.4535  0.8010 -0.2768
16312TIP3    H270352   6.421   5.083  13.540 -0.4547  0.5253 -0.3930
16313TIP3   OH270353   3.290   2.420  12.905  0.0996 -0.0222  0.5077
16313TIP3    H170354   3.365   2.454  12.858 -0.0823 -2.1019 -1.4592
16313TIP3    H270355   3.319   2.413  12.996  1.6115  0.9940  0.1245
16314TIP3   OH270356   6.313   1.065   2.664 -0.3156 -0.1522  0.5791
16314TIP3    H170357   6.354   0.998   2.609 -1.0730 -1.0945  1.1168
16314TIP3    H270358   6.245   1.017   2.712  0.4884  0.5843  2.5420
16315TIP3   OH270359   0.420   4.726  17.016 -0.1001  0.0320 -0.4108
16315TIP3    H170360   0.418   4.811  17.060  0.7589 -0.7499  1.2078
16315TIP3    H270361   0.456   4.745  16.929  2.3155  1.0261  0.7177
16316TIP3   OH270362   1.059   3.594   5.917  0.0686  0.1593  0.1256
16316TIP3    H170363   1.034   3.505   5.945 -0.5511 -0.5870 -2.5403
16316TIP3    H270364   1.127   3.620   5.979 -0.4847 -1.7439  1.6312
16317TIP3   OH270365   1.148   6.631  15.482 -0.6070 -0.2816  0.1462
16317TIP3    H170366   1.057   6.648  15.505 -0.2573  0.4700  1.0435
16317TIP3    H270367   1.190   6.717  15.487  0.2200 -0.6700  0.0515
16318TIP3   OH270368   4.868   1.314   0.963 -0.2058  0.1103  0.3929
16318TIP3    H170369   4.776   1.295   0.980 -0.7151  2.1565  0.1354
16318TIP3    H270370   4.889   1.264   0.884 -0.6795 -1.4282  1.2024
16319TIP3   OH270371   1.141   2.126  14.940  0.3877  0.2469 -0.1677
16319TIP3    H170372   1.112   2.131  15.032 -1.0793 -1.3699 -0.4781
16319TIP3    H270373   1.149   2.217  14.912  1.3847  0.7828  1.6940
16320TIP3   OH270374   0.097   4.975  12.837 -0.0091 -0.2646  0.4277
16320TIP3    H170375   0.101   4.972  12.933  2.4226 -0.2219  0.3809
16320TIP3    H270376   0.004   4.961  12.817 -0.5667 -0.3899  2.7654
16321TIP3   OH270377   5.604   2.998  12.679 -0.3259  0.1231 -0.1822
16321TIP3    H170378   5.565   3.082  12.653 -1.2129 -0.3363 -0.3852
16321TIP3    H270379   5.669   2.980  12.612  2.2335  2.1876  1.5411
16322TIP3   OH270380   3.618   2.942  14.862 -0.5090 -0.1158 -0.6692
16322TIP3    H170381   3.655   2.857  14.839  0.3483  0.1047 -0.1478
16322TIP3    H270382   3.582   2.929  14.950  3.5608  1.1033  1.4639
16323TIP3   OH270383   2.315   5.033  15.927  0.1919  0.1833  0.1895
16323TIP3    H170384   2.335   5.008  15.837  1.7935  0.8530  0.3368
16323TIP3    H270385   2.225   5.002  15.941  0.3002 -0.8842 -1.2755
16324TIP3   OH270386   1.834   0.028  13.651  0.0273  0.2224  0.4222
16324TIP3    H170387   1.788  -0.050  13.683 -0.1719  0.2744  0.2692
16324TIP3    H270388   1.766   0.096  13.649  0.7912  1.2312  3.3597
16325TIP3   OH270389   1.239   0.204  16.307  0.1272 -0.5577 -1.1062
16325TIP3    H170390   1.168   0.142  16.323  0.9160 -1.4203 -0.8748
16325TIP3    H270391   1.250   0.250  16.391 -0.9846  0.4806 -1.5047
16326TIP3   OH270392   4.758   0.222   2.528 -0.5342  0.0654  0.1365
16326TIP3    H170393   4.808   0.298   2.500 -0.2270 -0.1159  0.1953
16326TIP3    H270394   4.669   0.239   2.497  0.1297 -0.9135 -2.5367
16327TIP3   OH270395   3.364   4.959   1.924 -0.4741  0.3131 -0.1467
16327TIP3    H170396   3.400   4.882   1.880 -1.3540  1.5830 -3.3910
16327TIP3    H270397   3.271   4.940   1.934 -0.1937 -0.1945  1.8596
16328TIP3   OH270398   6.741   5.223   2.701  0.2336  0.4960  0.1739
16328TIP3    H170399   6.835   5.212   2.685  0.0655  0.5168 -0.8858
16328TIP3    H270400   6.698   5.160   2.642 -0.4574  1.6263 -0.5820
16329TIP3   OH270401   1.198   3.252  10.947  0.4245  0.4721 -0.0730
16329TIP3    H170402   1.171   3.162  10.968  2.3357 -0.5507 -1.6946
16329TIP3    H270403   1.291   3.246  10.928  0.3110  2.5246 -1.6964
16330TIP3   OH270404   1.899   5.389  13.539 -0.2934  0.4570 -0.4388
16330TIP3    H170405   1.926   5.452  13.471  0.6761 -0.1126 -0.6074
16330TIP3    H270406   1.953   5.411  13.614 -0.1410  0.0053 -0.4118
16331TIP3   OH270407   1.021   0.400   3.733 -0.1843  0.1975 -0.4499
16331TIP3    H170408   1.105   0.402   3.778 -0.5064 -0.0791  0.1669
16331TIP3    H270409   1.040   0.438   3.647  0.4063  0.8441 -0.0494
16332TIP3   OH270410   1.536   0.727  16.258 -0.3541 -0.0490 -0.5993
16332TIP3    H170411   1.592   0.675  16.200  2.1655  1.3439  0.4230
16332TIP3    H270412   1.569   0.708  16.346 -1.8681  0.4467  0.1054
16333TIP3   OH270413   4.588   2.293  12.524 -0.4397 -0.0704  0.1800
16333TIP3    H170414   4.595   2.299  12.620  2.4326 -1.8276  0.2050
16333TIP3    H270415   4.618   2.379  12.493 -1.3408  0.4974  0.8120
16334TIP3   OH270416   5.695   1.547   5.133  0.4624  0.4946  0.2066
16334TIP3    H170417   5.750   1.509   5.065 -0.6609  0.1232 -0.5181
16334TIP3    H270418   5.615   1.575   5.088  0.0206  0.9705  1.2345
16335TIP3   OH270419   4.393   0.433  11.481  0.0703 -0.2828 -1.3160
16335TIP3    H170420   4.419   0.487  11.406 -1.3691  1.3294 -0.7278
16335TIP3    H270421   4.299   0.419  11.468 -0.0814 -0.4635 -0.1127
16336TIP3   OH270422   0.795   2.655  15.963  0.1843  0.0075 -0.3406
16336TIP3    H170423   0.748   2.626  16.041 -1.5859  1.4158 -0.7876
16336TIP3    H270424   0.784   2.584  15.900 -0.3963 -0.1654 -0.0535
16337TIP3   OH270425   1.059   3.230   4.542 -0.2585 -0.0694  0.2737
16337TIP3    H170426   1.090   3.212   4.453  0.2376 -0.8297  0.5861
16337TIP3    H270427   1.127   3.193   4.598 -0.7580  0.0601  0.9715
16338TIP3   OH270428   2.357   0.404  12.370 -0.0548 -0.2947  0.6025
16338TIP3    H170429   2.378   0.328  12.425  0.6458 -0.2036  0.4731
16338TIP3    H270430   2.437   0.458  12.373 -0.2254 -0.0008 -0.0250
16339TIP3   OH270431   6.639   3.804  11.979 -0.1928 -0.2671 -0.7553
16339TIP3    H170432   6.641   3.787  12.073 -0.8396  0.0763 -0.6770
16339TIP3    H270433   6.645   3.717  11.939  0.0512 -0.4176 -0.4026
16340TIP3   OH270434   3.470   0.910  12.410 -0.0226  0.2998  0.4985
16340TIP3    H170435   3.538   0.914  12.342 -0.9948 -2.0365 -0.7263
16340TIP3    H270436   3.441   0.820  12.409 -2.1006  0.8832  2.0859
16341TIP3   OH270437   2.922   5.802  12.657  0.0322  0.2801 -0.5463
16341TIP3    H170438   2.931   5.753  12.739  1.3815  0.8924 -0.3044
16341TIP3    H270439   2.828   5.808  12.643 -0.2154 -0.1095  0.8011
16342TIP3   OH270440   0.357   4.313   3.043 -0.2438  0.1550 -0.3420
16342TIP3    H170441   0.318   4.400   3.050  0.8756  0.6129  0.5433
16342TIP3    H270442   0.295   4.263   2.989 -0.7607  1.5723 -1.1265
16343TIP3   OH270443   2.330   2.225  15.674  0.2887  0.3645  0.1852
16343TIP3    H170444   2.268   2.167  15.718  0.4554  0.5931  0.7289
16343TIP3    H270445   2.362   2.283  15.743 -0.4639  1.6374 -0.5048
16344TIP3   OH270446   1.138   4.024  16.839  0.3152  0.0541 -0.2775
16344TIP3    H170447   1.062   3.970  16.817 -0.3926  0.8064  0.2300
16344TIP3    H270448   1.119   4.056  16.928  1.8995 -0.8813  0.4419
16345TIP3   OH270449   6.225   1.008  15.440  0.2645 -0.0478  0.6354
16345TIP3    H170450   6.168   1.031  15.513  0.1994 -0.7252  0.8119
16345TIP3    H270451   6.281   0.938  15.475  0.4075 -0.1967  0.1157
16346TIP3   OH270452   0.070   0.116   6.519  0.0132  0.0339  0.0760
16346TIP3    H170453   0.037   0.032   6.551 -0.9056  1.5944  3.8235
16346TIP3    H270454  -0.003   0.177   6.532  1.1632  1.7232 -0.9810
16347TIP3   OH270455   6.035   0.252  11.420  0.5600  0.6156  0.3781
16347TIP3    H170456   6.083   0.176  11.455  0.4953  0.2446 -0.3322
16347TIP3    H270457   5.974   0.275  11.490 -1.2120 -1.5748 -0.2995
16348TIP3   OH270458   1.905   2.609   3.050 -0.2448  0.4826 -0.4722
16348TIP3    H170459   1.817   2.599   3.086 -0.4989 -1.2965 -1.4164
16348TIP3    H270460   1.925   2.702   3.057 -0.9385  0.4758  2.5934
16349TIP3   OH270461   3.734   6.231   5.105  0.1210  0.0955 -0.0218
16349TIP3    H170462   3.692   6.228   5.190 -0.8122  0.9222 -0.4425
16349TIP3    H270463   3.826   6.208   5.123 -0.5243 -2.0954  0.8576
16350TIP3   OH270464   4.324   0.647   1.980  0.0572 -0.4696 -0.2802
16350TIP3    H170465   4.379   0.707   1.930 -0.5901 -0.1850 -0.6574
16350TIP3    H270466   4.235   0.665   1.950 -0.4646  0.3303  1.6234
16351TIP3   OH270467   0.970   4.793   0.643 -0.0653 -0.4394  0.0139
16351TIP3    H170468   0.932   4.766   0.726  0.1361  1.7377  0.8619
16351TIP3    H270469   0.934   4.880   0.627  2.0554  0.3537 -0.7724
16352TIP3   OH270470   3.609   5.328   2.279  0.4458 -0.5289 -0.3972
16352TIP3    H170471   3.645   5.321   2.191  0.4581 -2.1954 -0.2782
16352TIP3    H270472   3.667   5.274   2.333  1.1457  1.3807  0.8860
16353TIP3   OH270473   4.839   0.502  14.100 -0.3414 -0.4566 -0.0301
16353TIP3    H170474   4.900   0.443  14.145 -0.4867 -0.9202 -0.4263
16353TIP3    H270475   4.836   0.580  14.155  0.9214 -0.2624 -0.2089
16354TIP3   OH270476   0.658   0.350   3.324  0.3496  0.2302  0.4581
16354TIP3    H170477   0.661   0.256   3.340 -1.3827 -0.2519 -1.5932
16354TIP3    H270478   0.741   0.370   3.280 -0.4476 -0.9947 -1.7759
16355TIP3   OH270479   2.308   0.435  16.787  0.3245  0.2631 -0.4730
16355TIP3    H170480   2.366   0.383  16.842 -1.8790 -2.0657 -0.1731
16355TIP3    H270481   2.325   0.404  16.698  0.4409  0.5055 -0.5374
16356TIP3   OH270482   2.671   1.208  11.784 -0.5082  0.1858  0.0117
16356TIP3    H170483   2.722   1.170  11.713  3.7913  1.7088  1.9636
16356TIP3    H270484   2.612   1.270  11.740  1.9926  1.1216 -2.3072
16357TIP3   OH270485   3.149   3.742   4.441 -0.0975 -0.1864  0.6405
16357TIP3    H170486   3.104   3.827   4.439  1.2242  0.5498 -0.0525
16357TIP3    H270487   3.089   3.683   4.486 -2.9916 -0.0259 -2.5856
16358TIP3   OH270488   2.348   3.766  16.650 -0.2380 -0.2128  0.6295
16358TIP3    H170489   2.270   3.716  16.673  0.0395  0.2435  2.7334
16358TIP3    H270490   2.314   3.853  16.627 -0.3045  0.5050  3.1698
16359TIP3   OH270491   4.795   4.449  12.702 -0.0257  0.2659 -0.0984
16359TIP3    H170492   4.815   4.422  12.612  2.0082  0.6002  0.2042
16359TIP3    H270493   4.874   4.427  12.752 -0.1610  2.2747  1.1179
16360TIP3   OH270494   1.057   2.956   0.904  0.1070 -0.2854  0.3651
16360TIP3    H170495   1.013   3.001   0.832  1.3842 -0.5198 -0.6112
16360TIP3    H270496   0.994   2.891   0.934 -1.0300  0.8598  0.5143
16361TIP3   OH270497   1.752   5.297   2.791  0.2980 -0.1755  0.6532
16361TIP3    H170498   1.758   5.385   2.827  0.8353  1.6270 -3.3504
16361TIP3    H270499   1.835   5.255   2.816  1.4704  1.6307 -0.0424
16362TIP3   OH270500   6.108   4.285   0.608  0.3756 -0.4669 -0.2964
16362TIP3    H170501   6.123   4.192   0.624 -0.5622 -0.6386 -0.3858
16362TIP3    H270502   6.164   4.329   0.673  2.2138 -1.0305 -1.4204
16363TIP3   OH270503   2.207   5.038   2.556 -0.3226  0.7819  0.6511
16363TIP3    H170504   2.118   5.027   2.524 -0.7857  0.1191  2.0665
16363TIP3    H270505   2.247   4.951   2.547 -0.3630  0.6613  1.5120
16364TIP3   OH270506   5.023   3.855  15.133  0.5747 -0.1935 -0.1828
16364TIP3    H170507   5.046   3.856  15.040  1.2489  1.4545 -0.0367
16364TIP3    H270508   5.063   3.774  15.166  1.5240 -0.1126 -1.0493
16365TIP3   OH270509   3.317   3.953   0.300 -0.4321  0.2204  0.1441
16365TIP3    H170510   3.372   4.018   0.256 -0.5688 -0.3863 -0.9797
16365TIP3    H270511   3.331   3.873   0.250 -1.5380 -0.1943  0.4737
16366TIP3   OH270512   4.328   4.289  10.948 -0.0802 -0.5162 -0.2671
16366TIP3    H170513   4.320   4.379  10.917  1.0785  0.3747  1.7919
16366TIP3    H270514   4.350   4.239  10.870  0.3977  1.1814 -1.2866
16367TIP3   OH270515   4.726   3.431   0.978  0.4855 -0.2559 -0.2291
16367TIP3    H170516   4.702   3.385   0.897 -1.9395 -0.0248  0.2765
16367TIP3    H270517   4.728   3.523   0.954  4.6463 -0.3636 -1.0714
16368TIP3   OH270518   0.441   2.586   3.541  0.0414  0.4931 -0.4037
16368TIP3    H170519   0.481   2.531   3.474  0.5766  2.1597 -1.5225
16368TIP3    H270520   0.431   2.528   3.617 -0.3905 -1.3947 -1.8234
16369TIP3   OH270521   2.875   4.657   5.540  0.8944 -0.5538  0.5149
16369TIP3    H170522   2.784   4.682   5.524  0.7578 -1.4234 -0.1879
16369TIP3    H270523   2.897   4.696   5.624  0.3603  0.9496 -0.0195
16370TIP3   OH270524   4.840   4.091  12.583  0.0200  0.2112 -0.3181
16370TIP3    H170525   4.787   4.171  12.585  2.7114  2.1373 -0.0643
16370TIP3    H270526   4.875   4.088  12.494 -1.7282 -1.9889 -1.0220
16371TIP3   OH270527   0.856   3.757  16.400 -0.6469 -0.1683 -0.1947
16371TIP3    H170528   0.942   3.795  16.418 -0.6887 -0.2275  0.1335
16371TIP3    H270529   0.861   3.731  16.308  0.3946 -1.9730  0.3137
16372TIP3   OH270530   0.634   4.972  16.333 -0.3309 -0.0695  0.3068
16372TIP3    H170531   0.554   4.938  16.293 -0.6206 -0.0127  0.8205
16372TIP3    H270532   0.671   5.031  16.268 -0.6406 -0.2007  0.0103
16373TIP3   OH270533   3.202   1.455  14.726  0.1446  0.1264  0.3035
16373TIP3    H170534   3.125   1.439  14.671  0.9324 -1.4247 -0.4197
16373TIP3    H270535   3.275   1.458  14.664  0.5778  3.0058  0.8087
16374TIP3   OH270536   3.274   5.151   0.479  0.3566 -0.7479  0.2106
16374TIP3    H170537   3.204   5.185   0.423  0.6703 -0.0030  0.2602
16374TIP3    H270538   3.294   5.223   0.539  0.7231 -1.1810  0.6157
16375TIP3   OH270539   1.720   0.719   0.287 -0.3546  0.0964  0.1717
16375TIP3    H170540   1.727   0.784   0.357  1.4682  0.6204 -0.4440
16375TIP3    H270541   1.753   0.764   0.210  0.6651 -1.4656 -0.3391
16376TIP3   OH270542   1.337   3.404   4.486  0.2395 -0.3757 -0.1731
16376TIP3    H170543   1.398   3.362   4.547  0.8281  0.2418 -0.3349
16376TIP3    H270544   1.320   3.490   4.524  0.1907 -0.1914 -0.6132
16377TIP3   OH270545   4.536   1.044   5.826 -0.1038  0.3672  0.4472
16377TIP3    H170546   4.627   1.068   5.815  0.3108 -1.4666 -0.5795
16377TIP3    H270547   4.497   1.055   5.739  0.6324 -4.2851 -0.7365
16378TIP3   OH270548   3.313   4.606  13.819  0.0039  0.1696 -0.2100
16378TIP3    H170549   3.374   4.533  13.820  0.0224  0.1483  1.6568
16378TIP3    H270550   3.357   4.675  13.870 -1.0938  0.5070  0.3276
16379TIP3   OH270551   2.797   0.491  16.319  0.2842  0.0010  0.0051
16379TIP3    H170552   2.849   0.488  16.399 -0.1954 -0.9657  0.3000
16379TIP3    H270553   2.810   0.405  16.279  0.3498  0.4037 -0.8472
16380TIP3   OH270554   3.852   0.469  17.174  0.2975 -0.5025  0.3741
16380TIP3    H170555   3.869   0.483  17.267  3.8031  0.9186 -0.3371
16380TIP3    H270556   3.825   0.555  17.142  0.6364 -0.6083 -0.1996
16381TIP3   OH270557   1.617   0.378  16.283 -0.3475 -0.1565 -0.5701
16381TIP3    H170558   1.618   0.357  16.377 -0.9200  0.8364 -0.3207
16381TIP3    H270559   1.662   0.462  16.278 -0.8844  0.1011 -1.1048
16382TIP3   OH270560   2.059   6.479  12.653  0.6659  0.6394 -0.3738
16382TIP3    H170561   2.153   6.487  12.636  1.2411 -0.9678  1.6416
16382TIP3    H270562   2.052   6.479  12.748 -1.3506  0.2932 -0.4871
16383TIP3   OH270563   5.142   0.914   1.792 -0.1586 -0.1344 -0.4972
16383TIP3    H170564   5.224   0.873   1.819 -0.4385  0.1805  0.8730
16383TIP3    H270565   5.167   1.004   1.769  0.1525 -0.5276 -1.7628
16384TIP3   OH270566   5.432   5.895   3.853  0.0461  0.0460 -0.4883
16384TIP3    H170567   5.473   5.959   3.912 -1.0999  1.9655 -1.6760
16384TIP3    H270568   5.390   5.832   3.911  1.1146  0.4087  0.7273
16385TIP3   OH270569   6.339   6.243  15.810  0.2200  0.3151 -0.0837
16385TIP3    H170570   6.280   6.168  15.804 -0.0290  0.6069 -1.6359
16385TIP3    H270571   6.334   6.270  15.902 -0.9360 -0.5595  0.1298
16386TIP3   OH270572   5.119   6.768  16.178 -0.1202 -0.6023 -0.3602
16386TIP3    H170573   5.148   6.706  16.111 -0.3174 -0.4547 -0.5840
16386TIP3    H270574   5.091   6.845  16.129  0.9591  0.0147 -0.0387
16387TIP3   OH270575   6.465   2.499  13.829 -0.1032 -0.3585  0.5788
16387TIP3    H170576   6.504   2.432  13.772 -0.8292 -1.4955  1.3869
16387TIP3    H270577   6.530   2.512  13.898 -1.0208 -2.1819  1.8701
16388TIP3   OH270578   5.413   2.605   0.600 -0.1349  0.6781  0.0713
16388TIP3    H170579   5.414   2.550   0.522 -0.4251 -0.1625  0.6531
16388TIP3    H270580   5.494   2.656   0.594  0.4440 -0.2429 -0.1760
16389TIP3   OH270581   6.634   5.874  11.567  0.1821 -0.3311 -0.0206
16389TIP3    H170582   6.581   5.884  11.488 -0.6238 -1.8930  0.2887
16389TIP3    H270583   6.585   5.920  11.635  0.2519 -0.0374 -0.1689
16390TIP3   OH270584   1.021   2.342  13.219  0.2079  0.0809  0.6759
16390TIP3    H170585   1.020   2.258  13.264  2.8847  0.4801  1.6928
16390TIP3    H270586   1.025   2.321  13.126  2.0215 -0.9856  0.9588
16391TIP3   OH270587   2.294   5.954   0.674 -0.0838 -0.0073 -0.1647
16391TIP3    H170588   2.291   5.962   0.770 -0.4079 -0.9146 -0.0920
16391TIP3    H270589   2.266   5.865   0.656 -1.4283  0.5835 -1.1862
16392TIP3   OH270590   2.614   6.436  15.022 -0.0499 -0.4477  0.3102
16392TIP3    H170591   2.608   6.437  14.926 -0.3761  0.6692  0.3213
16392TIP3    H270592   2.524   6.442  15.052  0.0433 -0.9510  0.6935
16393TIP3   OH270593   0.283   5.761   2.967 -0.3132 -0.0289 -0.3540
16393TIP3    H170594   0.359   5.707   2.987 -1.3048 -1.7281 -0.8983
16393TIP3    H270595   0.262   5.806   3.049  1.6709  1.0432 -0.3880
16394TIP3   OH270596   2.893   6.003  17.198  0.2859 -0.2016 -0.3101
16394TIP3    H170597   2.889   6.069  17.129 -1.9024  1.2932  1.1268
16394TIP3    H270598   2.945   6.045  17.267  2.6627 -1.7740 -0.9980
16395TIP3   OH270599   4.700   6.530   1.119 -0.0623 -0.2034  0.3550
16395TIP3    H170600   4.671   6.524   1.028  0.1606  0.4538  0.2330
16395TIP3    H270601   4.720   6.439   1.144  2.4726 -0.1658 -1.1385
16396TIP3   OH270602   2.944   5.093  14.800 -0.0394  0.4558  0.3610
16396TIP3    H170603   2.952   5.187  14.787 -0.0257  0.2107 -1.5705
16396TIP3    H270604   2.850   5.078  14.807 -0.3674  0.2369 -3.0209
16397TIP3   OH270605   0.038   3.580   2.343  0.2141 -0.0856  0.1659
16397TIP3    H170606   0.024   3.651   2.406 -0.7572  0.5365 -0.7147
16397TIP3    H270607   0.012   3.618   2.259  2.9203 -0.3654 -0.9048
16398TIP3   OH270608   4.564   4.920   2.088 -0.2891 -0.0905  0.1212
16398TIP3    H170609   4.557   4.827   2.066 -2.0942 -0.2343  1.1740
16398TIP3    H270610   4.484   4.959   2.053 -0.7631  0.5966  1.9128
16399TIP3   OH270611   6.025   0.844   0.009 -0.4725 -0.1379  0.2525
16399TIP3    H170612   5.936   0.859   0.043 -0.8514 -0.2160 -0.6801
16399TIP3    H270613   6.081   0.899   0.065 -0.9641 -0.8665  1.5101
16400TIP3   OH270614   4.405   1.298   2.092 -0.2110 -0.0147  0.3102
16400TIP3    H170615   4.418   1.362   2.163  1.4935 -0.3652  0.3657
16400TIP3    H270616   4.494   1.276   2.064 -0.8361 -0.5683 -1.3382
16401TIP3   OH270617   0.239   6.605   4.873 -0.1330  0.4529 -0.0090
16401TIP3    H170618   0.245   6.614   4.968  1.0930  1.9426 -0.2001
16401TIP3    H270619   0.169   6.665   4.848 -0.7623 -0.2682 -0.0329
16402TIP3   OH270620   4.080   6.028  11.892  0.4610  0.4461 -0.2449
16402TIP3    H170621   4.019   5.963  11.927  0.4532  1.0215  0.8221
16402TIP3    H270622   4.036   6.061  11.814 -0.2425  0.2951  0.0777
16403TIP3   OH270623   2.956   1.949   6.042 -0.3500 -0.2647  0.1776
16403TIP3    H170624   3.043   1.988   6.031 -0.0864 -0.6416  0.8419
16403TIP3    H270625   2.897   2.025   6.046  0.1484  0.0910  1.3459
16404TIP3   OH270626   1.711   3.982   3.805  0.0503 -0.5501  0.0376
16404TIP3    H170627   1.686   4.070   3.777 -1.2220 -0.7050  0.6116
16404TIP3    H270628   1.678   3.925   3.736  0.9291 -0.5908 -0.3641
16405TIP3   OH270629   3.072   5.173   0.281 -0.7633 -0.4259 -0.4137
16405TIP3    H170630   2.992   5.223   0.268 -1.7492 -1.3252  1.6945
16405TIP3    H270631   3.097   5.145   0.193 -0.9589  2.4725 -1.5084
16406TIP3   OH270632   2.514   2.134  16.450  0.1023  0.1288 -0.3471
16406TIP3    H170633   2.604   2.166  16.446  0.1729  0.0536  0.4161
16406TIP3    H270634   2.461   2.207  16.419  0.3266  0.6932  0.5617
16407TIP3   OH270635   2.658   1.902   1.961 -0.5404 -0.7639 -0.3576
16407TIP3    H170636   2.578   1.872   2.004 -2.1459  0.1483 -2.4763
16407TIP3    H270637   2.706   1.822   1.941 -0.4427 -1.2800  1.7213
16408TIP3   OH270638   3.257   4.539  16.703  0.5812  0.1568  0.2883
16408TIP3    H170639   3.316   4.547  16.778  1.5151  1.0246 -0.5314
16408TIP3    H270640   3.184   4.597  16.724  1.3038  1.1512  0.0976
16409TIP3   OH270641   3.044   1.758   6.604  0.0863 -0.4465 -0.1399
16409TIP3    H170642   3.116   1.760   6.668 -0.3807  0.2167  0.3783
16409TIP3    H270643   3.027   1.665   6.591  2.2758 -0.6964 -1.7042
16410TIP3   OH270644   4.235   5.447  14.942 -0.5393  0.3112  0.3822
16410TIP3    H170645   4.192   5.362  14.948 -1.0090  0.5977  1.2853
16410TIP3    H270646   4.320   5.434  14.985 -0.7070  0.3542  0.7300
16411TIP3   OH270647   4.012   3.358   1.682  0.0227  0.0818 -0.2618
16411TIP3    H170648   3.920   3.342   1.662 -0.0375 -0.0924  0.1487
16411TIP3    H270649   4.011   3.420   1.755  0.2513  2.6113 -2.2600
16412TIP3   OH270650   4.653   4.960  17.074  0.3207  0.0446  0.0439
16412TIP3    H170651   4.640   4.918  17.159  0.7622  0.4004  0.2950
16412TIP3    H270652   4.715   4.904  17.028  1.5211  0.7924  0.6799
16413TIP3   OH270653   0.209   0.415  17.105  0.0022 -0.4466 -0.0324
16413TIP3    H170654   0.212   0.382  17.195  1.9572  0.2592  0.2088
16413TIP3    H270655   0.295   0.394  17.069  0.1388  1.4346 -0.9167
16414TIP3   OH270656   3.357   2.682  17.061 -0.0265  0.7006 -0.1225
16414TIP3    H170657   3.287   2.641  17.009  1.2120 -1.6343 -0.1051
16414TIP3    H270658   3.327   2.772  17.074 -1.4942  0.7403 -2.8626
16415TIP3   OH270659   2.757   0.310  12.840  0.2293 -0.3378  0.2556
16415TIP3    H170660   2.785   0.288  12.928  1.6007  0.2051 -0.0152
16415TIP3    H270661   2.836   0.299  12.786 -0.1895  0.7483 -0.6372
16416TIP3   OH270662   5.317   4.207  15.720 -0.4024 -0.6525  0.3259
16416TIP3    H170663   5.242   4.146  15.722 -0.9640  0.0430  1.2760
16416TIP3    H270664   5.376   4.173  15.787  0.1163 -1.1629 -0.3797
16417TIP3   OH270665   5.362   1.148  15.168  0.0952  0.1516 -0.5585
16417TIP3    H170666   5.455   1.126  15.173 -0.5968 -3.1395  0.2739
16417TIP3    H270667   5.345   1.198  15.248  0.9764 -0.0045 -0.2672
16418TIP3   OH270668   0.508   0.985   5.239 -0.6737  0.2331 -0.1019
16418TIP3    H170669   0.449   0.959   5.310 -0.7676  0.1868 -0.1970
16418TIP3    H270670   0.522   0.904   5.189  1.0038 -0.2374  1.0215
16419TIP3   OH270671   1.348   3.301   5.938  1.0226 -0.5180 -0.1515
16419TIP3    H170672   1.390   3.325   6.021  2.0106  1.7474 -1.2119
16419TIP3    H270673   1.410   3.241   5.896  0.6863 -1.3870  0.5569
16420TIP3   OH270674   1.058   5.857  16.967 -0.1485 -0.3586 -0.3210
16420TIP3    H170675   1.086   5.912  17.040  0.3521 -0.8801 -0.1120
16420TIP3    H270676   1.140   5.825  16.928 -0.4164 -2.2752  0.5785
16421TIP3   OH270677   3.035   4.996  10.945  0.4615 -0.1219  0.1179
16421TIP3    H170678   2.946   4.961  10.937  0.5628 -0.6811  1.3216
16421TIP3    H270679   3.092   4.919  10.943  0.6989 -0.0918  2.5862
16422TIP3   OH270680   6.444   1.820  16.681 -0.4391  0.1042  0.3962
16422TIP3    H170681   6.530   1.779  16.689  0.3903  1.1861 -1.9150
16422TIP3    H270682   6.450   1.900  16.734 -1.0692 -1.2278  2.5687
16423TIP3   OH270683   2.574   2.927   0.210 -0.0481 -0.1274  0.1514
16423TIP3    H170684   2.624   2.881   0.142  0.9995 -0.1984  0.9526
16423TIP3    H270685   2.567   2.863   0.281  0.6180  0.6185  0.9096
16424TIP3   OH270686   2.012   6.606   4.411  0.3694  0.1583 -0.9360
16424TIP3    H170687   2.008   6.697   4.443  1.3911  0.4707 -1.6457
16424TIP3    H270688   2.039   6.614   4.319 -1.7554 -0.7625 -1.6948
16425TIP3   OH270689   5.105   5.627   0.559  0.0038 -0.3171 -0.1450
16425TIP3    H170690   5.060   5.588   0.483 -2.1562 -1.4163  1.5547
16425TIP3    H270691   5.157   5.555   0.595 -0.3562 -0.3295  0.3685
16426TIP3   OH270692   5.686   5.344  12.290  0.2266  0.2421  0.2357
16426TIP3    H170693   5.683   5.253  12.321  0.5849  0.5451  1.2176
16426TIP3    H270694   5.607   5.384  12.327  0.4276  0.4947  0.4011
16427TIP3   OH270695   0.843   1.386  13.764  0.4788  0.4396 -0.3560
16427TIP3    H170696   0.884   1.310  13.804 -0.2980 -0.1509 -0.6359
16427TIP3    H270697   0.757   1.392  13.806  0.6505  1.3710 -0.1027
16428TIP3   OH270698   3.844   4.873  15.271  0.4765  0.2093  0.2923
16428TIP3    H170699   3.773   4.842  15.327  0.8043  0.1028  0.6464
16428TIP3    H270700   3.799   4.914  15.197  0.0423 -0.9351 -0.0902
16429TIP3   OH270701   6.146   3.505  16.154  0.1317 -0.0837 -0.1580
16429TIP3    H170702   6.079   3.490  16.221 -0.4999 -2.3010 -1.2059
16429TIP3    H270703   6.108   3.573  16.098 -0.9052 -0.7257 -0.2649
16430TIP3   OH270704   2.978   2.579   2.845 -0.0605 -0.5714  0.7840
16430TIP3    H170705   3.010   2.490   2.834  0.5314 -0.3579  0.7308
16430TIP3    H270706   3.031   2.615   2.917 -1.1219 -0.6488  1.6293
16431TIP3   OH270707   6.351   6.501   4.236 -0.6853  0.2173  0.2154
16431TIP3    H170708   6.340   6.420   4.286 -1.2482  1.2799  1.8977
16431TIP3    H270709   6.262   6.532   4.222 -0.4897  0.3731 -0.7750
16432TIP3   OH270710   2.841   4.425  15.443  0.2860 -0.3262  0.6918
16432TIP3    H170711   2.934   4.440  15.460  0.6064 -0.4400 -0.8281
16432TIP3    H270712   2.796   4.491  15.497  1.3965  1.8253 -0.8484
16433TIP3   OH270713   2.502   2.434   2.940  0.0389  0.1824  0.0144
16433TIP3    H170714   2.559   2.406   2.868 -0.0341 -0.9461  0.3762
16433TIP3    H270715   2.540   2.393   3.018 -0.8060  0.0704  0.3788
16434TIP3   OH270716   4.357   3.317  14.940 -0.2674 -0.4149 -0.2306
16434TIP3    H170717   4.315   3.261  14.874 -0.4731 -2.2634  1.3616
16434TIP3    H270718   4.314   3.293  15.022  0.9786  0.7418  0.8085
16435TIP3   OH270719   1.734   0.717  13.390 -0.2628 -0.0013 -0.2110
16435TIP3    H170720   1.648   0.751  13.366 -0.9916 -1.5416  0.1235
16435TIP3    H270721   1.794   0.756  13.326 -1.5718 -0.8158 -2.0037
16436TIP3   OH270722   3.585   6.726   0.309  0.0000  0.2166 -0.0797
16436TIP3    H170723   3.565   6.668   0.383  0.2182  0.0608 -0.1427
16436TIP3    H270724   3.590   6.813   0.348 -0.8152  0.2651 -0.0639
16437TIP3   OH270725   2.087   0.910   5.301 -0.1710 -0.3932  0.1257
16437TIP3    H170726   2.136   0.833   5.272  0.3601  0.3647 -1.0506
16437TIP3    H270727   2.013   0.917   5.241  0.6351  0.8684 -0.7964
16438TIP3   OH270728   5.391   3.433  12.762 -0.1838 -0.4834 -0.1373
16438TIP3    H170729   5.299   3.436  12.786  0.0574 -1.6126  1.0459
16438TIP3    H270730   5.423   3.349  12.797  1.6076  0.4891  0.7243
16439TIP3   OH270731   1.569   4.111   0.258  0.0376  0.3691 -0.5999
16439TIP3    H170732   1.626   4.098   0.334 -0.8747  0.4881  0.1177
16439TIP3    H270733   1.623   4.161   0.196  1.2291 -0.8021 -0.5705
16440TIP3   OH270734   2.948   5.681  11.324  0.7479 -0.3805 -0.1599
16440TIP3    H170735   2.913   5.640  11.402  0.8128  0.3131  0.2463
16440TIP3    H270736   2.881   5.667  11.257  1.3754 -2.3608 -0.4386
16441TIP3   OH270737   3.465   5.469   3.740  0.5830  0.4863  0.2823
16441TIP3    H170738   3.444   5.380   3.768  0.1038  0.2741 -0.6953
16441TIP3    H270739   3.381   5.511   3.725  0.8067  0.8194 -0.1012
16442TIP3   OH270740   6.107   6.581   3.379 -0.1252  0.2334 -0.2120
16442TIP3    H170741   6.190   6.544   3.410  0.3503  2.0081  0.7410
16442TIP3    H270742   6.090   6.536   3.296  1.4780 -0.5704 -0.1350
16443TIP3   OH270743   5.884   6.223  13.866  0.2808 -0.0116  0.0869
16443TIP3    H170744   5.904   6.283  13.793  1.6967  1.0905  1.3070
16443TIP3    H270745   5.794   6.244  13.889  0.3730  0.8464 -0.2630
16444TIP3   OH270746   2.549   5.211   0.431 -0.3009  0.0729  0.2506
16444TIP3    H170747   2.555   5.116   0.419  1.1217  0.2396 -0.5731
16444TIP3    H270748   2.637   5.237   0.459 -0.8433  1.0831  1.0844
16445TIP3   OH270749   5.893   3.458   5.029 -0.3731  0.2991  0.3078
16445TIP3    H170750   5.814   3.460   5.083 -0.7179 -0.1181 -0.1685
16445TIP3    H270751   5.954   3.517   5.073 -1.5048  1.9073 -0.1970
16446TIP3   OH270752   3.266   2.174   3.986  0.7940 -0.4902  0.4116
16446TIP3    H170753   3.271   2.134   4.072  2.3736 -1.8529 -0.2498
16446TIP3    H270754   3.345   2.228   3.980  1.0242 -0.8974 -0.3934
16447TIP3   OH270755   2.929   3.726   5.757 -0.6485 -0.1604  0.6259
16447TIP3    H170756   2.970   3.694   5.837  0.9038 -1.2147 -0.5148
16447TIP3    H270757   2.950   3.659   5.692  0.2609  1.7998 -1.2275
16448TIP3   OH270758   6.361   1.580   3.814 -0.2271 -0.0049  0.0715
16448TIP3    H170759   6.342   1.645   3.881 -0.0446  2.0309 -1.7301
16448TIP3    H270760   6.448   1.604   3.781 -0.2614 -1.0080 -0.8218
16449TIP3   OH270761   2.320   5.407   0.162 -0.4014 -0.2463 -0.1285
16449TIP3    H170762   2.266   5.474   0.204 -1.3214 -1.8415  1.3526
16449TIP3    H270763   2.268   5.377   0.088 -1.6842 -1.8549  1.3560
16450TIP3   OH270764   5.001   6.135   0.803  0.1212  0.1200 -0.3517
16450TIP3    H170765   5.031   6.055   0.760  1.6814  0.8557 -0.7176
16450TIP3    H270766   5.033   6.205   0.746 -2.1272  1.0176 -0.6043
16451TIP3   OH270767   2.120   0.372  13.437 -0.1643  0.4787 -0.0135
16451TIP3    H170768   2.164   0.360  13.521 -0.7313  2.2721  0.5877
16451TIP3    H270769   2.065   0.294  13.428 -0.4501  0.4750  1.5213
16452TIP3   OH270770   0.948   4.650   5.457 -0.1617 -0.6415 -0.2809
16452TIP3    H170771   0.951   4.644   5.361  0.6716 -0.0257 -0.3115
16452TIP3    H270772   0.900   4.573   5.485 -0.1520 -0.9869 -1.1852
16453TIP3   OH270773   0.990   3.939  13.076 -0.3805  0.3651 -0.3613
16453TIP3    H170774   1.080   3.914  13.059 -0.1940  2.1274 -2.3446
16453TIP3    H270775   0.938   3.871  13.034  0.0632  0.5045 -1.1546
16454TIP3   OH270776   3.367   2.894   2.547 -0.4272 -0.1902 -0.4953
16454TIP3    H170777   3.456   2.929   2.552 -0.0772 -1.1246  3.8706
16454TIP3    H270778   3.379   2.801   2.527 -0.5915  0.0126 -1.5888
16455TIP3   OH270779   3.712   0.445   0.672 -0.2057  0.0461 -0.2466
16455TIP3    H170780   3.659   0.469   0.596  0.2700 -2.9500 -1.6615
16455TIP3    H270781   3.794   0.413   0.636  0.4185 -0.5858  1.5908
16456TIP3   OH270782   2.921   2.917   5.905 -0.5324  0.1554 -0.0731
16456TIP3    H170783   2.938   2.874   5.989 -1.9569 -0.4795 -0.0796
16456TIP3    H270784   2.955   2.856   5.840 -1.5013 -0.4289 -0.0381
16457TIP3   OH270785   0.287   4.152   4.371 -0.4301  0.0436 -0.4019
16457TIP3    H170786   0.332   4.235   4.390 -0.6725 -0.0023  0.4390
16457TIP3    H270787   0.325   4.122   4.289  2.4864 -0.9421  1.1725
16458TIP3   OH270788   6.211   3.717   6.389  0.3967 -0.5640 -0.3958
16458TIP3    H170789   6.255   3.743   6.470 -1.9897  0.2889  0.7421
16458TIP3    H270790   6.167   3.797   6.360  0.6417 -1.0447 -2.1782
16459TIP3   OH270791   3.789   1.436  13.501  0.1064 -0.1593  0.0983
16459TIP3    H170792   3.726   1.424  13.572 -1.0532 -2.3351 -1.1767
16459TIP3    H270793   3.851   1.363  13.512  0.6172  0.1861 -0.4261
16460TIP3   OH270794   1.393   5.060  14.160 -0.2085 -0.0700 -0.1180
16460TIP3    H170795   1.300   5.046  14.142 -0.1919 -0.8889  0.3636
16460TIP3    H270796   1.436   5.044  14.076 -0.6615  2.4533 -0.9064
16461TIP3   OH270797   4.747   4.377  10.986  0.6340 -0.6547  0.0130
16461TIP3    H170798   4.767   4.379  10.893  1.3280  0.0902  0.1643
16461TIP3    H270799   4.711   4.290  11.002 -1.7707 -0.0206 -1.3977
16462TIP3   OH270800   6.192   0.981   3.293 -0.1487 -0.3835 -0.4624
16462TIP3    H170801   6.249   0.953   3.222  0.0171  2.6146 -1.6796
16462TIP3    H270802   6.105   0.949   3.268 -0.2921  1.4461 -2.6807
16463TIP3   OH270803   6.575   4.141  13.199  0.0277 -0.1060 -0.3944
16463TIP3    H170804   6.562   4.196  13.276  0.6313 -1.4717  0.7290
16463TIP3    H270805   6.534   4.190  13.127 -2.1572  0.4201  1.0961
16464TIP3   OH270806   6.231   0.981  16.998 -0.3782 -0.2211 -0.0099
16464TIP3    H170807   6.262   0.943  17.080 -2.3634 -2.1534 -0.0612
16464TIP3    H270808   6.286   0.939  16.931  0.1979  0.1679  0.2137
16465TIP3   OH270809   2.658   2.978   5.282 -0.0382 -0.2570  0.0111
16465TIP3    H170810   2.665   3.065   5.244 -1.2788 -0.1965 -0.1248
16465TIP3    H270811   2.734   2.970   5.339 -1.8748  2.5512  3.2295
16466TIP3   OH270812   2.197   2.260  14.545  0.7244 -0.1655  0.0339
16466TIP3    H170813   2.152   2.177  14.562  1.7842 -0.6595  0.5128
16466TIP3    H270814   2.276   2.256  14.598  1.2815  0.7350 -0.6923
16467TIP3   OH270815   4.648   1.864   3.627 -0.0989 -0.0953  0.2001
16467TIP3    H170816   4.615   1.781   3.663  1.5684 -0.4305  1.0350
16467TIP3    H270817   4.655   1.847   3.533 -4.0199  0.6323 -0.3991
16468TIP3   OH270818   2.650   2.759   4.124 -0.1009 -0.4263 -0.1112
16468TIP3    H170819   2.626   2.844   4.087  1.3834 -0.1756 -0.5467
16468TIP3    H270820   2.725   2.777   4.180 -0.8905 -1.1752  1.2441
16469TIP3   OH270821   0.369   4.555  16.595 -0.7998  0.6417  0.3116
16469TIP3    H170822   0.423   4.477  16.584 -0.5861  0.9974 -1.4100
16469TIP3    H270823   0.356   4.562  16.690 -1.5805 -1.9852  0.4815
16470TIP3   OH270824   5.810   1.412   2.221 -0.4971  0.3822 -0.4400
16470TIP3    H170825   5.821   1.324   2.258  0.7862  0.4681 -0.5615
16470TIP3    H270826   5.837   1.403   2.130  1.5427  1.2814  0.0311
16471TIP3   OH270827   3.235   0.781  17.082 -0.2335 -0.0805  0.1932
16471TIP3    H170828   3.229   0.821  17.169 -1.3880 -0.1740  0.1586
16471TIP3    H270829   3.203   0.849  17.022  0.7525  0.0598 -0.1977
16472TIP3   OH270830   3.533   4.333   6.424  0.4504  0.1429  0.1096
16472TIP3    H170831   3.495   4.420   6.437  0.3121 -0.0383  0.9844
16472TIP3    H270832   3.460   4.273   6.442  0.0458 -0.1468 -2.2096
16473TIP3   OH270833   3.942   4.851   2.364 -0.0213 -0.5333  0.0125
16473TIP3    H170834   3.973   4.935   2.399  2.4837 -0.5961 -1.7692
16473TIP3    H270835   3.958   4.788   2.434  1.7956 -0.1340  0.0027
16474TIP3   OH270836   5.328   4.365  16.619 -0.1867 -0.0006 -0.1783
16474TIP3    H170837   5.321   4.296  16.554  2.8471  1.0014 -1.7608
16474TIP3    H270838   5.340   4.319  16.702 -0.8954 -1.3163 -0.7759
16475TIP3   OH270839   5.838   2.434   4.916 -0.2149  0.2022  0.2188
16475TIP3    H170840   5.812   2.439   4.824  0.1232 -0.9142  0.0388
16475TIP3    H270841   5.876   2.346   4.925  1.0016  0.7901  1.1104
16476TIP3   OH270842   0.637   6.182  13.511  0.4160  0.1626 -0.4336
16476TIP3    H170843   0.567   6.201  13.572 -0.7965 -2.1033 -0.9963
16476TIP3    H270844   0.716   6.215  13.554 -0.5095 -0.4547  1.9128
16477TIP3   OH270845   1.249   0.693   2.996 -0.7447  0.2130  0.4705
16477TIP3    H170846   1.217   0.767   3.048  1.7708  0.4772  1.8164
16477TIP3    H270847   1.249   0.619   3.057  1.2156  0.2737  0.6258
16478TIP3   OH270848   4.395   2.741   1.877  0.2749 -0.7516 -0.3893
16478TIP3    H170849   4.417   2.692   1.798 -0.9499 -2.6117  0.3545
16478TIP3    H270850   4.341   2.681   1.928  1.0930  0.3438  1.9216
16479TIP3   OH270851   3.503   2.838   5.822 -0.1905  0.0419 -0.1827
16479TIP3    H170852   3.429   2.853   5.880 -0.3210  1.1926 -0.6291
16479TIP3    H270853   3.579   2.871   5.871 -0.0624 -0.4956 -0.0100
16480TIP3   OH270854   0.935   5.868  16.712  0.0001  0.6986 -0.2460
16480TIP3    H170855   0.963   5.864  16.804 -0.1914  1.0775 -0.1743
16480TIP3    H270856   0.840   5.880  16.716 -0.2778 -1.1401 -0.4915
16481TIP3   OH270857   0.556   0.280  15.643  0.0556  0.2094 -0.1233
16481TIP3    H170858   0.471   0.246  15.615 -0.2380  0.1733  0.7792
16481TIP3    H270859   0.535   0.339  15.715  0.7623  0.5764 -0.2086
16482TIP3   OH270860   6.185   5.352   3.905 -0.0117 -0.4149  0.4329
16482TIP3    H170861   6.196   5.258   3.900  0.6577 -0.4416  1.8850
16482TIP3    H270862   6.168   5.370   3.997  2.8698  1.1463  0.8014
16483TIP3   OH270863   1.452   3.703  12.936  0.2899 -0.5776 -0.0113
16483TIP3    H170864   1.404   3.671  12.860  1.3318  0.7038 -1.2654
16483TIP3    H270865   1.540   3.719  12.904  0.1505  2.3536  0.7568
16484TIP3   OH270866   1.601   6.308  13.832 -0.1938 -0.2937 -0.0965
16484TIP3    H170867   1.526   6.324  13.890  0.3233 -3.6200  1.6969
16484TIP3    H270868   1.591   6.217  13.804  0.6994  0.5558 -3.7369
16485TIP3   OH270869   3.580   0.936  11.927 -0.3873  0.1893 -0.3182
16485TIP3    H170870   3.572   0.903  11.838 -1.7522 -1.6975  0.4450
16485TIP3    H270871   3.549   1.027  11.923 -1.9102 -0.3615 -1.4789
16486TIP3   OH270872   4.111   4.256   0.944 -0.1940  0.4537  0.2714
16486TIP3    H170873   4.204   4.246   0.926 -0.3929 -0.2702 -0.4267
16486TIP3    H270874   4.105   4.272   1.038  0.7628  2.3653  0.0396
16487TIP3   OH270875   6.313   6.755  14.710  0.1875 -0.2444  0.0289
16487TIP3    H170876   6.283   6.835  14.753  1.3340 -0.4865  1.3532
16487TIP3    H270877   6.408   6.756  14.720  0.1275 -2.6206  1.7029
16488TIP3   OH270878   0.792   6.063   1.868 -0.1681 -0.5191  0.2948
16488TIP3    H170879   0.845   6.123   1.920  0.2748  1.0023 -1.7459
16488TIP3    H270880   0.835   6.063   1.782 -1.7770 -1.6204 -0.5475
16489TIP3   OH270881   3.655   0.190   2.158  0.5597 -0.1980 -0.3699
16489TIP3    H170882   3.697   0.226   2.080  1.8643 -0.1891  0.3028
16489TIP3    H270883   3.663   0.260   2.223 -0.7821 -0.0934 -0.2937
16490TIP3   OH270884   2.740   0.598  14.804  0.2631 -0.3007 -0.8031
16490TIP3    H170885   2.736   0.662  14.875  0.4808 -0.1521 -0.9251
16490TIP3    H270886   2.652   0.599  14.766 -0.3489 -1.5342  0.4772
16491TIP3   OH270887   0.210   2.035  11.421 -0.2387  0.3131  0.1457
16491TIP3    H170888   0.140   2.036  11.355 -0.0941  1.6634 -0.0080
16491TIP3    H270889   0.242   2.125  11.424  0.8733 -0.0867  0.8916
16492TIP3   OH270890   1.669   1.037   3.563 -0.3178  0.0608  0.1931
16492TIP3    H170891   1.617   1.005   3.489 -0.6754  0.0755  0.4323
16492TIP3    H270892   1.630   1.123   3.583 -1.1845 -0.5749  1.3238
16493TIP3   OH270893   6.705   0.222   4.778  0.4536  0.0425  0.2837
16493TIP3    H170894   6.796   0.192   4.774 -0.1704 -2.0042 -0.0804
16493TIP3    H270895   6.685   0.252   4.690  1.0074  1.3179  0.5764
16494TIP3   OH270896   0.888   4.720  13.641 -0.4564  0.4671 -0.0982
16494TIP3    H170897   0.883   4.671  13.723  1.2845  1.4246  0.6324
16494TIP3    H270898   0.899   4.654  13.574  0.4870 -0.2287  0.7134
16495TIP3   OH270899   0.540   2.537  14.793 -0.2304 -0.4818 -0.5392
16495TIP3    H170900   0.545   2.445  14.817  0.3919 -0.4638 -0.5930
16495TIP3    H270901   0.463   2.543  14.736 -1.7498 -0.5382  1.3748
16496TIP3   OH270902   5.042   2.692  16.432 -0.3868 -0.5100 -0.4860
16496TIP3    H170903   4.956   2.655  16.411 -0.9790 -0.9771  2.3688
16496TIP3    H270904   5.025   2.785  16.447 -0.2606 -0.4721 -0.5757
16497TIP3   OH270905   3.145   5.541   0.424 -0.3649 -0.1726  0.0726
16497TIP3    H170906   3.054   5.512   0.431 -0.1792 -0.5889  0.8121
16497TIP3    H270907   3.152   5.616   0.482 -0.2105 -0.2138  0.1095
16498TIP3   OH270908   0.365   0.593   5.609  0.4362 -0.2102 -0.1347
16498TIP3    H170909   0.428   0.580   5.539 -0.0593  0.3543 -0.7025
16498TIP3    H270910   0.407   0.655   5.668  0.7852 -0.5548 -0.0152
16499TIP3   OH270911   4.558   5.539   6.197  0.0622  0.1125 -0.0342
16499TIP3    H170912   4.561   5.462   6.253 -3.2659 -0.0413  0.1763
16499TIP3    H270913   4.464   5.553   6.181  0.6946  1.7115 -3.4002
16500TIP3   OH270914   0.296   0.621  11.325 -0.3212  0.0762  0.1907
16500TIP3    H170915   0.245   0.605  11.245 -0.5101  1.0568  0.1092
16500TIP3    H270916   0.387   0.622  11.295 -0.3312 -0.4310  0.1338
16501TIP3   OH270917   4.334   4.768  17.178  0.2176 -0.0976 -0.4744
16501TIP3    H170918   4.319   4.826  17.104 -0.3123  0.6577  0.2064
16501TIP3    H270919   4.374   4.689  17.140  0.9409  0.7038 -1.4122
16502TIP3   OH270920   4.812   3.608  15.563  0.2373  0.0259 -0.0330
16502TIP3    H170921   4.837   3.669  15.494 -0.0636  0.1231 -0.0546
16502TIP3    H270922   4.790   3.527  15.516 -1.2381  0.4878 -0.1574
16503TIP3   OH270923   0.967   1.156  15.581  0.0780 -0.0193  0.3108
16503TIP3    H170924   1.043   1.138  15.525  0.4617 -1.8243  1.3474
16503TIP3    H270925   0.897   1.101  15.546 -0.2917  0.4039  0.3731
16504TIP3   OH270926   4.073   0.933  13.626  0.1811 -0.1168 -0.1335
16504TIP3    H170927   4.147   0.879  13.654 -1.4357 -2.7193 -0.5335
16504TIP3    H270928   4.033   0.964  13.708  0.0715 -1.1134  0.2042
16505TIP3   OH270929   0.173   3.115   0.455 -0.0593 -0.2115  0.8203
16505TIP3    H170930   0.169   3.034   0.405 -0.1745  0.8938 -1.0384
16505TIP3    H270931   0.247   3.102   0.515 -1.0568 -2.2653  1.6937
16506TIP3   OH270932   3.617   0.062   5.671 -0.3475 -0.2188 -0.4378
16506TIP3    H170933   3.536   0.091   5.629 -1.3750 -0.8150  1.0379
16506TIP3    H270934   3.687   0.105   5.621 -1.5527  0.2193 -1.8181
16507TIP3   OH270935   1.803   0.620  14.971  0.9992 -0.4438 -0.8696
16507TIP3    H170936   1.890   0.583  14.959  2.5491  2.0805  1.3847
16507TIP3    H270937   1.755   0.553  15.021  2.2052 -1.2113 -0.6989
16508TIP3   OH270938   4.292   3.031   5.051  0.6815 -0.0912 -0.2766
16508TIP3    H170939   4.218   3.049   4.993 -0.3031  1.3032  1.3319
16508TIP3    H270940   4.342   3.112   5.053  1.1054 -0.3559  0.2460
16509TIP3   OH270941   5.051   0.511   6.175 -0.1179 -0.5889 -0.1481
16509TIP3    H170942   5.021   0.471   6.256  0.5012 -1.4584 -0.3322
16509TIP3    H270943   4.978   0.498   6.114 -0.2774 -0.6261  0.0494
16510TIP3   OH270944   5.527   3.757   0.965  0.0894 -0.3211  0.2258
16510TIP3    H170945   5.616   3.772   0.932  0.0804  1.2935  0.8204
16510TIP3    H270946   5.534   3.677   1.017  0.3952 -2.1701 -2.4787
16511TIP3   OH270947   2.265   3.584   2.370  0.3715 -0.6794 -0.0493
16511TIP3    H170948   2.179   3.612   2.341  0.2851 -1.3262 -0.4426
16511TIP3    H270949   2.324   3.610   2.298  0.4873 -0.3504  0.1627
16512TIP3   OH270950   4.379   1.830  13.395  0.0562 -0.0601  0.2100
16512TIP3    H170951   4.292   1.819  13.434 -0.4965  1.2654 -0.6077
16512TIP3    H270952   4.396   1.747  13.349 -1.7696  0.4720 -1.5357
16513TIP3   OH270953   2.074   4.894  12.179 -0.0954 -0.4097 -0.3294
16513TIP3    H170954   2.074   4.986  12.204  1.5676 -0.9209  1.8870
16513TIP3    H270955   1.996   4.857  12.222 -0.0846 -0.2597 -0.1800
16514TIP3   OH270956   5.232   6.381  10.249  0.0681  0.4628 -0.0837
16514TIP3    H170957   5.189   6.455  10.207 -2.1202 -0.0037  1.1677
16514TIP3    H270958   5.257   6.414  10.336  1.6089  0.4983 -0.5122
16515TIP3   OH270959   1.053   0.533   4.620  0.5013 -0.1256  0.5312
16515TIP3    H170960   1.127   0.593   4.628  0.3411 -0.0301  1.4776
16515TIP3    H270961   1.081   0.453   4.665  0.9480 -1.0209 -1.2523
16516TIP3   OH270962   5.027   0.840  12.053  0.2583 -0.1912 -0.7769
16516TIP3    H170963   4.988   0.927  12.054  3.4004  1.3577 -1.2652
16516TIP3    H270964   4.979   0.792  12.120 -0.4049  2.4722  0.8096
16517TIP3   OH270965   6.451   2.595  16.079  0.2646  0.3534  0.4683
16517TIP3    H170966   6.522   2.544  16.119 -0.0277 -0.0920  0.4219
16517TIP3    H270967   6.406   2.636  16.153 -0.6432 -0.9444  0.6584
16518TIP3   OH270968   6.608   1.140  13.373  0.3650  0.1108  0.2463
16518TIP3    H170969   6.591   1.228  13.338  2.0510  0.3629 -0.0331
16518TIP3    H270970   6.528   1.091  13.356  0.5903  0.6186 -2.8027
16519TIP3   OH270971   5.000   1.390  11.589  0.3926 -0.4202 -0.4247
16519TIP3    H170972   4.967   1.332  11.657  2.1502  0.1473  0.9892
16519TIP3    H270973   4.958   1.474  11.607  1.4414 -0.0696  0.4824
16520TIP3   OH270974   5.414   2.264   0.524  0.1327  0.5619  0.6564
16520TIP3    H170975   5.422   2.168   0.521  1.4471  0.5614  2.3358
16520TIP3    H270976   5.346   2.280   0.590 -2.4694  0.8262 -1.8821
16521TIP3   OH270977   2.442   4.291   1.647  0.2268 -0.1932  0.2095
16521TIP3    H170978   2.395   4.260   1.724  1.5592 -0.4944  0.9128
16521TIP3    H270979   2.482   4.213   1.610 -1.5747 -0.3309 -1.6813
16522TIP3   OH270980   5.754   0.375   2.902 -0.2915  0.5981  0.1864
16522TIP3    H170981   5.776   0.288   2.937 -0.0786 -0.5653 -2.5597
16522TIP3    H270982   5.804   0.436   2.957  0.0357 -1.0335  1.8119
16523TIP3   OH270983   5.267   6.318  13.392 -0.8825 -0.3639  0.6641
16523TIP3    H170984   5.210   6.380  13.346  0.4910  0.0873 -0.5160
16523TIP3    H270985   5.259   6.342  13.484 -3.3017 -0.9382  0.6724
16524TIP3   OH270986   0.641   3.584  15.008  0.1570 -0.2575  0.3019
16524TIP3    H170987   0.698   3.661  15.005 -0.5980  0.3167  0.0180
16524TIP3    H270988   0.582   3.596  14.933  2.0646 -2.7700 -1.7520
16525TIP3   OH270989   6.370   6.552  13.375  0.2412  0.4038  0.0206
16525TIP3    H170990   6.460   6.529  13.351  0.5341  0.6931  0.7980
16525TIP3    H270991   6.317   6.480  13.339  0.8172  0.0668 -0.1749
16526TIP3   OH270992   0.344   4.123   2.731  0.1969 -0.3181 -0.0705
16526TIP3    H170993   0.303   4.195   2.683 -0.7331 -0.0944  1.0187
16526TIP3    H270994   0.293   4.116   2.811  1.3570 -1.0646  0.6239
16527TIP3   OH270995   3.348   3.408  12.745  0.6849 -0.6535  0.2284
16527TIP3    H170996   3.267   3.447  12.777  0.6577  0.0910 -0.7095
16527TIP3    H270997   3.389   3.370  12.823  0.1087  0.1692  0.9451
16528TIP3   OH270998   0.028   0.821   3.879 -0.5398 -0.0394  0.1892
16528TIP3    H170999   0.084   0.891   3.848 -0.2444 -0.4455 -0.2182
16528TIP3    H271000  -0.047   0.865   3.919 -1.9061  0.5956 -2.7636
16529TIP3   OH271001   3.139   1.819   5.702 -0.1870 -0.2202  0.0721
16529TIP3    H171002   3.119   1.726   5.689  1.4163 -0.4206 -1.3634
16529TIP3    H271003   3.233   1.826   5.684 -0.3964  1.7841 -0.5180
16530TIP3   OH271004   2.346   1.766   0.554  0.4171  0.0886 -0.5384
16530TIP3    H171005   2.277   1.829   0.535 -0.7344 -0.5493  1.2966
16530TIP3    H271006   2.362   1.775   0.648  3.6574  0.9683 -1.0655
16531TIP3   OH271007   6.356   5.717  17.321  0.6155 -0.5668  0.6428
16531TIP3    H171008   6.420   5.712  17.250  0.6402  1.1089  0.5235
16531TIP3    H271009   6.381   5.647  17.381 -0.0116 -2.7499 -1.4657
16532TIP3   OH271010   4.217   1.518   2.392 -0.2881  0.0752 -0.1825
16532TIP3    H171011   4.241   1.449   2.454 -2.3516 -0.4379  0.1320
16532TIP3    H271012   4.193   1.593   2.447  2.0585  1.1619 -0.5249
16533TIP3   OH271013   2.198   3.080   0.885  0.1215 -0.1321 -0.0396
16533TIP3    H171014   2.183   3.042   0.799  2.1257 -0.6050 -0.2244
16533TIP3    H271015   2.238   3.010   0.936 -0.2703  0.3940  1.0237
16534TIP3   OH271016   3.050   4.130   3.585  0.2176  0.1556  0.2589
16534TIP3    H171017   3.135   4.092   3.563  0.2674  0.7833 -0.6603
16534TIP3    H271018   3.058   4.223   3.565 -0.7047  0.2147  0.0922
16535TIP3   OH271019   5.096   6.064   4.369  0.8576  0.4321 -0.0625
16535TIP3    H171020   5.021   6.006   4.354 -1.0329  2.3038  1.4492
16535TIP3    H271021   5.078   6.140   4.314  1.7184  0.8487  0.2204
16536TIP3   OH271022   4.710   1.133  14.112  0.1812  0.2815  0.1452
16536TIP3    H171023   4.708   1.057  14.170 -0.6999  0.1072 -0.0961
16536TIP3    H271024   4.773   1.108  14.043  1.1885  0.4743  0.9765
16537TIP3   OH271025   5.024   1.130   5.981 -0.2745  0.5518 -0.3813
16537TIP3    H171026   5.046   1.049   6.028 -0.5869  1.3433  1.1869
16537TIP3    H271027   5.107   1.177   5.974 -0.4324  0.9750  0.4779
16538TIP3   OH271028   0.952   4.700   4.094  0.6225  0.7232 -0.4348
16538TIP3    H171029   0.941   4.605   4.087  0.5732  0.5393  1.5195
16538TIP3    H271030   0.877   4.736   4.047  0.6041 -0.1970 -1.1531
16539TIP3   OH271031   2.524   0.976   2.198 -0.0994 -0.4558 -0.1615
16539TIP3    H171032   2.494   1.015   2.116  0.4290  1.8709  0.6772
16539TIP3    H271033   2.448   0.978   2.256  0.1063 -0.0449  0.0977
16540TIP3   OH271034   3.339   2.263  15.426 -0.2640  0.3311 -0.2358
16540TIP3    H171035   3.312   2.232  15.340  1.9432 -2.4028 -0.0656
16540TIP3    H271036   3.261   2.252  15.481 -0.8225 -0.7447 -1.2101
16541TIP3   OH271037   6.371   5.998  16.058  0.2202  0.0304  0.6743
16541TIP3    H171038   6.444   5.959  16.009  1.6184  3.1458  0.0327
16541TIP3    H271039   6.300   6.004  15.994  0.6342  0.3168  0.2410
16542TIP3   OH271040   5.642   0.549  13.197 -0.0229  0.1790 -0.0366
16542TIP3    H171041   5.639   0.516  13.286  0.4435 -0.7138 -0.3355
16542TIP3    H271042   5.592   0.485  13.146  1.2768 -0.3602 -0.7011
16543TIP3   OH271043   5.638   5.274   3.965 -0.9565 -0.1231 -0.1018
16543TIP3    H171044   5.653   5.308   3.877 -2.0412 -0.2214 -0.3331
16543TIP3    H271045   5.543   5.276   3.976 -1.0473 -2.5285  0.0984
16544TIP3   OH271046   4.942   5.492   4.705 -0.2309  0.1291 -0.0005
16544TIP3    H171047   4.887   5.452   4.772  0.5843 -0.0404  0.5936
16544TIP3    H271048   4.939   5.432   4.631 -1.2859  0.4093 -0.1945
16545TIP3   OH271049   1.718   0.946   0.788 -0.0706 -0.1937 -0.0429
16545TIP3    H171050   1.776   1.015   0.818  0.3655 -1.4245  2.1385
16545TIP3    H271051   1.770   0.896   0.726 -0.0303  0.7614 -0.8037
16546TIP3   OH271052   0.447   3.958  13.889 -0.5077 -0.3653  0.7169
16546TIP3    H171053   0.418   4.049  13.888 -0.4043 -0.3157  1.6597
16546TIP3    H271054   0.372   3.909  13.922 -0.5799 -0.6327  0.1640
16547TIP3   OH271055   4.259   4.552   1.897  0.5365 -0.0380 -0.1599
16547TIP3    H171056   4.237   4.634   1.853 -0.9007 -1.0212 -1.3574
16547TIP3    H271057   4.174   4.512   1.917  1.2131 -1.4958 -0.0928
16548TIP3   OH271058   1.998   0.286   5.662  0.4456 -0.4334  0.1521
16548TIP3    H171059   2.001   0.313   5.754  0.7227 -0.8310  0.2641
16548TIP3    H271060   2.062   0.342   5.618 -0.9955  1.0390 -0.1579
16549TIP3   OH271061   4.752   4.592  16.354  0.1185 -0.3200 -0.0082
16549TIP3    H171062   4.700   4.616  16.277 -0.7130 -1.9071  0.0198
16549TIP3    H271063   4.741   4.498  16.361  0.5282 -0.2546  1.8257
16550TIP3   OH271064   0.780   0.019   4.113  0.3715  0.4931 -0.5398
16550TIP3    H171065   0.740   0.051   4.032  0.0495 -1.0266 -1.0127
16550TIP3    H271066   0.874   0.023   4.096  0.4069  2.3139 -0.1140
16551TIP3   OH271067   3.760   6.386   0.347 -0.8385 -0.3381 -0.0345
16551TIP3    H171068   3.686   6.409   0.290  0.0458 -1.5531 -1.7437
16551TIP3    H271069   3.766   6.291   0.343 -0.7377 -0.4799  2.1514
16552TIP3   OH271070   6.356   3.318  16.577 -0.3446 -0.2458 -0.1694
16552TIP3    H171071   6.408   3.249  16.534 -2.6797 -1.6687 -0.9110
16552TIP3    H271072   6.371   3.396  16.524  2.4331 -0.0721  0.7296
16553TIP3   OH271073   4.957   1.116  12.710 -0.7864 -0.4626 -0.3479
16553TIP3    H171074   5.040   1.074  12.732 -0.8094  0.5939  1.9666
16553TIP3    H271075   4.900   1.044  12.683  0.0497 -1.5400  0.7102
16554TIP3   OH271076   1.505   5.557   4.435  0.3580 -0.8074  0.1132
16554TIP3    H171077   1.571   5.519   4.493  0.3043 -0.9631  0.0738
16554TIP3    H271078   1.430   5.498   4.444  0.7019 -1.4118 -0.8994
16555TIP3   OH271079   4.842   0.261   5.116 -0.1578  0.6369 -0.1330
16555TIP3    H171080   4.799   0.189   5.071 -1.0940  0.5318  0.8781
16555TIP3    H271081   4.921   0.279   5.065 -1.0088  0.3132 -1.5913
16556TIP3   OH271082   6.492   3.740  15.417  0.1494  0.1337  0.1106
16556TIP3    H171083   6.504   3.672  15.483  1.1879  0.0171 -0.1854
16556TIP3    H271084   6.455   3.694  15.342 -1.3067  0.3136  0.6659
16557TIP3   OH271085   6.497   1.954   3.693  0.0215 -0.4373  0.8151
16557TIP3    H171086   6.545   1.982   3.615  1.0767 -0.8756  1.2887
16557TIP3    H271087   6.544   1.877   3.723 -1.7243 -1.6470  0.5999
16558TIP3   OH271088   5.621   1.716  14.450  0.3723  0.2567 -0.2740
16558TIP3    H171089   5.550   1.778  14.438 -0.3473 -0.4538  0.1777
16558TIP3    H271090   5.697   1.769  14.474  0.9548  1.4004 -4.0667
16559TIP3   OH271091   3.379   5.600  12.062 -0.0620 -0.5627  0.4426
16559TIP3    H171092   3.394   5.606  11.968 -1.6580  2.2471  0.2544
16559TIP3    H271093   3.284   5.594  12.071 -0.4116  3.9413  1.8360
16560TIP3   OH271094   2.744   2.285   4.308  0.1550 -0.0789  0.0725
16560TIP3    H171095   2.683   2.255   4.242 -0.3888 -1.8912  1.3198
16560TIP3    H271096   2.764   2.207   4.360 -1.0422  1.6005  3.3143
16561TIP3   OH271097   1.193   6.082  15.860 -0.5223 -0.2778  0.1763
16561TIP3    H171098   1.116   6.120  15.819 -0.2568  0.7977  0.6359
16561TIP3    H271099   1.216   6.007  15.805  0.0347  1.3122 -1.8233
16562TIP3   OH271100   0.183   4.620  14.479 -0.2462  0.6043 -0.5361
16562TIP3    H171101   0.270   4.651  14.504  0.5269 -0.1818 -2.1362
16562TIP3    H271102   0.159   4.674  14.404  0.1335 -1.0669 -1.9177
16563TIP3   OH271103   0.202   4.753  16.261  0.1813  0.0955 -0.6598
16563TIP3    H171104   0.117   4.767  16.220  0.8571  0.0954 -2.1740
16563TIP3    H271105   0.258   4.822  16.223  1.6827 -1.9259 -2.3656
16564TIP3   OH271106   5.043   6.701  12.754 -0.4278  0.1985  0.3878
16564TIP3    H171107   5.121   6.752  12.780 -1.6978  3.2373 -1.1966
16564TIP3    H271108   4.990   6.698  12.833  0.8809 -1.2396  1.2777
16565TIP3   OH271109   4.103   1.612  14.194  0.1423 -0.3204  0.1265
16565TIP3    H171110   4.187   1.648  14.221  1.5664 -1.7436 -2.0155
16565TIP3    H271111   4.102   1.523  14.231 -0.4410 -0.2953  0.1815
16566TIP3   OH271112   2.743   6.368  15.231 -0.1525  1.0297  0.0322
16566TIP3    H171113   2.789   6.434  15.283  1.7145  1.6035 -2.1747
16566TIP3    H271114   2.697   6.418  15.164  1.9430  0.1802 -2.1810
16567TIP3   OH271115   3.160   6.584   1.003 -0.0291 -0.5895 -0.3669
16567TIP3    H171116   3.105   6.516   1.043  0.7330  0.2323  2.3017
16567TIP3    H271117   3.101   6.631   0.944 -1.8504 -0.6677  1.2844
16568TIP3   OH271118   5.730   5.037   3.891 -0.4664 -0.2123  0.2935
16568TIP3    H171119   5.820   5.068   3.879 -0.8272  0.6874 -0.2007
16568TIP3    H271120   5.684   5.112   3.928 -1.3116 -0.2352 -0.6835
16569TIP3   OH271121   3.357   6.238   0.725  0.3527 -0.3949 -0.1419
16569TIP3    H171122   3.431   6.260   0.669 -1.1895  1.3551 -1.6393
16569TIP3    H271123   3.287   6.297   0.696 -1.1401 -0.8264  2.3100
16570TIP3   OH271124   6.764   1.784   2.561  0.3377  0.1339  0.0428
16570TIP3    H171125   6.838   1.745   2.514  0.2853  1.8939 -1.6124
16570TIP3    H271126   6.689   1.767   2.504 -0.2572 -0.1975  0.9138
16571TIP3   OH271127   3.392   3.831  15.334 -0.1472 -0.1219  0.3613
16571TIP3    H171128   3.452   3.854  15.404  0.8282 -0.6854 -0.2679
16571TIP3    H271129   3.416   3.741  15.310 -2.1862 -0.9235  1.0650
16572TIP3   OH271130   6.616   4.403   5.397 -0.0703  0.5877  0.4698
16572TIP3    H171131   6.636   4.436   5.310  1.5994 -2.7894 -0.5693
16572TIP3    H271132   6.524   4.375   5.392  0.4322 -0.9953 -0.7833
16573TIP3   OH271133   3.683   0.273  15.888  0.0042  0.7131  0.2077
16573TIP3    H171134   3.630   0.353  15.882  0.9616  1.2805 -1.4966
16573TIP3    H271135   3.685   0.239  15.799  1.8720  0.3107  0.3634
16574TIP3   OH271136   2.348   6.258  14.922  0.5908 -0.2783  0.1019
16574TIP3    H171137   2.387   6.248  15.009  0.4339 -0.2662  0.1739
16574TIP3    H271138   2.300   6.341  14.926 -0.1389 -0.7037  0.2779
16575TIP3   OH271139   2.585   2.708   5.670  0.4203 -0.4652  0.1525
16575TIP3    H171140   2.674   2.680   5.648 -0.3750 -2.3580 -0.9083
16575TIP3    H271141   2.547   2.736   5.587 -0.2398 -0.4842  0.4422
16576TIP3   OH271142   6.386   2.755   0.003 -0.4337  0.0826  1.0227
16576TIP3    H171143   6.425   2.813   0.070  1.2720  0.7330 -0.4437
16576TIP3    H271144   6.303   2.797  -0.019  0.9166  2.2822 -0.2585
16577TIP3   OH271145   1.588   0.299   2.399  0.3045  0.1708  0.6591
16577TIP3    H171146   1.543   0.215   2.404 -1.0455  0.8328  0.1083
16577TIP3    H271147   1.662   0.284   2.340 -1.0797 -0.1565 -1.0743
16578TIP3   OH271148   5.604   2.950   3.466  0.2566 -0.6539 -0.0652
16578TIP3    H171149   5.662   2.993   3.403  0.0345  1.9218  1.3238
16578TIP3    H271150   5.519   2.992   3.453 -1.2679 -3.8474 -1.5737
16579TIP3   OH271151   2.745   1.076  14.149 -0.0217 -0.4327  0.6105
16579TIP3    H171152   2.838   1.071  14.170  0.2202 -2.4067 -0.6566
16579TIP3    H271153   2.717   0.985  14.144 -1.4030  0.0356 -1.5228
16580TIP3   OH271154   4.094   6.542   4.293 -0.2121  0.3603 -0.4206
16580TIP3    H171155   4.122   6.466   4.242  0.0237  1.5686 -2.1879
16580TIP3    H271156   4.071   6.608   4.227 -0.9135  1.6509  1.0503
16581TIP3   OH271157   3.110   1.962  12.929  0.2666  0.3006 -0.2634
16581TIP3    H171158   3.037   1.994  12.982  0.4055 -1.8191  1.3429
16581TIP3    H271159   3.186   2.010  12.962  0.1120  0.0819  0.4302
16582TIP3   OH271160   1.969   6.336   1.409  0.1923 -0.3037  0.0002
16582TIP3    H171161   1.967   6.347   1.504 -1.8147  0.0218 -0.0290
16582TIP3    H271162   1.924   6.414   1.375  1.4179 -0.1117 -1.2729
16583TIP3   OH271163   4.465   1.651   4.510  0.2753  0.5345  0.7156
16583TIP3    H171164   4.509   1.572   4.543  1.3551  1.1658  0.8437
16583TIP3    H271165   4.458   1.707   4.587  2.1050  1.7059  0.0927
16584TIP3   OH271166   5.736   4.921   3.636  0.1702 -0.0728 -0.1096
16584TIP3    H171167   5.740   4.964   3.722 -0.1635  1.0327 -0.6312
16584TIP3    H271168   5.712   4.831   3.656  0.2127  0.1443  0.9762
16585TIP3   OH271169   0.007   5.750  14.991 -0.4478 -0.5633 -0.8244
16585TIP3    H171170   0.051   5.826  15.029 -1.1019 -0.5909  0.0092
16585TIP3    H271171   0.078   5.699  14.951  0.1370 -0.0713 -0.4313
16586TIP3   OH271172   0.972   5.653  13.075  0.1944  0.2768 -0.6978
16586TIP3    H171173   0.938   5.630  12.989 -2.4460 -0.4228  0.4291
16586TIP3    H271174   0.967   5.749  13.079 -1.7552  0.2136 -0.6089
16587TIP3   OH271175   2.479   2.963  15.004  0.1349  0.1635  0.8977
16587TIP3    H171176   2.560   2.942  14.959 -0.3493  0.1736 -0.0074
16587TIP3    H271177   2.417   2.895  14.976 -0.5973  1.0334  0.3358
16588TIP3   OH271178   1.748   1.392  12.856  0.1239  0.1189 -0.1166
16588TIP3    H171179   1.674   1.338  12.887  0.4987 -2.9793 -3.7878
16588TIP3    H271180   1.822   1.364  12.909 -0.3000 -0.8507 -0.0117
16589TIP3   OH271181   6.104   5.655  14.009  0.2431  0.4599  0.0140
16589TIP3    H171182   6.197   5.648  13.985  0.0746  0.1840 -0.5859
16589TIP3    H271183   6.063   5.580  13.966  0.0363 -0.5584  1.8701
16590TIP3   OH271184   0.022   4.905   6.310  0.1353  0.0427  0.1532
16590TIP3    H171185   0.069   4.826   6.281 -1.1601 -0.4421 -0.7021
16590TIP3    H271186  -0.020   4.938   6.230  1.9951  2.5881  0.1062
16591TIP3   OH271187   0.586   6.616  15.858  0.3706 -0.1307  0.0574
16591TIP3    H171188   0.567   6.707  15.838  0.4824 -0.0978  0.1059
16591TIP3    H271189   0.571   6.570  15.775  3.0637  0.3188 -0.7457
16592TIP3   OH271190   0.071   0.074  13.045  0.0429  0.0784  0.4153
16592TIP3    H171191   0.149   0.045  13.091 -0.3081 -1.7607 -0.0819
16592TIP3    H271192   0.095   0.071  12.952  0.0826  1.7388  0.3378
16593TIP3   OH271193   0.798   0.626   4.583 -0.0495 -0.4955  0.4732
16593TIP3    H171194   0.783   0.659   4.672  1.6372  0.1026  0.5756
16593TIP3    H271195   0.889   0.598   4.583  0.0368 -0.3058 -1.1298
16594TIP3   OH271196   3.969   0.009  13.165  0.1692 -0.0200 -0.1706
16594TIP3    H171197   3.955   0.001  13.260 -1.8934 -3.0701 -0.5835
16594TIP3    H271198   3.895   0.062  13.135 -1.9598 -2.9241 -0.4794
16595TIP3   OH271199   5.477   4.932   5.285  0.4310  0.5698 -0.3164
16595TIP3    H171200   5.565   4.896   5.298  0.0566 -0.2177  0.1306
16595TIP3    H271201   5.489   5.002   5.221  1.7894  2.1306  1.5010
16596TIP3   OH271202   3.103   2.519   4.687 -0.1931  0.5764 -0.0772
16596TIP3    H171203   3.027   2.481   4.731 -0.5332  1.6973  0.3287
16596TIP3    H271204   3.137   2.583   4.749  1.0646  0.1390 -0.2783
16597TIP3   OH271205   0.511   0.596  10.711  0.3679  0.4470 -0.0756
16597TIP3    H171206   0.477   0.512  10.679  1.2253  0.5637 -1.3743
16597TIP3    H271207   0.515   0.652  10.634  0.0319  1.6254  0.7345
16598TIP3   OH271208   3.401   0.924  12.707  0.5603  0.6003  0.2268
16598TIP3    H171209   3.311   0.892  12.708  0.1329  1.6914  2.4944
16598TIP3    H271210   3.435   0.897  12.621 -1.5462 -0.7966 -0.2497
16599TIP3   OH271211   4.181   6.097  13.668 -0.5471 -0.1844  0.1383
16599TIP3    H171212   4.248   6.067  13.729  0.3607 -0.0839 -0.7807
16599TIP3    H271213   4.100   6.096  13.719  0.4733  1.8872  1.9541
16600TIP3   OH271214   3.617   6.682   1.505  0.0374 -0.4915  0.4141
16600TIP3    H171215   3.683   6.699   1.572  1.1517 -0.9717 -0.5373
16600TIP3    H271216   3.620   6.759   1.449 -0.6261 -0.2622  0.6838
16601TIP3   OH271217   6.419   2.526   5.025  0.4010 -0.3243  0.2100
16601TIP3    H171218   6.359   2.512   5.098 -1.3306  0.8933 -0.9072
16601TIP3    H271219   6.444   2.618   5.031  0.1790 -0.1876 -0.7361
16602TIP3   OH271220   5.916   2.057  16.403  0.5838  0.2410  0.3181
16602TIP3    H171221   5.825   2.084  16.412  0.0064 -1.9903  2.0569
16602TIP3    H271222   5.945   2.099  16.322 -1.9031  1.1744 -0.1949
16603TIP3   OH271223   5.156   3.185  11.297 -0.7212 -0.1332  0.1623
16603TIP3    H171224   5.123   3.148  11.214 -0.7387 -0.3468  0.2624
16603TIP3    H271225   5.143   3.279  11.288  0.5849 -0.0028 -0.6673
16604TIP3   OH271226   0.970   0.898  16.317  0.3483 -0.1687 -0.0805
16604TIP3    H171227   0.999   0.838  16.385  0.9064  1.1753  0.9197
16604TIP3    H271228   1.042   0.899  16.254 -0.7422 -2.4689 -1.4819
16605TIP3   OH271229   5.233   4.818  14.996 -0.6832  0.1327  0.4045
16605TIP3    H171230   5.234   4.735  14.949 -0.7669  0.3466  0.0205
16605TIP3    H271231   5.142   4.847  14.991 -0.5154  0.5948 -0.0887
16606TIP3   OH271232   6.624   3.705  12.240  0.1239  0.4201  0.0087
16606TIP3    H171233   6.554   3.695  12.304  0.4334 -1.0615  0.1326
16606TIP3    H271234   6.696   3.746  12.288  0.3423 -0.6494  0.6044
16607TIP3   OH271235   4.862   3.269   2.229 -0.6218 -0.2369 -0.1936
16607TIP3    H171236   4.843   3.182   2.265 -0.4198 -0.2016 -0.0019
16607TIP3    H271237   4.776   3.307   2.213 -0.7248  0.0302  0.9323
16608TIP3   OH271238   1.967   3.646   2.835 -0.5182  0.5124  0.3680
16608TIP3    H171239   1.887   3.694   2.857 -0.3789  0.7025  0.4644
16608TIP3    H271240   1.956   3.561   2.878 -1.0621  0.2093 -0.3582
16609TIP3   OH271241   4.564   0.243   3.264  0.1983  0.1158 -0.1841
16609TIP3    H171242   4.513   0.293   3.327  0.3158  2.9056 -2.1142
16609TIP3    H271243   4.530   0.154   3.271 -2.6993  1.1705  0.8561
16610TIP3   OH271244   4.082   2.457  13.621 -0.2312  0.5677  0.1109
16610TIP3    H171245   4.105   2.467  13.714  1.2326 -0.0369 -0.1518
16610TIP3    H271246   4.066   2.546  13.590  1.3156  1.0091  0.4790
16611TIP3   OH271247   3.638   4.569   0.491 -0.5183 -0.6098  0.7452
16611TIP3    H171248   3.672   4.491   0.535  1.0383  0.0568  0.8144
16611TIP3    H271249   3.578   4.609   0.554  0.9648 -0.1759  1.9486
16612TIP3   OH271250   0.891   0.727  11.789 -0.3557 -0.0865 -0.7919
16612TIP3    H171251   0.800   0.702  11.771 -1.0018  0.8750  0.8953
16612TIP3    H271252   0.884   0.796  11.856  1.6553 -0.8917  0.3304
16613TIP3   OH271253   4.838   3.337  13.351  0.2164 -0.2356 -0.1888
16613TIP3    H171254   4.933   3.336  13.356  0.2596  0.3963 -0.8033
16613TIP3    H271255   4.810   3.387  13.428  0.4234  0.3322 -0.4795
16614TIP3   OH271256   4.645   4.054  11.473 -0.0443  0.4520 -0.3471
16614TIP3    H171257   4.731   4.094  11.460  0.1736 -0.3415 -1.4620
16614TIP3    H271258   4.655   3.965  11.440 -0.6435 -0.4303  1.6874
16615TIP3   OH271259   2.967   2.138  14.759 -0.0433 -0.1147 -0.0777
16615TIP3    H171260   2.986   2.229  14.738 -3.1079  0.5252 -0.6664
16615TIP3    H271261   2.943   2.138  14.851  2.4070 -0.8667  0.6247
16616TIP3   OH271262   5.004   3.638   3.659 -0.1594 -0.0868  0.2862
16616TIP3    H171263   4.927   3.627   3.603 -0.6261  0.4308  0.8157
16616TIP3    H271264   5.054   3.708   3.617  0.0214 -0.4048 -0.0430
16617TIP3   OH271265   0.156   3.778   4.025  0.3186 -0.4520 -0.0783
16617TIP3    H171266   0.150   3.685   4.044  0.2572 -0.6911 -1.2104
16617TIP3    H271267   0.149   3.821   4.111 -2.4604 -1.3327  0.2170
16618TIP3   OH271268   4.951   1.155   3.389 -0.6379 -0.6479 -0.0163
16618TIP3    H171269   4.870   1.180   3.343  0.7649  1.1644 -1.7085
16618TIP3    H271270   5.014   1.138   3.318  1.0229  0.0294  1.2336
16619TIP3   OH271271   1.395   0.205  12.423 -0.0054  0.0959 -0.3014
16619TIP3    H171272   1.310   0.237  12.395  1.1674  0.6879 -3.6421
16619TIP3    H271273   1.417   0.258  12.500 -1.3144  2.1804 -1.2809
16620TIP3   OH271274   3.721   2.812   1.636 -0.7518 -0.4191 -0.4479
16620TIP3    H171275   3.634   2.810   1.677  0.1954  0.2550  1.7778
16620TIP3    H271276   3.749   2.720   1.634 -1.0935 -0.5323 -0.1804
16621TIP3   OH271277   3.551   5.004   5.472  0.3659  0.6322  0.1593
16621TIP3    H171278   3.584   4.998   5.382 -0.4013  1.8611 -0.2284
16621TIP3    H271279   3.560   4.915   5.507 -0.0589 -0.0508 -1.3987
16622TIP3   OH271280   1.651   5.248  13.688 -0.2309  0.4836 -0.5919
16622TIP3    H171281   1.645   5.300  13.768 -0.1236 -0.9318  0.3919
16622TIP3    H271282   1.715   5.294  13.634 -0.1562  1.3664  0.2169
16623TIP3   OH271283   6.192   1.382  11.942  0.6212  0.0592  0.0931
16623TIP3    H171284   6.170   1.473  11.959  0.5204  0.2959 -1.1659
16623TIP3    H271285   6.169   1.335  12.022 -1.1415  0.8351  0.0661
16624TIP3   OH271286   2.682   0.898  11.405 -0.2258 -0.8438 -0.0269
16624TIP3    H171287   2.695   0.861  11.318  0.5454 -0.3420 -0.1272
16624TIP3    H271288   2.593   0.870  11.429 -0.6565 -0.5337 -1.1848
16625TIP3   OH271289   2.833   1.824  16.977 -0.3996  0.1932  0.0635
16625TIP3    H171290   2.913   1.806  16.927 -0.7296  0.6226 -0.6310
16625TIP3    H271291   2.780   1.746  16.968  0.1181 -0.2756  0.9015
16626TIP3   OH271292   2.971   6.405  17.302  0.5504  0.3155 -0.2217
16626TIP3    H171293   2.923   6.430  17.223 -0.4269 -2.2853 -0.5537
16626TIP3    H271294   2.902   6.392  17.368  1.0143 -0.8554  0.0547
16627TIP3   OH271295   6.596   5.585  11.549  0.0830 -0.1260 -0.4178
16627TIP3    H171296   6.601   5.677  11.576 -0.2830 -0.0732 -0.5195
16627TIP3    H271297   6.549   5.587  11.466  1.9000 -0.2195 -1.4850
16628TIP3   OH271298   2.964   5.944  13.794  0.2637  0.2746 -0.2584
16628TIP3    H171299   3.052   5.973  13.817  1.1885 -1.5765 -1.2247
16628TIP3    H271300   2.944   5.876  13.859  0.2672 -0.4781 -1.0211
16629TIP3   OH271301   1.832   1.964   4.308  0.0933  0.1297  0.1807
16629TIP3    H171302   1.809   2.029   4.242  1.0920  0.2055 -0.1020
16629TIP3    H271303   1.755   1.907   4.313 -0.6311  1.0763  0.1382
16630TIP3   OH271304   6.127   3.675  11.799  0.3888 -0.1908  0.5859
16630TIP3    H171305   6.170   3.651  11.717  0.1102  1.4077 -0.0756
16630TIP3    H271306   6.177   3.630  11.867  1.4095 -0.5270 -0.3643
16631TIP3   OH271307   0.644   4.667  14.120  0.7419 -0.2776 -0.2487
16631TIP3    H171308   0.565   4.632  14.160  1.2524 -0.4775  0.6076
16631TIP3    H271309   0.616   4.748  14.078 -0.3372 -1.3950 -1.7676
16632TIP3   OH271310   0.984   3.352   1.917  0.3609  0.7093 -0.3643
16632TIP3    H171311   0.974   3.293   1.992  0.1199  0.5801 -0.4974
16632TIP3    H271312   0.906   3.407   1.919  0.0088  0.2432 -0.9247
16633TIP3   OH271313   3.714   3.356   5.919 -0.7353  0.5832  0.0437
16633TIP3    H171314   3.801   3.330   5.888 -0.5808 -2.1774  2.4291
16633TIP3    H271315   3.728   3.441   5.961  0.6806  0.4910 -0.2004
16634TIP3   OH271316   3.525   3.702  14.036  0.3344  0.4078 -0.2461
16634TIP3    H171317   3.440   3.746  14.039  0.4863  0.7050 -0.2576
16634TIP3    H271318   3.504   3.609  14.042  0.0822  0.5303  1.4982
16635TIP3   OH271319   2.346   1.030  14.554  0.3497  0.5181  0.3703
16635TIP3    H171320   2.304   1.110  14.587  1.1819  1.7594 -1.4733
16635TIP3    H271321   2.273   0.978  14.520 -0.1243  0.7581  0.9774
16636TIP3   OH271322   1.383   2.926  15.397 -0.0583 -0.0834 -0.0206
16636TIP3    H171323   1.323   2.924  15.471  0.2808  2.5023  0.4314
16636TIP3    H271324   1.451   2.862  15.418 -0.9791 -0.7610  0.9517
16637TIP3   OH271325   5.463   0.838   5.074 -0.1432 -0.4287 -0.1249
16637TIP3    H171326   5.488   0.928   5.097 -1.0367 -0.5097  1.2459
16637TIP3    H271327   5.392   0.816   5.135 -1.4163 -1.3096 -1.8385
16638TIP3   OH271328   5.164   0.525   4.449 -0.1965 -0.2298  0.0493
16638TIP3    H171329   5.240   0.503   4.502 -0.1088  0.9366  0.4465
16638TIP3    H271330   5.095   0.467   4.480 -0.2285  0.6287  1.6952
16639TIP3   OH271331   4.681   6.114  15.976  0.3017 -0.0732 -0.1984
16639TIP3    H171332   4.597   6.131  16.017 -0.1613 -0.6592 -0.8783
16639TIP3    H271333   4.731   6.195  15.988  0.0982 -0.1366  1.2655
16640TIP3   OH271334   1.821   3.938   6.158 -0.2963 -0.5033 -0.5316
16640TIP3    H171335   1.838   3.868   6.222 -0.3144 -0.8002 -0.8454
16640TIP3    H271336   1.761   3.897   6.095 -0.2585 -0.2188 -0.7499
16641TIP3   OH271337   4.610   3.122   0.391 -0.4028 -0.5400 -0.0810
16641TIP3    H171338   4.626   3.028   0.376  0.5095 -0.2831 -0.7315
16641TIP3    H271339   4.632   3.135   0.483  1.9621 -0.4627 -0.6096
16642TIP3   OH271340   3.105   4.969  13.737 -0.1984  0.2963 -0.3736
16642TIP3    H171341   3.055   5.001  13.662 -0.4816 -1.6333 -1.0578
16642TIP3    H271342   3.170   4.910  13.699  0.2971  0.0458  0.8263
16643TIP3   OH271343   3.085   1.365  16.518  0.4442  0.3508 -0.7630
16643TIP3    H171344   3.153   1.385  16.453 -0.5105  1.0867 -1.5775
16643TIP3    H271345   3.122   1.293  16.570  1.5299  0.2202 -1.6636
16644TIP3   OH271346   2.773   2.170  11.752  0.0370  0.3918  0.1436
16644TIP3    H171347   2.753   2.192  11.661  0.4658  0.8135  0.1495
16644TIP3    H271348   2.737   2.243  11.803 -0.5056 -0.0076  0.3478
16645TIP3   OH271349   6.076   0.072   0.669 -0.9041  0.0478 -0.2148
16645TIP3    H171350   5.996   0.068   0.722 -0.4511  0.6393  0.5311
16645TIP3    H271351   6.131   0.135   0.714  0.3867 -1.0676 -0.1752
16646TIP3   OH271352   1.247   1.422   0.810 -0.2105 -0.6306  0.4733
16646TIP3    H171353   1.152   1.432   0.800 -0.0863 -0.1590 -0.3373
16646TIP3    H271354   1.263   1.329   0.796 -0.4241 -0.5138 -0.7029
16647TIP3   OH271355   4.929   1.979  11.186  0.5351 -0.2542  0.1759
16647TIP3    H171356   4.977   1.967  11.268  0.5251 -0.6961  0.1202
16647TIP3    H271357   4.867   2.050  11.205  2.8589  2.1046 -0.4977
16648TIP3   OH271358   2.504   1.047   0.024  0.1795  0.1077 -0.1508
16648TIP3    H171359   2.562   1.040  -0.052  0.7390  0.1800  0.2649
16648TIP3    H271360   2.446   1.120   0.004 -1.0239 -1.1134 -1.4049
16649TIP3   OH271361   5.968   0.259  15.421 -0.0626  0.7293  0.2511
16649TIP3    H171362   5.881   0.266  15.461 -0.5350  0.4031 -0.6662
16649TIP3    H271363   5.952   0.277  15.328  1.1672  2.6190  0.3552
16650TIP3   OH271364   2.041   2.356   3.984  0.1472 -0.0009  0.2336
16650TIP3    H171365   2.025   2.347   4.078 -0.3853  1.5985  0.3150
16650TIP3    H271366   2.041   2.265   3.952  2.5574 -0.7625  2.0772
16651TIP3   OH271367   1.369   3.539  15.716 -0.5023 -0.2695  0.3414
16651TIP3    H171368   1.376   3.511  15.807  1.6124 -0.5457  0.1299
16651TIP3    H271369   1.459   3.556  15.688 -0.6209 -3.4207 -2.6878
16652TIP3   OH271370   1.861   0.396   1.280 -0.3632  0.4138 -0.0487
16652TIP3    H171371   1.931   0.461   1.289 -0.0669  0.3935 -1.8899
16652TIP3    H271372   1.780   0.446   1.290 -0.1152  0.8183 -0.0515
16653TIP3   OH271373   1.764   1.250   2.309  0.9617  0.4802 -0.0387
16653TIP3    H171374   1.682   1.293   2.284  1.1460  0.8281 -0.0455
16653TIP3    H271375   1.741   1.158   2.318  0.5619  0.5836 -0.0085
16654TIP3   OH271376   4.877   0.740  14.893 -0.7519  0.2668 -0.3196
16654TIP3    H171377   4.916   0.733  14.980 -1.8145  0.6822  0.2108
16654TIP3    H271378   4.783   0.750  14.909 -0.9294  0.7331 -1.5038
16655TIP3   OH271379   1.210   2.962  16.278 -0.2972  0.0599  0.1902
16655TIP3    H171380   1.202   2.924  16.366 -3.2758  1.4367  0.6455
16655TIP3    H271381   1.272   3.034  16.289  1.8027 -1.6824  0.3649
16656TIP3   OH271382   3.468   4.032  16.456 -0.0240 -0.3236  0.3014
16656TIP3    H171383   3.490   4.115  16.413 -2.8492 -0.3139 -1.3406
16656TIP3    H271384   3.543   3.975  16.437  0.4883  0.8478 -1.4197
16657TIP3   OH271385   4.059   2.386  12.175 -0.4163 -0.2027  0.1661
16657TIP3    H171386   4.140   2.337  12.191 -0.2958  0.3816  1.4333
16657TIP3    H271387   3.997   2.320  12.145  0.7556 -0.5184 -1.7215
16658TIP3   OH271388   5.719   0.249  16.673  0.5017 -0.2322  0.0192
16658TIP3    H171389   5.659   0.174  16.670 -0.5823  0.5858  0.5491
16658TIP3    H271390   5.806   0.211  16.657  0.2375 -1.8854  2.1343
16659TIP3   OH271391   2.485   1.375  16.770 -0.4454  0.1035 -0.6373
16659TIP3    H171392   2.500   1.286  16.736  0.7638 -0.2535  0.6985
16659TIP3    H271393   2.417   1.364  16.836 -0.9588  0.3328 -1.1320
16660TIP3   OH271394   6.483   2.387   2.052 -0.3266 -0.1751 -0.5966
16660TIP3    H171395   6.413   2.443   2.085 -0.4521 -0.2913 -0.6619
16660TIP3    H271396   6.473   2.389   1.957 -0.7711 -0.8615 -0.5720
16661TIP3   OH271397   2.307   2.319  10.634  0.2484  0.0251  0.7140
16661TIP3    H171398   2.266   2.345  10.716  0.8635 -0.0346  1.0444
16661TIP3    H271399   2.361   2.393  10.609  0.1888 -0.0205  0.4461
16662TIP3   OH271400   5.508   5.197  16.498 -0.2373  0.5358 -1.0253
16662TIP3    H171401   5.470   5.275  16.538 -1.8085 -0.0688 -1.2659
16662TIP3    H271402   5.486   5.205  16.405 -0.5371 -0.2454 -1.0291
16663TIP3   OH271403   5.171   4.992  16.534  0.1085 -0.2464 -1.3181
16663TIP3    H171404   5.186   5.010  16.442 -0.7527 -0.2502 -1.4607
16663TIP3    H271405   5.099   4.929  16.536 -1.4602  1.4606 -0.5945
16664TIP3   OH271406   6.067   3.581  14.208 -0.2084  0.1366 -0.5167
16664TIP3    H171407   6.102   3.498  14.176  0.9628 -0.0740  1.1431
16664TIP3    H271408   6.130   3.609  14.275 -1.9596  1.0153  0.8397
16665TIP3   OH271409   5.479   3.766   3.701  0.1038  0.6307  0.7332
16665TIP3    H171410   5.511   3.827   3.767 -0.0098 -0.1977  1.5755
16665TIP3    H271411   5.508   3.680   3.732  0.0946  0.2376 -0.3245
16666TIP3   OH271412   3.995   6.446  10.920 -0.1951 -0.0433 -0.2365
16666TIP3    H171413   3.929   6.383  10.890  0.2677 -0.2504 -0.8439
16666TIP3    H271414   4.070   6.431  10.863  0.7126 -0.4256  1.0116
16667TIP3   OH271415   4.967   2.308   4.951  0.2424 -0.1420  0.1958
16667TIP3    H171416   4.922   2.272   4.874 -0.0673  0.4452  0.0918
16667TIP3    H271417   5.034   2.367   4.914 -0.3573  0.6710  0.3709
16668TIP3   OH271418   0.617   2.875  17.080 -0.5214  0.2846 -0.0678
16668TIP3    H171419   0.550   2.908  17.019 -0.4143  0.7696  0.0799
16668TIP3    H271420   0.691   2.853  17.023 -1.5009 -2.2041 -0.5142
16669TIP3   OH271421   1.696   3.720  13.594  0.2445  0.4739 -0.4265
16669TIP3    H171422   1.617   3.768  13.571  0.5184  1.6946  0.9899
16669TIP3    H271423   1.671   3.668  13.670  0.8602  1.1337  0.2470
16670TIP3   OH271424   1.558   2.848   1.642 -0.1459 -0.2473 -0.1341
16670TIP3    H171425   1.510   2.825   1.562 -1.0816 -0.2158  0.4069
16670TIP3    H271426   1.496   2.900   1.693 -0.8036 -2.9598  2.1008
16671TIP3   OH271427   0.588   0.833  16.213  0.1109  0.7970  0.3141
16671TIP3    H171428   0.533   0.903  16.179  0.3374  1.2193  0.7976
16671TIP3    H271429   0.617   0.866  16.299  0.2442  0.1278  0.5272
16672TIP3   OH271430   3.864   4.642   2.768 -0.4099 -0.7463  0.7973
16672TIP3    H171431   3.870   4.601   2.854  1.0277 -0.5454  0.8173
16672TIP3    H271432   3.840   4.733   2.786 -0.8168 -0.8765  0.9283
16673TIP3   OH271433   2.933   4.133   5.149 -0.7284 -0.4380 -0.4376
16673TIP3    H171434   2.925   4.215   5.099 -1.3802 -0.3172 -0.1462
16673TIP3    H271435   3.021   4.102   5.129  0.2873  1.3210  0.9625
16674TIP3   OH271436   1.227   4.539   2.352 -0.3030  0.4782 -0.5165
16674TIP3    H171437   1.322   4.549   2.357 -0.1085 -1.1928 -0.3224
16674TIP3    H271438   1.205   4.571   2.264  0.3399  1.4064 -0.3638
16675TIP3   OH271439   1.504   2.833   2.126 -0.9597  0.1296 -0.4778
16675TIP3    H171440   1.428   2.789   2.087 -1.5573  0.8748 -0.1815
16675TIP3    H271441   1.484   2.837   2.220  0.1446 -1.0184 -0.1822
16676TIP3   OH271442   4.264   2.648  14.602  0.0483  0.3291 -0.2017
16676TIP3    H171443   4.296   2.682  14.685 -0.4705 -0.7638  0.4773
16676TIP3    H271444   4.338   2.654  14.542  0.3238  1.4452  0.2465
16677TIP3   OH271445   3.162   2.512   4.103 -0.5159  0.0986  0.3675
16677TIP3    H171446   3.206   2.584   4.057  1.0744 -0.7275  0.5503
16677TIP3    H271447   3.095   2.482   4.041  0.9690 -0.3740 -1.0793
16678TIP3   OH271448   2.463   6.338  16.417 -0.6426 -0.1674  0.2052
16678TIP3    H171449   2.558   6.335  16.400 -0.9468  0.7491 -1.9907
16678TIP3    H271450   2.445   6.256  16.464  1.1043 -0.7542 -0.0475
16679TIP3   OH271451   2.621   4.253  16.069  0.4699 -0.1126  0.1875
16679TIP3    H171452   2.700   4.200  16.078 -1.4115 -2.9046  1.8333
16679TIP3    H271453   2.627   4.317  16.139 -0.0143 -2.2600  2.3145
16680TIP3   OH271454   3.053   0.717   1.087 -0.4646  0.2731 -0.2185
16680TIP3    H171455   3.048   0.647   1.151  1.0811  0.3030 -0.0168
16680TIP3    H271456   3.128   0.771   1.115 -0.6238  1.0827 -1.2499
16681TIP3   OH271457   5.005   0.282   1.801 -0.4778 -0.0729  0.2966
16681TIP3    H171458   4.937   0.337   1.763 -0.7280 -1.1247 -0.8365
16681TIP3    H271459   4.959   0.227   1.864 -0.5835 -0.3791 -0.0451
16682TIP3   OH271460   4.184   6.236  17.243  0.8270 -0.2649 -0.0525
16682TIP3    H171461   4.095   6.212  17.268  0.6492  0.3305 -0.0891
16682TIP3    H271462   4.240   6.198  17.311  0.2703  2.4498  2.1268
16683TIP3   OH271463   2.734   5.690  13.712 -0.2130  0.2362  0.5581
16683TIP3    H171464   2.747   5.783  13.729 -1.2075  0.5311 -0.1998
16683TIP3    H271465   2.813   5.648  13.747 -0.9068  1.0583  3.3400
16684TIP3   OH271466   6.299   5.775   4.230 -0.0625 -0.2394  0.9988
16684TIP3    H171467   6.306   5.820   4.146  0.0615  0.1247  1.2004
16684TIP3    H271468   6.289   5.846   4.294 -0.3367 -0.5220  1.2720
16685TIP3   OH271469   2.686   6.718   4.660  0.3348  0.3860 -0.3728
16685TIP3    H171470   2.624   6.714   4.733  0.5973 -1.1751 -0.2139
16685TIP3    H271471   2.678   6.633   4.617  1.5326  0.5947 -1.0376
16686TIP3   OH271472   1.022   4.634  14.376 -0.2878 -0.4601 -0.1638
16686TIP3    H171473   1.037   4.680  14.293  3.5131  0.9068  1.0882
16686TIP3    H271474   1.065   4.550  14.364 -1.1967 -0.9500 -0.0838
16687TIP3   OH271475   5.662   5.974   5.325  0.1092  0.0143  0.0500
16687TIP3    H171476   5.657   6.067   5.347  3.6749 -0.1558  2.2908
16687TIP3    H271477   5.626   5.929   5.401  0.6998 -0.4688  0.0466
16688TIP3   OH271478   5.726   6.565  13.915  0.3539  0.1190 -0.1452
16688TIP3    H171479   5.669   6.489  13.928  1.1988 -0.8932 -1.9891
16688TIP3    H271480   5.731   6.575  13.820  1.0142  1.9306  0.0345
16689TIP3   OH271481   4.278   2.134   0.555  0.6357 -0.0114 -0.6291
16689TIP3    H171482   4.344   2.204   0.564  0.4183  0.0876  0.3639
16689TIP3    H271483   4.201   2.169   0.599  0.2822 -0.5799 -0.7912
16690TIP3   OH271484   2.516   5.337  14.752  0.4118 -0.1069  0.5927
16690TIP3    H171485   2.507   5.406  14.818 -0.8948 -0.9351  1.3496
16690TIP3    H271486   2.481   5.375  14.672 -0.4750  0.0888  1.0487
16691TIP3   OH271487   1.443   0.899  12.104 -0.3457 -0.0314  0.7419
16691TIP3    H171488   1.396   0.859  12.177 -0.4534 -0.0578  0.6585
16691TIP3    H271489   1.520   0.939  12.144 -0.3196 -0.1872  0.8466
16692TIP3   OH271490   2.516   2.772   5.420 -0.0359  0.2821 -0.3852
16692TIP3    H171491   2.583   2.826   5.379  1.0159 -0.6549  0.0252
16692TIP3    H271492   2.434   2.800   5.380  0.4521  2.2199 -0.1154
16693TIP3   OH271493   2.575   2.806  16.101  0.4126 -0.6208  0.3199
16693TIP3    H171494   2.586   2.721  16.144  0.6401 -0.5937  0.3200
16693TIP3    H271495   2.503   2.848  16.148  1.8047  0.1475  1.8785
16694TIP3   OH271496   3.902   0.652   1.635 -0.2946 -0.2015  0.0527
16694TIP3    H171497   3.951   0.658   1.553  0.7542  1.8776  0.7680
16694TIP3    H271498   3.878   0.560   1.642  1.5229 -0.8542 -1.5015
16695TIP3   OH271499   1.439   2.500   1.279  0.4817  0.2026 -0.0843
16695TIP3    H171500   1.478   2.459   1.356  1.4876  0.1249 -0.6197
16695TIP3    H271501   1.492   2.470   1.206 -0.2186  0.5902 -0.7704
16696TIP3   OH271502   2.652   0.016   1.803 -0.3792  0.7760  0.2465
16696TIP3    H171503   2.653  -0.018   1.714 -0.7288  0.5164  0.3389
16696TIP3    H271504   2.666   0.110   1.793 -3.7863  1.3686 -0.3973
16697TIP3   OH271505   3.440   4.829  11.480 -0.0246 -0.0127 -0.4391
16697TIP3    H171506   3.458   4.736  11.496 -0.3132 -0.0859 -0.5291
16697TIP3    H271507   3.416   4.832  11.387 -1.3218 -0.0510 -0.1223
16698TIP3   OH271508   1.986   2.075  10.822  0.2689 -0.0622  0.5697
16698TIP3    H171509   2.039   1.995  10.831 -1.2074 -1.5021 -2.3165
16698TIP3    H271510   2.011   2.111  10.737 -2.9265 -0.5451 -0.6984
16699TIP3   OH271511   1.429   3.288   5.181 -0.2855 -0.4384  0.3807
16699TIP3    H171512   1.358   3.345   5.151  0.5276 -0.1821 -1.1918
16699TIP3    H271513   1.508   3.337   5.162  0.3649 -0.1189  3.3739
16700TIP3   OH271514   4.922   4.797   1.113 -0.4884 -0.6082 -0.2301
16700TIP3    H171515   4.939   4.704   1.096  1.3155 -0.1514 -1.1619
16700TIP3    H271516   5.002   4.829   1.155 -0.5594  0.8076 -1.1139
16701TIP3   OH271517   0.032   1.875  11.871  0.4634 -0.2811  0.1521
16701TIP3    H171518  -0.062   1.855  11.882  0.4127  0.4635  1.2197
16701TIP3    H271519   0.035   1.942  11.804  0.0832  0.7608  1.1407
16702TIP3   OH271520   3.174   2.027   4.671 -0.3357  0.3688  0.6039
16702TIP3    H171521   3.252   2.059   4.716  0.3368 -2.7536  1.9111
16702TIP3    H271522   3.202   2.008   4.582 -0.2609  1.5098  0.3744
16703TIP3   OH271523   4.560   3.393  16.494  0.0821 -0.2317 -0.3528
16703TIP3    H171524   4.623   3.362  16.429 -0.2416  0.1981 -0.8695
16703TIP3    H271525   4.610   3.396  16.576 -0.1275 -3.3189  0.0420
16704TIP3   OH271526   6.296   1.323  15.391 -0.1727 -0.2066  0.3822
16704TIP3    H171527   6.247   1.377  15.453 -0.5884 -0.3862  0.2173
16704TIP3    H271528   6.359   1.383  15.350 -0.5243  0.1164  0.3109
16705TIP3   OH271529   3.899   1.875   5.676  0.0766  0.4269 -0.1635
16705TIP3    H171530   3.868   1.917   5.756  0.0160 -0.7540  0.4577
16705TIP3    H271531   3.992   1.858   5.692  0.0836  0.2618 -0.3669
16706TIP3   OH271532   5.508   2.458   1.315  0.0076  0.8871 -0.1775
16706TIP3    H171533   5.489   2.503   1.397  1.0110  0.5759  0.2426
16706TIP3    H271534   5.536   2.371   1.342  0.2622  0.7561 -0.8599
16707TIP3   OH271535   6.111   0.939   2.780  0.7364 -0.1731  0.0641
16707TIP3    H171536   6.098   0.867   2.842  1.6303 -1.3672 -1.0813
16707TIP3    H271537   6.024   0.972   2.762  0.1987 -1.6967 -0.2273
16708TIP3   OH271538   5.846   4.507  11.573 -1.2431  0.1306  0.1654
16708TIP3    H171539   5.901   4.563  11.628 -0.6400  0.3516 -0.6338
16708TIP3    H271540   5.784   4.567  11.532  0.9783  0.7223 -2.6450
16709TIP3   OH271541   4.918   0.520  15.914 -0.1453  0.2791 -0.0147
16709TIP3    H171542   4.935   0.431  15.945 -1.8511 -0.1025 -0.0930
16709TIP3    H271543   5.000   0.567  15.930  0.3531 -0.9604  1.2560
16710TIP3   OH271544   2.025   0.971  14.177  0.3557  0.1203 -0.0411
16710TIP3    H171545   2.030   1.058  14.218  1.8426  0.1178 -0.1823
16710TIP3    H271546   2.047   0.987  14.086  0.2699 -0.3582 -0.1459
16711TIP3   OH271547   0.705   5.078   5.050  0.4919  0.2008 -0.2751
16711TIP3    H171548   0.669   5.151   4.999  1.1556  0.6547 -0.1054
16711TIP3    H271549   0.797   5.101   5.063  0.9613 -1.1655 -1.0794
16712TIP3   OH271550   3.681   6.506  11.109 -0.2393  0.1929  0.4639
16712TIP3    H171551   3.751   6.566  11.137  0.1603 -0.7694  1.6019
16712TIP3    H271552   3.669   6.448  11.184 -1.9076  0.0082  0.0759
16713TIP3   OH271553   3.020   0.339  17.082 -0.2256  0.4354 -0.2689
16713TIP3    H171554   3.016   0.423  17.127 -1.1063  0.2709 -0.0094
16713TIP3    H271555   3.108   0.306  17.099  0.5320  1.8090 -1.3212
16714TIP3   OH271556   1.449   4.993  11.573 -0.4128 -0.1476  0.4424
16714TIP3    H171557   1.514   5.027  11.512 -0.1273 -0.4632  0.5713
16714TIP3    H271558   1.431   5.067  11.632  1.1210 -0.5546  1.4960
16715TIP3   OH271559   3.182   0.711   3.289  0.1329 -0.0827  0.1919
16715TIP3    H171560   3.175   0.695   3.195 -3.0869 -2.2587  0.6227
16715TIP3    H271561   3.245   0.646   3.320  0.9816  0.4492 -0.3756
16716TIP3   OH271562   6.493   5.941   3.373 -0.2395  0.0244  0.2896
16716TIP3    H171563   6.412   5.948   3.323 -0.4803  0.8934  0.7817
16716TIP3    H271564   6.525   5.853   3.355 -0.0478  0.4730 -1.8083
16717TIP3   OH271565   5.712   0.486   5.724 -0.0559  0.7858 -0.0638
16717TIP3    H171566   5.748   0.524   5.644  1.7173  0.0419  0.3477
16717TIP3    H271567   5.719   0.391   5.711  1.8313  0.6261  1.5863
16718TIP3   OH271568   5.223   5.084   1.622 -0.6579  0.1402  0.0407
16718TIP3    H171569   5.223   5.076   1.718 -1.3751  1.7404  0.2138
16718TIP3    H271570   5.315   5.081   1.597 -0.3788  0.9046  0.9199
16719TIP3   OH271571   3.258   4.631   3.701  0.2830  0.1878  0.1117
16719TIP3    H171572   3.308   4.667   3.628  0.0666 -0.7509 -0.5121
16719TIP3    H271573   3.188   4.693   3.716  0.9523  0.9298  0.2343
16720TIP3   OH271574   3.099   4.946   4.927  0.4078  0.4592  0.2280
16720TIP3    H171575   3.059   4.867   4.963  1.0885  0.1486  0.3153
16720TIP3    H271576   3.081   4.941   4.833  2.2520 -0.9187 -0.1200
16721TIP3   OH271577   3.023   4.331   6.160 -0.1607 -0.3657 -0.2527
16721TIP3    H171578   2.958   4.264   6.183 -0.2534  0.1760  1.1702
16721TIP3    H271579   3.099   4.282   6.130 -0.3914 -1.1096  0.3492
16722TIP3   OH271580   3.739   3.806  11.078 -0.4753 -0.2069  1.0615
16722TIP3    H171581   3.779   3.868  11.016 -2.2332 -0.8164 -0.8084
16722TIP3    H271582   3.802   3.734  11.083 -0.4880 -0.3625 -0.4463
16723TIP3   OH271583   3.198   1.330  11.475 -0.2519 -0.4092  0.2101
16723TIP3    H171584   3.108   1.345  11.446  0.0158 -0.8427 -0.9067
16723TIP3    H271585   3.246   1.311  11.394  0.8478 -0.1693  0.7860
16724TIP3   OH271586   5.488   2.750  13.884  0.0510 -0.8174 -0.2433
16724TIP3    H171587   5.554   2.796  13.936 -0.3993 -0.0832 -0.3091
16724TIP3    H271588   5.537   2.683  13.836  0.6094 -0.8847  0.4081
16725TIP3   OH271589   1.493   2.579  11.113 -0.2765  0.6629  0.2492
16725TIP3    H171590   1.409   2.541  11.136  0.3343 -0.9808 -0.1123
16725TIP3    H271591   1.546   2.505  11.084  0.6554  1.9237 -1.4655
16726TIP3   OH271592   6.550   6.739   5.223 -0.2894  0.1042  0.0338
16726TIP3    H171593   6.500   6.716   5.301 -1.6140 -0.2949 -0.8921
16726TIP3    H271594   6.540   6.663   5.165  0.5353  0.4555 -0.5972
16727TIP3   OH271595   1.530   2.313   6.333  0.1426  0.1847  0.2198
16727TIP3    H171596   1.439   2.312   6.361  0.6199 -0.6315  1.8918
16727TIP3    H271597   1.561   2.402   6.351 -0.5538  0.7639 -1.2843
16728TIP3   OH271598   6.507   3.623   0.172  0.5728 -0.2448  0.5945
16728TIP3    H171599   6.575   3.687   0.153  0.6609 -0.2084  1.0262
16728TIP3    H271600   6.519   3.555   0.106  1.5557 -0.6494  1.1688
16729TIP3   OH271601   2.113   4.146  12.713  0.5652 -0.1580 -0.3127
16729TIP3    H171602   2.169   4.069  12.710  0.1916 -0.5210  1.0368
16729TIP3    H271603   2.173   4.220  12.702  0.9753 -0.6187 -1.2568
16730TIP3   OH271604   3.332   4.466   6.066 -0.4770 -0.1289  0.8250
16730TIP3    H171605   3.359   4.374   6.074  0.1769 -0.2647 -1.7840
16730TIP3    H271606   3.407   4.516   6.098  0.9627 -0.5625 -1.5730
16731TIP3   OH271607   6.542   6.699   1.067 -0.0552 -0.5150  0.3361
16731TIP3    H171608   6.521   6.787   1.099 -0.8340 -1.0056  1.2335
16731TIP3    H271609   6.462   6.648   1.083  0.5142 -1.4798  0.1989
16732TIP3   OH271610   4.215   4.115   3.962 -0.5910  0.0097 -0.1990
16732TIP3    H171611   4.140   4.174   3.955 -0.0230  1.3526  3.2140
16732TIP3    H271612   4.236   4.113   4.056  0.7727 -4.0105 -0.3635
16733TIP3   OH271613   1.460   1.828  12.323  0.3065 -0.6328  0.5663
16733TIP3    H171614   1.408   1.873  12.391 -0.8926 -2.4681  0.9443
16733TIP3    H271615   1.394   1.793  12.263  1.3026 -0.2115 -0.8101
16734TIP3   OH271616   2.684   4.790  12.862  0.4575 -0.3276 -0.6542
16734TIP3    H171617   2.634   4.841  12.797  3.6697  0.1394 -2.9911
16734TIP3    H271618   2.688   4.702  12.825  0.3842 -0.6583  0.1112
16735TIP3   OH271619   4.931   3.179  14.377 -0.1838  0.0392 -0.0938
16735TIP3    H171620   5.009   3.233  14.361 -0.0574  0.0925  0.6492
16735TIP3    H271621   4.933   3.112  14.308 -0.3910  1.0245 -1.0910
16736TIP3   OH271622   4.592   0.794   2.824  0.0895  0.1985 -0.2987
16736TIP3    H171623   4.632   0.720   2.779  0.8848 -0.2632  1.1139
16736TIP3    H271624   4.597   0.866   2.760  2.8148  0.0490 -0.3823
16737TIP3   OH271625   5.628   3.968   0.129 -0.4414 -0.5866  0.5550
16737TIP3    H171626   5.639   3.893   0.188 -0.3074 -1.3968 -0.4702
16737TIP3    H271627   5.716   4.005   0.121 -0.7218  0.4925  2.0693
16738TIP3   OH271628   4.685   1.510  13.188  0.3643 -0.3288  0.3820
16738TIP3    H171629   4.669   1.491  13.096  3.2746  0.3377 -0.3572
16738TIP3    H271630   4.635   1.443  13.235 -0.1168 -1.5255 -1.7123
16739TIP3   OH271631   6.686   2.304   3.055  0.4536 -0.2476 -0.4181
16739TIP3    H171632   6.601   2.342   3.078  0.7897 -0.0724  0.5806
16739TIP3    H271633   6.727   2.283   3.139  2.5224  2.1003 -0.7038
16740TIP3   OH271634   4.311   4.040  13.060 -0.9277 -0.0337 -0.3540
16740TIP3    H171635   4.256   4.051  13.138  0.7365  0.7507  0.7756
16740TIP3    H271636   4.310   4.126  13.018  0.0106  0.2204  0.1065
16741TIP3   OH271637   3.866   4.729   1.489  0.1132  0.2068 -0.1356
16741TIP3    H171638   3.954   4.766   1.481 -0.3942  1.1668 -1.6664
16741TIP3    H271639   3.871   4.673   1.567  2.4125 -0.7422 -0.8842
16742TIP3   OH271640   1.500   0.777  13.272  0.2147 -0.1334 -0.0437
16742TIP3    H171641   1.500   0.775  13.176 -4.4443  1.0590 -0.2733
16742TIP3    H271642   1.451   0.698  13.297  1.5254 -0.5218  1.4440
16743TIP3   OH271643   3.135   0.475   4.512 -0.2151 -0.2479 -0.2429
16743TIP3    H171644   3.162   0.422   4.437 -0.9345 -0.6090 -0.2602
16743TIP3    H271645   3.070   0.535   4.476 -0.5820 -0.4397  0.0948
16744TIP3   OH271646   3.444   0.062   0.675  0.7762  0.6306  1.1075
16744TIP3    H171647   3.424   0.154   0.691 -0.8436  0.4285  0.4679
16744TIP3    H271648   3.379   0.014   0.727  1.7076 -0.1648  1.5672
16745TIP3   OH271649   3.251   2.514  15.091 -0.2984 -0.2610 -0.7909
16745TIP3    H171650   3.157   2.505  15.106 -0.1630  0.3746  0.6138
16745TIP3    H271651   3.261   2.509  14.996 -1.7098 -0.6358 -0.9380
16746TIP3   OH271652   3.954   1.563   5.434  0.5622  0.2962 -0.2514
16746TIP3    H171653   3.928   1.480   5.474  1.2584 -0.1401 -0.6901
16746TIP3    H271654   4.042   1.579   5.466  0.3416  1.0018  0.0241
16747TIP3   OH271655   5.933   6.594  14.383  0.4472  0.0216 -0.0761
16747TIP3    H171656   5.989   6.672  14.385 -1.9530  1.9002 -1.1325
16747TIP3    H271657   5.865   6.612  14.448  1.4885 -2.6471  1.9057
16748TIP3   OH271658   6.344   5.136   3.406 -0.5001 -0.0788  0.2730
16748TIP3    H171659   6.326   5.151   3.313 -0.9929  0.4705  0.4533
16748TIP3    H271660   6.396   5.211   3.434 -3.1543  1.5425  1.2225
16749TIP3   OH271661   0.355   6.150   0.478 -0.3034 -0.0628  0.4775
16749TIP3    H171662   0.353   6.173   0.386 -2.2315  2.5507  1.0403
16749TIP3    H271663   0.324   6.059   0.481 -1.9338  0.3754 -1.3327
16750TIP3   OH271664   6.152   5.877  11.153 -0.3539 -0.2483  0.1744
16750TIP3    H171665   6.136   5.955  11.099 -0.8941 -0.8350 -0.5279
16750TIP3    H271666   6.112   5.898  11.237 -0.4387  0.2605  0.0089
16751TIP3   OH271667   2.591   4.200  12.114  0.4144  0.4577 -0.3797
16751TIP3    H171668   2.563   4.191  12.023 -0.4999  0.6032 -0.1237
16751TIP3    H271669   2.529   4.145  12.163 -0.8827  2.5498  0.4566
16752TIP3   OH271670   2.944   1.703   2.740 -0.0027 -0.7592 -0.1021
16752TIP3    H171671   2.945   1.645   2.816  1.0080  0.4122  0.8288
16752TIP3    H271672   2.980   1.651   2.668  0.4565 -1.4145  0.5936
16753TIP3   OH271673   1.952   4.584   3.755  0.0868 -0.4417  0.3294
16753TIP3    H171674   1.911   4.656   3.708  1.3935 -0.9311 -1.7089
16753TIP3    H271675   1.921   4.593   3.845 -2.5434  0.5611 -0.5714
16754TIP3   OH271676   2.944   0.808   2.789  0.4338 -0.3375 -0.3176
16754TIP3    H171677   3.028   0.817   2.745  1.2475 -2.1766  0.7366
16754TIP3    H271678   2.890   0.757   2.728  0.1575  0.5983 -0.8720
16755TIP3   OH271679   3.125   0.878   5.627 -0.0247  0.0130  0.0470
16755TIP3    H171680   3.214   0.906   5.607 -0.6326  2.8409  0.8947
16755TIP3    H271681   3.106   0.915   5.713 -1.6530 -1.4786  0.3909
16756TIP3   OH271682   3.022   4.204  17.025 -0.5350  0.4764 -0.1769
16756TIP3    H171683   3.040   4.289  16.984  0.5836 -0.6005 -2.0592
16756TIP3    H271684   3.107   4.173  17.054 -0.4471 -1.2143 -2.0738
16757TIP3   OH271685   4.815   4.998   1.964 -0.2966 -0.3708 -0.2659
16757TIP3    H171686   4.824   4.960   1.877  1.7357 -3.8308  1.2609
16757TIP3    H271687   4.724   4.982   1.989 -1.1322  1.3632 -1.9106
16758TIP3   OH271688   4.311   4.876   1.315 -0.1388  0.4059  0.3698
16758TIP3    H171689   4.385   4.843   1.365  2.1260  2.5232 -1.3584
16758TIP3    H271690   4.307   4.820   1.237 -3.2897 -2.5069  2.3428
16759TIP3   OH271691   0.946   5.545   4.878 -0.2476 -0.5546 -0.0336
16759TIP3    H171692   0.959   5.498   4.961  0.1219 -0.6391 -0.1356
16759TIP3    H271693   0.876   5.608   4.897 -0.2246 -0.6312  0.3208
16760TIP3   OH271694   4.952   4.324   3.934 -0.1772 -0.1810 -0.1041
16760TIP3    H171695   4.989   4.377   4.005 -0.8090 -0.1504  0.2145
16760TIP3    H271696   4.879   4.376   3.901 -0.5285 -0.6543 -0.0821
16761TIP3   OH271697   2.888   5.836   5.178 -0.0315 -0.0155 -0.9466
16761TIP3    H171698   2.821   5.798   5.122 -1.1032 -0.0518  0.3215
16761TIP3    H271699   2.853   5.920   5.205  0.8921  0.4309 -1.0989
16762TIP3   OH271700   0.688   2.247   1.253  0.3006 -0.1002  0.2798
16762TIP3    H171701   0.722   2.329   1.219 -2.4963  1.8117  1.6637
16762TIP3    H271702   0.748   2.223   1.323  1.0850  0.8325 -0.0561
16763TIP3   OH271703   2.276   6.497   0.593 -0.5565 -0.5758  0.2127
16763TIP3    H171704   2.254   6.589   0.608 -1.6749 -1.0282  1.6062
16763TIP3    H271705   2.238   6.477   0.507  0.5543  0.4801 -0.5686
16764TIP3   OH271706   3.866   2.506   6.007  0.4372 -0.3976  0.0760
16764TIP3    H171707   3.912   2.589   5.997 -1.0066  0.4722  0.3857
16764TIP3    H271708   3.786   2.517   5.955  0.0732 -1.4766  0.3895
16765TIP3   OH271709   1.196   1.688   0.743 -0.7229  0.3908 -0.2812
16765TIP3    H171710   1.230   1.738   0.817 -2.7338 -0.8072  1.6064
16765TIP3    H271711   1.227   1.598   0.759 -2.2264 -0.1313 -0.1175
16766TIP3   OH271712   6.141   3.697   5.454  0.1154 -0.2870  0.1874
16766TIP3    H171713   6.058   3.670   5.415 -0.2135 -0.5724  1.0725
16766TIP3    H271714   6.124   3.702   5.548  0.6349  1.3121  0.2277
16767TIP3   OH271715   2.182   1.375   5.273  0.0043 -0.4036 -0.2061
16767TIP3    H171716   2.143   1.291   5.297 -0.8756  0.2662  0.7631
16767TIP3    H271717   2.270   1.371   5.311 -0.3967 -0.4798  0.7471
16768TIP3   OH271718   0.848   0.100  14.824  0.3824  0.1565  0.1496
16768TIP3    H171719   0.895   0.078  14.743  0.8090  0.2604  0.3699
16768TIP3    H271720   0.903   0.066  14.894 -0.6294 -1.1442  0.3611
16769TIP3   OH271721   5.989   2.724  14.532 -0.4469  0.1536  0.4021
16769TIP3    H171722   5.911   2.679  14.565 -0.2698  0.3375  1.0871
16769TIP3    H271723   6.010   2.679  14.450 -2.4411  1.3404 -0.8649
16770TIP3   OH271724   0.193   0.984   4.691 -0.3093 -0.7566  0.2263
16770TIP3    H171725   0.122   1.048   4.700 -0.6529 -1.1315  0.2217
16770TIP3    H271726   0.272   1.037   4.680 -0.3862 -0.3097  1.5993
16771TIP3   OH271727   4.029   0.906   4.785 -0.4295  0.5400 -0.2878
16771TIP3    H171728   4.115   0.899   4.827 -0.5272 -1.4180 -0.2985
16771TIP3    H271729   3.968   0.920   4.858 -0.2097  1.0320 -0.1922
16772TIP3   OH271730   1.475   0.718   3.383 -0.1290  0.8087  0.4187
16772TIP3    H171731   1.436   0.764   3.458  0.0150  0.6834  0.5723
16772TIP3    H271732   1.569   0.730   3.393  0.0585 -1.1737  1.5882
16773TIP3   OH271733   0.388   1.935   0.987 -0.0680  0.1013  0.5362
16773TIP3    H171734   0.334   1.992   0.933  1.1051  0.9241  0.1971
16773TIP3    H271735   0.470   1.984   1.000  0.8678 -1.3764  0.4770
16774TIP3   OH271736   2.487   1.799   5.130  0.1696  0.4653 -0.1425
16774TIP3    H171737   2.458   1.754   5.051  1.7160 -0.3111 -0.3043
16774TIP3    H271738   2.546   1.737   5.173  1.6842  1.9998  0.0891
16775TIP3   OH271739   4.115   0.493   1.772 -0.3885  0.3358  0.3921
16775TIP3    H171740   4.029   0.453   1.776  0.2560 -1.0678  0.7412
16775TIP3    H271741   4.098   0.587   1.780 -1.8558  0.0674  0.7018
16776TIP3   OH271742   1.850   4.565   4.061  0.0886  0.0071 -0.2707
16776TIP3    H171743   1.893   4.532   4.141 -1.1693 -0.6642  0.1585
16776TIP3    H271744   1.812   4.649   4.087 -0.0723 -0.0744 -0.2394
16777TIP3   OH271745   4.250   2.517   6.479  0.3532 -0.1714  0.1038
16777TIP3    H171746   4.281   2.566   6.403 -1.0138  0.3278 -0.1713
16777TIP3    H271747   4.155   2.534   6.481  0.0751 -1.6253  0.8616
16778TIP3   OH271748   1.160   6.455  12.417 -0.6515  0.2332 -0.1940
16778TIP3    H171749   1.087   6.404  12.383  0.3108  1.0519 -3.9810
16778TIP3    H271750   1.120   6.531  12.458 -1.9347 -0.7063  0.3544
16779TIP3   OH271751   6.038   6.541  16.242  0.5745  0.5149 -0.3698
16779TIP3    H171752   5.992   6.549  16.159  0.5326  0.8535 -0.3109
16779TIP3    H271753   6.125   6.578  16.226  0.7661  0.0595 -0.4219
16780TIP3   OH271754   0.145   2.465   3.305  0.5685 -0.0125  0.5739
16780TIP3    H171755   0.150   2.490   3.397 -0.1928 -0.9687  0.9010
16780TIP3    H271756   0.083   2.526   3.266 -0.2664 -0.5325  1.0566
16781TIP3   OH271757   2.732   4.314   0.980  0.5122 -0.0233  0.5126
16781TIP3    H171758   2.810   4.311   1.035  1.3784  1.5250 -0.5414
16781TIP3    H271759   2.732   4.230   0.934  2.6843  0.6430 -0.8622
16782TIP3   OH271760   3.214   4.983  12.989  0.5568  0.2184 -0.5086
16782TIP3    H171761   3.198   4.928  12.912 -4.0780  0.5996 -0.0898
16782TIP3    H271762   3.170   5.066  12.969  1.4063  1.2632  1.6043
16783TIP3   OH271763   2.638   3.673   5.652 -0.3546  0.1834  0.0883
16783TIP3    H171764   2.553   3.694   5.614  0.8599  3.9786 -0.9387
16783TIP3    H271765   2.697   3.667   5.577  0.5162 -1.6806  0.8375
16784TIP3   OH271766   4.031   1.731  13.177 -0.0703  0.5796 -0.3164
16784TIP3    H171767   4.084   1.652  13.180  0.3740  0.8534 -0.7106
16784TIP3    H271768   3.943   1.701  13.152 -0.2158  0.0725  0.7579
16785TIP3   OH271769   4.751   0.447   0.619 -0.0019 -0.0174 -0.9707
16785TIP3    H171770   4.799   0.384   0.673  0.3839 -1.3576 -2.7644
16785TIP3    H271771   4.727   0.517   0.679  2.0422 -0.5017  0.5376
16786TIP3   OH271772   1.963   4.086  14.105 -0.5116  0.0024  0.4526
16786TIP3    H171773   1.961   4.157  14.171  2.1390 -1.0550  1.8108
16786TIP3    H271774   2.026   4.116  14.040 -2.0871  0.4088 -0.9586
16787TIP3   OH271775   6.490   3.104  16.493  0.1353 -0.4385  0.5546
16787TIP3    H171776   6.555   3.040  16.464  0.1141  0.2440 -1.1085
16787TIP3    H271777   6.408   3.056  16.497  0.3726 -0.8344  0.6932
16788TIP3   OH271778   1.365   4.573   2.635 -0.5394 -0.5691 -0.2490
16788TIP3    H171779   1.428   4.592   2.565 -0.6763 -1.9760 -0.7908
16788TIP3    H271780   1.389   4.486   2.665  0.8091  0.7415  2.9126
16789TIP3   OH271781   2.503   4.567  12.682  0.6245  0.0773 -0.1217
16789TIP3    H171782   2.580   4.527  12.721  1.0954  1.3723  0.3077
16789TIP3    H271783   2.515   4.556  12.588  1.5473  0.6588 -0.0763
16790TIP3   OH271784   0.319   5.428  14.092  0.1934 -0.1585  0.1012
16790TIP3    H171785   0.271   5.432  14.175 -0.2437 -0.5556 -0.1236
16790TIP3    H271786   0.334   5.335  14.078  1.1046 -0.0331  0.1997
16791TIP3   OH271787   2.440   1.198  12.137  0.4491 -0.1999  0.4509
16791TIP3    H171788   2.465   1.290  12.148 -0.9461  0.1651  0.8138
16791TIP3    H271789   2.373   1.184  12.203 -1.0352 -0.8053 -1.1079
16792TIP3   OH271790   5.448   4.428   4.503  0.1302 -0.0126 -0.2829
16792TIP3    H171791   5.474   4.356   4.560  2.3725  0.2764 -0.8501
16792TIP3    H271792   5.424   4.386   4.420  1.5213 -0.1407 -0.6432
16793TIP3   OH271793   1.747   3.272  13.824 -0.8217  0.1893 -0.5021
16793TIP3    H171794   1.801   3.245  13.898  0.8932  3.8529 -0.2283
16793TIP3    H271795   1.657   3.260  13.854 -0.2052 -1.4952  0.8536
16794TIP3   OH271796   4.141   0.290  16.027 -1.0103 -0.3989  0.3483
16794TIP3    H171797   4.124   0.334  15.943  1.6996 -0.1041 -0.1131
16794TIP3    H271798   4.053   0.271  16.061 -2.2172  0.5125 -1.9826
16795TIP3   OH271799   2.761   4.918   2.542  0.5464  0.0748  0.0920
16795TIP3    H171800   2.772   5.012   2.561 -0.9078  0.0719  1.1176
16795TIP3    H271801   2.722   4.882   2.621  1.0727 -1.4234 -0.2968
16796TIP3   OH271802   3.700   1.362  14.337  0.5919 -0.5849  0.3668
16796TIP3    H171803   3.619   1.321  14.305 -0.0797  0.8000  0.2320
16796TIP3    H271804   3.678   1.393  14.425  1.1751 -0.7538  0.5726
16797TIP3   OH271805   2.111   4.299  11.588  0.2894 -0.0494  0.0648
16797TIP3    H171806   2.197   4.319  11.627  0.5572 -2.5459  0.9542
16797TIP3    H271807   2.112   4.345  11.504  1.0478  2.8226  1.4922
16798TIP3   OH271808   5.527   2.261  17.084  0.4314 -0.6800  0.1832
16798TIP3    H171809   5.478   2.181  17.063  1.9572 -1.4770 -0.5606
16798TIP3    H271810   5.616   2.230  17.103  0.8152  0.7611  0.8651
16799TIP3   OH271811   6.232   6.723  11.173  0.4175 -0.4342 -0.1431
16799TIP3    H171812   6.270   6.638  11.150  0.4274 -0.2480 -0.8328
16799TIP3    H271813   6.151   6.727  11.122  0.0422 -0.3485  0.4610
16800TIP3   OH271814   1.595   3.200   3.908  0.0978 -0.0175 -0.2540
16800TIP3    H171815   1.653   3.216   3.983 -0.4075  0.2950  0.0783
16800TIP3    H271816   1.621   3.114   3.876  1.2375  0.4268 -0.5708
16801TIP3   OH271817   6.327   1.230  15.760 -0.6862  0.0531 -0.3247
16801TIP3    H171818   6.358   1.160  15.818 -1.5941 -0.8260 -0.8704
16801TIP3    H271819   6.407   1.273  15.730 -0.1209 -0.6743  0.1072
16802TIP3   OH271820   2.256   2.324  13.295  0.2729  0.3442 -0.0330
16802TIP3    H171821   2.188   2.259  13.312  0.7769 -0.2263 -0.1414
16802TIP3    H271822   2.209   2.405  13.277 -0.4393 -0.4185 -1.7835
16803TIP3   OH271823   6.055   1.084   3.056 -0.1122 -0.4892  0.9443
16803TIP3    H171824   6.123   1.017   3.068  2.1065  1.8157  2.4740
16803TIP3    H271825   6.097   1.151   3.002 -0.9847  1.1978  2.2554
16804TIP3   OH271826   3.479   0.195  17.196 -0.2224 -0.2531 -0.3034
16804TIP3    H171827   3.526   0.270  17.234 -1.1581  1.5340 -2.4852
16804TIP3    H271828   3.467   0.135  17.270  2.5702  0.6663  1.0387
16805TIP3   OH271829   6.289   4.803   2.615  0.2548 -0.0064  0.4182
16805TIP3    H171830   6.353   4.848   2.560 -1.5441  2.8241  0.4472
16805TIP3    H271831   6.264   4.726   2.564  0.3817  1.2661 -1.7068
16806TIP3   OH271832   3.439   2.942   4.702  0.0646 -0.0233  0.1902
16806TIP3    H171833   3.483   2.859   4.686 -0.4973 -0.6455  1.7010
16806TIP3    H271834   3.483   3.004   4.644  1.8580 -0.9506  0.4851
16807TIP3   OH271835   5.515   2.626  12.172  0.1434  0.0109  0.1644
16807TIP3    H171836   5.538   2.715  12.196 -0.5071  1.0992 -2.7733
16807TIP3    H271837   5.595   2.588  12.137 -0.2348  0.6053 -1.4730
16808TIP3   OH271838   4.619   1.278   3.780  0.5234 -0.1517  0.3732
16808TIP3    H171839   4.629   1.193   3.736 -0.6533  0.0663 -0.3720
16808TIP3    H271840   4.568   1.331   3.719 -0.6604  0.3612  1.7298
16809TIP3   OH271841   2.647   0.431  12.599  0.0889 -0.8602 -0.4703
16809TIP3    H171842   2.721   0.388  12.641 -0.6020 -1.3430  0.2989
16809TIP3    H271843   2.682   0.514  12.566  0.6754 -0.4843  1.0298
16810TIP3   OH271844   1.227   2.646   5.183 -0.0566 -0.5729 -0.3168
16810TIP3    H171845   1.251   2.565   5.227  1.4882  0.8967  1.7541
16810TIP3    H271846   1.282   2.650   5.105  2.0168 -0.2118  1.1024
16811TIP3   OH271847   3.833   6.323   0.772 -0.2401  0.5265 -0.2326
16811TIP3    H171848   3.822   6.395   0.710  0.5563  0.8514 -0.0013
16811TIP3    H271849   3.826   6.244   0.718  1.6587  0.8121 -0.9776
16812TIP3   OH271850   1.487   0.698  16.914 -0.3261  0.3605  0.3355
16812TIP3    H171851   1.559   0.690  16.852  0.8301 -0.2868  1.7099
16812TIP3    H271852   1.520   0.756  16.982 -1.0945  0.0349  1.0014
16813TIP3   OH271853   1.070   1.972   1.138  0.3063 -0.4143  0.4874
16813TIP3    H171854   1.021   1.895   1.165 -0.0070 -0.3658  0.0513
16813TIP3    H271855   1.151   1.937   1.101  0.3317 -0.5164  0.6377
16814TIP3   OH271856   2.561   0.973  15.718  0.3295  0.2995 -0.2186
16814TIP3    H171857   2.638   0.917  15.723 -1.2806 -2.0104  0.6685
16814TIP3    H271858   2.511   0.939  15.643  0.1798  1.8270 -0.8561
16815TIP3   OH271859   6.029   4.848  13.901 -0.1760 -0.5344 -0.5736
16815TIP3    H171860   6.043   4.942  13.911 -1.4206 -0.3189 -0.7093
16815TIP3    H271861   6.011   4.836  13.808 -1.2463 -0.7179 -0.3545
16816TIP3   OH271862   1.417   0.182  16.115  0.5571  1.0786  0.3566
16816TIP3    H171863   1.364   0.185  16.194 -0.0834  1.0772 -0.0631
16816TIP3    H271864   1.353   0.187  16.043  1.0920  0.5665 -0.1623
16817TIP3   OH271865   4.001   6.707   4.479  0.4059  0.2243  0.1765
16817TIP3    H171866   3.987   6.770   4.409  0.3243  0.0085 -0.0014
16817TIP3    H271867   4.046   6.633   4.437  0.4414  0.1359  0.3689
16818TIP3   OH271868   4.101   3.479   3.411  0.1342 -0.3946 -0.0842
16818TIP3    H171869   4.091   3.464   3.317  0.5437  1.4720 -0.4667
16818TIP3    H271870   4.012   3.482   3.445 -0.0519 -0.0399 -0.6017
16819TIP3   OH271871   4.294   2.558  14.039 -0.6078  0.1779  0.3914
16819TIP3    H171872   4.307   2.594  13.952 -0.1748  0.5034  0.5893
16819TIP3    H271873   4.361   2.490  14.047  1.5042  2.2530  1.6357
16820TIP3   OH271874   1.363   2.960  13.215 -0.1735 -0.7770 -0.1790
16820TIP3    H171875   1.364   2.866  13.200 -1.8897 -0.9507  0.5497
16820TIP3    H271876   1.409   2.998  13.140  2.5184 -2.2908  0.6080
16821TIP3   OH271877   4.691   5.899   1.044 -0.5231  0.5889 -0.4618
16821TIP3    H171878   4.705   5.993   1.052  2.0874  0.2591 -0.3988
16821TIP3    H271879   4.714   5.879   0.953 -0.2177 -0.1127 -0.2385
16822TIP3   OH271880   5.877   4.947  15.625  0.0372 -0.2907 -0.4220
16822TIP3    H171881   5.814   4.881  15.651 -1.4036  0.5770 -1.5635
16822TIP3    H271882   5.888   5.002  15.703 -2.6537  1.0724 -0.8895
16823TIP3   OH271883   4.950   0.755   5.825  0.5427 -0.1799 -0.1456
16823TIP3    H171884   4.865   0.714   5.809 -1.0406  2.2561  1.3321
16823TIP3    H271885   4.956   0.823   5.758  0.6556  0.5834  0.6359
16824TIP3   OH271886   3.975   2.242   3.655  0.1895  0.4458 -0.0601
16824TIP3    H171887   3.991   2.308   3.587  1.9943  0.8784  0.6944
16824TIP3    H271888   4.063   2.224   3.690 -0.6353 -0.0658  1.8485
16825TIP3   OH271889   3.775   3.092   1.796  0.4166 -0.0327  0.5693
16825TIP3    H171890   3.868   3.107   1.784  0.9343 -1.1618  2.6709
16825TIP3    H271891   3.762   3.000   1.772  0.0396 -0.1561  1.2182
16826TIP3   OH271892   5.930   3.763  15.044  0.1044  0.5739 -0.6046
16826TIP3    H171893   5.895   3.815  15.115 -0.3424 -0.7923  0.2193
16826TIP3    H271894   5.875   3.784  14.969 -1.4142 -0.2170  0.2365
16827TIP3   OH271895   2.433   5.454  12.519 -0.3544  0.1853 -0.0260
16827TIP3    H171896   2.380   5.397  12.463  1.1752 -1.1626 -0.1660
16827TIP3    H271897   2.415   5.424  12.608 -1.9845  1.6394  0.1768
16828TIP3   OH271898   6.589   5.817  14.792 -0.1053  0.0441 -0.2836
16828TIP3    H171899   6.510   5.763  14.801  0.1911 -0.3649 -0.0939
16828TIP3    H271900   6.651   5.780  14.855 -0.8824  2.4894  2.1192
16829TIP3   OH271901   0.283   0.175   1.458 -0.2703 -0.0420  0.2315
16829TIP3    H171902   0.346   0.123   1.508  2.3724 -0.3219 -3.0446
16829TIP3    H271903   0.242   0.112   1.399  0.2232  0.9365 -1.1983
16830TIP3   OH271904   4.428   4.981  15.993  0.4641  0.3009 -0.1411
16830TIP3    H171905   4.362   5.014  16.053  1.9254  0.0994  1.6546
16830TIP3    H271906   4.434   4.888  16.012  2.5424  0.6169  1.1342
16831TIP3   OH271907   0.984   5.474  14.857  0.0996  0.4209 -0.6647
16831TIP3    H171908   0.902   5.447  14.897  0.6342  1.4629  1.2501
16831TIP3    H271909   0.967   5.472  14.763 -1.9168  0.0389 -0.3301
16832TIP3   OH271910   5.755   5.959   1.695  0.2205  0.0942  0.0331
16832TIP3    H171911   5.819   6.029   1.685  1.4226 -0.4786  2.7210
16832TIP3    H271912   5.785   5.891   1.634  1.6505  0.2234  0.5466
16833TIP3   OH271913   0.834   4.520  11.709  0.4596  0.0783  0.0065
16833TIP3    H171914   0.778   4.496  11.635  1.7024 -0.9507 -0.6395
16833TIP3    H271915   0.858   4.612  11.693  1.6671 -0.4644 -1.5507
16834TIP3   OH271916   6.200   0.517   1.378  0.1399  0.2500 -0.1763
16834TIP3    H171917   6.275   0.566   1.342  2.2854  0.2147  3.6912
16834TIP3    H271918   6.220   0.426   1.357  0.6479  0.3271 -0.0526
16835TIP3   OH271919   3.831   3.576  13.701 -0.6178  0.0108  0.0971
16835TIP3    H171920   3.822   3.539  13.789  0.0130  1.2754  0.7110
16835TIP3    H271921   3.746   3.615  13.683 -1.0395 -1.0262 -0.2413
16836TIP3   OH271922   5.848   1.823  15.912 -0.1701  0.0742 -0.2788
16836TIP3    H171923   5.906   1.776  15.852 -1.8826 -2.1411 -0.2916
16836TIP3    H271924   5.890   1.909  15.922  2.9073 -1.2369 -0.5605
16837TIP3   OH271925   6.459   6.334   4.038 -0.2401  0.2905 -0.3164
16837TIP3    H171926   6.548   6.361   4.061 -0.9995  3.1556 -0.2700
16837TIP3    H271927   6.403   6.396   4.084 -2.4067 -2.3413  0.8591
16838TIP3   OH271928   3.853   0.247   4.417  0.0969 -0.2267 -0.2892
16838TIP3    H171929   3.853   0.184   4.490  0.3102  0.1957  0.0802
16838TIP3    H271930   3.806   0.202   4.347  0.5383 -0.9343 -0.1445
16839TIP3   OH271931   0.677   2.170  16.909 -0.0167 -0.1391  0.6529
16839TIP3    H171932   0.666   2.209  16.822 -4.9415  2.1284  1.9284
16839TIP3    H271933   0.712   2.083  16.892 -0.1337  0.4300 -3.5563
16840TIP3   OH271934   3.134   3.322  15.243 -0.0671  0.0063 -0.4515
16840TIP3    H171935   3.192   3.342  15.316  0.0106 -0.3334 -0.4216
16840TIP3    H271936   3.091   3.406  15.224 -0.3195  0.0218  0.1773
16841TIP3   OH271937   6.396   6.187  16.591  0.0036 -0.8900 -0.3623
16841TIP3    H171938   6.389   6.164  16.498 -1.1734  0.6429 -0.6737
16841TIP3    H271939   6.319   6.240  16.609  1.4854  0.9723  0.8507
16842TIP3   OH271940   3.193   2.210  14.012  0.0456 -0.1594  0.0847
16842TIP3    H171941   3.098   2.218  14.002  0.2640  0.3195 -2.3916
16842TIP3    H271942   3.216   2.275  14.079 -1.6128 -2.3992  3.0506
16843TIP3   OH271943   6.466   4.965   3.077 -0.2538  0.8267  0.5926
16843TIP3    H171944   6.464   4.891   3.138  2.7037  1.9240  2.2391
16843TIP3    H271945   6.432   4.930   2.995 -0.8663 -1.7608  1.8504
16844TIP3   OH271946   0.710   2.302   0.066  0.1757  0.7458  0.4063
16844TIP3    H171947   0.629   2.321   0.019 -0.9125  2.4586  2.7324
16844TIP3    H271948   0.763   2.381   0.055  0.0937  0.9884  1.5594
16845TIP3   OH271949   3.087   4.470  12.140 -0.3770  0.2352  0.6876
16845TIP3    H171950   3.040   4.537  12.090  0.2541 -0.6500 -1.1839
16845TIP3    H271951   3.033   4.392  12.133 -0.2457  0.0806  1.3506
16846TIP3   OH271952   4.991   4.653   2.872 -0.2784  0.4687 -0.1897
16846TIP3    H171953   4.989   4.603   2.790  0.1243 -0.6759  0.4718
16846TIP3    H271954   5.024   4.591   2.937 -0.3354  1.4357  0.7938
16847TIP3   OH271955   0.767   1.994   4.519  0.2205 -0.6421 -0.1059
16847TIP3    H171956   0.703   1.969   4.452 -0.5735 -1.8678  1.0504
16847TIP3    H271957   0.740   1.945   4.597  2.3363 -0.8695  0.5368
16848TIP3   OH271958   3.918   0.304   2.017  0.2767  0.5062 -0.0977
16848TIP3    H171959   3.996   0.285   2.069 -0.4384  1.1637  1.2896
16848TIP3    H271960   3.872   0.220   2.012 -0.9477  0.9105  2.6728
16849TIP3   OH271961   5.617   4.043  15.471 -0.2939 -0.4248 -0.0949
16849TIP3    H171962   5.550   3.984  15.506  0.3665 -1.7205 -0.9648
16849TIP3    H271963   5.691   3.987  15.451  0.8340  0.8913  0.2165
16850TIP3   OH271964   0.635   3.276   5.186  0.2074  0.3466  0.2411
16850TIP3    H171965   0.560   3.249   5.240 -0.6095  2.5995  0.3723
16850TIP3    H271966   0.596   3.327   5.115  1.5489  0.4951 -0.4192
16851TIP3   OH271967   4.105   4.671   4.643 -0.3277  0.3350  0.2709
16851TIP3    H171968   4.120   4.579   4.621 -2.5151  0.1434 -0.6002
16851TIP3    H271969   4.012   4.686   4.625  0.1391  2.9329 -0.4352
16852TIP3   OH271970   4.543   4.666  13.585 -0.4572  0.1373  0.6886
16852TIP3    H171971   4.482   4.601  13.550  0.5441 -0.9889  0.9470
16852TIP3    H271972   4.504   4.695  13.667 -0.0546 -1.5378  1.5079
16853TIP3   OH271973   1.515   1.449   0.523 -0.3387  0.0796  0.1387
16853TIP3    H171974   1.608   1.427   0.528 -0.5079 -0.5765  0.4693
16853TIP3    H271975   1.505   1.525   0.580  0.3328  1.3329 -1.3339
16854TIP3   OH271976   1.658   5.868   4.954 -0.0021  0.3882  0.2361
16854TIP3    H171977   1.735   5.870   4.898  1.5050 -1.1557  2.1311
16854TIP3    H271978   1.684   5.916   5.033 -1.0817  0.0904  0.8002
16855TIP3   OH271979   0.094   1.442  15.326  0.3394  0.3298 -0.1215
16855TIP3    H171980   0.009   1.471  15.293  0.7605  2.2507  0.3750
16855TIP3    H271981   0.075   1.401  15.409 -0.1492  0.4455 -0.1738
16856TIP3   OH271982   1.180   5.172  12.860 -0.3723 -0.0278 -0.3005
16856TIP3    H171983   1.103   5.156  12.915  2.1237 -2.9929  2.7771
16856TIP3    H271984   1.247   5.200  12.921  1.7259 -0.1617 -2.4143
16857TIP3   OH271985   4.123   1.928   1.211  0.3695 -0.7568 -0.3735
16857TIP3    H171986   4.142   1.899   1.122  0.5560  0.7580 -0.8541
16857TIP3    H271987   4.055   1.994   1.201  1.8486  0.9517  0.3848
16858TIP3   OH271988   2.074   4.133  13.552 -0.1142 -0.6051  0.1677
16858TIP3    H171989   2.167   4.154  13.565  0.0861 -0.4702 -1.3730
16858TIP3    H271990   2.052   4.173  13.468 -0.6122 -3.6086 -1.2584
16859TIP3   OH271991   3.831   1.448  17.327  0.0736  0.4831 -0.0910
16859TIP3    H171992   3.874   1.383  17.273 -1.0346  1.4189 -2.2369
16859TIP3    H271993   3.899   1.512  17.348  0.2329  0.8310 -1.6001
16860TIP3   OH271994   2.097   2.425   3.683  0.3396 -0.3760  0.0304
16860TIP3    H171995   2.044   2.487   3.733 -0.8384 -0.7670 -0.7061
16860TIP3    H271996   2.037   2.387   3.619  1.4485 -1.0149 -0.6774
16861TIP3   OH271997   6.635   5.065   2.499 -0.1790  0.3317  0.5259
16861TIP3    H171998   6.563   5.004   2.487 -0.1945 -0.0337  2.1967
16861TIP3    H271999   6.601   5.149   2.470 -0.9818 -0.0086  0.4786
16862TIP3   OH272000   5.144   1.121   5.511  0.2047 -0.3524  0.6373
16862TIP3    H172001   5.118   1.200   5.560 -0.1576  0.3719 -0.6787
16862TIP3    H272002   5.230   1.142   5.475 -0.7687  0.3214 -1.4645
16863TIP3   OH272003   1.582   0.441   2.792  0.2664 -0.7913 -0.0379
16863TIP3    H172004   1.614   0.454   2.881  0.9608  1.5345 -0.5371
16863TIP3    H272005   1.489   0.460   2.797  0.4624  0.2331  0.0819
16864TIP3   OH272006   4.135   3.443   4.787 -0.1639  0.1835  0.1519
16864TIP3    H172007   4.173   3.527   4.812  0.9280 -0.2953  0.1619
16864TIP3    H272008   4.054   3.437   4.837 -0.6909  1.5920 -0.4653
16865TIP3   OH272009   3.402   4.316   4.015 -0.3283 -0.3220 -0.7330
16865TIP3    H172010   3.332   4.362   3.968 -2.1764 -0.8840  1.3503
16865TIP3    H272011   3.358   4.250   4.067  1.4484  0.7784  2.4710
16866TIP3   OH272012   3.182   0.935  15.638 -0.1198  0.4300 -0.6456
16866TIP3    H172013   3.110   0.978  15.685 -0.0635 -0.9323  0.7819
16866TIP3    H272014   3.138   0.889  15.566 -0.6615 -0.1859  0.0642
16867TIP3   OH272015   6.102   1.922  16.563  0.1339  0.5918 -0.6218
16867TIP3    H172016   6.086   1.936  16.657 -0.1360 -1.3773 -0.3350
16867TIP3    H272017   6.033   1.973  16.520 -0.4897  0.5656  0.3028
16868TIP3   OH272018   6.479   6.244   5.306  0.4943  0.5856  0.0178
16868TIP3    H172019   6.393   6.207   5.289  0.2664  0.6042  1.0490
16868TIP3    H272020   6.538   6.197   5.247  0.4988 -2.6277  2.3138
16869TIP3   OH272021   3.152   3.572  10.867 -0.3794 -0.2809  0.4555
16869TIP3    H172022   3.179   3.621  10.789 -0.7442 -0.0863  0.4519
16869TIP3    H272023   3.058   3.587  10.874 -0.6709 -1.7022 -0.0695
16870TIP3   OH272024   2.804   1.842  13.613  0.4871  0.2069  0.2349
16870TIP3    H172025   2.883   1.868  13.566  0.4277  0.9262  0.5258
16870TIP3    H272026   2.832   1.830  13.703  0.6865 -1.5766 -0.0257
16871TIP3   OH272027   4.807   4.533   1.018  0.6080  0.1891  0.6407
16871TIP3    H172028   4.772   4.515   1.105  2.7919  1.2142  1.8076
16871TIP3    H272029   4.886   4.479   1.012  0.8307  0.6019 -0.4472
16872TIP3   OH272030   3.065   1.317  14.351 -0.1281 -0.5168  0.3071
16872TIP3    H172031   3.087   1.284  14.263  0.7285 -0.8434  0.6315
16872TIP3    H272032   3.044   1.410  14.337  0.3569 -0.4753 -0.1901
16873TIP3   OH272033   1.483   1.341   3.307  0.3129 -0.0615  0.2782
16873TIP3    H172034   1.483   1.434   3.285  1.1072 -0.1017  0.0504
16873TIP3    H272035   1.567   1.328   3.352 -0.8254 -0.1740  2.5049
16874TIP3   OH272036   3.313   3.176  14.063  0.4353  0.5517  0.1163
16874TIP3    H172037   3.285   3.166  14.154  2.1286  0.2696  0.6505
16874TIP3    H272038   3.345   3.090  14.037 -1.3616  0.2515 -1.2687
16875TIP3   OH272039   4.934   6.484   1.768 -0.4027 -0.2353  0.3161
16875TIP3    H172040   5.026   6.505   1.753 -0.7712  0.5246 -0.9509
16875TIP3    H272041   4.937   6.409   1.828  1.0965 -1.8054 -1.5812
16876TIP3   OH272042   1.194   5.666  12.806  0.3598 -0.3182 -0.1774
16876TIP3    H172043   1.256   5.638  12.873  1.1421 -0.8293 -1.0878
16876TIP3    H272044   1.193   5.761  12.812 -0.8892 -0.4129  1.6917
16877TIP3   OH272045   2.992   1.103  11.096 -0.3742  0.2066 -0.3228
16877TIP3    H172046   3.028   1.053  11.023  0.9300 -0.4219  0.7023
16877TIP3    H272047   3.026   1.192  11.082  0.9311 -0.1949  0.1765
16878TIP3   OH272048   3.017   6.528   4.131  0.5234 -0.0576  0.1209
16878TIP3    H172049   3.015   6.432   4.126  1.1674 -0.0489 -0.5505
16878TIP3    H272050   3.063   6.554   4.051 -3.5807  1.0423 -2.1373
16879TIP3   OH272051   6.372   2.017   0.077 -0.1321 -0.7271  0.3267
16879TIP3    H172052   6.449   1.974   0.116  1.6128  0.3465 -1.7313
16879TIP3    H272053   6.406   2.062  -0.001 -2.9999 -0.8219 -1.1155
16880TIP3   OH272054   2.964   5.650   3.261  0.4221 -0.7191  0.0813
16880TIP3    H172055   2.983   5.733   3.305 -2.4486 -0.6914  1.5120
16880TIP3    H272056   2.917   5.676   3.181  0.0202 -0.9581  0.2407
16881TIP3   OH272057   3.056   0.266  16.794  0.3351  0.1532  0.6268
16881TIP3    H172058   3.135   0.289  16.745  0.6832  0.3508  1.2722
16881TIP3    H272059   3.067   0.308  16.879  0.0390 -0.7100  1.1084
16882TIP3   OH272060   3.363   4.454   0.633  0.4181 -0.0516  0.2347
16882TIP3    H172061   3.311   4.460   0.552 -0.6992  1.1391  0.9988
16882TIP3    H272062   3.428   4.387   0.614  0.8732  0.9170 -2.0417
16883TIP3   OH272063   3.880   4.711  14.909  0.2688  0.8147  0.2597
16883TIP3    H172064   3.799   4.704  14.959  1.0168 -0.0984  1.4067
16883TIP3    H272065   3.907   4.620  14.894  0.3390  1.0767 -1.3984
16884TIP3   OH272066   0.953   6.112  12.003  0.2638  0.0326  0.5005
16884TIP3    H172067   0.973   6.081  12.091  0.3782  0.6754  0.7069
16884TIP3    H272068   1.001   6.195  11.995 -1.2587  0.9575  0.5352
16885TIP3   OH272069   6.534   5.444   5.153  0.2770 -0.4697 -0.7909
16885TIP3    H172070   6.603   5.441   5.087  0.7217 -1.4709 -0.2991
16885TIP3    H272071   6.580   5.434   5.237 -0.5551 -2.5284 -0.5216
16886TIP3   OH272072   4.056   6.130  14.895 -0.7477 -0.5112 -0.1155
16886TIP3    H172073   3.967   6.164  14.890 -1.3311 -1.6165  1.6360
16886TIP3    H272074   4.050   6.042  14.859 -0.8400 -1.3052  1.7143
16887TIP3   OH272075   5.731   5.188  14.493  0.0438  0.1540 -0.1666
16887TIP3    H172076   5.694   5.241  14.563 -0.2094 -1.2167  0.7744
16887TIP3    H272077   5.766   5.252  14.431 -0.8224  1.4174  0.5993
16888TIP3   OH272078   6.224   3.674  17.307 -0.2116  0.5225 -0.5788
16888TIP3    H172079   6.235   3.751  17.363 -0.5261  0.6958 -0.7531
16888TIP3    H272080   6.286   3.687  17.235  0.7155 -0.0464  0.0909
16889TIP3   OH272081   1.114   2.332   0.787 -0.1966 -0.5224 -0.0320
16889TIP3    H172082   1.137   2.239   0.794  2.3259  0.0833  0.8419
16889TIP3    H272083   1.070   2.339   0.702  1.2199 -2.2352 -0.9855
16890TIP3   OH272084   2.173   3.856  13.333 -0.5167 -0.0471  0.4909
16890TIP3    H172085   2.149   3.841  13.424 -0.5955  1.5250  0.7546
16890TIP3    H272086   2.091   3.846  13.284 -0.9027  1.1376  0.8664
16891TIP3   OH272087   5.199   2.108   5.162  0.1276  0.2877  0.3517
16891TIP3    H172088   5.148   2.122   5.082 -1.2364  1.4114  1.3563
16891TIP3    H272089   5.151   2.040   5.209  0.8751 -0.3074  0.2714
16892TIP3   OH272090   6.716   0.221   1.781 -0.0261 -0.3259  0.7503
16892TIP3    H172091   6.725   0.130   1.753 -0.7437 -0.9988  2.5084
16892TIP3    H272092   6.806   0.251   1.795  0.3084 -0.1521 -1.5165
16893TIP3   OH272093   2.451   0.400   3.586  0.2954  0.5151  0.1503
16893TIP3    H172094   2.434   0.488   3.553 -1.7700  1.2465  2.8785
16893TIP3    H272095   2.373   0.350   3.564  1.7767 -0.9923 -2.1122
16894TIP3   OH272096   2.056   1.774  13.818  0.8907  0.1120  0.4781
16894TIP3    H172097   2.071   1.803  13.908  1.8326 -3.8084  1.7896
16894TIP3    H272098   1.994   1.701  13.827  0.7941 -0.1884 -2.0959
16895TIP3   OH272099   1.674   5.880   1.685 -0.2998  0.3587 -0.7387
16895TIP3    H172100   1.642   5.962   1.649  0.2952  1.0245  0.1892
16895TIP3    H272101   1.699   5.827   1.609  2.2748  2.2457 -1.3451
16896TIP3   OH272102   1.322   6.724  11.391 -0.1438  0.5521 -0.3833
16896TIP3    H172103   1.382   6.694  11.323 -0.3098  1.8236 -1.1290
16896TIP3    H272104   1.335   6.819  11.394 -3.1204  1.1050 -1.5807
16897TIP3   OH272105   2.700   3.848  12.229 -0.1602  0.7588  0.1810
16897TIP3    H172106   2.646   3.802  12.293 -0.0573  2.0092  1.1886
16897TIP3    H272107   2.664   3.821  12.144  1.6202 -3.3797  0.5041
16898TIP3   OH272108   6.713   1.942  12.735 -0.1982  0.2240  0.1028
16898TIP3    H172109   6.751   1.854  12.728 -0.2202  0.0978  1.3058
16898TIP3    H272110   6.635   1.939  12.679  0.5002 -0.1038 -0.8891
16899TIP3   OH272111   2.618   0.843   3.360  0.1830  0.2037 -0.1891
16899TIP3    H172112   2.642   0.751   3.349 -0.0812  0.1605 -0.4129
16899TIP3    H272113   2.688   0.892   3.316  0.9007  0.1528  0.8746
16900TIP3   OH272114   3.634   3.071   6.010 -0.3002 -0.0897 -0.2483
16900TIP3    H172115   3.581   3.151   6.015 -0.2437 -0.1119  0.8609
16900TIP3    H272116   3.600   3.015   6.079  1.1862 -0.0917  0.5192
16901TIP3   OH272117   2.445   6.309  16.854 -0.7066 -0.3071  0.1928
16901TIP3    H172118   2.422   6.394  16.891 -1.0549 -1.5377  3.1149
16901TIP3    H272119   2.407   6.246  16.915  1.3738 -2.5621 -0.6845
16902TIP3   OH272120   0.186   0.638  12.480  0.3736 -0.3285  0.6723
16902TIP3    H172121   0.103   0.687  12.479  0.1466 -0.6796 -1.0491
16902TIP3    H272122   0.253   0.705  12.495 -0.0445  0.3538 -0.3491
16903TIP3   OH272123   0.440   3.159   5.338 -0.6124  0.2895 -0.0615
16903TIP3    H172124   0.449   3.078   5.388 -2.1654  0.1665  0.0754
16903TIP3    H272125   0.417   3.225   5.404  1.0897  0.9825 -0.1029
16904TIP3   OH272126   3.769   6.684   3.992 -0.0582 -0.1003  0.3233
16904TIP3    H172127   3.807   6.642   3.915 -0.2184 -0.1130  0.2512
16904TIP3    H272128   3.746   6.612   4.051 -2.1881 -0.2883 -0.6277
16905TIP3   OH272129   4.747   6.232  15.425  0.0167 -0.3362 -0.3147
16905TIP3    H172130   4.722   6.191  15.341 -1.4694  1.0620 -0.6020
16905TIP3    H272131   4.838   6.259  15.412  0.3587 -1.6559 -0.8535
16906TIP3   OH272132   3.772   4.795   0.943 -0.5781 -0.3227  0.3840
16906TIP3    H172133   3.835   4.811   1.013  1.8826  1.0094 -1.9421
16906TIP3    H272134   3.709   4.866   0.951  0.2456  0.3957  0.6859
16907TIP3   OH272135   1.256   5.193  16.005  0.0180 -0.4439  0.2382
16907TIP3    H172136   1.308   5.220  15.929  0.3521 -0.6586  0.3863
16907TIP3    H272137   1.187   5.259  16.011 -0.7024 -1.0586 -0.9309
16908TIP3   OH272138   1.206   1.149  10.617 -0.3482 -0.0695  0.4249
16908TIP3    H172139   1.278   1.142  10.554  0.9147  2.2204  1.4904
16908TIP3    H272140   1.204   1.063  10.660  1.2186 -0.4670 -0.2199
16909TIP3   OH272141   1.815   1.564  15.884  0.1606 -0.3257 -0.6781
16909TIP3    H172142   1.905   1.592  15.901  0.8444 -2.1487 -1.0396
16909TIP3    H272143   1.770   1.576  15.968  1.2976 -1.3307  0.0998
16910TIP3   OH272144   1.842   5.759  14.770 -0.2027  0.0842  0.4270
16910TIP3    H172145   1.863   5.669  14.746  0.1557  0.5083 -0.9151
16910TIP3    H272146   1.769   5.750  14.832 -0.3018 -1.1210  0.1777
16911TIP3   OH272147   6.283   5.144   1.884 -0.8334  0.2675  0.2639
16911TIP3    H172148   6.218   5.168   1.818 -0.3228  1.2635  0.1045
16911TIP3    H272149   6.314   5.228   1.919  1.4735 -0.0942 -0.7284
16912TIP3   OH272150   5.072   1.879   5.291 -0.0519 -0.5308  0.4271
16912TIP3    H172151   5.057   1.809   5.228  2.6690 -2.4651  1.7369
16912TIP3    H272152   5.023   1.853   5.369  1.2246 -1.2282  1.0289
16913TIP3   OH272153   3.730   1.818   1.870  1.1385  0.3027 -0.1161
16913TIP3    H172154   3.786   1.741   1.863  1.0677 -0.2038  3.1817
16913TIP3    H272155   3.652   1.797   1.818  0.9657 -2.0782  0.9975
16914TIP3   OH272156   0.177   3.297   0.964 -0.2320 -0.5008  0.0940
16914TIP3    H172157   0.090   3.272   0.933 -1.4416  0.2291  2.5965
16914TIP3    H272158   0.200   3.374   0.912 -0.8797 -0.9394 -0.8693
16915TIP3   OH272159   3.890   5.896   0.202  0.4117 -0.2527 -0.1777
16915TIP3    H172160   3.900   5.970   0.143  1.4900  0.9350  1.4163
16915TIP3    H272161   3.819   5.844   0.163 -2.8205  3.3293  0.3113
16916TIP3   OH272162   2.529   3.288   1.781  0.6266  0.3138  0.9919
16916TIP3    H172163   2.439   3.295   1.812  0.8059 -0.2993  1.6678
16916TIP3    H272164   2.581   3.278   1.860  0.9896 -2.5017  0.4817
16917TIP3   OH272165   4.399   1.823  17.165  0.3029 -0.0648 -0.0685
16917TIP3    H172166   4.447   1.820  17.248 -0.0862 -0.5342  0.1456
16917TIP3    H272167   4.314   1.783  17.185  0.5689 -1.1051 -0.9259
16918TIP3   OH272168   3.888   2.828  16.252 -0.2727 -0.3114 -0.4515
16918TIP3    H172169   3.907   2.850  16.161 -0.1199 -1.4323 -0.7139
16918TIP3    H272170   3.913   2.736  16.259 -0.5117 -0.3005  0.6646
16919TIP3   OH272171   3.524   3.085  11.604 -0.1450  0.0785 -0.0086
16919TIP3    H172172   3.454   3.020  11.602  0.3918 -0.5612  1.0537
16919TIP3    H272173   3.517   3.124  11.691 -1.5102  2.6701 -1.1785
16920TIP3   OH272174   5.765   2.280   3.408 -0.0263 -0.0975  0.0886
16920TIP3    H172175   5.791   2.344   3.474 -2.8330 -0.1470  1.3780
16920TIP3    H272176   5.782   2.195   3.449 -0.9429 -0.1259  0.4412
16921TIP3   OH272177   3.191   3.848  11.046 -0.6021 -0.0387 -0.1091
16921TIP3    H172178   3.274   3.803  11.034 -1.2504 -1.0532 -0.9634
16921TIP3    H272179   3.161   3.868  10.957 -2.0559 -1.2203  0.0625
16922TIP3   OH272180   1.533   1.804  11.449  0.4388 -0.0475  0.0808
16922TIP3    H172181   1.616   1.805  11.401 -0.2055  1.3083 -1.0756
16922TIP3    H272182   1.521   1.894  11.479 -0.3975 -0.3306  0.6409
16923TIP3   OH272183   6.527   2.925   0.270  0.0435  0.8027  0.7117
16923TIP3    H172184   6.525   2.849   0.328 -1.0072  1.5767  1.7256
16923TIP3    H272185   6.533   3.000   0.329  2.3800  1.5110 -0.2879
16924TIP3   OH272186   5.009   1.331  16.677 -0.1763 -0.1595 -0.0144
16924TIP3    H172187   4.958   1.387  16.736  0.2150  2.2538 -1.7959
16924TIP3    H272188   5.092   1.318  16.723 -0.1677  1.0006  0.3408
16925TIP3   OH272189   6.405   6.068  15.404  0.4367 -0.3448 -0.3451
16925TIP3    H172190   6.436   6.008  15.471  2.6617  1.4415  0.3662
16925TIP3    H272191   6.337   6.020  15.357  1.1010 -2.8232  1.0959
16926TIP3   OH272192   5.504   0.975  13.562 -0.0024  0.2722 -0.4017
16926TIP3    H172193   5.585   0.984  13.611 -0.0569 -0.0675 -0.2486
16926TIP3    H272194   5.532   0.974  13.470  0.4939 -2.7211 -0.3214
16927TIP3   OH272195   3.027   2.421  11.083  0.8091 -0.1828  0.3537
16927TIP3    H172196   2.939   2.459  11.078  0.1810 -1.7193 -1.5481
16927TIP3    H272197   3.038   2.374  11.000  2.8442 -1.2919  1.1671
16928TIP3   OH272198   3.048   2.939  12.254 -0.0213 -0.4492  0.2111
16928TIP3    H172199   3.007   2.984  12.328 -0.9146  0.4994 -0.8378
16928TIP3    H272200   3.081   3.010  12.198  0.7209 -1.1556 -0.2677
16929TIP3   OH272201   3.641   5.266   0.018  0.1026  0.2849  0.6580
16929TIP3    H172202   3.695   5.259   0.097 -1.4337 -0.3330  1.7114
16929TIP3    H272203   3.554   5.238   0.047 -0.2108 -1.2881 -1.5945
16930TIP3   OH272204   4.502   4.979  12.724 -0.1863 -0.1244 -0.4554
16930TIP3    H172205   4.491   4.884  12.727 -1.3469 -0.0543 -1.6183
16930TIP3    H272206   4.596   4.992  12.735 -0.0675 -1.3663  0.2630
16931TIP3   OH272207   3.814   1.345   5.886  0.1474  0.8365  0.5871
16931TIP3    H172208   3.839   1.430   5.922  1.4474  0.8391 -0.2740
16931TIP3    H272209   3.885   1.286   5.911 -0.7022  0.0007  1.1090
16932TIP3   OH272210   2.174   2.456  16.878  0.0142 -0.2307  0.4074
16932TIP3    H172211   2.231   2.429  16.807 -1.1590 -1.5610 -0.0740
16932TIP3    H272212   2.114   2.519  16.837  0.6247  0.5742  0.7288
16933TIP3   OH272213   0.139   3.825   3.570 -0.7972 -0.1106  0.3574
16933TIP3    H172214   0.172   3.777   3.494 -0.1975 -1.6155  1.5229
16933TIP3    H272215   0.113   3.910   3.535  0.1508 -0.4952 -1.3951
16934TIP3   OH272216   2.631   2.124   3.696 -0.4778  0.2701  0.5494
16934TIP3    H172217   2.601   2.194   3.754 -0.2421  0.1087  0.8742
16934TIP3    H272218   2.632   2.163   3.609  0.1983  0.8455  0.8056
16935TIP3   OH272219   6.579   6.121  15.791  0.2614 -0.1692 -0.0854
16935TIP3    H172220   6.497   6.172  15.791  0.5377  0.2832  0.5681
16935TIP3    H272221   6.648   6.187  15.799  0.8186 -0.3810 -2.4175
16936TIP3   OH272222   3.497   5.546   4.722 -0.2080  0.1149  0.2161
16936TIP3    H172223   3.495   5.455   4.752  1.7495  0.1707  0.6900
16936TIP3    H272224   3.456   5.596   4.793  1.0538 -0.1541  1.1693
16937TIP3   OH272225   0.776   0.992   6.307 -0.1020 -0.4207  0.1026
16937TIP3    H172226   0.704   0.983   6.244  0.1604 -0.2850 -0.2197
16937TIP3    H272227   0.742   0.953   6.388 -0.9669  0.7106  0.3013
16938TIP3   OH272228   1.929   0.726  14.281  1.0440 -0.4143 -0.3741
16938TIP3    H172229   1.874   0.717  14.203 -0.6567 -0.3226  0.7635
16938TIP3    H272230   1.974   0.809  14.270 -1.3037  0.9829 -0.0279
16939TIP3   OH272231   0.514   4.274  17.045  0.0893  0.6881 -0.0880
16939TIP3    H172232   0.532   4.329  16.968  1.3956 -0.6718 -0.8062
16939TIP3    H272233   0.591   4.283  17.100 -0.6484  1.2992  0.8852
16940TIP3   OH272234   5.646   1.367   4.416  0.4481 -0.2327  0.1957
16940TIP3    H172235   5.688   1.284   4.395  1.4509 -0.8812  3.9331
16940TIP3    H272236   5.671   1.426   4.345  1.3354 -2.5982 -1.5602
16941TIP3   OH272237   2.285   4.777   3.121  0.1509 -0.1091 -0.1574
16941TIP3    H172238   2.273   4.683   3.107  0.1642 -0.0040 -0.9028
16941TIP3    H272239   2.330   4.783   3.205 -1.5472 -0.6781  0.8328
16942TIP3   OH272240   3.352   5.413  15.546 -0.3932 -0.1885 -0.3509
16942TIP3    H172241   3.372   5.445  15.634  1.0269 -0.9811 -0.3621
16942TIP3    H272242   3.369   5.489  15.489  2.1404 -0.6354 -0.2872
16943TIP3   OH272243   6.287   0.431  15.446  0.1871  0.0539 -0.0530
16943TIP3    H172244   6.210   0.436  15.503 -1.0018 -0.6356 -1.5043
16943TIP3    H272245   6.284   0.511  15.394  0.9211  0.4012  0.4327
16944TIP3   OH272246   1.330   5.261  12.436 -0.0707  0.0007  0.4369
16944TIP3    H172247   1.324   5.330  12.370  1.1150 -0.1268  0.1741
16944TIP3    H272248   1.266   5.196  12.408  0.7852 -0.2960 -0.9203
16945TIP3   OH272249   6.009   4.582  12.249 -0.0482 -0.5760  0.3634
16945TIP3    H172250   5.966   4.667  12.259 -0.5531 -0.9089  1.1879
16945TIP3    H272251   6.013   4.568  12.155 -0.1287  0.2782  0.2258
16946TIP3   OH272252   0.820   4.832  16.535 -0.5137 -0.0741 -0.4795
16946TIP3    H172253   0.736   4.819  16.491  0.4782 -1.2412 -2.1365
16946TIP3    H272254   0.820   4.925  16.560 -2.4465 -0.1555 -0.0432
16947TIP3   OH272255   6.661   2.044   1.886  0.0763 -0.4535 -0.1643
16947TIP3    H172256   6.574   2.059   1.923  0.1357 -1.8347  0.6263
16947TIP3    H272257   6.651   1.964   1.833  0.9692 -0.9683  0.4070
16948TIP3   OH272258   1.086   0.253   2.888  0.0638 -0.7821  0.3045
16948TIP3    H172259   1.134   0.240   2.805 -0.1161 -0.2496  0.1111
16948TIP3    H272260   1.003   0.206   2.875 -1.2435  1.6854 -0.9808
16949TIP3   OH272261   0.350   1.142  11.400 -0.3834 -0.3056  0.0455
16949TIP3    H172262   0.396   1.081  11.343  0.1541 -1.5640  1.7364
16949TIP3    H272263   0.406   1.219  11.404  0.4696 -0.9262  0.2883
16950TIP3   OH272264   3.521   5.279   4.791 -0.1444 -0.0353  0.3360
16950TIP3    H172265   3.604   5.262   4.747 -0.1234  0.6411  0.1008
16950TIP3    H272266   3.532   5.244   4.879  0.2429 -0.3130  0.1784
16951TIP3   OH272267   5.039   0.661  12.341  0.5487  0.2002 -0.6106
16951TIP3    H172268   5.093   0.600  12.291  0.0652 -0.0413 -0.8491
16951TIP3    H272269   5.099   0.730  12.368  1.1614 -0.5084 -0.1153
16952TIP3   OH272270   5.960   2.658  12.453 -0.1291  0.0864  0.6794
16952TIP3    H172271   5.999   2.678  12.367  0.2302 -0.4303  0.7180
16952TIP3    H272272   5.898   2.587  12.434  0.8958 -0.9329  1.0503
16953TIP3   OH272273   0.013   6.339   3.060  0.6396  0.2647  0.4067
16953TIP3    H172274  -0.045   6.269   3.089  1.3330 -0.0705  1.0144
16953TIP3    H272275  -0.044   6.399   3.012 -0.2989  0.2159  1.4231
16954TIP3   OH272276   0.744   6.100   2.333  0.2566 -0.3478 -0.2410
16954TIP3    H172277   0.738   6.053   2.251 -1.0200 -0.4544 -0.1076
16954TIP3    H272278   0.653   6.119   2.357  0.6290  0.1365  0.8772
16955TIP3   OH272279   5.802   5.718   6.622  0.3396 -0.3031  0.4395
16955TIP3    H172280   5.893   5.705   6.594  0.0073  0.8834 -1.3765
16955TIP3    H272281   5.750   5.671   6.556 -0.4093 -0.4870  1.1349
16956TIP3   OH272282   1.015   0.813   0.112 -0.3007  0.2383 -0.5575
16956TIP3    H172283   1.107   0.787   0.106  0.0239  1.2961 -0.4755
16956TIP3    H272284   1.005   0.881   0.046 -0.9046  0.4381 -0.2678
16957TIP3   OH272285   0.696   5.623  15.665 -0.1992  0.3361 -0.3768
16957TIP3    H172286   0.757   5.575  15.610 -0.2032  1.5872 -1.5124
16957TIP3    H272287   0.612   5.580  15.651 -0.5955  1.7514 -2.8606
16958TIP3   OH272288   0.008   0.038   5.563  0.4640  0.8506  0.5181
16958TIP3    H172289  -0.066  -0.018   5.587 -0.7304  1.9544 -0.5104
16958TIP3    H272290  -0.020   0.126   5.585  0.6478  1.5283 -1.7358
16959TIP3   OH272291   6.218   2.719   1.819  0.1085  0.4545  0.3285
16959TIP3    H172292   6.216   2.765   1.903  1.0556 -0.6576  0.9943
16959TIP3    H272293   6.266   2.778   1.761 -0.1304  1.0188  0.6962
16960TIP3   OH272294   0.703   3.621   1.252  0.9072  0.5168  0.1278
16960TIP3    H172295   0.652   3.682   1.198  1.1892  0.5747 -0.0733
16960TIP3    H272296   0.762   3.678   1.302  0.7900  0.4473  0.3485
16961TIP3   OH272297   1.807   5.809   4.160  0.3979 -0.5060 -0.0381
16961TIP3    H172298   1.854   5.882   4.201 -1.2696  2.0571 -2.2864
16961TIP3    H272299   1.718   5.816   4.193  0.0954 -1.2260 -0.6651
16962TIP3   OH272300   3.975   1.309  13.975 -0.4117  0.5902  0.0564
16962TIP3    H172301   3.977   1.339  14.066  1.6040 -0.5812  0.4509
16962TIP3    H272302   3.982   1.389  13.923  1.3404  1.1041  1.0026
16963TIP3   OH272303   5.355   5.065  13.919  0.2980  0.0232 -0.2552
16963TIP3    H172304   5.423   4.997  13.916  0.1259 -0.1170 -2.1142
16963TIP3    H272305   5.345   5.092  13.828 -0.0240  2.1831  0.3784
16964TIP3   OH272306   4.488   2.490  13.028 -0.5417 -0.0009  0.1134
16964TIP3    H172307   4.511   2.426  13.096 -0.5702  1.3189  1.4197
16964TIP3    H272308   4.568   2.502  12.978 -0.5258 -1.0041 -0.1347
16965TIP3   OH272309   0.469   4.153  12.693 -0.3054 -0.9369  0.1357
16965TIP3    H172310   0.496   4.125  12.605  2.9233 -1.0900  1.0680
16965TIP3    H272311   0.411   4.084  12.723 -0.0673 -1.7756 -1.2242
16966TIP3   OH272312   1.499   5.037   3.490  0.0781 -0.3108 -0.8542
16966TIP3    H172313   1.586   4.998   3.484  0.8975  1.4949 -1.5387
16966TIP3    H272314   1.515   5.128   3.513 -1.5874  0.2782 -1.8595
16967TIP3   OH272315   2.088   5.051  14.421 -0.4908 -0.2030  0.9182
16967TIP3    H172316   2.071   4.957  14.410 -1.9256  0.0227  0.9595
16967TIP3    H272317   2.159   5.055  14.485  0.3658 -1.2767  0.0899
16968TIP3   OH272318   3.519   5.346  14.568  0.3996 -0.3699  0.0925
16968TIP3    H172319   3.484   5.287  14.635 -1.2618  0.6842  0.2048
16968TIP3    H272320   3.472   5.428  14.581  0.0917 -0.0889 -2.3123
16969TIP3   OH272321   3.216   2.309   6.172 -0.2453 -0.0427 -0.0408
16969TIP3    H172322   3.124   2.330   6.189 -0.7078 -0.2760 -1.9940
16969TIP3    H272323   3.215   2.261   6.090  1.7097  0.6609 -0.5427
16970TIP3   OH272324   0.107   6.632   4.173 -0.3268 -0.7422 -0.1797
16970TIP3    H172325   0.165   6.556   4.171  0.2958 -0.2727 -1.7519
16970TIP3    H272326   0.158   6.701   4.214 -1.0218 -1.2134  1.5959
16971TIP3   OH272327   6.279   3.294  14.931 -0.4486 -0.4150 -0.3821
16971TIP3    H172328   6.217   3.367  14.930  0.5319  0.4368 -1.2479
16971TIP3    H272329   6.328   3.303  14.850 -0.0560 -1.8412 -0.3318
16972TIP3   OH272330   3.207   1.646  13.220  0.4894 -0.2531 -0.2297
16972TIP3    H172331   3.215   1.638  13.124 -0.6498 -0.2388 -0.3389
16972TIP3    H272332   3.296   1.668  13.249  0.3385  2.5923 -1.5686
16973TIP3   OH272333   5.161   6.591   5.772 -0.2647  0.2069 -0.1288
16973TIP3    H172334   5.239   6.537   5.781  0.2211  1.1492  1.8703
16973TIP3    H272335   5.122   6.592   5.860 -3.0125 -0.8896 -1.2027
16974TIP3   OH272336   4.709   2.825  15.701  0.2237  0.1201 -0.5639
16974TIP3    H172337   4.648   2.805  15.631  1.5289 -1.3984 -1.3283
16974TIP3    H272338   4.673   2.781  15.778  0.2359 -0.6147 -0.9660
16975TIP3   OH272339   0.991   1.498   2.338  0.9045  0.2897  0.1690
16975TIP3    H172340   1.001   1.593   2.330 -0.9768  0.4786 -0.4382
16975TIP3    H272341   0.983   1.482   2.432 -0.0440  0.9009  0.2023
16976TIP3   OH272342   4.283   2.569   5.633  0.0888 -0.1388  0.3418
16976TIP3    H172343   4.377   2.584   5.641  0.0204  0.6653 -0.1701
16976TIP3    H272344   4.270   2.546   5.541 -0.4261  1.6339 -0.0646
16977TIP3   OH272345   2.356   4.335   2.260  0.0627  0.6120  0.0971
16977TIP3    H172346   2.408   4.361   2.336  1.7342 -0.1732 -0.7412
16977TIP3    H272347   2.325   4.247   2.281  0.7416  0.2895 -0.2069
16978TIP3   OH272348   4.538   3.003  12.791  0.4762 -0.3283 -0.3959
16978TIP3    H172349   4.458   2.952  12.788  0.0857  0.2796 -2.8035
16978TIP3    H272350   4.536   3.056  12.711  2.5409  0.8467  0.2333
16979TIP3   OH272351   2.267   6.450  16.668  0.2686  0.4445  0.2950
16979TIP3    H172352   2.184   6.425  16.628  0.6994  1.7895 -1.5354
16979TIP3    H272353   2.305   6.367  16.697 -1.3143 -0.2747  0.4467
16980TIP3   OH272354   0.634   0.193  12.773 -0.0105 -0.3037  0.3873
16980TIP3    H172355   0.626   0.163  12.864  0.6767 -1.1029  0.1960
16980TIP3    H272356   0.720   0.163  12.745 -0.8617 -1.5013 -1.0594
16981TIP3   OH272357   2.108   6.703   3.157 -0.1067  0.5383 -0.7406
16981TIP3    H172358   2.098   6.733   3.247 -0.5353  0.3074 -0.7085
16981TIP3    H272359   2.180   6.640   3.160 -2.5103 -2.4017  0.1901
16982TIP3   OH272360   0.060   5.957   0.778  0.0750  0.1000 -0.1847
16982TIP3    H172361  -0.009   5.932   0.717 -1.6663  0.7652  1.4255
16982TIP3    H272362   0.139   5.962   0.724 -1.3528  0.5661 -2.3477
16983TIP3   OH272363   2.275   5.213   4.693 -0.0071 -0.3067 -0.2533
16983TIP3    H172364   2.326   5.177   4.621  1.1394 -0.6251  0.6725
16983TIP3    H272365   2.300   5.305   4.696  0.1214 -0.3443 -0.1324
16984TIP3   OH272366   2.079   6.566   0.934  0.4119  0.0084  0.0200
16984TIP3    H172367   2.035   6.546   1.017  0.6909 -0.1469  0.1304
16984TIP3    H272368   2.007   6.580   0.872  0.1558  1.3738  0.5675
16985TIP3   OH272369   4.264   6.444  13.834  0.5999  0.0345 -0.3282
16985TIP3    H172370   4.191   6.450  13.772  1.5044  1.2667 -1.3093
16985TIP3    H272371   4.325   6.383  13.793 -0.8205 -2.9322  1.5813
16986TIP3   OH272372   2.872   2.157   3.295  0.0110  0.4351 -0.5199
16986TIP3    H172373   2.909   2.229   3.346 -1.1601  0.9524 -0.3682
16986TIP3    H272374   2.842   2.094   3.361 -0.4069  0.5523 -0.5913
16987TIP3   OH272375   1.802   6.024  17.219  0.2766 -0.5101  0.7796
16987TIP3    H172376   1.828   6.095  17.160  1.7846 -0.6250  1.2668
16987TIP3    H272377   1.794   5.947  17.162  0.4300 -0.3397  0.5233
16988TIP3   OH272378   4.480   5.520  14.688 -0.1594  0.2217 -0.4673
16988TIP3    H172379   4.522   5.467  14.756  0.2397  0.9729 -0.1222
16988TIP3    H272380   4.550   5.572  14.650 -0.3002 -0.4827 -1.7563
16989TIP3   OH272381   2.213   3.585   4.142  0.6753 -0.0748  0.4628
16989TIP3    H172382   2.297   3.627   4.161  0.5528  0.0155  0.8171
16989TIP3    H272383   2.181   3.629   4.063  1.0163 -0.1908  0.2609
16990TIP3   OH272384   1.951   1.965   1.969  0.4602  0.1860 -0.2443
16990TIP3    H172385   1.961   1.919   2.052  0.0351 -0.4469 -0.5399
16990TIP3    H272386   1.918   1.899   1.908 -0.1605  0.8737 -0.6734
16991TIP3   OH272387   2.219   6.315   0.778  1.0267 -0.3197 -0.4065
16991TIP3    H172388   2.243   6.360   0.697 -3.4721  1.4214 -1.0411
16991TIP3    H272389   2.192   6.385   0.837  1.9172 -1.7385  1.8305
16992TIP3   OH272390   2.775   6.119   4.080 -0.1609 -0.1706 -0.0162
16992TIP3    H172391   2.714   6.103   4.152  0.9812  0.5180  1.1559
16992TIP3    H272392   2.768   6.041   4.024 -1.1021 -0.7036  0.8225
16993TIP3   OH272393   5.150   0.292  13.294 -0.0000 -0.0497  0.0862
16993TIP3    H172394   5.205   0.370  13.284  0.8983 -0.8986 -2.1141
16993TIP3    H272395   5.133   0.287  13.388  3.4974  0.3910  0.8839
16994TIP3   OH272396   5.837   2.172  11.168 -0.4840  0.3131 -0.3666
16994TIP3    H172397   5.837   2.260  11.205  2.2214  0.7992 -1.2711
16994TIP3    H272398   5.858   2.185  11.075 -0.9378 -1.2416 -0.7225
16995TIP3   OH272399   0.279   5.103   5.550  0.3987 -0.6062  0.0877
16995TIP3    H172400   0.253   5.188   5.514 -1.1978 -0.4222  1.5241
16995TIP3    H272401   0.370   5.092   5.522  0.6559  1.5724 -0.1418
16996TIP3   OH272402   1.171   3.541   1.954  0.9797  0.1128  0.0169
16996TIP3    H172403   1.119   3.487   1.894  0.4858  0.8945 -0.2681
16996TIP3    H272404   1.109   3.571   2.020  0.9694  1.3178 -0.5083
16997TIP3   OH272405   5.951   2.729  13.657  0.0991 -0.2165  0.9492
16997TIP3    H172406   5.886   2.798  13.664 -0.8551 -1.1253  1.2364
16997TIP3    H272407   5.965   2.718  13.563 -0.5072 -0.3215  0.8672
16998TIP3   OH272408   3.055   4.273  13.151  0.3041  0.1181  0.3255
16998TIP3    H172409   3.138   4.243  13.189  0.7587 -1.1708 -1.5330
16998TIP3    H272410   3.078   4.301  13.063 -1.0916  0.7159  0.1318
16999TIP3   OH272411   0.494   5.931   6.384  0.4499  0.0125  0.8887
16999TIP3    H172412   0.560   5.985   6.340  2.4474 -1.4124  1.9974
16999TIP3    H272413   0.411   5.977   6.368  1.2562  0.4729 -2.8652
17000TIP3   OH272414   3.636   0.452  16.439 -0.2175 -0.2617  0.3502
17000TIP3    H172415   3.547   0.424  16.457 -0.7852  0.6953 -0.8480
17000TIP3    H272416   3.691   0.381  16.473 -1.3766 -0.5392  1.7352
17001TIP3   OH272417   5.665   4.180  11.690 -0.4050 -0.2924 -0.8235
17001TIP3    H172418   5.694   4.089  11.687 -0.7656 -0.4627  0.3761
17001TIP3    H272419   5.746   4.232  11.688 -0.0515 -0.7145  0.8130
17002TIP3   OH272420   5.488   3.047  16.722 -0.0094  0.3285  0.0820
17002TIP3    H172421   5.444   3.005  16.796  0.7920 -0.8876 -0.0954
17002TIP3    H272422   5.430   3.119  16.697 -1.2052 -0.3785  0.7272
17003TIP3   OH272423   1.827   3.624   2.039  0.7180  0.0846  0.0876
17003TIP3    H172424   1.829   3.577   1.956 -2.4108  1.7464 -1.1185
17003TIP3    H272425   1.823   3.716   2.015 -0.8552  0.6058  1.9859
17004TIP3   OH272426   2.304   1.416   3.540 -0.3432  0.0693 -0.0061
17004TIP3    H172427   2.210   1.422   3.522 -0.5285 -0.4605  0.7603
17004TIP3    H272428   2.314   1.448   3.629  0.0920 -0.6544  0.2140
17005TIP3   OH272429   4.275   5.909   4.133  0.0554 -0.4258 -0.1206
17005TIP3    H172430   4.232   5.966   4.069  1.3713  0.9182  0.1658
17005TIP3    H272431   4.299   5.967   4.205 -0.3918 -1.7214  1.1126
17006TIP3   OH272432   2.037   2.722   5.355  0.4677  0.5629 -0.6788
17006TIP3    H172433   2.012   2.809   5.324 -1.4058  1.2615  2.3143
17006TIP3    H272434   2.119   2.736   5.403 -0.1659  0.8877  0.3568
17007TIP3   OH272435   3.346   5.467   1.427  0.4567 -0.1937 -0.3564
17007TIP3    H172436   3.327   5.435   1.339  0.2363 -0.6785 -0.1378
17007TIP3    H272437   3.437   5.494   1.423  0.0724  1.0799 -1.1043
17008TIP3   OH272438   6.291   3.218  14.378 -0.1839  0.1649 -0.2686
17008TIP3    H172439   6.305   3.301  14.333 -1.6876 -0.1272 -1.3747
17008TIP3    H272440   6.362   3.212  14.441  0.5396  1.8012 -0.8773
17009TIP3   OH272441   1.279   3.413  16.313 -0.4875 -0.1521 -0.7588
17009TIP3    H172442   1.203   3.470  16.313 -0.1247  0.3483 -1.4363
17009TIP3    H272443   1.281   3.375  16.401 -1.1441  0.3145 -0.5344
17010TIP3   OH272444   2.844   3.697   1.423 -0.2024 -0.4988 -0.0090
17010TIP3    H172445   2.815   3.738   1.341  1.6023 -1.0836 -0.9850
17010TIP3    H272446   2.860   3.771   1.482  1.1308  0.1280 -1.1034
17011TIP3   OH272447   6.631   0.192  12.342  0.3399 -0.5918 -0.3114
17011TIP3    H172448   6.564   0.134  12.306  0.6903 -0.1484 -1.7305
17011TIP3    H272449   6.713   0.158  12.307  0.6761 -0.0444 -0.0618
17012TIP3   OH272450   4.955   3.896   2.662 -0.1934 -0.2980  0.1777
17012TIP3    H172451   4.884   3.899   2.598 -0.0928 -0.1391  0.0724
17012TIP3    H272452   4.985   3.987   2.668 -0.9746 -0.1009  1.3291
17013TIP3   OH272453   4.913   5.180  11.704 -0.5781 -0.0502 -0.7113
17013TIP3    H172454   4.993   5.128  11.699 -1.1390 -1.9262  4.2295
17013TIP3    H272455   4.851   5.135  11.648  1.0395 -0.0266 -2.6255
17014TIP3   OH272456   2.056   0.201  16.002 -0.9229 -0.2312 -0.2910
17014TIP3    H172457   2.081   0.239  16.086 -1.1935 -0.4079 -0.1291
17014TIP3    H272458   2.078   0.108  16.009 -0.8204 -0.2219 -0.4670
17015TIP3   OH272459   5.526   0.360   4.900  0.7566 -0.6777  0.2733
17015TIP3    H172460   5.462   0.327   4.962 -0.4108  1.7733  0.5021
17015TIP3    H272461   5.610   0.353   4.947 -0.0706  0.9975  2.1756
17016TIP3   OH272462   5.803   5.016  17.132 -0.3957  0.1739  0.2197
17016TIP3    H172463   5.806   4.953  17.204  0.5911 -0.7336 -0.5845
17016TIP3    H272464   5.739   4.979  17.071 -0.4691  0.4123  0.1517
17017TIP3   OH272465   6.554   3.081  13.676  0.2792  0.1197  0.0367
17017TIP3    H172466   6.615   3.143  13.637  2.5079 -1.2983  1.0429
17017TIP3    H272467   6.494   3.058  13.605  0.5141  2.0185 -0.8228
17018TIP3   OH272468   5.401   1.034   4.326  0.1314  0.0948  0.3789
17018TIP3    H172469   5.382   0.987   4.407  0.7666 -1.8936 -0.5503
17018TIP3    H272470   5.482   0.995   4.294 -0.2532  0.6157 -1.3552
17019TIP3   OH272471   1.826   5.502   5.526 -0.2266 -0.6906 -0.0258
17019TIP3    H172472   1.916   5.472   5.537 -0.1808 -0.3649  0.5382
17019TIP3    H272473   1.777   5.423   5.502  0.6874 -0.3852 -3.3189
17020TIP3   OH272474   2.368   2.462  16.687 -0.0222 -0.2661  0.1996
17020TIP3    H172475   2.460   2.485  16.673  0.1782 -0.0107  1.7484
17020TIP3    H272476   2.350   2.395  16.621  1.6049 -1.1347  0.5795
17021TIP3   OH272477   2.215   0.132   0.429 -0.2751  0.0423 -0.3437
17021TIP3    H172478   2.299   0.088   0.418  0.2904  0.9332  0.2478
17021TIP3    H272479   2.238   0.220   0.460 -1.2263  1.4903 -3.3156
17022TIP3   OH272480   2.523   6.543   6.342 -0.3001 -0.1801  0.0456
17022TIP3    H172481   2.561   6.566   6.258 -0.3781 -1.4374 -0.3525
17022TIP3    H272482   2.437   6.506   6.321 -1.1386  1.2360  0.8194
17023TIP3   OH272483   6.011   1.986   2.538 -0.2316 -0.0365  0.7787
17023TIP3    H172484   6.006   1.998   2.443 -1.3373  3.6188  1.1547
17023TIP3    H272485   6.090   1.933   2.551  0.0231 -0.5607 -2.1223
17024TIP3   OH272486   2.526   2.900   4.529  0.2326 -0.5219  0.2374
17024TIP3    H172487   2.478   2.820   4.507  0.0328 -0.5612  0.7837
17024TIP3    H272488   2.458   2.963   4.554  0.4029 -0.2584  0.0402
17025TIP3   OH272489   4.102   4.176   3.002 -0.1106  0.4464 -0.3967
17025TIP3    H172490   4.082   4.261   2.963  1.6077  0.9852 -0.2245
17025TIP3    H272491   4.143   4.126   2.931 -1.8002 -0.5588 -0.7123
17026TIP3   OH272492   2.059   0.468  14.965  0.4741  0.3261 -0.2811
17026TIP3    H172493   2.097   0.451  15.051 -1.3714  1.6357  0.8750
17026TIP3    H272494   2.108   0.544  14.932  0.2910  0.6691  0.2310
17027TIP3   OH272495   3.754   3.725  15.624  0.0850 -0.2251 -0.3032
17027TIP3    H172496   3.783   3.757  15.709  0.2349 -0.0190 -0.4328
17027TIP3    H272497   3.679   3.780  15.602  0.8513  0.5895 -0.9077
17028TIP3   OH272498   2.555   4.713  15.356 -0.2995 -0.7267 -0.0487
17028TIP3    H172499   2.518   4.801  15.347 -0.1880 -0.7693 -1.0258
17028TIP3    H272500   2.601   4.715  15.440 -0.1837  0.1917 -0.1178
17029TIP3   OH272501   0.713   2.679  16.520 -0.4133  0.2080 -0.2357
17029TIP3    H172502   0.660   2.666  16.442  0.1677 -0.9258 -0.4671
17029TIP3    H272503   0.690   2.605  16.577 -0.0230  0.4134  0.1946
17030TIP3   OH272504   5.340   6.605  12.747  0.7795  0.4337  0.0902
17030TIP3    H172505   5.408   6.656  12.704 -0.9185  1.6758 -1.2648
17030TIP3    H272506   5.330   6.528  12.691 -0.9078  1.6880 -1.4625
17031TIP3   OH272507   5.979   4.975  13.240  0.0646  0.9011  0.0043
17031TIP3    H172508   5.930   5.031  13.299  1.6796  2.0545  0.3064
17031TIP3    H272509   6.004   4.900  13.294  1.0844  1.6986  0.6701
17032TIP3   OH272510   2.892   0.222   5.454 -0.4525  0.0033 -0.0619
17032TIP3    H172511   2.807   0.242   5.415 -0.8813 -0.7561  0.4556
17032TIP3    H272512   2.882   0.246   5.546 -1.8511 -4.6680  1.2496
17033TIP3   OH272513   4.797   5.581   6.698  0.6871  0.1128 -0.0948
17033TIP3    H172514   4.722   5.522   6.700 -0.4818  1.5665  0.3591
17033TIP3    H272515   4.852   5.547   6.628  0.2579 -1.7274  0.3899
17034TIP3   OH272516   3.537   0.573   6.137 -0.1042  0.3819 -0.2181
17034TIP3    H172517   3.500   0.614   6.215  2.7207  1.4972  0.6522
17034TIP3    H272518   3.529   0.479   6.153 -0.7808  0.6008  0.7859
17035TIP3   OH272519   4.494   5.670  16.834  0.6176 -0.0554 -0.0903
17035TIP3    H172520   4.432   5.702  16.899  0.3511  0.1494 -0.4368
17035TIP3    H272521   4.533   5.748  16.797  1.0403 -0.1845  0.0840
17036TIP3   OH272522   1.331   2.235   1.381 -0.1493 -0.2415 -0.1323
17036TIP3    H172523   1.238   2.215   1.387 -0.0849 -0.3305  0.6473
17036TIP3    H272524   1.342   2.270   1.293 -1.1522  1.0132  0.2191
17037TIP3   OH272525   1.790   3.683   0.562  0.2502 -0.4111 -0.3126
17037TIP3    H172526   1.707   3.636   0.549 -0.2840  0.3712  0.1652
17037TIP3    H272527   1.857   3.621   0.533 -0.5558 -0.6333 -1.8369
17038TIP3   OH272528   5.901   0.004  13.489 -0.2371 -0.2959 -0.4492
17038TIP3    H172529   5.882   0.089  13.449 -1.3622 -0.0935  0.4406
17038TIP3    H272530   5.980   0.019  13.541 -0.3441  0.1795 -0.4174
17039TIP3   OH272531   5.365   4.142   5.823  0.3996 -0.1929  0.1548
17039TIP3    H172532   5.317   4.079   5.769  1.7871 -1.2154  0.0604
17039TIP3    H272533   5.297   4.193   5.867 -0.7810 -2.1101  0.6522
17040TIP3   OH272534   2.567   2.110   1.373  0.4122 -0.0333  0.2094
17040TIP3    H172535   2.590   2.152   1.290 -0.6246  2.1225  0.9352
17040TIP3    H272536   2.550   2.183   1.433  0.3730 -1.5301  2.1108
17041TIP3   OH272537   4.841   1.551  12.431  0.1065 -0.1782  0.1428
17041TIP3    H172538   4.857   1.519  12.520 -0.0897 -0.9022 -0.0769
17041TIP3    H272539   4.748   1.535  12.415  0.1564 -0.1270 -0.2198
17042TIP3   OH272540   5.194   2.890   2.622  0.1749  0.6992 -0.3098
17042TIP3    H172541   5.246   2.969   2.611  2.3157 -0.5731  0.0583
17042TIP3    H272542   5.215   2.837   2.545  1.4379 -0.8787  1.0618
17043TIP3   OH272543   4.890   0.311  11.907 -0.1464 -0.1784  0.2108
17043TIP3    H172544   4.888   0.384  11.844  0.3758 -0.1599  0.2100
17043TIP3    H272545   4.882   0.354  11.992 -0.0932 -0.1404  0.1977
17044TIP3   OH272546   5.528   4.684  13.102  0.5216 -0.2114  0.8564
17044TIP3    H172547   5.576   4.631  13.037 -0.5299  0.3131 -0.4045
17044TIP3    H272548   5.580   4.763  13.112  0.5556 -0.1800  0.4417
17045TIP3   OH272549   2.756   2.211  17.047  0.4696 -0.5672  0.0087
17045TIP3    H172550   2.834   2.230  16.995 -0.3249  0.1151 -0.9893
17045TIP3    H272551   2.724   2.127  17.012  0.3172 -0.4514 -0.1303
17046TIP3   OH272552   1.740   1.100  14.007 -0.1118  0.2081  0.2627
17046TIP3    H172553   1.700   1.013  14.016 -0.6365  0.5116  0.9175
17046TIP3    H272554   1.682   1.147  13.947  0.4583 -0.0606 -0.5051
17047TIP3   OH272555   1.038   1.546  17.255  0.3141  0.1968 -0.4004
17047TIP3    H172556   1.120   1.542  17.304 -0.2919  1.1681  0.7599
17047TIP3    H272557   1.057   1.602  17.180  1.1012 -0.8229 -0.9738
17048TIP3   OH272558   3.253   3.311   2.908  0.1764  0.7633 -0.1839
17048TIP3    H172559   3.342   3.345   2.904 -0.2171  1.7469 -0.9058
17048TIP3    H272560   3.248   3.266   2.993  1.1420  1.2955  0.1674
17049TIP3   OH272561   5.676   1.018  15.236 -0.0451 -0.0538  0.2356
17049TIP3    H172562   5.675   1.076  15.160 -2.5544 -0.0989  0.1376
17049TIP3    H272563   5.768   1.010  15.260  0.6741  1.1154 -1.9107
17050TIP3   OH272564   2.728   5.924  15.599  0.6951  0.1802  0.1307
17050TIP3    H172565   2.789   5.903  15.528  1.5138 -2.1019  1.4149
17050TIP3    H272566   2.667   5.850  15.601  0.2356  0.5725  1.3271
17051TIP3   OH272567   3.887   6.402   4.506 -0.6281  0.1235 -0.3268
17051TIP3    H172568   3.954   6.374   4.444 -0.0526  1.5667 -0.3938
17051TIP3    H272569   3.862   6.322   4.552  0.5407 -0.5842 -0.8867
17052TIP3   OH272570   2.676   4.952  14.214  0.2181 -0.5284  0.7507
17052TIP3    H172571   2.715   4.973  14.298 -0.5172  2.6061  0.4039
17052TIP3    H272572   2.585   4.980  14.221  0.3107  0.4465 -1.2821
17053TIP3   OH272573   5.954   0.866   3.279 -0.2477 -0.1436 -0.7075
17053TIP3    H172574   5.890   0.811   3.323 -2.0063  1.2096 -1.4130
17053TIP3    H272575   5.938   0.851   3.186  3.4494 -3.0184 -1.1152
17054TIP3   OH272576   4.427   1.873   5.072  0.2208 -0.1641  0.0282
17054TIP3    H172577   4.521   1.886   5.059  0.0165  0.6292 -0.7681
17054TIP3    H272578   4.405   1.801   5.013  0.3605 -0.4978  0.3775
17055TIP3   OH272579   2.553   3.149  17.115 -0.5546  0.4169 -0.6644
17055TIP3    H172580   2.587   3.103  17.038  0.5157  0.9610 -0.5403
17055TIP3    H272581   2.558   3.242  17.092  3.2686  0.8873  1.2893
17056TIP3   OH272582   4.831   2.811   4.132  0.2180  0.4490  0.0685
17056TIP3    H172583   4.781   2.768   4.063 -1.3777  2.5948 -0.2188
17056TIP3    H272584   4.788   2.896   4.144  0.7497  0.4094  3.3286
17057TIP3   OH272585   4.046   3.029   0.198  0.3424  0.0897  0.1726
17057TIP3    H172586   4.106   2.976   0.145  2.4821  1.7116  0.8580
17057TIP3    H272587   4.008   3.091   0.136  0.0394 -0.3560 -0.0962
17058TIP3   OH272588   3.566   3.506  13.542 -0.2378 -0.0771  0.4442
17058TIP3    H172589   3.557   3.571  13.472  0.6739 -1.9715 -1.5380
17058TIP3    H272590   3.608   3.431  13.500  2.7480 -0.4037  3.5753
17059TIP3   OH272591   0.423   3.287  16.373  0.1243 -0.6448 -0.0125
17059TIP3    H172592   0.502   3.243  16.343  0.1268 -1.6925  1.4683
17059TIP3    H272593   0.357   3.266  16.307  0.8607 -0.4261 -0.8336
17060TIP3   OH272594   0.979   3.063  13.042  0.4115  0.7044  0.3971
17060TIP3    H172595   0.948   2.972  13.042  2.1962 -0.0016  2.2214
17060TIP3    H272596   1.001   3.081  12.951  2.3682 -1.6206  0.3153
17061TIP3   OH272597   1.887   2.310  13.584  0.2921 -0.3762 -0.2263
17061TIP3    H172598   1.958   2.374  13.574 -1.5723  1.6749 -1.1857
17061TIP3    H272599   1.863   2.316  13.676  0.4063  0.0326 -0.2179
17062TIP3   OH272600   4.891   4.589   5.194  0.4781  0.5409  0.4873
17062TIP3    H172601   4.958   4.528   5.224 -0.0289 -0.2279  0.1102
17062TIP3    H272602   4.862   4.634   5.273 -0.0473 -0.6429  0.9885
17063TIP3   OH272603   2.480   1.750  12.006  0.3260  0.7895  0.5220
17063TIP3    H172604   2.527   1.832  12.023  3.1487 -0.2147 -1.6469
17063TIP3    H272605   2.403   1.777  11.955 -0.2016  2.2761  2.0307
17064TIP3   OH272606   0.745   4.069  12.818  0.3208 -0.0976  0.3960
17064TIP3    H172607   0.659   4.081  12.777  0.5048 -1.0777 -0.3417
17064TIP3    H272608   0.793   4.015  12.755  0.6135 -1.7038  1.9215
17065TIP3   OH272609   3.368   0.756  15.246  0.2128 -0.0208  0.9699
17065TIP3    H172610   3.313   0.812  15.300  0.4672  0.6846  0.5050
17065TIP3    H272611   3.333   0.668  15.261 -1.1802  0.4300  0.5378
17066TIP3   OH272612   4.543   2.422  15.936  1.0561 -0.2663 -0.5693
17066TIP3    H172613   4.485   2.365  15.987  1.0297  0.5727  0.3625
17066TIP3    H272614   4.498   2.434  15.853 -0.5208  1.0169  0.4153
17067TIP3   OH272615   2.038   6.259   5.324  0.2978  0.1338  0.4616
17067TIP3    H172616   2.067   6.265   5.415 -0.6687  1.0825  0.7386
17067TIP3    H272617   2.107   6.302   5.274  1.7058 -1.9372  0.4959
17068TIP3   OH272618   0.784   0.996   1.719  0.3929 -0.1567  0.2608
17068TIP3    H172619   0.737   1.027   1.797 -0.0779 -2.1809  0.8459
17068TIP3    H272620   0.756   0.905   1.709  1.5537 -0.3670 -1.4480
17069TIP3   OH272621   2.319   1.185  13.162 -0.2538  0.5125  0.4409
17069TIP3    H172622   2.302   1.271  13.201 -1.9449 -0.5970  2.3572
17069TIP3    H272623   2.265   1.184  13.083 -0.0762  1.2701  0.2983
17070TIP3   OH272624   1.338   1.366  12.886  0.1301 -0.2979  0.6454
17070TIP3    H172625   1.362   1.346  12.796  1.4524  0.7711  0.7242
17070TIP3    H272626   1.247   1.338  12.894  0.3582 -1.5053 -0.6645
17071TIP3   OH272627   6.579   2.054  14.342 -0.1666  0.1700  0.0204
17071TIP3    H172628   6.544   2.075  14.256 -0.9465 -2.6326 -0.4542
17071TIP3    H272629   6.664   2.097  14.345 -0.1934  0.4573 -2.0815
17072TIP3   OH272630   0.339   1.703  10.948  0.0822  0.3756  0.0500
17072TIP3    H172631   0.294   1.697  10.864 -0.9594 -0.6420  0.6454
17072TIP3    H272632   0.327   1.794  10.975  1.5164  1.0591 -1.4460
17073TIP3   OH272633   5.838   4.257   2.854  0.1682 -0.6455 -0.1358
17073TIP3    H172634   5.827   4.308   2.935  0.9533 -0.4736 -0.1338
17073TIP3    H272635   5.831   4.166   2.882  0.5657 -0.5903  0.1442
17074TIP3   OH272636   2.937   2.212   0.311  0.0955  0.2989 -0.2255
17074TIP3    H172637   2.847   2.180   0.321 -0.7322  1.7395 -2.2403
17074TIP3    H272638   2.930   2.283   0.247  2.7904 -0.0009 -0.9824
17075TIP3   OH272639   2.810   3.790  11.417  0.1011  0.0940  0.4990
17075TIP3    H172640   2.718   3.816  11.407  0.2919  0.2946 -0.9413
17075TIP3    H272641   2.844   3.788  11.328  1.7467  0.8870  1.0756
17076TIP3   OH272642   0.218   1.072   1.990  0.4441 -0.4490  0.4113
17076TIP3    H172643   0.253   1.134   2.055  1.4252  0.0224 -0.5322
17076TIP3    H272644   0.188   1.127   1.918 -0.3354 -0.9887  0.3152
17077TIP3   OH272645   5.279   0.750  11.770  0.1941 -0.2189 -0.5520
17077TIP3    H172646   5.346   0.734  11.704  0.1662  0.3587 -0.7285
17077TIP3    H272647   5.226   0.671  11.770  1.0978 -0.8486 -0.1334
17078TIP3   OH272648   1.450   0.834   4.192 -0.3624 -0.3408 -0.5521
17078TIP3    H172649   1.531   0.862   4.235 -1.1949  0.8504  0.3054
17078TIP3    H272650   1.426   0.753   4.237  0.5626 -0.9415 -1.1095
17079TIP3   OH272651   5.289   1.400  17.313 -0.5822 -0.2083  0.2887
17079TIP3    H172652   5.299   1.418  17.407 -0.7383  2.2096 -0.0888
17079TIP3    H272653   5.377   1.408  17.278 -0.2954 -2.4153  0.3525
17080TIP3   OH272654   4.103   3.804   1.810  0.2032  0.0329 -0.3727
17080TIP3    H172655   4.009   3.790   1.820  0.4189 -0.3552  1.6931
17080TIP3    H272656   4.133   3.730   1.759 -0.1730 -1.7462  1.8186
17081TIP3   OH272657   3.720   5.667   4.936  0.4547  0.0167  0.1421
17081TIP3    H172658   3.661   5.595   4.913 -1.0156  1.0865  0.3935
17081TIP3    H272659   3.768   5.635   5.012 -0.9514 -0.3332  0.9187
17082TIP3   OH272660   0.394   3.871   5.665 -0.3210  0.1066  0.5774
17082TIP3    H172661   0.480   3.839   5.693  0.0430  0.5381 -0.0201
17082TIP3    H272662   0.334   3.838   5.731  0.5879  1.7072  2.2969
17083TIP3   OH272663   1.485   2.763   6.550  0.2035  0.0345 -0.3302
17083TIP3    H172664   1.522   2.837   6.597  1.5694 -0.2158 -0.9513
17083TIP3    H272665   1.558   2.730   6.496 -0.6765 -1.0708 -0.8899
17084TIP3   OH272666   3.632   6.238   3.434 -0.0950  0.0581 -1.1410
17084TIP3    H172667   3.657   6.167   3.375 -0.8785 -0.7470 -0.5190
17084TIP3    H272668   3.706   6.245   3.496 -0.3224 -0.7046 -0.7704
17085TIP3   OH272669   6.083   2.779  15.978  0.1523 -0.1011 -0.3826
17085TIP3    H172670   6.159   2.765  15.922  0.4084  0.0462 -0.0704
17085TIP3    H272671   6.074   2.699  16.028  0.7196  0.2687  0.3201
17086TIP3   OH272672   4.547   0.384   5.513 -0.0283 -0.4008 -0.5085
17086TIP3    H172673   4.637   0.399   5.542  0.0866 -1.8865  0.0004
17086TIP3    H272674   4.495   0.391   5.593 -0.0961 -1.5018 -0.4403
17087TIP3   OH272675   1.500   0.190   3.695 -0.2342  0.4826 -1.1257
17087TIP3    H172676   1.437   0.234   3.752  0.9663  0.1791  0.5242
17087TIP3    H272677   1.455   0.179   3.612 -2.5199 -0.1524  0.1263
17088TIP3   OH272678   4.485   1.513   0.875  0.3010  0.1237 -0.4290
17088TIP3    H172679   4.400   1.492   0.913  0.7484 -1.6208 -0.3373
17088TIP3    H272680   4.515   1.589   0.925 -0.3957 -0.3608  0.7702
17089TIP3   OH272681   3.605   0.835   2.785 -0.0148 -0.3789  0.1306
17089TIP3    H172682   3.551   0.756   2.789 -0.7806  0.1724  0.9355
17089TIP3    H272683   3.579   0.877   2.702  0.1146 -0.7646 -0.1090
17090TIP3   OH272684   1.532   4.167   1.135  0.2177 -0.6960 -0.4140
17090TIP3    H172685   1.517   4.247   1.084  1.1943  0.4542  1.0016
17090TIP3    H272686   1.625   4.169   1.155  0.1402 -1.9104  0.1373
17091TIP3   OH272687   2.764   6.421  11.345 -0.0869  0.3355 -0.2568
17091TIP3    H172688   2.833   6.381  11.397 -1.1208 -2.4104 -0.8028
17091TIP3    H272689   2.698   6.447  11.408 -0.0558 -0.2690  0.0341
17092TIP3   OH272690   1.958   4.093  17.162 -0.3558  0.0560  0.0289
17092TIP3    H172691   2.026   4.137  17.212  0.1070 -0.3615 -0.2202
17092TIP3    H272692   1.919   4.031  17.223  0.3943 -0.6510 -0.1837
17093TIP3   OH272693   1.833   3.239  16.727 -0.5734 -0.0611  0.2210
17093TIP3    H172694   1.879   3.220  16.645  0.3464  0.7852  0.5241
17093TIP3    H272695   1.832   3.156  16.774  1.1140  0.0137  0.4253
17094TIP3   OH272696   5.899   5.694  12.608  0.7537  0.0126 -0.3578
17094TIP3    H172697   5.987   5.731  12.608  0.8008 -0.0957 -0.5125
17094TIP3    H272698   5.905   5.619  12.549  1.0101 -1.0769  1.0155
17095TIP3   OH272699   4.805   0.113  14.276  0.6297  0.0964  0.4274
17095TIP3    H172700   4.796   0.144  14.367 -0.9761 -0.3825  0.4548
17095TIP3    H272701   4.866   0.175  14.236 -1.7150  2.8188  0.7412
17096TIP3   OH272702   5.055   4.852  11.341  0.3265 -0.7232  0.0593
17096TIP3    H172703   5.071   4.876  11.250  1.3239 -2.5662 -0.2928
17096TIP3    H272704   4.981   4.791  11.336  1.4807 -2.1758  0.2586
17097TIP3   OH272705   2.328   1.721  13.217  0.1467 -0.0765 -0.6173
17097TIP3    H172706   2.352   1.730  13.124  0.1530  0.0727 -0.6015
17097TIP3    H272707   2.250   1.776  13.227 -0.6105 -1.0860 -0.8195
17098TIP3   OH272708   3.827   5.090   1.031 -0.0070  0.6236  0.9297
17098TIP3    H172709   3.904   5.144   1.011  0.3144 -0.3800 -0.8150
17098TIP3    H272710   3.856   5.031   1.101  1.5297 -1.0083 -0.9333
17099TIP3   OH272711   4.731   4.505   3.271 -0.1298 -0.6815  0.3682
17099TIP3    H172712   4.656   4.540   3.222  2.2971  3.4434 -0.9151
17099TIP3    H272713   4.709   4.523   3.363 -1.5356 -1.4936  0.2229
17100TIP3   OH272714   0.196   2.537   2.331 -0.1529 -0.0208  0.3339
17100TIP3    H172715   0.123   2.539   2.393 -0.0729 -1.7958  0.5364
17100TIP3    H272716   0.179   2.609   2.271 -2.5153 -0.8519 -0.1080
17101TIP3   OH272717   0.273   2.012   1.980 -0.1683 -0.0096  0.6582
17101TIP3    H172718   0.179   2.030   1.977 -0.2555 -0.4625  0.5790
17101TIP3    H272719   0.278   1.918   1.997  0.2683 -0.3705 -1.3074
17102TIP3   OH272720   2.201   2.296   1.009 -0.1667 -0.5730 -0.0549
17102TIP3    H172721   2.146   2.333   1.079 -0.0960 -0.9215  0.1834
17102TIP3    H272722   2.198   2.363   0.940  0.6886  0.2978  0.7220
17103TIP3   OH272723   1.422   0.681   0.492  0.1782 -0.1064 -0.2147
17103TIP3    H172724   1.334   0.693   0.455 -0.3830  2.7327  1.7298
17103TIP3    H272725   1.407   0.647   0.580  0.9354  1.0839  0.4032
17104TIP3   OH272726   0.181   6.594   3.755  0.6215 -0.2871 -0.2326
17104TIP3    H172727   0.200   6.675   3.708  1.1994 -0.5202 -0.4061
17104TIP3    H272728   0.267   6.562   3.785  0.4383 -1.0024 -0.4443
17105TIP3   OH272729   6.331   3.355   4.475 -0.2106  0.0067  0.0028
17105TIP3    H172730   6.391   3.283   4.461 -0.5934 -0.3744  0.2755
17105TIP3    H272731   6.286   3.333   4.557 -0.5099  0.4275 -0.0423
17106TIP3   OH272732   1.887   3.077   0.168  0.2601 -0.3014  0.3511
17106TIP3    H172733   1.922   3.124   0.093 -0.1559 -0.9128 -0.2460
17106TIP3    H272734   1.814   3.131   0.198 -1.0620 -1.1726 -1.1538
17107TIP3   OH272735   2.737   2.439  14.053  0.2214  0.1155  0.0488
17107TIP3    H172736   2.721   2.491  14.132 -1.9658 -0.6316  0.1594
17107TIP3    H272737   2.653   2.437  14.008  0.9753 -0.9799 -1.3999
17108TIP3   OH272738   6.271   5.584  16.546  0.1535 -0.2189 -0.4409
17108TIP3    H172739   6.262   5.492  16.523  1.9110 -0.7400  0.8062
17108TIP3    H272740   6.332   5.586  16.619 -0.4834  1.8831  0.1307
17109TIP3   OH272741   1.761   6.044  13.559  0.2842 -0.6938 -0.4841
17109TIP3    H172742   1.713   6.069  13.639  1.0696 -0.2452 -0.1357
17109TIP3    H272743   1.722   6.098  13.490  0.3137 -0.3016 -0.1980
17110TIP3   OH272744   3.795   0.764  12.596 -0.4550 -0.1108 -0.4169
17110TIP3    H172745   3.728   0.706  12.632  1.4776 -2.9129 -0.9381
17110TIP3    H272746   3.776   0.767  12.502 -0.0477 -0.7220 -0.5301
17111TIP3   OH272747   3.967   6.512  13.461 -0.1161 -0.7740  1.1555
17111TIP3    H172748   3.990   6.480  13.374  0.6321  0.7136  0.7871
17111TIP3    H272749   3.906   6.584  13.446 -0.4173 -0.8632  1.8895
17112TIP3   OH272750   4.328   3.232   0.605  0.4371 -0.2678 -0.0418
17112TIP3    H172751   4.294   3.265   0.688 -0.3653 -1.0980 -0.0267
17112TIP3    H272752   4.360   3.310   0.559 -1.4758  0.5655 -0.0462
17113TIP3   OH272753   3.148   1.235   1.820 -0.4411 -0.4049  0.1006
17113TIP3    H172754   3.243   1.244   1.808 -0.4008 -1.2546 -0.2996
17113TIP3    H272755   3.111   1.260   1.736 -0.4595 -1.7412 -0.2980
17114TIP3   OH272756   6.592   3.019   2.523 -0.0435  0.2212  0.1751
17114TIP3    H172757   6.530   2.958   2.562  0.6219 -0.3036  0.4242
17114TIP3    H272758   6.538   3.089   2.487 -0.8388 -0.6945 -0.4434
17115TIP3   OH272759   2.976   0.571   2.222  0.4326  0.0785 -0.4452
17115TIP3    H172760   3.001   0.493   2.271  0.9980  0.6342  0.1652
17115TIP3    H272761   2.930   0.537   2.145  0.2003 -0.8327  0.0795
17116TIP3   OH272762   3.052   1.875   1.163 -0.2903 -0.1845 -0.0739
17116TIP3    H172763   3.117   1.936   1.127  0.2521  0.1177  1.3312
17116TIP3    H272764   3.055   1.800   1.105  0.4594  0.3284 -0.7279
17117TIP3   OH272765   5.657   2.639   3.885  0.2176  0.5767 -0.0918
17117TIP3    H172766   5.579   2.646   3.941 -0.4880  1.5542 -1.1610
17117TIP3    H272767   5.647   2.709   3.821  0.9681 -0.5699 -1.5071
17118TIP3   OH272768   3.483   1.183   0.548 -0.4836  0.1945 -0.1643
17118TIP3    H172769   3.465   1.236   0.470  1.7833  1.8958  0.3675
17118TIP3    H272770   3.485   1.245   0.620 -1.7586 -1.2471  1.1702
17119TIP3   OH272771   3.112   6.386  16.990  0.3542 -0.2439  0.0479
17119TIP3    H172772   3.111   6.414  16.898 -1.0205  1.4368  0.5254
17119TIP3    H272773   3.183   6.436  17.030 -0.5990  0.8472  0.4019
17120TIP3   OH272774   6.271   2.569   2.568 -0.1797 -0.0934  0.2686
17120TIP3    H172775   6.279   2.665   2.570 -3.6272  0.4735 -2.8611
17120TIP3    H272776   6.351   2.539   2.524  0.8818  1.3165  1.1537
17121TIP3   OH272777   5.464   6.527  15.938  0.2699  0.1556  0.2866
17121TIP3    H172778   5.555   6.515  15.912  0.2601 -0.1523  0.3925
17121TIP3    H272779   5.424   6.441  15.927  0.0238  0.2577  0.3706
17122TIP3   OH272780   0.246   2.590   0.448 -0.2424  0.1192  0.0857
17122TIP3    H172781   0.330   2.633   0.432 -0.6075  1.1971  0.9278
17122TIP3    H272782   0.258   2.500   0.416  0.4772  0.8772 -1.9196
17123TIP3   OH272783   0.246   0.174   0.397 -0.4302 -0.1963  0.2688
17123TIP3    H172784   0.293   0.141   0.320 -0.1028 -2.0693  1.1990
17123TIP3    H272785   0.283   0.124   0.471 -4.9582 -3.2060  0.9123
17124TIP3   OH272786   1.988   2.348  17.223  0.1504 -0.2167  0.2549
17124TIP3    H172787   2.044   2.424  17.240 -1.5114  1.1001  0.0632
17124TIP3    H272788   2.031   2.276  17.271  1.9075  0.7506  0.2138
17125TIP3   OH272789   1.723   3.069   4.660  0.2261  0.4678  0.7691
17125TIP3    H172790   1.810   3.042   4.633  0.2405 -1.4740  2.5750
17125TIP3    H272791   1.736   3.151   4.708  0.8372  1.0029 -0.2933
17126TIP3   OH272792   0.907   4.483  12.244  0.1951  0.4069 -0.8780
17126TIP3    H172793   0.970   4.521  12.305 -0.8199  0.4685  0.1559
17126TIP3    H272794   0.821   4.508  12.278 -0.4284 -0.6118 -1.6307
17127TIP3   OH272795   1.349   2.995   0.160  0.0165  0.8500  0.0677
17127TIP3    H172796   1.290   2.975   0.087 -1.1325  0.1243  1.1527
17127TIP3    H272797   1.420   3.045   0.120  0.0143 -0.4821 -1.7490
17128TIP3   OH272798   2.080   6.658  13.193 -0.0531  0.1381  0.2243
17128TIP3    H172799   2.139   6.696  13.257  0.5761  0.1142 -0.3291
17128TIP3    H272800   2.063   6.729  13.131 -1.4916  0.4788  0.9656
17129TIP3   OH272801   1.402   6.035   4.562 -0.5352  0.1464  0.3385
17129TIP3    H172802   1.417   6.012   4.654 -2.0827 -0.2555  0.5158
17129TIP3    H272803   1.367   5.955   4.523 -1.5301  0.8233 -0.1789
17130TIP3   OH272804   2.101   1.893  15.248  0.7474 -0.0776 -0.2349
17130TIP3    H172805   2.052   1.848  15.317 -0.1947  1.4122  0.1089
17130TIP3    H272806   2.034   1.918  15.184  1.1346  1.4176 -0.0773
17131TIP3   OH272807   1.018   1.611  12.910 -0.2064 -0.4422  0.0018
17131TIP3    H172808   0.955   1.641  12.975  1.3234 -0.1948  1.4548
17131TIP3    H272809   1.038   1.688  12.858 -0.2942 -0.2530  0.2460
17132TIP3   OH272810   4.020   6.751   3.128  0.1569  0.1835  0.2221
17132TIP3    H172811   3.990   6.756   3.219 -3.9846  3.2456 -0.9688
17132TIP3    H272812   4.094   6.811   3.124 -0.6115  1.2798  1.3870
17133TIP3   OH272813   6.292   2.535  14.839  0.6030  0.0670 -0.3777
17133TIP3    H172814   6.268   2.621  14.872  0.2890  0.7296 -2.2510
17133TIP3    H272815   6.319   2.486  14.917 -0.1769  1.5201  0.8459
17134TIP3   OH272816   5.373   1.641   0.508 -0.6063  0.5275  0.1795
17134TIP3    H172817   5.437   1.580   0.472  1.5035  2.5085  0.3372
17134TIP3    H272818   5.415   1.677   0.587 -1.8668  1.9373  0.2583
17135TIP3   OH272819   1.260   5.266  14.982  0.1971  0.4561 -0.3192
17135TIP3    H172820   1.187   5.309  14.937  1.3208  1.8036 -0.9211
17135TIP3    H272821   1.307   5.220  14.912 -0.9557 -1.8578  0.2997
17136TIP3   OH272822   4.116   0.450   3.853  0.1091 -0.5461  0.1380
17136TIP3    H172823   4.101   0.383   3.787 -1.1892  1.7278 -2.0757
17136TIP3    H272824   4.029   0.467   3.890  0.3015  0.3368  0.2112
17137TIP3   OH272825   2.236   6.491   5.243 -0.1302  0.0784  0.3852
17137TIP3    H172826   2.226   6.559   5.309  0.9166  0.6527 -0.0245
17137TIP3    H272827   2.284   6.533   5.172 -0.8893 -0.6373 -0.5797
17138TIP3   OH272828   6.154   6.191  13.810 -0.2076  0.0217  0.1215
17138TIP3    H172829   6.060   6.179  13.819 -0.0673 -2.5480 -0.9423
17138TIP3    H272830   6.192   6.112  13.849  1.4664  0.6466 -0.1471
17139TIP3   OH272831   2.164   5.379  15.046 -0.1587 -0.3607  0.2875
17139TIP3    H172832   2.171   5.291  15.008 -1.5915 -1.1595  1.7288
17139TIP3    H272833   2.240   5.386  15.104  1.4788  0.4739 -1.8644
17140TIP3   OH272834   4.420   3.253  11.991 -0.4084  0.3414  0.2899
17140TIP3    H172835   4.459   3.323  11.939 -2.2970  0.9748 -0.3522
17140TIP3    H272836   4.432   3.281  12.082 -1.5433  1.7624  0.0289
17141TIP3   OH272837   3.319   4.848  16.723  0.8955  0.6118  0.3728
17141TIP3    H172838   3.242   4.823  16.673 -0.6178 -0.5043  3.0473
17141TIP3    H272839   3.390   4.850  16.659 -1.0965  0.4924 -1.9755
17142TIP3   OH272840   4.673   4.378  13.426  0.3549  0.3590 -0.4847
17142TIP3    H172841   4.623   4.351  13.349  0.0538  1.4183 -0.6832
17142TIP3    H272842   4.607   4.390  13.494  0.4348  0.8567 -0.4878
17143TIP3   OH272843   4.627   1.986  12.209  0.2410  0.2887  0.9195
17143TIP3    H172844   4.572   2.007  12.284 -0.3209  3.4235 -0.2415
17143TIP3    H272845   4.704   2.041  12.219  1.6809 -1.5719  0.7511
17144TIP3   OH272846   5.411   0.528   3.865  0.1550 -0.4441  0.0852
17144TIP3    H172847   5.466   0.544   3.789  0.1542  0.7113  0.3004
17144TIP3    H272848   5.449   0.451   3.908  1.7401  0.4416  0.3491
17145TIP3   OH272849   5.455   1.043   6.001  0.2681 -0.1209 -0.0470
17145TIP3    H172850   5.411   1.002   5.926  0.4165  1.7462 -1.2089
17145TIP3    H272851   5.398   1.025   6.075 -0.4539 -1.0600 -0.8105
17146TIP3   OH272852   6.680   0.085   2.523  0.6013  1.2275  0.2182
17146TIP3    H172853   6.606   0.132   2.561  0.3458  0.0370  1.2908
17146TIP3    H272854   6.741   0.074   2.596  0.0921 -1.1517  0.3851
17147TIP3   OH272855   6.165   4.909   5.088 -0.1070  0.0051 -0.7795
17147TIP3    H172856   6.163   4.864   5.003  0.2680 -0.3155 -0.6227
17147TIP3    H272857   6.195   4.842   5.150  0.8412  0.5778 -0.6037
17148TIP3   OH272858   3.297   5.550  15.784 -0.1266 -0.0799  0.4724
17148TIP3    H172859   3.384   5.591  15.782  0.3599 -0.9576  1.6865
17148TIP3    H272860   3.259   5.579  15.867 -1.3995  1.0125 -0.4548
17149TIP3   OH272861   5.013   0.982  16.878 -0.4473 -0.1941  0.1634
17149TIP3    H172862   5.046   0.923  16.946 -0.8674 -2.1015 -1.2213
17149TIP3    H272863   5.034   1.070  16.911  0.5134 -1.0973  2.1372
17150TIP3   OH272864   3.378   0.201  12.355 -0.1544  0.4859 -0.2353
17150TIP3    H172865   3.387   0.114  12.393  0.6741  0.4084 -0.5866
17150TIP3    H272866   3.295   0.199  12.308 -0.6693  0.2411  0.6597
17151TIP3   OH272867   6.086   4.606   2.439 -0.1403 -0.5614  0.7948
17151TIP3    H172868   6.136   4.654   2.374 -0.7978 -2.6913 -1.4172
17151TIP3    H272869   6.149   4.544   2.477 -0.3974 -1.2767  0.0805
17152TIP3   OH272870   1.360   6.330  13.546 -0.0123 -0.3442 -0.5115
17152TIP3    H172871   1.387   6.421  13.554 -0.2000 -0.0474 -2.5863
17152TIP3    H272872   1.432   6.287  13.501 -0.1697 -1.0903 -0.0707
17153TIP3   OH272873   0.841   3.969   4.939  0.0382  0.0900 -0.2482
17153TIP3    H172874   0.840   3.954   4.844  0.3186  1.1996 -0.4374
17153TIP3    H272875   0.924   3.932   4.968 -0.3374 -0.8473 -0.3167
17154TIP3   OH272876   5.897   3.132   1.748 -0.5322  0.0792 -0.2347
17154TIP3    H172877   5.967   3.154   1.686  0.6748 -1.3733  0.5268
17154TIP3    H272878   5.935   3.063   1.803 -2.8377 -1.3573 -0.2925
17155TIP3   OH272879   5.118   1.223  11.290 -0.2900  0.0467 -0.0370
17155TIP3    H172880   5.208   1.191  11.290 -0.5894 -1.1024 -3.0816
17155TIP3    H272881   5.120   1.301  11.236 -1.1907 -0.2374 -0.5065
17156TIP3   OH272882   1.064   2.309   0.268 -0.1641 -0.2204 -0.4881
17156TIP3    H172883   0.986   2.365   0.267  0.5654  0.8235 -0.1166
17156TIP3    H272884   1.029   2.220   0.262 -1.3134  0.2805 -2.1333
17157TIP3   OH272885   4.094   2.229   4.910 -0.4312 -0.3161 -0.4535
17157TIP3    H172886   4.115   2.300   4.971 -1.3406 -0.8449  0.5059
17157TIP3    H272887   4.178   2.204   4.873  0.0563  0.4740  0.0863
17158TIP3   OH272888   4.976   5.762   4.481  0.5213 -0.6565  0.0958
17158TIP3    H172889   4.990   5.710   4.561 -3.6630 -1.8482  0.2607
17158TIP3    H272890   4.900   5.817   4.501  1.2136  1.2591 -2.1257
17159TIP3   OH272891   4.263   0.937  12.953 -0.4022  0.2024  0.1589
17159TIP3    H172892   4.179   0.894  12.939  0.0825 -1.0800  0.9995
17159TIP3    H272893   4.322   0.866  12.978  0.7036  1.2189  0.5084
17160TIP3   OH272894   5.273   1.566   2.190  0.1558  0.9243  0.2155
17160TIP3    H172895   5.282   1.584   2.096 -1.2524 -1.7784 -0.5196
17160TIP3    H272896   5.359   1.535   2.216 -0.0848 -0.7634 -0.8438
17161TIP3   OH272897   6.725   2.332  15.893  0.1066  0.0136 -0.1685
17161TIP3    H172898   6.707   2.425  15.879  1.9846  0.0666 -2.8850
17161TIP3    H272899   6.765   2.303  15.812 -0.1714 -3.1523  0.7068
17162TIP3   OH272900   5.249   1.007  14.014  0.1023  0.3563  0.4956
17162TIP3    H172901   5.193   1.043  13.946 -0.0796  0.1273  0.5247
17162TIP3    H272902   5.242   1.069  14.087 -1.4321 -0.5211  1.1326
17163TIP3   OH272903   4.433   2.599  16.229  0.6938  0.7221  0.4212
17163TIP3    H172904   4.434   2.530  16.162 -2.4061  0.9301 -0.0093
17163TIP3    H272905   4.397   2.556  16.307  0.9868  1.2998  0.8818
17164TIP3   OH272906   4.648   3.698   4.373 -0.5150  0.4014 -0.0885
17164TIP3    H172907   4.712   3.665   4.310  0.0459  0.3744  0.4837
17164TIP3    H272908   4.684   3.782   4.401  0.3946 -0.5586  1.8209
17165TIP3   OH272909   3.068   4.233   0.097  0.3494 -0.1076  0.3340
17165TIP3    H172910   2.986   4.272   0.064  0.3950  2.5452  2.9553
17165TIP3    H272911   3.137   4.288   0.061  1.0199 -1.7030 -0.9934
17166TIP3   OH272912   6.322   2.683  12.456 -0.7358 -0.3716  0.6074
17166TIP3    H172913   6.370   2.694  12.538  1.5645 -1.1222 -0.5715
17166TIP3    H272914   6.316   2.772  12.419  0.9831 -0.4158  0.1467
17167TIP3   OH272915   0.954   6.624   0.944 -0.2963  0.0831  0.2227
17167TIP3    H172916   1.001   6.576   1.012  1.3497  0.2433 -0.7514
17167TIP3    H272917   0.927   6.705   0.986  2.4304  1.0841  0.2342
17168TIP3   OH272918   5.272   6.670  14.434  0.1384  0.1266  0.0826
17168TIP3    H172919   5.323   6.683  14.513 -1.8344  0.5482  1.3608
17168TIP3    H272920   5.182   6.662  14.465 -0.6032 -0.5083 -2.0657
17169TIP3   OH272921   3.813   5.263   0.763 -0.1748  0.2639 -0.0408
17169TIP3    H172922   3.781   5.351   0.784 -1.8160 -0.1114 -0.8234
17169TIP3    H272923   3.734   5.210   0.756  0.7888 -1.2650  0.2891
17170TIP3   OH272924   2.921   6.671  10.818  0.8240  0.4443 -0.5190
17170TIP3    H172925   2.941   6.665  10.911 -1.1137  1.1562 -0.0056
17170TIP3    H272926   2.897   6.763  10.805 -1.0756 -0.1004 -1.2128
17171TIP3   OH272927   5.008   4.312  12.828  0.1192  0.7986 -0.1543
17171TIP3    H172928   4.986   4.284  12.917 -0.3525  1.9462  0.1124
17171TIP3    H272929   5.044   4.234  12.786 -1.4306 -0.2941  0.4359
17172TIP3   OH272930   1.598   0.623  11.577  0.3882 -0.4812 -0.3487
17172TIP3    H172931   1.674   0.626  11.635 -0.1472  4.2239  0.4382
17172TIP3    H272932   1.534   0.569  11.624  0.9582  0.9454  2.2160
17173TIP3   OH272933   0.559   5.559  13.963 -0.6292 -0.0394  0.2357
17173TIP3    H172934   0.624   5.503  14.005 -0.8144 -1.5822 -1.3845
17173TIP3    H272935   0.479   5.546  14.013  0.0310  1.1066  1.6427
17174TIP3   OH272936   4.539   3.211   4.249 -0.1325  0.0106  0.3558
17174TIP3    H172937   4.573   3.235   4.335  0.5857  1.0961 -0.2031
17174TIP3    H272938   4.500   3.292   4.215  3.4764  0.9521 -2.1179
17175TIP3   OH272939   5.783   1.174  14.733 -0.6209  0.1878  0.5306
17175TIP3    H172940   5.862   1.169  14.678 -0.4027 -1.4029  0.9203
17175TIP3    H272941   5.720   1.223  14.681  0.3517  0.7423 -0.1525
17176TIP3   OH272942   0.272   3.202   3.181 -0.4542 -0.3554  0.4568
17176TIP3    H172943   0.256   3.220   3.088  0.1154  1.5003  0.6745
17176TIP3    H272944   0.267   3.107   3.188  1.0142 -0.6738 -1.7674
17177TIP3   OH272945   5.168   0.252  11.843 -0.4758  0.4934  0.0008
17177TIP3    H172946   5.166   0.202  11.761  0.8774  1.2400 -0.5240
17177TIP3    H272947   5.080   0.241  11.880 -0.7209 -0.8815 -0.9193
17178TIP3   OH272948   0.152   1.581  14.077  0.5527  0.0456 -0.1444
17178TIP3    H172949   0.206   1.575  13.998  0.4509  0.5075 -0.2564
17178TIP3    H272950   0.083   1.644  14.054 -0.7177 -1.3773 -0.3920
17179TIP3   OH272951   4.753   4.999   0.950 -0.6651 -0.3795  0.4588
17179TIP3    H172952   4.806   4.919   0.956 -1.8506 -1.5685 -2.6525
17179TIP3    H272953   4.664   4.971   0.970 -0.7357  0.8441  2.0926
17180TIP3   OH272954   2.796   3.542  11.935 -0.3118 -0.1971 -0.5967
17180TIP3    H172955   2.874   3.518  11.886 -0.9805 -1.2791 -1.1391
17180TIP3    H272956   2.771   3.628  11.900  0.7975  0.3199 -0.1884
17181TIP3   OH272957   0.580   1.935  14.815  0.4663  0.4639  0.6988
17181TIP3    H172958   0.574   2.000  14.886  0.4794 -0.2407  1.3600
17181TIP3    H272959   0.519   1.866  14.841  0.3686  0.2586 -0.0579
17182TIP3   OH272960   6.292   4.325  12.009  0.0277 -0.1721  0.0127
17182TIP3    H172961   6.356   4.394  11.987  2.9532 -3.0225 -1.2261
17182TIP3    H272962   6.268   4.287  11.924 -1.5809 -0.6535  0.6593
17183TIP3   OH272963   1.121   0.703  10.581  0.5358 -0.0229  0.6210
17183TIP3    H172964   1.064   0.683  10.507  1.6908 -1.5898  0.1019
17183TIP3    H272965   1.178   0.773  10.550 -0.8523  1.3520  1.0480
17184TIP3   OH272966   2.820   0.900   4.052  0.3361 -0.0191  0.1910
17184TIP3    H172967   2.913   0.916   4.036 -0.0876  1.4775 -1.0228
17184TIP3    H272968   2.808   0.919   4.145  1.3099 -0.6714  0.4696
17185TIP3   OH272969   1.561   6.216   5.347 -0.0168 -0.0072 -0.3011
17185TIP3    H172970   1.474   6.256   5.352  0.8932  2.0557  0.3571
17185TIP3    H272971   1.580   6.190   5.437  0.0491 -0.4841 -0.4503
17186TIP3   OH272972   3.280   3.145  14.884  0.0287  0.3029  0.4498
17186TIP3    H172973   3.205   3.142  14.943  0.7392  1.3384  1.4362
17186TIP3    H272974   3.334   3.216  14.917  0.4865  0.8829 -1.4319
17187TIP3   OH272975   2.920   2.327  12.651 -0.1736  0.3432  0.2795
17187TIP3    H172976   3.002   2.296  12.691 -0.9596 -1.4417  0.6029
17187TIP3    H272977   2.914   2.279  12.568 -1.0088  0.2544  0.3855
17188TIP3   OH272978   5.498   4.486   3.858  0.6587 -0.8711 -0.7500
17188TIP3    H172979   5.404   4.482   3.838  0.5142  0.7438 -0.5688
17188TIP3    H272980   5.506   4.446   3.944 -0.5378  2.3756  1.0384
17189TIP3   OH272981   4.841   2.874   4.923 -0.0081  0.1876  0.1140
17189TIP3    H172982   4.757   2.917   4.942  0.2576  0.9685 -0.4241
17189TIP3    H272983   4.886   2.869   5.007 -0.5970 -0.2547  0.4108
17190TIP3   OH272984   5.513   6.292  17.121  0.1429  0.3745  0.3747
17190TIP3    H172985   5.503   6.381  17.087 -2.1423  0.3221  0.7073
17190TIP3    H272986   5.552   6.304  17.208  1.2482  0.9109 -0.1798
17191TIP3   OH272987   5.072   1.600  14.683 -0.7666 -0.4712 -1.0304
17191TIP3    H172988   5.013   1.670  14.712  0.0919 -0.0563 -0.2337
17191TIP3    H272989   5.094   1.552  14.763 -1.7081 -1.9764 -1.6238
17192TIP3   OH272990   0.534   3.912   0.938 -0.1965  0.4443 -0.3406
17192TIP3    H172991   0.470   3.953   0.996 -0.6309  1.7626 -1.6806
17192TIP3    H272992   0.619   3.936   0.975 -0.4681  1.3958 -0.3086
17193TIP3   OH272993   0.148   5.703   4.905  0.1480 -0.3448  0.0081
17193TIP3    H172994   0.242   5.690   4.915 -0.0364 -1.3614  0.4666
17193TIP3    H272995   0.134   5.699   4.810  0.6425  0.4658 -0.1139
17194TIP3   OH272996   4.169   2.110  12.376 -0.0569  0.1130 -0.5579
17194TIP3    H172997   4.170   2.184  12.437 -1.5154 -1.3025  1.2720
17194TIP3    H272998   4.253   2.066  12.390  0.1283  0.4844 -0.4726
17195TIP3   OH272999   6.269   3.781  16.493 -0.2425 -0.0692 -0.6759
17195TIP3    H173000   6.293   3.808  16.404 -1.8821  0.9032 -0.8751
17195TIP3    H273001   6.307   3.849  16.549 -1.2603  0.6826 -0.8660
17196TIP3   OH273002   1.079   2.878  14.944 -0.4144 -0.4261 -0.5184
17196TIP3    H173003   1.162   2.904  14.903 -0.1117 -0.8401 -0.1764
17196TIP3    H273004   1.034   2.961  14.962  0.0508 -0.1857 -0.4516
17197TIP3   OH273005   4.380   5.097  15.732 -0.3501 -0.0266 -0.9201
17197TIP3    H173006   4.393   5.066  15.822  0.0252  0.6543 -0.7334
17197TIP3    H273007   4.421   5.184  15.731  0.0704 -0.2244 -1.8697
17198TIP3   OH273008   1.694   4.328  17.046 -0.0738  0.4145  0.6480
17198TIP3    H173009   1.783   4.359  17.059  0.2683 -0.3979  0.3021
17198TIP3    H273010   1.701   4.232  17.047 -0.9005  0.3413  0.3971
17199TIP3   OH273011   1.314   0.320   2.133  0.1599 -0.3310  0.4797
17199TIP3    H173012   1.388   0.317   2.073  2.1561  0.3355  2.7634
17199TIP3    H273013   1.308   0.413   2.158 -0.0081 -0.7223  1.9740
17200TIP3   OH273014   4.094   3.086  16.356 -0.5862  0.1769  0.4128
17200TIP3    H173015   4.176   3.057  16.396 -1.4068 -0.7453  1.5045
17200TIP3    H273016   4.070   3.165  16.405 -0.7731 -0.0400  0.6761
17201TIP3   OH273017   6.233   6.430  12.270  0.4579 -0.0346  0.7304
17201TIP3    H173018   6.228   6.439  12.175  1.0335 -1.4054  0.5418
17201TIP3    H273019   6.185   6.349  12.290 -2.2651  1.7424  1.9797
17202TIP3   OH273020   6.054   1.745   5.676  0.6116 -0.0176 -0.6923
17202TIP3    H173021   6.135   1.720   5.631  1.1894 -0.9694  0.7781
17202TIP3    H273022   6.039   1.674   5.739  1.5296  2.5135  2.7266
17203TIP3   OH273023   4.591   4.397   0.220  0.2051 -0.2571  0.4495
17203TIP3    H173024   4.578   4.344   0.298 -0.2603  2.9249  2.7186
17203TIP3    H273025   4.686   4.405   0.212  0.2427  0.1024  1.2197
17204TIP3   OH273026   2.083   4.283   5.437  0.1456  0.2631 -0.1550
17204TIP3    H173027   2.146   4.318   5.499 -0.0802 -0.1637  0.3243
17204TIP3    H273028   2.012   4.347   5.436  1.2957  1.6134 -1.9537
17205TIP3   OH273029   5.057   0.822  14.644  0.1874  0.4195 -0.3027
17205TIP3    H173030   5.075   0.916  14.649 -0.4750  0.4983  1.1411
17205TIP3    H273031   4.998   0.805  14.718  1.9583 -1.5018  0.7651
17206TIP3   OH273032   2.628   6.575   5.189 -0.7465 -0.0979 -0.0531
17206TIP3    H173033   2.695   6.506   5.184 -0.3757  0.2593 -0.1324
17206TIP3    H273034   2.549   6.530   5.218  0.0949 -0.1397  2.4270
17207TIP3   OH273035   5.541   4.972  10.935  0.7873 -0.4107  0.5902
17207TIP3    H173036   5.560   4.917  10.859 -1.1751 -0.9119  0.4097
17207TIP3    H273037   5.498   5.050  10.899  0.1856 -0.4773  1.1262
17208TIP3   OH273038   1.469   1.915   4.090  0.3350 -0.1396  0.3593
17208TIP3    H173039   1.470   1.873   4.176  0.6911 -0.6652  0.1037
17208TIP3    H273040   1.527   1.991   4.099 -0.7761  0.6716  0.9942
17209TIP3   OH273041   1.966   1.004  13.851  0.2268  0.1902  1.2063
17209TIP3    H173042   1.917   0.983  13.772  1.1762  1.5451  0.2147
17209TIP3    H273043   1.902   1.045  13.909  0.1441  2.1074 -0.1383
17210TIP3   OH273044   2.006   5.186  14.777 -0.3421  0.2483  0.1874
17210TIP3    H173045   2.085   5.221  14.734  0.5557 -0.4466  1.2116
17210TIP3    H273046   1.944   5.173  14.705  0.8378 -0.1341 -0.8147
17211TIP3   OH273047   4.762   0.092  11.876 -0.2801 -0.0157 -0.2820
17211TIP3    H173048   4.826   0.163  11.870 -0.2731  0.0383  0.3007
17211TIP3    H273049   4.682   0.134  11.907 -1.2150  0.2574 -2.9057
17212TIP3   OH273050   4.036   5.766  12.254 -0.3315  0.0902  0.3117
17212TIP3    H173051   4.129   5.776  12.234 -0.4878  0.1177 -0.4254
17212TIP3    H273052   4.029   5.679  12.293  0.2655  0.7696  2.0433
17213TIP3   OH273053   1.026   4.942  16.285 -0.2831  0.3297  0.0280
17213TIP3    H173054   1.027   5.031  16.321  2.0801  0.3989 -0.0505
17213TIP3    H273055   1.037   4.954  16.191  1.9316 -0.0531  0.2004
17214TIP3   OH273056   4.278   4.011   1.836  0.6444  0.0847 -0.7008
17214TIP3    H173057   4.338   4.016   1.761 -0.3401  0.5500 -1.4917
17214TIP3    H273058   4.218   3.940   1.814  1.1321 -0.6347  0.2624
17215TIP3   OH273059   5.605   0.325   5.941  0.4071 -0.1035  0.2471
17215TIP3    H173060   5.663   0.365   5.876  0.8533 -2.9708 -1.3122
17215TIP3    H273061   5.653   0.330   6.023  1.5519  0.2360 -0.4210
17216TIP3   OH273062   6.239   5.379   2.951 -0.3024  0.1337  0.0657
17216TIP3    H173063   6.164   5.318   2.952 -0.0917 -0.1282  0.1557
17216TIP3    H273064   6.261   5.388   2.859 -1.0468  0.9613 -0.0403
17217TIP3   OH273065   3.007   5.520  10.738  0.1178  0.2264 -0.4020
17217TIP3    H173066   2.987   5.603  10.696  1.4616  1.3978  1.1449
17217TIP3    H273067   3.010   5.456  10.666  0.4086  1.7646 -1.8100
17218TIP3   OH273068   3.313   5.990  13.150 -0.1866  0.0642 -0.2716
17218TIP3    H173069   3.313   5.895  13.146 -0.8787 -0.0585  1.4809
17218TIP3    H273070   3.376   6.010  13.220 -2.0000  0.7017  1.2859
17219TIP3   OH273071   6.683   4.964   6.081  0.2134  0.1823 -0.6034
17219TIP3    H173072   6.693   5.012   5.999  0.2885  0.2916 -0.5305
17219TIP3    H273073   6.619   4.896   6.061  0.3903  0.0747 -0.8120
17220TIP3   OH273074   3.813   2.144  16.875 -0.4117  0.0730  0.4196
17220TIP3    H173075   3.734   2.198  16.871 -1.1011 -1.0023 -1.5303
17220TIP3    H273076   3.782   2.057  16.899  0.0616 -0.5071 -0.9578
17221TIP3   OH273077   6.323   3.578   3.035 -0.1556 -0.2440  0.0392
17221TIP3    H173078   6.310   3.672   3.052 -0.2595 -0.4581  1.2065
17221TIP3    H273079   6.249   3.536   3.078 -0.6265 -0.8135 -1.2812
17222TIP3   OH273080   2.242   5.676  17.313 -0.1174 -0.4047  0.4171
17222TIP3    H173081   2.244   5.665  17.408  1.0230 -1.3321  0.3144
17222TIP3    H273082   2.154   5.650  17.287 -1.4233  2.6228  1.4854
17223TIP3   OH273083   4.456   1.653   1.750  0.2481 -0.3918  0.5825
17223TIP3    H173084   4.472   1.705   1.671 -0.8851 -0.9261 -0.0309
17223TIP3    H273085   4.532   1.669   1.806  0.8750  0.3225 -0.4450
17224TIP3   OH273086   2.273   4.934   4.818 -0.0020 -0.4568 -0.3512
17224TIP3    H173087   2.178   4.934   4.813  0.0670 -1.2006 -3.4640
17224TIP3    H273088   2.301   5.012   4.770  1.0228  0.3566  1.4258
17225TIP3   OH273089   2.855   0.455  14.346  0.3330 -0.1877  0.2274
17225TIP3    H173090   2.899   0.539  14.332 -0.2214  0.0389 -0.2130
17225TIP3    H273091   2.797   0.471  14.420  0.8830 -0.4457  0.7179
17226TIP3   OH273092   0.788   5.111  12.540 -0.3784 -0.6469 -0.1679
17226TIP3    H173093   0.706   5.151  12.567 -0.5094 -0.3734 -0.9293
17226TIP3    H273094   0.839   5.184  12.505 -0.0972 -0.9304 -0.3545
17227TIP3   OH273095   4.924   4.482   0.690  0.1109 -0.5902  0.5506
17227TIP3    H173096   4.980   4.405   0.702  0.9865 -0.1911 -0.7000
17227TIP3    H273097   4.986   4.555   0.679 -0.7001  0.3961  2.1896
17228TIP3   OH273098   5.102   2.004  16.659 -1.1285 -0.4349  0.4296
17228TIP3    H173099   5.013   1.970  16.658 -1.3645  0.1902 -0.1759
17228TIP3    H273100   5.110   2.048  16.744 -1.7417  0.3962  0.0638
17229TIP3   OH273101   2.445   4.732   1.781  1.0139 -0.4200  0.1682
17229TIP3    H173102   2.460   4.765   1.869  0.0247 -0.7488  0.4787
17229TIP3    H273103   2.477   4.802   1.723 -0.4940  0.8616  0.8025
17230TIP3   OH273104   5.543   3.345   3.364  0.0449  0.2320  0.2633
17230TIP3    H173105   5.637   3.349   3.350  0.0525  1.4896  0.5980
17230TIP3    H273106   5.515   3.436   3.371 -1.5607  0.0226 -2.1816
17231TIP3   OH273107   5.286   5.298   1.145  0.8219 -0.3924  0.6711
17231TIP3    H173108   5.247   5.225   1.194 -1.0765  0.6805  0.8472
17231TIP3    H273109   5.278   5.272   1.053  2.6117 -1.5370  0.7767
17232TIP3   OH273110   0.334   4.127  16.885  0.1561  0.4751  0.1623
17232TIP3    H173111   0.403   4.103  16.947  0.2747  0.2344 -0.0628
17232TIP3    H273112   0.276   4.185  16.935 -0.0935 -0.2050  0.6894
17233TIP3   OH273113   4.541   1.021   5.264 -0.1888 -0.2958 -0.1872
17233TIP3    H173114   4.453   1.057   5.266 -0.6911 -1.4837  0.1810
17233TIP3    H273115   4.569   1.021   5.356  0.2731  0.2498 -0.3234
17234TIP3   OH273116   4.278   5.779   5.455  0.4279  0.0804 -0.1449
17234TIP3    H173117   4.345   5.803   5.392  0.2028 -0.7042 -0.7038
17234TIP3    H273118   4.318   5.711   5.509  0.0993 -0.4029 -0.4903
17235TIP3   OH273119   2.600   5.179  16.302 -0.3355  0.3634  0.1262
17235TIP3    H173120   2.549   5.214  16.229  0.7691  1.2043 -0.2760
17235TIP3    H273121   2.546   5.109  16.338 -2.1915  1.7840  0.2959
17236TIP3   OH273122   4.790   3.501  11.321  0.3426 -0.1575  0.4490
17236TIP3    H173123   4.695   3.489  11.329  0.6213 -2.8378  0.8716
17236TIP3    H273124   4.800   3.570  11.256 -1.8992 -0.8109 -0.6966
17237TIP3   OH273125   2.686   5.085   1.397 -0.2040 -0.1164 -0.2170
17237TIP3    H173126   2.719   5.142   1.466  3.4594  1.0188 -2.6510
17237TIP3    H273127   2.673   5.143   1.322 -1.5885 -1.6924 -1.2688
17238TIP3   OH273128   5.209   6.689   0.107 -0.4471  0.9396  0.6266
17238TIP3    H173129   5.275   6.634   0.064 -0.2882 -0.5725  2.6432
17238TIP3    H273130   5.139   6.699   0.042  0.5443  0.2955 -0.5873
17239TIP3   OH273131   2.538   2.387   0.227 -0.2758 -0.5513 -0.4803
17239TIP3    H173132   2.476   2.378   0.154 -0.4901 -3.3498 -0.0568
17239TIP3    H273133   2.587   2.305   0.227 -0.1081 -0.5372  2.3604
17240TIP3   OH273134   0.264   0.675   3.803  0.1141 -0.7463  0.7921
17240TIP3    H173135   0.178   0.694   3.840 -0.6063 -1.3886 -0.4961
17240TIP3    H273136   0.264   0.719   3.718  1.7027  0.6241  1.4443
17241TIP3   OH273137   5.168   5.855  13.212 -0.2711  0.0204  0.1881
17241TIP3    H173138   5.231   5.790  13.183 -0.2577 -1.0422  2.3506
17241TIP3    H273139   5.091   5.804  13.237 -1.6719  1.1984 -1.4907
17242TIP3   OH273140   2.168   4.549   2.716 -0.4460  0.4989  0.0274
17242TIP3    H173141   2.227   4.478   2.741 -1.1104 -0.5050 -1.1587
17242TIP3    H273142   2.134   4.583   2.799  2.3375  1.6283  0.8238
17243TIP3   OH273143   1.564   5.293  11.262 -0.0631  0.0130 -0.1732
17243TIP3    H173144   1.587   5.245  11.341  0.4329  0.3579 -0.1054
17243TIP3    H273145   1.642   5.287  11.207  0.0401  0.8118 -0.1283
17244TIP3   OH273146   4.625   3.317  15.854 -0.2546 -0.4407  0.2166
17244TIP3    H173147   4.560   3.343  15.789  0.1763  0.3224  0.0698
17244TIP3    H273148   4.598   3.363  15.934  1.4817  2.0127 -0.4764
17245TIP3   OH273149   3.036   1.689   0.951  0.5061  0.3287 -0.0765
17245TIP3    H173150   3.101   1.737   0.899  1.2013 -1.5489 -1.0314
17245TIP3    H273151   2.955   1.697   0.902 -0.3979  3.5952  1.6517
17246TIP3   OH273152   3.179   3.625  12.811  0.3597 -0.0353  0.2464
17246TIP3    H173153   3.273   3.632  12.792  1.5678 -1.0661  4.6246
17246TIP3    H273154   3.157   3.707  12.856 -0.9115  0.2519 -0.8564
17247TIP3   OH273155   6.463   6.299  15.550 -0.2468 -0.3849 -0.0335
17247TIP3    H173156   6.423   6.225  15.506 -1.3017  0.8299 -1.1851
17247TIP3    H273157   6.420   6.303  15.635 -1.6909  0.1294 -0.7628
17248TIP3   OH273158   3.609   4.930   5.206 -0.5970 -0.6013 -0.0299
17248TIP3    H173159   3.590   4.870   5.133 -0.3022 -2.2104  1.1506
17248TIP3    H273160   3.704   4.943   5.202 -0.5909 -0.6310  0.0148
17249TIP3   OH273161   0.160   3.792  15.145 -0.3201 -0.9669  0.3004
17249TIP3    H173162   0.147   3.734  15.070  0.7699 -1.1401  0.2307
17249TIP3    H273163   0.077   3.788  15.193 -1.7477  0.5962 -1.8505
17250TIP3   OH273164   2.564   1.889  14.974  0.3584 -0.0188 -0.2249
17250TIP3    H173165   2.474   1.866  14.994 -0.9093  2.2262 -2.6585
17250TIP3    H273166   2.611   1.806  14.976 -2.0629 -1.4863 -0.2623
17251TIP3   OH273167   2.057   0.741  16.731  0.7176 -0.7018 -0.7683
17251TIP3    H173168   2.001   0.811  16.766  1.5496 -0.7756  0.8071
17251TIP3    H273169   2.054   0.753  16.636  0.4049  1.1476 -0.5645
17252TIP3   OH273170   2.625   2.303   1.182 -0.0952  0.2417  0.9172
17252TIP3    H173171   2.584   2.384   1.150  1.0581  1.7359  2.9990
17252TIP3    H273172   2.705   2.296   1.130 -1.3239 -0.9442 -0.9308
17253TIP3   OH273173   0.443   3.795  15.180  0.8411  0.4534 -0.0333
17253TIP3    H173174   0.361   3.844  15.186 -0.0832 -1.0634  0.5145
17253TIP3    H273175   0.426   3.729  15.113  0.8221 -1.2379  1.5601
17254TIP3   OH273176   5.506   4.371   5.565  0.0700  0.0676  0.1157
17254TIP3    H173177   5.563   4.348   5.639  1.9662  3.2862 -0.1703
17254TIP3    H273178   5.460   4.449   5.593 -2.4986 -1.0952 -0.6075
17255TIP3   OH273179   3.472   0.834   1.732  0.7667 -0.4265  0.0709
17255TIP3    H173180   3.549   0.789   1.766  0.6962 -1.7049 -1.3819
17255TIP3    H273181   3.399   0.794   1.779  0.8280 -0.7400 -0.0969
17256TIP3   OH273182   2.505   0.713   0.974  0.0032  0.3756  0.6442
17256TIP3    H173183   2.579   0.720   1.034 -0.6021  1.1072  1.3251
17256TIP3    H273184   2.513   0.626   0.936  2.6715  1.2948 -1.2261
17257TIP3   OH273185   5.465   1.441   3.205  0.0115  0.3184 -0.0755
17257TIP3    H173186   5.522   1.396   3.143  0.0121 -2.2185  1.6000
17257TIP3    H273187   5.496   1.413   3.291 -2.1364  0.8882  0.9633
17258TIP3   OH273188   4.378   5.578  12.931  0.1678  0.9856  0.7209
17258TIP3    H173189   4.372   5.498  12.981  2.6432 -0.1292 -0.5702
17258TIP3    H273190   4.291   5.617  12.936 -0.5594 -0.7532  2.9920
17259TIP3   OH273191   3.172   0.375  11.606 -0.0077  0.1274  0.3824
17259TIP3    H173192   3.246   0.325  11.641 -0.3643  0.3169  1.4552
17259TIP3    H273193   3.169   0.352  11.513 -0.5084 -2.2853  0.9209
17260TIP3   OH273194   2.494   0.801   1.484  0.0699  0.1597 -0.2275
17260TIP3    H173195   2.576   0.825   1.442 -0.1762 -0.6688 -1.2166
17260TIP3    H273196   2.493   0.705   1.481 -0.3716  0.1077  0.8892
17261TIP3   OH273197   3.686   2.611   3.159  0.2857 -0.0303 -0.1463
17261TIP3    H173198   3.776   2.641   3.145  1.6991 -3.2643  0.9749
17261TIP3    H273199   3.653   2.666   3.231  1.8508  0.3583  0.3151
17262TIP3   OH273200   1.619   5.223   0.941  0.3651 -0.1085 -0.1576
17262TIP3    H173201   1.680   5.268   0.999  0.3410  0.0047 -0.2196
17262TIP3    H273202   1.591   5.146   0.991  1.2227 -0.6328 -0.4670
17263TIP3   OH273203   2.138   1.174   3.593  0.0825  0.8069  0.3712
17263TIP3    H173204   2.092   1.255   3.573  0.0016  0.8822  0.8517
17263TIP3    H273205   2.073   1.119   3.636  0.3586  0.7977  0.7787
17264TIP3   OH273206   1.720   0.615  12.853  0.4056  0.0129 -0.0779
17264TIP3    H173207   1.635   0.574  12.841 -0.4165  1.7790 -0.6246
17264TIP3    H273208   1.783   0.542  12.849 -1.0474 -1.3067  0.2872
17265TIP3   OH273209   1.994   1.462   4.057 -0.5979 -0.5541 -0.0377
17265TIP3    H173210   1.910   1.493   4.025 -0.3313  1.0407  0.7371
17265TIP3    H273211   2.049   1.540   4.063  0.7678 -1.4652  0.0342
17266TIP3   OH273212   1.939   4.027  11.470  0.3168 -0.3878  1.0469
17266TIP3    H173213   2.000   3.978  11.414 -0.3912  1.0073 -1.0766
17266TIP3    H273214   1.861   3.972  11.473  0.5620 -0.7386  1.1624
17267TIP3   OH273215   2.799   2.967  16.504 -0.3961  0.3031 -0.2875
17267TIP3    H173216   2.871   2.910  16.476  0.2398  0.2973  1.2700
17267TIP3    H273217   2.746   2.980  16.425  0.4093 -1.0238 -1.0704
17268TIP3   OH273218   2.380   6.183   2.554  0.3966 -0.5277  0.3013
17268TIP3    H173219   2.364   6.276   2.540  2.1746 -0.2586 -0.2267
17268TIP3    H273220   2.384   6.174   2.650  0.5617  0.0047  0.3491
17269TIP3   OH273221   0.206   0.908  16.149 -0.1501 -0.3564  0.0722
17269TIP3    H173222   0.182   0.875  16.235 -0.2982 -0.8363 -0.1498
17269TIP3    H273223   0.291   0.950  16.162 -1.2661  1.8188  0.9862
17270TIP3   OH273224   4.655   0.584  15.987  0.0123  0.2728 -0.2811
17270TIP3    H173225   4.606   0.548  15.913 -1.6241  0.1332  0.8181
17270TIP3    H273226   4.745   0.554  15.973  0.1108  1.5036 -2.9932
17271TIP3   OH273227   4.540   3.009   4.665 -0.4696  0.5228  0.4252
17271TIP3    H173228   4.489   2.967   4.734 -1.3054  0.5158 -0.1691
17271TIP3    H273229   4.565   3.093   4.701  0.1234  0.0427  1.1653
17272TIP3   OH273230   5.914   3.579   0.201  0.2957 -0.1389  0.0782
17272TIP3    H173231   5.863   3.585   0.120 -1.5328 -3.2025  0.8130
17272TIP3    H273232   5.888   3.495   0.239 -0.1014  1.6971  4.6121
17273TIP3   OH273233   5.697   0.988  12.002 -0.3667  0.4976 -0.0478
17273TIP3    H173234   5.672   1.029  12.084 -0.2241  0.2338  0.1279
17273TIP3    H273235   5.764   1.046  11.965 -0.0898  0.3682  0.2495
17274TIP3   OH273236   4.518   5.956   3.053 -0.8353 -0.5215 -0.5718
17274TIP3    H173237   4.609   5.930   3.037 -1.4736 -2.3172 -1.5964
17274TIP3    H273238   4.508   5.950   3.148  0.2653  0.3513 -0.3694
17275TIP3   OH273239   2.249   1.533  16.037 -0.7763 -0.3172 -0.0837
17275TIP3    H173240   2.185   1.596  16.004 -1.1548  0.2803  1.6843
17275TIP3    H273241   2.326   1.546  15.982 -1.4247  0.4973 -0.8332
17276TIP3   OH273242   4.211   5.891  15.025 -0.1397  0.2096 -0.1230
17276TIP3    H173243   4.246   5.806  15.050 -0.6849  0.0251  0.0096
17276TIP3    H273244   4.157   5.918  15.099 -0.4350  0.4087 -0.4076
17277TIP3   OH273245   0.840   3.470   1.036 -0.2083 -0.2019  0.4867
17277TIP3    H173246   0.781   3.488   0.963 -0.0537  0.2007  0.4543
17277TIP3    H273247   0.824   3.543   1.097  0.2532 -0.0910  0.4757
17278TIP3   OH273248   0.958   5.952   5.293  0.0120  0.0563  0.0082
17278TIP3    H173249   0.964   5.858   5.274 -0.7156 -0.2910  1.3969
17278TIP3    H273250   0.870   5.964   5.327 -0.2239  1.4315 -0.9921
17279TIP3   OH273251   3.057   4.202   5.450 -0.2135 -0.0460 -0.3635
17279TIP3    H173252   3.040   4.114   5.484  0.0757 -0.1941 -0.6017
17279TIP3    H273253   3.088   4.188   5.360  0.9574  0.2231 -0.0224
17280TIP3   OH273254   2.739   0.605   0.141 -0.2590 -0.0468  0.2769
17280TIP3    H173255   2.735   0.700   0.154  1.6070 -0.0825  1.4600
17280TIP3    H273256   2.744   0.568   0.229 -0.2029 -1.2002 -0.1878
17281TIP3   OH273257   3.377   5.433   3.080  0.3614 -0.3127 -0.3916
17281TIP3    H173258   3.301   5.381   3.107  0.6491 -1.0279 -0.9594
17281TIP3    H273259   3.417   5.384   3.009  0.9924  0.3831 -0.5332
17282TIP3   OH273260   3.643   3.798   3.958 -0.5600  0.7886 -0.3365
17282TIP3    H173261   3.608   3.716   3.924 -1.8338  1.0897  0.2077
17282TIP3    H273262   3.738   3.786   3.956 -0.7438 -1.2163  1.0017
17283TIP3   OH273263   2.162   5.606  11.757 -0.3367 -0.8544  0.3224
17283TIP3    H173264   2.214   5.648  11.825  1.4721 -1.0056 -0.8892
17283TIP3    H273265   2.227   5.569  11.697 -1.8333 -0.5682 -1.5764
17284TIP3   OH273266   4.584   6.198   6.148  0.2380  0.2962  0.1908
17284TIP3    H173267   4.631   6.173   6.227  2.3330  1.7043 -0.5108
17284TIP3    H273268   4.525   6.269   6.176  0.5986  0.4471  0.5688
17285TIP3   OH273269   2.729   3.074  12.064  0.2692 -0.3097  0.0453
17285TIP3    H173270   2.792   3.141  12.089 -0.2165 -0.3135  1.3819
17285TIP3    H273271   2.644   3.118  12.070  0.0217 -0.7682 -0.0410
17286TIP3   OH273272   3.332   3.116   1.993 -0.3188  0.1656 -0.1485
17286TIP3    H173273   3.267   3.058   1.953  1.9548 -1.1095 -2.3967
17286TIP3    H273274   3.324   3.101   2.087 -0.2401 -3.4844 -0.5857
17287TIP3   OH273275   5.162   6.317   3.092 -0.0360  0.1061 -0.0387
17287TIP3    H173276   5.239   6.275   3.054  0.2660 -0.0072  0.6836
17287TIP3    H273277   5.152   6.276   3.178  1.2386  2.5946  1.4198
17288TIP3   OH273278   2.770   3.665   2.673  0.0168 -0.2284  0.2902
17288TIP3    H173279   2.685   3.688   2.637  1.2296  3.5954 -0.5333
17288TIP3    H273280   2.754   3.655   2.767 -1.6181 -1.5547 -0.0870
17289TIP3   OH273281   5.928   3.947   5.814 -0.2436 -0.3927 -0.3434
17289TIP3    H173282   5.845   3.980   5.780 -0.8636 -1.0979  0.4431
17289TIP3    H273283   5.905   3.866   5.860  0.4243  0.7933  2.2828
17290TIP3   OH273284   1.422   4.854   5.689  0.0703 -0.0853 -0.0784
17290TIP3    H173285   1.518   4.847   5.691  0.3524  2.6116  0.5047
17290TIP3    H273286   1.398   4.827   5.601  1.4186 -0.4596 -0.3605
17291TIP3   OH273287   2.998   3.044   3.369  0.1612 -0.0912 -0.7879
17291TIP3    H173288   3.082   3.037   3.325 -0.0442  1.3655 -1.4462
17291TIP3    H273289   2.935   3.064   3.300 -0.5577 -0.0440 -0.1477
17292TIP3   OH273290   4.260   1.177   1.492  0.0707 -0.0429  0.2067
17292TIP3    H173291   4.316   1.231   1.548 -1.5114  1.1329  0.7249
17292TIP3    H273292   4.171   1.200   1.517 -0.7559  1.0055 -3.2055
17293TIP3   OH273293   1.873   3.055   2.623  0.6000  0.0938  0.2217
17293TIP3    H173294   1.951   3.036   2.676  1.1590  0.6810 -0.3674
17293TIP3    H273295   1.896   3.135   2.575  0.3140 -0.6809 -1.2812
17294TIP3   OH273296   2.040   2.589  14.645 -0.5464 -0.7509  0.7847
17294TIP3    H173297   2.053   2.530  14.719  0.6506 -0.4796  0.8060
17294TIP3    H273298   2.050   2.677  14.682  1.5173 -0.6300  0.0845
17295TIP3   OH273299   0.807   2.592  15.457 -0.1830  0.3539  0.3081
17295TIP3    H173300   0.731   2.633  15.416 -0.5881 -0.1707  0.5162
17295TIP3    H273301   0.856   2.665  15.495 -0.1117  0.7801 -0.5936
17296TIP3   OH273302   6.219   1.347  12.480 -0.1110  0.3685 -0.2647
17296TIP3    H173303   6.214   1.277  12.544 -1.0716 -0.4814 -1.2241
17296TIP3    H273304   6.276   1.413  12.520 -0.7332 -0.0958  1.4600
17297TIP3   OH273305   6.238   0.012  11.436  0.4632 -0.3756  0.4967
17297TIP3    H173306   6.222  -0.013  11.345  0.0073 -0.0566  0.4841
17297TIP3    H273307   6.328   0.044  11.437  0.6420 -0.8711  0.2660
17298TIP3   OH273308   1.066   3.140   3.804 -0.2754 -0.5040  0.1508
17298TIP3    H173309   1.070   3.191   3.885 -1.8292 -1.8582  1.1372
17298TIP3    H273310   1.134   3.178   3.748  0.6917  0.6115  2.0001
17299TIP3   OH273311   6.052   5.307  15.475 -0.3903  0.1045 -0.4754
17299TIP3    H173312   6.039   5.389  15.428 -1.6218  0.2893  0.1337
17299TIP3    H273313   6.144   5.308  15.502 -0.4778  1.4602 -0.1642
17300TIP3   OH273314   6.092   2.449   5.777  0.1182 -0.3790 -0.0576
17300TIP3    H173315   6.028   2.482   5.840  0.5844 -0.1199  0.2855
17300TIP3    H273316   6.104   2.357   5.800 -0.2142 -0.4599 -0.1984
17301TIP3   OH273317   5.406   3.720   0.437 -0.1002 -0.3008  0.2684
17301TIP3    H173318   5.375   3.673   0.359 -0.6494  0.7126 -0.1402
17301TIP3    H273319   5.482   3.770   0.407  0.2612 -0.6316  0.6178
17302TIP3   OH273320   0.122   4.711  16.531 -0.1547 -0.7777 -0.0813
17302TIP3    H173321   0.187   4.646  16.559 -0.1190 -0.4756  0.5416
17302TIP3    H273322   0.135   4.717  16.436  0.2048 -1.2822 -0.0706
17303TIP3   OH273323   3.467   6.570   0.880 -0.6094  0.1576  0.2883
17303TIP3    H173324   3.383   6.573   0.924 -0.2849  2.2915  0.8815
17303TIP3    H273325   3.525   6.622   0.936  0.6874  0.0794 -0.9234
17304TIP3   OH273326   3.016   3.074   4.078 -0.6866 -0.1515  0.2214
17304TIP3    H173327   2.960   3.054   4.153 -0.0936 -0.6188  0.5472
17304TIP3    H273328   2.966   3.044   4.002 -1.8020  1.3908  0.3059
17305TIP3   OH273329   6.077   0.125   2.827 -0.0939  0.4226 -0.5172
17305TIP3    H173330   6.142   0.195   2.831 -1.4358  1.8165 -1.7088
17305TIP3    H273331   6.063   0.110   2.734 -0.4512 -0.8814 -0.2789
17306TIP3   OH273332   0.437   4.400   4.434 -0.0488  0.0125 -0.1405
17306TIP3    H173333   0.449   4.435   4.523 -1.0300  0.1921 -0.0679
17306TIP3    H273334   0.523   4.411   4.393  0.6345 -0.7920  1.0243
17307TIP3   OH273335   2.985   1.167   5.127  0.2637 -0.5782  1.2804
17307TIP3    H173336   2.957   1.253   5.157 -0.2126  0.0737 -0.9149
17307TIP3    H273337   3.081   1.174   5.122  0.1053  0.7884 -1.4345
17308TIP3   OH273338   6.399   3.047   2.334  0.2022  0.0136  0.1099
17308TIP3    H173339   6.437   3.034   2.247 -1.6251  0.8522 -0.8787
17308TIP3    H273340   6.397   3.142   2.346 -0.1051 -0.0733  0.8156
17309TIP3   OH273341   4.352   1.924   2.763  0.0016  0.1802 -0.0006
17309TIP3    H173342   4.292   1.995   2.741 -0.2763 -0.3637 -1.0767
17309TIP3    H273343   4.299   1.861   2.812  0.2757  0.7412  1.0561
17310TIP3   OH273344   4.881   3.320  11.496 -0.5497 -0.8403  0.1257
17310TIP3    H173345   4.848   3.402  11.459  1.1127  0.4036  1.2556
17310TIP3    H273346   4.877   3.258  11.423 -1.2969  0.3842 -0.9230
17311TIP3   OH273347   3.622   3.577   2.046  0.5650  0.1124  0.1367
17311TIP3    H173348   3.560   3.542   1.982 -1.2661  1.5584  0.9838
17311TIP3    H273349   3.670   3.645   1.999  2.6048 -1.9148 -0.9099
17312TIP3   OH273350   5.185   1.757  16.528 -0.4784  0.3621 -0.3729
17312TIP3    H173351   5.194   1.811  16.449 -1.7392  0.9702 -0.1340
17312TIP3    H273352   5.152   1.817  16.595  0.4540 -0.1771  0.6017
17313TIP3   OH273353   1.434   5.955  10.946  0.0795  0.5136 -0.2162
17313TIP3    H173354   1.496   6.025  10.924  0.6235  0.5239  1.2463
17313TIP3    H273355   1.413   5.914  10.862  0.6710  1.6626 -0.9517
17314TIP3   OH273356   2.995   6.441   2.863 -0.6084  0.0752 -0.4367
17314TIP3    H173357   2.960   6.489   2.938  2.8175  3.4738 -0.7061
17314TIP3    H273358   2.942   6.471   2.789 -2.1333 -1.0693  0.1319
17315TIP3   OH273359   6.476   6.475   5.135  0.3769  0.0565  0.0427
17315TIP3    H173360   6.437   6.402   5.086 -1.9466 -0.4086  2.3637
17315TIP3    H273361   6.518   6.433   5.210  0.5247  0.9840  0.4854
17316TIP3   OH273362   5.982   3.266  13.978 -0.2115 -0.6326  0.2587
17316TIP3    H173363   6.036   3.244  14.054 -0.0877  2.1284  1.0441
17316TIP3    H273364   6.036   3.324  13.925 -1.6429  0.5745  0.0345
17317TIP3   OH273365   2.289   1.295   6.551 -0.0805 -0.0269 -0.4947
17317TIP3    H173366   2.199   1.262   6.557  0.1966 -0.5611  1.2218
17317TIP3    H273367   2.303   1.309   6.457 -1.9634  0.1213 -0.7918
17318TIP3   OH273368   2.572   4.890   5.926  0.1166 -0.2591 -0.5876
17318TIP3    H173369   2.578   4.835   6.004 -2.1393 -1.7472 -1.3844
17318TIP3    H273370   2.509   4.958   5.949  0.6480  0.2461 -0.6028
17319TIP3   OH273371   0.876   3.326  13.106 -0.6396  0.8338  0.2950
17319TIP3    H173372   0.899   3.235  13.087 -0.8029  1.1714 -1.6710
17319TIP3    H273373   0.856   3.364  13.021  2.0817  3.4919  0.7000
17320TIP3   OH273374   4.607   0.028   6.810 -0.1302  0.0085  0.5791
17320TIP3    H173375   4.575   0.117   6.800 -1.2591 -0.4654 -0.2653
17320TIP3    H273376   4.542  -0.015   6.865 -0.9648 -0.9427 -1.0725
17321TIP3   OH273377   2.662   2.790  12.087 -0.1264  0.5514  0.4187
17321TIP3    H173378   2.681   2.884  12.082 -0.0037  0.6321  1.8777
17321TIP3    H273379   2.734   2.753  12.139 -0.3351 -0.2960  0.1242
17322TIP3   OH273380   6.337   0.303   2.265  0.2815  0.1114  0.2169
17322TIP3    H173381   6.358   0.224   2.216 -0.0958 -0.4741  0.9868
17322TIP3    H273382   6.407   0.311   2.330  1.5077  1.5972 -1.1807
17323TIP3   OH273383   4.697   2.844   1.350  0.0121 -0.3482  0.1158
17323TIP3    H173384   4.677   2.837   1.257  0.3059  0.0099  0.0256
17323TIP3    H273385   4.618   2.810   1.394 -0.3171 -0.0659 -0.2528
17324TIP3   OH273386   4.074   0.385  15.031 -0.4096 -0.1292  0.0257
17324TIP3    H173387   4.122   0.404  14.950 -1.5711  3.9037  0.0588
17324TIP3    H273388   4.105   0.451  15.093 -2.7792 -0.2373  1.4328
17325TIP3   OH273389   0.327   0.431  12.635  0.2342 -0.0247 -0.0738
17325TIP3    H173390   0.385   0.418  12.710  0.0344 -0.8419 -0.0461
17325TIP3    H273391   0.300   0.522  12.640  0.4224 -0.0084  0.7030
17326TIP3   OH273392   3.327   2.710  15.935 -0.4501  0.0658  0.0218
17326TIP3    H173393   3.292   2.798  15.922 -0.4624  0.4943  2.4406
17326TIP3    H273394   3.264   2.668  15.994  1.1966 -0.3834  1.5585
17327TIP3   OH273395   2.076   3.478   0.695  0.1097 -0.5857  0.1446
17327TIP3    H173396   2.137   3.445   0.761  0.4058  0.7820  0.5794
17327TIP3    H273397   2.083   3.573   0.701 -1.9576 -0.3889  0.1013
17328TIP3   OH273398   1.628   5.009   1.118  0.3664 -0.0550  0.3379
17328TIP3    H173399   1.577   4.944   1.165  0.3328  0.5180  1.1101
17328TIP3    H273400   1.628   5.086   1.175  0.2303  0.7014 -0.6478
17329TIP3   OH273401   3.465   3.157   3.357  0.0024 -0.0590 -0.0624
17329TIP3    H173402   3.477   3.193   3.444 -0.7638  0.3869 -0.1304
17329TIP3    H273403   3.511   3.217   3.299  2.7992 -1.7415  0.2263
17330TIP3   OH273404   2.973   5.543   1.017 -0.4239  0.0448 -0.8051
17330TIP3    H173405   2.932   5.458   1.002  1.4337 -0.7442 -1.7136
17330TIP3    H273406   2.996   5.543   1.110 -2.5663  0.6081 -0.2097
17331TIP3   OH273407   5.380   4.851   5.977 -0.1107  0.4129 -0.6805
17331TIP3    H173408   5.447   4.907   5.938 -0.9024  1.7144 -0.2348
17331TIP3    H273409   5.298   4.897   5.962 -0.7629 -0.5309 -0.1159
17332TIP3   OH273410   2.403   4.736   1.092 -0.0041 -0.4276  0.0979
17332TIP3    H173411   2.470   4.672   1.067  1.1092  0.4713  0.6658
17332TIP3    H273412   2.321   4.687   1.091  0.3588 -1.1226 -2.4764
17333TIP3   OH273413   2.377   0.667  13.284 -0.4049 -0.1008  0.1401
17333TIP3    H173414   2.395   0.684  13.376  1.5125  0.2895 -0.2736
17333TIP3    H273415   2.456   0.694  13.238 -2.0513  1.6617 -1.8634
17334TIP3   OH273416   0.404   5.544   5.355 -0.3088 -0.1559 -0.4079
17334TIP3    H173417   0.326   5.593   5.331  0.2142  1.5695  1.1902
17334TIP3    H273418   0.385   5.511   5.443 -0.7565 -3.1842 -1.5156
17335TIP3   OH273419   3.141   2.636  16.131 -0.0819 -0.4497 -0.1753
17335TIP3    H173420   3.071   2.700  16.114 -0.9992 -0.9284  1.5465
17335TIP3    H273421   3.198   2.680  16.194  1.4614  0.0846 -1.8405
17336TIP3   OH273422   6.672   5.192   6.487 -0.2656  0.3812  0.3079
17336TIP3    H173423   6.607   5.245   6.442 -0.8051  0.9464  1.6895
17336TIP3    H273424   6.630   5.170   6.571  0.2274 -1.6189  0.0713
17337TIP3   OH273425   2.812   0.306  12.293  0.0087 -0.3968 -0.0041
17337TIP3    H173426   2.862   0.320  12.374 -0.2169 -0.3324  0.1228
17337TIP3    H273427   2.746   0.375  12.292  1.6707  1.2872 -1.5699
17338TIP3   OH273428   5.808   5.277   4.188  0.4798  0.3033  0.0881
17338TIP3    H173429   5.890   5.313   4.154 -0.3390 -0.0469 -2.4782
17338TIP3    H273430   5.750   5.274   4.112 -2.0738  0.8850  1.8686
17339TIP3   OH273431   0.083   3.901  11.535  0.5067 -0.4537 -0.5012
17339TIP3    H173432   0.105   3.809  11.521 -0.0198 -0.9091  1.3440
17339TIP3    H273433   0.057   3.905  11.627  0.2551  1.4971 -0.6250
17340TIP3   OH273434   2.502   4.943   4.991 -0.3115  0.4474 -0.0575
17340TIP3    H173435   2.550   4.862   5.008  0.6826  1.0819  0.2187
17340TIP3    H273436   2.425   4.915   4.942 -0.1521 -0.7042  0.3209
17341TIP3   OH273437   4.455   3.870  14.495  0.0326  0.0188  0.5537
17341TIP3    H173438   4.549   3.856  14.485  0.3677  2.0340  0.3690
17341TIP3    H273439   4.449   3.943  14.557 -1.3614  0.5977 -0.2240
17342TIP3   OH273440   1.718   5.278  14.776 -0.1591 -0.4752  0.4028
17342TIP3    H173441   1.746   5.305  14.689  0.0587 -0.0685  0.5930
17342TIP3    H273442   1.720   5.183  14.774  2.2324 -0.4951  0.7087
17343TIP3   OH273443   4.179   3.133   2.175 -0.0074 -0.4273 -0.0555
17343TIP3    H173444   4.215   3.208   2.129  0.4959 -1.0035 -0.6301
17343TIP3    H273445   4.168   3.162   2.266  1.6200 -0.1315  0.0670
17344TIP3   OH273446   2.345   5.968   3.843  0.0746 -0.3337  0.4198
17344TIP3    H173447   2.394   6.044   3.872  0.3868 -0.1670 -0.4919
17344TIP3    H273448   2.375   5.897   3.900  1.2293 -0.1845  0.0241
17345TIP3   OH273449   4.601   3.982   5.184 -0.1478  0.4419 -0.4672
17345TIP3    H173450   4.549   4.041   5.239  0.4334 -0.8435  1.5883
17345TIP3    H273451   4.691   3.992   5.216  0.1137 -0.8065 -0.7561
17346TIP3   OH273452   4.531   6.100  17.136  0.3160 -0.0172 -0.0023
17346TIP3    H173453   4.560   6.122  17.047 -0.1355  1.5525  0.2133
17346TIP3    H273454   4.467   6.167  17.158 -0.3723 -0.9971  1.1303
17347TIP3   OH273455   0.354   5.489   4.747  0.3236  1.1311 -0.0396
17347TIP3    H173456   0.271   5.525   4.780 -0.1225 -0.0110  0.1209
17347TIP3    H273457   0.351   5.505   4.653  0.1263  1.4992  0.0273
17348TIP3   OH273458   4.659   3.895  12.931  0.9106 -0.5860  0.3296
17348TIP3    H173459   4.672   3.976  12.981  0.5076  0.1098 -0.6730
17348TIP3    H273460   4.593   3.847  12.981  1.1490 -0.3086  0.9296
17349TIP3   OH273461   1.578   6.381   5.889 -0.5021  0.2609 -0.1752
17349TIP3    H173462   1.552   6.313   5.952  0.1173  0.0442 -0.1453
17349TIP3    H273463   1.666   6.355   5.861 -1.1177 -0.1898 -1.8673
17350TIP3   OH273464   6.669   0.637  17.049 -0.5716 -0.0714  0.1634
17350TIP3    H173465   6.574   0.639  17.037 -0.5051  2.0050 -0.3923
17350TIP3    H273466   6.682   0.670  17.138 -0.3717 -0.5387  0.3086
17351TIP3   OH273467   1.739   4.760   0.259 -0.3702  0.1585 -0.0219
17351TIP3    H173468   1.773   4.684   0.307  2.4245  1.7712  0.7567
17351TIP3    H273469   1.786   4.758   0.175 -1.3543  0.2809 -0.5998
17352TIP3   OH273470   2.025   4.255   2.432 -0.7230 -0.1390 -0.6816
17352TIP3    H173471   2.109   4.210   2.436 -0.7750 -0.2679 -0.9966
17352TIP3    H273472   1.985   4.239   2.518  0.1329  1.0277 -0.0317
17353TIP3   OH273473   2.788   3.340   3.984 -0.2742 -0.8632  0.2457
17353TIP3    H173474   2.736   3.272   4.027 -1.6987  0.0276 -0.0007
17353TIP3    H273475   2.798   3.408   4.051 -0.9815 -0.2493 -0.2588
17354TIP3   OH273476   5.623   3.859   2.551 -0.3254  0.1352  0.0107
17354TIP3    H173477   5.667   3.940   2.577 -3.2121  1.4961  1.1336
17354TIP3    H273478   5.531   3.884   2.543 -0.8678 -2.2744 -3.1686
17355TIP3   OH273479   0.780   1.352   5.366  0.0100  0.4296  0.0477
17355TIP3    H173480   0.770   1.410   5.442  0.7321 -0.7120  1.0349
17355TIP3    H273481   0.862   1.380   5.325  0.7702 -0.3849  0.9815
17356TIP3   OH273482   4.671   1.821  16.524  0.0016  0.0500  0.5633
17356TIP3    H173483   4.735   1.750  16.521  1.4276  1.3237 -0.1212
17356TIP3    H273484   4.639   1.829  16.435  1.1759  1.3913  0.2184
17357TIP3   OH273485   6.277   2.049   6.072  0.4279  0.1138  0.2652
17357TIP3    H173486   6.237   1.969   6.038  2.5309 -0.7483 -0.3363
17357TIP3    H273487   6.276   2.037   6.167  0.6425 -0.6203  0.1848
17358TIP3   OH273488   2.081   5.374  13.113  0.7505  0.8617 -0.4185
17358TIP3    H173489   2.034   5.353  13.032  2.3696  1.2715 -1.5261
17358TIP3    H273490   2.098   5.289  13.154  2.4745  0.3287 -2.0687
17359TIP3   OH273491   2.212   6.639  17.322 -0.3913  0.1236  0.0464
17359TIP3    H173492   2.127   6.597  17.309 -0.4422 -0.2874  1.4541
17359TIP3    H273493   2.274   6.582  17.278 -0.4512 -1.5643  1.9986
17360TIP3   OH273494   4.848   6.209  12.650  0.3722 -0.7639 -0.4833
17360TIP3    H173495   4.804   6.191  12.733 -2.0417  0.2070 -1.4631
17360TIP3    H273496   4.912   6.278  12.671  0.6696 -1.3990  0.7749
17361TIP3   OH273497   5.898   5.349   2.146  0.4295 -0.2404  0.1260
17361TIP3    H173498   5.873   5.280   2.207  1.5392 -0.5160  0.2828
17361TIP3    H273499   5.859   5.429   2.182  0.7252 -0.4714  0.9729
17362TIP3   OH273500   3.635   6.087   1.604  0.1284 -0.4295 -0.1881
17362TIP3    H173501   3.594   6.149   1.544  0.5593  0.3249  0.2719
17362TIP3    H273502   3.583   6.092   1.684  0.6384 -0.0465  0.1296
17363TIP3   OH273503   3.696   5.772  11.784  0.0454 -0.0866  0.4421
17363TIP3    H173504   3.723   5.862  11.806 -0.9524  0.0853  1.0142
17363TIP3    H273505   3.711   5.765  11.689 -3.2260  1.9468 -0.4022
17364TIP3   OH273506   0.425   2.836   1.989 -0.1994  0.1645  0.2707
17364TIP3    H173507   0.389   2.924   1.989 -0.0349  0.2311  0.0552
17364TIP3    H273508   0.509   2.844   1.944  0.7589  0.2889  2.0075
17365TIP3   OH273509   4.630   6.126  13.575 -0.0457 -0.1063 -1.0394
17365TIP3    H173510   4.692   6.198  13.571  0.5643 -0.6471 -1.4795
17365TIP3    H273511   4.654   6.077  13.654  0.5502 -0.7118 -1.5800
17366TIP3   OH273512   1.428   6.709  15.328  0.2761 -0.0217  0.2137
17366TIP3    H173513   1.434   6.652  15.251  0.0475  1.2890 -0.8074
17366TIP3    H273514   1.423   6.649  15.402  0.5180 -1.3185 -0.7929
17367TIP3   OH273515   0.346   4.036   2.180  1.0002  0.0682 -0.4835
17367TIP3    H173516   0.361   3.952   2.225  1.2127 -1.1708 -2.6895
17367TIP3    H273517   0.277   4.016   2.116 -1.6913  2.6023  1.3846
17368TIP3   OH273518   3.431   1.889   4.880  0.9188 -0.1502  0.5414
17368TIP3    H173519   3.441   1.794   4.887  3.5856 -0.0236 -0.3501
17368TIP3    H273520   3.469   1.910   4.795 -0.4079  1.6585  0.3462
17369TIP3   OH273521   2.146   4.386  16.046  0.2808 -0.1828 -0.2116
17369TIP3    H173522   2.137   4.358  15.955  2.9250  0.5983 -0.7857
17369TIP3    H273523   2.185   4.473  16.041 -0.0301  0.1221  1.6927
17370TIP3   OH273524   6.349   5.358  14.308  0.1482 -0.6827  0.5098
17370TIP3    H173525   6.281   5.313  14.357  0.0123 -1.4665 -0.3627
17370TIP3    H273526   6.311   5.441  14.283 -1.1280 -1.7471 -1.3457
17371TIP3   OH273527   5.182   5.932   3.251  0.1625 -0.0725 -0.1434
17371TIP3    H173528   5.221   5.845   3.259  0.3277 -0.1307 -1.3307
17371TIP3    H273529   5.252   5.987   3.215 -1.3346 -0.7612 -4.9348
17372TIP3   OH273530   0.477   4.696   5.044 -0.2420  0.2570 -0.2688
17372TIP3    H173531   0.473   4.791   5.034  1.5959  0.2899 -1.1655
17372TIP3    H273532   0.540   4.667   4.978 -1.2310 -1.6741 -0.4504
17373TIP3   OH273533   1.342   6.513  12.631  0.4787 -0.5242 -0.1845
17373TIP3    H173534   1.421   6.463  12.613  1.0136  0.6588 -1.3800
17373TIP3    H273535   1.293   6.510  12.548 -0.8118 -1.3476  0.5766
17374TIP3   OH273536   5.016   5.241   0.557 -0.1395 -0.3154 -0.0019
17374TIP3    H173537   5.006   5.207   0.646 -1.9476 -1.4354 -0.5835
17374TIP3    H273538   5.046   5.166   0.506  0.6812  0.2693 -0.3971
17375TIP3   OH273539   3.189   3.983   1.836 -0.8060  0.6360 -0.0396
17375TIP3    H173540   3.234   3.902   1.811  1.1228  1.6894 -0.2184
17375TIP3    H273541   3.110   3.955   1.882 -0.5479 -1.3297 -0.7317
17376TIP3   OH273542   5.887   5.529   1.256  0.0189 -0.3096 -0.1843
17376TIP3    H173543   5.842   5.461   1.307 -1.1829  0.2762 -0.4232
17376TIP3    H273544   5.890   5.604   1.315  1.7757 -0.6738  0.2540
17377TIP3   OH273545   2.591   5.301  13.399 -0.1266  0.1085 -0.0274
17377TIP3    H173546   2.554   5.324  13.484 -1.7501  0.2423 -0.7338
17377TIP3    H273547   2.566   5.373  13.342  0.4240 -0.2729 -0.7581
17378TIP3   OH273548   1.047   6.448  14.587  0.3391  0.2225 -0.6318
17378TIP3    H173549   1.017   6.497  14.664  0.7442  0.7699 -0.8153
17378TIP3    H273550   1.142   6.459  14.587  0.5129 -1.0958 -0.3259
17379TIP3   OH273551   4.927   5.398   6.472 -0.7103 -0.4236  0.0037
17379TIP3    H173552   4.913   5.481   6.428 -2.6643 -0.8627 -0.2952
17379TIP3    H273553   4.875   5.335   6.422  2.7298 -2.4550 -1.3930
17380TIP3   OH273554   4.136   3.906   4.946 -0.3219 -0.2986 -0.1014
17380TIP3    H173555   4.127   3.912   5.041  0.5692  0.9137 -0.0764
17380TIP3    H273556   4.055   3.863   4.917 -0.3409 -1.2320  1.2441
17381TIP3   OH273557   5.398   1.926   4.066  0.4317  0.1475 -0.3563
17381TIP3    H173558   5.462   1.893   4.129  0.3127 -0.3552 -0.4973
17381TIP3    H273559   5.338   1.853   4.051  0.0470  0.4894 -0.5198
17382TIP3   OH273560   4.487   2.617   5.872 -0.0024 -0.0862 -0.5783
17382TIP3    H173561   4.408   2.672   5.870 -0.4454 -0.7293 -1.2791
17382TIP3    H273562   4.530   2.634   5.788  0.1771 -0.3580 -0.5410
17383TIP3   OH273563   3.647   6.520  16.476 -0.4854  0.3185 -0.2897
17383TIP3    H173564   3.680   6.574  16.548 -2.4470  1.6457 -0.3247
17383TIP3    H273565   3.633   6.581  16.404  0.3898 -0.8144 -1.4670
17384TIP3   OH273566   5.790   5.755   2.709 -0.3329  0.4901 -0.3626
17384TIP3    H173567   5.778   5.783   2.800  0.4304 -0.8998  0.2017
17384TIP3    H273568   5.737   5.816   2.658  0.3049  2.1302  0.8780
17385TIP3   OH273569   4.085   1.717   2.516 -0.2557 -0.2250  0.2579
17385TIP3    H173570   4.118   1.772   2.444  1.0236 -0.2811  0.7655
17385TIP3    H273571   4.037   1.778   2.572  1.2913  0.4746  0.9011
17386TIP3   OH273572   2.746   3.441  13.863 -0.4962  0.8873  0.1150
17386TIP3    H173573   2.715   3.352  13.848 -1.2741  1.4312 -1.8712
17386TIP3    H273574   2.667   3.490  13.887  0.3006  0.6131  3.8851
17387TIP3   OH273575   4.233   3.871   3.494  0.6164  0.7908 -0.1489
17387TIP3    H173576   4.193   3.840   3.412  0.8252  0.6701 -0.2060
17387TIP3    H273577   4.159   3.883   3.554  0.3717  1.6509 -0.6009
17388TIP3   OH273578   0.232   0.031   6.176 -0.4960  0.2357 -0.3772
17388TIP3    H173579   0.305   0.088   6.198 -1.6844  0.4965  3.7203
17388TIP3    H273580   0.272  -0.040   6.125  2.4823  0.7726  0.9753
17389TIP3   OH273581   1.113   3.283  16.027  0.2192  0.4517  0.0057
17389TIP3    H173582   1.081   3.336  16.100  0.2011  1.0231 -0.4056
17389TIP3    H273583   1.059   3.204  16.029  0.7341  0.1211  1.0690
17390TIP3   OH273584   3.041   4.992  14.386  0.4573 -0.1226 -0.0918
17390TIP3    H173585   3.005   4.996  14.298  1.6148 -0.4591 -0.6006
17390TIP3    H273586   2.965   4.989  14.443 -0.3098  0.2822 -1.0669
17391TIP3   OH273587   4.083   0.370  12.625 -0.3809  0.1061 -0.3255
17391TIP3    H173588   4.061   0.352  12.717  0.6165 -0.7855 -0.2503
17391TIP3    H273589   4.012   0.329  12.575 -1.6678  1.7559  0.0549
17392TIP3   OH273590   4.609   3.792   5.528  0.1890 -0.2251 -0.0364
17392TIP3    H173591   4.613   3.744   5.445  1.2663 -1.6691  0.7909
17392TIP3    H273592   4.655   3.874   5.511  0.5863 -0.5980 -0.8098
17393TIP3   OH273593   6.189   0.291  12.156 -0.2507  0.5356 -0.1921
17393TIP3    H173594   6.141   0.227  12.102 -2.7847  2.0738  0.0602
17393TIP3    H273595   6.266   0.314  12.104 -0.5427 -0.9223 -1.3438
17394TIP3   OH273596   2.798   5.097   0.568  0.4012 -0.2084  0.6779
17394TIP3    H173597   2.758   5.159   0.629 -0.0377 -0.3864  0.5729
17394TIP3    H273598   2.889   5.089   0.598 -0.0292 -0.9684  1.8564
17395TIP3   OH273599   3.516   0.666  13.225 -0.0781  0.0633  0.4415
17395TIP3    H173600   3.528   0.623  13.310 -1.5542  0.6154  0.9692
17395TIP3    H273601   3.555   0.753  13.237  2.2436 -0.7882 -0.3900
17396TIP3   OH273602   4.731   3.508   4.192  0.2917 -0.0259 -0.2807
17396TIP3    H173603   4.664   3.535   4.129 -1.4643  0.2204  1.5833
17396TIP3    H273604   4.814   3.527   4.149 -0.8130 -0.1013 -2.5867
17397TIP3   OH273605   3.984   3.579   0.104 -0.4872 -0.0027 -0.1393
17397TIP3    H173606   3.986   3.640   0.177 -0.5843 -2.2468  1.8872
17397TIP3    H273607   4.074   3.549   0.094  0.0070  1.9713 -2.6024
17398TIP3   OH273608   2.956   6.763  15.697  0.8353  0.1967 -0.2651
17398TIP3    H173609   2.864   6.743  15.717  1.2088 -1.1957  0.1154
17398TIP3    H273610   2.988   6.685  15.653  2.6105 -0.4590  2.0504
17399TIP3   OH273611   2.545   2.953   1.187 -0.2058  0.4965  0.4795
17399TIP3    H173612   2.459   2.949   1.144  0.2039  1.2549 -0.4448
17399TIP3    H273613   2.605   2.913   1.125  0.2139  0.5055  0.8733
17400TIP3   OH273614   1.987   0.804   0.982 -0.2654  0.7113 -0.4877
17400TIP3    H173615   2.080   0.798   1.004 -0.6020 -0.0748  0.8315
17400TIP3    H273616   1.954   0.873   1.039 -0.5020  0.9883 -0.9542
17401TIP3   OH273617   6.103   1.899   5.917 -0.5194 -0.5915 -0.0022
17401TIP3    H173618   6.022   1.917   5.965 -0.3859 -0.0544  0.0263
17401TIP3    H273619   6.075   1.882   5.827 -0.4947  1.8663 -0.5250
17402TIP3   OH273620   1.799   0.619  14.010  0.4164  0.1000  0.2186
17402TIP3    H173621   1.732   0.554  13.991  1.7956 -1.2031 -0.4354
17402TIP3    H273622   1.858   0.615  13.935  0.0972  2.7807 -0.2607
17403TIP3   OH273623   5.243   0.059   5.289 -0.0490  0.5001 -0.2075
17403TIP3    H173624   5.165   0.111   5.272 -0.5657  0.1511  0.9982
17403TIP3    H273625   5.293   0.110   5.352  0.4486  0.4822 -0.5803
17404TIP3   OH273626   2.181   0.046  17.030  0.2480  0.2835  0.0305
17404TIP3    H173627   2.257   0.037  16.973 -0.6723 -0.5481 -1.1304
17404TIP3    H273628   2.215   0.032  17.118  1.1599 -2.0214 -0.5995
17405TIP3   OH273629   0.162   3.782   5.803 -0.2992 -0.4016 -0.3745
17405TIP3    H173630   0.138   3.758   5.893 -1.7402  0.9749 -0.3565
17405TIP3    H273631   0.122   3.867   5.789  1.7094  0.4204 -1.6230
17406TIP3   OH273632   4.002   3.713   1.151 -0.1029 -0.0159 -0.1222
17406TIP3    H173633   3.927   3.773   1.153  1.0193  1.4233  1.2713
17406TIP3    H273634   3.968   3.631   1.186 -1.4205  0.0804 -1.1011
17407TIP3   OH273635   4.188   0.319  10.882 -0.4771  0.6612  0.4298
17407TIP3    H173636   4.137   0.308  10.801  0.5798 -1.8806  0.0096
17407TIP3    H273637   4.276   0.341  10.852 -0.6419  2.2251  1.0376
17408TIP3   OH273638   4.202   4.469   0.699  0.1698 -0.2794  0.3839
17408TIP3    H173639   4.272   4.411   0.669 -1.5814 -2.4055  0.0675
17408TIP3    H273640   4.157   4.496   0.619  0.2647  0.5473  0.6090
17409TIP3   OH273641   5.690   1.699   2.269 -0.4069  0.1142  0.2231
17409TIP3    H173642   5.697   1.603   2.262  0.2430  0.1945 -0.4231
17409TIP3    H273643   5.639   1.725   2.192 -1.3672  0.2114  0.8895
17410TIP3   OH273644   2.318   2.834  16.827 -0.4067 -0.2241  0.1561
17410TIP3    H173645   2.396   2.889  16.831  0.0281 -0.8445  0.5323
17410TIP3    H273646   2.350   2.750  16.793 -0.6040 -0.9758  1.7321
17411TIP3   OH273647   2.916   0.827   3.715 -0.4752  0.0151 -0.1856
17411TIP3    H173648   2.950   0.821   3.625 -1.0840 -0.8074 -0.3734
17411TIP3    H273649   2.821   0.824   3.705 -0.5467 -1.6091  0.5559
17412TIP3   OH273650   5.701   6.380   4.457  0.3215 -0.6756 -0.0071
17412TIP3    H173651   5.613   6.346   4.437 -0.1900 -0.2292  1.3374
17412TIP3    H273652   5.760   6.314   4.421 -0.5466 -0.7839 -1.3109
17413TIP3   OH273653   6.638   1.842   1.605  0.0548 -0.2524 -0.0007
17413TIP3    H173654   6.602   1.818   1.690 -1.3744 -0.0299 -0.5119
17413TIP3    H273655   6.617   1.768   1.548 -1.0427  0.5621 -0.6889
17414TIP3   OH273656   2.462   3.496   3.890  0.2386 -0.1451  0.2124
17414TIP3    H173657   2.451   3.446   3.971  1.7832 -1.2576 -0.2337
17414TIP3    H273658   2.532   3.558   3.910 -1.5777  1.8780  0.7240
17415TIP3   OH273659   6.520   4.906  17.090 -0.0717 -0.4235 -0.7391
17415TIP3    H173660   6.445   4.928  17.036 -1.8224 -0.4860  1.5265
17415TIP3    H273661   6.517   4.810  17.097  0.2744 -0.4333 -0.6853
17416TIP3   OH273662   6.455   3.075  13.941 -0.5935 -0.6572  0.3049
17416TIP3    H173663   6.510   3.051  13.867 -0.7320 -0.5974  0.1818
17416TIP3    H273664   6.468   3.004  14.005  0.1318 -0.3102  0.5491
17417TIP3   OH273665   0.808   4.862   5.573  0.3832  0.5618 -0.1972
17417TIP3    H173666   0.864   4.797   5.531  0.2071 -1.1482  2.0105
17417TIP3    H273667   0.730   4.865   5.518  0.9819 -0.0359 -1.1121
17418TIP3   OH273668   1.890   0.115  11.285  0.1478  0.3469  0.0304
17418TIP3    H173669   1.972   0.080  11.321 -0.6936 -0.3157  1.3451
17418TIP3    H273670   1.889   0.084  11.194  2.1000  1.7000 -0.5255
17419TIP3   OH273671   0.038   6.475  15.620 -0.1238  0.0853  0.2404
17419TIP3    H173672   0.112   6.468  15.679  1.2314  1.2508 -1.2400
17419TIP3    H273673   0.051   6.403  15.557 -0.0915  0.4644 -0.1871
17420TIP3   OH273674   1.636   1.644   0.111  0.1948 -0.6460  0.0600
17420TIP3    H173675   1.601   1.573   0.058 -0.7465 -0.0715 -0.1187
17420TIP3    H273676   1.669   1.708   0.048  1.2969 -1.0389  0.2250
17421TIP3   OH273677   5.395   2.879  17.242 -0.4914 -0.2374 -0.3683
17421TIP3    H173678   5.361   2.794  17.213 -0.1795 -0.7245  0.6525
17421TIP3    H273679   5.412   2.868  17.335 -0.8748  1.1037 -0.1202
17422TIP3   OH273680   0.455   3.462  12.600 -0.6110  0.7655  0.2742
17422TIP3    H173681   0.417   3.409  12.530 -0.8162  0.9277  0.2627
17422TIP3    H273682   0.521   3.516  12.556  0.5015 -0.3590  0.4659
17423TIP3   OH273683   4.872   6.556  13.343 -0.0788 -0.2329  0.3811
17423TIP3    H173684   4.779   6.540  13.326  0.0923 -0.3620 -0.5399
17423TIP3    H273685   4.878   6.650  13.361 -0.1313  0.2512 -1.7791
17424TIP3   OH273686   2.302   5.666   0.610  0.3616 -0.8790  0.4466
17424TIP3    H173687   2.371   5.672   0.544 -0.1064 -2.0397 -0.1687
17424TIP3    H273688   2.315   5.580   0.650  0.8842 -0.0443  2.1713
17425TIP3   OH273689   6.459   6.243  12.807  0.1753 -0.2106  0.6665
17425TIP3    H173690   6.450   6.319  12.865  0.8689 -0.2472  0.8392
17425TIP3    H273691   6.527   6.190  12.849 -0.1106 -0.7911  0.3976
17426TIP3   OH273692   3.148   1.920   3.632 -0.4640  0.8329  0.1750
17426TIP3    H173693   3.239   1.923   3.605 -0.6248  0.6921 -0.3857
17426TIP3    H273694   3.125   2.011   3.651  0.1816  0.7244  1.6533
17427TIP3   OH273695   0.235   4.518   6.789 -0.3805 -0.4599 -0.4259
17427TIP3    H173696   0.148   4.541   6.823  0.1223  0.6719  0.1416
17427TIP3    H273697   0.238   4.559   6.702 -0.7003 -1.1920 -0.7973
17428TIP3   OH273698   4.486   6.719   2.395 -0.1373  0.3082  0.6968
17428TIP3    H173699   4.461   6.691   2.482 -3.5285 -1.1114 -0.5659
17428TIP3    H273700   4.430   6.794   2.376 -0.7008 -0.4463 -0.8281
17429TIP3   OH273701   5.219   5.970   5.796  0.2529 -0.0301 -0.2728
17429TIP3    H173702   5.155   6.016   5.851  0.9458  0.0846  0.4454
17429TIP3    H273703   5.210   5.878   5.821  0.7384  0.0524  0.2099
17430TIP3   OH273704   3.331   1.555  14.448 -0.0337 -0.1908 -0.0825
17430TIP3    H173705   3.245   1.574  14.409  0.5127 -0.4942 -1.5148
17430TIP3    H273706   3.389   1.622  14.411  0.6684 -0.9726 -0.4236
17431TIP3   OH273707   4.481   4.526  12.557 -0.6891 -0.4374  0.1489
17431TIP3    H173708   4.401   4.476  12.544 -0.0677 -0.7692 -3.5883
17431TIP3    H273709   4.540   4.495  12.488  1.2477  2.5038  0.2859
17432TIP3   OH273710   0.422   4.864  16.536  0.1756 -0.1734 -0.0004
17432TIP3    H173711   0.335   4.904  16.527  0.3401  0.6377  1.5552
17432TIP3    H273712   0.432   4.810  16.458  0.2130  3.3078 -2.6365
17433TIP3   OH273713   0.482   5.966  15.919 -0.4041 -0.1136 -0.0621
17433TIP3    H173714   0.464   5.874  15.900  4.2123 -1.1211 -0.9809
17433TIP3    H273715   0.511   5.967  16.010  0.1879  0.2451 -0.2423
17434TIP3   OH273716   2.921   2.178   6.345 -0.0847 -0.6321 -0.7756
17434TIP3    H173717   3.008   2.159   6.379 -0.4499  1.0471  1.3120
17434TIP3    H273718   2.917   2.273   6.340 -2.0399 -0.6063  0.0078
17435TIP3   OH273719   0.279   6.531  13.688 -0.1509  0.1030  0.1326
17435TIP3    H173720   0.358   6.570  13.651 -0.9095  1.7435  0.1416
17435TIP3    H273721   0.237   6.602  13.737 -1.3456 -0.8762  0.6100
17436TIP3   OH273722   0.627   1.193   4.805  0.1456  0.0179 -0.3393
17436TIP3    H173723   0.678   1.122   4.846  0.7439 -0.4967 -1.9187
17436TIP3    H273724   0.648   1.270   4.859  0.3010 -0.7719  0.7789
17437TIP3   OH273725   6.572   4.761   0.167 -0.3135  0.1876  0.5731
17437TIP3    H173726   6.524   4.765   0.249 -0.4670 -1.3780  0.5888
17437TIP3    H273727   6.540   4.836   0.117  0.1580  1.4554  2.1130
17438TIP3   OH273728   5.000   4.958  12.322  0.0993 -0.2129  0.2789
17438TIP3    H173729   4.936   4.913  12.267  0.0921 -0.1276  0.2159
17438TIP3    H273730   5.076   4.969  12.265  0.5662 -1.2673  0.6828
17439TIP3   OH273731   5.946   4.718   4.611  0.7250 -0.1646  0.3265
17439TIP3    H173732   5.874   4.656   4.598 -1.4904  2.3984 -0.6463
17439TIP3    H273733   5.997   4.713   4.531  1.2961 -1.5682  0.7638
17440TIP3   OH273734   1.088   3.545  11.531 -1.0135  0.3913 -0.2737
17440TIP3    H173735   1.033   3.479  11.574  2.1331 -0.5250  2.8174
17440TIP3    H273736   1.125   3.500  11.455  0.9001 -1.5663  1.6454
17441TIP3   OH273737   5.585   4.880  14.051  0.0807 -0.6559  0.0483
17441TIP3    H173738   5.633   4.834  13.982 -2.0070 -1.0744 -1.2078
17441TIP3    H273739   5.609   4.972  14.039  0.6485 -0.8622 -0.4599
17442TIP3   OH273740   0.276   1.514  16.460  0.3910 -0.7313  0.6590
17442TIP3    H173741   0.329   1.561  16.524  0.6197 -0.7904  0.5149
17442TIP3    H273742   0.202   1.480  16.510 -0.3655  0.7194  0.5620
17443TIP3   OH273743   3.047   5.095  11.530 -0.2928 -0.3983  0.7901
17443TIP3    H173744   3.074   5.105  11.439  0.2071 -1.2582  0.8353
17443TIP3    H273745   3.106   5.029  11.566  2.2033  2.6038  2.8441
17444TIP3   OH273746   6.119   1.184   5.358  0.6110  0.4730  0.1890
17444TIP3    H173747   6.054   1.135   5.408 -0.1926  1.5036  0.1845
17444TIP3    H273748   6.173   1.228   5.425  1.3589 -0.4264  0.1941
17445TIP3   OH273749   6.173   6.442   1.176  0.6924  0.1554  0.1074
17445TIP3    H173750   6.162   6.531   1.209  2.5200  1.1306 -1.6780
17445TIP3    H273751   6.256   6.412   1.213  0.1250 -0.8310  0.6453
17446TIP3   OH273752   4.008   5.111   4.602 -0.6180 -0.3433  0.3153
17446TIP3    H173753   3.999   5.097   4.507 -0.4082  1.2464  0.0403
17446TIP3    H273754   3.988   5.026   4.640 -1.0467 -0.9280 -1.1408
17447TIP3   OH273755   5.028   1.669   5.122  0.3081 -0.4565  0.3185
17447TIP3    H173756   5.029   1.580   5.158  2.2375 -1.0332 -1.0403
17447TIP3    H273757   5.005   1.657   5.030 -0.1566  0.5476  0.2968
17448TIP3   OH273758   6.068   2.328  12.149 -0.0182  0.1903  0.4885
17448TIP3    H173759   5.981   2.340  12.110 -1.0241 -2.5986  1.6469
17448TIP3    H273760   6.053   2.336  12.243  0.3261 -2.9873  0.9266
17449TIP3   OH273761   0.813   1.523   5.620 -0.4856 -0.0454  0.5849
17449TIP3    H173762   0.752   1.591   5.647  0.1375  1.9875 -2.5517
17449TIP3    H273763   0.899   1.554   5.648 -0.4242 -0.7183  1.1641
17450TIP3   OH273764   1.145   5.055  12.367 -0.0691 -0.1507 -0.0981
17450TIP3    H173765   1.128   5.060  12.462  0.4148 -0.8781  0.0297
17450TIP3    H273766   1.107   4.971  12.340  0.0931 -0.0974 -0.4931
17451TIP3   OH273767   0.173   4.421  14.033  0.0780 -0.0759 -0.1812
17451TIP3    H173768   0.254   4.371  14.031  0.0284 -0.1226 -1.8885
17451TIP3    H273769   0.142   4.413  14.124 -0.0402 -3.2762 -0.4036
17452TIP3   OH273770   5.852   4.825   6.143 -0.6408 -0.4711  0.2577
17452TIP3    H173771   5.878   4.737   6.171  1.7013  0.3754  0.9046
17452TIP3    H273772   5.875   4.882   6.216 -0.7136  0.8882 -0.7356
17453TIP3   OH273773   4.643   4.409  10.719  0.3765  0.8239 -0.3386
17453TIP3    H173774   4.633   4.321  10.683 -0.0155  0.1770  1.2863
17453TIP3    H273775   4.738   4.425  10.717  0.6746 -0.5004  1.2645
17454TIP3   OH273776   3.494   2.538  11.456  0.0134  0.3169 -0.0148
17454TIP3    H173777   3.507   2.622  11.412  0.0134  1.3446  1.8527
17454TIP3    H273778   3.507   2.473  11.387 -1.7872  1.8562 -1.9418
17455TIP3   OH273779   1.454   5.560   0.653  0.1145 -0.1269  0.1600
17455TIP3    H173780   1.473   5.555   0.747  1.6198 -1.7310 -0.1695
17455TIP3    H273781   1.529   5.606   0.616  0.1009 -0.5461 -0.3950
17456TIP3   OH273782   4.241   1.405  11.965  0.8445  0.5225  0.3016
17456TIP3    H173783   4.218   1.334  11.905 -0.7224  0.5418  0.8271
17456TIP3    H273784   4.304   1.366  12.026 -0.0427 -0.4777  0.6211
17457TIP3   OH273785   0.067   3.893   1.749  0.6548  0.6300 -0.7197
17457TIP3    H173786   0.151   3.921   1.713  1.4805 -0.6556  0.1264
17457TIP3    H273787   0.048   3.811   1.703  0.5610  0.1956  0.0780
17458TIP3   OH273788   0.717   2.595   0.585 -0.1980  0.3384  0.4492
17458TIP3    H173789   0.631   2.577   0.624 -0.8354  2.0749 -0.0399
17458TIP3    H273790   0.745   2.677   0.626  1.0566 -0.0170  0.3250
17459TIP3   OH273791   4.927   6.658   3.295  0.2078  0.1233 -0.6197
17459TIP3    H173792   4.951   6.746   3.324  3.5564 -0.8536  0.0168
17459TIP3    H273793   4.964   6.651   3.208  0.8804 -0.9634 -0.2603
17460TIP3   OH273794   3.012   1.659   3.407  0.1246 -0.2651  0.0010
17460TIP3    H173795   2.989   1.625   3.320  0.1290  4.1097 -1.9508
17460TIP3    H273796   2.928   1.682   3.446  0.0815 -2.6604  1.5236
17461TIP3   OH273797   1.405   3.911   3.727 -0.3287  0.2935 -0.3831
17461TIP3    H173798   1.318   3.935   3.695 -0.0976  1.4359 -0.1865
17461TIP3    H273799   1.411   3.817   3.711 -1.8108  0.0980  0.0932
17462TIP3   OH273800   0.218   1.659  15.607 -0.5739  0.1862  0.3661
17462TIP3    H173801   0.234   1.709  15.687  0.3482 -1.3279  1.1889
17462TIP3    H273802   0.225   1.568  15.634  0.7287 -0.3765 -1.6053
17463TIP3   OH273803   1.886   5.254   2.281 -0.0231  0.1112 -0.0374
17463TIP3    H173804   1.841   5.232   2.199 -0.7355  1.0301  0.0871
17463TIP3    H273805   1.872   5.348   2.291  1.0901  0.2295  0.5305
17464TIP3   OH273806   3.737   6.061   2.513 -0.6163 -0.1345 -0.2524
17464TIP3    H173807   3.660   6.094   2.466  0.1160 -0.3933 -1.7034
17464TIP3    H273808   3.808   6.066   2.448  1.0087  1.7346  1.5446
17465TIP3   OH273809   3.900   2.657  14.935  0.5542 -0.2283 -0.1763
17465TIP3    H173810   3.885   2.572  14.975 -0.5226  0.7865  1.6988
17465TIP3    H273811   3.826   2.668  14.875 -0.5436  0.2824  1.2223
17466TIP3   OH273812   5.292   3.360   6.390  0.5008 -0.2337  0.7531
17466TIP3    H173813   5.375   3.317   6.404  0.7419 -0.1243 -0.2299
17466TIP3    H273814   5.227   3.301   6.428  0.9377 -0.8254  0.5983
17467TIP3   OH273815   3.438   0.095  16.918 -1.0253  0.1178 -0.4892
17467TIP3    H173816   3.460   0.116  17.009 -0.5380  1.7684 -0.9426
17467TIP3    H273817   3.366   0.154  16.897 -1.3245 -0.4515 -1.0876
17468TIP3   OH273818   3.629   0.807  16.796  0.1124 -0.2570 -0.0186
17468TIP3    H173819   3.556   0.772  16.746 -1.7142  1.9574  0.9352
17468TIP3    H273820   3.596   0.887  16.835  2.8624  0.4930  1.0441
17469TIP3   OH273821   3.316   0.442   2.255  0.5910  0.0379 -0.2214
17469TIP3    H173822   3.358   0.369   2.210 -3.3654 -0.7160 -3.2338
17469TIP3    H273823   3.274   0.402   2.331  2.8687  0.3410  1.2991
17470TIP3   OH273824   1.153   4.423   2.923  0.4379 -0.6882 -0.0536
17470TIP3    H173825   1.211   4.498   2.934 -0.8610  0.4449 -0.7313
17470TIP3    H273826   1.099   4.423   3.002  1.3351 -1.7780  0.6035
17471TIP3   OH273827   4.853   5.332  14.549 -0.0826  0.4480  0.3230
17471TIP3    H173828   4.897   5.416  14.538 -0.0202  0.2615 -1.0034
17471TIP3    H273829   4.866   5.310  14.642  0.0651  1.7938  0.6440
17472TIP3   OH273830   3.455   3.277  11.970 -0.1423 -0.2701 -0.2253
17472TIP3    H173831   3.422   3.288  11.881 -1.9945  2.0333  0.6295
17472TIP3    H273832   3.438   3.362  12.013 -0.4402 -1.6490  2.6418
17473TIP3   OH273833   3.703   5.110  11.746 -0.1072  0.3340 -0.1959
17473TIP3    H173834   3.748   5.148  11.822  0.2959 -0.5779  0.0314
17473TIP3    H273835   3.678   5.022  11.774  0.9139 -0.3849 -1.4432
17474TIP3   OH273836   1.851   4.518   1.303  0.1856  0.1641  0.4127
17474TIP3    H173837   1.762   4.493   1.327 -0.1985  0.9776 -0.1240
17474TIP3    H273838   1.907   4.463   1.358 -0.6326 -0.9113  0.2080
17475TIP3   OH273839   0.857   1.305   2.126 -1.0259  0.6633 -0.1598
17475TIP3    H173840   0.794   1.260   2.182  0.6492  0.5854  1.7296
17475TIP3    H273841   0.894   1.373   2.181  0.1577  1.0659 -1.4033
17476TIP3   OH273842   4.621   1.278   2.444 -0.3111 -0.3137 -0.5669
17476TIP3    H173843   4.670   1.305   2.366 -1.3854  1.4419 -0.6926
17476TIP3    H273844   4.638   1.347   2.508 -1.6113 -0.3196 -0.1892
17477TIP3   OH273845   6.395   5.869   4.952  0.1136  0.1661  0.0888
17477TIP3    H173846   6.368   5.927   5.023 -1.3156 -3.6103  2.9816
17477TIP3    H273847   6.477   5.830   4.982  0.5024 -0.1220 -1.2688
17478TIP3   OH273848   4.398   3.404   3.335 -0.0667  0.0677 -0.2487
17478TIP3    H173849   4.316   3.432   3.377  0.0507 -0.8530  0.6369
17478TIP3    H273850   4.374   3.325   3.286  0.4710 -0.7530  0.7873
17479TIP3   OH273851   4.107   0.043   1.167  0.5295  0.5252  0.6385
17479TIP3    H173852   4.091   0.135   1.186  0.8009  0.0926  3.2855
17479TIP3    H273853   4.060  -0.005   1.235  0.9459 -1.2978 -0.2739
17480TIP3   OH273854   4.771   0.035   4.960  0.0548 -0.2947 -0.5201
17480TIP3    H173855   4.740   0.014   4.872 -1.6623 -1.5022  0.3222
17480TIP3    H273856   4.814  -0.046   4.989 -0.4338 -0.2985  0.1904
17481TIP3   OH273857   6.064   1.323   0.411 -0.5484 -0.4150  0.4608
17481TIP3    H173858   6.117   1.378   0.353  0.1621 -0.7043  0.8335
17481TIP3    H273859   5.974   1.344   0.386 -0.2969 -1.7817 -2.0024
17482TIP3   OH273860   5.817   2.231   2.873  0.1678  0.3626 -0.0289
17482TIP3    H173861   5.738   2.178   2.880 -0.3781  1.1916  0.1454
17482TIP3    H273862   5.888   2.171   2.897 -0.2311 -0.8137 -1.6510
17483TIP3   OH273863   2.108   1.984   2.837  0.5562  0.1796  0.6874
17483TIP3    H173864   2.047   1.917   2.808  1.5218 -1.0349  1.4049
17483TIP3    H273865   2.192   1.958   2.799  1.2076  0.2481  2.0384
17484TIP3   OH273866   2.518   5.589   1.233 -0.7869  0.5297  0.9127
17484TIP3    H173867   2.430   5.564   1.261 -1.5243 -0.9366 -2.3127
17484TIP3    H273868   2.504   5.656   1.166  0.3754 -0.9223 -0.8672
17485TIP3   OH273869   2.727   4.987   1.789  0.4339  0.8070 -0.4742
17485TIP3    H173870   2.668   4.984   1.714 -2.2514  0.7476  1.4828
17485TIP3    H273871   2.745   5.080   1.801  0.6468  0.8385 -0.9846
17486TIP3   OH273872   2.557   3.133  14.588 -0.3595 -0.2220 -0.4610
17486TIP3    H173873   2.563   3.043  14.557 -0.7325 -0.7855  1.0059
17486TIP3    H273874   2.624   3.139  14.656  1.4025  1.3868 -2.2115
17487TIP3   OH273875   1.232   5.445   1.819  0.3335 -0.4526  0.3846
17487TIP3    H173876   1.273   5.418   1.737  0.7959 -1.6355  0.9874
17487TIP3    H273877   1.184   5.368   1.849 -0.4980  0.2170  0.8286
17488TIP3   OH273878   6.732   3.768  13.535 -0.6822 -0.0238 -0.1630
17488TIP3    H173879   6.721   3.858  13.507 -1.6031  0.3575  1.3324
17488TIP3    H273880   6.812   3.769  13.589 -1.0505  0.0510  0.3932
17489TIP3   OH273881   5.135   2.622  16.193 -0.1184 -0.5598 -0.1687
17489TIP3    H173882   5.089   2.677  16.256  0.7635 -1.0739  0.9492
17489TIP3    H273883   5.065   2.586  16.137 -0.9513 -0.3930  0.7495
17490TIP3   OH273884   0.344   1.682   0.695 -0.3732 -0.7286  0.0129
17490TIP3    H173885   0.392   1.626   0.756 -0.2349 -1.9600 -1.1693
17490TIP3    H273886   0.385   1.768   0.703  2.6708 -1.8889 -1.5502
17491TIP3   OH273887   4.644   1.018   3.680 -0.3906  0.5347 -0.2088
17491TIP3    H173888   4.714   0.964   3.718  1.9521  2.1177 -1.9473
17491TIP3    H273889   4.564   0.968   3.695  1.1260 -1.5594  1.5974
17492TIP3   OH273890   3.014   0.342   2.380 -0.3920  0.0326  0.2352
17492TIP3    H173891   3.100   0.307   2.401 -0.1039  0.1132 -0.7573
17492TIP3    H273892   2.952   0.283   2.422  0.0739 -1.6753 -1.3687
17493TIP3   OH273893   1.410   5.793  13.580  0.4300  0.3454 -0.1575
17493TIP3    H173894   1.453   5.873  13.608 -1.2369  1.5683 -0.9154
17493TIP3    H273895   1.322   5.820  13.555  0.8458 -1.0572 -3.8258
17494TIP3   OH273896   5.876   4.397  14.684 -0.2892  0.3475 -0.0202
17494TIP3    H173897   5.834   4.483  14.690 -0.0739  0.6145 -1.7228
17494TIP3    H273898   5.829   4.343  14.747 -1.0610  1.4678  0.4086
17495TIP3   OH273899   0.554   6.015  14.899  0.7428  0.2387  0.5226
17495TIP3    H173900   0.598   5.961  14.834 -1.2969 -0.8507 -0.0498
17495TIP3    H273901   0.531   6.096  14.853 -1.4875 -0.8848 -0.4693
17496TIP3   OH273902   4.552   2.187  17.340  0.4991  0.3999  0.4446
17496TIP3    H173903   4.471   2.136  17.340  1.3156 -0.9242  0.0279
17496TIP3    H273904   4.552   2.232  17.255  0.4436  0.0117  0.2401
17497TIP3   OH273905   2.193   4.504   0.066 -0.2067  0.2054  0.0448
17497TIP3    H173906   2.289   4.502   0.064 -0.1518  1.3861  0.3485
17497TIP3    H273907   2.171   4.594   0.043 -1.3459 -0.5989 -2.2122
17498TIP3   OH273908   3.288   1.650   3.598  0.6012 -0.4849  0.5478
17498TIP3    H173909   3.250   1.610   3.520 -0.6112 -0.7550  1.2623
17498TIP3    H273910   3.219   1.706   3.633  1.7664  1.0990  0.4029
17499TIP3   OH273911   5.420   1.129  11.296  0.3034 -0.0960 -0.5612
17499TIP3    H173912   5.475   1.200  11.330  0.6701 -0.0639 -1.2159
17499TIP3    H273913   5.411   1.069  11.370 -2.4996  2.0241  1.0092
17500TIP3   OH273914   0.901   4.637   5.188 -0.1510  0.6331  0.2387
17500TIP3    H173915   0.879   4.708   5.128  0.5849 -0.0763 -0.9322
17500TIP3    H273916   0.839   4.567   5.166  2.0313 -0.7862 -1.9785
17501TIP3   OH273917   4.083   5.201  13.321 -0.2044  0.2498 -0.3088
17501TIP3    H173918   4.172   5.169  13.306 -0.4954 -1.2664  0.9266
17501TIP3    H273919   4.091   5.263  13.394 -0.3157 -0.9453  0.7515
17502TIP3   OH273920   6.048   1.192   1.808 -0.2967 -0.3057 -0.2404
17502TIP3    H173921   6.087   1.108   1.782 -1.5788 -1.2015  0.6278
17502TIP3    H273922   6.122   1.243   1.841  0.3242 -1.5851  0.4199
17503TIP3   OH273923   1.346   0.359   2.660  0.5467  0.0046  0.7549
17503TIP3    H173924   1.331   0.265   2.670 -1.0466 -0.2093 -2.3060
17503TIP3    H273925   1.263   0.400   2.683  0.2132  0.3167 -0.8606
17504TIP3   OH273926   1.260   3.905  13.790 -0.2386  0.3957  0.1409
17504TIP3    H173927   1.169   3.906  13.763 -0.4355  0.8031  0.8016
17504TIP3    H273928   1.270   3.824  13.840 -0.2583  0.3873  0.1305
17505TIP3   OH273929   0.044   3.585   3.189  0.1290  0.6306  0.0944
17505TIP3    H173930   0.056   3.510   3.247  1.0038 -0.0039 -0.8703
17505TIP3    H273931   0.004   3.548   3.110 -3.6406  1.8720  1.1743
17506TIP3   OH273932   4.914   0.528   3.661 -0.6497 -0.2262 -0.2199
17506TIP3    H173933   5.006   0.541   3.682 -1.1490  0.4760  1.6574
17506TIP3    H273934   4.910   0.538   3.565  1.1636 -0.0393 -0.3067
17507TIP3   OH273935   2.749   1.467  11.460  0.4140  0.1080  0.2885
17507TIP3    H173936   2.686   1.404  11.494 -0.8904  1.5032  0.5535
17507TIP3    H273937   2.805   1.416  11.402 -0.8142 -1.2181  0.2254
17508TIP3   OH273938   6.298   6.510  14.879 -0.4232  0.1476  0.1427
17508TIP3    H173939   6.293   6.542  14.789 -2.3227 -1.5723 -0.4525
17508TIP3    H273940   6.318   6.417  14.870  2.1089  0.4644  1.6703
17509TIP3   OH273941   3.661   5.166   2.014  0.5402  0.2717  0.1413
17509TIP3    H173942   3.678   5.118   1.933  0.9591 -1.8974  1.4308
17509TIP3    H273943   3.664   5.099   2.082  0.3085  2.0416  1.9769
17510TIP3   OH273944   4.367   4.144   3.452  0.2040  0.1188  0.1196
17510TIP3    H173945   4.291   4.174   3.402 -2.1539 -2.2413  1.9695
17510TIP3    H273946   4.366   4.049   3.441  0.7248 -0.3049  2.9723
17511TIP3   OH273947   1.800   0.005  16.787 -0.0883 -0.4805 -0.0806
17511TIP3    H173948   1.868   0.073  16.787 -1.3396  0.8612 -1.6906
17511TIP3    H273949   1.822  -0.051  16.712 -2.3803  1.8744 -2.7838
17512TIP3   OH273950   5.622   1.997  12.186 -0.2744 -0.2543 -0.7794
17512TIP3    H173951   5.604   2.018  12.277 -1.3386 -0.2611 -0.9854
17512TIP3    H273952   5.710   1.959  12.187  0.4045  1.2705  0.0155
17513TIP3   OH273953   5.774   5.727  16.265 -0.6080  0.4452 -0.2657
17513TIP3    H173954   5.704   5.723  16.199 -0.9796  1.4487  0.0331
17513TIP3    H273955   5.758   5.652  16.322 -2.0780  1.1988  0.3780
17514TIP3   OH273956   5.163   4.615  11.204  0.7210  0.4415  0.3513
17514TIP3    H173957   5.196   4.607  11.115 -1.9204  1.6426 -0.8268
17514TIP3    H273958   5.100   4.544  11.214 -0.1924  1.2744  0.6700
17515TIP3   OH273959   0.789   1.014  15.416 -0.6659  0.7459 -0.1529
17515TIP3    H173960   0.718   1.022  15.352  0.1096 -0.6218 -1.2467
17515TIP3    H273961   0.849   0.950  15.377  0.5478  0.9389  1.3123
17516TIP3   OH273962   5.936   0.977  14.021  0.3197 -0.1917  1.0494
17516TIP3    H173963   5.922   0.894  13.974  0.2874  0.4150 -0.0404
17516TIP3    H273964   6.017   1.011  13.984 -0.2922  0.8386  0.6322
17517TIP3   OH273965   3.226   2.260  17.222  0.4678  0.7545  0.0122
17517TIP3    H173966   3.226   2.165  17.231 -2.9550  0.6375  0.0224
17517TIP3    H273967   3.220   2.293  17.311  2.1691  1.0416  0.0407
17518TIP3   OH273968   2.824   3.399  12.364  1.1765 -0.2615 -0.4837
17518TIP3    H173969   2.860   3.325  12.412  0.8289 -0.9762 -1.2954
17518TIP3    H273970   2.856   3.387  12.274  0.3898  0.0669 -0.8201
17519TIP3   OH273971   6.278   2.996   4.767 -0.4257  0.1606  0.1148
17519TIP3    H173972   6.356   2.941   4.773  0.3883  1.3268  0.6591
17519TIP3    H273973   6.259   3.021   4.858 -1.3095  0.0811 -0.0316
17520TIP3   OH273974   4.100   5.531   1.716 -0.1814 -0.0949 -0.6714
17520TIP3    H173975   4.074   5.466   1.651 -0.0826 -0.9855  0.1481
17520TIP3    H273976   4.152   5.481   1.780 -0.9253  0.5784  0.5001
17521TIP3   OH273977   5.641   4.714   6.487 -0.2588 -0.3189  0.3349
17521TIP3    H173978   5.579   4.643   6.474 -0.8717  0.3668 -0.5896
17521TIP3    H273979   5.587   4.787   6.517 -0.0215  0.4618 -1.0467
17522TIP3   OH273980   0.278   4.661  13.131  0.7011  0.0547  0.3049
17522TIP3    H173981   0.305   4.741  13.086 -0.4925  0.3936  0.1598
17522TIP3    H273982   0.334   4.593  13.093  1.1981  0.6891 -0.1265
17523TIP3   OH273983   5.474   3.006  14.966 -0.0933  0.1331 -0.0338
17523TIP3    H173984   5.545   3.048  15.016 -0.4321 -0.0237  0.5925
17523TIP3    H273985   5.490   3.033  14.875  0.9253 -0.1163  0.0542
17524TIP3   OH273986   3.656   3.305   0.790 -0.1538  0.1522  0.5299
17524TIP3    H173987   3.650   3.400   0.786 -0.8023  0.1122  0.4650
17524TIP3    H273988   3.689   3.287   0.879 -0.4748  0.4203  0.7054
17525TIP3   OH273989   0.750   4.601   5.769  0.3054 -0.5316  0.9542
17525TIP3    H173990   0.718   4.656   5.840 -0.6339 -0.0033  0.1483
17525TIP3    H273991   0.690   4.618   5.697  2.0085 -0.0288 -0.4222
17526TIP3   OH273992   2.442   0.120   4.830  0.6449  0.1496 -0.4942
17526TIP3    H173993   2.389   0.062   4.775  1.8446 -1.9036  0.3862
17526TIP3    H273994   2.474   0.064   4.901  1.2599  2.1006  0.8621
17527TIP3   OH273995   3.248   2.650   5.523  0.6146 -0.0426 -0.2645
17527TIP3    H173996   3.179   2.657   5.457 -0.7539 -0.9216  1.0095
17527TIP3    H273997   3.218   2.704   5.596  1.0911 -0.7200  0.4528
17528TIP3   OH273998   3.858   6.590   1.165 -0.0354 -0.1433  0.0962
17528TIP3    H173999   3.897   6.590   1.253  1.9920 -1.1471 -0.7264
17528TIP3    H274000   3.880   6.504   1.129 -1.3333  0.0247 -1.2034
17529TIP3   OH274001   4.467   4.710  13.848  0.0136 -0.5265  0.1966
17529TIP3    H174002   4.453   4.651  13.923 -0.9669 -1.0179 -0.3492
17529TIP3    H274003   4.516   4.783  13.885  1.1947 -1.6334  0.9114
17530TIP3   OH274004   3.670   0.846  15.257 -0.2631 -0.8325  0.2919
17530TIP3    H174005   3.652   0.908  15.327 -0.7223  1.4029 -1.6706
17530TIP3    H274006   3.594   0.788  15.255 -1.0855  0.2071  0.5397
17531TIP3   OH274007   5.080   1.893  11.695 -0.5654  0.3518 -0.1504
17531TIP3    H174008   5.168   1.926  11.713 -0.0076  0.4702 -2.7353
17531TIP3    H274009   5.022   1.954  11.740  0.6296  0.7327  0.9341
17532TIP3   OH274010   1.451   0.589   3.969 -0.3184 -0.0521 -0.0181
17532TIP3    H174011   1.371   0.593   3.917 -0.3493  0.7864  0.0903
17532TIP3    H274012   1.425   0.539   4.047 -1.3054  1.8710  0.9653
17533TIP3   OH274013   3.383   2.269  10.712 -0.2109  0.4468  0.2390
17533TIP3    H174014   3.354   2.352  10.674  1.2949 -0.0676 -2.2258
17533TIP3    H274015   3.305   2.213  10.707 -0.7088  1.1244  0.1790
17534TIP3   OH274016   2.398   0.241  17.195 -1.0754  0.4586  0.2579
17534TIP3    H174017   2.356   0.199  17.269 -0.2039  0.0615  0.5435
17534TIP3    H274018   2.458   0.304  17.235  2.1645 -2.2639  0.1386
17535TIP3   OH274019   2.953   5.883  16.248  0.0270 -0.3044 -0.1280
17535TIP3    H174020   2.995   5.892  16.334 -0.4380 -0.8393  0.1584
17535TIP3    H274021   3.015   5.923  16.187  1.0618 -1.2644  0.2553
17536TIP3   OH274022   2.446   4.811   0.134  0.0313 -0.0275 -0.1530
17536TIP3    H174023   2.498   4.792   0.212 -1.1808  1.9833  1.2496
17536TIP3    H274024   2.385   4.738   0.127  0.0291 -0.1492  0.9158
17537TIP3   OH274025   3.831   4.642   4.615 -0.0606  0.5656  0.5010
17537TIP3    H174026   3.786   4.559   4.598 -0.2358  1.1080 -2.2746
17537TIP3    H274027   3.830   4.686   4.530  0.7787  3.0541  1.7042
17538TIP3   OH274028   0.976   2.204  14.509 -0.0263 -0.0803  0.8127
17538TIP3    H174029   1.044   2.159  14.558  0.4399  1.0432  1.2364
17538TIP3    H274030   0.894   2.174  14.549  0.1520 -1.8791 -0.0799
17539TIP3   OH274031   2.521   6.490  12.939 -0.0823  0.1085 -0.1112
17539TIP3    H174032   2.457   6.474  13.009 -0.5492  1.3635 -0.2287
17539TIP3    H274033   2.484   6.445  12.863 -0.4537  0.2020  0.0097
17540TIP3   OH274034   0.222   6.620   3.055 -1.1537 -0.0684 -0.2068
17540TIP3    H174035   0.185   6.662   3.133 -0.3270  1.6446 -0.6864
17540TIP3    H274036   0.157   6.636   2.987  0.0025  2.3352 -0.8795
17541TIP3   OH274037   2.573   0.174   3.679 -0.5039 -0.1625 -0.5993
17541TIP3    H174038   2.584   0.265   3.652  0.6558 -0.3788 -0.9194
17541TIP3    H274039   2.516   0.178   3.756 -1.0254  0.7659 -1.0213
17542TIP3   OH274040   6.639   2.465   4.836  0.4054 -0.3892  0.1063
17542TIP3    H174041   6.571   2.471   4.903 -0.5320  0.6612 -0.9009
17542TIP3    H274042   6.721   2.476   4.884 -0.2362  0.1868  1.0964
17543TIP3   OH274043   1.175   0.466  11.010  0.0669  0.5308  0.1176
17543TIP3    H174044   1.123   0.467  10.929  0.5261 -0.6598 -0.2046
17543TIP3    H274045   1.117   0.427  11.075 -0.1657  1.1341  0.2806
17544TIP3   OH274046   4.112   4.580   0.468 -0.0224 -0.3785 -0.4642
17544TIP3    H174047   4.140   4.579   0.377 -2.7093  2.4503 -1.4854
17544TIP3    H274048   4.105   4.672   0.490 -3.5136 -0.8787  1.1622
17545TIP3   OH274049   0.339   4.883  15.559 -0.4516 -0.5969  0.0378
17545TIP3    H174050   0.378   4.808  15.606 -1.6842 -0.9678  0.5220
17545TIP3    H274051   0.247   4.857  15.545 -1.3300  1.4199  1.5772
17546TIP3   OH274052   6.127   0.529   5.475  0.3822  0.3913  0.0659
17546TIP3    H174053   6.146   0.531   5.382 -0.2835 -1.1789 -0.1368
17546TIP3    H274054   6.211   0.506   5.516  0.0880 -1.7946 -0.4251
17547TIP3   OH274055   0.727   1.672  14.947 -0.2300  0.6519  0.4741
17547TIP3    H174056   0.631   1.673  14.946 -0.3106 -1.7317  0.6574
17547TIP3    H274057   0.752   1.735  14.879 -1.9718 -0.1298 -0.9783
17548TIP3   OH274058   0.860   3.508   3.857  0.7745  0.7117  0.1890
17548TIP3    H174059   0.924   3.494   3.927  2.2255 -0.2478 -1.2712
17548TIP3    H274060   0.821   3.594   3.876  1.5636  0.7354  1.8123
17549TIP3   OH274061   6.347   3.057   1.295  0.2211 -0.1032 -0.5721
17549TIP3    H174062   6.393   3.018   1.220  1.4601  2.1036 -1.0562
17549TIP3    H274063   6.394   3.138   1.311 -1.4989  0.6143  1.1252
17550TIP3   OH274064   5.617   2.062  15.316  0.5226  0.2661 -0.1901
17550TIP3    H174065   5.539   2.117  15.323  1.2406  1.2404  0.3224
17550TIP3    H274066   5.583   1.976  15.293 -0.6245  0.9184 -1.0356
17551TIP3   OH274067   5.327   4.535  16.042  0.5261 -0.4335 -0.3094
17551TIP3    H174068   5.263   4.469  16.015 -0.9130  0.1342  1.4546
17551TIP3    H274069   5.357   4.506  16.128 -0.6110  1.4442  0.7943
17552TIP3   OH274070   4.014   1.135   3.190 -0.0073  0.2300 -0.9763
17552TIP3    H174071   4.007   1.223   3.226  0.4575  0.7197 -2.0425
17552TIP3    H274072   4.103   1.106   3.211 -0.1604 -0.0032 -0.6230
17553TIP3   OH274073   3.521   4.644  15.773  0.4316  0.6692  0.5135
17553TIP3    H174074   3.471   4.708  15.721 -0.1351  0.7078  1.0966
17553TIP3    H274075   3.528   4.567  15.716 -1.2915  0.2394  0.8363
17554TIP3   OH274076   0.230   6.543  16.233  0.3551  0.2747 -0.2583
17554TIP3    H174077   0.285   6.620  16.248  0.1715  0.4036 -0.2480
17554TIP3    H274078   0.143   6.569  16.264  0.5192 -0.2869  0.6896
17555TIP3   OH274079   0.423   1.824   2.600  0.6884  0.0183 -0.1443
17555TIP3    H174080   0.490   1.756   2.610  0.3297 -0.8173 -2.6232
17555TIP3    H274081   0.413   1.833   2.505 -0.7970  2.0580  0.1424
17556TIP3   OH274082   2.633   0.368  14.604 -0.5254  0.4395 -0.1858
17556TIP3    H174083   2.588   0.319  14.673 -0.2277  1.1953  0.5659
17556TIP3    H274084   2.590   0.454  14.604 -0.5370  0.4362 -0.9601
17557TIP3   OH274085   3.790   3.351   3.091 -0.1814 -0.1996 -0.2108
17557TIP3    H174086   3.863   3.364   3.151  1.2643  0.7799 -2.0598
17557TIP3    H274087   3.812   3.405   3.014 -2.4752 -0.4866 -1.1683
17558TIP3   OH274088   1.181   3.187  14.024 -0.4960 -0.0779 -0.4815
17558TIP3    H174089   1.146   3.264  14.069 -2.1308 -0.3695 -1.1813
17558TIP3    H274090   1.192   3.216  13.933 -0.4538 -0.4648 -0.6023
17559TIP3   OH274091   5.674   4.090  15.900 -0.0358 -0.1145  0.4093
17559TIP3    H174092   5.696   4.127  15.986  0.0235  0.7932  0.0210
17559TIP3    H274093   5.706   4.155  15.838  0.4916 -1.0640 -0.3327
17560TIP3   OH274094   1.296   0.986   2.857  0.1802 -0.1358  0.1206
17560TIP3    H174095   1.213   0.938   2.862  0.9591 -1.5125  0.4451
17560TIP3    H274096   1.347   0.939   2.791  1.2133 -0.1670  0.9204
17561TIP3   OH274097   2.869   0.940  12.580 -0.5026 -0.4835  0.4674
17561TIP3    H174098   2.898   1.028  12.603 -0.3423  0.0603 -1.5610
17561TIP3    H274099   2.947   0.899  12.542 -1.3479 -0.3088 -1.6032
17562TIP3   OH274100   3.870   1.270   4.446 -0.0240  0.0055 -0.4593
17562TIP3    H174101   3.835   1.192   4.403  1.0527 -0.3541 -0.6964
17562TIP3    H274102   3.918   1.237   4.522 -1.0183  0.5694  0.4602
17563TIP3   OH274103   5.788   4.498   5.750  0.2332 -0.5181 -0.1212
17563TIP3    H174104   5.871   4.479   5.793  0.3491 -0.8395 -0.4790
17563TIP3    H274105   5.724   4.444   5.797  0.4374 -1.2355 -0.6404
17564TIP3   OH274106   1.821   4.667  12.635 -0.2464  0.1048  0.0365
17564TIP3    H174107   1.792   4.671  12.726 -0.4561  1.3626 -0.0681
17564TIP3    H274108   1.769   4.596  12.596  1.1547 -1.7285  1.3097
17565TIP3   OH274109   2.915   2.506  17.097  0.2713  0.4926  0.1863
17565TIP3    H174110   2.834   2.520  17.049 -0.4925 -0.0526  1.2709
17565TIP3    H274111   2.922   2.581  17.156 -0.5324 -0.4116  1.5134
17566TIP3   OH274112   2.903   4.121  15.590  0.3372 -0.2987 -0.2350
17566TIP3    H174113   2.992   4.089  15.604  0.2813  0.2051  1.4373
17566TIP3    H274114   2.914   4.214  15.572  0.2320 -0.5132 -1.5153
17567TIP3   OH274115   1.635   4.145   4.314 -0.3051  0.4840 -0.0768
17567TIP3    H174116   1.660   4.056   4.289  0.2604  0.9781 -1.3886
17567TIP3    H274117   1.539   4.143   4.318 -0.3256 -0.0556 -0.6333
17568TIP3   OH274118   1.152   1.348   1.918 -0.0169  0.0933 -0.3460
17568TIP3    H174119   1.094   1.278   1.888 -0.1890  0.4073 -0.7607
17568TIP3    H274120   1.191   1.382   1.837  0.4940  0.1072 -0.1017
17569TIP3   OH274121   2.648   0.996   5.261 -0.0011  0.7818  0.3305
17569TIP3    H174122   2.686   0.915   5.295 -0.9850  0.2573  0.2429
17569TIP3    H274123   2.705   1.021   5.189 -0.6791 -0.8553 -0.8362
17570TIP3   OH274124   6.089   4.618   6.605  0.9316  0.0364  0.6294
17570TIP3    H174125   5.996   4.624   6.628  0.9074  1.2003  0.2906
17570TIP3    H274126   6.107   4.524   6.601  0.0161 -0.1943  1.6692
17571TIP3   OH274127   6.592   0.189   1.397 -0.4885  0.2897  0.5228
17571TIP3    H174128   6.560   0.154   1.314  0.7228 -0.6847  0.4438
17571TIP3    H274129   6.516   0.234   1.434 -1.0827  0.6669 -1.0500
17572TIP3   OH274130   5.016   4.141  17.287 -0.1372 -0.2075  0.4612
17572TIP3    H174131   5.005   4.159  17.380 -0.1924 -0.0358  0.4222
17572TIP3    H274132   4.998   4.224  17.244  1.5370  0.1489  0.3923
17573TIP3   OH274133   6.034   2.184   0.910 -0.7996 -0.5196  0.1421
17573TIP3    H174134   6.095   2.245   0.868 -1.0791  1.7518  2.7484
17573TIP3    H274135   6.089   2.112   0.942  0.0497 -0.0277 -0.1850
17574TIP3   OH274136   4.611   3.417   0.731 -0.1053  0.4864 -0.3554
17574TIP3    H174137   4.533   3.449   0.686 -0.8244  1.4181  1.4434
17574TIP3    H274138   4.683   3.432   0.670 -0.8215  3.0916 -0.6349
17575TIP3   OH274139   1.071   2.834  11.988  0.0341  0.3041  0.0398
17575TIP3    H174140   1.006   2.898  12.017  0.0051  0.5273 -0.5103
17575TIP3    H274141   1.040   2.806  11.902  0.2087 -0.2266  0.1436
17576TIP3   OH274142   0.373   4.076   1.099 -0.5131 -0.0833  0.0587
17576TIP3    H174143   0.376   4.056   1.193 -0.7188 -1.1215 -0.1409
17576TIP3    H274144   0.284   4.106   1.084 -0.2150  0.9767  0.3579
17577TIP3   OH274145   2.398   6.095  16.525  0.0404 -0.3428 -0.1615
17577TIP3    H174146   2.414   6.032  16.455 -0.8969 -1.0592  0.2487
17577TIP3    H274147   2.430   6.052  16.604 -0.7456 -0.3822  0.1466
17578TIP3   OH274148   5.762   4.873  16.044 -0.1541  0.8116  0.1386
17578TIP3    H174149   5.761   4.798  16.105  2.0009  0.6472  0.0517
17578TIP3    H274150   5.692   4.930  16.075 -0.9167 -0.5741  1.0756
17579TIP3   OH274151   2.935   0.607   4.380 -0.1499  0.4915 -0.4616
17579TIP3    H174152   2.921   0.556   4.300 -0.4937  0.6990 -0.5324
17579TIP3    H274153   2.980   0.687   4.350  0.0270  0.4167 -0.4017
17580TIP3   OH274154   4.575   0.923  12.822 -0.4629 -0.0995  0.4562
17580TIP3    H174155   4.627   0.923  12.903  1.8457  0.5610 -0.9088
17580TIP3    H274156   4.623   0.864  12.764 -1.3055  0.4808 -0.8562
17581TIP3   OH274157   1.409   6.302   2.533  0.1944 -0.0801 -0.2540
17581TIP3    H174158   1.398   6.383   2.582 -0.7621  0.1552 -0.8392
17581TIP3    H274159   1.497   6.272   2.555  0.7998  1.4339 -0.5059
17582TIP3   OH274160   5.856   2.595  17.026  0.0111 -0.0459  0.5962
17582TIP3    H174161   5.905   2.664  16.981  0.2828 -1.3116 -1.2103
17582TIP3    H274162   5.884   2.601  17.117  2.8688 -0.0893 -0.1581
17583TIP3   OH274163   2.534   5.385  11.382  0.3101 -0.0106 -0.2647
17583TIP3    H174164   2.612   5.368  11.330  1.4335  1.5716  0.8153
17583TIP3    H274165   2.482   5.445  11.329  0.7595  0.4539 -0.1889
17584TIP3   OH274166   0.385   4.924  14.627 -0.1666 -0.2404  0.0198
17584TIP3    H174167   0.456   4.989  14.630 -0.4033  0.0126  0.2073
17584TIP3    H274168   0.430   4.841  14.612  0.1569 -0.0601 -0.0339
17585TIP3   OH274169   1.254   2.296  15.657  0.4808  0.6933  0.2118
17585TIP3    H174170   1.293   2.383  15.650  0.9183  0.4701 -0.1116
17585TIP3    H274171   1.297   2.257  15.733 -0.5326  1.1703  1.0726
17586TIP3   OH274172   1.139   0.919  13.919  0.7706 -0.0032 -0.5934
17586TIP3    H174173   1.120   0.836  13.875 -1.3869 -0.5639  1.2109
17586TIP3    H274174   1.213   0.899  13.977  0.8944 -0.3749 -0.8748
17587TIP3   OH274175   5.243   6.001   3.560  0.1271 -0.9892  0.1775
17587TIP3    H174176   5.248   5.926   3.500  2.1025 -2.0203  1.5304
17587TIP3    H274177   5.230   5.963   3.646 -0.3339  0.3410  0.7298
17588TIP3   OH274178   5.501   1.406   2.298 -0.1721 -0.5548 -0.2035
17588TIP3    H174179   5.545   1.350   2.234  0.5521  0.6085 -0.7599
17588TIP3    H274180   5.536   1.378   2.383  0.8971 -0.3348 -0.5590
17589TIP3   OH274181   4.005   4.541   1.234  0.5958 -1.1406 -0.1175
17589TIP3    H174182   4.018   4.452   1.204  0.6220 -0.9267 -0.7615
17589TIP3    H274183   4.039   4.596   1.163  0.6066 -0.6206  0.2787
17590TIP3   OH274184   1.632   6.337   2.883  0.5600  0.2105 -0.2110
17590TIP3    H174185   1.657   6.416   2.930  0.5869  0.5517 -0.7923
17590TIP3    H274186   1.576   6.289   2.944 -2.3411  2.3020 -1.0260
17591TIP3   OH274187   6.432   3.911   3.674  0.1534 -0.3688 -0.0929
17591TIP3    H174188   6.472   3.993   3.702 -0.5178 -0.2195  0.4424
17591TIP3    H274189   6.364   3.936   3.613 -0.0030 -0.5289  0.0131
17592TIP3   OH274190   3.979   2.441  17.275 -0.0604  0.2383  0.3664
17592TIP3    H174191   3.990   2.411  17.185  0.9014 -0.6576  0.7690
17592TIP3    H274192   4.068   2.445  17.310 -0.3366  1.4964  1.0034
17593TIP3   OH274193   2.887   2.105   5.498 -0.2997  0.7861 -0.2551
17593TIP3    H174194   2.970   2.146   5.472  0.1886 -0.1690 -0.2337
17593TIP3    H274195   2.913   2.033   5.555 -1.0830 -0.1647 -1.0750
17594TIP3   OH274196   3.512   6.579   5.875 -0.0455 -0.6466  0.7257
17594TIP3    H174197   3.509   6.541   5.787 -0.0080  1.3554 -0.1881
17594TIP3    H274198   3.520   6.503   5.933  0.2159 -2.0068 -0.9922
17595TIP3   OH274199   2.968   5.400  17.136  0.4108  0.1343  0.3540
17595TIP3    H174200   2.901   5.460  17.169  1.2168 -0.0808  2.5266
17595TIP3    H274201   2.994   5.438  17.052  0.9358  2.9282  1.6537
17596TIP3   OH274202   5.061   3.941   4.151  0.3213  0.3651  0.3134
17596TIP3    H174203   5.064   3.855   4.109  0.3498  1.3976 -1.8988
17596TIP3    H274204   4.999   3.992   4.100 -0.7935  1.2861  2.4416
17597TIP3   OH274205   0.568   0.688  13.313  0.1173 -0.0816  0.3517
17597TIP3    H174206   0.656   0.680  13.276 -0.1377 -0.1670 -0.2535
17597TIP3    H274207   0.555   0.782  13.325 -0.0764  0.0079 -0.4921
17598TIP3   OH274208   5.301   4.379   3.273  0.2329  0.1013 -0.1318
17598TIP3    H174209   5.299   4.415   3.362 -0.2195 -3.5876  1.5410
17598TIP3    H274210   5.209   4.367   3.250  0.3350  1.4668 -1.3500
17599TIP3   OH274211   2.258   0.981  13.509 -0.2446  0.1644 -0.1354
17599TIP3    H174212   2.304   1.027  13.439  1.7904 -1.0317  0.3355
17599TIP3    H274213   2.305   1.005  13.589  0.4367 -2.0642  0.2125
17600TIP3   OH274214   4.800   3.677  16.615  0.1001  0.2385 -0.3181
17600TIP3    H174215   4.801   3.689  16.520  2.1154  0.1675 -0.3684
17600TIP3    H274216   4.818   3.584  16.628 -0.0008  0.2772  0.1309
17601TIP3   OH274217   0.202   1.295  16.900  0.2207  0.1462 -0.4928
17601TIP3    H174218   0.296   1.276  16.896  0.5055  1.6551 -2.0480
17601TIP3    H274219   0.188   1.329  16.989  1.2099  0.2098 -0.3497
17602TIP3   OH274220   3.794   3.115  16.060 -0.5711 -0.2115  0.0230
17602TIP3    H174221   3.719   3.154  16.105  0.6577  0.5971  1.4499
17602TIP3    H274222   3.762   3.030  16.030 -2.1994  0.3286  0.1262
17603TIP3   OH274223   5.356   2.335  13.626  0.3954 -0.4787  0.5728
17603TIP3    H174224   5.437   2.290  13.604  1.3127  1.8922 -1.3700
17603TIP3    H274225   5.324   2.369  13.543 -0.4483  2.0156  1.8091
17604TIP3   OH274226   3.050   2.243  13.245  0.7792  0.0346  0.0538
17604TIP3    H174227   2.983   2.305  13.216  1.7993  1.4745  0.6591
17604TIP3    H274228   3.024   2.219  13.334 -0.3070 -1.4635 -0.6170
17605TIP3   OH274229   4.181   6.583   2.480  0.1335  0.1186 -0.0389
17605TIP3    H174230   4.253   6.614   2.536 -0.2391  0.7452  0.1067
17605TIP3    H274231   4.141   6.513   2.531  1.0472 -0.6933 -0.4108
17606TIP3   OH274232   0.412   4.452  12.267  0.2030  0.0253 -0.2033
17606TIP3    H174233   0.471   4.512  12.312  1.6322 -0.7817 -0.9222
17606TIP3    H274234   0.387   4.499  12.187  0.0037  0.3038  0.0222
17607TIP3   OH274235   2.831   1.102  12.222 -0.4278 -0.3751  0.6584
17607TIP3    H174236   2.764   1.048  12.264 -0.8779  0.6539  1.3153
17607TIP3    H274237   2.902   1.106  12.286 -0.0387 -0.8757  0.2597
17608TIP3   OH274238   6.029   3.722  16.061  0.6780  0.1379 -0.3197
17608TIP3    H174239   5.960   3.701  16.125  1.5518 -1.0893  0.2568
17608TIP3    H274240   5.988   3.785  16.002 -1.6667 -2.0208 -1.2197
17609TIP3   OH274241   4.492   0.011   5.016 -0.2227 -0.0120  0.2313
17609TIP3    H174242   4.449   0.065   4.949 -2.0841  1.7482  2.6838
17609TIP3    H274243   4.585   0.028   5.003 -0.5714  0.8943 -1.4177
17610TIP3   OH274244   1.649   6.141   6.492 -0.0215  0.2898 -0.1468
17610TIP3    H174245   1.575   6.144   6.432 -0.0339 -0.2718 -0.1643
17610TIP3    H274246   1.710   6.207   6.459  0.0189 -0.0878 -0.8458
17611TIP3   OH274247   4.533   5.728  16.007  0.7950 -0.2821  0.1305
17611TIP3    H174248   4.541   5.676  16.087 -1.9150  1.4610  1.7130
17611TIP3    H274249   4.545   5.665  15.936  0.7395 -2.4201  1.9031
17612TIP3   OH274250   3.744   5.888   3.563 -0.6605 -0.2840 -0.1536
17612TIP3    H174251   3.689   5.812   3.582  1.2972 -2.5947 -2.8239
17612TIP3    H274252   3.758   5.930   3.648 -1.4892 -3.1904  1.5495
17613TIP3   OH274253   0.802   6.301   0.643 -0.3091 -0.0117 -0.0788
17613TIP3    H174254   0.781   6.371   0.706  0.2059 -0.4501  0.5951
17613TIP3    H274255   0.740   6.231   0.664  0.4085 -0.4858  0.5129
17614TIP3   OH274256   2.725   4.537  11.513 -0.0074  0.2130  0.1082
17614TIP3    H174257   2.694   4.474  11.578 -1.5484  0.7028 -0.1252
17614TIP3    H274258   2.699   4.622  11.548 -0.8191  0.4898 -1.1103
17615TIP3   OH274259   3.939   5.660  14.957 -0.8746  0.9398  0.0075
17615TIP3    H174260   3.939   5.594  14.889 -0.1874 -0.9901  1.7719
17615TIP3    H274261   3.965   5.741  14.913 -0.7707 -0.1610 -2.0440
17616TIP3   OH274262   4.561   3.209   5.800  0.6326  0.5637 -0.4159
17616TIP3    H174263   4.583   3.300   5.781 -0.3331  0.5150 -1.8594
17616TIP3    H274264   4.465   3.209   5.810  0.7702 -0.0248  1.1874
17617TIP3   OH274265   5.829   5.691   4.933  0.2351  0.4934  0.2860
17617TIP3    H174266   5.769   5.733   4.995 -1.1052  0.5820 -0.9891
17617TIP3    H274267   5.884   5.635   4.986 -1.1790  0.1966  1.5139
17618TIP3   OH274268   0.646   4.503  12.899 -0.4809 -0.5177  0.1981
17618TIP3    H174269   0.662   4.472  12.810 -0.6526 -1.8028  0.5972
17618TIP3    H274270   0.731   4.495  12.943 -0.2024  0.8446 -0.0338
17619TIP3   OH274271   1.768   2.236  11.366 -0.8903 -0.3622 -0.6675
17619TIP3    H174272   1.762   2.323  11.405 -0.7139 -0.6430  0.0003
17619TIP3    H274273   1.856   2.205  11.391 -1.2131 -1.0081 -0.3110
17620TIP3   OH274274   5.681   4.567   1.128  0.9632 -0.1616  0.3292
17620TIP3    H174275   5.586   4.578   1.130  0.8020 -1.2526  2.2518
17620TIP3    H274276   5.696   4.499   1.062  0.3455 -0.3107  0.3359
17621TIP3   OH274277   2.273   2.316   2.654  0.7375 -0.2141  0.1593
17621TIP3    H174278   2.189   2.361   2.650  0.4604 -0.8125 -1.5434
17621TIP3    H274279   2.272   2.270   2.738  0.7106  2.2396  1.6026
17622TIP3   OH274280   1.365   0.422   4.161 -0.3328  0.8802  0.2039
17622TIP3    H174281   1.424   0.427   4.236  0.6543 -1.1081 -0.3658
17622TIP3    H274282   1.278   0.432   4.199  0.0201 -1.5596  1.9035
17623TIP3   OH274283   2.899   6.468   5.155  0.2737  0.1687 -0.0538
17623TIP3    H174284   2.922   6.551   5.113  0.5579 -0.0453 -0.3278
17623TIP3    H274285   2.956   6.404   5.113 -0.3872 -0.2697 -0.2894
17624TIP3   OH274286   0.179   1.871   5.954  0.1854 -0.6903 -0.2206
17624TIP3    H174287   0.167   1.798   6.014  2.2241  0.2038  1.3736
17624TIP3    H274288   0.167   1.949   6.007  1.7850  0.1300 -0.9863
17625TIP3   OH274289   0.956   5.162   5.135 -0.4607 -0.4351  0.6757
17625TIP3    H174290   1.029   5.142   5.194  1.0434  1.3842 -0.4430
17625TIP3    H274291   0.995   5.167   5.048 -1.9428  0.4574  0.0102
17626TIP3   OH274292   0.586   1.621  16.216 -0.5303 -0.0585  0.1289
17626TIP3    H174293   0.628   1.556  16.273  0.6515  0.3523 -0.2359
17626TIP3    H274294   0.656   1.683  16.197 -1.4428  0.8833 -0.1768
17627TIP3   OH274295   3.073   1.826  13.913  0.0376  0.7129  0.0708
17627TIP3    H174296   2.989   1.780  13.918  0.8509 -1.0477 -1.6725
17627TIP3    H274297   3.083   1.865  14.000 -1.8362 -0.3561  0.8352
17628TIP3   OH274298   2.824   3.614   0.346 -0.2573 -0.8869 -0.1773
17628TIP3    H174299   2.835   3.655   0.260 -3.0237 -1.7125 -1.0414
17628TIP3    H274300   2.761   3.670   0.392 -0.6811 -1.7647  0.3474
17629TIP3   OH274301   1.906   3.055  11.741 -0.6811  0.2344 -0.3858
17629TIP3    H174302   1.890   3.122  11.806 -2.0556 -0.4143 -0.0236
17629TIP3    H274303   1.971   2.997  11.782 -0.1918  0.8150 -0.3303
17630TIP3   OH274304   6.671   4.289  12.412 -0.0370  0.2652 -0.5665
17630TIP3    H174305   6.624   4.257  12.336 -0.1144  1.2221 -0.9313
17630TIP3    H274306   6.603   4.300  12.479 -0.3116  1.4072 -1.0144
17631TIP3   OH274307   6.059   5.402  13.918  0.2536 -0.6402  0.0970
17631TIP3    H174308   6.054   5.367  13.829  0.9713 -0.6711  0.0634
17631TIP3    H274309   6.076   5.326  13.973 -0.0787 -0.6060  0.2478
17632TIP3   OH274310   1.081   1.549  11.630 -0.1760 -0.1145  0.4978
17632TIP3    H174311   1.063   1.477  11.570  1.0194 -0.5136  0.5991
17632TIP3    H274312   1.171   1.574  11.612 -0.9318  2.2193 -0.4182
17633TIP3   OH274313   4.629   2.806   1.971  0.0060  0.1088  0.1806
17633TIP3    H174314   4.647   2.871   1.902  2.1726  0.1891  0.7425
17633TIP3    H274315   4.537   2.784   1.959 -0.5521  2.5395 -0.6762
17634TIP3   OH274316   1.088   4.754   3.488  0.2653  0.0134  0.2248
17634TIP3    H174317   1.174   4.791   3.508  0.7731 -0.4139 -1.0459
17634TIP3    H274318   1.089   4.742   3.393 -0.6728 -1.2811  0.3524
17635TIP3   OH274319   6.615   1.922   0.117 -0.0565  0.1298  0.5544
17635TIP3    H174320   6.654   1.973   0.046  0.1799  0.2041  0.7368
17635TIP3    H274321   6.659   1.954   0.197  0.7128 -0.9494  0.5847
17636TIP3   OH274322   3.907   0.942  15.051 -0.7723 -0.0834  0.6776
17636TIP3    H174323   3.896   0.887  15.128 -0.4458 -0.5660  0.3856
17636TIP3    H274324   3.926   1.029  15.086 -0.4635 -0.3341  1.1385
17637TIP3   OH274325   3.040   5.775   2.712 -0.4206 -0.5660  0.2249
17637TIP3    H174326   2.983   5.839   2.754 -1.0906 -0.7044 -0.4385
17637TIP3    H274327   3.063   5.714   2.782  0.1199  0.3091  0.8328
17638TIP3   OH274328   1.044   3.223   5.050 -0.1847  0.2636 -0.5891
17638TIP3    H174329   0.999   3.269   4.979  0.9289  0.2587 -1.3299
17638TIP3    H274330   1.100   3.160   5.005 -1.0267 -1.2262  0.3806
17639TIP3   OH274331   2.313   0.837  16.807 -0.5939 -0.5737  0.0901
17639TIP3    H174332   2.335   0.831  16.714 -1.1918 -1.4010 -0.0129
17639TIP3    H274333   2.224   0.802  16.813 -0.2386 -1.3473  1.1041
17640TIP3   OH274334   4.520   4.362  15.425  0.1762 -0.6229  0.4639
17640TIP3    H174335   4.571   4.351  15.506  1.8354  0.0454 -0.4319
17640TIP3    H274336   4.460   4.287  15.424  1.2408 -1.5348  1.5098
17641TIP3   OH274337   3.986   4.383   2.199 -0.2419  0.5056 -0.4679
17641TIP3    H174338   3.898   4.345   2.191  0.1718 -0.3358 -1.3024
17641TIP3    H274339   3.970   4.475   2.223 -1.3373  0.3048 -0.3488
17642TIP3   OH274340   5.840   5.731  11.682 -0.2968 -0.4669 -0.9411
17642TIP3    H174341   5.752   5.768  11.693  0.4836  0.6582  2.9763
17642TIP3    H274342   5.897   5.807  11.678  0.7381 -1.2172 -0.6774
17643TIP3   OH274343   2.987   3.482   2.998 -0.4173  0.3181 -0.0635
17643TIP3    H174344   2.915   3.425   2.971 -1.1085  0.5758  1.1343
17643TIP3    H274345   3.057   3.422   3.024 -0.4115  0.0564 -0.6679
17644TIP3   OH274346   5.399   5.385  12.379  0.5163  0.4072  0.0070
17644TIP3    H174347   5.376   5.399  12.471  2.1004  0.2878  0.4376
17644TIP3    H274348   5.403   5.473  12.342  1.0638  0.5335  0.3582
17645TIP3   OH274349   2.644   0.224   4.641  0.6203  0.2264  0.0826
17645TIP3    H174350   2.644   0.128   4.638 -0.6968  0.0938  2.0581
17645TIP3    H274351   2.726   0.246   4.687  0.1971 -0.0774  1.0183
17646TIP3   OH274352   0.216   3.842   1.017  0.1431 -0.0088 -0.2940
17646TIP3    H174353   0.273   3.919   1.023 -0.4999  0.3871  1.1664
17646TIP3    H274354   0.135   3.869   1.060 -0.8826 -0.8234 -1.6314
17647TIP3   OH274355   4.498   0.076   2.954 -0.0086 -0.4752  0.1293
17647TIP3    H174356   4.564   0.058   3.020 -0.5926 -1.3315  0.4956
17647TIP3    H274357   4.540   0.055   2.871  1.1400  1.7232  0.0643
17648TIP3   OH274358   3.807   0.133  17.109  0.1661  0.0815  0.3912
17648TIP3    H174359   3.846   0.046  17.094  0.3942 -0.2097  2.3850
17648TIP3    H274360   3.861   0.192  17.058  0.5645 -0.8481 -0.2924
17649TIP3   OH274361   4.225   4.152   4.859  0.6100  0.4164  0.0099
17649TIP3    H174362   4.287   4.152   4.786 -0.8371  0.1345 -1.2678
17649TIP3    H274363   4.232   4.064   4.897  0.8273  0.3115 -0.2727
17650TIP3   OH274364   2.631   6.486   5.467 -0.4272 -0.0743  0.7544
17650TIP3    H174365   2.642   6.528   5.382 -3.1144  1.2520  0.9622
17650TIP3    H274366   2.711   6.433   5.478  0.0886 -0.1678 -2.4552
17651TIP3   OH274367   0.436   4.168   3.524  0.3670  0.1061 -0.2090
17651TIP3    H174368   0.347   4.135   3.512  0.4324  0.0339 -0.5176
17651TIP3    H274369   0.486   4.091   3.551 -0.0115  0.4963  1.7691
17652TIP3   OH274370   0.176   2.359  16.838 -0.4786 -0.4351 -0.2036
17652TIP3    H174371   0.262   2.325  16.813 -0.4799 -2.0567  1.7167
17652TIP3    H274372   0.126   2.281  16.864 -2.5803  0.4499 -1.3118
17653TIP3   OH274373   0.753   5.128   3.655  0.3719 -0.0555  0.0059
17653TIP3    H174374   0.833   5.075   3.651  0.5712  0.1573 -4.6752
17653TIP3    H274375   0.685   5.071   3.619 -0.4519  1.3062 -0.6613
17654TIP3   OH274376   2.567   4.005  17.235 -0.6644 -0.4712  0.1785
17654TIP3    H174377   2.592   3.915  17.214  0.5796 -0.4647  1.4763
17654TIP3    H274378   2.638   4.059  17.199 -1.4054  0.0204 -0.6001
17655TIP3   OH274379   2.155   6.308   2.812 -0.2263 -0.4968 -0.1778
17655TIP3    H174380   2.235   6.345   2.774 -0.1813  0.4177  0.7675
17655TIP3    H274381   2.184   6.231   2.860  0.0050 -0.4698 -0.2739
17656TIP3   OH274382   2.939   3.201  12.859 -0.3885 -0.6022 -0.4611
17656TIP3    H174383   2.849   3.198  12.825 -0.7403 -0.0517  0.3799
17656TIP3    H274384   2.986   3.135  12.808 -1.6701 -2.1184  0.2438
17657TIP3   OH274385   1.438   6.600  13.533 -0.1241 -0.8730 -0.3366
17657TIP3    H174386   1.532   6.582  13.534 -0.2484 -1.6903 -1.4916
17657TIP3    H274387   1.423   6.644  13.449 -0.6725 -0.1157  0.1457
17658TIP3   OH274388   3.129   4.626   0.935 -0.6101  0.4307  0.6588
17658TIP3    H174389   3.215   4.664   0.953 -0.5385  0.8087 -0.4458
17658TIP3    H274390   3.075   4.653   1.009  0.0615  0.6919  1.0592
17659TIP3   OH274391   5.911   1.100  12.695 -0.6642  0.0781 -0.1906
17659TIP3    H174392   5.852   1.058  12.757 -0.7478  1.9577  1.0820
17659TIP3    H274393   5.932   1.185  12.735  2.1073 -0.0976 -1.0611
17660TIP3   OH274394   4.002   2.643   3.229 -0.3376  0.0575 -0.1885
17660TIP3    H174395   3.998   2.728   3.274 -0.0189  0.5220 -1.0120
17660TIP3    H274396   4.056   2.588   3.286  1.8399  1.2713 -0.9405
17661TIP3   OH274397   1.376   0.574  13.371  0.0387  0.3093  0.4814
17661TIP3    H174398   1.327   0.498  13.340  0.3289  1.6554 -3.8566
17661TIP3    H274399   1.323   0.609  13.443 -2.2835 -1.5609 -0.1869
17662TIP3   OH274400   6.563   3.563  14.669  0.4731 -0.1462 -0.4747
17662TIP3    H174401   6.546   3.623  14.741  1.8295 -0.3972  0.0802
17662TIP3    H274402   6.636   3.509  14.699  0.1281 -1.2122 -1.4708
17663TIP3   OH274403   1.186   0.416   6.352  0.2251  0.0134  0.1479
17663TIP3    H174404   1.277   0.416   6.321  0.2771  2.3124  0.1033
17663TIP3    H274405   1.166   0.324   6.367  1.0752 -1.0728 -4.0926
17664TIP3   OH274406   4.635   4.019  13.248  0.4168  0.4025  0.3783
17664TIP3    H174407   4.714   4.047  13.202  0.3710 -1.7936 -1.2004
17664TIP3    H274408   4.569   4.011  13.179 -0.3501 -0.6310  1.1951
17665TIP3   OH274409   6.089   2.414   2.679  0.0250  0.3183 -0.2374
17665TIP3    H174410   6.138   2.334   2.696  0.7399  0.3777 -1.8389
17665TIP3    H274411   6.152   2.472   2.637 -1.4537  0.2791 -2.6702
17666TIP3   OH274412   3.693   3.851   5.938 -0.4115 -0.4535 -0.4243
17666TIP3    H174413   3.719   3.929   5.986 -1.7590  1.3986 -2.5244
17666TIP3    H274414   3.738   3.779   5.983  3.3937  1.7901 -0.2117
17667TIP3   OH274415   2.540   0.805  13.473  0.0088  0.5248 -0.0629
17667TIP3    H174416   2.474   0.874  13.461 -0.2229  0.4224  0.6084
17667TIP3    H274417   2.623   0.853  13.479  0.0678  0.6262 -1.3756
17668TIP3   OH274418   5.919   3.635   4.410  0.2920  0.0295  0.1035
17668TIP3    H174419   5.995   3.658   4.464  1.0190 -2.0197  0.0371
17668TIP3    H274420   5.953   3.637   4.320  0.8738 -2.7619  0.1831
17669TIP3   OH274421   0.511   6.648  12.373  0.5570  0.2841 -0.1423
17669TIP3    H174422   0.476   6.732  12.401  0.7099  0.5402 -0.7053
17669TIP3    H274423   0.469   6.631  12.289  0.7203 -0.0753 -0.1525
17670TIP3   OH274424   0.628   4.290   0.867 -0.5786  0.4475 -0.3599
17670TIP3    H174425   0.583   4.352   0.924 -0.4929  1.2757 -1.1557
17670TIP3    H274426   0.558   4.237   0.828 -0.8848  1.5908 -1.4314
17671TIP3   OH274427   0.892   5.837   2.807 -0.0688  0.0861 -0.0727
17671TIP3    H174428   0.836   5.836   2.885  1.3167 -0.3158  0.9456
17671TIP3    H274429   0.953   5.765   2.819  2.3214  2.0014  0.1150
17672TIP3   OH274430   3.587   1.642  14.803 -0.5143  0.5001  0.0944
17672TIP3    H174431   3.578   1.737  14.791  0.1691  0.6624  0.8027
17672TIP3    H274432   3.681   1.626  14.796 -0.6506 -0.1682 -0.2724
17673TIP3   OH274433   3.078   1.616  12.421 -0.4989  0.1338  0.1362
17673TIP3    H174434   2.995   1.613  12.468 -0.0639  1.8784  1.0948
17673TIP3    H274435   3.144   1.627  12.490  0.5514 -1.2076 -0.6080
17674TIP3   OH274436   6.723   4.002  16.488  0.0162  0.1166  0.2451
17674TIP3    H174437   6.791   3.968  16.431  0.3848  1.0247  0.1249
17674TIP3    H274438   6.644   4.002  16.434  0.4997  1.6076 -0.5191
17675TIP3   OH274439   4.141   0.250   3.647 -0.1082 -0.5161  0.4097
17675TIP3    H174440   4.223   0.201   3.637 -0.3171 -0.8704  0.4408
17675TIP3    H274441   4.105   0.255   3.559  0.6089  0.8064  0.1617
17676TIP3   OH274442   6.738   3.934   5.960  0.4200  0.2096  0.1983
17676TIP3    H174443   6.771   3.930   6.050 -2.6794  3.6505  1.7894
17676TIP3    H274444   6.644   3.916   5.969  0.0262  0.7128 -2.3327
17677TIP3   OH274445   1.093   4.278  15.158  0.6377  0.0989 -0.1324
17677TIP3    H174446   1.094   4.284  15.062 -0.6419 -4.3058 -0.6332
17677TIP3    H274447   1.005   4.307  15.182  0.5964  0.2037 -0.4052
17678TIP3   OH274448   1.820   1.588   2.934  0.2493  0.0900 -0.1447
17678TIP3    H174449   1.752   1.545   2.883  0.0359 -0.9865  0.9943
17678TIP3    H274450   1.777   1.663   2.974  0.4331  0.9830 -1.5338
17679TIP3   OH274451   3.331   5.851   3.344 -0.1338  0.2132 -0.8131
17679TIP3    H174452   3.369   5.925   3.296 -0.0152 -0.0728 -1.1729
17679TIP3    H274453   3.376   5.774   3.308  0.3023  0.0244  0.0947
17680TIP3   OH274454   2.514   0.980   0.733  0.0870 -0.2436  0.4237
17680TIP3    H174455   2.434   0.957   0.781  0.2314  1.4657  1.5575
17680TIP3    H274456   2.555   0.895   0.714  1.0386 -1.1385  5.1663
17681TIP3   OH274457   4.093   0.108  16.869 -0.2135 -0.2151  0.1066
17681TIP3    H174458   4.035   0.174  16.907 -0.2460  0.1093 -0.5075
17681TIP3    H274459   4.133   0.151  16.794 -0.8240 -1.1365 -0.7729
17682TIP3   OH274460   6.640   4.602   2.441 -0.2483  0.0007 -0.0674
17682TIP3    H174461   6.696   4.542   2.491  0.6248 -0.0025 -1.0233
17682TIP3    H274462   6.616   4.554   2.362 -0.2718  0.5881 -0.4255
17683TIP3   OH274463   1.101   1.190  14.339  0.3653 -0.2225  0.1222
17683TIP3    H174464   1.187   1.152  14.358 -1.1299 -2.3427  3.4950
17683TIP3    H274465   1.107   1.280  14.372  0.7147 -1.0177  2.3899
17684TIP3   OH274466   5.224   0.661   2.299 -0.6481  0.1181  0.3961
17684TIP3    H174467   5.290   0.695   2.239 -0.6361  0.8213  0.7913
17684TIP3    H274468   5.169   0.605   2.245 -0.0259 -0.0789 -0.0434
17685TIP3   OH274469   2.554   2.350   3.833 -0.0402 -0.3572 -0.0072
17685TIP3    H174470   2.580   2.393   3.914 -0.4028 -1.1253  0.5250
17685TIP3    H274471   2.529   2.422   3.775 -1.2577  0.1365  1.0796
17686TIP3   OH274472   1.260   3.997   4.646 -0.0488  0.8615 -0.4836
17686TIP3    H174473   1.203   3.997   4.569 -2.0478 -1.2323  0.8681
17686TIP3    H274474   1.335   3.943   4.620 -0.7727  0.0510 -0.9706
17687TIP3   OH274475   1.765   3.272   4.123 -0.0678  0.2228  0.6091
17687TIP3    H174476   1.824   3.234   4.189  0.2402  0.5346  0.5174
17687TIP3    H274477   1.761   3.365   4.145 -0.4568  0.2207  0.5575
17688TIP3   OH274478   0.117   0.401  15.863 -0.4225 -0.0775  0.3864
17688TIP3    H174479   0.035   0.432  15.826 -0.2540  0.2184  0.2575
17688TIP3    H274480   0.134   0.460  15.937 -0.2050  0.0095  0.2672
17689TIP3   OH274481   1.724   0.441   2.027 -0.5596 -0.0696 -0.0333
17689TIP3    H174482   1.775   0.441   1.947 -0.3629  0.4199  0.0866
17689TIP3    H274483   1.739   0.527   2.065 -1.8548  0.2706 -0.2323
17690TIP3   OH274484   5.501   2.199   4.953 -0.0151  0.3261 -0.2985
17690TIP3    H174485   5.536   2.169   5.037 -1.0084 -0.7528 -0.2385
17690TIP3    H274486   5.578   2.213   4.899  0.5966 -2.1415 -0.2233
17691TIP3   OH274487   3.924   1.065   6.577 -0.4123  0.1747  0.8130
17691TIP3    H174488   3.872   1.030   6.504 -1.0584 -0.1240  1.4119
17691TIP3    H274489   4.013   1.073   6.541 -0.5674 -0.6680  0.2179
17692TIP3   OH274490   6.732   2.629  11.644  0.2221 -0.3279  0.0907
17692TIP3    H174491   6.694   2.704  11.689  2.3744  0.7899  0.1814
17692TIP3    H274492   6.798   2.596  11.704 -0.0622 -1.7414 -0.3450
17693TIP3   OH274493   0.240   0.116  16.941 -1.0072 -0.3270  0.8477
17693TIP3    H174494   0.179   0.189  16.937  0.6231  1.0194 -1.1845
17693TIP3    H274495   0.321   0.154  16.973 -0.2617 -1.3327  0.2224
17694TIP3   OH274496   6.617   0.084  10.678  0.7538  0.8002  0.6415
17694TIP3    H174497   6.555   0.038  10.734 -1.2436  0.0366 -1.9881
17694TIP3    H274498   6.561   0.135  10.619  2.7721  2.3941  0.0093
17695TIP3   OH274499   4.629   6.434   3.017 -1.0268  0.4936 -0.1089
17695TIP3    H174500   4.624   6.443   3.113 -1.8833 -2.0210  0.1506
17695TIP3    H274501   4.721   6.445   2.997 -0.3414 -1.8124  1.4164
17696TIP3   OH274502   0.089   0.358  11.803  0.4565  0.3502 -0.2223
17696TIP3    H174503   0.111   0.450  11.812 -0.7834  0.6614 -0.1753
17696TIP3    H274504   0.053   0.350  11.715  2.3179 -0.4933 -0.9620
17697TIP3   OH274505   2.296   1.613  14.875 -0.8590 -0.2714  0.1730
17697TIP3    H174506   2.202   1.600  14.885 -0.9792  0.5459  0.1358
17697TIP3    H274507   2.317   1.685  14.934 -0.6198  0.9177 -1.2947
17698TIP3   OH274508   5.151   5.883  15.672 -0.6285  0.1604  0.3403
17698TIP3    H174509   5.111   5.970  15.666 -1.2960 -0.0719  1.2468
17698TIP3    H274510   5.078   5.824  15.690 -0.3177 -0.7434 -1.2119
17699TIP3   OH274511   6.019   1.608   2.304  0.4813 -0.0371 -0.0526
17699TIP3    H174512   5.940   1.583   2.257  1.4711 -0.6422 -1.4518
17699TIP3    H274513   6.065   1.525   2.320 -0.3339 -0.0086  3.0434
17700TIP3   OH274514   3.164   0.534   2.792  0.4004  0.4491 -0.4051
17700TIP3    H174515   3.259   0.548   2.793  0.3154  1.0319 -0.6426
17700TIP3    H274516   3.130   0.598   2.730 -0.1811  0.4361 -0.1070
17701TIP3   OH274517   5.634   3.845   3.082 -0.2024  0.5765 -0.1661
17701TIP3    H174518   5.642   3.752   3.059  1.2563  0.1950  1.6585
17701TIP3    H274519   5.540   3.858   3.093 -0.4269 -0.7218 -0.3011
17702TIP3   OH274520   2.772   4.872  15.293  0.4403 -0.3504  0.2065
17702TIP3    H174521   2.844   4.840  15.347  0.7207 -0.6156 -0.3072
17702TIP3    H274522   2.710   4.799  15.291  0.2422 -0.1896  0.5015
17703TIP3   OH274523   6.512   3.187   5.173 -0.4800 -0.8119 -0.5515
17703TIP3    H174524   6.597   3.166   5.211  0.5435  1.6393 -1.3035
17703TIP3    H274525   6.452   3.190   5.248  0.6063 -0.2839  0.3246
17704TIP3   OH274526   6.681   1.279   3.880  0.2387  0.0456 -0.2027
17704TIP3    H174527   6.698   1.187   3.859  0.6198  0.0344  0.1523
17704TIP3    H274528   6.586   1.287   3.876  0.1545 -0.5413  0.5225
17705TIP3   OH274529   3.292   4.929   5.615  0.0059  0.6203  0.0630
17705TIP3    H174530   3.318   4.885   5.696  0.1768 -0.0646 -0.3453
17705TIP3    H274531   3.357   4.899   5.551 -0.9989 -0.0622 -0.6655
17706TIP3   OH274532   3.523   5.570  13.753 -0.5229  0.0771  0.9511
17706TIP3    H174533   3.601   5.525  13.785  2.6516  3.6147 -0.9980
17706TIP3    H274534   3.502   5.528  13.670  1.7062  1.2876 -0.3068
17707TIP3   OH274535   0.504   4.702   2.003 -0.2786 -0.7631  0.1844
17707TIP3    H174536   0.522   4.710   2.097  0.9444 -0.2778 -0.0684
17707TIP3    H274537   0.584   4.665   1.967  0.4108  1.7223 -1.0598
17708TIP3   OH274538   4.845   3.653  11.843  0.1925  0.5038 -0.9469
17708TIP3    H174539   4.850   3.621  11.753  1.9070  1.5571 -1.2820
17708TIP3    H274540   4.935   3.644  11.877 -0.0172  1.7892  0.0382
17709TIP3   OH274541   6.243   2.815  11.219 -0.5760  0.4561  0.7905
17709TIP3    H174542   6.161   2.795  11.174  0.5361 -1.6478 -0.4894
17709TIP3    H274543   6.268   2.901  11.188 -1.1605  0.1410 -0.6132
17710TIP3   OH274544   2.369   1.103   6.009 -0.0994 -0.0514 -0.5069
17710TIP3    H174545   2.320   1.135   6.084  1.1578  1.8832 -0.4626
17710TIP3    H274546   2.302   1.074   5.947 -1.2813  1.6415 -0.0740
17711TIP3   OH274547   3.015   0.664  16.179  0.3113 -0.0629 -0.7579
17711TIP3    H174548   3.052   0.577  16.199  0.7979  0.5658  1.2980
17711TIP3    H274549   2.922   0.656  16.200  0.5640  0.1971  0.5555
17712TIP3   OH274550   3.481   0.672  17.150 -0.4610  0.7605 -0.0782
17712TIP3    H174551   3.416   0.724  17.102 -0.6134  0.8389  0.2091
17712TIP3    H274552   3.430   0.625  17.216 -0.5390 -0.9085 -1.2656
17713TIP3   OH274553   0.180   4.935  13.732 -0.5703  0.5537 -0.5192
17713TIP3    H174554   0.186   4.929  13.827  1.3123  0.7234 -0.5826
17713TIP3    H274555   0.256   4.886  13.700 -1.0501  0.6813 -1.9248
17714TIP3   OH274556   3.785   5.772  15.864  0.2784 -0.2773 -0.0368
17714TIP3    H174557   3.831   5.739  15.941 -0.6337 -0.6312  0.3718
17714TIP3    H274558   3.692   5.767  15.887  0.0173  0.2162 -0.9202
17715TIP3   OH274559   6.673   3.377  13.513 -0.1932 -0.1529 -0.1981
17715TIP3    H174560   6.707   3.343  13.430 -0.9395  0.7971 -0.9146
17715TIP3    H274561   6.600   3.434  13.488  0.3181  1.1017  1.0333
17716TIP3   OH274562   2.270   3.549   1.482 -0.4726 -0.1229 -0.1699
17716TIP3    H174563   2.321   3.611   1.432 -0.0743 -0.2884  0.0269
17716TIP3    H274564   2.328   3.520   1.553 -0.1889 -1.6882 -0.9969
17717TIP3   OH274565   4.761   2.275  17.052 -0.1849 -0.0567  0.6223
17717TIP3    H174566   4.841   2.278  17.000 -0.4891 -0.7295  0.0972
17717TIP3    H274567   4.731   2.184  17.046 -1.9076  0.5415 -0.6361
17718TIP3   OH274568   6.230   0.170   5.552 -0.5698  0.1175  0.3095
17718TIP3    H174569   6.140   0.141   5.561 -0.3374 -0.1808  2.1448
17718TIP3    H274570   6.275   0.132   5.628  0.5817  2.1464  0.7270
17719TIP3   OH274571   0.025   6.715  16.050  0.4984  0.0155 -0.1351
17719TIP3    H174572   0.016   6.774  15.975 -0.4282  0.0208 -0.0289
17719TIP3    H274573   0.105   6.665  16.032  0.4405  0.2178 -0.9828
17720TIP3   OH274574   2.297   6.121   6.577  0.5150 -0.0170  0.2771
17720TIP3    H174575   2.287   6.211   6.607  0.8844  0.8024 -1.9054
17720TIP3    H274576   2.215   6.102   6.531  1.2073 -0.0842 -0.9629
17721TIP3   OH274577   2.276   6.197  17.044 -0.6437  0.2131 -0.2174
17721TIP3    H174578   2.271   6.103  17.059 -0.7105  0.3311  0.5008
17721TIP3    H274579   2.318   6.233  17.122 -0.2566  0.7405 -0.6526
17722TIP3   OH274580   6.611   5.723  15.370 -0.4208 -0.0694  0.2736
17722TIP3    H174581   6.701   5.756  15.364 -0.4371 -0.0641  0.0431
17722TIP3    H274582   6.569   5.753  15.290 -1.2419  1.7116  1.3249
17723TIP3   OH274583   5.274   0.453   5.175 -0.3630  0.4131 -0.1627
17723TIP3    H174584   5.312   0.370   5.147 -0.0598  0.8202 -0.9681
17723TIP3    H274585   5.210   0.475   5.107 -0.8063  0.5900  0.3050
17724TIP3   OH274586   6.748   1.895  15.291  0.1061  0.0696 -0.0578
17724TIP3    H174587   6.819   1.950  15.260  0.7847 -0.7736 -0.0135
17724TIP3    H274588   6.686   1.893  15.218 -0.0911  1.1399  0.0557
17725TIP3   OH274589   4.445   5.195   2.665 -0.2838  0.0971 -0.0396
17725TIP3    H174590   4.457   5.100   2.669 -1.2334 -0.0014  1.0567
17725TIP3    H274591   4.516   5.230   2.717 -1.4534 -0.1853  1.8285
17726TIP3   OH274592   6.625   2.007  15.533 -0.0450 -0.7151 -0.1367
17726TIP3    H174593   6.543   2.041  15.498  0.9498 -0.1474 -2.0648
17726TIP3    H274594   6.656   1.946  15.466  3.5280  2.7419 -2.0303
17727TIP3   OH274595   2.887   4.740  13.635  0.4124 -0.3186  0.4675
17727TIP3    H174596   2.941   4.683  13.690  0.3407 -0.6739  0.1776
17727TIP3    H274597   2.941   4.760  13.559 -0.0179 -1.0621 -0.0525
17728TIP3   OH274598   6.226   1.414  16.234  0.2252 -0.4564  0.1958
17728TIP3    H174599   6.134   1.437  16.221  0.1490 -0.4122  0.8150
17728TIP3    H274600   6.274   1.495  16.216 -0.0133  0.1201  1.9520
17729TIP3   OH274601   4.475   2.636   3.697 -0.6910  0.0794 -0.0978
17729TIP3    H174602   4.395   2.584   3.700 -0.0643 -0.8995  0.0844
17729TIP3    H274603   4.540   2.583   3.743 -0.1544  1.2626  0.5549
17730TIP3   OH274604   0.795   0.922   4.421  0.0796 -0.0068 -0.9967
17730TIP3    H174605   0.772   0.981   4.492  0.1917  0.4813 -1.3616
17730TIP3    H274606   0.825   0.979   4.350  0.0551 -0.4885 -1.4056
17731TIP3   OH274607   2.302   4.080  12.123 -0.0622  0.3481 -0.1146
17731TIP3    H174608   2.351   4.067  12.042 -0.4089 -0.8623 -0.1516
17731TIP3    H274609   2.224   4.128  12.097 -0.2794 -0.2271 -0.5514
17732TIP3   OH274610   0.661   0.296  16.262 -0.2920  0.3676  0.5120
17732TIP3    H174611   0.625   0.210  16.240 -0.8495  0.3554  1.4432
17732TIP3    H274612   0.746   0.299  16.217 -0.7297 -0.2450 -0.3804
17733TIP3   OH274613   1.883   3.535  16.866  0.9932  0.4473  0.0551
17733TIP3    H174614   1.825   3.493  16.802  0.6733 -0.6886  1.0405
17733TIP3    H274615   1.824   3.584  16.923  1.0994  0.1525  0.4248
17734TIP3   OH274616   5.473   1.621   4.159 -0.2413  0.1012  0.2006
17734TIP3    H174617   5.505   1.594   4.073 -0.4079  0.4792  0.0185
17734TIP3    H274618   5.380   1.636   4.147 -0.0862  1.1158  0.2014
17735TIP3   OH274619   2.318   5.482   4.785  0.5768  0.0744 -0.8120
17735TIP3    H174620   2.246   5.505   4.844 -0.5160 -0.4145 -1.9169
17735TIP3    H274621   2.386   5.448   4.843 -0.1206  0.4321  0.2482
17736TIP3   OH274622   2.005   2.281   4.700 -0.0447 -0.4016 -0.1231
17736TIP3    H174623   2.017   2.200   4.651 -1.1641 -0.8420  0.2813
17736TIP3    H274624   1.925   2.266   4.750 -0.0189  0.7934  0.3007
17737TIP3   OH274625   3.138   5.227   4.915  0.0122  0.0379  0.2961
17737TIP3    H174626   3.158   5.266   5.000 -0.4596 -0.0462  0.4452
17737TIP3    H274627   3.156   5.134   4.927  1.1507  0.1919 -0.0631
17738TIP3   OH274628   3.439   1.793   1.729  0.6728 -0.2781 -0.2966
17738TIP3    H174629   3.373   1.726   1.746  0.4662 -0.1521 -0.5882
17738TIP3    H274630   3.436   1.849   1.807  1.2720 -0.9468  0.2154
17739TIP3   OH274631   4.117   5.116   6.044 -0.4180 -0.3751  0.0876
17739TIP3    H174632   4.130   5.074   6.129  0.2135  1.3022  0.8795
17739TIP3    H274633   4.051   5.184   6.061 -0.2450  0.0190 -0.7482
17740TIP3   OH274634   4.747   0.515  12.099 -0.7253 -0.3404  0.1936
17740TIP3    H174635   4.733   0.607  12.078 -1.6509 -0.4278  0.3969
17740TIP3    H274636   4.717   0.506  12.189  1.6655 -0.3186  1.0720
17741TIP3   OH274637   3.377   3.174  14.328  0.7246 -0.0446 -0.4163
17741TIP3    H174638   3.470   3.163  14.311  0.8154  0.5858 -0.3411
17741TIP3    H274639   3.373   3.227  14.407  0.3150  1.2353 -1.2599
17742TIP3   OH274640   1.450   1.714   6.270 -0.1303  0.0867  0.5551
17742TIP3    H174641   1.444   1.803   6.303  1.6106  0.0960  0.9483
17742TIP3    H274642   1.537   1.684   6.297 -1.3227 -2.3790  1.9982
17743TIP3   OH274643   5.113   2.536   2.342  0.5337 -0.4762  0.2372
17743TIP3    H174644   5.032   2.562   2.386 -0.6393  0.0523 -2.0707
17743TIP3    H274645   5.107   2.440   2.337 -0.5625 -0.3668 -0.9580
17744TIP3   OH274646   2.068   2.879  11.856 -0.0908 -0.1199  0.2701
17744TIP3    H174647   1.991   2.825  11.872  0.6336 -1.3161 -0.1501
17744TIP3    H274648   2.098   2.905  11.943  0.3158 -1.5327  0.5857
17745TIP3   OH274649   4.665   5.913  16.892 -0.3215  0.2101  0.1756
17745TIP3    H174650   4.739   5.913  16.952  0.0814  1.0774 -0.3160
17745TIP3    H274651   4.627   6.000  16.899 -2.2364 -0.6437  1.5328
17746TIP3   OH274652   1.636   1.975  13.331  0.0538 -0.3445 -0.2310
17746TIP3    H174653   1.656   1.943  13.419  1.6918  0.1262 -0.4137
17746TIP3    H274654   1.721   1.987  13.289 -0.6321  1.1104 -1.2851
17747TIP3   OH274655   4.245   2.777   0.811 -0.7534 -0.7512  0.2100
17747TIP3    H174656   4.244   2.749   0.903 -3.1694 -2.0706 -0.1266
17747TIP3    H274657   4.190   2.856   0.810 -0.8916 -0.8493 -0.1137
17748TIP3   OH274658   0.349   5.911  16.406 -0.1859  0.4319 -0.2909
17748TIP3    H174659   0.407   5.948  16.339 -2.3926 -0.0050 -2.6271
17748TIP3    H274660   0.390   5.827  16.429  2.7850  2.3619  2.1394
17749TIP3   OH274661   1.500   2.466   2.796 -0.2006  0.4707  0.2462
17749TIP3    H174662   1.556   2.535   2.831  0.9781 -0.0452 -0.5498
17749TIP3    H274663   1.512   2.472   2.701  1.1833 -1.7989  0.1967
17750TIP3   OH274664   6.434   3.207   5.452 -0.4697  0.1071 -0.2241
17750TIP3    H174665   6.516   3.253   5.472 -0.5661  1.0191 -1.7808
17750TIP3    H274666   6.442   3.123   5.498  0.9212  0.5512  0.4041
17751TIP3   OH274667   0.841   3.137   6.125 -0.0013 -0.7343 -0.0327
17751TIP3    H174668   0.797   3.060   6.089 -0.8940  0.4569 -1.6372
17751TIP3    H274669   0.803   3.211   6.077  1.9545  0.5868  0.3351
17752TIP3   OH274670   2.080   0.692   1.496 -0.4051  0.2725  0.1685
17752TIP3    H174671   2.133   0.726   1.425  0.4425 -1.1645  0.0784
17752TIP3    H274672   2.097   0.598   1.497 -0.2824  0.2513  2.3509
17753TIP3   OH274673   6.114   1.539  15.306 -0.3274  0.0361 -0.3898
17753TIP3    H174674   6.088   1.491  15.384  0.6148  0.5197  0.2333
17753TIP3    H274675   6.172   1.479  15.259  0.1749  0.2402 -0.0366
17754TIP3   OH274676   0.540   2.968  12.768  0.5054  0.2182 -0.3024
17754TIP3    H174677   0.568   2.954  12.678  0.1459  1.7250 -0.6678
17754TIP3    H274678   0.529   2.879  12.803 -1.2042 -0.4430 -2.3100
17755TIP3   OH274679   4.648   6.419  12.222  0.0953  1.0760  0.4864
17755TIP3    H174680   4.730   6.434  12.270  1.5820  0.6326 -1.7903
17755TIP3    H274681   4.644   6.491  12.160 -0.1480 -0.0227 -0.8063
17756TIP3   OH274682   4.588   4.359  12.365  0.0659 -0.2262 -0.2045
17756TIP3    H174683   4.505   4.365  12.318  0.1517 -2.1146 -0.6719
17756TIP3    H274684   4.625   4.275  12.338  2.0911  0.5104  0.0766
17757TIP3   OH274685   2.917   3.776   0.774  0.1891 -0.6251  0.5838
17757TIP3    H174686   2.948   3.695   0.734  1.3613 -0.3511  0.9076
17757TIP3    H274687   2.982   3.842   0.750  0.0738 -0.1169  1.5917
17758TIP3   OH274688   1.050   3.496  10.900 -0.1441 -0.0612 -0.0226
17758TIP3    H174689   1.114   3.426  10.900 -2.2340 -2.1222  1.1111
17758TIP3    H274690   1.090   3.566  10.848  2.3753 -1.7431 -0.5043
17759TIP3   OH274691   1.946   2.841   1.991  0.1299  0.0099  0.0385
17759TIP3    H174692   1.966   2.770   1.931  1.4853  0.3852  0.0215
17759TIP3    H274693   2.027   2.855   2.040 -0.6996  0.2466  1.3992
17760TIP3   OH274694   0.963   3.411   0.549 -0.4106  0.3132 -0.1478
17760TIP3    H174695   0.955   3.357   0.628  0.2307  0.6282  0.1438
17760TIP3    H274696   1.056   3.436   0.547 -0.6872  1.3534 -0.3107
17761TIP3   OH274697   5.203   0.544  15.187 -0.1426  0.2975 -0.4219
17761TIP3    H174698   5.117   0.584  15.175  0.4296  1.5395 -0.4925
17761TIP3    H274699   5.187   0.472  15.249 -0.9809  1.4855  0.8217
17762TIP3   OH274700   3.580   3.320  14.223 -0.2650 -0.6287  0.1635
17762TIP3    H174701   3.566   3.386  14.290  5.4043  2.3304 -0.9132
17762TIP3    H274702   3.551   3.362  14.142  3.3911  0.8757 -0.5323
17763TIP3   OH274703   3.533   4.631   0.737 -0.0145 -0.4260 -0.3086
17763TIP3    H174704   3.539   4.636   0.833 -1.9173 -2.4565 -0.0110
17763TIP3    H274705   3.454   4.579   0.721 -0.7541  1.3424 -3.0315
17764TIP3   OH274706   1.520   2.222   2.176 -0.1317  0.0865 -0.1664
17764TIP3    H174707   1.461   2.168   2.123 -1.6298  1.4775 -0.0041
17764TIP3    H274708   1.594   2.239   2.119 -1.1902  0.6188 -1.4454
17765TIP3   OH274709   0.345   3.646  16.176  0.0276 -0.2017  0.1966
17765TIP3    H174710   0.380   3.637  16.265 -0.0209  0.1581  0.2543
17765TIP3    H274711   0.412   3.696  16.129  0.0363 -0.3606  0.0423
17766TIP3   OH274712   6.740   4.438   6.480 -0.3547 -0.3337  0.3213
17766TIP3    H174713   6.735   4.362   6.538 -1.7286 -1.0276 -0.6391
17766TIP3    H274714   6.680   4.417   6.409  1.8567  0.1112 -1.7973
17767TIP3   OH274715   4.712   2.925  11.107 -0.6628  0.3127 -0.1594
17767TIP3    H174716   4.663   2.948  11.028  1.8491  2.8111 -1.1229
17767TIP3    H274717   4.724   2.830  11.100 -3.8877 -0.1915 -0.6301
17768TIP3   OH274718   3.943   4.383   5.457 -0.0905 -0.4145  0.4208
17768TIP3    H174719   4.000   4.327   5.510  1.5308  0.2997 -0.5148
17768TIP3    H274720   3.950   4.348   5.368  0.9346  1.2177 -0.1817
17769TIP3   OH274721   0.655   6.367   0.103 -0.3954 -0.2038  0.1758
17769TIP3    H174722   0.626   6.278   0.121 -0.6925 -0.0410  0.5026
17769TIP3    H274723   0.610   6.392   0.022 -1.2786  0.0925  0.7415
17770TIP3   OH274724   3.154   5.662   2.937 -0.8262  0.4625 -0.0753
17770TIP3    H174725   3.114   5.609   3.005 -1.2947  0.8010 -0.0756
17770TIP3    H274726   3.214   5.603   2.892  0.3769  0.5433  1.3680
17771TIP3   OH274727   5.603   5.193  13.386  0.2165  0.5919 -0.3231
17771TIP3    H174728   5.546   5.116  13.384  0.1982  0.6152 -1.3754
17771TIP3    H274729   5.544   5.267  13.401  0.0508  0.5412 -0.7105
17772TIP3   OH274730   6.561   0.506  12.796 -0.1507  0.1428  0.0905
17772TIP3    H174731   6.509   0.426  12.796 -1.3260  0.8547 -1.1764
17772TIP3    H274732   6.615   0.500  12.718 -2.0537  1.6167 -1.4491
17773TIP3   OH274733   6.514   0.583  15.149  0.6632  0.0473 -0.8860
17773TIP3    H174734   6.442   0.519  15.150  0.6469  0.0536 -1.3279
17773TIP3    H274735   6.523   0.610  15.240 -0.2106  0.3863 -0.8843
17774TIP3   OH274736   5.421   1.606  12.700  0.0845  0.5987 -0.4239
17774TIP3    H174737   5.400   1.562  12.783  0.0543  1.5458  0.0899
17774TIP3    H274738   5.336   1.631  12.664  0.0521 -0.4698 -1.1306
17775TIP3   OH274739   3.491   2.112   4.653 -0.2273  0.2571 -0.1162
17775TIP3    H174740   3.501   2.180   4.586  1.7422 -0.1387 -0.2990
17775TIP3    H274741   3.532   2.035   4.614 -0.8589 -0.5498  0.7791
17776TIP3   OH274742   2.840   2.427   6.058 -0.1547 -0.1668 -0.3313
17776TIP3    H174743   2.913   2.397   6.004 -0.5109 -0.7685 -0.4881
17776TIP3    H274744   2.877   2.436   6.146  0.1407 -0.3540 -0.4362
17777TIP3   OH274745   0.364   3.519   2.887 -0.2152 -0.0028 -0.1543
17777TIP3    H174746   0.448   3.560   2.863  0.0133  1.2100  2.4093
17777TIP3    H274747   0.298   3.570   2.841  0.2458  1.7765  1.0470
17778TIP3   OH274748   3.614   5.546  16.015  0.1804 -0.3489 -0.2479
17778TIP3    H174749   3.596   5.460  16.053 -0.3352 -0.6260 -1.0948
17778TIP3    H274750   3.581   5.608  16.079  1.4000 -0.7505  0.8073
17779TIP3   OH274751   3.497   2.479  12.416  0.0322  0.2142  0.1774
17779TIP3    H174752   3.403   2.496  12.407  0.3392  1.2967 -1.4664
17779TIP3    H274753   3.538   2.548  12.364  1.7190 -0.7056  0.2513
17780TIP3   OH274754   0.695   5.084  11.912 -0.8253 -0.0764 -0.2475
17780TIP3    H174755   0.641   5.149  11.957 -0.0853  1.4839 -1.5211
17780TIP3    H274756   0.784   5.117  11.920 -0.0501 -2.2633  1.2403
17781TIP3   OH274757   0.234   6.351  13.410 -0.0421  0.5042  0.6906
17781TIP3    H174758   0.168   6.349  13.341  0.5554  1.5088  0.0667
17781TIP3    H274759   0.200   6.413  13.474 -0.7977 -0.7400  1.5473
17782TIP3   OH274760   0.283   5.346  15.674  0.1470 -0.0531  0.2738
17782TIP3    H174761   0.338   5.287  15.623 -0.8181  1.0478 -2.1622
17782TIP3    H274762   0.328   5.430  15.670 -0.6503  0.3669  0.0602
17783TIP3   OH274763   0.073   5.893  17.046  0.5626  0.2378  0.0991
17783TIP3    H174764   0.142   5.882  17.112 -0.0545 -0.6677  0.6144
17783TIP3    H274765   0.112   5.860  16.965  0.7756 -0.1844  0.3659
17784TIP3   OH274766   2.005   0.580  13.822 -0.1191  0.2277 -0.4948
17784TIP3    H174767   1.992   0.560  13.730 -1.7132 -1.6667  0.0843
17784TIP3    H274768   2.100   0.589  13.832  0.2903 -2.0197 -1.8681
17785TIP3   OH274769   3.594   6.036   0.988  0.4720  1.1901 -0.4477
17785TIP3    H174770   3.594   5.982   1.067  1.9927  0.6066 -0.8091
17785TIP3    H274771   3.638   6.117   1.015  1.1897  0.9041 -0.7319
17786TIP3   OH274772   5.310   6.433   1.943 -0.3195 -0.4654 -0.4562
17786TIP3    H174773   5.271   6.369   2.003 -1.5346 -0.8105 -1.5725
17786TIP3    H274774   5.380   6.384   1.898 -0.6257 -0.7453 -0.6325
17787TIP3   OH274775   6.061   1.846  12.334 -0.0520 -0.6520  0.4759
17787TIP3    H174776   6.151   1.828  12.309  0.3421 -0.0072  1.3834
17787TIP3    H274777   6.021   1.760  12.343  0.8637 -1.0017  1.4153
17788TIP3   OH274778   4.467   0.467  15.827 -0.1240  0.6144 -0.3760
17788TIP3    H174779   4.407   0.535  15.798  0.3432  0.4275 -1.9041
17788TIP3    H274780   4.412   0.389  15.837 -0.7019  1.2379  1.6283
17789TIP3   OH274781   5.628   2.944  17.080 -0.5492 -0.5056  0.3409
17789TIP3    H174782   5.664   2.870  17.128 -2.3327 -1.2241  0.6522
17789TIP3    H274783   5.538   2.952  17.112  0.0109  2.8013  1.4528
17790TIP3   OH274784   3.856   2.624   2.652  0.5761  0.1049 -0.6142
17790TIP3    H174785   3.812   2.631   2.567 -0.2374 -1.5658 -0.3734
17790TIP3    H274786   3.793   2.659   2.715 -0.2346 -1.6804 -0.3505
17791TIP3   OH274787   5.981   1.861  11.071 -0.3592 -0.4664  0.0208
17791TIP3    H174788   6.023   1.820  10.995  1.7900 -0.3409  1.1007
17791TIP3    H274789   5.916   1.920  11.032  0.8555 -0.2112 -1.7464
17792TIP3   OH274790   3.160   4.627  13.132  0.5154 -0.5930  0.5843
17792TIP3    H174791   3.111   4.674  13.064 -0.9719 -0.0241  1.9850
17792TIP3    H274792   3.209   4.560  13.084 -0.3838 -0.1347 -1.0615
17793TIP3   OH274793   4.195   4.494  14.819 -0.0108  0.0081  0.4015
17793TIP3    H174794   4.193   4.554  14.893  2.1752  1.6432 -0.7446
17793TIP3    H274795   4.167   4.546  14.744  2.7342 -0.0222 -0.7717
17794TIP3   OH274796   1.837   2.242   3.677  0.0082 -0.2731 -0.3880
17794TIP3    H174797   1.803   2.171   3.622 -1.2909  0.0246  0.0163
17794TIP3    H274798   1.803   2.224   3.764 -0.5532  0.9771 -0.3303
17795TIP3   OH274799   6.745   2.413  16.645  0.4417  0.1075  0.1882
17795TIP3    H174800   6.809   2.409  16.716 -0.2058 -1.2219  0.7365
17795TIP3    H274801   6.765   2.337  16.591 -1.0169 -0.6771  0.7013
17796TIP3   OH274802   5.438   4.893  15.468  0.5961  0.5983 -0.6449
17796TIP3    H174803   5.503   4.884  15.399  0.4065 -0.3822 -0.7082
17796TIP3    H274804   5.359   4.852  15.433 -0.0560  1.7290 -0.5538
17797TIP3   OH274805   2.703   4.508  14.775  0.0310 -0.3514 -0.0883
17797TIP3    H174806   2.769   4.440  14.788  0.3134 -0.0028  0.3506
17797TIP3    H274807   2.746   4.588  14.805 -0.0235  0.1595 -1.3283
17798TIP3   OH274808   4.246   0.595   0.254  0.0216 -0.4441  0.6304
17798TIP3    H174809   4.193   0.618   0.178 -0.1889  2.1873  1.4705
17798TIP3    H274810   4.186   0.548   0.312 -0.7821  0.4577  0.5614
17799TIP3   OH274811   0.104   3.395  12.055  0.3217  0.2248 -0.0906
17799TIP3    H174812   0.091   3.485  12.027 -1.2679 -0.2215 -0.9238
17799TIP3    H274813   0.050   3.386  12.134  1.1517  0.2254  0.4836
17800TIP3   OH274814   2.938   0.057  12.591  0.0571 -0.4562 -1.0111
17800TIP3    H174815   2.939   0.134  12.535  0.5314  1.2958  1.2725
17800TIP3    H274816   2.846   0.036  12.602 -0.4100  2.2379  1.3666
17801TIP3   OH274817   4.972   5.168  13.525  0.5162  0.1616 -0.1928
17801TIP3    H174818   4.987   5.140  13.435 -1.5815 -2.2915  0.1184
17801TIP3    H274819   4.898   5.229  13.520 -0.7186 -1.2788 -0.0155
17802TIP3   OH274820   0.214   5.065  16.429 -0.6750 -0.4631 -0.0202
17802TIP3    H174821   0.240   5.149  16.465 -0.5408 -0.6423  0.3055
17802TIP3    H274822   0.262   5.058  16.346 -1.1777  0.0606 -0.3606
17803TIP3   OH274823   1.885   4.530  13.462 -0.1497  0.1910 -0.0370
17803TIP3    H174824   1.950   4.566  13.401 -0.6789 -0.9683 -1.3337
17803TIP3    H274825   1.813   4.501  13.406  0.5498 -3.6058  0.8050
17804TIP3   OH274826   2.504   3.415  11.847 -0.1134 -0.0587  0.3316
17804TIP3    H174827   2.507   3.453  11.935  1.7211 -0.5534  0.5184
17804TIP3    H274828   2.596   3.408  11.820 -0.6278 -0.0758 -1.5700
17805TIP3   OH274829   4.908   1.002   2.479 -0.0653 -0.4967 -0.0969
17805TIP3    H174830   4.960   0.946   2.537 -0.4699  0.6242  1.3834
17805TIP3    H274831   4.922   1.091   2.511 -1.1655  0.0497 -1.0494
17806TIP3   OH274832   4.347   5.110  13.519  0.0134  0.5086 -0.2973
17806TIP3    H174833   4.284   5.046  13.554 -3.5030  2.8163 -1.7653
17806TIP3    H274834   4.356   5.087  13.427  0.0967  1.0713 -0.4347
17807TIP3   OH274835   4.249   1.618   2.746  0.0553 -0.0343  0.3291
17807TIP3    H174836   4.203   1.663   2.675  0.2239 -1.9306 -1.0586
17807TIP3    H274837   4.333   1.662   2.751  0.3113 -0.2991 -1.1616
17808TIP3   OH274838   5.232   5.098   3.968 -0.7506 -0.0712 -0.2522
17808TIP3    H174839   5.167   5.072   4.033 -2.0388 -1.0524 -1.8767
17808TIP3    H274840   5.238   5.024   3.908 -0.2495  1.1359 -1.7577
17809TIP3   OH274841   2.661   4.636  15.588 -0.0512 -0.2593  0.0322
17809TIP3    H174842   2.686   4.723  15.619 -1.9719  0.9341 -1.4896
17809TIP3    H274843   2.576   4.619  15.629  0.0538 -1.1673 -0.1100
17810TIP3   OH274844   4.805   5.603   0.602 -0.3429  0.3987  0.5074
17810TIP3    H174845   4.799   5.551   0.522 -1.6771  0.9788  0.2185
17810TIP3    H274846   4.886   5.654   0.592  1.6614 -2.3330  1.2803
17811TIP3   OH274847   3.941   1.561   6.023  0.5639 -0.1719  0.3333
17811TIP3    H174848   3.986   1.644   6.007 -1.1924  0.7602 -0.0414
17811TIP3    H274849   3.888   1.578   6.101 -0.3024 -0.7405 -0.1305
17812TIP3   OH274850   1.640   2.113  17.187  0.5835 -0.2222  0.2632
17812TIP3    H174851   1.545   2.113  17.175  0.7682 -1.2254 -1.4116
17812TIP3    H274852   1.667   2.201  17.161  0.1387  0.0366  0.6479
17813TIP3   OH274853   1.852   4.213   2.647 -0.1269 -0.1407 -0.0513
17813TIP3    H174854   1.845   4.143   2.711  0.3882 -0.2945 -0.1573
17813TIP3    H274855   1.851   4.294   2.699  0.9131 -0.2790  0.2179
17814TIP3   OH274856   4.220   4.501   3.938  0.2209  0.5624  0.0650
17814TIP3    H174857   4.189   4.557   3.867 -0.2152 -1.6259 -1.5919
17814TIP3    H274858   4.268   4.431   3.893 -0.2637 -1.0317  1.9105
17815TIP3   OH274859   3.644   1.638  17.006 -0.7977 -0.5495  0.2877
17815TIP3    H174860   3.561   1.681  16.987  0.8795  3.1278  0.2843
17815TIP3    H274861   3.659   1.656  17.099  1.1606  1.3994 -0.3154
17816TIP3   OH274862   1.467   1.311   4.001 -0.1179  0.3958  0.1471
17816TIP3    H174863   1.391   1.343   4.050  0.2635  0.8322  0.4525
17816TIP3    H274864   1.520   1.264   4.066  0.8597  1.7697  0.3853
17817TIP3   OH274865   5.210   5.209  13.650  0.3017  0.3529  0.0927
17817TIP3    H174866   5.147   5.204  13.578 -1.0800  2.2892  1.0713
17817TIP3    H274867   5.168   5.163  13.722  0.7905  0.1464  0.2511
17818TIP3   OH274868   1.815   3.528  15.463 -0.4816 -0.3144 -0.7723
17818TIP3    H174869   1.827   3.539  15.369 -2.4393 -0.1096 -1.0536
17818TIP3    H274870   1.812   3.433  15.476  1.6947 -0.3941 -0.5933
17819TIP3   OH274871   0.538   5.354   5.574 -0.5773  0.2929 -0.0548
17819TIP3    H174872   0.632   5.369   5.562 -0.7720  0.6062 -1.3588
17819TIP3    H274873   0.508   5.433   5.618 -0.3254  0.4718 -0.1948
17820TIP3   OH274874   0.232   0.944   4.966 -0.3394  0.3215  0.2224
17820TIP3    H174875   0.187   0.966   4.884  0.7854 -0.3546 -0.5982
17820TIP3    H274876   0.318   0.912   4.938  0.3101  0.7138  1.7098
17821TIP3   OH274877   4.401   6.294  15.733 -0.1850  0.3155 -0.4355
17821TIP3    H174878   4.371   6.247  15.655 -1.3652  0.0488  0.1418
17821TIP3    H274879   4.487   6.257  15.752 -0.8307 -1.2357 -0.3469
17822TIP3   OH274880   5.173   5.253  16.649 -0.4622  0.3384  0.2540
17822TIP3    H174881   5.093   5.216  16.685  0.7413 -2.3197  0.4379
17822TIP3    H274882   5.205   5.187  16.588 -0.3284  2.9711 -2.7748
17823TIP3   OH274883   0.610   1.693  11.996  0.0667 -0.2595 -0.3409
17823TIP3    H174884   0.526   1.701  11.951 -1.1821 -2.3158  1.4234
17823TIP3    H274885   0.626   1.781  12.032 -0.9406  0.3501 -1.3102
17824TIP3   OH274886   0.153   0.650   1.438 -0.5725  0.1718  0.0057
17824TIP3    H174887   0.165   0.574   1.496 -1.1788  0.1817  0.1458
17824TIP3    H274888   0.233   0.651   1.384 -0.9994 -1.1738 -0.6997
17825TIP3   OH274889   2.329   3.752   1.142 -0.2203 -0.0367  0.2524
17825TIP3    H174890   2.299   3.836   1.106  0.6147  0.7094  1.2303
17825TIP3    H274891   2.352   3.699   1.066 -0.8055  0.5973 -0.3805
17826TIP3   OH274892   2.557   3.805  16.311 -0.1746  0.2011  0.2302
17826TIP3    H174893   2.647   3.788  16.286  0.0535  1.5983  0.0432
17826TIP3    H274894   2.556   3.897  16.338 -1.6496  0.3764 -0.3170
17827TIP3   OH274895   6.536   6.476  16.490  0.0784  0.0496  0.0147
17827TIP3    H174896   6.512   6.431  16.571 -0.8023  0.0100 -0.2567
17827TIP3    H274897   6.547   6.406  16.425 -0.9267  0.1741 -0.3149
17828TIP3   OH274898   5.129   2.686   4.992  0.4279  0.5663  0.7178
17828TIP3    H174899   5.133   2.764   4.936  0.9767 -0.7782 -1.2127
17828TIP3    H274900   5.125   2.613   4.931  0.3879 -0.9648  2.4761
17829TIP3   OH274901   5.544   1.776  11.740  0.0771 -0.0631 -0.0074
17829TIP3    H174902   5.567   1.854  11.790  0.0850  0.1582 -0.3553
17829TIP3    H274903   5.582   1.790  11.654 -2.0366  0.7141 -0.8986
17830TIP3   OH274904   1.662   4.091  14.070  0.1430  0.5270 -0.1987
17830TIP3    H174905   1.622   4.017  14.023  1.1652  1.1055 -2.1078
17830TIP3    H274906   1.756   4.082  14.052  0.4599  1.3532  0.9631
17831TIP3   OH274907   0.432   3.534  16.725  0.0977  0.9864 -0.0569
17831TIP3    H174908   0.408   3.622  16.756  0.3168  0.3340  2.0699
17831TIP3    H274909   0.503   3.507  16.783 -0.6618 -1.0232 -0.0131
17832TIP3   OH274910   2.296   1.204  12.626 -0.6964  0.3634 -0.0506
17832TIP3    H174911   2.208   1.168  12.637 -0.6268  0.4067  0.6989
17832TIP3    H274912   2.352   1.145  12.676 -0.0862 -0.4511 -1.6093
17833TIP3   OH274913   6.746   2.881  16.697 -0.0692 -0.4183 -0.0061
17833TIP3    H174914   6.796   2.883  16.779 -0.3740 -2.5760  0.2814
17833TIP3    H274915   6.680   2.949  16.708  0.4428 -0.0851  1.1614
17834TIP3   OH274916   4.258   2.578   4.369  0.2795 -0.1005 -0.0729
17834TIP3    H174917   4.299   2.657   4.403  2.3248 -1.1623  0.1151
17834TIP3    H274918   4.221   2.535   4.446  1.2067 -0.4405  0.1966
17835TIP3   OH274919   1.411   3.269   3.198  0.2905  0.6931 -0.3349
17835TIP3    H174920   1.368   3.354   3.207  0.4588  1.2093 -3.5516
17835TIP3    H274921   1.456   3.272   3.114  0.8981 -2.3427 -0.2562
17836TIP3   OH274922   3.691   1.665  10.872  0.1677  0.6964  0.9219
17836TIP3    H174923   3.786   1.676  10.880  0.1489  2.5812 -0.6350
17836TIP3    H274924   3.679   1.613  10.793 -0.1110  0.9954  0.7649
17837TIP3   OH274925   4.325   2.888   2.267 -0.0285 -0.2006  0.1003
17837TIP3    H174926   4.408   2.913   2.225 -0.3445  0.8604  0.0792
17837TIP3    H274927   4.284   2.972   2.290 -0.5041 -0.7370  1.2815
17838TIP3   OH274928   6.437   5.187   5.149 -0.2725 -0.2115  0.4302
17838TIP3    H174929   6.514   5.135   5.172  0.2182  0.1955 -0.2606
17838TIP3    H274930   6.471   5.276   5.137 -0.9580  0.0987  0.7474
17839TIP3   OH274931   0.406   4.450  13.343  0.1473 -0.0810  0.1289
17839TIP3    H174932   0.492   4.435  13.382 -0.3371 -0.5923  1.0194
17839TIP3    H274933   0.424   4.460  13.249  1.1222 -0.6710  0.2375
17840TIP3   OH274934   0.533   4.512  11.573  0.0511 -0.1203 -0.2504
17840TIP3    H174935   0.543   4.546  11.662  0.6924  0.5559 -0.5634
17840TIP3    H274936   0.490   4.428  11.584 -0.1199  0.0731  0.6814
17841TIP3   OH274937   3.998   2.250   0.335  0.5152 -0.2367 -0.2050
17841TIP3    H174938   4.006   2.236   0.240  0.6618  0.2129 -0.2613
17841TIP3    H274939   4.018   2.343   0.347 -0.1082 -0.1496  0.1983
17842TIP3   OH274940   2.385   5.262   5.797  0.3270  0.0161 -0.0474
17842TIP3    H174941   2.395   5.348   5.837 -0.8692  0.3986 -0.5327
17842TIP3    H274942   2.431   5.202   5.856  1.7498  1.0643 -0.0512
17843TIP3   OH274943   0.882   2.110  14.063 -0.0126 -0.6624 -0.0552
17843TIP3    H174944   0.922   2.025  14.081  1.8476  0.4174  1.2658
17843TIP3    H274945   0.925   2.170  14.124 -0.7865  1.3560 -1.3969
17844TIP3   OH274946   4.734   4.230  17.117 -0.0134  0.3445  0.6345
17844TIP3    H174947   4.817   4.272  17.095 -0.6339  1.5151  0.4817
17844TIP3    H274948   4.748   4.138  17.094  1.6073  0.2884  1.6215
17845TIP3   OH274949   1.463   3.704   2.874 -0.0326  0.5360 -0.2700
17845TIP3    H174950   1.492   3.647   2.802  2.0295  1.3962 -0.1787
17845TIP3    H274951   1.425   3.780   2.830  0.2746  0.5980 -0.4266
17846TIP3   OH274952   2.443   3.479  12.758 -0.1829  0.0587 -0.3641
17846TIP3    H174953   2.437   3.396  12.806 -0.5143 -0.3943 -1.1644
17846TIP3    H274954   2.526   3.473  12.711  1.5734  1.6961  2.2659
17847TIP3   OH274955   1.081   4.113  13.273  0.5363  0.0423  0.1503
17847TIP3    H174956   1.029   4.057  13.215  1.5088  1.2954 -2.0467
17847TIP3    H274957   1.172   4.098  13.247  0.9896  0.7630  1.2501
17848TIP3   OH274958   5.596   3.129  10.628  0.1274 -0.5923  1.0618
17848TIP3    H174959   5.647   3.051  10.648  1.1299  0.6794  4.1284
17848TIP3    H274960   5.617   3.191  10.699 -3.5614  1.0359  1.0199
17849TIP3   OH274961   1.275   5.691   0.146  0.2406 -0.3324  0.3170
17849TIP3    H174962   1.253   5.614   0.198 -1.0495 -0.2497 -0.0535
17849TIP3    H274963   1.218   5.685   0.069 -1.0061  1.7394  0.9857
17850TIP3   OH274964   6.454   6.070   2.308  0.2693 -0.0626 -0.1416
17850TIP3    H174965   6.372   6.043   2.266  0.4418 -1.1876  0.2296
17850TIP3    H274966   6.510   6.098   2.235  0.0137 -0.5289 -0.5233
17851TIP3   OH274967   4.002   1.927   2.672  0.3551 -0.3521  0.2762
17851TIP3    H174968   4.062   1.989   2.631  1.0343 -0.9052  0.4160
17851TIP3    H274969   3.950   1.980   2.732  2.7060 -0.2788  2.3980
17852TIP3   OH274970   0.315   5.885  12.451 -0.2740 -0.3251  0.1257
17852TIP3    H174971   0.322   5.980  12.458  1.6417 -0.3972 -0.0642
17852TIP3    H274972   0.404   5.856  12.429 -1.0668 -2.0678 -1.0615
17853TIP3   OH274973   3.658   3.246  10.861 -0.6044  0.0039  0.1073
17853TIP3    H174974   3.611   3.169  10.895  0.2310 -0.6350 -0.1488
17853TIP3    H274975   3.603   3.279  10.791 -1.1259 -0.1763  0.4264
17854TIP3   OH274976   6.057   3.434  12.855 -0.2909 -0.5475  0.9678
17854TIP3    H174977   6.133   3.375  12.852  1.7791  1.9871 -0.2556
17854TIP3    H274978   6.085   3.505  12.912 -0.7259  1.6764 -1.4192
17855TIP3   OH274979   3.160   0.021   2.249 -0.0476 -0.1249  0.3227
17855TIP3    H174980   3.204   0.102   2.273 -0.3376  0.3130 -0.5831
17855TIP3    H274981   3.225  -0.028   2.199  0.7896 -1.3389  2.4401
17856TIP3   OH274982   3.330   4.168   6.551 -0.4561  0.2172  0.2365
17856TIP3    H174983   3.350   4.168   6.645 -0.3686 -0.2810  0.2204
17856TIP3    H274984   3.371   4.088   6.518 -0.2433  0.5345 -0.2798
17857TIP3   OH274985   5.342   6.376  12.615 -0.1867  0.5601 -0.9970
17857TIP3    H174986   5.360   6.315  12.544  1.0745  0.7344 -0.8608
17857TIP3    H274987   5.306   6.321  12.685 -0.2382  0.1760 -1.3222
17858TIP3   OH274988   6.094   0.520  15.936 -0.1529  0.0054 -0.0489
17858TIP3    H174989   6.031   0.580  15.977 -0.3685  0.1849 -0.6390
17858TIP3    H274990   6.111   0.454  16.003 -0.2508  0.4800  0.4511
17859TIP3   OH274991   4.175   2.144  10.769 -0.4003  0.0067 -0.1376
17859TIP3    H174992   4.256   2.129  10.722 -0.0224 -2.0941  1.0091
17859TIP3    H274993   4.122   2.066  10.751 -0.9619 -0.0162  1.4104
17860TIP3   OH274994   5.214   5.068   5.285  0.0718  0.4150  0.7633
17860TIP3    H174995   5.295   5.022   5.260 -0.3128  0.7123 -1.1501
17860TIP3    H274996   5.163   5.001   5.332  0.3683 -0.5246 -0.2152
17861TIP3   OH274997   1.851   0.130  16.254 -0.5622 -0.2295  0.6070
17861TIP3    H174998   1.917   0.067  16.228 -0.4071 -0.1751  0.8630
17861TIP3    H274999   1.901   0.203  16.292 -0.7480 -0.0316  0.4732
17862TIP3   OH275000   2.004   4.616  14.643 -0.1431 -0.0991 -0.3020
17862TIP3    H175001   1.963   4.639  14.726  3.0056  0.1326  1.3299
17862TIP3    H275002   1.952   4.543  14.610 -1.5849 -0.0946  1.7821
17863TIP3   OH275003   6.255   0.243   1.303 -0.0598 -0.4637  0.1120
17863TIP3    H175004   6.219   0.199   1.380 -2.3633  2.0770  0.6369
17863TIP3    H275005   6.179   0.256   1.245  0.8081  1.3448 -0.7030
17864TIP3   OH275006   6.320   0.380  15.145  0.7918 -0.3539 -0.4967
17864TIP3    H175007   6.350   0.362  15.056  0.6797  0.1735 -0.6453
17864TIP3    H275008   6.352   0.306  15.196  0.3235 -0.9803 -1.0881
17865TIP3   OH275009   2.977   2.768   4.191 -0.1996  0.6426  0.2543
17865TIP3    H175010   2.973   2.698   4.256  0.0299  0.1342 -0.2640
17865TIP3    H275011   3.070   2.774   4.168 -0.3185  0.5798 -0.2690
17866TIP3   OH275012   5.181   5.229  15.107 -0.5603 -0.0005 -0.1990
17866TIP3    H175013   5.096   5.270  15.087 -0.1539  0.2562 -1.5112
17866TIP3    H275014   5.191   5.162  15.040  0.4700  0.2767 -0.3315
17867TIP3   OH275015   2.365   3.669  12.408 -1.0069 -0.6052  0.6378
17867TIP3    H175016   2.291   3.729  12.417 -0.7694 -0.5654  3.0414
17867TIP3    H275017   2.325   3.583  12.402 -1.2815 -0.4730  0.5436
17868TIP3   OH275018   4.651   1.830   4.145  0.3727 -0.5844  0.1071
17868TIP3    H175019   4.649   1.926   4.140  0.1614 -0.6602 -1.9563
17868TIP3    H275020   4.576   1.808   4.201  0.9867  0.4527  1.4114
17869TIP3   OH275021   3.829   1.095   3.399  0.4056 -0.1665 -0.2679
17869TIP3    H175022   3.912   1.087   3.352  0.9689  0.5584  0.5860
17869TIP3    H275023   3.764   1.113   3.331  0.9311 -0.7925 -0.9479
17870TIP3   OH275024   1.106   0.290  14.494 -0.2284 -0.1006 -0.6388
17870TIP3    H175025   1.186   0.321  14.535  0.3118 -0.2896 -1.5111
17870TIP3    H275026   1.070   0.226  14.556  0.4491 -0.2234 -0.3664
17871TIP3   OH275027   2.927   6.740  11.547  0.0851 -0.4704 -0.1860
17871TIP3    H175028   2.963   6.772  11.464 -0.7175  1.9649  0.3021
17871TIP3    H275029   2.978   6.662  11.567  1.7113  0.0518 -1.9374
17872TIP3   OH275030   1.734   0.127  12.169 -0.5106 -0.8709 -0.0305
17872TIP3    H175031   1.828   0.127  12.153 -0.3266 -0.7412  0.9952
17872TIP3    H275032   1.725   0.133  12.264 -1.5257 -2.9075  0.0684
17873TIP3   OH275033   4.388   6.367  10.420 -0.3224  0.3532  0.0225
17873TIP3    H175034   4.452   6.298  10.436 -2.0038 -1.1540  0.6625
17873TIP3    H275035   4.385   6.377  10.325 -0.8923 -1.3637 -0.1697
17874TIP3   OH275036   5.327   4.103   3.568 -0.1546  0.0907  0.5443
17874TIP3    H175037   5.252   4.151   3.603 -0.5265  0.1157 -0.2469
17874TIP3    H275038   5.401   4.130   3.621 -0.7254 -0.0195  1.4151
17875TIP3   OH275039   3.767   5.014   4.122  0.4464 -0.1255 -0.3283
17875TIP3    H175040   3.769   4.936   4.066  0.8529  0.8995 -1.8061
17875TIP3    H275041   3.791   5.086   4.063 -1.2217  1.3208  0.6839
17876TIP3   OH275042   0.859   6.072  11.544  0.4835  0.1526 -0.5620
17876TIP3    H175043   0.816   6.043  11.464 -1.9950  2.2288 -0.0847
17876TIP3    H275044   0.949   6.089  11.517 -0.5650  2.0833 -3.2891
17877TIP3   OH275045   5.898   0.135  15.832  0.0335  0.4264 -0.0396
17877TIP3    H175046   5.923   0.055  15.785 -1.6641 -1.0076  1.3500
17877TIP3    H275047   5.979   0.166  15.871  0.3920 -2.0795  1.4430
17878TIP3   OH275048   3.051   6.068  12.568 -0.1780 -0.3429 -0.6195
17878TIP3    H175049   3.094   6.010  12.506  1.0525 -0.3969  0.2416
17878TIP3    H275050   3.113   6.074  12.641 -0.6024  1.4733 -0.3761
17879TIP3   OH275051   6.733   6.765   3.607  0.7295 -0.2845  0.6116
17879TIP3    H175052   6.817   6.748   3.650  0.8023 -1.5407  0.0257
17879TIP3    H275053   6.739   6.856   3.577  0.7228  0.6028  3.0750
17880TIP3   OH275054   0.700   5.459   0.818  0.1572  0.1981 -0.1347
17880TIP3    H175055   0.774   5.491   0.868 -0.4530 -0.3481  1.1685
17880TIP3    H275056   0.684   5.371   0.852  1.0873 -1.1330 -2.8141
17881TIP3   OH275057   4.053   0.615  13.891 -0.2488  0.7492  0.1409
17881TIP3    H175058   4.004   0.567  13.824  1.7903  0.0053 -0.9230
17881TIP3    H275059   4.033   0.570  13.973 -0.7269 -0.0199 -0.3839
17882TIP3   OH275060   2.521   6.404   1.434 -0.0035  0.4499 -0.5314
17882TIP3    H175061   2.446   6.414   1.374 -0.3815 -1.4046 -0.4307
17882TIP3    H275062   2.503   6.322   1.481  1.1208  1.0082  0.9294
17883TIP3   OH275063   0.657   6.755  15.187  0.0729 -0.5315 -0.3416
17883TIP3    H175064   0.694   6.840  15.211  1.2089 -0.2785 -2.6717
17883TIP3    H275065   0.585   6.775  15.129 -1.5530 -1.1518  1.3643
17884TIP3   OH275066   6.493   3.797  12.503 -0.1077 -0.3135 -0.1668
17884TIP3    H175067   6.457   3.857  12.568 -0.0858 -1.3098  0.7789
17884TIP3    H275068   6.487   3.846  12.420 -1.3337  0.4812  0.3598
17885TIP3   OH275069   2.440   0.618  14.385 -0.4895  0.1246  0.2286
17885TIP3    H175070   2.347   0.628  14.367 -0.8312  2.4309  2.6341
17885TIP3    H275071   2.446   0.612  14.480  1.8555  1.3350  0.2500
17886TIP3   OH275072   1.903   2.844   0.748 -0.1079 -0.3857  0.0125
17886TIP3    H175073   1.899   2.931   0.710 -0.1383  0.0528  0.9892
17886TIP3    H275074   1.892   2.784   0.674 -1.2711  0.4511 -0.5133
17887TIP3   OH275075   2.634   2.220  12.762  1.1184  0.0062  0.1646
17887TIP3    H175076   2.703   2.158  12.784  0.4247 -0.4468  1.2132
17887TIP3    H275077   2.627   2.276  12.840  2.4028  2.0745 -1.1417
17888TIP3   OH275078   4.444   0.298  14.984  0.2361 -0.3825 -0.2167
17888TIP3    H175079   4.434   0.388  14.952  1.8256 -0.4697 -1.0650
17888TIP3    H275080   4.490   0.307  15.068 -0.7248 -0.3579  0.3235
17889TIP3   OH275081   4.668   2.462   6.307  0.1158 -0.2994  0.0095
17889TIP3    H175082   4.615   2.392   6.268  1.4201 -1.5573  0.4206
17889TIP3    H275083   4.736   2.417   6.355  1.5902  1.2610 -0.5055
17890TIP3   OH275084   4.144   1.061   2.121 -0.7761 -0.0475  0.5199
17890TIP3    H175085   4.093   1.110   2.186 -0.4371 -1.7648  2.1929
17890TIP3    H275086   4.183   1.128   2.065 -2.6342  1.4239  0.8922
17891TIP3   OH275087   4.390   0.065  15.787 -0.3076  0.5524  0.2758
17891TIP3    H175088   4.327   0.126  15.749  1.3389  3.3312  1.6621
17891TIP3    H275089   4.365   0.059  15.880  0.5196  0.4287  0.4983
17892TIP3   OH275090   1.643   1.016  12.613  0.6863 -0.1819  0.0995
17892TIP3    H175091   1.695   0.936  12.619  0.7027 -0.2174 -0.4747
17892TIP3    H275092   1.554   0.986  12.596  0.4274 -0.1287  1.2678
17893TIP3   OH275093   0.472   5.710   0.022 -0.0989  0.5790 -0.6946
17893TIP3    H175094   0.446   5.752   0.104  0.3150 -0.1457 -0.1774
17893TIP3    H275095   0.551   5.757  -0.005  0.9676 -0.4961  0.4297
17894TIP3   OH275096   4.036   2.397  15.013  0.0920 -0.0476 -0.0879
17894TIP3    H175097   3.970   2.336  15.043 -0.0079 -0.6270 -1.4059
17894TIP3    H275098   4.118   2.347  15.013  0.2991  0.2845  0.3180
17895TIP3   OH275099   3.234   3.042  15.959  0.1943 -0.1768  0.3573
17895TIP3    H175100   3.297   2.995  15.904 -0.2807 -1.1862  0.6617
17895TIP3    H275101   3.227   3.129  15.918  0.6629 -0.5486 -0.5386
17896TIP3   OH275102   4.678   3.395   3.599  0.0547  0.0473 -0.0930
17896TIP3    H175103   4.705   3.462   3.536 -0.4600  0.8711  0.5432
17896TIP3    H275104   4.618   3.440   3.658  0.4917 -0.7218  0.9668
17897TIP3   OH275105   0.161   6.071  16.052 -0.2732 -0.4901  0.0247
17897TIP3    H175106   0.092   6.046  16.112 -0.2124 -2.6905 -0.7389
17897TIP3    H275107   0.229   6.110  16.108 -0.6924 -1.4382  1.2284
17898TIP3   OH275108   2.677   5.861  17.136  0.6182 -0.5569  0.4402
17898TIP3    H175109   2.740   5.928  17.163  1.3064 -1.8151  2.0996
17898TIP3    H275110   2.727   5.803  17.080  1.1518 -1.8565  2.1848
17899TIP3   OH275111   1.315   3.229   3.668  0.5051  0.1420 -0.2692
17899TIP3    H175112   1.375   3.155   3.677  0.2659 -0.1559 -1.0263
17899TIP3    H275113   1.347   3.277   3.592  0.1980  0.3738 -0.2566
17900TIP3   OH275114   1.433   6.065   4.197 -0.0839 -0.2332 -0.1725
17900TIP3    H175115   1.433   6.140   4.257 -0.4412  0.9554 -1.6041
17900TIP3    H275116   1.342   6.035   4.196 -0.0724 -0.2707 -0.1017
17901TIP3   OH275117   1.028   3.678   3.032 -0.5117  0.1331  0.0746
17901TIP3    H175118   1.055   3.653   2.944 -0.6652  1.8860 -0.4934
17901TIP3    H275119   1.098   3.643   3.089 -1.2548 -2.4944 -0.4962
17902TIP3   OH275120   1.042   5.876   3.870 -0.0283  0.2936 -0.2905
17902TIP3    H175121   1.006   5.872   3.782 -1.1062  0.6521  0.1190
17902TIP3    H275122   0.970   5.848   3.927 -0.0362  2.0831  0.6464
17903TIP3   OH275123   3.138   0.170   1.368  0.1676  0.1675 -0.2703
17903TIP3    H175124   3.187   0.165   1.286  1.0855 -0.1461  0.2799
17903TIP3    H275125   3.169   0.251   1.409  2.1072 -1.2187  1.2006
17904TIP3   OH275126   1.357   3.345  12.956  0.2321 -0.3127  0.1297
17904TIP3    H175127   1.381   3.259  12.989 -1.9238 -0.7030  0.7816
17904TIP3    H275128   1.346   3.399  13.035  1.5944  0.6305 -0.2656
17905TIP3   OH275129   0.823   1.596   3.850 -0.4641 -0.7924  0.3141
17905TIP3    H175130   0.781   1.649   3.783 -1.2459 -1.5312  0.2016
17905TIP3    H275131   0.912   1.632   3.857 -0.9508  0.4601  0.1989
17906TIP3   OH275132   5.903   3.535  14.417 -0.2137  1.0297 -0.2236
17906TIP3    H175133   5.943   3.547  14.331 -1.0251  0.1157 -0.7417
17906TIP3    H275134   5.948   3.598  14.473  2.0281 -0.0130 -0.7424
17907TIP3   OH275135   1.944   1.930   3.090 -0.1049  0.6512 -0.1821
17907TIP3    H175136   2.003   1.921   3.015 -0.5833 -1.7231 -0.3528
17907TIP3    H275137   1.998   1.904   3.165 -0.6189 -0.5642 -0.2125
17908TIP3   OH275138   6.274   3.271  13.978 -0.0526 -0.1739 -0.6457
17908TIP3    H175139   6.315   3.337  14.034 -2.5730  0.3911  0.6963
17908TIP3    H275140   6.331   3.195  13.986  0.0239  0.0515  2.3589
17909TIP3   OH275141   1.433   4.861   1.258 -0.6040  0.0634  0.5059
17909TIP3    H175142   1.351   4.905   1.237 -0.7535  0.1938  1.3126
17909TIP3    H275143   1.418   4.824   1.345 -0.0995 -0.6419  0.2964
17910TIP3   OH275144   0.618   1.390  14.061  0.6897  0.3314  0.3291
17910TIP3    H175145   0.539   1.427  14.101 -1.0937 -0.4125 -2.2161
17910TIP3    H275146   0.624   1.302  14.098  0.0960  0.2623  0.2765
17911TIP3   OH275147   3.936   2.855  11.880  0.3238  0.1670 -0.3851
17911TIP3    H175148   3.849   2.823  11.856 -0.1389  1.0467  0.0639
17911TIP3    H275149   3.968   2.792  11.944 -0.4432  0.3883  0.2459
17912TIP3   OH275150   1.066   2.109   4.757 -0.6022 -0.1939  0.8967
17912TIP3    H175151   1.052   2.180   4.819 -0.8425  0.9318 -0.3849
17912TIP3    H275152   1.091   2.153   4.676  0.1840 -1.6358  0.3152
17913TIP3   OH275153   5.249   1.327   3.135  0.2654 -0.2363 -0.0384
17913TIP3    H175154   5.160   1.362   3.144  0.1621  0.5273 -3.0342
17913TIP3    H275155   5.305   1.396   3.171 -0.2593  0.4854 -0.5578
17914TIP3   OH275156   2.929   3.526   0.664  0.1039 -0.0256 -0.5003
17914TIP3    H175157   2.994   3.482   0.719  1.5624  0.7625 -1.5236
17914TIP3    H275158   2.845   3.504   0.704  1.1068  1.3720  2.7296
17915TIP3   OH275159   3.690   5.900   2.846 -0.2597 -0.5893 -0.3592
17915TIP3    H175160   3.647   5.818   2.820 -0.3552 -0.2602 -1.2867
17915TIP3    H275161   3.761   5.911   2.784 -0.2698  0.0517 -0.2672
17916TIP3   OH275162   4.722   0.766  13.944  0.6653 -0.1798 -0.8340
17916TIP3    H175163   4.750   0.675  13.943 -1.5963 -0.9441 -1.3316
17916TIP3    H275164   4.766   0.805  13.868 -0.0880 -1.4745 -1.9829
17917TIP3   OH275165   1.290   0.626  14.577 -0.0398 -0.1332  0.6547
17917TIP3    H175166   1.317   0.587  14.494 -1.0936  0.6625 -0.0896
17917TIP3    H275167   1.194   0.618  14.577 -0.2335  1.8921  0.7504
17918TIP3   OH275168   5.770   6.264  13.051  0.4033 -0.1261 -0.2960
17918TIP3    H175169   5.786   6.170  13.058 -1.6787 -0.5617 -0.6156
17918TIP3    H275170   5.685   6.270  13.007 -0.1710  1.8639  0.9669
17919TIP3   OH275171   2.936   2.883   5.124 -0.3574 -0.3653  0.7675
17919TIP3    H175172   2.922   2.898   5.031 -2.1167  1.2565  1.2241
17919TIP3    H275173   2.957   2.970   5.159 -2.2989 -0.4212  2.2466
17920TIP3   OH275174   5.656   1.149   4.192 -0.3353 -0.2025 -0.1568
17920TIP3    H175175   5.678   1.057   4.204 -0.6357 -0.1841  0.5490
17920TIP3    H275176   5.633   1.156   4.099 -1.8124 -1.1608  0.1113
17921TIP3   OH275177   3.723   1.958   2.552 -0.1259 -0.0057 -0.4920
17921TIP3    H175178   3.792   1.979   2.488  0.5447 -1.7180 -0.3920
17921TIP3    H275179   3.664   1.900   2.504  0.2350 -1.0809  0.3418
17922TIP3   OH275180   4.087   0.341   5.792 -0.1831 -0.3644  0.1681
17922TIP3    H175181   4.005   0.291   5.783 -1.4170  1.6323 -0.3386
17922TIP3    H275182   4.150   0.278   5.827 -1.6509 -2.2519 -0.4126
17923TIP3   OH275183   5.568   0.660   0.817  0.1378  0.1566 -0.5997
17923TIP3    H175184   5.578   0.576   0.860  0.5671  0.9220  0.8769
17923TIP3    H275185   5.655   0.700   0.821  0.0501  0.4928 -1.6839
17924TIP3   OH275186   5.424   1.971  13.518  0.1597  0.2532 -0.0052
17924TIP3    H175187   5.338   1.959  13.558  0.5010  0.1704  0.7271
17924TIP3    H275188   5.406   1.999  13.428 -0.6953 -3.2701 -1.0975
17925TIP3   OH275189   4.488   4.456  14.955 -0.0894  0.4465 -0.0219
17925TIP3    H175190   4.498   4.471  15.049 -0.5701  0.9290 -0.0462
17925TIP3    H275191   4.418   4.515  14.929  1.1015  1.4703 -0.9857
17926TIP3   OH275192   3.675   5.829   1.510  0.1167 -0.5944  0.5203
17926TIP3    H175193   3.761   5.796   1.538  0.2298 -0.7559  0.0014
17926TIP3    H275194   3.666   5.914   1.554  0.3805 -0.7440  0.8661
17927TIP3   OH275195   6.681   3.367  13.069  0.2245 -0.3352  0.2847
17927TIP3    H175196   6.683   3.312  13.147  0.9086  0.9295  1.1877
17927TIP3    H275197   6.618   3.436  13.090  0.0747 -0.2342 -0.4685
17928TIP3   OH275198   5.600   1.592  13.644  0.4695 -0.4447 -0.0466
17928TIP3    H175199   5.666   1.661  13.656  1.2243 -0.9260 -1.3304
17928TIP3    H275200   5.563   1.609  13.558  0.8204 -1.7757 -0.4750
17929TIP3   OH275201   3.294   2.509   3.088 -0.3735  0.0032  0.1339
17929TIP3    H175202   3.248   2.426   3.083 -0.8035  0.2013  0.8191
17929TIP3    H275203   3.231   2.571   3.125 -0.1067  0.6722 -0.4919
17930TIP3   OH275204   5.413   0.601  14.169 -0.0097  0.2057  0.3050
17930TIP3    H175205   5.495   0.628  14.209  0.3626  0.4698 -0.6009
17930TIP3    H275206   5.396   0.668  14.102 -1.9447  1.2094  1.7041
17931TIP3   OH275207   3.628   4.421   2.834 -0.0502  0.0622 -0.2836
17931TIP3    H175208   3.712   4.464   2.821  0.6691 -1.0551  0.4526
17931TIP3    H275209   3.569   4.490   2.866  0.5105  0.9020 -1.0387
17932TIP3   OH275210   5.430   0.665   3.248  0.3270  0.2707 -0.8763
17932TIP3    H175211   5.361   0.610   3.285 -1.0370  0.3540 -3.1074
17932TIP3    H275212   5.408   0.753   3.277  1.7201 -0.0859  1.5354
17933TIP3   OH275213   5.240   3.408   0.373 -0.0236  0.0454  0.0805
17933TIP3    H175214   5.312   3.448   0.324 -0.1220 -0.7125 -0.7082
17933TIP3    H275215   5.161   3.438   0.329 -0.1724  0.4311  0.6060
17934TIP3   OH275216   5.512   5.106   2.333  0.0460 -0.7209  0.1759
17934TIP3    H175217   5.467   5.054   2.400 -0.1851 -0.7099  0.0319
17934TIP3    H275218   5.564   5.042   2.284  0.2623 -0.7196  0.4021
17935TIP3   OH275219   2.243   6.113   0.395  0.3815  0.3806  0.0028
17935TIP3    H175220   2.242   6.067   0.479 -0.7180  0.7525  0.2166
17935TIP3    H275221   2.330   6.096   0.359 -0.0402 -2.0011 -0.0216
17936TIP3   OH275222   3.367   1.225   0.076  0.4750 -0.3218 -0.0630
17936TIP3    H175223   3.339   1.221  -0.015  2.7397 -1.0324 -0.7993
17936TIP3    H275224   3.323   1.150   0.118 -1.3869  0.5987 -0.2553
17937TIP3   OH275225   2.713   0.853  14.939 -0.1534  0.4237  0.1119
17937TIP3    H175226   2.788   0.913  14.935 -0.1971  0.5243  0.7645
17937TIP3    H275227   2.637   0.908  14.922 -0.0748  0.2817 -0.7851
17938TIP3   OH275228   3.082   2.639   3.393  0.2393 -0.4328  0.3817
17938TIP3    H175229   3.153   2.694   3.359  0.5929 -0.9487  0.2685
17938TIP3    H275230   3.035   2.695   3.455  3.3473 -1.2592  3.8583
17939TIP3   OH275231   5.807   4.411  14.181 -0.0462 -0.0859  0.2773
17939TIP3    H175232   5.831   4.498  14.149  1.5496 -1.1269 -1.6537
17939TIP3    H275233   5.712   4.412  14.186 -0.1459  1.3418 -1.0760
17940TIP3   OH275234   2.117   3.043   4.071  0.1071 -0.1271 -0.1501
17940TIP3    H175235   2.106   3.133   4.101 -0.0649 -0.8207  1.9862
17940TIP3    H275236   2.203   3.017   4.105  0.7432 -0.3946 -1.8528
17941TIP3   OH275237   0.984   0.010  15.765  0.0756  0.5534 -0.1277
17941TIP3    H175238   0.915   0.032  15.828 -0.8776 -0.3795 -0.8097
17941TIP3    H275239   0.967   0.066  15.690  1.1992  1.6491  0.4021
17942TIP3   OH275240   0.895   3.087  11.443  0.0400 -0.3164  0.2175
17942TIP3    H175241   0.926   3.079  11.353  1.4021  1.5410  0.4521
17942TIP3    H275242   0.882   2.997  11.472 -1.0265 -0.9602 -1.9961
17943TIP3   OH275243   0.172   4.766  17.276  0.3018  0.0180  0.2430
17943TIP3    H175244   0.144   4.774  17.185  1.7434  0.9155 -0.1507
17943TIP3    H275245   0.244   4.828  17.285 -0.5863  0.8321  2.3350
17944TIP3   OH275246   6.343   6.487   3.441  0.1447  0.0404 -0.0907
17944TIP3    H175247   6.406   6.515   3.507  0.4757  0.5218 -0.5949
17944TIP3    H275248   6.340   6.392   3.449  0.4747  0.0642  0.3509
17945TIP3   OH275249   0.126   3.560  14.265 -0.2509 -0.2298  0.6070
17945TIP3    H175250   0.197   3.509  14.227  0.5613  1.3964 -0.1475
17945TIP3    H275251   0.048   3.530  14.218  0.3563 -0.1297 -0.5113
17946TIP3   OH275252   0.263   5.203   1.547 -0.2273 -0.4721  0.2127
17946TIP3    H175253   0.167   5.201   1.542 -0.5652  0.2568  3.6866
17946TIP3    H275254   0.285   5.126   1.599  0.8583  0.4951  1.2304
17947TIP3   OH275255   1.959   5.733   1.498  0.1704  0.2156  0.0135
17947TIP3    H175256   1.988   5.824   1.494  1.1720 -0.0834  0.2531
17947TIP3    H275257   1.863   5.739   1.497  0.2188  1.2435 -0.4121
17948TIP3   OH275258   6.272   6.610   2.255 -0.1782  0.1076  0.6939
17948TIP3    H175259   6.197   6.552   2.269  0.0613 -0.6846 -1.0348
17948TIP3    H275260   6.349   6.557   2.275  0.1136 -0.7190 -2.1984
17949TIP3   OH275261   6.740   3.387   2.988  0.0873 -0.6692 -0.3092
17949TIP3    H175262   6.705   3.298   2.986  0.2248 -0.7280 -0.1169
17949TIP3    H275263   6.830   3.378   2.957  0.3227 -0.7033  0.3635
17950TIP3   OH275264   6.005   0.717   4.014 -0.0349  0.2315  0.4945
17950TIP3    H175265   5.961   0.644   4.058  1.7383 -0.5137  1.1264
17950TIP3    H275266   6.001   0.788   4.077  0.8576 -0.2691  1.1468
17951TIP3   OH275267   2.864   0.784  17.259 -0.8250 -0.4854  0.1152
17951TIP3    H175268   2.774   0.753  17.268 -0.1841 -1.7987  3.2647
17951TIP3    H275269   2.917   0.704  17.260  0.5556  0.3500  2.8872
17952TIP3   OH275270   5.770   1.900  12.787 -0.3114  0.1294 -0.5242
17952TIP3    H175271   5.790   1.807  12.795  1.5183  0.5384  0.0975
17952TIP3    H275272   5.828   1.932  12.718  0.6769  1.2261  0.7719
17953TIP3   OH275273   5.568   0.989  14.686 -0.6542  0.3153 -0.2953
17953TIP3    H175274   5.490   1.040  14.665  0.6496  1.1208 -3.7004
17953TIP3    H275275   5.626   1.051  14.731 -1.6830 -0.1798  1.8744
17954TIP3   OH275276   4.406   5.786   4.731 -0.5320 -0.3066 -0.1128
17954TIP3    H175277   4.403   5.833   4.648  1.1258  0.2931  0.1307
17954TIP3    H275278   4.332   5.822   4.781  1.1648  2.8396  0.4098
17955TIP3   OH275279   4.307   2.789  13.527  0.4686  0.3957 -0.0295
17955TIP3    H175280   4.212   2.792  13.517  0.4077 -0.9445 -0.0388
17955TIP3    H275281   4.332   2.879  13.548 -1.0259  0.4216  1.9765
17956TIP3   OH275282   3.910   2.626  15.999  0.0796  0.1945 -0.6323
17956TIP3    H175283   3.962   2.545  16.001 -0.8791 -0.4218  1.0414
17956TIP3    H275284   3.973   2.693  15.974  1.2280 -0.8510 -0.6634
17957TIP3   OH275285   4.480   0.777   3.913  0.1340  0.6164 -0.5674
17957TIP3    H175286   4.492   0.682   3.915  0.3654  0.6463  1.0609
17957TIP3    H275287   4.432   0.794   3.833  0.0039 -0.8911 -0.8320
17958TIP3   OH275288   2.072   0.688   3.895 -0.5847  0.3821 -0.6176
17958TIP3    H175289   2.161   0.690   3.930  0.6132  1.1999 -3.4495
17958TIP3    H275290   2.047   0.780   3.885 -1.9427  0.1750  0.4518
17959TIP3   OH275291   4.161   4.053  11.537 -0.1683 -0.1636 -0.7882
17959TIP3    H175292   4.242   4.022  11.578 -1.5122 -1.8729  0.7958
17959TIP3    H275293   4.161   4.015  11.450 -1.0610 -3.8059  0.5863
17960TIP3   OH275294   0.137   6.394   2.782 -0.4398 -0.2485 -0.0943
17960TIP3    H175295   0.118   6.333   2.853 -0.1872  0.2917  0.4388
17960TIP3    H275296   0.101   6.477   2.811  1.0940  0.3726  0.1360
17961TIP3   OH275297   1.740   3.159   5.114  0.8230 -0.2422  0.9749
17961TIP3    H175298   1.705   3.196   5.195 -0.7843 -1.1160  0.7164
17961TIP3    H275299   1.724   3.065   5.122  3.0033 -0.6979  0.7458
17962TIP3   OH275300   6.754   4.232   6.242  0.3922  0.1337 -0.3346
17962TIP3    H175301   6.754   4.136   6.245 -1.2037  0.1166  0.7719
17962TIP3    H275302   6.825   4.258   6.300 -1.0253 -0.4414  1.7969
17963TIP3   OH275303   3.544   1.027  16.938  0.1086 -0.4381 -0.2956
17963TIP3    H175304   3.571   1.018  17.030  2.4536 -0.5277 -0.9170
17963TIP3    H275305   3.457   1.065  16.942  0.8352  1.1899  1.9626
17964TIP3   OH275306   0.428   6.625   5.272  0.0540 -0.3163  0.1317
17964TIP3    H175307   0.469   6.696   5.223 -1.1582  2.2560  2.5394
17964TIP3    H275308   0.365   6.669   5.329 -0.4453 -3.3172  2.1142
17965TIP3   OH275309   6.175   3.591   1.757  0.0814  0.3237 -0.0150
17965TIP3    H175310   6.166   3.685   1.774 -0.1076  0.1047  1.1897
17965TIP3    H275311   6.088   3.555   1.774  0.3322 -0.1626  0.2641
17966TIP3   OH275312   4.082   4.960  10.471 -0.0217  0.1770  0.5808
17966TIP3    H175313   4.077   4.914  10.554 -1.2121 -0.6224  0.1030
17966TIP3    H275314   4.175   4.979  10.459  0.3565 -1.0750  1.3471
17967TIP3   OH275315   2.257   1.342  16.937 -0.5297  0.0512 -0.0679
17967TIP3    H175316   2.211   1.326  16.855  0.4495  0.8884 -0.8162
17967TIP3    H275317   2.303   1.259  16.955  0.5037  0.3379 -1.2259
17968TIP3   OH275318   2.354   0.717   2.568 -0.3766 -0.2537  0.0709
17968TIP3    H175319   2.319   0.687   2.485 -0.3266  0.2251 -0.1279
17968TIP3    H275320   2.396   0.640   2.606  2.5356  0.2265 -1.8652
17969TIP3   OH275321   0.743   3.508  11.565 -0.6054  0.5226  0.3840
17969TIP3    H175322   0.771   3.421  11.593 -0.9394  0.4475  0.4890
17969TIP3    H275323   0.745   3.505  11.469  0.4538  0.7512  0.3904
17970TIP3   OH275324   1.153   3.156  12.510 -0.3572 -0.1961  0.2912
17970TIP3    H175325   1.135   3.077  12.458 -1.3387  0.8501 -1.0174
17970TIP3    H275326   1.069   3.200  12.516  0.3680  1.2502  0.1449
17971TIP3   OH275327   4.389   6.355   3.138 -0.3170 -0.3015  0.0959
17971TIP3    H175328   4.389   6.264   3.168  0.0770 -0.1164  0.6693
17971TIP3    H275329   4.473   6.366   3.095  1.1513  0.7296  2.9974
17972TIP3   OH275330   5.337   0.406  15.572  0.4367 -0.0414  0.0675
17972TIP3    H175331   5.427   0.400  15.605  0.3966 -2.8595 -0.0924
17972TIP3    H275332   5.284   0.375  15.645 -0.3757  0.9497 -0.0838
17973TIP3   OH275333   0.811   1.292   3.695  0.5263 -0.2008  0.2291
17973TIP3    H175334   0.813   1.375   3.647  1.0386 -0.5386 -0.3530
17973TIP3    H275335   0.719   1.279   3.717  0.4091  0.4095  0.1340
17974TIP3   OH275336   1.482   6.689  17.332 -0.5481 -0.0580 -0.2539
17974TIP3    H175337   1.539   6.629  17.285  0.0908  0.5174 -0.2215
17974TIP3    H275338   1.405   6.636  17.355 -0.9302 -0.3336 -2.0225
17975TIP3   OH275339   6.706   6.361  16.977 -0.2001 -0.3187 -0.2482
17975TIP3    H175340   6.635   6.341  16.917  0.0559  0.1636 -0.7117
17975TIP3    H275341   6.678   6.322  17.061 -1.4929  0.7842 -0.1424
17976TIP3   OH275342   0.364   4.971  16.176 -0.0970 -0.6013  0.1880
17976TIP3    H175343   0.410   4.911  16.116  0.3961 -1.6979  1.6141
17976TIP3    H275344   0.349   5.050  16.124  0.8987 -1.2711 -1.1778
17977TIP3   OH275345   2.501   1.284   3.249 -0.0729  0.0723 -0.4452
17977TIP3    H175346   2.583   1.244   3.220 -0.3674 -0.0328 -1.1398
17977TIP3    H275347   2.436   1.255   3.186 -1.1291 -1.7234  1.3606
17978TIP3   OH275348   4.083   5.799   3.489  0.2080  0.2102 -0.9528
17978TIP3    H175349   4.046   5.888   3.480 -1.4325 -0.2497  0.6359
17978TIP3    H275350   4.097   5.789   3.583 -0.3704 -1.4800 -1.0232
17979TIP3   OH275351   2.837   6.764  16.370  0.0147  0.1739  0.3259
17979TIP3    H175352   2.834   6.774  16.275 -1.0956 -1.3012  0.1741
17979TIP3    H275353   2.757   6.805  16.402  0.3326  0.5749  0.6214
17980TIP3   OH275354   3.319   0.326   6.536 -0.4042 -0.4306 -0.3795
17980TIP3    H175355   3.306   0.275   6.616 -0.5535 -0.5782 -0.4961
17980TIP3    H275356   3.242   0.305   6.482 -0.8018  0.4240 -0.1631
17981TIP3   OH275357   1.894   1.583  13.867  0.5612  0.2530 -0.4048
17981TIP3    H175358   1.809   1.545  13.846 -0.0921  1.2529  0.3258
17981TIP3    H275359   1.944   1.511  13.905 -0.4360 -0.0460  0.3916
17982TIP3   OH275360   4.574   1.169   1.877 -0.2524 -0.2540 -0.4649
17982TIP3    H175361   4.539   1.080   1.877 -0.6542 -0.0990 -0.4361
17982TIP3    H275362   4.661   1.160   1.915 -1.1526 -0.3024  1.7542
17983TIP3   OH275363   0.226   0.624  13.330 -0.5261  0.1912  0.1805
17983TIP3    H175364   0.142   0.614  13.286 -0.1080 -1.7787 -0.2686
17983TIP3    H275365   0.229   0.553  13.394  0.6479  0.4332  0.4264
17984TIP3   OH275366   1.711   0.485  16.861 -0.2314 -0.1867  0.8279
17984TIP3    H175367   1.769   0.476  16.785 -1.0561 -1.7286  0.3391
17984TIP3    H275368   1.766   0.459  16.935  0.2318  0.1577  0.6135
17985TIP3   OH275369   0.590   5.046   0.090 -0.0604 -0.4062 -0.1731
17985TIP3    H175370   0.550   5.063   0.175  1.0846  0.0452  0.3043
17985TIP3    H275371   0.595   4.951   0.084  0.1190 -0.4345  0.4042
17986TIP3   OH275372   6.583   4.330  17.091  0.1486 -0.0344  0.4587
17986TIP3    H175373   6.504   4.277  17.084  0.4345 -0.6737  1.8520
17986TIP3    H275374   6.557   4.416  17.058 -2.0639  0.7062  3.6935
17987TIP3   OH275375   5.410   5.119  15.620 -0.1532  0.0925  0.5106
17987TIP3    H175376   5.430   5.032  15.585 -1.8276 -0.0226 -0.2862
17987TIP3    H275377   5.339   5.151  15.564  1.8881  2.9547 -0.7086
17988TIP3   OH275378   2.121   1.954   0.496 -0.0941  0.6466 -0.3237
17988TIP3    H175379   2.034   1.954   0.457 -0.2973  1.3407  0.1147
17988TIP3    H275380   2.157   2.041   0.474  0.2425  0.6004  0.0302
17989TIP3   OH275381   0.318   2.864  15.129  0.5100 -0.3054 -0.0635
17989TIP3    H175382   0.256   2.918  15.178 -1.9343 -0.5295 -2.5839
17989TIP3    H275383   0.389   2.923  15.104 -1.3425  1.4706 -1.4622
17990TIP3   OH275384   5.917   3.622  12.206 -0.1377 -0.6213  0.0703
17990TIP3    H175385   5.821   3.614  12.207 -0.1066 -1.8019 -1.8582
17990TIP3    H275386   5.932   3.716  12.209 -1.3568 -0.4148  0.5678
17991TIP3   OH275387   0.118   2.404  12.689 -0.3356  0.5258 -0.1663
17991TIP3    H175388   0.061   2.340  12.731 -1.5952  1.0953 -0.9113
17991TIP3    H275389   0.187   2.421  12.753 -2.2688  1.5267  1.8318
17992TIP3   OH275390   6.698   2.658   0.269  0.1675 -0.4533  0.0064
17992TIP3    H175391   6.606   2.636   0.254  0.1933 -1.7144  1.4895
17992TIP3    H275392   6.745   2.574   0.263  1.2642  0.2002 -0.9462
17993TIP3   OH275393   1.563   1.451  12.136  0.0698 -0.6972 -0.0870
17993TIP3    H175394   1.610   1.530  12.109 -0.7875  0.2829  1.1510
17993TIP3    H275395   1.627   1.400  12.185  1.0908 -1.5904 -2.2387
17994TIP3   OH275396   6.536   2.557  17.222 -0.1668 -0.1518  0.3191
17994TIP3    H175397   6.482   2.619  17.271 -1.3923 -1.6861  1.0258
17994TIP3    H275398   6.526   2.474  17.270 -0.5473 -1.4777 -1.8814
17995TIP3   OH275399   5.400   5.640  12.309 -0.1020  0.2345 -0.5782
17995TIP3    H175400   5.393   5.682  12.223 -0.4799  1.0397 -0.1532
17995TIP3    H275401   5.459   5.696  12.359  0.0972 -0.2215 -0.2885
17996TIP3   OH275402   3.775   4.344   5.992 -0.1103 -0.3835 -0.5760
17996TIP3    H175403   3.779   4.249   6.004 -1.4009 -0.4325 -0.4179
17996TIP3    H275404   3.802   4.380   6.077 -1.7468 -0.6510  0.0900
17997TIP3   OH275405   0.763   3.360  16.491  0.2264  0.0863  0.3333
17997TIP3    H175406   0.737   3.447  16.523 -0.5000 -0.0707  0.1818
17997TIP3    H275407   0.753   3.366  16.396 -0.0166 -0.2298  0.3395
17998TIP3   OH275408   4.685   6.231  13.207  0.0123 -0.2019 -0.3656
17998TIP3    H175409   4.720   6.302  13.153  1.7170 -1.1818 -0.6156
17998TIP3    H275410   4.637   6.276  13.276  3.6495  1.4994  1.3518
17999TIP3   OH275411   3.347   0.592   3.488 -0.0629 -0.6987 -0.0777
17999TIP3    H175412   3.285   0.521   3.506  0.8034 -1.8760 -1.5236
17999TIP3    H275413   3.380   0.574   3.400 -1.4019  2.7336 -1.4717
18000TIP3   OH275414   4.941   0.061  12.227  0.3743  0.3455 -0.4914
18000TIP3    H175415   4.885   0.126  12.271  0.3724  0.9120 -1.3036
18000TIP3    H275416   4.879   0.005  12.179  0.4431  0.3659 -0.6026
18001TIP3   OH275417   6.295   0.249  13.641 -0.5584 -0.3919 -0.0709
18001TIP3    H175418   6.376   0.202  13.659 -1.0005 -1.4166 -0.6198
18001TIP3    H275419   6.320   0.319  13.582  0.0677 -0.1205  0.5018
18002TIP3   OH275420   6.073   3.616  16.574  0.0450  0.1066 -0.0685
18002TIP3    H175421   6.121   3.562  16.637  0.3302 -0.5250 -0.8127
18002TIP3    H275422   6.138   3.677  16.541 -0.1951  0.6922  0.5126
18003TIP3   OH275423   5.381   1.481   0.214 -0.5944 -0.2187  0.5294
18003TIP3    H175424   5.382   1.572   0.186  1.0461 -0.5524 -0.6327
18003TIP3    H275425   5.441   1.478   0.289  0.2496 -0.5355 -0.1507
18004TIP3   OH275426   6.079   0.941   5.587 -1.3893 -0.2852 -0.0579
18004TIP3    H175427   6.147   0.886   5.625  0.3299  0.7907 -1.4162
18004TIP3    H275428   6.076   0.915   5.494 -1.1508  1.2508 -0.5232
18005TIP3   OH275429   0.607   1.296   1.700  0.3973 -0.0496 -0.0799
18005TIP3    H175430   0.631   1.205   1.711  1.3737  0.1082 -0.8350
18005TIP3    H275431   0.690   1.343   1.694 -0.0216  1.1640  2.1924
18006TIP3   OH275432   2.513   6.349   6.536 -0.1948  0.0361 -0.4974
18006TIP3    H175433   2.546   6.432   6.501 -0.8675  0.3765 -0.3464
18006TIP3    H275434   2.435   6.374   6.585  0.5501 -0.4721  0.9853
18007TIP3   OH275435   5.786   0.715   1.866  0.3760 -0.4001 -0.2234
18007TIP3    H175436   5.854   0.675   1.813  0.0538  0.1681 -1.0875
18007TIP3    H275437   5.831   0.782   1.917  0.5695 -0.4632 -0.3127
18008TIP3   OH275438   3.374   0.956  13.208 -0.0004 -0.1877  0.6210
18008TIP3    H175439   3.335   0.868  13.207 -0.7610  0.1454  0.1792
18008TIP3    H275440   3.377   0.982  13.117  0.7471  0.0254  0.7063
18009TIP3   OH275441   3.062   1.902  12.539 -0.4154 -0.3839  0.4359
18009TIP3    H175442   3.084   1.902  12.446  1.7732  0.8064  0.8858
18009TIP3    H275443   3.017   1.985  12.553  0.2413 -0.0609  0.6390
18010TIP3   OH275444   2.947   0.838  15.979 -0.0711  0.4451  0.1395
18010TIP3    H175445   2.865   0.857  16.026  0.2074  0.4994  0.6048
18010TIP3    H275446   3.003   0.797  16.044  0.8306  1.7826  0.2391
18011TIP3   OH275447   2.276   0.304   2.492 -0.0985  0.0464  0.4346
18011TIP3    H175448   2.205   0.368   2.500 -0.6024 -0.5938  1.2868
18011TIP3    H275449   2.311   0.297   2.581  2.2824  1.7066 -0.2567
18012TIP3   OH275450   2.172   2.404  14.162  0.2863 -0.0636  0.6268
18012TIP3    H175451   2.238   2.339  14.141  0.5536  0.2301  0.5447
18012TIP3    H275452   2.138   2.377  14.248  1.5175  0.5616  1.3391
18013TIP3   OH275453   2.496   3.518  14.820  0.0312 -0.0341 -0.3127
18013TIP3    H175454   2.513   3.471  14.901 -0.7598 -0.5327 -0.4250
18013TIP3    H275455   2.507   3.610  14.843 -0.6256 -0.1402  0.4856
18014TIP3   OH275456   1.612   2.092   3.835  0.0523 -0.1738  0.0375
18014TIP3    H175457   1.631   2.096   3.929 -0.1816  0.7721  0.0571
18014TIP3    H275458   1.584   2.002   3.820 -0.7798 -0.1134  1.0512
18015TIP3   OH275459   6.612   3.099  16.773 -0.4269  0.3019  0.3487
18015TIP3    H175460   6.617   3.081  16.867 -1.2784  0.5309  0.4503
18015TIP3    H275461   6.642   3.190  16.764  1.7842 -0.3926  0.1011
18016TIP3   OH275462   2.760   6.761   3.765  0.7974  0.3924  0.0619
18016TIP3    H175463   2.686   6.700   3.772  0.8235  0.5207  2.0392
18016TIP3    H275464   2.721   6.842   3.732  0.8885 -0.7934 -3.4035
18017TIP3   OH275465   4.402   2.328   6.635  0.1777 -0.0243 -0.3528
18017TIP3    H175466   4.359   2.395   6.582  0.6277 -0.5977 -1.4610
18017TIP3    H275467   4.331   2.285   6.683 -0.2462  0.4029 -0.5919
18018TIP3   OH275468   1.014   2.979   5.445 -0.4700 -0.6048  0.2556
18018TIP3    H175469   1.103   3.009   5.426 -1.0371  0.8001 -0.3485
18018TIP3    H275470   0.998   3.006   5.535 -0.4740 -0.3862  0.1891
18019TIP3   OH275471   0.450   2.038   1.734  0.2981 -0.3445 -0.8307
18019TIP3    H175472   0.380   2.054   1.797  1.4452  0.2445  0.3305
18019TIP3    H275473   0.530   2.040   1.785  1.0812 -2.7454 -1.8377
18020TIP3   OH275474   6.483   4.111  15.580 -0.5709 -0.1909 -0.0136
18020TIP3    H175475   6.445   4.163  15.651  0.1299 -0.0439  0.2572
18020TIP3    H275476   6.511   4.030  15.623  0.2871  0.0948 -0.0285
18021TIP3   OH275477   2.757   5.896   3.900  0.1467  0.1847 -0.4817
18021TIP3    H175478   2.825   5.834   3.876 -1.0890 -1.5211  0.2196
18021TIP3    H275479   2.740   5.947   3.820  0.5632 -0.9962 -1.3415
18022TIP3   OH275480   1.420   0.766   1.463 -0.1469 -0.4263  0.2780
18022TIP3    H175481   1.378   0.698   1.410 -1.9098  0.8947 -0.1355
18022TIP3    H275482   1.362   0.776   1.539  0.1811  0.4655  0.4249
18023TIP3   OH275483   0.681   4.246   6.007 -0.6449 -0.4287 -0.1400
18023TIP3    H175484   0.637   4.234   6.091 -2.1089  0.5258 -0.7207
18023TIP3    H275485   0.774   4.240   6.027 -0.9719 -0.5132  1.4918
18024TIP3   OH275486   4.705   1.252   2.141 -0.1615 -0.1651  0.0200
18024TIP3    H175487   4.750   1.191   2.082  1.3744  1.1422 -0.2184
18024TIP3    H275488   4.759   1.331   2.140 -2.1218  1.2473  0.2872
18025TIP3   OH275489   4.721   1.295   1.279  0.4667 -0.2331 -0.7351
18025TIP3    H175490   4.755   1.373   1.236  0.1457 -0.4639 -1.4092
18025TIP3    H275491   4.630   1.289   1.251  0.7527 -1.3968 -1.5009
18026TIP3   OH275492   0.377   1.706   3.602  0.1003 -0.0226  0.0430
18026TIP3    H175493   0.307   1.771   3.589  0.0713 -0.0130  0.2508
18026TIP3    H275494   0.440   1.751   3.658 -1.3363 -1.1977  2.7785
18027TIP3   OH275495   6.035   6.234   0.774 -0.7347 -0.4250 -0.9840
18027TIP3    H175496   6.034   6.200   0.684  0.7442  1.6335 -1.8746
18027TIP3    H275497   6.122   6.274   0.783 -0.9308 -0.3923  1.3120
18028TIP3   OH275498   3.111   1.415   0.932 -0.3664 -0.6970  0.2477
18028TIP3    H175499   3.098   1.508   0.949  0.8558 -0.1640 -1.3664
18028TIP3    H275500   3.154   1.382   1.011 -1.1585  0.0176  0.9900
18029TIP3   OH275501   4.852   5.503  17.258  0.5140  0.0168  0.0163
18029TIP3    H175502   4.787   5.537  17.197  1.9729  1.3750 -0.8656
18029TIP3    H275503   4.831   5.545  17.342 -0.2468 -0.2411 -0.0343
18030TIP3   OH275504   0.853   6.522  14.800 -0.0685  0.0168  0.2284
18030TIP3    H175505   0.855   6.432  14.834 -0.0230  0.6502  2.0271
18030TIP3    H275506   0.846   6.577  14.878 -3.7256  1.4975 -0.9420
18031TIP3   OH275507   1.646   2.998  14.917 -0.1197 -0.3981 -0.2600
18031TIP3    H175508   1.709   3.009  14.846  0.4839 -1.8596  0.0154
18031TIP3    H275509   1.602   2.914  14.898 -2.3693  0.7947 -0.7135
18032TIP3   OH275510   5.942   2.626   3.876 -0.9245 -0.0543 -0.2116
18032TIP3    H175511   5.978   2.649   3.790  1.4587 -1.4262  0.3319
18032TIP3    H275512   5.848   2.615   3.860 -0.5885 -0.0455 -2.5931
18033TIP3   OH275513   6.413   3.480   6.015  0.3444 -0.0557 -0.5703
18033TIP3    H175514   6.395   3.389   5.990 -0.2892  0.0138 -0.3768
18033TIP3    H275515   6.506   3.491   5.997  0.5067 -0.8503 -0.2671
18034TIP3   OH275516   2.951   5.726  16.638 -0.9537 -0.4688  0.0772
18034TIP3    H175517   2.863   5.725  16.601 -1.1608 -1.1509  0.5626
18034TIP3    H275518   3.003   5.778  16.576 -1.7127  0.0329 -0.1567
18035TIP3   OH275519   3.291   2.742  15.531 -0.2525 -0.1141  0.2449
18035TIP3    H175520   3.314   2.702  15.447 -0.9286 -0.2690  0.1272
18035TIP3    H275521   3.375   2.756  15.575  0.1699  0.7039 -0.7849
18036TIP3   OH275522   4.273   1.028  15.138  0.1272  0.8533 -0.0171
18036TIP3    H175523   4.214   1.102  15.154 -1.8215 -0.4082 -1.0203
18036TIP3    H275524   4.274   1.018  15.043  1.0323  0.0914  0.0572
18037TIP3   OH275525   1.831   2.490  11.441  0.2356 -0.2672 -0.2420
18037TIP3    H175526   1.853   2.508  11.532 -1.7246 -0.7326  0.3771
18037TIP3    H275527   1.835   2.575  11.398 -1.8058  0.5457  1.0084
18038TIP3   OH275528   3.527   2.811  15.085  0.3659 -0.0752  0.0386
18038TIP3    H175529   3.434   2.827  15.098  0.7930  1.7943  1.1346
18038TIP3    H275530   3.531   2.722  15.049 -1.8417 -0.0415 -0.4553
18039TIP3   OH275531   0.456   2.297   5.115  0.3302  0.1874 -0.2059
18039TIP3    H175532   0.418   2.381   5.140  0.0134  0.1718 -0.6279
18039TIP3    H275533   0.492   2.311   5.027  0.5768 -0.0261 -0.1428
18040TIP3   OH275534   4.065   6.493  11.725  0.7955  0.3427  0.0429
18040TIP3    H175535   4.084   6.414  11.776 -1.6496  1.3475  2.8135
18040TIP3    H275536   4.069   6.464  11.634  0.2400 -2.9208  0.9140
18041TIP3   OH275537   3.306   6.337   6.041  0.5048  0.1334 -0.0663
18041TIP3    H175538   3.217   6.360   6.070  0.6876  0.4555  0.2465
18041TIP3    H275539   3.359   6.344   6.120  0.4732 -2.0150  0.1852
18042TIP3   OH275540   2.992   4.769  13.966  0.0395 -0.1392 -0.2800
18042TIP3    H175541   3.072   4.798  13.923  0.9542 -0.7536  0.9378
18042TIP3    H275542   2.963   4.693  13.915  1.4215 -1.2096  0.4641
18043TIP3   OH275543   1.152   6.031   4.229  0.1780  0.4051  0.2792
18043TIP3    H175544   1.103   5.970   4.284  0.3800  0.6093  0.6869
18043TIP3    H275545   1.125   6.118   4.258 -0.7196  0.5248 -0.8540
18044TIP3   OH275546   2.412   5.951  16.286  0.0359  0.1999 -0.5541
18044TIP3    H175547   2.363   5.978  16.208 -1.4055  0.5703  0.4394
18044TIP3    H275548   2.503   5.945  16.256 -0.2850  1.5643 -1.9502
18045TIP3   OH275549   0.016   4.148  17.026 -0.4579  0.0275 -0.0427
18045TIP3    H175550  -0.049   4.201  17.070 -0.9065  0.6355 -1.3807
18045TIP3    H275551   0.058   4.208  16.964  1.2945 -0.3765  0.6721
18046TIP3   OH275552   0.427   3.009   5.116  0.4121  0.2885 -0.2499
18046TIP3    H175553   0.450   3.073   5.184  1.2200 -0.7540  0.4937
18046TIP3    H275554   0.400   2.932   5.165 -1.2040  0.2527 -1.1292
18047TIP3   OH275555   6.735   4.585  12.330 -0.3271 -0.2140  0.3979
18047TIP3    H175556   6.659   4.535  12.300  0.1453 -1.2745  0.9114
18047TIP3    H275557   6.741   4.659  12.269 -0.6807 -1.1254 -0.7780
18048TIP3   OH275558   0.561   4.296   4.798 -0.3590 -0.4496  0.2570
18048TIP3    H175559   0.501   4.370   4.788 -0.5904 -0.5213  1.0286
18048TIP3    H275560   0.548   4.267   4.888  1.9067  0.4655  0.9438
18049TIP3   OH275561   6.612   4.345   4.284  0.1134 -0.6428 -0.1702
18049TIP3    H175562   6.613   4.374   4.193 -0.0203 -0.7759 -0.2158
18049TIP3    H275563   6.684   4.282   4.291  1.0721  0.4516  0.1876
18050TIP3   OH275564   2.972   4.713   4.657  0.0812  0.4354  0.1429
18050TIP3    H175565   3.064   4.694   4.642  0.2364  0.8730  0.5473
18050TIP3    H275566   2.943   4.643   4.716  0.6957  1.5023  1.7665
18051TIP3   OH275567   2.223   6.057   4.484 -0.3988  0.5709  0.8730
18051TIP3    H175568   2.193   6.148   4.477 -1.4209  0.2483  0.8331
18051TIP3    H275569   2.178   6.024   4.562  0.7014  0.3600  1.4421
18052TIP3   OH275570   5.699   5.146  14.058  1.0203 -0.0785  0.7261
18052TIP3    H175571   5.731   5.198  13.984  0.3929 -0.0255  0.4879
18052TIP3    H275572   5.622   5.194  14.089  0.5657 -0.7486  0.6415
18053TIP3   OH275573   2.749   1.186   3.603  0.1153 -0.2114  0.2749
18053TIP3    H175574   2.767   1.157   3.692  0.2189 -1.1889 -0.0549
18053TIP3    H275575   2.835   1.213   3.569  0.0937  0.0535  0.4229
18054TIP3   OH275576   1.638   5.593   6.455  0.2120  0.2576  0.4036
18054TIP3    H175577   1.652   5.671   6.508  1.5174 -0.3914  1.0643
18054TIP3    H275578   1.690   5.609   6.376 -0.8785  0.7652 -0.2298
18055TIP3   OH275579   4.038   6.768  12.782  0.1103 -0.3929 -0.2791
18055TIP3    H175580   4.059   6.686  12.826  0.5283 -0.4728 -0.6249
18055TIP3    H275581   3.955   6.750  12.737  0.1420 -0.5881 -0.2592
18056TIP3   OH275582   6.289   5.878  11.529  0.0041  0.3648  0.3391
18056TIP3    H175583   6.360   5.882  11.465 -1.3863  0.0807 -1.3022
18056TIP3    H275584   6.302   5.795  11.575  0.6511  0.2581 -0.0281
18057TIP3   OH275585   5.023   0.520   0.475 -0.3265 -0.5767  0.1612
18057TIP3    H175586   4.931   0.494   0.474  0.0523 -2.1146  1.5576
18057TIP3    H275587   5.065   0.459   0.536  1.5596  0.3140 -0.1718
18058TIP3   OH275588   6.053   2.613   4.973  0.1544 -0.4608 -0.4232
18058TIP3    H175589   5.967   2.582   4.945 -0.4802  2.3819 -2.0581
18058TIP3    H275590   6.109   2.600   4.896 -0.2532  2.5328 -1.3566
18059TIP3   OH275591   2.743   2.922   1.017 -0.4445 -0.0099 -0.0703
18059TIP3    H175592   2.778   2.876   0.941 -1.1087 -1.7078  0.5952
18059TIP3    H275593   2.777   2.874   1.092 -2.0770 -0.1475  0.6285
18060TIP3   OH275594   0.881   2.409  16.363 -0.7048  0.4698  0.6203
18060TIP3    H175595   0.789   2.401  16.336 -0.7452 -1.6536  1.1949
18060TIP3    H275596   0.930   2.390  16.283 -0.7759  0.3111  0.6140
18061TIP3   OH275597   0.820   6.769   5.975 -0.1141 -0.1327 -0.0626
18061TIP3    H175598   0.737   6.725   5.996 -0.1722  0.8028  1.8923
18061TIP3    H275599   0.865   6.708   5.916 -1.1228 -1.8084  0.8013
18062TIP3   OH275600   6.305   1.925  15.116 -0.5524 -0.1097  0.3087
18062TIP3    H175601   6.358   1.985  15.063 -1.6700  2.4203  1.8764
18062TIP3    H275602   6.216   1.934  15.080 -1.1867  1.1142  2.0442
18063TIP3   OH275603   4.217   3.277  15.183 -0.1420 -0.0902  0.3509
18063TIP3    H175604   4.196   3.334  15.258 -1.1147  1.0076 -0.7188
18063TIP3    H275605   4.190   3.190  15.212 -1.0701  0.4141  1.0624
18064TIP3   OH275606   4.581   4.400   6.049  0.4739 -0.6122  0.3410
18064TIP3    H175607   4.573   4.419   6.142 -0.5652  1.1121 -0.0531
18064TIP3    H275608   4.559   4.483   6.006 -1.1673 -1.8983 -1.4826
18065TIP3   OH275609   6.477   1.849   3.197 -0.1488  0.5756 -0.6107
18065TIP3    H175610   6.396   1.798   3.205  0.5169 -0.4150  0.1091
18065TIP3    H275611   6.538   1.790   3.153 -0.1407  1.7271 -2.1874
18066TIP3   OH275612   4.122   1.104  11.996  0.3196  0.9331  0.0079
18066TIP3    H175613   4.172   1.036  11.952 -0.1143  1.3638 -1.2011
18066TIP3    H275614   4.149   1.099  12.088  0.9682 -0.2427 -0.2338
18067TIP3   OH275615   0.125   3.570  13.734  0.0120  0.1354  0.2643
18067TIP3    H175616   0.197   3.542  13.676 -0.2045  0.0337  0.0435
18067TIP3    H275617   0.072   3.491  13.746 -0.0360  0.1988  0.4679
18068TIP3   OH275618   2.786   2.851   4.453 -0.3817  0.4009 -0.4636
18068TIP3    H175619   2.692   2.862   4.440 -0.3086 -0.2637 -1.7607
18068TIP3    H275620   2.794   2.778   4.514 -0.7060  0.9280  0.2213
18069TIP3   OH275621   5.520   3.461  14.903  0.2010 -0.0377 -0.8061
18069TIP3    H175622   5.608   3.434  14.875  0.3578 -1.2210  0.6866
18069TIP3    H275623   5.536   3.526  14.972  0.0456 -1.9035  1.1116
18070TIP3   OH275624   2.447   5.044  13.571  0.1433  0.0024  0.6710
18070TIP3    H175625   2.388   4.991  13.623 -0.9532  0.8619  0.3432
18070TIP3    H275626   2.450   5.129  13.616  0.7490  0.1277  0.4123
18071TIP3   OH275627   4.716   4.112  11.003  0.0705 -0.6622 -0.0531
18071TIP3    H175628   4.771   4.060  11.061  1.4945 -0.6911 -1.3628
18071TIP3    H275629   4.727   4.073  10.917  1.1590  1.7222 -1.0802
18072TIP3   OH275630   0.171   0.388   5.932  0.8186  0.1377  0.0047
18072TIP3    H175631   0.238   0.386   5.863  2.7654  1.0207  1.7743
18072TIP3    H275632   0.156   0.296   5.953  1.0901 -0.0897 -0.7526
18073TIP3   OH275633   4.745   0.174   3.635 -0.3203  0.0823 -0.1180
18073TIP3    H175634   4.773   0.224   3.712 -3.7340  1.0677  0.6700
18073TIP3    H275635   4.771   0.228   3.561  0.3705  0.6172  0.4959
18074TIP3   OH275636   5.587   2.024   2.907  0.0553 -0.5161 -0.1731
18074TIP3    H175637   5.508   1.974   2.886 -1.4296  2.0485 -1.0543
18074TIP3    H275638   5.656   1.981   2.856 -1.3755 -0.9958 -1.8158
18075TIP3   OH275639   4.598   2.957   4.186 -0.3202  0.5225  0.2239
18075TIP3    H175640   4.560   3.045   4.188 -0.6621  0.3743  0.6186
18075TIP3    H275641   4.573   2.919   4.271 -0.2738  0.0070  0.0099
18076TIP3   OH275642   0.390   2.773   3.320  0.4199 -0.5424 -0.3942
18076TIP3    H175643   0.437   2.724   3.253  3.2402  0.2961  0.8257
18076TIP3    H275644   0.414   2.732   3.403  0.8364  1.2771  0.4508
18077TIP3   OH275645   0.339   5.822  15.596 -0.0456  0.1535 -0.0064
18077TIP3    H175646   0.396   5.898  15.612 -0.3226  0.4090 -0.2178
18077TIP3    H275647   0.262   5.859  15.553  0.2324 -0.3636 -0.9947
18078TIP3   OH275648   5.343   6.075  15.494  0.2948 -0.4245 -0.0956
18078TIP3    H175649   5.411   6.100  15.557 -0.7528  0.5179  0.7066
18078TIP3    H275650   5.262   6.114  15.529 -0.9041 -2.5168 -0.3675
18079TIP3   OH275651   4.902   5.852  13.004  0.2981  0.9527  0.3873
18079TIP3    H175652   4.988   5.813  12.986  0.3278  0.6110  1.2520
18079TIP3    H275653   4.907   5.881  13.095 -0.9506 -0.2916  0.8795
18080TIP3   OH275654   3.673   2.250  15.836  0.0948 -0.0392 -0.6481
18080TIP3    H175655   3.655   2.340  15.810  0.5687  0.9798  2.2235
18080TIP3    H275656   3.590   2.204  15.821 -1.4868  1.8736  1.4933
18081TIP3   OH275657   0.732   5.156  17.222  0.0322  0.7153  0.1640
18081TIP3    H175658   0.707   5.132  17.311 -0.2455 -2.3919 -0.6626
18081TIP3    H275659   0.828   5.163  17.226  0.1753 -0.9393  0.4374
18082TIP3   OH275660   2.501   4.757  13.056 -0.6702  0.2960 -0.5721
18082TIP3    H175661   2.567   4.789  12.995 -0.6308 -0.3663 -0.8871
18082TIP3    H275662   2.429   4.728  13.000 -0.2946 -1.1012 -0.3703
18083TIP3   OH275663   2.803   1.117   3.874 -0.1511  0.0630 -0.0832
18083TIP3    H175664   2.811   1.193   3.931  0.2370  0.6431 -0.8939
18083TIP3    H275665   2.819   1.042   3.932  0.8677  0.6621  0.4494
18084TIP3   OH275666   5.720   0.369   2.263  0.0404  0.1187  0.0296
18084TIP3    H175667   5.736   0.388   2.170 -0.7597 -0.3540 -0.2114
18084TIP3    H275668   5.632   0.403   2.279  0.1963  0.2382  0.6306
18085TIP3   OH275669   6.183   5.694  12.939 -0.4369 -0.1717  0.1541
18085TIP3    H175670   6.180   5.716  12.845 -1.1894  1.4841  0.5247
18085TIP3    H275671   6.091   5.693  12.966 -0.1690  1.6661  1.3289
18086TIP3   OH275672   2.849   4.906  17.092 -0.1562  0.5635  0.3588
18086TIP3    H175673   2.907   4.982  17.088  0.6979  0.0360  1.9850
18086TIP3    H275674   2.849   4.880  17.184 -0.7443 -1.1565 -0.0909
18087TIP3   OH275675   0.759   0.169  14.177  0.2550 -0.6322  0.3609
18087TIP3    H175676   0.852   0.187  14.163  0.5813 -2.5350 -0.2375
18087TIP3    H275677   0.722   0.165  14.088 -0.2863 -0.4900  0.5740
18088TIP3   OH275678   4.940   6.450  15.707 -0.5491 -0.1279 -0.3434
18088TIP3    H175679   4.973   6.452  15.796  0.5090 -1.2434 -0.6808
18088TIP3    H275680   4.849   6.420  15.716 -0.2149 -0.9781  0.3142
18089TIP3   OH275681   0.923   6.128  14.702  0.1778  0.7208  0.1123
18089TIP3    H175682   0.857   6.061  14.719  0.1544  0.2333 -1.6559
18089TIP3    H275683   0.963   6.101  14.619  1.4243  1.9305  0.2816
18090TIP3   OH275684   2.537   2.350  13.315 -0.1645  0.2940  0.5848
18090TIP3    H175685   2.569   2.345  13.405 -0.4384  1.3046  0.7454
18090TIP3    H275686   2.442   2.358  13.324 -0.1804  0.5541  0.2169
18091TIP3   OH275687   0.350   2.595   1.856 -0.0206  0.9175 -0.4443
18091TIP3    H175688   0.261   2.592   1.891 -0.6394  1.8477 -1.8593
18091TIP3    H275689   0.381   2.683   1.878 -0.4297  1.5260 -2.2014
18092TIP3   OH275690   2.660   6.236  17.087 -0.1106 -0.1067  0.3763
18092TIP3    H175691   2.642   6.144  17.069 -0.4649  0.0159  0.0743
18092TIP3    H275692   2.752   6.248  17.067 -0.1175 -0.3458  0.2023
18093TIP3   OH275693   2.335   5.798   1.417  0.2443 -0.2734  0.0025
18093TIP3    H175694   2.371   5.778   1.503 -0.1536 -0.2853  0.1651
18093TIP3    H275695   2.276   5.872   1.432  0.4380 -0.0469 -0.3183
18094TIP3   OH275696   1.716   4.339   4.750  0.4622 -0.0055 -0.6702
18094TIP3    H175697   1.722   4.343   4.845 -0.7196 -0.4938 -0.5607
18094TIP3    H275698   1.794   4.385   4.719  1.6991 -1.2274  0.5186
18095TIP3   OH275699   0.870   1.306  17.329  0.1895 -0.1376  0.2061
18095TIP3    H175700   0.862   1.381  17.271  0.2845  0.4086  0.8954
18095TIP3    H275701   0.954   1.318  17.374  1.0806 -1.5757 -0.9679
18096TIP3   OH275702   0.104   2.440   1.451 -0.3773  0.8807  0.2261
18096TIP3    H175703   0.030   2.381   1.463  0.0401 -0.1349 -1.8214
18096TIP3    H275704   0.103   2.496   1.529 -1.3409 -1.2255  1.8177
18097TIP3   OH275705   6.729   3.301   6.814  0.4521  0.3804  0.2916
18097TIP3    H175706   6.698   3.352   6.888  1.4049 -1.5127  2.0874
18097TIP3    H275707   6.818   3.331   6.799  0.3896  0.4976  0.1509
18098TIP3   OH275708   5.872   4.987   1.667  0.2955 -0.0785 -0.4356
18098TIP3    H175709   5.819   4.959   1.593 -0.3822  0.8231 -0.3189
18098TIP3    H275710   5.895   4.907   1.714 -0.7639 -0.5069 -0.6357
18099TIP3   OH275711   1.478   3.984   2.863 -0.0631  0.1157  0.5744
18099TIP3    H175712   1.458   4.027   2.781 -0.5555 -0.2791  0.4800
18099TIP3    H275713   1.394   3.977   2.908  0.3405  1.2546  1.5809
18100TIP3   OH275714   4.899   5.323   4.177 -0.1855 -0.1557  0.4083
18100TIP3    H175715   4.931   5.233   4.180 -1.0934 -0.5237 -0.5376
18100TIP3    H275716   4.901   5.346   4.084  0.8510  1.1122  0.7125
18101TIP3   OH275717   4.949   2.539  14.333 -0.0857 -0.0616 -0.1007
18101TIP3    H175718   4.885   2.477  14.298  0.8642 -1.1116 -0.0490
18101TIP3    H275719   4.990   2.491  14.405  1.2717  0.2913 -0.6112
18102TIP3   OH275720   2.187   0.262  11.662  0.1815 -0.0027 -0.3844
18102TIP3    H175721   2.138   0.295  11.737 -1.9844 -0.0924 -1.6606
18102TIP3    H275722   2.155   0.314  11.588  0.9495 -1.0867 -1.5262
18103TIP3   OH275723   4.355   6.103  12.526  0.6040  0.4223  0.3179
18103TIP3    H175724   4.394   6.110  12.438  0.1273  1.9448  0.1826
18103TIP3    H275725   4.282   6.042  12.515  0.2520  0.9520 -0.4980
18104TIP3   OH275726   1.421   4.584   3.757 -0.4306 -0.2591 -0.0825
18104TIP3    H175727   1.487   4.622   3.699 -0.1115  0.1050  0.5156
18104TIP3    H275728   1.466   4.573   3.841 -0.7834 -1.1258 -0.0046
18105TIP3   OH275729   1.557   1.404  17.341  0.1010  0.2974 -0.3858
18105TIP3    H175730   1.488   1.441  17.286  0.2650 -0.6508 -1.2679
18105TIP3    H275731   1.523   1.318  17.367  0.6825  0.0831 -0.3112
18106TIP3   OH275732   0.381   2.151  12.131  0.1723  0.4425 -0.0946
18106TIP3    H175733   0.339   2.232  12.100 -2.1917 -0.4228  0.6363
18106TIP3    H275734   0.380   2.159  12.227 -0.4043 -0.5865 -0.0024
18107TIP3   OH275735   3.501   6.759  11.027  0.0755  0.2287  0.1901
18107TIP3    H175736   3.457   6.704  11.092  1.1671  0.9711  1.6243
18107TIP3    H275737   3.548   6.697  10.971 -0.5456 -0.4077  0.3616
18108TIP3   OH275738   5.131   5.312  13.283  1.1775 -0.1728  0.0925
18108TIP3    H175739   5.095   5.386  13.233  0.0394  0.6612  2.0447
18108TIP3    H275740   5.219   5.341  13.308  0.2919  1.1120  1.9014
18109TIP3   OH275741   0.679   6.754  17.158 -0.4270 -0.2861  0.1223
18109TIP3    H175742   0.694   6.726  17.248 -2.2939 -0.2415  0.4899
18109TIP3    H275743   0.731   6.833  17.148  1.4788 -1.4252  0.4561
18110TIP3   OH275744   0.844   2.232  15.912 -0.2016  0.5546  0.3559
18110TIP3    H175745   0.892   2.151  15.892  1.4125  1.7206 -0.7188
18110TIP3    H275746   0.886   2.266  15.991  1.2419  1.8788 -0.9108
18111TIP3   OH275747   5.895   6.622   0.242  0.0599 -0.4529  0.4320
18111TIP3    H175748   5.898   6.617   0.338  0.5774 -1.7948  0.3808
18111TIP3    H275749   5.804   6.606   0.220  0.0025 -0.4975  0.6944
18112TIP3   OH275750   1.333   5.733  15.852 -0.0644  0.3198 -0.2098
18112TIP3    H175751   1.257   5.720  15.908  0.0374  1.7579  0.3162
18112TIP3    H275752   1.301   5.782  15.777  0.1686  0.0997 -0.4575
18113TIP3   OH275753   5.135   6.019  11.252 -0.5505 -0.0336  0.6427
18113TIP3    H175754   5.190   6.092  11.222  0.4501 -0.4811  1.3203
18113TIP3    H275755   5.121   5.966  11.174 -0.3408  0.2816  0.3853
18114TIP3   OH275756   1.623   3.142  11.634  0.0942  0.2665 -0.3023
18114TIP3    H175757   1.718   3.137  11.647  0.0350 -2.4380 -0.2994
18114TIP3    H275758   1.586   3.122  11.720 -0.5147  1.4689 -0.2631
18115TIP3   OH275759   6.365   0.433  17.252 -0.7280 -0.4548 -0.1226
18115TIP3    H175760   6.441   0.451  17.307 -0.3218 -0.8350 -0.5508
18115TIP3    H275761   6.310   0.510  17.260  0.0073  0.0946 -0.3109
18116TIP3   OH275762   0.689   1.047  12.323  0.2346 -0.5485  0.5293
18116TIP3    H175763   0.774   1.052  12.280 -0.7666 -0.2932 -1.5610
18116TIP3    H275764   0.690   0.965  12.372  1.4746 -0.7877  0.1202
18117TIP3   OH275765   4.622   6.006   4.851  0.2154  0.5214 -0.1729
18117TIP3    H175766   4.586   6.021   4.938  0.4123  1.0625 -0.1805
18117TIP3    H275767   4.548   6.020   4.792  0.3008  1.0769 -0.1513
18118TIP3   OH275768   3.436   4.355  13.849 -0.3310 -0.1616  0.2551
18118TIP3    H175769   3.466   4.306  13.773 -0.4584  0.1705 -0.0086
18118TIP3    H275770   3.506   4.344  13.914  2.0278  3.2164 -1.3992
18119TIP3   OH275771   0.905   3.340  15.745  0.2044 -0.1849 -0.6378
18119TIP3    H175772   0.887   3.361  15.837  0.0054 -2.3344 -0.1234
18119TIP3    H275773   0.982   3.393  15.723 -0.1361  0.8541  0.5500
18120TIP3   OH275774   4.872   1.801  15.940 -0.6684 -0.5541  0.0223
18120TIP3    H175775   4.918   1.871  15.986 -2.1368  0.3087  0.2382
18120TIP3    H275776   4.856   1.836  15.852 -1.6090 -0.5086  0.1992
18121TIP3   OH275777   2.637   3.625  13.375 -0.6595  0.0926 -0.0111
18121TIP3    H175778   2.659   3.542  13.419 -0.1556 -0.6575 -1.5844
18121TIP3    H275779   2.544   3.617  13.355 -0.3775 -0.6428 -1.1699
18122TIP3   OH275780   4.378   5.428  16.797  0.1416  0.0986 -0.0947
18122TIP3    H175781   4.343   5.443  16.709  1.4285 -0.4079 -0.7091
18122TIP3    H275782   4.420   5.510  16.821  1.5273 -0.3788 -0.7939
18123TIP3   OH275783   2.724   0.850  16.670  0.5195 -0.4955  0.2237
18123TIP3    H175784   2.675   0.775  16.704  1.3800 -0.9037  0.5866
18123TIP3    H275785   2.685   0.868  16.584 -1.0171 -0.0855  0.9661
18124TIP3   OH275786   2.217   0.770   1.261 -0.0220  0.1311 -0.6709
18124TIP3    H175787   2.203   0.675   1.260 -0.1272  0.1442 -0.3419
18124TIP3    H275788   2.237   0.792   1.170  0.2187 -0.2378 -0.7076
18125TIP3   OH275789   1.215   2.765  16.491  0.3819 -0.0251  0.2137
18125TIP3    H175790   1.153   2.704  16.531 -0.3778  1.1230  0.8734
18125TIP3    H275791   1.280   2.710  16.449  0.2248 -1.2884  1.5520
18126TIP3   OH275792   3.436   0.210  16.526  0.2547  0.6410 -0.6746
18126TIP3    H175793   3.523   0.179  16.549 -0.4223 -1.3884 -0.6697
18126TIP3    H275794   3.444   0.237  16.434  0.3644 -2.0208 -1.5465
18127TIP3   OH275795   6.549   0.369  10.707 -0.0283 -0.0443  0.0727
18127TIP3    H175796   6.569   0.359  10.614  1.2111 -2.8667  0.5379
18127TIP3    H275797   6.616   0.430  10.739 -1.9552  2.9300 -1.2382
18128TIP3   OH275798   0.545   4.767   2.740  0.6198 -0.3660  0.2898
18128TIP3    H175799   0.566   4.696   2.801 -1.0945 -1.2151 -0.0398
18128TIP3    H275800   0.624   4.821   2.738  2.5572 -3.0069 -0.4968
18129TIP3   OH275801   2.005   3.065   4.540 -0.1346 -0.5726 -0.6346
18129TIP3    H175802   2.021   2.977   4.574  0.0596 -0.3525 -0.1472
18129TIP3    H275803   2.082   3.086   4.488 -0.2615 -0.7599 -0.9009
18130TIP3   OH275804   5.149   1.648   4.788  0.1337  0.1436  0.1463
18130TIP3    H175805   5.074   1.703   4.765  0.1508  0.6599  1.2703
18130TIP3    H275806   5.156   1.586   4.716 -1.2750  0.1985 -0.0719
18131TIP3   OH275807   1.543   4.284  12.811  0.2110  0.1714  1.0689
18131TIP3    H175808   1.629   4.259  12.844  1.3034  1.6793 -0.4811
18131TIP3    H275809   1.529   4.372  12.844  0.2043  0.7257 -0.3400
18132TIP3   OH275810   2.708   5.684   0.452  0.3002 -0.5003 -0.0962
18132TIP3    H175811   2.734   5.593   0.467 -2.1463 -1.2220  0.1215
18132TIP3    H275812   2.689   5.718   0.540 -1.0318 -0.5384 -0.3489
18133TIP3   OH275813   2.049   1.436   2.764 -0.0354  0.2633 -0.5031
18133TIP3    H175814   2.135   1.477   2.755  0.6808 -0.3653  2.3703
18133TIP3    H275815   2.009   1.480   2.839 -1.5791 -0.5066 -0.8322
18134TIP3   OH275816   4.488   0.860  12.446  0.2088  0.1587 -0.8320
18134TIP3    H175817   4.406   0.888  12.487  0.3892  1.0769 -1.0782
18134TIP3    H275818   4.533   0.810  12.514 -0.5190 -0.2788 -0.6692
18135TIP3   OH275819   2.116   4.249  14.830 -0.2270  0.2090  0.4820
18135TIP3    H175820   2.023   4.263  14.851  0.4810  1.4260  3.1595
18135TIP3    H275821   2.132   4.309  14.757 -1.6137 -0.3452 -0.3315
18136TIP3   OH275822   5.658   0.899  16.043  0.3936  0.3104 -0.0819
18136TIP3    H175823   5.694   0.872  16.128 -1.4912 -0.1557  0.6128
18136TIP3    H275824   5.714   0.972  16.015  1.3075  0.1961  1.3448
18137TIP3   OH275825   0.552   2.984   5.712  0.3854 -0.1119  0.0849
18137TIP3    H175826   0.602   3.059   5.682  2.1489 -1.2814 -0.0378
18137TIP3    H275827   0.477   3.022   5.758  0.5065  1.6923 -1.1249
18138TIP3   OH275828   2.688   5.655   1.428  1.2603 -0.1418  0.7469
18138TIP3    H175829   2.755   5.593   1.398 -0.6320 -2.6818  1.4570
18138TIP3    H275830   2.621   5.653   1.360  0.8874  0.6704  1.0779
18139TIP3   OH275831   0.913   5.055  14.615  0.1750  0.2225  0.5036
18139TIP3    H175832   0.931   5.102  14.696 -0.9222 -1.7705  1.9865
18139TIP3    H275833   0.972   4.980  14.617 -1.5091 -1.1541  0.7153
18140TIP3   OH275834   1.391   6.486  14.894 -0.0177 -0.1233 -0.2359
18140TIP3    H175835   1.356   6.508  14.808  0.2941  0.8541 -0.1242
18140TIP3    H275836   1.463   6.425  14.877  1.8504  2.1314 -0.9256
18141TIP3   OH275837   1.963   6.498  17.327 -0.0831 -0.6916 -0.5317
18141TIP3    H175838   1.892   6.484  17.264 -2.1256  1.2609  1.1674
18141TIP3    H275839   1.941   6.441  17.401  0.6152 -0.6903 -0.3151
18142TIP3   OH275840   0.323   4.489   5.016  0.0233 -0.0963  0.2403
18142TIP3    H175841   0.374   4.408   5.028  0.4455  0.5114  3.4998
18142TIP3    H275842   0.388   4.559   5.025 -0.7763  0.6440  0.2982
18143TIP3   OH275843   1.343   2.844  12.061  1.0843 -0.1725 -0.4762
18143TIP3    H175844   1.258   2.838  12.019  0.7296  0.4862  0.1290
18143TIP3    H275845   1.344   2.772  12.124  0.7650  0.1325 -0.1205
18144TIP3   OH275846   1.769   6.624   4.805 -0.2980  0.4088 -0.4989
18144TIP3    H175847   1.844   6.565   4.805 -0.3177  0.3603 -1.6187
18144TIP3    H275848   1.807   6.712   4.805 -0.2398  0.3829 -0.4757
18145TIP3   OH275849   4.542   6.539   3.558  0.3377 -1.0319 -0.3836
18145TIP3    H175850   4.459   6.561   3.601  0.4331 -0.5138 -0.4515
18145TIP3    H275851   4.520   6.466   3.500  0.0465 -1.2430 -0.0098
18146TIP3   OH275852   1.941   0.044   3.366 -0.7344 -0.1673 -0.1007
18146TIP3    H175853   1.946   0.120   3.308 -1.1033  0.4702  0.6912
18146TIP3    H275854   1.877   0.068   3.432 -0.7956 -1.1435  0.2107
18147TIP3   OH275855   5.242   2.775  16.673  0.5506  0.1028  0.0566
18147TIP3    H175856   5.287   2.696  16.702  1.7071  0.4353 -0.7698
18147TIP3    H275857   5.312   2.834  16.646 -0.3458  0.9998 -0.3750
18148TIP3   OH275858   5.821   4.429  15.637  0.4811  0.2118  0.2998
18148TIP3    H175859   5.810   4.473  15.553  1.2925 -0.7124 -0.3065
18148TIP3    H275860   5.750   4.365  15.640 -0.0288  0.7777  0.6912
18149TIP3   OH275861   1.800   1.613   3.388  0.7714 -0.4006 -0.7182
18149TIP3    H175862   1.761   1.528   3.410  2.1814 -0.8192  0.3217
18149TIP3    H275863   1.740   1.677   3.424 -0.1669 -0.9401 -1.2566
18150TIP3   OH275864   6.316   6.302  12.507 -0.3207  0.3202 -0.1321
18150TIP3    H175865   6.230   6.274  12.537 -0.5827  0.0833 -1.0664
18150TIP3    H275866   6.298   6.357  12.431  0.3786 -0.3123 -0.7735
18151TIP3   OH275867   4.440   5.225   5.499  0.2736  0.9184 -0.4507
18151TIP3    H175868   4.466   5.317   5.499  0.5739  0.8690  1.0326
18151TIP3    H275869   4.345   5.228   5.509  0.2027  1.0675 -1.1370
18152TIP3   OH275870   3.710   0.644   3.650 -0.5583 -0.5757 -0.0677
18152TIP3    H175871   3.754   0.716   3.604  1.5575 -0.7980  1.4588
18152TIP3    H275872   3.738   0.565   3.604 -0.0091 -0.6624  0.4127
18153TIP3   OH275873   1.628   4.394  16.775  0.2040  0.4064  0.0811
18153TIP3    H175874   1.563   4.374  16.708  0.9502  3.4877 -1.7478
18153TIP3    H275875   1.595   4.352  16.854 -2.3544 -0.7157 -1.4730
18154TIP3   OH275876   6.687   1.405   0.191 -0.0101 -0.1642 -0.1331
18154TIP3    H175877   6.645   1.333   0.239 -3.7241  0.0313 -2.6265
18154TIP3    H275878   6.753   1.362   0.137 -1.2883 -1.6165 -0.6358
18155TIP3   OH275879   1.603   3.591  13.793 -0.0276  0.0322  0.2777
18155TIP3    H175880   1.508   3.584  13.786  0.1434 -2.2174 -0.4790
18155TIP3    H275881   1.628   3.524  13.856  1.3541 -2.8154 -2.9473
18156TIP3   OH275882   2.160   6.223  15.272  0.0237 -0.2374 -0.5710
18156TIP3    H175883   2.113   6.160  15.327  3.3204 -1.3604  1.2463
18156TIP3    H275884   2.152   6.306  15.318 -1.9093  0.1198 -1.4557
18157TIP3   OH275885   6.041   3.454   6.449 -0.5017 -0.0105 -0.3153
18157TIP3    H175886   6.072   3.542   6.470  3.2471 -0.7554 -1.7773
18157TIP3    H275887   6.102   3.396   6.496 -0.3769 -1.7240 -2.4275
18158TIP3   OH275888   6.770   3.338   2.463  0.4865 -0.1440  0.4682
18158TIP3    H175889   6.779   3.428   2.434  1.2158 -0.0570  0.9165
18158TIP3    H275890   6.808   3.285   2.393  0.5089 -0.0659  0.4225
18159TIP3   OH275891   1.020   1.189   5.866 -0.4127  0.1192  0.0329
18159TIP3    H175892   0.972   1.272   5.861  1.0717  1.0504  0.6496
18159TIP3    H275893   0.985   1.137   5.793 -2.7572  0.4926  0.8112
18160TIP3   OH275894   3.429   0.645  12.340 -0.6441  0.2180  0.3752
18160TIP3    H175895   3.439   0.675  12.249  1.8833  0.9783  0.8065
18160TIP3    H275896   3.340   0.612  12.345 -0.8156 -0.0330 -2.4454
18161TIP3   OH275897   6.429   3.815   4.882 -0.2408  0.2982 -0.4428
18161TIP3    H175898   6.419   3.753   4.809  0.5240 -1.2256  0.7029
18161TIP3    H275899   6.344   3.814   4.926 -0.1640 -0.1198 -0.2992
18162TIP3   OH275900   1.534   1.203  16.897 -0.2127 -0.6049 -0.0027
18162TIP3    H175901   1.545   1.291  16.860 -0.3576 -1.3722 -2.0141
18162TIP3    H275902   1.439   1.190  16.900 -0.2383 -0.2002  1.6082
18163TIP3   OH275903   1.226   2.532  12.505 -0.0353 -0.5668 -0.4547
18163TIP3    H175904   1.314   2.493  12.508  0.8172  1.2852  0.5346
18163TIP3    H275905   1.210   2.547  12.412  0.9536 -0.4420 -0.6227
18164TIP3   OH275906   2.685   3.282   5.487 -0.5755 -0.2085  0.2578
18164TIP3    H175907   2.602   3.331   5.484 -0.3942  0.0861 -0.0146
18164TIP3    H275908   2.689   3.235   5.404 -0.1456  0.3300 -0.0402
18165TIP3   OH275909   4.715   5.608   3.976 -0.1024 -0.1865  0.1920
18165TIP3    H175910   4.653   5.675   3.947  0.8339  0.6800  0.1232
18165TIP3    H275911   4.749   5.570   3.894  0.6924  0.5207  0.1806
18166TIP3   OH275912   1.791   4.982   3.453  0.4589 -0.6339  0.8095
18166TIP3    H175913   1.756   4.911   3.399  2.4702 -0.7392 -0.4889
18166TIP3    H275914   1.878   4.999   3.416  0.6413  1.4923  2.0451
18167TIP3   OH275915   1.372   0.137   0.140 -0.0325 -0.0181 -0.2904
18167TIP3    H175916   1.439   0.086   0.096 -0.3046 -0.9325  0.3241
18167TIP3    H275917   1.388   0.227   0.112  1.9157 -0.0943  0.3974
18168TIP3   OH275918   1.863   0.355  11.017 -0.2039 -0.2258  0.0045
18168TIP3    H175919   1.786   0.367  11.073 -0.8324 -0.5879 -0.7592
18168TIP3    H275920   1.842   0.402  10.936  0.3219 -0.4463 -0.2666
18169TIP3   OH275921   0.740   0.612  16.189 -0.0173 -0.4287 -0.2585
18169TIP3    H175922   0.673   0.549  16.217 -1.0037  1.3352  1.5508
18169TIP3    H275923   0.696   0.697  16.189  2.0970  0.7456  0.5756
18170TIP3   OH275924   6.020   2.635  15.538  0.0277 -0.5281 -0.0992
18170TIP3    H175925   5.961   2.695  15.584  0.6270 -0.1238  0.1492
18170TIP3    H275926   6.058   2.581  15.607  1.0685  0.1993 -0.0800
18171TIP3   OH275927   1.799   5.729   1.006 -0.5811  0.3396 -0.2211
18171TIP3    H175928   1.834   5.781   0.934  1.3271  1.0635  1.1478
18171TIP3    H275929   1.806   5.638   0.975  1.3574  0.5520 -0.5361
18172TIP3   OH275930   4.592   5.672   5.125  0.3374 -0.1992  0.1194
18172TIP3    H175931   4.572   5.706   5.212 -1.9030  1.4063 -0.8957
18172TIP3    H275932   4.578   5.578   5.131  0.0421 -0.0828  1.4554
18173TIP3   OH275933   1.434   0.911   3.882  0.6504  0.0783 -0.3699
18173TIP3    H175934   1.409   0.988   3.933 -1.5488 -2.0710  2.0669
18173TIP3    H275935   1.479   0.854   3.944 -0.0907 -1.6882 -1.3754
18174TIP3   OH275936   3.454   3.606   1.083  0.1707 -0.0257  0.1470
18174TIP3    H175937   3.400   3.649   1.017 -0.5159  1.9596  1.9006
18174TIP3    H275938   3.401   3.606   1.163  1.7689 -0.3744  1.2745
18175TIP3   OH275939   5.977   3.073  13.795 -0.4637 -0.3695  0.9482
18175TIP3    H175940   6.049   3.127  13.763  0.4645 -1.1493  1.6215
18175TIP3    H275941   5.938   3.124  13.866 -1.5510  0.6968 -0.3723
18176TIP3   OH275942   0.142   5.930  11.480  0.0159 -0.4297  0.7162
18176TIP3    H175943   0.050   5.928  11.506 -0.4929 -0.2609 -0.9655
18176TIP3    H275944   0.180   5.851  11.518 -1.7919 -2.6905 -1.8301
18177TIP3   OH275945   5.299   4.903   3.790 -0.0932 -0.0126  0.5091
18177TIP3    H175946   5.349   4.921   3.710  0.7609 -0.4922  0.9193
18177TIP3    H275947   5.210   4.888   3.759  0.1181  0.3165 -0.3004
18178TIP3   OH275948   0.909   5.801   2.307 -0.0921 -0.4766 -0.6775
18178TIP3    H175949   0.823   5.764   2.288  0.4859 -1.8231 -0.7911
18178TIP3    H275950   0.893   5.865   2.377 -1.0513 -1.4276  0.0067
18179TIP3   OH275951   2.512   4.947  12.693  0.1994  0.3100 -0.4945
18179TIP3    H175952   2.443   4.907  12.640  0.3294 -0.1923 -0.2859
18179TIP3    H275953   2.466   5.011  12.747 -0.0708  0.1358 -0.5149
18180TIP3   OH275954   5.320   5.893   0.295  0.4073 -0.3732  0.2100
18180TIP3    H175955   5.231   5.876   0.327  0.2007  0.6232  0.1807
18180TIP3    H275956   5.371   5.910   0.374  0.8480 -2.0395  0.3290
18181TIP3   OH275957   5.577   2.333   4.533 -0.0723 -0.0893 -0.1639
18181TIP3    H175958   5.549   2.310   4.621 -1.8648 -1.8653 -1.0954
18181TIP3    H275959   5.670   2.354   4.541  0.8322 -3.9473  1.5918
18182TIP3   OH275960   1.939   2.576   1.817 -0.0832  0.0878 -0.1317
18182TIP3    H175961   1.986   2.624   1.749 -0.1862  1.5047  0.7467
18182TIP3    H275962   1.848   2.575   1.787  0.0692 -0.4328 -0.6098
18183TIP3   OH275963   2.487   5.577  13.806  0.7263 -0.1686  0.2889
18183TIP3    H175964   2.508   5.564  13.899 -1.2946  1.3303  1.0416
18183TIP3    H275965   2.567   5.612  13.768  1.3309  0.0546  1.6934
18184TIP3   OH275966   5.531   1.627   5.957  0.3000 -0.4447  0.1820
18184TIP3    H175967   5.551   1.715   5.988 -1.3583  0.1044 -0.2339
18184TIP3    H275968   5.602   1.606   5.897  0.0234  1.1642 -0.7596
18185TIP3   OH275969   6.512   1.170  12.866 -0.2249  0.5669 -0.0082
18185TIP3    H175970   6.458   1.178  12.787  0.6905 -0.7240 -0.8025
18185TIP3    H275971   6.468   1.225  12.931 -1.9805  0.2773 -0.8949
18186TIP3   OH275972   3.188   4.803   2.830  0.0011 -0.1493  0.4487
18186TIP3    H175973   3.206   4.819   2.737  0.9955  0.5204  0.7456
18186TIP3    H275974   3.100   4.763   2.830  0.5042 -1.3664 -0.8678
18187TIP3   OH275975   3.431   6.423  11.816 -0.3091  0.2628 -0.3937
18187TIP3    H175976   3.397   6.392  11.900 -2.2006 -0.7282 -1.4602
18187TIP3    H275977   3.446   6.343  11.765  0.2794  0.8664 -1.1809
18188TIP3   OH275978   1.665   3.841   3.536 -0.1519  0.1599  0.1376
18188TIP3    H175979   1.718   3.762   3.552 -0.1526 -0.0122 -0.6425
18188TIP3    H275980   1.575   3.811   3.545 -0.1941 -0.2149 -1.2542
18189TIP3   OH275981   2.184   3.790   3.657  0.5281 -0.0708 -0.1358
18189TIP3    H175982   2.203   3.724   3.590 -0.4248 -0.9931  0.4651
18189TIP3    H275983   2.115   3.844   3.618 -0.5809 -1.0796  0.3454
18190TIP3   OH275984   6.012   5.811  14.896  0.2658 -0.5843 -0.6549
18190TIP3    H175985   6.091   5.860  14.918  1.4127 -1.8160 -1.8210
18190TIP3    H275986   5.953   5.877  14.861  0.1268  0.6166  1.6612
18191TIP3   OH275987   5.438   0.687   5.729  0.5108  0.1854 -0.1271
18191TIP3    H175988   5.349   0.665   5.754 -0.0622  1.9632 -0.4768
18191TIP3    H275989   5.486   0.693   5.812  0.0867  0.1015  0.1223
18192TIP3   OH275990   4.895   4.065   3.692 -0.1683  0.1924  0.2018
18192TIP3    H175991   4.805   4.039   3.673 -0.5653  2.2894 -1.1362
18192TIP3    H275992   4.949   3.994   3.658 -1.2365  0.2949 -1.8264
18193TIP3   OH275993   3.474   0.861   0.965 -0.1991  0.0836 -0.5168
18193TIP3    H175994   3.438   0.900   0.885  2.9434  0.0914 -2.0511
18193TIP3    H275995   3.487   0.769   0.943  0.7181  0.0869 -0.0099
18194TIP3   OH275996   5.865   5.108   1.382  0.2307 -0.0927  0.4159
18194TIP3    H175997   5.823   5.025   1.405 -0.8550  0.5598  0.8334
18194TIP3    H275998   5.957   5.095   1.405 -0.3172 -0.4006  2.6307
18195TIP3   OH275999   5.917   0.652  15.159 -0.4629  0.2859  0.3403
18195TIP3    H176000   5.914   0.709  15.083 -0.7285 -1.7057 -1.2237
18195TIP3    H276001   5.855   0.691  15.221  0.9385  2.8373  0.2870
18196TIP3   OH276002   4.269   5.223   0.764 -0.4156  0.2285 -0.5150
18196TIP3    H176003   4.307   5.215   0.676  0.3541  0.0240 -0.1631
18196TIP3    H276004   4.218   5.143   0.775  2.2254 -1.4128  0.5404
18197TIP3   OH276005   4.883   1.388  16.944 -0.2510  0.1426 -0.5957
18197TIP3    H176006   4.933   1.354  17.018 -0.0007  1.6019 -0.0550
18197TIP3    H276007   4.840   1.311  16.906 -0.4703 -0.6190  1.1247
18198TIP3   OH276008   5.392   5.511  14.308 -0.6204 -0.0883 -0.2118
18198TIP3    H176009   5.445   5.584  14.276 -1.4180  0.1766 -0.9703
18198TIP3    H276010   5.323   5.552  14.360 -0.2845 -0.4022  0.4822
18199TIP3   OH276011   1.061   6.319   2.863  0.6866  0.0555  0.4404
18199TIP3    H176012   1.011   6.351   2.788 -1.8634 -1.4600  1.3699
18199TIP3    H276013   1.060   6.224   2.854  1.0454 -0.1107  1.9507
18200TIP3   OH276014   2.619   1.514  13.166 -0.4316 -0.0357  0.1943
18200TIP3    H176015   2.533   1.487  13.133 -1.2748  1.3306  1.1400
18200TIP3    H276016   2.681   1.475  13.105 -1.7412 -0.6911 -0.7850
18201TIP3   OH276017   0.064   5.934   1.503 -0.0921  0.0924  0.7525
18201TIP3    H176018   0.075   5.865   1.568 -1.2138  1.4754  2.5060
18201TIP3    H276019   0.016   5.892   1.431  1.0008 -1.4175  0.8685
18202TIP3   OH276020   2.176   0.835   3.422  0.0676 -0.6907  0.1929
18202TIP3    H176021   2.149   0.800   3.506 -0.3802  0.2702  0.4555
18202TIP3    H276022   2.101   0.823   3.364  0.1806 -0.8459  0.0752
18203TIP3   OH276023   5.290   0.916   4.560 -0.7450  0.0806 -0.5093
18203TIP3    H176024   5.315   0.857   4.631 -0.7171 -0.0657 -0.6389
18203TIP3    H276025   5.203   0.886   4.532 -1.2973  0.9077  0.2784
18204TIP3   OH276026   0.170   2.270  11.875 -0.2364 -0.2177  0.4303
18204TIP3    H176027   0.152   2.176  11.872 -1.1253 -0.0499 -1.4097
18204TIP3    H276028   0.264   2.277  11.862 -0.4752 -0.8479 -2.3963
18205TIP3   OH276029   2.778   4.800   1.362 -0.2302  0.2793 -0.1176
18205TIP3    H176030   2.777   4.887   1.403 -1.2457 -0.0339  0.5716
18205TIP3    H276031   2.685   4.779   1.349  0.0301 -0.2525 -1.2857
18206TIP3   OH276032   1.746   5.811  13.053 -0.4972 -0.2804  0.2050
18206TIP3    H176033   1.759   5.732  13.106 -0.0032 -1.1419 -1.1275
18206TIP3    H276034   1.652   5.811  13.033 -0.4506 -0.7236 -0.0419
18207TIP3   OH276035   1.749   3.465   1.832 -0.7959  0.2772 -0.2186
18207TIP3    H176036   1.724   3.454   1.740  0.1273  2.1093 -0.7512
18207TIP3    H276037   1.696   3.401   1.880 -0.2777 -1.6901 -2.1500
18208TIP3   OH276038   3.117   6.452  15.888  0.6361  0.1205  0.6249
18208TIP3    H176039   3.049   6.391  15.859 -0.1627  1.0942  0.3642
18208TIP3    H276040   3.086   6.485  15.972  0.7795  0.5744  0.5036
18209TIP3   OH276041   1.603   3.170  12.778  0.0374  0.2189 -0.9984
18209TIP3    H176042   1.605   3.263  12.802  1.7224  0.1490 -0.6731
18209TIP3    H276043   1.585   3.170  12.684  1.3166  0.9886 -1.2843
18210TIP3   OH276044   4.930   3.026   6.493  0.0818 -0.5078  0.7800
18210TIP3    H176045   4.929   2.997   6.402  0.6194  1.4901  0.0740
18210TIP3    H276046   4.852   2.987   6.532 -0.7589 -0.5208 -0.8309
18211TIP3   OH276047   2.047   4.335   3.261 -0.9349 -0.1091  0.3371
18211TIP3    H176048   2.092   4.353   3.344  1.4026  0.5090 -0.9721
18211TIP3    H276049   1.999   4.416   3.242 -2.2166 -0.5681  1.4752
18212TIP3   OH276050   1.558   5.556   2.106  0.0877 -0.0464  0.4249
18212TIP3    H176051   1.478   5.509   2.085  0.8592 -1.1701 -0.0699
18212TIP3    H276052   1.578   5.606   2.026  0.8553 -1.2108 -0.1449
18213TIP3   OH276053   6.662   0.848   1.122 -0.0435  0.0709  0.1597
18213TIP3    H176054   6.580   0.881   1.086  0.4906  1.5973  0.3033
18213TIP3    H276055   6.713   0.823   1.044  0.7780  2.5827 -0.1754
18214TIP3   OH276056   5.392   2.947   1.568  0.3025 -0.6240  0.1058
18214TIP3    H176057   5.472   2.901   1.592  0.7392  0.5492  0.9855
18214TIP3    H276058   5.395   2.951   1.472  0.7612 -1.5017  0.0761
18215TIP3   OH276059   5.822   4.975   4.906 -0.4823 -0.1946 -0.1137
18215TIP3    H176060   5.781   5.009   4.826 -0.8652  2.5507  1.1131
18215TIP3    H276061   5.915   4.969   4.884 -0.5092  1.0382 -0.6470
18216TIP3   OH276062   0.322   1.310  16.251  0.0646 -0.0388 -0.0987
18216TIP3    H176063   0.310   1.386  16.309 -2.2063 -1.5464  1.5835
18216TIP3    H276064   0.243   1.308  16.198 -0.0074 -1.3102  0.0322
18217TIP3   OH276065   6.427   3.531  13.484 -0.5351  0.7889 -0.4626
18217TIP3    H176066   6.430   3.584  13.404 -1.8939  2.1638  0.3568
18217TIP3    H276067   6.438   3.594  13.555  3.0175 -0.6447  0.4923
18218TIP3   OH276068   3.034   3.431  11.874 -0.1022 -0.6324 -0.7654
18218TIP3    H176069   3.060   3.359  11.817  2.9109  0.1773 -0.5727
18218TIP3    H276070   3.076   3.508  11.835 -2.0809  0.8127 -0.1786
18219TIP3   OH276071   0.037   2.001  15.760  0.9211  0.0756 -0.2411
18219TIP3    H176072   0.114   1.984  15.706  1.2485 -0.0257  0.2474
18219TIP3    H276073  -0.038   1.987  15.701  1.2667 -0.0898 -0.6471
18220TIP3   OH276074   2.109   1.397  17.193 -1.1858  0.2679 -0.5132
18220TIP3    H176075   2.067   1.483  17.201  0.4320  1.0044  0.6628
18220TIP3    H276076   2.147   1.398  17.105 -0.0015  1.3691 -0.0280
18221TIP3   OH276077   5.013   4.425   2.680 -0.3961  0.2830  0.3974
18221TIP3    H176078   4.966   4.422   2.597 -1.1293 -1.6356  0.8431
18221TIP3    H276079   5.046   4.336   2.693  0.1364  0.6600  1.9175
18222TIP3   OH276080   5.574   1.203  13.734  0.0155  0.8124 -0.5458
18222TIP3    H176081   5.553   1.199  13.641 -0.1425 -1.2556 -0.4693
18222TIP3    H276082   5.628   1.125  13.750 -1.1950  0.2995  1.3646
18223TIP3   OH276083   2.007   4.464   5.720  0.9479  0.0887 -0.1950
18223TIP3    H176084   2.006   4.516   5.800  0.4930  0.5154 -0.4692
18223TIP3    H276085   1.930   4.494   5.671  0.0862 -1.5448  0.0867
18224TIP3   OH276086   5.090   3.697  12.667 -0.4429 -0.3726  0.2857
18224TIP3    H176087   5.115   3.611  12.699 -1.0016 -1.8144 -2.7823
18224TIP3    H276088   5.127   3.701  12.578  1.6105  3.5585  1.0937
18225TIP3   OH276089   3.457   4.178   2.730 -0.1333  0.5011  0.4463
18225TIP3    H176090   3.462   4.236   2.806  2.4234  0.7989  0.1447
18225TIP3    H276091   3.535   4.122   2.737 -0.3595 -0.1317 -1.4069
18226TIP3   OH276092   5.551   2.007   0.769  0.1589  0.0932  0.2295
18226TIP3    H176093   5.497   2.025   0.845  0.5653 -1.7361  0.9969
18226TIP3    H276094   5.629   2.063   0.780 -0.1594  0.4453  0.7083
18227TIP3   OH276095   3.863   3.893   2.026  0.8266  0.1058 -0.2189
18227TIP3    H176096   3.911   3.952   2.085 -1.3530  0.5001  1.2812
18227TIP3    H276097   3.852   3.943   1.946  3.3511 -0.2162 -0.8560
18228TIP3   OH276098   3.576   1.142  13.304  0.1082 -0.0486 -0.5374
18228TIP3    H176099   3.535   1.207  13.248 -0.8984 -1.0473 -0.9807
18228TIP3    H276100   3.559   1.058  13.261 -0.0572 -0.7672  0.8809
18229TIP3   OH276101   1.811   4.450  16.049 -0.1469 -0.6421 -0.1008
18229TIP3    H176102   1.874   4.494  15.992 -0.4009  0.4332  0.4167
18229TIP3    H276103   1.733   4.505  16.046  0.2020  0.0679  2.1112
18230TIP3   OH276104   6.308   1.775   6.184  0.4242 -0.0919  0.4726
18230TIP3    H176105   6.239   1.719   6.149  0.1025  0.8782 -0.5247
18230TIP3    H276106   6.262   1.846   6.229  0.6725  1.1651 -1.1402
18231TIP3   OH276107   0.764   2.923  14.319  0.1730 -0.5770  0.2373
18231TIP3    H176108   0.781   2.830  14.335 -0.8073 -1.0393 -1.2647
18231TIP3    H276109   0.745   2.929  14.226  0.1457  1.1399  0.3147
18232TIP3   OH276110   0.762   5.700  10.647  0.1008 -0.0469  0.0101
18232TIP3    H176111   0.705   5.625  10.668 -0.2224 -0.0393 -0.8175
18232TIP3    H276112   0.850   5.665  10.650  0.3749  0.5230  4.0841
18233TIP3   OH276113   3.269   2.760   6.239 -0.1334  0.5650  0.4817
18233TIP3    H176114   3.242   2.676   6.277 -2.3310  1.0810  0.2081
18233TIP3    H276115   3.277   2.819   6.314  1.8952  0.0443  0.7274
18234TIP3   OH276116   5.287   6.141   0.126 -0.0773  0.4657  0.4996
18234TIP3    H176117   5.228   6.066   0.126 -0.0241  0.3890 -0.9648
18234TIP3    H276118   5.366   6.109   0.170 -0.4022 -0.0424  0.7236
18235TIP3   OH276119   0.993   1.282   0.406 -0.6390 -0.7605  0.1640
18235TIP3    H176120   1.005   1.377   0.409 -2.0420 -0.5937  0.9954
18235TIP3    H276121   1.025   1.258   0.319  2.9316 -0.0484  1.1139
18236TIP3   OH276122   2.207   0.516   1.173  0.0197  0.1089 -0.3506
18236TIP3    H176123   2.183   0.514   1.081  0.2849 -1.2516 -0.4080
18236TIP3    H276124   2.239   0.428   1.192 -0.0359  0.3578  1.0442
18237TIP3   OH276125   3.659   1.000   0.395 -0.1704  0.1083 -0.2629
18237TIP3    H176126   3.741   0.991   0.445 -0.8582 -1.5436  0.6182
18237TIP3    H276127   3.602   1.051   0.453 -0.3872 -0.3283 -0.0927
18238TIP3   OH276128   3.343   3.753   1.809  0.6129 -0.0140 -0.1979
18238TIP3    H176129   3.367   3.660   1.814 -1.4765 -0.7478 -2.3565
18238TIP3    H276130   3.400   3.788   1.741  0.5731 -0.0086 -0.2282
18239TIP3   OH276131   2.835   6.448  12.758  0.2546 -0.5177  0.1169
18239TIP3    H176132   2.744   6.455  12.727  0.5457  0.8750 -0.4961
18239TIP3    H276133   2.857   6.356  12.748 -0.9762 -0.8057 -0.0712
18240TIP3   OH276134   4.665   5.970   6.602 -0.1295 -0.1575  0.1398
18240TIP3    H176135   4.604   6.044   6.605 -1.7423 -1.4394  1.4590
18240TIP3    H276136   4.750   6.007   6.627 -0.8057  1.3177  0.3420
18241TIP3   OH276137   3.074   0.558  12.804 -0.1583  0.2784 -0.2566
18241TIP3    H176138   2.988   0.597  12.819  1.0894  2.9892  0.4789
18241TIP3    H276139   3.060   0.495  12.733 -2.5487  1.3200 -0.8191
18242TIP3   OH276140   2.580   3.129  12.494  0.0503 -0.4038  0.0040
18242TIP3    H176141   2.520   3.074  12.544 -0.7527  1.3938  1.1173
18242TIP3    H276142   2.528   3.162  12.421 -1.1005  2.7503  2.0446
18243TIP3   OH276143   2.153   2.979  15.152 -0.4792 -0.4161 -0.2632
18243TIP3    H176144   2.229   3.026  15.184 -1.6112  0.6210  0.9872
18243TIP3    H276145   2.146   2.903  15.209 -1.2324  0.2819  0.5925
18244TIP3   OH276146   2.430   3.907   3.673  0.2551  0.0150 -0.5289
18244TIP3    H176147   2.341   3.872   3.670  0.0503  0.2025  1.7192
18244TIP3    H276148   2.465   3.891   3.585 -1.3937 -1.6503 -0.9493
18245TIP3   OH276149   6.441   0.155  13.257 -0.0230  0.4050  0.1304
18245TIP3    H176150   6.370   0.104  13.219 -0.2348 -0.1015  1.1743
18245TIP3    H276151   6.402   0.241  13.274  0.5915  1.3049 -2.5167
18246TIP3   OH276152   5.364   0.574   2.037  0.5158  0.4136  0.0989
18246TIP3    H176153   5.295   0.557   1.973 -0.0303  0.2267  0.7343
18246TIP3    H276154   5.412   0.649   2.000  1.2523 -0.7303 -1.3477
18247TIP3   OH276155   5.764   2.923  13.731  0.1072  0.2387  0.1873
18247TIP3    H176156   5.739   2.899  13.820  2.2129 -0.5650  0.6087
18247TIP3    H276157   5.836   2.985  13.741 -0.4101  1.0744 -0.9777
18248TIP3   OH276158   1.408   6.523   3.880  0.0516  0.0361 -0.0984
18248TIP3    H176159   1.472   6.594   3.888 -0.0288 -0.1119  2.7848
18248TIP3    H276160   1.454   6.455   3.831  0.8751  1.2286 -1.0397
18249TIP3   OH276161   2.323   0.374  14.765  0.1254  0.1152  0.5334
18249TIP3    H176162   2.367   0.338  14.842 -0.4094 -0.0593  0.7638
18249TIP3    H276163   2.355   0.464  14.759  1.4446 -0.3752 -0.0330
18250TIP3   OH276164   3.741   4.476   4.901  0.2852  0.1919  0.1738
18250TIP3    H176165   3.830   4.452   4.926  0.0989  0.0948  0.7563
18250TIP3    H276166   3.720   4.551   4.957 -1.4055 -2.1441  2.9569
18251TIP3   OH276167   4.619   6.258  11.399 -0.2747 -0.1381 -0.2939
18251TIP3    H176168   4.565   6.185  11.370 -1.8852  1.4642 -1.5407
18251TIP3    H276169   4.658   6.227  11.481 -2.5930 -1.6325  0.3497
18252TIP3   OH276170   3.954   4.072  14.574  0.3123 -0.0904  0.3514
18252TIP3    H176171   3.926   3.991  14.531 -0.7948  0.0700  0.7230
18252TIP3    H276172   4.049   4.064  14.582  0.5318 -0.2200 -1.9005
18253TIP3   OH276173   0.632   5.303  14.575 -0.2714  0.0825  0.1211
18253TIP3    H176174   0.570   5.252  14.523  1.0467 -1.7088  0.2441
18253TIP3    H276175   0.715   5.295  14.529  0.3815  0.5623  1.1731
18254TIP3   OH276176   1.834   0.170  13.940  0.8451  0.4670 -0.0279
18254TIP3    H176177   1.863   0.155  14.030 -0.0779 -0.9893  0.0519
18254TIP3    H276178   1.908   0.141  13.886  1.5366  1.6576  0.2223
18255TIP3   OH276179   6.558   5.116   1.279  0.3538 -0.1481  0.4558
18255TIP3    H176180   6.533   5.110   1.371  2.4580 -0.6029  1.0602
18255TIP3    H276181   6.545   5.208   1.256 -0.9412 -0.1858  0.9333
18256TIP3   OH276182   3.958   5.545   3.635 -0.1968 -0.7673 -0.1322
18256TIP3    H176183   3.880   5.528   3.582  0.3487 -0.3083 -1.1302
18256TIP3    H276184   3.988   5.632   3.606  0.6007 -0.8745  0.3345
18257TIP3   OH276185   2.606   3.459  12.130  0.2520 -0.1428  0.4329
18257TIP3    H176186   2.677   3.475  12.068  0.9346 -2.8557  0.3904
18257TIP3    H276187   2.647   3.464  12.216  0.6413 -1.9621  0.4007
18258TIP3   OH276188   6.607   5.144   0.188  0.3022 -0.2642  0.3868
18258TIP3    H176189   6.690   5.191   0.176 -0.4739  1.1204  0.1758
18258TIP3    H276190   6.585   5.113   0.100 -0.8001  1.8874 -0.1667
18259TIP3   OH276191   3.068   6.036   1.946 -0.3301 -0.2513 -0.3498
18259TIP3    H176192   2.977   6.063   1.933  0.2437  0.7380 -2.8616
18259TIP3    H276193   3.063   5.940   1.951 -1.5476 -0.1816  0.2284
18260TIP3   OH276194   2.328   3.358   3.292  0.5171  0.1958  0.4551
18260TIP3    H176195   2.281   3.389   3.369 -2.0548  0.4726 -1.1132
18260TIP3    H276196   2.324   3.263   3.297 -0.3519  0.2190  0.2725
18261TIP3   OH276197   2.840   2.576   0.501  0.8533 -0.6663  0.1680
18261TIP3    H176198   2.782   2.631   0.449  0.6312  1.7033  2.6817
18261TIP3    H276199   2.804   2.488   0.492 -0.3248 -0.0211 -2.0088
18262TIP3   OH276200   5.415   6.456   5.094  0.5388  0.2690  0.3309
18262TIP3    H176201   5.388   6.365   5.104  0.2404  0.0564 -1.9341
18262TIP3    H276202   5.501   6.451   5.053  0.9222  1.0230  1.0113
18263TIP3   OH276203   3.232   6.000  13.849  0.4137  0.2231 -0.0219
18263TIP3    H176204   3.277   6.028  13.929  0.5355 -0.0161 -0.0043
18263TIP3    H276205   3.290   6.026  13.778  1.3294 -1.4054  0.0639
18264TIP3   OH276206   4.490   0.514   3.890  0.2783 -0.3192 -0.3565
18264TIP3    H176207   4.422   0.468   3.940  2.7887 -4.2195 -0.1129
18264TIP3    H276208   4.478   0.485   3.800  1.7857 -1.4323 -0.2360
18265TIP3   OH276209   5.456   0.634  15.100  0.6419  0.1731 -0.3623
18265TIP3    H176210   5.364   0.614  15.118  0.9412 -1.1831 -0.2593
18265TIP3    H276211   5.474   0.713  15.153 -0.6728  0.9722 -1.0626
18266TIP3   OH276212   1.030   5.771  15.027  0.2742 -0.6939  0.5201
18266TIP3    H176213   0.936   5.780  15.012  0.4521  0.0600 -0.1855
18266TIP3    H276214   1.067   5.855  15.001  1.1307 -0.9251  0.9528
18267TIP3   OH276215   5.017   0.429   3.059 -0.2426  0.7297 -0.2508
18267TIP3    H176216   5.072   0.386   3.126 -0.0874  1.3790  0.0444
18267TIP3    H276217   5.061   0.410   2.976  0.2210  0.9217 -0.0524
18268TIP3   OH276218   5.380   4.716   2.462  0.4863  0.0374 -0.7591
18268TIP3    H176219   5.437   4.761   2.525  1.2710  1.4103 -2.3741
18268TIP3    H276220   5.435   4.647   2.426 -0.0431 -0.9101  0.1925
18269TIP3   OH276221   4.407   0.270   2.662  0.5350 -0.0945  0.7115
18269TIP3    H176222   4.409   0.291   2.568  0.1299  0.9385  0.9208
18269TIP3    H276223   4.486   0.311   2.697  0.6416 -0.4081  0.8432
18270TIP3   OH276224   4.874   3.492  16.058 -0.5058  0.3799  0.3734
18270TIP3    H176225   4.844   3.474  15.969 -1.5606 -1.1485  0.9974
18270TIP3    H276226   4.966   3.516  16.048  0.0043 -1.8362 -0.9731
18271TIP3   OH276227   2.491   2.638  11.532 -0.6988 -0.6467  0.0405
18271TIP3    H176228   2.470   2.655  11.624 -0.2598  0.6199 -0.0763
18271TIP3    H276229   2.500   2.543  11.527  2.0386 -0.6025  1.9649
18272TIP3   OH276230   4.677   6.648  16.912 -0.6559  0.1983  0.1166
18272TIP3    H176231   4.764   6.649  16.873 -1.1670 -0.1905 -1.1064
18272TIP3    H276232   4.678   6.572  16.970 -0.3091 -0.0777 -0.2422
18273TIP3   OH276233   0.381   5.966   4.773 -0.4577 -0.4516  0.7396
18273TIP3    H176234   0.388   5.889   4.829 -2.7588 -0.4576  1.1052
18273TIP3    H276235   0.345   6.034   4.830  0.0894  0.4636  0.0285
18274TIP3   OH276236   2.361   3.655   6.465  0.2129 -0.0261 -0.3787
18274TIP3    H176237   2.284   3.685   6.512 -0.6057 -1.8212 -0.4634
18274TIP3    H276238   2.418   3.618   6.533  1.6786  2.4937 -0.1359
18275TIP3   OH276239   5.848   2.568  16.684 -0.4762 -0.3811  0.1367
18275TIP3    H176240   5.884   2.489  16.643  1.3809  0.8356 -0.6748
18275TIP3    H276241   5.917   2.600  16.741 -1.1373  0.7595  0.3289
18276TIP3   OH276242   5.333   0.186   2.866 -0.0063 -0.0765  0.0254
18276TIP3    H176243   5.255   0.234   2.839 -0.6016 -1.2007 -0.3446
18276TIP3    H276244   5.386   0.249   2.914 -1.6409  0.4431  1.2038
18277TIP3   OH276245   0.915   3.021   3.338  0.0138  0.0545  0.4729
18277TIP3    H176246   0.986   3.082   3.319 -0.2536  0.1001 -0.4439
18277TIP3    H276247   0.958   2.943   3.371  0.4661  0.2054  0.2510
18278TIP3   OH276248   0.045   6.641   2.832  0.0985  0.6103 -1.0216
18278TIP3    H176249   0.072   6.728   2.804 -1.3737  1.3181 -0.3548
18278TIP3    H276250  -0.050   6.645   2.833  0.0082 -0.0551  1.8513
18279TIP3   OH276251   5.607   5.282  11.720 -0.9344  0.0761  0.4339
18279TIP3    H176252   5.582   5.202  11.674  0.0283 -0.9833  1.6770
18279TIP3    H276253   5.675   5.254  11.781 -0.8620  1.7777  1.1791
18280TIP3   OH276254   1.077   6.445   1.144  0.1362  0.7835  0.1155
18280TIP3    H176255   1.161   6.481   1.170 -0.3627  1.4167  0.8948
18280TIP3    H276256   1.097   6.387   1.071  1.0181  2.2468 -0.8449
18281TIP3   OH276257   2.196   3.798  12.955  0.6364 -0.0438 -0.5101
18281TIP3    H176258   2.110   3.765  12.983  0.2931  0.6070 -0.7649
18281TIP3    H276259   2.212   3.757  12.871  1.8665 -2.3511  0.7359
18282TIP3   OH276260   5.444   1.653  16.316  0.2103 -0.6920  0.9773
18282TIP3    H176261   5.528   1.610  16.329  0.7752  0.2350  0.4821
18282TIP3    H276262   5.427   1.700  16.398  0.2159 -0.7978  1.0388
18283TIP3   OH276263   2.117   1.305  16.039 -0.1186  0.0808 -0.3039
18283TIP3    H176264   2.168   1.385  16.052 -0.0856 -0.1396  1.0925
18283TIP3    H276265   2.151   1.267  15.958 -0.5617  1.7753 -1.3391
18284TIP3   OH276266   5.162   1.649  15.621 -0.0522 -0.1643 -0.3103
18284TIP3    H176267   5.129   1.735  15.594 -0.7973 -0.2671  0.2295
18284TIP3    H276268   5.202   1.665  15.706 -1.1745 -0.5283  0.3132
18285TIP3   OH276269   2.379   1.823  14.636 -0.9647  0.3522 -0.1756
18285TIP3    H176270   2.444   1.783  14.579 -2.3977  0.7842 -2.2499
18285TIP3    H276271   2.334   1.748  14.676  0.4059  0.0500  0.8714
18286TIP3   OH276272   3.493   1.504  15.909  0.3624 -0.0315  0.1179
18286TIP3    H176273   3.484   1.513  15.814 -0.4800 -0.7306  0.1200
18286TIP3    H276274   3.536   1.419  15.922  1.0526  0.3406  0.3539
18287TIP3   OH276275   5.843   6.348  14.639  0.2277  0.1402 -0.1229
18287TIP3    H176276   5.853   6.288  14.565  0.1871 -0.1307  0.0884
18287TIP3    H276277   5.813   6.292  14.711 -1.9299  0.7460 -0.4846
18288TIP3   OH276278   2.757   1.704   4.392  0.3866  0.0336  0.8267
18288TIP3    H176279   2.802   1.788   4.404 -0.4598  0.6367 -0.0192
18288TIP3    H276280   2.782   1.677   4.303 -1.2974  0.6526  0.1211
18289TIP3   OH276281   3.897   6.103   1.501 -0.2303  0.0847 -0.0475
18289TIP3    H176282   3.917   6.175   1.561  0.4257  0.6238 -0.8811
18289TIP3    H276283   3.805   6.083   1.517  0.2013 -0.5379  1.8909
18290TIP3   OH276284   1.985   1.574   0.403  0.3720  0.5427  0.3957
18290TIP3    H176285   2.062   1.527   0.371 -1.3872 -1.2955 -1.4664
18290TIP3    H276286   1.959   1.630   0.331  0.1488  1.4105  1.1347
18291TIP3   OH276287   6.515   5.101   2.161  0.3018 -0.6255  0.0373
18291TIP3    H176288   6.423   5.096   2.187  0.1218 -1.1932 -0.6776
18291TIP3    H276289   6.544   5.187   2.190 -0.3912 -0.5368  0.4778
18292TIP3   OH276290   1.814   3.227  15.371  0.1276 -0.8853  0.0520
18292TIP3    H176291   1.725   3.246  15.341  1.1495  2.7483 -1.2600
18292TIP3    H276292   1.869   3.244  15.295  2.0656 -1.4483  1.2560
18293TIP3   OH276293   2.622   2.673   1.621 -0.0246 -0.4948  0.2436
18293TIP3    H176294   2.671   2.651   1.541 -2.1803 -2.7423 -0.5918
18293TIP3    H276295   2.587   2.760   1.605  0.4653 -0.4742 -0.7905
18294TIP3   OH276296   5.414   4.709   4.464 -0.3607  0.4542 -0.1786
18294TIP3    H176297   5.465   4.729   4.385 -0.1872 -0.2786 -0.2658
18294TIP3    H276298   5.442   4.621   4.488 -0.0498  0.8570  0.9925
18295TIP3   OH276299   6.116   0.441  10.957  0.2340 -0.1413  0.5265
18295TIP3    H176300   6.128   0.382  11.031  0.1570 -1.3057 -0.3569
18295TIP3    H276301   6.094   0.525  10.997 -2.0648 -1.2429  1.8151
18296TIP3   OH276302   4.122   0.905   3.856  0.0936 -0.0702 -0.7750
18296TIP3    H176303   4.145   0.816   3.829 -1.0728 -0.6972  0.2067
18296TIP3    H276304   4.096   0.948   3.774 -1.0481 -1.1840 -1.0282
18297TIP3   OH276305   0.686   4.374   3.799  0.3197  0.6785  0.1679
18297TIP3    H176306   0.683   4.381   3.895 -0.2993 -1.0492  0.3132
18297TIP3    H276307   0.623   4.438   3.768  1.1328  1.8525  0.8686
18298TIP3   OH276308   4.648   2.550  12.079 -0.3126 -0.2155 -0.0297
18298TIP3    H176309   4.633   2.508  12.164  0.0001  0.1201  0.1898
18298TIP3    H276310   4.712   2.494  12.035  0.8843  0.5633  0.6681
18299TIP3   OH276311   5.774   0.916   4.537  0.1584  0.0376 -0.4243
18299TIP3    H176312   5.752   1.003   4.503 -0.5765 -0.3843 -1.0568
18299TIP3    H276313   5.691   0.882   4.569  0.5327 -0.2536  0.2651
18300TIP3   OH276314   4.657   1.894   5.827  0.0025  0.0855  0.2933
18300TIP3    H176315   4.592   1.933   5.885 -1.3661 -0.6307 -0.7064
18300TIP3    H276316   4.653   1.948   5.748 -0.2559 -0.6858 -0.2247
18301TIP3   OH276317   0.268   5.225   3.326 -0.2286 -0.3833  0.2042
18301TIP3    H176318   0.296   5.248   3.415  0.0360  0.5895 -0.1179
18301TIP3    H276319   0.349   5.198   3.282 -0.0278  0.8999 -0.2616
18302TIP3   OH276320   4.465   2.605  13.384 -0.6039  0.0394 -0.0162
18302TIP3    H176321   4.409   2.583  13.309 -0.4692 -0.0290 -0.0966
18302TIP3    H276322   4.410   2.661  13.439 -0.3731  0.9401 -0.6721
18303TIP3   OH276323   6.671   0.939  14.669 -0.3542 -0.0740  0.3789
18303TIP3    H176324   6.640   0.889  14.594 -0.3538  3.5644 -2.3069
18303TIP3    H276325   6.759   0.905  14.685 -1.0957 -2.3003  0.1678
18304TIP3   OH276326   4.112   6.537  17.310  0.1300 -0.9087 -0.2849
18304TIP3    H176327   4.134   6.446  17.290  1.1693 -0.8278  0.4121
18304TIP3    H276328   4.183   6.567  17.367 -0.4790  0.1783 -0.0687
18305TIP3   OH276329   3.662   6.741   1.005  0.3101  0.1512 -0.6245
18305TIP3    H176330   3.722   6.701   1.069 -1.7505 -0.1273  1.2579
18305TIP3    H276331   3.706   6.823   0.979  1.4033  0.0811  0.8696
18306TIP3   OH276332   0.553   5.217   0.690  0.2276  0.3556  0.8741
18306TIP3    H176333   0.620   5.166   0.733  1.1056  0.8592  0.1385
18306TIP3    H276334   0.497   5.152   0.646  1.3169  0.0038 -0.0293
18307TIP3   OH276335   3.324   5.912   3.607 -0.0625 -0.0013 -0.1065
18307TIP3    H176336   3.406   5.864   3.603  0.1248  0.3597 -0.9691
18307TIP3    H276337   3.296   5.919   3.516 -0.9587  0.0440  0.1588
18308TIP3   OH276338   4.026   0.209   4.106  0.3735 -0.2309  0.4404
18308TIP3    H176339   4.046   0.164   4.024 -0.5838 -1.0309  0.6374
18308TIP3    H276340   3.986   0.292   4.078  2.8838  0.9679  0.0597
18309TIP3   OH276341   1.436   0.452   4.745  0.1328 -0.1678  0.2386
18309TIP3    H176342   1.438   0.388   4.815 -2.0833 -1.2299 -0.5733
18309TIP3    H276343   1.518   0.440   4.698  0.2362 -1.6647  0.7613
18310TIP3   OH276344   3.285   6.765  16.627 -0.1918  0.0299 -0.6263
18310TIP3    H176345   3.335   6.843  16.602 -2.9534  1.8580 -0.8696
18310TIP3    H276346   3.230   6.747  16.551 -1.8446 -0.2015  0.5700
18311TIP3   OH276347   0.912   1.266   6.297  1.1814 -0.4017  0.0233
18311TIP3    H176348   0.922   1.280   6.391  0.0202 -1.0566  0.2719
18311TIP3    H276349   0.896   1.171   6.289  0.5332 -0.2412 -0.7431
18312TIP3   OH276350   0.851   0.351  15.748  0.4603  0.6835  0.3009
18312TIP3    H176351   0.758   0.364  15.730  1.0023  1.8890 -2.0076
18312TIP3    H276352   0.866   0.400  15.828 -1.0122 -0.1352  1.1283
18313TIP3   OH276353   6.561   3.404   3.462 -0.2757  0.2370  0.0189
18313TIP3    H176354   6.509   3.476   3.498  0.9281  0.9087  0.4551
18313TIP3    H276355   6.573   3.427   3.370 -1.7813 -0.5505 -0.4020
18314TIP3   OH276356   2.381   5.135  17.029 -0.1918  0.0605  0.2413
18314TIP3    H176357   2.446   5.205  17.036 -0.2669  0.2219 -0.5400
18314TIP3    H276358   2.301   5.179  16.998 -0.0327 -0.4637 -0.9902
18315TIP3   OH276359   1.356   4.025  11.915  0.0188  0.4546 -0.5331
18315TIP3    H176360   1.403   3.974  11.981 -1.0886 -1.5108 -1.2057
18315TIP3    H276361   1.264   4.000  11.926 -0.2217  0.2257 -2.6933
18316TIP3   OH276362   6.036   0.478   2.963 -0.2990 -0.3352  0.0472
18316TIP3    H176363   6.010   0.434   2.883 -1.6913 -0.0403  0.3083
18316TIP3    H276364   6.063   0.408   3.022 -0.8741 -0.6989 -0.1185
18317TIP3   OH276365   6.139   1.071   0.688 -0.5872 -0.4381 -0.3198
18317TIP3    H176366   6.175   1.084   0.601 -0.5853 -0.9862 -0.4003
18317TIP3    H276367   6.062   1.128   0.691  0.3222  0.8315 -0.1058
18318TIP3   OH276368   4.223   6.535  14.088 -0.7519  0.5161  0.1875
18318TIP3    H176369   4.239   6.498  14.001 -0.7632 -1.4585  0.9626
18318TIP3    H276370   4.136   6.574  14.083 -0.9640 -0.0441 -0.5522
18319TIP3   OH276371   3.073   3.266  12.471  0.1553 -0.3331 -0.3311
18319TIP3    H176372   3.088   3.207  12.545 -1.4139  1.0458  1.1510
18319TIP3    H276373   3.146   3.328  12.474  0.0208 -0.2007  0.1247
18320TIP3   OH276374   5.966   4.792  16.462 -0.2381 -0.7965  0.9924
18320TIP3    H176375   5.917   4.860  16.416 -1.3081 -2.7673 -0.9505
18320TIP3    H276376   6.058   4.817  16.451 -0.5895  0.1092 -0.0708
18321TIP3   OH276377   5.593   0.961   0.583  0.1586 -0.6421  0.0209
18321TIP3    H176378   5.646   0.944   0.505  0.4829  1.5244 -0.2938
18321TIP3    H276379   5.642   1.027   0.631 -0.8954 -0.6805  1.1818
18322TIP3   OH276380   5.548   2.887   3.159 -0.5322 -0.0984 -0.0627
18322TIP3    H176381   5.574   2.909   3.069  0.4029 -1.1530 -0.0652
18322TIP3    H276382   5.571   2.795   3.169 -1.4056 -0.2224  0.9930
18323TIP3   OH276383   2.072   1.659  12.733  0.0612 -0.4260 -0.1437
18323TIP3    H176384   2.136   1.588  12.733 -0.2855 -0.7443 -0.9788
18323TIP3    H276385   2.020   1.645  12.654 -0.1281  0.6550 -0.2249
18324TIP3   OH276386   3.686   5.031  15.089 -0.3396 -0.2966  0.2985
18324TIP3    H176387   3.591   5.034  15.105 -0.5555 -2.2399 -0.3576
18324TIP3    H276388   3.715   5.121  15.102 -2.3464  0.4364  0.1063
18325TIP3   OH276389   2.639   0.471  11.728 -0.3770  0.3132 -0.5588
18325TIP3    H176390   2.592   0.469  11.645 -1.1086 -0.4847 -0.1394
18325TIP3    H276391   2.573   0.447  11.794 -0.0113  1.6522  0.3517
18326TIP3   OH276392   0.953   5.674   5.322 -0.0608 -0.6024 -0.2891
18326TIP3    H176393   1.026   5.669   5.383 -0.6553 -2.4417  0.3387
18326TIP3    H276394   0.964   5.598   5.265 -0.5823  0.0200 -1.2553
18327TIP3   OH276395   6.101   6.243  11.931 -0.7562 -0.0001  0.6621
18327TIP3    H176396   6.156   6.197  11.868 -2.8579 -0.3735 -1.0093
18327TIP3    H276397   6.149   6.323  11.951  0.3612 -0.2700 -0.7945
18328TIP3   OH276398   0.779   3.284  11.110 -0.0734  0.4114 -0.1895
18328TIP3    H176399   0.838   3.213  11.135 -2.4796 -2.2737 -1.5713
18328TIP3    H276400   0.791   3.292  11.015 -0.2827  1.4659 -0.1403
18329TIP3   OH276401   3.526   6.106  16.059 -0.2036 -0.2512 -0.0564
18329TIP3    H176402   3.559   6.165  15.991 -2.2650  1.0555 -0.0173
18329TIP3    H276403   3.500   6.027  16.011  2.0253 -0.9647 -0.1874
18330TIP3   OH276404   2.948   3.722   5.318  0.4362 -0.1962 -0.7258
18330TIP3    H176405   2.854   3.726   5.335  0.4326  0.6100 -0.8556
18330TIP3    H276406   2.985   3.680   5.395  0.0774  0.4822 -0.1696
18331TIP3   OH276407   3.481   2.985  16.743 -0.5189  0.1106  0.0901
18331TIP3    H176408   3.520   2.902  16.770 -0.3119 -0.3995 -1.6357
18331TIP3    H276409   3.506   2.995  16.651 -2.8674  0.6919 -0.5751
18332TIP3   OH276410   5.231   0.657  12.987 -0.1281  0.4653 -0.8236
18332TIP3    H176411   5.143   0.625  12.965 -0.1068  0.0192 -0.2830
18332TIP3    H276412   5.290   0.596  12.943 -0.0843 -0.5631  0.6048
18333TIP3   OH276413   3.982   5.229  14.330 -0.1487  0.6021  0.4793
18333TIP3    H176414   4.019   5.183  14.405  0.0087  1.4164  0.9173
18333TIP3    H276415   3.911   5.172  14.300  0.5124 -0.2748  0.5303
18334TIP3   OH276416   0.352   4.139  13.294  0.0352 -0.3697 -0.0740
18334TIP3    H176417   0.276   4.196  13.285 -0.4621 -0.7541  1.4607
18334TIP3    H276418   0.343   4.099  13.381  3.2886  1.5020  1.2916
18335TIP3   OH276419   3.307   6.098  14.973  0.3182 -0.2303 -0.2607
18335TIP3    H176420   3.357   6.175  15.002 -0.5150  0.3000 -0.1637
18335TIP3    H276421   3.310   6.038  15.047  0.6461 -0.1185 -0.1834
18336TIP3   OH276422   1.731   1.907   2.453 -0.3644 -0.0294  0.2237
18336TIP3    H176423   1.716   1.896   2.359  0.8782  1.9418 -0.2517
18336TIP3    H276424   1.649   1.943   2.486 -0.4266  0.3161 -0.3017
18337TIP3   OH276425   2.366   6.713  11.221  0.0512 -0.5288 -0.0607
18337TIP3    H176426   2.449   6.677  11.190  0.7829  0.9222  0.1070
18337TIP3    H276427   2.299   6.670  11.169  1.0720 -0.1336 -1.7536
18338TIP3   OH276428   3.130   6.735  16.414 -0.0486 -0.1912  0.3625
18338TIP3    H176429   3.039   6.762  16.403 -0.0361 -0.1728  0.3052
18338TIP3    H276430   3.176   6.775  16.341 -0.0838 -0.6282  0.0970
18339TIP3   OH276431   4.201   4.995  14.308  0.3239 -0.0318 -0.1542
18339TIP3    H176432   4.272   4.934  14.328 -0.0152 -0.9058 -1.4764
18339TIP3    H276433   4.183   5.039  14.391  1.2468 -1.0249  0.6017
18340TIP3   OH276434   4.813   5.255  12.127 -0.0120  0.2780  0.1455
18340TIP3    H176435   4.832   5.318  12.057 -1.1010  1.1732  0.6148
18340TIP3    H276436   4.807   5.170  12.083 -0.7434  0.8373 -0.8757
18341TIP3   OH276437   1.583   3.762   3.209 -0.0034  0.1138 -0.0134
18341TIP3    H176438   1.580   3.840   3.154  0.8436  0.1841  0.0277
18341TIP3    H276439   1.497   3.758   3.250 -0.3562  0.5224 -0.7074
18342TIP3   OH276440   5.206   6.628   5.093  0.3742 -0.0574 -0.4264
18342TIP3    H176441   5.227   6.692   5.162 -1.4653  0.5834 -0.4168
18342TIP3    H276442   5.279   6.567   5.095  0.3574 -0.1020  2.1512
18343TIP3   OH276443   0.914   5.137  13.470 -0.1352  0.5388 -0.3637
18343TIP3    H176444   0.968   5.177  13.402 -1.8902  1.6306 -1.2060
18343TIP3    H276445   0.873   5.211  13.514 -0.0965 -0.2164  1.0034
18344TIP3   OH276446   0.688   4.400   3.303  0.5969  0.3811  0.2966
18344TIP3    H176447   0.692   4.366   3.214  1.9038 -2.6178  1.3749
18344TIP3    H276448   0.623   4.345   3.347  1.0277  0.8500  1.5714
18345TIP3   OH276449   6.661   4.762  12.129 -0.1714  0.0397  0.4108
18345TIP3    H176450   6.654   4.833  12.193 -0.8652 -0.4479  0.8982
18345TIP3    H276451   6.682   4.806  12.046 -1.1645  0.8785  0.5821
18346TIP3   OH276452   1.189   0.958  10.815 -0.3018 -0.1596  0.2474
18346TIP3    H176453   1.196   1.002  10.899 -0.9974  1.6139 -0.5902
18346TIP3    H276454   1.136   0.880  10.833 -0.1291 -0.0060  1.4972
18347TIP3   OH276455   5.252   6.228  14.793  0.6297  0.1442  0.1148
18347TIP3    H176456   5.299   6.164  14.847  0.4199  0.5048  0.7357
18347TIP3    H276457   5.176   6.253  14.845  0.6524  0.8227 -0.1563
18348TIP3   OH276458   2.653   2.489   4.075 -0.2837 -0.1717 -0.3487
18348TIP3    H176459   2.651   2.584   4.081 -0.6016 -0.2534  1.1054
18348TIP3    H276460   2.627   2.458   4.162 -1.8143 -1.5885 -1.2386
18349TIP3   OH276461   0.702   2.855   4.923 -0.3063  0.0405  0.3800
18349TIP3    H176462   0.734   2.799   4.852  0.4217 -0.6670  1.2378
18349TIP3    H276463   0.747   2.938   4.910  2.0349 -0.9484  1.5964
18350TIP3   OH276464   4.125   1.275   5.452 -0.1825  0.4372 -0.2792
18350TIP3    H176465   4.056   1.318   5.503  1.0384  0.0758  1.7861
18350TIP3    H276466   4.206   1.320   5.477  0.5921 -0.4275 -1.1473
18351TIP3   OH276467   4.472   3.261  13.739  0.0867  0.1757  0.2271
18351TIP3    H176468   4.444   3.343  13.780 -1.0872 -1.5152  3.1509
18351TIP3    H276469   4.567   3.268  13.733 -0.0336  1.8907  0.0240
18352TIP3   OH276470   4.243   0.717  17.082  0.3932  0.1373  0.1132
18352TIP3    H176471   4.267   0.635  17.125 -0.4708  0.2658  0.8533
18352TIP3    H276472   4.268   0.704  16.991  1.9603 -0.2622  0.5577
18353TIP3   OH276473   2.766   1.952   0.944  0.2298 -0.3812  0.5010
18353TIP3    H176474   2.799   1.972   1.032  0.5444 -1.5663  0.6759
18353TIP3    H276475   2.706   2.024   0.924 -0.0089 -0.1931  1.7752
18354TIP3   OH276476   2.630   0.829   4.683 -0.0513  0.2390 -0.1888
18354TIP3    H176477   2.568   0.772   4.729  0.7671 -0.5026  0.0138
18354TIP3    H276478   2.685   0.769   4.633  0.9565  0.8328  0.1887
18355TIP3   OH276479   5.051   1.937  11.414  0.3101  0.7466  0.1339
18355TIP3    H176480   5.038   1.945  11.508 -0.5684 -0.2684  0.1166
18355TIP3    H276481   5.147   1.938  11.402  0.4982 -0.7481  1.2121
18356TIP3   OH276482   4.522   1.627   3.702  0.1934  0.2060 -0.1582
18356TIP3    H176483   4.491   1.544   3.667 -0.7056  0.5106 -0.1063
18356TIP3    H276484   4.472   1.639   3.783 -1.1124  1.6980 -1.1165
18357TIP3   OH276485   0.016   1.691  13.650 -0.5458 -0.2379  0.1219
18357TIP3    H176486   0.049   1.634  13.719  0.1584  0.1195  0.0905
18357TIP3    H276487   0.094   1.734  13.615 -0.9393 -0.1240 -0.6311
18358TIP3   OH276488   5.528   6.451  11.573 -0.2456  0.3032 -0.5227
18358TIP3    H176489   5.529   6.362  11.610 -1.3277  0.7789  0.7789
18358TIP3    H276490   5.567   6.505  11.641  1.4837  0.7041 -1.7858
18359TIP3   OH276491   2.319   1.262   5.649 -0.0642  0.5796 -0.2882
18359TIP3    H176492   2.410   1.283   5.628  1.6776 -3.4833  1.9859
18359TIP3    H276493   2.278   1.243   5.564  1.7955  0.6187 -1.2301
18360TIP3   OH276494   5.686   2.589   3.558  0.0265  0.4321  0.2617
18360TIP3    H176495   5.725   2.514   3.604 -0.3647  0.3815  0.5159
18360TIP3    H276496   5.718   2.665   3.606  0.1863  0.4141  0.1853
18361TIP3   OH276497   0.303   6.136  16.892  0.3841  0.1497 -0.1139
18361TIP3    H176498   0.287   6.132  16.798  0.3187  0.0132 -0.0966
18361TIP3    H276499   0.375   6.199  16.901  0.1857  0.3937 -0.2294
18362TIP3   OH276500   1.248   5.800   3.373  0.1380 -0.2437  0.7070
18362TIP3    H176501   1.192   5.765   3.442  0.4553  2.1611  2.3118
18362TIP3    H276502   1.329   5.827   3.418  0.5143  1.0403 -0.6329
18363TIP3   OH276503   3.064   3.053  14.650  0.5728 -0.5000 -0.2524
18363TIP3    H176504   3.026   3.022  14.568  1.4401  0.5524 -1.0630
18363TIP3    H276505   3.157   3.060  14.633  0.6104  1.0128  0.3818
18364TIP3   OH276506   4.923   1.358  13.151 -0.0572 -0.2987  0.2855
18364TIP3    H176507   4.963   1.387  13.069 -1.4773 -1.5441 -0.9152
18364TIP3    H276508   4.853   1.421  13.167  1.2891  0.9393  1.5085
18365TIP3   OH276509   1.721   1.788  14.370  0.1225  0.4800 -0.0467
18365TIP3    H176510   1.647   1.729  14.352  0.1203  0.2622  0.6370
18365TIP3    H276511   1.789   1.760  14.309  0.5026 -0.9690  0.9712
18366TIP3   OH276512   0.739   0.100  14.448 -0.1333 -0.5650  0.2353
18366TIP3    H176513   0.658   0.050  14.460  0.8157 -2.1589  0.2715
18366TIP3    H276514   0.751   0.103  14.353 -0.9222  0.8651  0.1579
18367TIP3   OH276515   3.183   2.934   4.589 -0.4240  0.0723 -0.1299
18367TIP3    H176516   3.227   2.908   4.508 -2.2298  1.1095 -1.5089
18367TIP3    H276517   3.254   2.954   4.650  0.9922  0.7898 -1.9478
18368TIP3   OH276518   2.210   2.011   6.034 -0.1801 -0.2397  0.1062
18368TIP3    H176519   2.173   2.023   6.122  1.2234  1.2552  0.5406
18368TIP3    H276520   2.180   2.088   5.985 -0.2696 -0.6517 -0.4967
18369TIP3   OH276521   2.095   5.186  16.640  0.1825  0.0136  0.4493
18369TIP3    H176522   2.032   5.166  16.571 -0.8370 -0.7863  1.5859
18369TIP3    H276523   2.146   5.259  16.605  0.5074 -1.1459 -1.6567
18370TIP3   OH276524   0.289   5.425   0.067 -0.0777 -0.0260  0.2801
18370TIP3    H176525   0.346   5.501   0.077 -0.8346  0.8711 -1.5870
18370TIP3    H276526   0.345   5.358   0.030 -0.4342  1.4410 -3.4028
18371TIP3   OH276527   5.374   3.987  16.868 -0.2351 -0.0062  0.6282
18371TIP3    H176528   5.343   3.974  16.778  1.4704  0.6011 -0.0823
18371TIP3    H276529   5.294   3.992  16.920 -1.3012  0.5387 -0.9803
18372TIP3   OH276530   3.904   1.346   5.607 -0.4652 -0.2164 -0.2935
18372TIP3    H176531   3.871   1.363   5.696 -1.4801  1.6022 -0.9758
18372TIP3    H276532   3.860   1.265   5.582 -2.5973  0.8495 -0.2280
18373TIP3   OH276533   6.689   0.755  14.195 -0.5021  0.4049  0.2885
18373TIP3    H176534   6.668   0.669  14.157 -0.3176  1.0491 -1.3662
18373TIP3    H276535   6.696   0.813  14.119 -2.0865  2.2144  1.4306
18374TIP3   OH276536   5.018   0.129   3.379  0.1831 -0.3348 -0.4104
18374TIP3    H176537   5.044   0.119   3.471 -1.8544 -0.6827  0.1707
18374TIP3    H276538   4.970   0.212   3.377  1.7764  0.6342 -1.5899
18375TIP3   OH276539   2.690   3.142  12.775  0.0276 -0.5038 -0.3460
18375TIP3    H176540   2.632   3.072  12.745 -3.2749  2.1661 -0.8366
18375TIP3    H276541   2.642   3.184  12.847  2.0277  1.0288  0.2021
18376TIP3   OH276542   2.770   4.341   5.353 -0.3727  0.4731  0.7226
18376TIP3    H176543   2.852   4.355   5.305 -0.5635  2.4071  0.8887
18376TIP3    H276544   2.759   4.246   5.354  1.3266  0.2249 -0.2057
18377TIP3   OH276545   0.394   2.880  14.376  0.3931 -0.5986 -0.2138
18377TIP3    H176546   0.473   2.918  14.414  0.9020 -0.4037 -1.4402
18377TIP3    H276547   0.323   2.939  14.404  1.0153  0.6372 -1.1297
18378TIP3   OH276548   3.403   3.587  16.089  0.1747 -0.3660 -0.4132
18378TIP3    H176549   3.394   3.654  16.157 -0.5189 -0.6675 -0.2006
18378TIP3    H276550   3.464   3.523  16.127  1.2229  0.3772 -0.8105
18379TIP3   OH276551   4.440   6.284   5.095 -0.4019 -0.2902 -0.3700
18379TIP3    H176552   4.525   6.286   5.052  0.5524 -0.3743  1.4418
18379TIP3    H276553   4.415   6.376   5.105 -1.7519 -0.2490 -3.0808
18380TIP3   OH276554   0.244   5.700  11.182 -0.4270  0.6160  0.1366
18380TIP3    H176555   0.257   5.612  11.219  1.8172  1.0184  0.4669
18380TIP3    H276556   0.329   5.724  11.147 -0.6668  3.1113  1.0466
18381TIP3   OH276557   1.702   6.579  13.487 -0.0467 -0.0737 -0.1313
18381TIP3    H176558   1.718   6.643  13.418 -0.7181  0.6435  0.3677
18381TIP3    H276559   1.764   6.509  13.469  2.1946  1.6251  0.5025
18382TIP3   OH276560   1.943   1.678   2.487  0.0906 -0.3380 -0.3476
18382TIP3    H176561   1.869   1.738   2.486  0.6531  0.4132  0.6523
18382TIP3    H276562   1.905   1.592   2.472 -0.8664  0.1409 -0.7320
18383TIP3   OH276563   0.281   0.846  13.462 -0.1031 -0.4873  0.1381
18383TIP3    H176564   0.261   0.816  13.551 -1.2372  0.2117  0.1330
18383TIP3    H276565   0.262   0.771  13.406 -2.6334  0.0402  0.1581
18384TIP3   OH276566   4.566   6.207  15.158 -0.1532 -0.0496  0.2574
18384TIP3    H176567   4.617   6.255  15.093 -2.4819  1.6187 -0.4557
18384TIP3    H276568   4.538   6.274  15.221 -2.0628 -0.7409  0.2081
18385TIP3   OH276569   2.213   0.122  10.490  0.1138 -0.3351 -0.4052
18385TIP3    H176570   2.214   0.162  10.403  0.0631  0.4871 -0.0432
18385TIP3    H276571   2.146   0.054  10.485 -0.3378  0.1330 -0.8336
18386TIP3   OH276572   5.043   2.344   0.524 -0.2170  0.1804  0.3985
18386TIP3    H176573   5.131   2.345   0.560  0.3198 -0.8265 -0.8123
18386TIP3    H276574   5.056   2.329   0.430 -1.5741  1.9975 -0.1510
18387TIP3   OH276575   0.175   0.504   4.718  0.0290 -1.2199  0.1960
18387TIP3    H176576   0.080   0.500   4.702  0.0545  0.4825 -0.6814
18387TIP3    H276577   0.207   0.567   4.653  1.2808  0.5961  2.4263
18388TIP3   OH276578   2.914   6.568   6.044  1.1236 -0.0545  0.0393
18388TIP3    H176579   2.911   6.610   6.130  0.7366  0.1677 -0.0784
18388TIP3    H276580   2.983   6.502   6.051 -0.0310 -1.1880  1.0373
18389TIP3   OH276581   1.926   1.990   0.328 -0.5199 -0.2447  0.2157
18389TIP3    H176582   1.844   2.038   0.320 -1.1621 -1.1919  0.9400
18389TIP3    H276583   1.906   1.901   0.298  0.2838 -0.4360  0.2207
18390TIP3   OH276584   5.155   1.291  15.054  0.6382  0.1392  0.1112
18390TIP3    H176585   5.228   1.267  15.111  3.0022  0.0559 -2.7591
18390TIP3    H276586   5.101   1.212  15.050  0.5132  0.0781  1.9794
18391TIP3   OH276587   5.288   2.060  16.304  0.3395 -0.0858 -0.3827
18391TIP3    H176588   5.374   2.030  16.277 -0.0056 -0.7531 -0.7597
18391TIP3    H276589   5.248   2.095  16.224  0.1548 -0.0323 -0.2690
18392TIP3   OH276590   4.666   1.599  16.112 -0.4332 -0.3622  0.3686
18392TIP3    H176591   4.675   1.518  16.163 -0.5863 -0.9597 -0.5240
18392TIP3    H276592   4.675   1.571  16.021 -0.9083  0.5625  0.0211
18393TIP3   OH276593   1.018   2.779  14.181 -0.3515  0.0760 -0.0988
18393TIP3    H176594   0.960   2.781  14.105  0.5602 -2.0324 -0.9390
18393TIP3    H276595   1.078   2.853  14.168 -1.4662  0.9671 -0.3392
18394TIP3   OH276596   6.428   4.050  10.626  0.3576  0.4280 -0.2102
18394TIP3    H176597   6.490   4.121  10.607 -0.7900  1.2032 -1.2592
18394TIP3    H276598   6.396   4.023  10.540  1.7852 -2.3847  0.0371
18395TIP3   OH276599   0.028   3.771   5.307  0.0422 -0.8145 -0.2217
18395TIP3    H176600   0.007   3.728   5.390 -0.6981  0.3260  0.2129
18395TIP3    H276601   0.045   3.862   5.331 -1.3636 -0.1901 -1.4503
18396TIP3   OH276602   2.068   6.004   3.924  0.2780 -0.3785  0.2428
18396TIP3    H176603   2.152   5.958   3.930  0.5125 -0.0844 -0.7101
18396TIP3    H276604   2.064   6.056   4.004  1.0962 -0.2400  0.1962
18397TIP3   OH276605   3.321   6.425  13.775  0.0585 -0.3985  0.0381
18397TIP3    H176606   3.234   6.466  13.776  0.6752  1.2025 -2.6409
18397TIP3    H276607   3.379   6.492  13.811  0.6421  0.0104 -1.5683
18398TIP3   OH276608   5.012   5.482  13.102  0.3873 -0.3669 -0.5078
18398TIP3    H176609   5.079   5.550  13.099  0.7313 -0.5774  1.4389
18398TIP3    H276610   4.943   5.515  13.045  1.4714  0.5761 -1.3268
18399TIP3   OH276611   1.342   1.925   3.577 -0.2724  0.2341 -0.2275
18399TIP3    H176612   1.317   1.842   3.537 -2.6177  1.2604 -1.0642
18399TIP3    H276613   1.337   1.909   3.671  1.3657 -1.0990 -0.3216
18400TIP3   OH276614   2.282   4.757   2.557  0.2968 -0.1752  0.0510
18400TIP3    H176615   2.225   4.699   2.608  1.8628 -0.5747  1.4420
18400TIP3    H276616   2.252   4.745   2.467 -2.5629  0.5560  0.7912
18401TIP3   OH276617   3.250   2.337   0.147  0.0225 -0.1850 -0.5032
18401TIP3    H176618   3.179   2.398   0.167  0.2390 -0.6645  2.0117
18401TIP3    H276619   3.322   2.364   0.204  0.5768 -1.9683 -0.2867
18402TIP3   OH276620   5.739   4.778   4.039 -0.0511 -0.5072 -0.7744
18402TIP3    H176621   5.645   4.762   4.026 -0.1684  0.0956 -0.7043
18402TIP3    H276622   5.755   4.862   3.995  0.4161 -0.5139 -0.6182
18403TIP3   OH276623   3.472   6.503   5.603 -0.0941 -0.2413 -0.1007
18403TIP3    H176624   3.462   6.412   5.630 -0.1061 -0.4348 -0.7570
18403TIP3    H276625   3.382   6.534   5.589 -0.0793 -0.1909 -0.0855
18404TIP3   OH276626   0.581   5.720  13.018  0.2543  0.1065  0.1156
18404TIP3    H176627   0.529   5.769  13.082 -2.4737 -1.0045 -1.0727
18404TIP3    H276628   0.584   5.777  12.941  0.3905 -0.0164  0.0299
18405TIP3   OH276629   1.135   5.282  15.242 -0.0201  0.2852 -0.0722
18405TIP3    H176630   1.119   5.376  15.233 -0.6445  0.1123 -0.8019
18405TIP3    H276631   1.184   5.258  15.164  0.2435  0.0210  0.1697
18406TIP3   OH276632   0.572   2.116   5.271  0.0441  0.3169  0.0033
18406TIP3    H176633   0.523   2.186   5.227  0.7598  0.8823  0.0735
18406TIP3    H276634   0.650   2.160   5.305  0.8734 -0.6542 -0.5688
18407TIP3   OH276635   3.644   3.523  11.770  0.6336 -0.5857 -1.0256
18407TIP3    H176636   3.576   3.457  11.785  1.9511 -1.8448 -0.3890
18407TIP3    H276637   3.681   3.540  11.856  1.1303  0.0860 -1.3616
18408TIP3   OH276638   5.104   0.733   5.072  0.1893 -0.3415 -0.3571
18408TIP3    H176639   5.152   0.777   5.142  0.1220  0.3098 -0.7137
18408TIP3    H276640   5.013   0.729   5.104  0.8059 -3.7842  1.4215
18409TIP3   OH276641   0.504   2.594  14.419 -0.5826  0.4481 -0.3879
18409TIP3    H176642   0.436   2.534  14.387  0.0464  0.1566 -1.2056
18409TIP3    H276643   0.472   2.681  14.396 -0.1009  0.2462 -1.9761
18410TIP3   OH276644   4.442   0.886   1.534  0.6168 -0.2356  0.7229
18410TIP3    H176645   4.446   0.962   1.476  1.2861 -0.7631  0.0660
18410TIP3    H276646   4.527   0.844   1.525 -0.6714 -2.7222 -1.1768
18411TIP3   OH276647   1.932   5.995   4.344  0.1773 -0.2613 -0.3128
18411TIP3    H176648   1.984   5.969   4.421  0.0379  0.7153  0.1261
18411TIP3    H276649   1.937   6.091   4.343 -1.2012 -0.1750 -0.5622
18412TIP3   OH276650   3.899   2.146  11.818 -0.3403  0.6213 -0.5497
18412TIP3    H176651   3.874   2.157  11.727 -0.7951  1.7524 -0.3077
18412TIP3    H276652   3.872   2.228  11.861  0.6407  0.4710  0.4225
18413TIP3   OH276653   5.202   1.443  16.939  0.0948 -0.0003 -0.1998
18413TIP3    H176654   5.257   1.373  16.903  0.8930  0.6301 -0.2556
18413TIP3    H276655   5.219   1.518  16.882  3.2042  1.7610  2.6694
18414TIP3   OH276656   2.914   6.181  16.978  0.3003  0.0496 -0.0461
18414TIP3    H176657   2.992   6.230  17.004 -0.8901  1.6891  0.5881
18414TIP3    H276658   2.891   6.217  16.893  0.9988 -1.4081 -0.8776
18415TIP3   OH276659   1.594   4.767   1.894  0.2508  0.0230 -0.7796
18415TIP3    H176660   1.536   4.692   1.884  1.0252 -0.5207 -1.3262
18415TIP3    H276661   1.621   4.790   1.805  3.1387 -1.5909 -0.4531
18416TIP3   OH276662   4.589   0.264  13.397 -0.1621 -0.1579  0.7909
18416TIP3    H176663   4.595   0.274  13.492  1.0622  0.0582  0.7084
18416TIP3    H276664   4.576   0.171  13.382 -0.7049 -0.1457  1.1794
18417TIP3   OH276665   2.520   5.905   6.134 -0.1188  0.0084 -0.3938
18417TIP3    H176666   2.565   5.834   6.178  0.1183  0.2379 -0.2646
18417TIP3    H276667   2.584   5.976   6.130 -0.9051  0.8493  1.0865
18418TIP3   OH276668   0.084   5.507  16.454 -0.1023 -0.0867  0.1271
18418TIP3    H176669  -0.006   5.528  16.431  0.7781  1.8904 -1.9029
18418TIP3    H276670   0.095   5.543  16.542 -0.6124  2.1192 -0.6379
18419TIP3   OH276671   0.204   5.665   2.124 -0.2563 -0.1703  0.4284
18419TIP3    H176672   0.264   5.591   2.114  1.0959  0.8650  0.5116
18419TIP3    H276673   0.187   5.670   2.218  1.7109  1.1207  0.7746
18420TIP3   OH276674   3.947   1.817  11.290  0.3309 -0.1626 -0.3624
18420TIP3    H176675   3.956   1.781  11.202  0.0868 -0.1018 -0.4122
18420TIP3    H276676   3.911   1.905  11.277 -1.4182 -0.8017 -0.1183
18421TIP3   OH276677   3.665   6.295  15.045  0.3112 -0.0844  0.1475
18421TIP3    H176678   3.666   6.229  15.115 -0.0785 -1.6106 -1.2214
18421TIP3    H276679   3.572   6.319  15.038  0.0230 -1.3903 -1.0878
18422TIP3   OH276680   3.393   3.570   5.566  0.5046  0.6452  0.0350
18422TIP3    H176681   3.447   3.626   5.622 -2.4606  2.7264  1.0835
18422TIP3    H276682   3.317   3.625   5.543 -1.8893 -2.4510 -0.1496
18423TIP3   OH276683   5.402   4.789  16.700 -0.2798 -0.2421 -0.2205
18423TIP3    H176684   5.356   4.778  16.784  0.5022 -0.0941  0.2326
18423TIP3    H276685   5.394   4.882  16.681  1.6452  0.2087  0.9405
18424TIP3   OH276686   4.229   2.172   3.679 -0.1067  0.0457 -0.5164
18424TIP3    H176687   4.238   2.213   3.593  1.5887 -0.6220 -0.6945
18424TIP3    H276688   4.316   2.181   3.719 -0.1585 -1.8183  0.1194
18425TIP3   OH276689   1.389   4.995   4.983  0.6253 -0.1075  0.5464
18425TIP3    H176690   1.357   5.052   4.912  1.9361  1.3796  1.0940
18425TIP3    H276691   1.467   4.953   4.947 -0.1692 -1.3757  0.2503
18426TIP3   OH276692   4.893   6.120  14.069  0.1899  0.0819 -0.1565
18426TIP3    H176693   4.976   6.113  14.115 -0.7557  0.3407  1.6876
18426TIP3    H276694   4.867   6.211  14.079 -1.9885 -0.6967  2.5050
18427TIP3   OH276695   1.136   6.288   5.815  0.1748 -0.0760 -0.4667
18427TIP3    H176696   1.153   6.194   5.806 -1.4951 -0.2703 -2.2112
18427TIP3    H276697   1.047   6.293   5.850 -0.0354  0.8403 -1.1218
18428TIP3   OH276698   5.807   3.842  12.736 -0.2168  0.2366 -0.3760
18428TIP3    H176699   5.886   3.873  12.781 -0.2806  1.9199 -1.3383
18428TIP3    H276700   5.737   3.898  12.768 -0.4753  0.6744 -1.6517
18429TIP3   OH276701   2.948   0.948   2.365  0.4834 -0.3676  0.6136
18429TIP3    H176702   2.983   1.020   2.312 -2.6629  1.4078  0.6834
18429TIP3    H276703   2.904   0.891   2.303 -0.4061 -0.0564  0.9422
18430TIP3   OH276704   5.109   3.073   0.807  0.1899 -0.6567  0.1164
18430TIP3    H176705   5.038   3.137   0.802 -1.0679 -2.0586 -0.9667
18430TIP3    H276706   5.067   2.989   0.792  2.0786 -1.5686 -0.4124
18431TIP3   OH276707   5.904   4.661  14.066  0.2506  0.1655  0.0262
18431TIP3    H176708   5.941   4.668  14.154 -0.9509 -0.8135  0.6494
18431TIP3    H276709   5.959   4.717  14.012  0.9517  0.8749  1.4190
18432TIP3   OH276710   3.836   3.776  12.673  0.0241  0.0209  0.0728
18432TIP3    H176711   3.882   3.806  12.595  0.3575 -1.7109 -0.4428
18432TIP3    H276712   3.744   3.794  12.655  0.1730  0.3742 -0.3575
18433TIP3   OH276713   2.720   3.073   3.449 -0.1710  0.1827 -0.2021
18433TIP3    H176714   2.725   3.007   3.518 -0.9162 -0.2440 -0.5428
18433TIP3    H276715   2.708   3.023   3.368  0.8040  0.6683 -0.6639
18434TIP3   OH276716   3.879   2.641  13.086 -0.0195 -0.1381 -0.3970
18434TIP3    H176717   3.829   2.603  13.014  0.4392  2.3361 -2.1150
18434TIP3    H276718   3.832   2.721  13.108 -0.2158 -0.8747  2.2146
18435TIP3   OH276719   1.352   2.960  11.487  0.2232 -0.0990  0.2069
18435TIP3    H176720   1.265   2.944  11.524 -0.3042  1.7489 -0.1225
18435TIP3    H276721   1.339   2.954  11.392  0.5340 -0.1215  0.1638
18436TIP3   OH276722   5.730   4.241   0.361 -0.4965 -0.4773  0.7637
18436TIP3    H176723   5.754   4.179   0.429 -2.1439 -2.2244 -0.1230
18436TIP3    H276724   5.636   4.227   0.349  0.0003 -1.7048 -3.1452
18437TIP3   OH276725   1.379   0.303  12.978 -0.3765 -0.8200 -0.7432
18437TIP3    H176726   1.348   0.377  12.925  0.2092 -1.2023 -1.6505
18437TIP3    H276727   1.347   0.321  13.066  0.7838  1.1755 -0.6592
18438TIP3   OH276728   2.680   3.415  15.995 -0.7501  0.2585  0.2952
18438TIP3    H176729   2.757   3.440  16.046 -0.5712  0.2081  0.0548
18438TIP3    H276730   2.615   3.483  16.014 -0.5852  0.3971  0.3639
18439TIP3   OH276731   6.723   0.778   4.496  0.6573 -0.6089 -0.5887
18439TIP3    H176732   6.808   0.782   4.540  0.1838  1.4086  0.2668
18439TIP3    H276733   6.742   0.806   4.406  0.8958  0.0787 -0.3384
18440TIP3   OH276734   5.912   5.325  15.118 -0.0487  0.1289 -0.7460
18440TIP3    H176735   5.963   5.351  15.042  1.2065 -1.8756 -0.6419
18440TIP3    H276736   5.952   5.372  15.191 -1.2619  2.0663 -1.2215
18441TIP3   OH276737   5.244   4.933  14.292 -0.1585  0.0066 -0.3478
18441TIP3    H176738   5.291   4.912  14.373 -0.0713 -1.3937 -0.7332
18441TIP3    H276739   5.221   5.025  14.301 -0.3701 -0.1659  1.3914
18442TIP3   OH276740   4.844   1.403  12.111  0.0773 -0.2363  0.3545
18442TIP3    H176741   4.823   1.411  12.204 -1.3619  0.8743 -0.0278
18442TIP3    H276742   4.788   1.332  12.079  1.2528 -1.2567  0.5039
18443TIP3   OH276743   6.375   4.478  17.337 -0.0392 -0.2306  0.9133
18443TIP3    H176744   6.299   4.424  17.360  0.1201 -0.1917  1.5437
18443TIP3    H276745   6.439   4.460  17.406  0.0849  0.6238  1.0295
18444TIP3   OH276746   5.859   2.675  16.307  0.5171  0.1523  0.1958
18444TIP3    H176747   5.817   2.697  16.224  2.3806 -0.3952 -0.9640
18444TIP3    H276748   5.841   2.582  16.320  0.8482  0.0553 -0.0103
18445TIP3   OH276749   2.310   2.895  16.131  0.1891 -0.0392 -0.5334
18445TIP3    H176750   2.283   2.977  16.091 -1.4097 -0.1566  0.2450
18445TIP3    H276751   2.346   2.919  16.216 -2.2658 -0.2432  0.6448
18446TIP3   OH276752   3.409   6.346   3.315 -0.0300 -0.6070 -0.4201
18446TIP3    H176753   3.439   6.402   3.243 -0.5498  1.5450  0.9333
18446TIP3    H276754   3.477   6.356   3.382 -0.7848 -0.5420  0.3459
18447TIP3   OH276755   6.654   3.377   1.895  0.2014  0.1539 -0.9215
18447TIP3    H176756   6.648   3.331   1.979  1.2667 -1.1715 -1.5388
18447TIP3    H276757   6.652   3.308   1.829 -1.6437  1.2254 -2.0835
18448TIP3   OH276758   0.881   1.726  15.650 -0.0677 -0.1918 -0.0160
18448TIP3    H176759   0.808   1.756  15.704  1.3862  1.2057  1.2836
18448TIP3    H276760   0.947   1.696  15.712  1.1492  0.2375 -1.0564
18449TIP3   OH276761   4.084   2.158  11.592  0.1453  0.6202 -0.6589
18449TIP3    H176762   4.170   2.148  11.551  0.1240 -1.6682 -0.3238
18449TIP3    H276763   4.102   2.197  11.678  1.0777 -1.1249 -0.0097
18450TIP3   OH276764   4.532   0.635  12.633  0.1365  0.5697  0.1490
18450TIP3    H176765   4.562   0.565  12.690  0.9065  1.2195  0.5676
18450TIP3    H276766   4.441   0.650  12.660 -1.6542 -3.2339 -2.9366
18451TIP3   OH276767   4.247   6.493   2.932 -0.1337  0.1041  0.5278
18451TIP3    H176768   4.248   6.516   3.025  3.2687  0.3691  0.5316
18451TIP3    H276769   4.298   6.413   2.925 -1.0611 -0.4119 -1.0610
18452TIP3   OH276770   1.484   0.141  14.961  0.0368  0.2943 -0.1537
18452TIP3    H176771   1.510   0.066  14.908 -1.6106 -0.3176 -0.1761
18452TIP3    H276772   1.521   0.217  14.916  1.8730 -0.4897 -0.0399
18453TIP3   OH276773   5.288   5.422   3.671 -0.3043  0.1019  0.0192
18453TIP3    H176774   5.279   5.485   3.742  1.7652 -2.0669  2.3982
18453TIP3    H276775   5.377   5.387   3.680 -0.8297 -2.1015 -2.0930
18454TIP3   OH276776   3.004   5.429  16.424 -0.2092  0.2719 -0.3030
18454TIP3    H176777   2.969   5.342  16.405 -0.8082  0.4072  0.1643
18454TIP3    H276778   3.039   5.422  16.512 -1.7388  0.9338  0.3913
18455TIP3   OH276779   5.211   5.986  12.682  0.3192  0.3673 -0.1798
18455TIP3    H176780   5.268   5.911  12.664 -0.0888  0.3942 -1.7123
18455TIP3    H276781   5.136   5.973  12.624 -1.0766  0.5302  1.5135
18456TIP3   OH276782   1.557   5.197   1.424 -0.1166 -0.2150  0.4453
18456TIP3    H176783   1.621   5.233   1.485  1.3446 -1.1982 -0.4479
18456TIP3    H276784   1.478   5.185   1.477  0.7155  0.1378  1.8236
18457TIP3   OH276785   5.912   2.394   3.634  0.3551  0.2161 -0.2450
18457TIP3    H176786   5.905   2.300   3.645  0.3985  0.1784 -0.5432
18457TIP3    H276787   5.938   2.427   3.721 -0.1183  0.0042 -0.0204
18458TIP3   OH276788   5.491   6.421   0.907 -0.4602 -0.1082  0.5423
18458TIP3    H176789   5.418   6.362   0.890 -0.5686  0.3301 -0.6175
18458TIP3    H276790   5.494   6.428   1.002 -1.1776 -1.0603  0.6525
18459TIP3   OH276791   1.553   3.537  11.558  0.6477 -0.0683  0.4574
18459TIP3    H176792   1.640   3.555  11.521  0.6508  3.4077  1.7537
18459TIP3    H276793   1.517   3.624  11.578 -3.5514 -1.2681 -0.8054
18460TIP3   OH276794   2.496   3.336  14.412 -0.2929 -0.8817 -0.0073
18460TIP3    H176795   2.533   3.269  14.470 -0.6880 -0.1019  1.1767
18460TIP3    H276796   2.451   3.396  14.470  0.8180  0.9431 -0.9422
18461TIP3   OH276797   2.419   3.431  17.194 -0.2418  0.7587 -0.4365
18461TIP3    H176798   2.407   3.518  17.230  0.7782  0.7545 -0.0602
18461TIP3    H276799   2.421   3.444  17.099 -0.8742  1.0399 -0.4109
18462TIP3   OH276800   3.157   4.275  14.694  0.0356  0.0377 -0.0539
18462TIP3    H176801   3.230   4.253  14.752 -0.9329 -0.8082  0.8774
18462TIP3    H276802   3.145   4.197  14.639 -1.9564 -1.0343  1.7382
18463TIP3   OH276803   5.559   1.256  12.664  0.0118  0.4984 -0.2368
18463TIP3    H176804   5.643   1.253  12.619 -0.2726  2.0166 -0.9336
18463TIP3    H276805   5.577   1.298  12.748  0.2815 -1.0392  0.5191
18464TIP3   OH276806   2.955   3.090  15.666  0.3303 -0.0062 -0.3946
18464TIP3    H176807   2.860   3.084  15.655  0.1021  1.5669  0.4282
18464TIP3    H276808   2.991   3.043  15.591 -1.1044  0.7177 -1.5792
18465TIP3   OH276809   5.304   6.725   1.536 -0.1634  0.5714  0.0354
18465TIP3    H176810   5.340   6.805   1.497 -1.4137  2.7287  2.9141
18465TIP3    H276811   5.209   6.734   1.525 -0.2952 -1.3899 -0.9784
18466TIP3   OH276812   5.763   0.821   0.065  0.4120 -0.4317  0.2901
18466TIP3    H176813   5.789   0.732   0.043 -0.0337  0.0728 -2.6674
18466TIP3    H276814   5.690   0.841   0.006  0.5761  1.9333  0.7609
18467TIP3   OH276815   2.045   1.208  14.288  0.1273 -0.2664  0.2476
18467TIP3    H176816   2.042   1.275  14.356  1.3922 -0.0570  0.1202
18467TIP3    H276817   2.114   1.236  14.229  0.5143 -1.5462  0.0551
18468TIP3   OH276818   6.566   4.715   1.954  0.5850  0.2355  0.0721
18468TIP3    H176819   6.473   4.715   1.932  0.0355  1.5423  2.0621
18468TIP3    H276820   6.597   4.801   1.926  0.8039  0.3958  0.7863
18469TIP3   OH276821   5.489   1.753   0.732  0.4080  0.0667  0.3035
18469TIP3    H176822   5.466   1.717   0.818  0.5197 -1.3115 -0.2065
18469TIP3    H276823   5.515   1.843   0.749 -1.2919  0.3902  1.4740
18470TIP3   OH276824   5.607   0.053   1.711  0.7908  0.9875 -0.1351
18470TIP3    H176825   5.513   0.072   1.711  0.5626 -0.1134 -0.0088
18470TIP3    H276826   5.632   0.059   1.803  0.0250 -2.4608  0.4390
18471TIP3   OH276827   5.519   0.031   0.980  0.1142  0.6235 -0.1187
18471TIP3    H176828   5.434   0.016   0.939 -0.2911  1.0726  0.5436
18471TIP3    H276829   5.567  -0.051   0.965 -2.0885 -1.6679  3.5954
18472TIP3   OH276830   5.935   0.069  13.098  0.5860  0.0330 -0.5319
18472TIP3    H176831   5.908  -0.021  13.118 -0.3331  0.5787  0.8245
18472TIP3    H276832   5.969   0.064  13.009 -3.2578 -0.9095 -2.1726
18473TIP3   OH276833   6.184   3.019   0.264 -0.0233  0.1907  0.1860
18473TIP3    H176834   6.246   3.091   0.277  0.7563 -0.7489  2.1793
18473TIP3    H276835   6.123   3.026   0.338 -0.8632 -0.2915 -0.4466
18474TIP3   OH276836   0.525   1.831  15.523 -0.2707  0.1343  0.9014
18474TIP3    H176837   0.548   1.827  15.615 -0.8262  0.6194  1.0619
18474TIP3    H276838   0.458   1.899  15.517  0.9205  1.2668 -0.1077
18475TIP3   OH276839   4.130   5.182  16.396 -0.0838  0.1240 -0.2455
18475TIP3    H176840   4.197   5.154  16.459 -1.5093  0.4106  1.4822
18475TIP3    H276841   4.084   5.101  16.374  1.4879 -0.2884 -2.3773
18476TIP3   OH276842   5.248   1.453   6.933 -0.1335 -0.1949 -0.1509
18476TIP3    H176843   5.328   1.459   6.881 -0.0671 -0.4212 -0.0768
18476TIP3    H276844   5.228   1.543   6.957 -0.3002 -0.0637 -0.7772
18477TIP3   OH276845   4.904   6.265   1.258 -0.0204  0.3478 -0.2227
18477TIP3    H176846   4.934   6.291   1.170  4.0888  1.1631  1.1808
18477TIP3    H276847   4.910   6.345   1.309  0.9561 -0.7598  1.4890
18478TIP3   OH276848   3.382   1.520  16.796 -0.3628 -0.2489  0.4316
18478TIP3    H176849   3.414   1.430  16.790  0.6270  0.1421 -0.2615
18478TIP3    H276850   3.286   1.512  16.792 -0.3490 -1.3576  1.6065
18479TIP3   OH276851   5.122   4.195   2.971  0.1696 -0.3468 -0.0272
18479TIP3    H176852   5.051   4.132   2.987 -0.7130  0.3000 -1.2351
18479TIP3    H276853   5.174   4.154   2.902  1.2131 -0.9856  1.1089
18480TIP3   OH276854   0.974   5.204   1.564  0.1415 -0.0551  0.2452
18480TIP3    H176855   0.986   5.172   1.654  0.2295  0.8872  0.5794
18480TIP3    H276856   0.902   5.267   1.571  0.4073  0.3075 -0.2781
18481TIP3   OH276857   2.884   6.284  15.844 -0.1692 -0.7694  0.4025
18481TIP3    H176858   2.809   6.225  15.854 -1.1895 -0.0298 -2.0405
18481TIP3    H276859   2.913   6.270  15.753  0.6882  1.1955  0.3178
18482TIP3   OH276860   0.494   1.482  10.954 -0.4128 -0.2428  0.1793
18482TIP3    H176861   0.430   1.552  10.966  0.6296  0.4818  1.8608
18482TIP3    H276862   0.444   1.401  10.967 -0.7405  0.3395  3.2553
18483TIP3   OH276863   5.321   3.579  13.400  0.0477  0.0546 -0.6030
18483TIP3    H176864   5.377   3.530  13.338  0.5052  0.3326 -0.4125
18483TIP3    H276865   5.355   3.555  13.486  0.0802  0.4779 -0.4990
18484TIP3   OH276866   0.270   2.089   4.595 -0.3896  0.1508 -0.1675
18484TIP3    H176867   0.319   2.170   4.589 -0.5102  0.4306  1.8340
18484TIP3    H276868   0.211   2.090   4.519 -0.8496  2.2632  0.1638
18485TIP3   OH276869   2.411   3.041  15.271 -0.0277  0.0150 -0.0123
18485TIP3    H176870   2.457   2.987  15.206 -0.7757 -1.3668  0.5611
18485TIP3    H276871   2.465   3.033  15.350 -0.5315 -0.5294  0.2852
18486TIP3   OH276872   3.825   1.883  15.145  0.5411 -0.2455 -0.1594
18486TIP3    H176873   3.920   1.885  15.138  0.8191  1.5019  2.5873
18486TIP3    H276874   3.808   1.858  15.236 -1.4240  3.3598  0.6695
18487TIP3   OH276875   1.294   4.311  14.650 -0.0637 -0.3859 -0.5555
18487TIP3    H176876   1.235   4.341  14.580 -3.8056 -0.8870  2.0985
18487TIP3    H276877   1.290   4.216  14.646  0.2813 -0.4193 -0.1404
18488TIP3   OH276878   5.911   1.206   1.137 -0.1322  0.6437 -0.2680
18488TIP3    H176879   5.905   1.301   1.125  0.7973  0.5161 -2.0410
18488TIP3    H276880   5.844   1.171   1.077  2.7354  0.0769 -3.4523
18489TIP3   OH276881   4.862   2.019   2.114 -0.2440  0.0454 -0.1978
18489TIP3    H176882   4.915   1.974   2.180 -0.4326  1.3321  0.8675
18489TIP3    H276883   4.795   1.954   2.090  0.8473 -1.0393 -0.4043
18490TIP3   OH276884   5.981   2.251   3.196  0.4373  0.1558 -0.1817
18490TIP3    H176885   6.044   2.302   3.247  0.3158 -0.6097  0.7743
18490TIP3    H276886   5.912   2.228   3.259 -0.1271 -0.1319 -0.8893
18491TIP3   OH276887   5.442   1.068  12.140 -0.2236  0.7432 -0.2351
18491TIP3    H176888   5.397   0.988  12.113  2.1285 -1.1627  1.0944
18491TIP3    H276889   5.483   1.101  12.061  0.9630 -0.9021 -0.3423
18492TIP3   OH276890   0.590   1.820   3.338  0.1146 -0.4832 -0.2133
18492TIP3    H176891   0.527   1.878   3.295  0.5628  0.1398 -0.0513
18492TIP3    H276892   0.549   1.734   3.336 -1.0658  0.0386  0.5505
18493TIP3   OH276893   2.867   2.389   3.937 -0.4252 -0.0748  0.3393
18493TIP3    H176894   2.841   2.297   3.940 -2.4415  0.4194 -0.0459
18493TIP3    H276895   2.809   2.432   4.001 -0.2931  1.0777 -0.2851
18494TIP3   OH276896   3.676   4.282  12.001 -0.1613  0.1486 -0.1061
18494TIP3    H176897   3.686   4.324  12.087  0.6064  2.1714 -1.1030
18494TIP3    H276898   3.757   4.306  11.954 -0.5247 -0.9954 -1.3579
18495TIP3   OH276899   3.984   1.110   5.070 -0.7084  0.0205 -0.4141
18495TIP3    H176900   3.953   1.091   5.158 -0.8276  0.3946 -0.3748
18495TIP3    H276901   3.924   1.062   5.012 -0.4411 -0.4805 -0.2853
18496TIP3   OH276902   0.821   2.721   4.720  0.8925  0.0300 -0.9889
18496TIP3    H176903   0.830   2.636   4.677 -0.2347  0.0681 -1.3397
18496TIP3    H276904   0.808   2.783   4.648 -1.0336  0.0891 -0.6536
18497TIP3   OH276905   3.298   5.532   4.303 -0.0043  0.5443  0.5906
18497TIP3    H176906   3.387   5.508   4.326 -0.3421 -0.1186  1.2610
18497TIP3    H276907   3.244   5.494   4.373 -1.1906 -2.4931 -1.7548
18498TIP3   OH276908   1.271   6.741   5.291 -0.0259 -0.1551  0.2133
18498TIP3    H176909   1.184   6.721   5.256  1.4293 -2.0602 -2.6893
18498TIP3    H276910   1.274   6.696   5.376 -2.5096  1.7967  1.4895
18499TIP3   OH276911   4.048   6.568  11.355 -0.3690  0.5554  0.3070
18499TIP3    H176912   4.081   6.605  11.272 -0.7339 -1.7132 -0.9330
18499TIP3    H276913   4.127   6.549  11.405  0.1059 -1.3900 -1.0813
18500TIP3   OH276914   3.447   4.591  15.226 -0.3640  0.2402 -0.1854
18500TIP3    H176915   3.396   4.661  15.268  1.3728 -0.6730  3.8698
18500TIP3    H276916   3.519   4.637  15.182 -1.0264  1.1481 -0.3528
18501TIP3   OH276917   3.702   0.398   3.841  0.1841 -0.0226  0.0340
18501TIP3    H176918   3.630   0.461   3.838  0.4876  0.2655 -1.5523
18501TIP3    H276919   3.746   0.406   3.757  2.6189  0.3947  1.2540
18502TIP3   OH276920   3.715   1.238  11.506 -0.2074  0.2644  0.5930
18502TIP3    H176921   3.662   1.316  11.521 -3.0671 -1.1101 -1.3280
18502TIP3    H276922   3.793   1.269  11.462 -1.9003  1.9873 -1.4082
18503TIP3   OH276923   1.611   6.692  12.670 -0.2027 -0.3684  0.3630
18503TIP3    H176924   1.539   6.710  12.609  0.0515  0.3140  0.2516
18503TIP3    H276925   1.632   6.600  12.656 -1.9541 -0.9680  1.3781
18504TIP3   OH276926   3.743   1.375   2.541  0.1291 -0.0874 -0.5221
18504TIP3    H176927   3.754   1.453   2.486  0.4104  0.6679  0.5718
18504TIP3    H276928   3.804   1.388   2.614 -0.7517 -0.7104  0.3535
18505TIP3   OH276929   2.806   6.257  14.832 -0.2499 -0.0339  0.5786
18505TIP3    H176930   2.861   6.314  14.887 -0.0085 -1.2936  1.7129
18505TIP3    H276931   2.779   6.186  14.891 -1.9792 -0.1770 -0.3280
18506TIP3   OH276932   3.614   1.273  15.879 -0.1910  0.0835 -0.2394
18506TIP3    H176933   3.668   1.212  15.929 -1.1452  0.2031  0.9686
18506TIP3    H276934   3.579   1.220  15.807 -1.5184 -1.0189  1.1367
18507TIP3   OH276935   2.981   4.387  15.078  0.2112 -0.6895  0.7904
18507TIP3    H176936   2.905   4.335  15.106 -0.5615 -0.4888 -0.8341
18507TIP3    H276937   3.057   4.331  15.099 -0.3553 -0.9033  2.4044
18508TIP3   OH276938   5.917   3.700   3.336  0.2273 -0.3711 -0.2293
18508TIP3    H176939   5.877   3.761   3.274 -1.0043 -0.1489  0.7446
18508TIP3    H276940   5.971   3.755   3.393 -2.4117  0.2435  1.9137
18509TIP3   OH276941   4.938   3.975  14.079 -0.0544 -0.8324  0.3209
18509TIP3    H176942   4.861   3.930  14.113 -0.1576  0.9717  2.7174
18509TIP3    H276943   4.905   4.061  14.052  0.3833 -1.5216 -2.8449
18510TIP3   OH276944   5.439   4.318   2.059  0.0249 -0.3464  0.3110
18510TIP3    H176945   5.535   4.318   2.058  0.0447 -0.4523  1.3469
18510TIP3    H276946   5.414   4.259   1.988  0.7061  0.7002 -0.8292
18511TIP3   OH276947   5.734   5.588  14.977  0.5337  0.2536 -0.3702
18511TIP3    H176948   5.661   5.602  15.037 -0.3952  0.0368 -1.4358
18511TIP3    H276949   5.700   5.610  14.891  1.1483 -1.6448 -1.1556
18512TIP3   OH276950   0.807   0.088  12.463 -0.0110  0.1830 -0.0409
18512TIP3    H176951   0.770   0.159  12.409  1.9476 -0.7166 -2.7797
18512TIP3    H276952   0.796   0.118  12.553 -1.0165  3.0640 -1.0187
18513TIP3   OH276953   1.635   3.749   5.506 -0.2639  0.5673  0.5290
18513TIP3    H176954   1.723   3.783   5.488  0.1391 -0.6531  0.0731
18513TIP3    H276955   1.580   3.827   5.512  0.4830  1.2716 -1.1777
18514TIP3   OH276956   3.240   6.329  17.255 -0.2871  0.2331  0.3091
18514TIP3    H176957   3.272   6.419  17.262  1.1939 -0.2840  0.6897
18514TIP3    H276958   3.146   6.337  17.242 -0.4642  1.8184  2.1281
18515TIP3   OH276959   4.237   5.843   1.418 -0.3911  0.3908  0.8008
18515TIP3    H176960   4.174   5.895   1.367 -1.4623  0.3342  2.0079
18515TIP3    H276961   4.190   5.763   1.440  0.9728 -0.7789 -0.3416
18516TIP3   OH276962   5.849   3.052  14.081  0.5225  0.4229  0.2993
18516TIP3    H176963   5.933   3.008  14.092  0.4051  0.3614  0.9933
18516TIP3    H276964   5.863   3.140  14.118 -0.0543  0.0150  1.5426
18517TIP3   OH276965   0.454   3.833   1.482 -1.0455 -0.0015  0.4469
18517TIP3    H176966   0.486   3.746   1.505  2.2113  0.9345 -0.0913
18517TIP3    H276967   0.453   3.835   1.387  0.5575  1.0126  0.4080
18518TIP3   OH276968   0.896   2.457   0.914 -0.2979 -0.1731 -0.1777
18518TIP3    H176969   0.911   2.455   1.008 -0.4644  1.2837 -0.0898
18518TIP3    H276970   0.970   2.409   0.877  0.5290  0.4379  0.6363
18519TIP3   OH276971   6.079   4.478  15.065  0.1169 -0.3916 -0.0028
18519TIP3    H176972   6.124   4.397  15.045  1.1223  0.2509 -0.4232
18519TIP3    H276973   6.130   4.546  15.022 -0.5816  0.4955  0.5058
18520TIP3   OH276974   5.046   5.226   3.793 -0.3787 -0.1132  0.4485
18520TIP3    H176975   5.108   5.198   3.861  0.2276  0.6449  0.2194
18520TIP3    H276976   5.099   5.276   3.731 -1.1431  0.1925  0.0270
18521TIP3   OH276977   0.629   0.736   2.906  0.5780  0.2062  0.3014
18521TIP3    H176978   0.573   0.700   2.837 -0.1479 -0.5506  1.2418
18521TIP3    H276979   0.666   0.659   2.949  3.3287  0.6915 -1.0267
18522TIP3   OH276980   0.009   6.372  13.713 -0.4983  0.4857 -0.5490
18522TIP3    H176981  -0.042   6.452  13.727 -0.4319  0.5176 -0.4901
18522TIP3    H276982   0.098   6.395  13.738 -0.2855  0.6759 -1.4337
18523TIP3   OH276983   5.023   4.232  14.382 -0.5583 -0.2113  0.3367
18523TIP3    H176984   5.044   4.233  14.288 -0.9315 -0.2562  0.2481
18523TIP3    H276985   4.982   4.146  14.396  1.3036 -1.0589  0.9651
18524TIP3   OH276986   4.640   4.677   3.757  0.0507 -0.3641 -0.3643
18524TIP3    H176987   4.546   4.663   3.748 -0.2979 -0.0684  2.1466
18524TIP3    H276988   4.647   4.755   3.811  1.6998 -1.2973  0.8451
18525TIP3   OH276989   4.194   1.246  10.618  0.2938  0.0614 -0.3388
18525TIP3    H176990   4.228   1.303  10.686  0.4533 -1.0238  0.5258
18525TIP3    H276991   4.231   1.281  10.536  0.4472  1.1193  0.1699
18526TIP3   OH276992   6.070   0.938   1.489  0.5942  0.1439 -0.0213
18526TIP3    H176993   6.148   0.911   1.440  1.0942  0.6256  0.4923
18526TIP3    H276994   6.101   0.949   1.579 -0.3904 -1.0616  0.4974
18527TIP3   OH276995   5.384   5.302   4.087  0.5484  0.3930 -0.0152
18527TIP3    H176996   5.332   5.238   4.039 -0.5954  0.7901  0.6701
18527TIP3    H276997   5.358   5.292   4.178  0.1866  1.9706  0.0850
18528TIP3   OH276998   3.053   6.671  16.771 -0.6159 -0.6192 -0.0618
18528TIP3    H176999   3.133   6.683  16.720  0.1726  0.1760  1.2857
18528TIP3    H277000   3.044   6.577  16.781  1.0356 -0.7110  1.0358
18529TIP3   OH277001   5.155   5.722   0.037 -0.0075 -0.0403  0.0824
18529TIP3    H177002   5.149   5.676  -0.047 -0.6536 -0.3741  0.2992
18529TIP3    H277003   5.096   5.674   0.095  0.4122  0.2044  0.7225
18530TIP3   OH277004   0.835   1.565   3.571 -0.1633  0.8573  0.4832
18530TIP3    H177005   0.844   1.651   3.530  0.3422  0.5090 -0.1598
18530TIP3    H277006   0.754   1.529   3.534  1.3048 -0.2958 -1.8814
18531TIP3   OH277007   5.155   6.718  11.448  0.2659 -0.4300 -0.3904
18531TIP3    H177008   5.188   6.634  11.416  1.6400 -0.6509  1.4235
18531TIP3    H277009   5.199   6.783  11.393  1.0178 -0.8353 -0.2781
18532TIP3   OH277010   0.500   5.595   2.976 -0.3944  0.3314 -0.1044
18532TIP3    H177011   0.577   5.539   2.974  0.4775  1.4940 -0.0763
18532TIP3    H277012   0.438   5.549   3.033  0.5808 -0.2349  0.5268
18533TIP3   OH277013   0.899   2.029  13.179  0.0776  0.5191 -0.1797
18533TIP3    H177014   0.863   1.984  13.103  1.4984 -1.1845  0.0779
18533TIP3    H277015   0.863   1.982  13.255  1.5805 -0.2761  0.0918
18534TIP3   OH277016   6.492   0.057  15.003  0.2423 -0.3102 -0.0374
18534TIP3    H177017   6.406   0.018  15.016 -0.1546  0.6525  0.3395
18534TIP3    H277018   6.516   0.093  15.089  0.4144  0.5944 -0.4531
18535TIP3   OH277019   0.954   3.734   0.670  0.2419  0.7575  0.2047
18535TIP3    H177020   1.021   3.800   0.687  2.1061 -0.2689 -2.4909
18535TIP3    H277021   0.896   3.775   0.606 -1.4115  1.3777  2.0007
18536TIP3   OH277022   2.176   6.543  11.067  0.5746 -0.4604 -0.5910
18536TIP3    H177023   2.241   6.556  10.998  0.2298 -1.5937 -1.1451
18536TIP3    H277024   2.192   6.454  11.099 -0.6436 -0.7299 -0.6778
18537TIP3   OH277025   1.002   6.682  17.041 -0.2972 -0.9018  0.1755
18537TIP3    H177026   0.990   6.639  16.956  0.2616 -1.3623  0.3206
18537TIP3    H277027   1.053   6.761  17.020 -0.5546 -0.7771  0.0215
18538TIP3   OH277028   3.480   0.918   6.784  0.3670 -0.1020  0.1470
18538TIP3    H177029   3.476   1.008   6.817 -0.0653  1.1972 -3.0421
18538TIP3    H277030   3.389   0.895   6.767  0.3901 -1.5678  1.7562
18539TIP3   OH277031   0.183   6.421   0.166 -0.5613 -0.3394  0.3077
18539TIP3    H177032   0.160   6.484   0.234  0.6963  2.0915 -1.3579
18539TIP3    H277033   0.100   6.400   0.124 -0.8516  1.9288 -0.4135
18540TIP3   OH277034   3.549   1.896   0.005 -0.3866  0.0679  0.2390
18540TIP3    H177035   3.532   1.803   0.021  0.8344 -0.0408  1.0293
18540TIP3    H277036   3.634   1.898  -0.038  0.4971  0.8898  1.9128
18541TIP3   OH277037   0.739   5.597   5.494  0.2479  0.4018 -0.2939
18541TIP3    H177038   0.770   5.506   5.496 -1.3798 -0.1782  2.1097
18541TIP3    H277039   0.810   5.645   5.451  1.2198 -1.9416 -1.5225
18542TIP3   OH277040   0.603   1.991  12.091 -0.0694 -0.1973  0.4309
18542TIP3    H177041   0.517   2.032  12.078  0.2715  0.1470 -0.8084
18542TIP3    H277042   0.666   2.060  12.068  0.5232 -1.0308 -0.5315
18543TIP3   OH277043   3.860   2.114   5.469  0.1489  0.2327  0.3879
18543TIP3    H177044   3.892   2.026   5.451  0.9291  0.8353 -1.3857
18543TIP3    H277045   3.931   2.156   5.518  0.3812  0.3248 -0.0282
18544TIP3   OH277046   0.819   6.151  12.971 -0.3010  0.1669 -0.3073
18544TIP3    H177047   0.749   6.171  13.033 -0.4574  0.1347 -0.4714
18544TIP3    H277048   0.775   6.105  12.899 -0.1551  0.3710 -0.5294
18545TIP3   OH277049   2.795   5.790  14.002  0.3412 -0.7146 -0.1896
18545TIP3    H177050   2.834   5.710  14.035 -0.1010 -1.3337 -1.1339
18545TIP3    H277051   2.701   5.780  14.019  0.2669 -0.4589 -0.4352
18546TIP3   OH277052   3.053   4.226   0.364 -0.4773 -0.1283 -0.1416
18546TIP3    H177053   3.041   4.207   0.271 -0.6086  1.7618 -0.5618
18546TIP3    H277054   3.104   4.307   0.366 -0.0221 -0.4058  1.4565
18547TIP3   OH277055   2.386   0.671   3.378 -0.1518  0.0747  0.1487
18547TIP3    H177056   2.303   0.715   3.398 -0.0904  0.0994  0.3494
18547TIP3    H277057   2.448   0.742   3.362 -0.2024  0.0549 -0.1383
18548TIP3   OH277058   1.666   4.635  11.784 -0.0471  0.5439 -0.6541
18548TIP3    H177059   1.745   4.628  11.836  0.0083 -0.8394 -0.8750
18548TIP3    H277060   1.595   4.638  11.848 -0.0932 -2.6437 -0.3885
18549TIP3   OH277061   2.560   5.247  14.131  0.1106 -0.0814 -0.3793
18549TIP3    H177062   2.597   5.207  14.052  0.7219  1.6896 -1.0375
18549TIP3    H277063   2.513   5.176  14.174  1.8192 -1.6870 -1.0562
18550TIP3   OH277064   4.344   6.217   2.789  0.2113 -0.1023  0.4943
18550TIP3    H177065   4.428   6.255   2.763  0.5584 -1.1713 -0.0104
18550TIP3    H277066   4.278   6.270   2.743  0.7690 -1.4446 -2.0731
18551TIP3   OH277067   1.254   1.713  15.462  0.4768  0.3909 -0.2494
18551TIP3    H177068   1.335   1.760  15.444 -0.1164  1.8661  0.7196
18551TIP3    H277069   1.276   1.621  15.451  2.2672  0.7632 -0.0065
18552TIP3   OH277070   3.677   3.056  13.868 -0.0802 -0.3244 -0.0114
18552TIP3    H177071   3.709   3.119  13.934  1.5347 -0.8256 -0.2730
18552TIP3    H277072   3.708   2.971  13.900 -1.6215 -0.9234 -0.0434
18553TIP3   OH277073   1.081   1.758  17.100  0.3828  0.1041 -0.1722
18553TIP3    H177074   1.170   1.743  17.070  0.9679 -1.4338  2.0627
18553TIP3    H277075   1.084   1.842  17.144  0.6275  0.2223 -0.4117
18554TIP3   OH277076   4.163   5.089  17.011 -0.2013 -0.4460  0.1354
18554TIP3    H177077   4.089   5.030  17.028 -1.7924  1.2660 -0.4725
18554TIP3    H277078   4.237   5.031  16.998 -1.2576 -2.2231  1.5630
18555TIP3   OH277079   2.246   5.617  10.577  0.2098  0.3948 -0.1867
18555TIP3    H177080   2.306   5.646  10.645  0.4019 -0.5571  0.0537
18555TIP3    H277081   2.159   5.627  10.616  0.1316  2.4129 -0.7697
18556TIP3   OH277082   4.969   5.684   6.408  0.7281  0.1446 -0.5269
18556TIP3    H177083   4.885   5.724   6.385 -0.6671 -1.4517  1.4333
18556TIP3    H277084   5.007   5.743   6.472 -0.2401 -0.4498  0.6367
18557TIP3   OH277085   1.075   1.902  14.130 -0.0338  0.4155  0.0313
18557TIP3    H177086   1.128   1.959  14.187  0.5394  0.4507 -0.5299
18557TIP3    H277087   1.130   1.887  14.053 -1.3241  1.5097 -1.1596
18558TIP3   OH277088   1.525   3.245  15.290  0.5120  0.0813 -0.4515
18558TIP3    H177089   1.494   3.329  15.325  0.5248  0.1811 -0.6844
18558TIP3    H277090   1.503   3.182  15.359 -0.9286  0.0191 -0.9296
18559TIP3   OH277091   1.322   2.974  11.214 -0.5547 -0.6881  0.4824
18559TIP3    H177092   1.259   2.949  11.147  1.4915 -3.2435 -0.6609
18559TIP3    H277093   1.386   3.028  11.167 -1.1934  0.9514  1.3896
18560TIP3   OH277094   1.448   4.773   2.213 -0.2832  0.3449  0.0621
18560TIP3    H177095   1.428   4.805   2.125  4.4058  1.1859 -0.9973
18560TIP3    H277096   1.410   4.839   2.271 -3.1517 -0.0286 -1.1919
18561TIP3   OH277097   3.154   5.805  15.630 -0.2634 -0.0547 -0.5542
18561TIP3    H177098   3.100   5.863  15.683 -0.9515  1.1779 -2.4790
18561TIP3    H277099   3.168   5.728  15.685 -2.2232  0.4793  0.8072
18562TIP3   OH277100   4.986   1.767   0.305  0.4411 -0.0738 -0.3407
18562TIP3    H177101   4.996   1.862   0.308  0.0176 -0.0105 -0.8637
18562TIP3    H277102   5.033   1.736   0.383  0.2090  0.5938  0.0731
18563TIP3   OH277103   4.065   6.117  16.714 -0.2182  0.4242 -0.3458
18563TIP3    H177104   4.125   6.109  16.789 -0.4063  2.3427  0.0661
18563TIP3    H277105   3.995   6.174  16.746 -1.1912 -0.1042 -1.4818
18564TIP3   OH277106   3.001   0.926  13.859  0.1268  0.3270  0.0768
18564TIP3    H177107   2.949   1.006  13.848  0.4159  0.3255 -1.6745
18564TIP3    H277108   3.082   0.943  13.810  1.4120 -0.0143  1.9907
18565TIP3   OH277109   2.468   3.633  12.989 -0.6669 -0.2840 -0.2391
18565TIP3    H177110   2.407   3.707  12.990  0.6189  0.8880 -2.1584
18565TIP3    H277111   2.427   3.569  12.931 -1.2596 -0.6502  0.5556
18566TIP3   OH277112   2.584   6.626  11.057  0.3806  0.4768 -0.0083
18566TIP3    H177113   2.563   6.665  10.972 -0.6870 -0.7801 -0.3572
18566TIP3    H277114   2.623   6.541  11.036  0.1143  0.1588  0.7484
18567TIP3   OH277115   1.909   2.121   5.685  0.2137 -0.0683  0.2870
18567TIP3    H177116   1.833   2.076   5.723 -0.9672  0.1295 -1.6424
18567TIP3    H277117   1.946   2.057   5.624  0.1935  0.5941 -0.4464
18568TIP3   OH277118   2.827   3.184  14.687 -0.4973 -0.0449 -0.0506
18568TIP3    H177119   2.813   3.198  14.594 -1.0827 -1.0282 -0.1316
18568TIP3    H277120   2.917   3.154  14.694 -0.4230  0.1259 -0.2892
18569TIP3   OH277121   4.204   5.783  11.389 -0.2752 -0.2705 -0.1773
18569TIP3    H177122   4.219   5.721  11.460  0.1469  0.6418  0.5646
18569TIP3    H277123   4.261   5.857  11.410 -2.3989  1.3575  0.2463
18570TIP3   OH277124   0.657   1.067  11.973 -0.4806  0.2465  0.3761
18570TIP3    H177125   0.571   1.090  11.938 -0.6191  1.3372  1.3511
18570TIP3    H277126   0.708   1.149  11.968  1.7077 -1.0842 -3.3344
18571TIP3   OH277127   5.095   1.024  12.321 -0.2329  0.9697  0.0941
18571TIP3    H177128   5.169   1.080  12.296  1.5415 -0.3049  2.1265
18571TIP3    H277129   5.130   0.968  12.391 -3.3911  0.9492  1.8552
18572TIP3   OH277130   2.638   4.706   5.060  0.0030 -0.2019 -0.0096
18572TIP3    H177131   2.642   4.611   5.048  1.3051 -0.1710  0.0749
18572TIP3    H277132   2.723   4.730   5.097 -0.3875  0.9740  0.1883
18573TIP3   OH277133   5.656   1.319   1.745 -0.2104 -0.3297  0.0888
18573TIP3    H177134   5.675   1.295   1.655 -0.7012  2.2864 -0.7720
18573TIP3    H277135   5.577   1.373   1.740 -0.7267 -0.7889  2.1945
18574TIP3   OH277136   6.499   4.518  15.260  0.8742  0.0539  0.1341
18574TIP3    H177137   6.529   4.578  15.192  0.2422 -0.9058 -1.0201
18574TIP3    H277138   6.495   4.433  15.217 -0.7648 -0.3597  1.0237
18575TIP3   OH277139   1.008   3.151  14.985 -0.0104  0.0273 -0.1506
18575TIP3    H177140   1.082   3.211  14.984 -0.2040  0.3215  1.1935
18575TIP3    H277141   0.940   3.196  14.936  0.4299  0.1071 -0.7014
18576TIP3   OH277142   2.944   5.046   2.159 -1.0380 -0.3351  0.3591
18576TIP3    H177143   2.969   5.049   2.251 -0.7956 -0.5244  0.3020
18576TIP3    H277144   2.876   4.979   2.154 -1.2414 -0.1358  0.4430
18577TIP3   OH277145   4.646   5.530  11.616  0.6313 -0.1016  0.0073
18577TIP3    H177146   4.563   5.574  11.636 -0.2813 -0.9615 -1.6943
18577TIP3    H277147   4.713   5.593  11.643 -0.5397  0.6176  1.4177
18578TIP3   OH277148   5.593   2.170  13.565  0.1486  0.5086 -0.1759
18578TIP3    H177149   5.663   2.168  13.499  1.6174  0.2281  1.3203
18578TIP3    H277150   5.557   2.081  13.564  0.0220  0.5609 -0.7257
18579TIP3   OH277151   6.203   1.028  11.768  0.2191  0.3505  0.2394
18579TIP3    H177152   6.219   1.073  11.685  2.6031  0.8703  0.9066
18579TIP3    H277153   6.184   0.937  11.744 -3.1993  1.2497 -1.0393
18580TIP3   OH277154   3.881   4.161  16.544  0.1335 -0.2612 -0.3177
18580TIP3    H177155   3.868   4.149  16.450 -1.0153 -0.2905 -0.1739
18580TIP3    H277156   3.932   4.085  16.572 -0.8871 -1.0819 -0.6478
18581TIP3   OH277157   3.331   2.568   0.981 -0.1546  0.0340 -0.7606
18581TIP3    H177158   3.339   2.477   1.010  1.1993  0.6608  0.9904
18581TIP3    H277159   3.361   2.566   0.890 -1.4504 -1.4723 -1.1956
18582TIP3   OH277160   0.774   3.938   5.343 -0.0540 -0.1224  0.3363
18582TIP3    H177161   0.849   3.979   5.299 -1.1029 -1.3734 -2.9025
18582TIP3    H277162   0.808   3.855   5.376  0.3404 -0.0032  0.2333
18583TIP3   OH277163   0.185   1.623  17.034 -0.0082 -0.0248 -0.2888
18583TIP3    H177164   0.089   1.630  17.030 -0.0159  0.1887  0.2361
18583TIP3    H277165   0.201   1.535  17.069 -0.0255  0.1260  0.1091
18584TIP3   OH277166   1.447   2.968   5.108 -0.6604 -0.0800  0.3166
18584TIP3    H177167   1.457   3.053   5.067  0.9421  0.2055  1.2279
18584TIP3    H277168   1.535   2.944   5.137 -0.9061 -2.4008 -0.5932
18585TIP3   OH277169   0.936   3.767  16.116  0.0937 -0.1596  0.0973
18585TIP3    H177170   0.955   3.729  16.030 -0.4100 -1.6694  0.6331
18585TIP3    H277171   0.914   3.859  16.097  0.8639 -0.2314 -1.2779
18586TIP3   OH277172   4.961   3.813   2.036  0.2612 -0.8818  0.5057
18586TIP3    H177173   4.915   3.801   1.953 -0.5976  0.1905  0.8097
18586TIP3    H277174   5.044   3.853   2.011 -0.6729  1.0279  0.2483
18587TIP3   OH277175   4.978   0.181   3.873 -0.6168  0.2195  0.4211
18587TIP3    H177176   5.034   0.248   3.911 -1.3351  1.8334 -1.2362
18587TIP3    H277177   4.889   0.212   3.888 -1.1158 -1.6759  1.8773
18588TIP3   OH277178   3.724   3.792  14.258 -0.5549 -0.4916 -0.0662
18588TIP3    H177179   3.665   3.761  14.190 -1.2497 -0.1737  0.3821
18588TIP3    H277180   3.692   3.880  14.279  0.5847  0.0207 -0.4013
18589TIP3   OH277181   2.710   6.631   1.146 -0.2265  0.0863  0.0619
18589TIP3    H177182   2.627   6.652   1.190 -0.5019 -0.9743  0.0795
18589TIP3    H277183   2.685   6.570   1.077  0.6501 -0.8757  0.5832
18590TIP3   OH277184   5.142   6.055  11.858 -0.3070  0.0768 -0.2587
18590TIP3    H177185   5.127   6.092  11.945  0.2346 -0.4705  0.0678
18590TIP3    H277186   5.161   6.131  11.802 -0.6396  0.4251  0.0995
18591TIP3   OH277187   6.766   5.543   5.683  0.0527 -0.2917 -0.4743
18591TIP3    H177188   6.678   5.541   5.644  0.5572  0.1545 -1.6959
18591TIP3    H277189   6.806   5.622   5.647  0.5333  0.1942  1.0611
18592TIP3   OH277190   6.485   5.811  16.398 -0.6559 -0.5104 -0.3285
18592TIP3    H177191   6.405   5.860  16.418 -1.1374 -1.8134  1.1828
18592TIP3    H277192   6.512   5.774  16.482  2.5040  1.2034 -0.4272
18593TIP3   OH277193   5.061   6.573   4.453 -0.1676  0.3354  0.3324
18593TIP3    H177194   5.020   6.655   4.425  0.4573  0.3652 -0.5436
18593TIP3    H277195   4.988   6.517   4.479 -0.6802  0.7581 -0.1710
18594TIP3   OH277196   6.235   0.242   4.458  0.2893 -0.8159  0.7077
18594TIP3    H177197   6.180   0.318   4.474  0.1132 -0.8375  0.2040
18594TIP3    H277198   6.231   0.192   4.540  1.6653  0.4891  1.6422
18595TIP3   OH277199   6.209   6.597  13.703 -0.1067  0.3428 -0.2202
18595TIP3    H177200   6.250   6.520  13.662 -0.5762  1.0806 -2.2163
18595TIP3    H277201   6.140   6.561  13.758  1.1764 -0.7599  0.7397
18596TIP3   OH277202   0.773   4.932   2.670 -0.8044  0.3324 -0.6957
18596TIP3    H177203   0.841   4.936   2.604  1.1344 -1.5510  1.0225
18596TIP3    H277204   0.776   5.018   2.713  1.3463 -0.0607  0.0688
18597TIP3   OH277205   3.684   6.227   1.191 -0.2570 -0.0576 -0.3940
18597TIP3    H177206   3.741   6.263   1.258 -0.2638  0.3649 -0.6075
18597TIP3    H277207   3.649   6.304   1.145 -1.9448 -0.2360  0.4969
18598TIP3   OH277208   4.806   2.138  12.815  0.0532 -0.3738 -0.4912
18598TIP3    H177209   4.829   2.127  12.722 -1.3254  0.8076 -1.0179
18598TIP3    H277210   4.843   2.224  12.838 -0.8833  0.0184 -0.3980
18599TIP3   OH277211   4.056   3.719  16.346  0.7465  0.0800 -0.0483
18599TIP3    H177212   3.983   3.780  16.340  0.4162 -0.2963  0.0754
18599TIP3    H277213   4.017   3.638  16.379  1.4503  0.2982  1.4297
18600TIP3   OH277214   2.841   6.627  15.335 -0.4070  0.6223  0.2011
18600TIP3    H177215   2.748   6.616  15.314 -0.3232 -0.8436  0.4877
18600TIP3    H277216   2.869   6.700  15.280 -2.2341  2.5805  1.7263
18601TIP3   OH277217   0.431   4.432  14.544 -0.2516 -0.5416 -0.1225
18601TIP3    H177218   0.395   4.344  14.555  0.8746 -1.2079 -1.4759
18601TIP3    H277219   0.514   4.419  14.500 -1.5492  1.3749 -3.5496
18602TIP3   OH277220   0.130   6.042   1.852  0.0328 -0.6704  0.5524
18602TIP3    H177221   0.196   5.991   1.900  0.4893 -0.0490  0.6005
18602TIP3    H277222   0.115   6.119   1.907 -0.4381 -0.6089  0.3432
18603TIP3   OH277223   4.255   2.032  13.718  0.5875 -0.1285  0.3768
18603TIP3    H177224   4.201   1.977  13.661  0.6441  1.2454 -1.0708
18603TIP3    H277225   4.272   1.977  13.795 -0.2809 -1.7046 -0.4990
18604TIP3   OH277226   6.230   0.491  14.612 -0.3471 -0.2667  0.2300
18604TIP3    H177227   6.235   0.474  14.518 -2.0418 -0.4842  0.1592
18604TIP3    H277228   6.172   0.424  14.646 -0.1694  0.1265  1.3557
18605TIP3   OH277229   2.725   3.970  12.575  0.3723  0.3526  0.3773
18605TIP3    H177230   2.759   3.975  12.664  0.5359 -0.6597  0.3806
18605TIP3    H277231   2.689   3.881  12.567 -0.0624  0.5844 -0.4158
18606TIP3   OH277232   4.832   1.493   5.347  0.1406 -0.1823 -0.0562
18606TIP3    H177233   4.922   1.485   5.316 -0.0893  0.2867 -0.8717
18606TIP3    H277234   4.795   1.406   5.333  0.7327 -0.6627  1.2056
18607TIP3   OH277235   2.314   4.282  14.143 -0.0261  0.0583  0.1586
18607TIP3    H177236   2.352   4.268  14.230  1.5257 -0.1627 -0.5257
18607TIP3    H277237   2.348   4.210  14.090 -1.3340 -0.0773 -0.5309
18608TIP3   OH277238   5.335   3.873  12.791  0.5679  0.1745 -0.5570
18608TIP3    H177239   5.336   3.968  12.803  2.5439  0.1164  0.0861
18608TIP3    H277240   5.264   3.857  12.729 -0.0605  2.0216 -0.3624
18609TIP3   OH277241   2.297   5.638  14.699 -0.1919  0.0179 -0.7343
18609TIP3    H177242   2.265   5.710  14.644  0.8617  0.8243 -0.3254
18609TIP3    H277243   2.349   5.682  14.766  0.3178 -1.1298 -0.3708
18610TIP3   OH277244   6.300   2.949  17.044 -0.3665  0.2495  0.7611
18610TIP3    H177245   6.246   2.983  16.973 -0.8170 -0.8021  0.5686
18610TIP3    H277246   6.310   3.022  17.104 -0.6251  0.9349 -0.0096
18611TIP3   OH277247   3.030   6.310  14.019  0.1169  0.3903 -0.1077
18611TIP3    H177248   3.094   6.292  14.087  1.2879  1.3197 -0.9187
18611TIP3    H277249   3.082   6.317  13.939 -0.7282  3.0687 -0.5024
18612TIP3   OH277250   1.596   5.968  15.019  0.0445 -0.1258  0.1013
18612TIP3    H177251   1.547   5.907  15.073  0.9227 -2.3900 -1.4914
18612TIP3    H277252   1.619   5.918  14.941  2.4680  1.6691 -0.4725
18613TIP3   OH277253   2.757   6.320  13.018 -0.2836 -0.1554  0.2180
18613TIP3    H177254   2.684   6.381  13.008  0.7968  1.0235 -0.8838
18613TIP3    H277255   2.835   6.376  13.020  0.6696 -1.4445  0.1665
18614TIP3   OH277256   5.307   2.397  16.161  0.0461 -0.4695  0.0426
18614TIP3    H177257   5.387   2.404  16.212 -0.6085 -0.0177  1.0413
18614TIP3    H277258   5.256   2.474  16.185 -0.7328 -0.7988 -0.4978
18615TIP3   OH277259   2.856   6.291  10.583 -0.2127 -0.3706 -0.6936
18615TIP3    H177260   2.898   6.208  10.609  0.1139 -0.7380 -2.2741
18615TIP3    H277261   2.926   6.340  10.541 -0.9538 -0.2694 -1.8439
18616TIP3   OH277262   5.922   4.978   1.009 -0.5791 -0.1327  0.0305
18616TIP3    H177263   5.839   5.021   1.030  0.0866  0.4682  1.6028
18616TIP3    H277264   5.962   5.035   0.943  0.1003  1.5408  1.7770
18617TIP3   OH277265   2.569   6.692   2.401 -0.0680 -0.1573  0.3525
18617TIP3    H177266   2.517   6.698   2.320 -2.8621 -0.1678  2.0075
18617TIP3    H277267   2.566   6.599   2.424 -2.2526  0.2527  2.1247
18618TIP3   OH277268   4.314   4.241   5.809  0.0977 -0.3204 -0.8676
18618TIP3    H177269   4.300   4.233   5.904  0.2359  2.5167 -0.5320
18618TIP3    H277270   4.272   4.323   5.785  0.3089 -0.8491 -3.2445
18619TIP3   OH277271   2.057   6.364  13.236 -0.6033  0.1146 -0.0524
18619TIP3    H177272   2.050   6.458  13.222 -2.8668 -0.2798 -2.2633
18619TIP3    H277273   2.151   6.346  13.237 -0.1559  2.2328 -0.7922
18620TIP3   OH277274   1.896   4.183  15.874 -0.2009 -0.1660 -0.0738
18620TIP3    H177275   1.891   4.110  15.812 -1.1497  0.3652 -0.6380
18620TIP3    H277276   1.829   4.163  15.939 -1.4401  0.8686 -0.9861
18621TIP3   OH277277   3.209   3.887  15.777  0.6106 -0.6557  0.0126
18621TIP3    H177278   3.139   3.821  15.779  1.3362 -1.4946 -1.0085
18621TIP3    H277279   3.190   3.945  15.851 -1.4783 -0.5310 -0.5649
18622TIP3   OH277280   1.997   0.592   5.355  0.1915 -0.1454  0.0950
18622TIP3    H177281   2.073   0.642   5.323  0.0043  0.8096  1.0792
18622TIP3    H277282   2.030   0.546   5.431  0.0749 -0.6736 -0.1707
18623TIP3   OH277283   1.235   1.573   0.087  0.4924  0.0926 -0.0344
18623TIP3    H177284   1.277   1.536   0.165  0.6567 -0.0414 -0.1848
18623TIP3    H277285   1.205   1.659   0.114  0.3822 -0.0277  0.2330
18624TIP3   OH277286   5.803   1.968  14.501 -0.2153 -0.2360  0.1238
18624TIP3    H177287   5.879   2.017  14.468 -0.5243  0.9176  1.0529
18624TIP3    H277288   5.837   1.918  14.574  0.0654 -1.3224 -0.7259
18625TIP3   OH277289   0.510   1.614   4.401 -0.0211  0.4322 -0.1973
18625TIP3    H177290   0.433   1.581   4.354 -0.2160  0.1542  0.3186
18625TIP3    H277291   0.515   1.561   4.480  0.9828  0.1213 -0.4536
18626TIP3   OH277292   5.270   2.237  12.639 -0.0281  0.0971  0.3230
18626TIP3    H177293   5.214   2.160  12.623  0.0214 -0.3360  1.9949
18626TIP3    H277294   5.217   2.311  12.613 -0.5101 -0.4508 -0.2823
18627TIP3   OH277295   1.684   0.448  14.222 -0.0341 -0.2522  0.3426
18627TIP3    H177296   1.737   0.369  14.224  0.7404  0.1516 -1.7414
18627TIP3    H277297   1.747   0.520  14.219 -0.7147  0.3430 -0.0378
18628TIP3   OH277298   3.958   5.844  14.387 -0.1161 -0.5023  0.5788
18628TIP3    H177299   3.970   5.864  14.294 -1.3381 -0.3051  0.4410
18628TIP3    H277300   4.046   5.845  14.424  0.4172 -0.9276 -0.6453
18629TIP3   OH277301   5.991   6.214  14.157 -0.3639 -0.3925 -0.2463
18629TIP3    H177302   5.920   6.215  14.221  0.3576  0.6038  0.5648
18629TIP3    H277303   5.947   6.209  14.072 -1.4327  0.8248  0.2105
18630TIP3   OH277304   1.813   4.574   1.794  0.1722  0.3450  1.2314
18630TIP3    H177305   1.750   4.632   1.750 -1.3057 -0.5472  2.0852
18630TIP3    H277306   1.873   4.634   1.839 -0.1139  1.2232  0.4832
18631TIP3   OH277307   0.739   1.802  16.092  1.1456 -0.3333 -0.5314
18631TIP3    H177308   0.786   1.721  16.111  0.4485 -0.3730  1.1174
18631TIP3    H277309   0.718   1.795  15.998  1.8745 -1.6313 -0.6308
18632TIP3   OH277310   1.301   3.970   0.489  0.6427 -0.0973  0.2079
18632TIP3    H177311   1.306   3.879   0.458 -0.6021  0.0762 -0.5935
18632TIP3    H277312   1.381   3.983   0.539  1.1706 -1.4242 -0.2452
18633TIP3   OH277313   1.506   0.595  14.709 -0.2603 -0.1825  0.1791
18633TIP3    H177314   1.556   0.675  14.693 -1.1164  0.1487 -1.0638
18633TIP3    H277315   1.423   0.610  14.663  0.1672 -2.4170 -1.4414
18634TIP3   OH277316   5.223   4.689  13.882 -0.0578 -0.4591 -0.0034
18634TIP3    H177317   5.307   4.687  13.837  0.2617 -0.3043  0.5731
18634TIP3    H277318   5.159   4.711  13.814 -0.0880 -3.4799 -1.0991
18635TIP3   OH277319   3.233   1.461  13.800  0.1877  0.4846 -0.3885
18635TIP3    H177320   3.293   1.487  13.729 -0.2892 -1.4709 -1.5769
18635TIP3    H277321   3.248   1.368  13.811 -0.7567  0.4888  1.1638
18636TIP3   OH277322   5.327   2.193   1.461 -0.0173 -0.0845 -0.3756
18636TIP3    H177323   5.370   2.232   1.537 -0.2691 -1.3199  0.4351
18636TIP3    H277324   5.268   2.262   1.429 -2.0865 -0.4387  2.3457
18637TIP3   OH277325   4.403   5.697  11.657 -0.3259  0.0970 -0.1662
18637TIP3    H177326   4.378   5.786  11.630  2.5467  1.7112  1.8739
18637TIP3    H277327   4.400   5.699  11.753 -0.3188 -2.0628 -0.0798
18638TIP3   OH277328   6.280   4.063   6.792  0.3870 -0.6348  0.0384
18638TIP3    H177329   6.287   4.030   6.702 -1.1037  0.4571 -0.5080
18638TIP3    H277330   6.345   4.133   6.797  1.5066 -1.6668  0.2928
18639TIP3   OH277331   5.625   1.701   3.692  0.5094 -0.4503 -0.7641
18639TIP3    H177332   5.606   1.702   3.598  2.4215 -1.6196 -1.2144
18639TIP3    H277333   5.707   1.750   3.700  1.0225 -1.4253  0.1237
18640TIP3   OH277334   5.417   6.173   5.169  0.1295  0.2820 -0.2715
18640TIP3    H177335   5.377   6.087   5.157  1.3962 -0.4067  0.2488
18640TIP3    H277336   5.497   6.170   5.118  0.4967  0.9364  0.2451
18641TIP3   OH277337   1.657   6.176  14.714  0.3416 -0.2015 -0.8404
18641TIP3    H177338   1.669   6.262  14.674  1.3902 -0.2230 -0.6165
18641TIP3    H277339   1.746   6.148  14.735 -0.1359 -0.3342  1.1848
18642TIP3   OH277340   4.898   3.642   4.040 -0.2447 -0.2042 -0.4535
18642TIP3    H177341   4.845   3.693   3.978  0.5840 -1.0153 -1.8729
18642TIP3    H277342   4.983   3.633   3.997  0.7988  0.2781  1.3690
18643TIP3   OH277343   2.347   2.091   3.114 -0.1427 -0.1078 -0.1700
18643TIP3    H177344   2.351   2.045   3.198 -1.2436 -0.5847 -0.3581
18643TIP3    H277345   2.437   2.091   3.082  0.3042  0.1579  1.0451
18644TIP3   OH277346   4.236   1.920  16.950 -0.3857  0.3635 -0.4410
18644TIP3    H177347   4.309   1.898  17.008  0.1385  0.7040 -0.9627
18644TIP3    H277348   4.171   1.961  17.007 -1.1196 -1.8526  0.4541
18645TIP3   OH277349   1.740   4.779  13.244  0.0546 -0.3166  0.2428
18645TIP3    H177350   1.714   4.792  13.153  0.5626  1.1537  0.2833
18645TIP3    H277351   1.683   4.709  13.276 -0.4346 -0.5380 -1.0720
18646TIP3   OH277352   5.778   4.177  12.673 -0.2912  0.1669 -0.1915
18646TIP3    H177353   5.862   4.136  12.696 -1.1469 -1.9812 -0.6441
18646TIP3    H277354   5.726   4.169  12.753  0.5999  3.6738  0.9192
18647TIP3   OH277355   6.152   2.785  13.000  0.1999  0.2310 -0.1972
18647TIP3    H177356   6.086   2.829  12.946  0.2715  0.8748  0.2222
18647TIP3    H277357   6.101   2.724  13.054 -0.0679  0.7516  0.1507
18648TIP3   OH277358   3.227   6.008  14.648 -0.1332 -0.3135  0.2353
18648TIP3    H177359   3.312   6.005  14.605 -0.6169  1.0722 -0.8808
18648TIP3    H277360   3.209   6.102  14.658 -1.5015 -0.5909  0.4951
18649TIP3   OH277361   1.086   2.411   2.349 -0.0285 -0.1557  0.4643
18649TIP3    H177362   1.182   2.417   2.353 -0.0092 -0.1826  0.1247
18649TIP3    H277363   1.058   2.500   2.330 -0.1855  0.2027  2.2511
18650TIP3   OH277364   2.872   4.519  12.956 -0.0788  0.2981 -0.4164
18650TIP3    H177365   2.820   4.453  13.002  0.4606  0.3956  0.3572
18650TIP3    H277366   2.885   4.588  13.021  2.0645 -0.2779 -0.1483
18651TIP3   OH277367   3.924   4.273   6.682  0.0094  0.4320  0.3274
18651TIP3    H177368   3.877   4.279   6.765 -0.4498  0.3525  0.0746
18651TIP3    H277369   3.932   4.363   6.651 -0.2917  0.4160  0.1984
18652TIP3   OH277370   0.044   0.517   2.032 -0.0873 -0.1609 -0.5651
18652TIP3    H177371   0.002   0.569   1.963 -0.0183  0.2190 -0.3215
18652TIP3    H277372   0.007   0.429   2.021  1.1896 -0.5506 -2.1758
18653TIP3   OH277373   2.086   0.753   4.871  0.0510  0.1595 -0.3763
18653TIP3    H177374   2.084   0.835   4.822  0.4057  0.0728 -0.5440
18653TIP3    H277375   2.176   0.747   4.904 -0.0481 -0.0256 -0.1316
18654TIP3   OH277376   3.056   3.686   3.586 -0.1307  0.2985  0.1028
18654TIP3    H177377   2.999   3.754   3.623  0.5422  1.1018 -0.3052
18654TIP3    H277378   2.998   3.633   3.532 -0.7046  0.4171  0.5856
18655TIP3   OH277379   5.263   5.157  12.296  0.6261 -0.4272 -0.2140
18655TIP3    H177380   5.315   5.142  12.217 -0.1313 -0.1260 -0.7740
18655TIP3    H277381   5.318   5.215  12.350  1.6635 -1.5872  0.0275
18656TIP3   OH277382   4.055   0.661   2.963 -0.4115 -0.6710 -0.4287
18656TIP3    H177383   4.022   0.739   3.007 -0.2075 -1.6442  1.5735
18656TIP3    H277384   3.978   0.604   2.957  0.3365 -2.2647  2.7212
18657TIP3   OH277385   6.298   2.662  15.798 -0.2422 -0.4706 -0.3689
18657TIP3    H177386   6.359   2.657  15.871 -0.3584  2.7796  0.0958
18657TIP3    H277387   6.353   2.667  15.721 -0.0547 -1.1480 -0.2868
18658TIP3   OH277388   1.787   5.817   2.986 -0.5715  0.2524  0.0493
18658TIP3    H177389   1.825   5.760   2.919  1.2068  1.4247 -0.0001
18658TIP3    H277390   1.803   5.906   2.955  0.4207  0.8374  2.0640
18659TIP3   OH277391   6.695   5.765  14.097 -0.0504  0.3329  0.2861
18659TIP3    H177392   6.786   5.774  14.067 -0.2584 -1.5810 -1.1061
18659TIP3    H277393   6.684   5.671  14.112 -2.0094  0.4285 -0.3010
18660TIP3   OH277394   5.111   3.433  12.779  0.0865  0.6271  0.5515
18660TIP3    H177395   5.092   3.476  12.862 -0.5902  2.2816 -0.4229
18660TIP3    H277396   5.026   3.412  12.741  0.3676  0.4931 -0.0325
18661TIP3   OH277397   3.658   1.109   3.195 -0.1052 -0.4298 -0.2983
18661TIP3    H177398   3.671   1.100   3.100 -1.1237 -0.6011 -0.4353
18661TIP3    H277399   3.611   1.193   3.204 -0.3402 -0.5921  0.0126
18662TIP3   OH277400   0.681   5.357   3.455  0.0695  0.5451 -0.0363
18662TIP3    H177401   0.716   5.295   3.519 -3.2432 -1.3912  0.1205
18662TIP3    H277402   0.591   5.374   3.484 -0.4988  2.1481 -2.4343
18663TIP3   OH277403   1.800   6.579   1.448 -0.0357  0.2309  0.7776
18663TIP3    H177404   1.768   6.586   1.538  1.9262  0.1220  1.5425
18663TIP3    H277405   1.740   6.633   1.397 -2.6437 -1.6120  1.7077
18664TIP3   OH277406   4.478   6.552   5.647  0.4140  0.2712  0.0717
18664TIP3    H177407   4.446   6.572   5.735  0.9239  0.6239  0.1770
18664TIP3    H277408   4.529   6.472   5.657 -1.6839 -1.2233 -0.3618
18665TIP3   OH277409   6.587   2.184  15.225 -0.5840 -0.8127 -0.2648
18665TIP3    H177410   6.512   2.163  15.281 -1.9144  1.2749 -1.1453
18665TIP3    H277411   6.662   2.145  15.270 -1.9186 -1.3135  1.6646
18666TIP3   OH277412   2.599   0.407  15.560  0.6882  0.2492  0.2175
18666TIP3    H177413   2.666   0.472  15.538  1.2359 -0.8219 -1.4994
18666TIP3    H277414   2.645   0.342  15.613  0.6002  0.3109  0.3710
18667TIP3   OH277415   0.932   4.250  13.479  0.4855  0.2889 -0.4301
18667TIP3    H177416   0.978   4.187  13.423  1.4971  1.0040 -0.4246
18667TIP3    H277417   0.987   4.257  13.557  0.9011  1.8832 -0.8353
18668TIP3   OH277418   6.239   6.529  14.476 -0.1904 -0.0887 -0.1480
18668TIP3    H177419   6.259   6.622  14.483  0.2225 -0.2288  0.6451
18668TIP3    H277420   6.182   6.512  14.551 -1.5208 -0.1658 -1.1347
18669TIP3   OH277421   6.260   0.678   0.014 -0.0114  0.3650  0.0133
18669TIP3    H177422   6.249   0.693   0.108 -0.2313  0.2590  0.0055
18669TIP3    H277423   6.171   0.682  -0.021 -0.0314 -0.5624 -0.0487
18670TIP3   OH277424   2.587   6.370  13.378 -0.3386 -0.0600  0.1228
18670TIP3    H177425   2.572   6.464  13.366 -0.5611 -0.3118 -1.8547
18670TIP3    H277426   2.534   6.328  13.310  0.1782 -1.5880  0.6248
18671TIP3   OH277427   4.009   2.155  12.732  0.6075 -0.2862  0.0710
18671TIP3    H177428   3.953   2.083  12.704 -0.5446  1.0392 -1.1863
18671TIP3    H277429   4.038   2.131  12.820 -2.7048 -0.6280  1.2038
18672TIP3   OH277430   6.685   3.351   1.601 -0.6069  0.5533 -0.0474
18672TIP3    H177431   6.763   3.365   1.656 -0.9959 -0.4368  0.7933
18672TIP3    H277432   6.661   3.260   1.617 -0.5727  0.1388 -2.1109
18673TIP3   OH277433   2.433   3.768  14.671  0.4830  0.2962  0.3148
18673TIP3    H177434   2.363   3.791  14.733  1.2755 -0.8477  1.7030
18673TIP3    H277435   2.405   3.683  14.635 -0.6735  1.5802 -2.0579
18674TIP3   OH277436   4.947   2.201   3.250 -0.5204 -0.2708  0.0450
18674TIP3    H177437   4.979   2.206   3.340 -0.7931  1.1680  0.0755
18674TIP3    H277438   4.998   2.130   3.210  0.5210 -0.0552  0.9599
18675TIP3   OH277439   1.494   2.889  15.717  0.2970  0.0449 -0.3875
18675TIP3    H177440   1.519   2.980  15.697 -1.2632  0.4737 -0.5295
18675TIP3    H277441   1.525   2.875  15.807  1.5018  0.3476 -0.7440
18676TIP3   OH277442   6.134   0.675   2.129  0.1611  0.1763  0.1382
18676TIP3    H177443   6.202   0.713   2.185 -0.8468 -1.4133  2.6058
18676TIP3    H277444   6.136   0.582   2.149 -2.0174 -0.0623 -0.5299
18677TIP3   OH277445   4.167   3.314  16.539  0.3444  0.0819 -0.3721
18677TIP3    H177446   4.113   3.370  16.483  2.2097  0.4523 -1.9378
18677TIP3    H277447   4.227   3.375  16.583 -0.9271 -0.2360  1.9381
18678TIP3   OH277448   2.103   4.399  15.518 -0.2449  0.4616  0.2748
18678TIP3    H177449   2.147   4.460  15.459  2.0437 -0.0414  1.3604
18678TIP3    H277450   2.105   4.315  15.472 -1.2996  0.6770 -0.2136
18679TIP3   OH277451   4.955   1.720   3.191  0.4580  0.0353 -0.1799
18679TIP3    H177452   4.883   1.701   3.131 -0.5427  0.5877  0.8141
18679TIP3    H277453   4.912   1.738   3.275  1.8552 -1.3720  0.8773
18680TIP3   OH277454   5.109   4.298   0.747 -0.0510  0.1103 -0.4833
18680TIP3    H177455   5.170   4.288   0.675 -0.2054 -1.0265 -0.4740
18680TIP3    H277456   5.163   4.329   0.820  0.1729  0.8780 -0.9543
18681TIP3   OH277457   1.340   2.846   5.404  0.2643 -0.3880 -0.1619
18681TIP3    H177458   1.296   2.791   5.339 -1.0350  1.1560 -0.6379
18681TIP3    H277459   1.331   2.935   5.371 -0.2114  0.4290  1.9968
18682TIP3   OH277460   1.383   1.434  17.081 -0.0826 -0.2547 -0.5491
18682TIP3    H177461   1.440   1.462  17.009 -0.0801  0.8281 -0.1453
18682TIP3    H277462   1.348   1.350  17.052 -0.8110  0.5779 -2.2249
18683TIP3   OH277463   5.787   2.258  15.718  0.6064  0.2011  0.7102
18683TIP3    H177464   5.807   2.213  15.636  1.5814  0.2020  0.9416
18683TIP3    H277465   5.694   2.238  15.734  0.4046  0.2146 -0.3909
18684TIP3   OH277466   3.670   4.165  12.910  0.8622 -0.4880 -0.3856
18684TIP3    H177467   3.764   4.146  12.917  0.9182 -0.1671 -0.2767
18684TIP3    H277468   3.665   4.242  12.854  0.8050  0.8040  1.3112
18685TIP3   OH277469   5.031   1.672   2.133  0.2460  0.2105 -0.0809
18685TIP3    H177470   5.061   1.746   2.080 -0.5185  0.4895 -0.1359
18685TIP3    H277471   5.111   1.624   2.155  0.9581  1.9071  1.2696
18686TIP3   OH277472   1.970   2.108   3.921  0.4257 -0.0386  0.1047
18686TIP3    H177473   1.976   2.015   3.899 -0.4618 -0.9248  3.1561
18686TIP3    H277474   1.883   2.118   3.960  1.7089  1.2644  2.9187
18687TIP3   OH277475   5.037   1.000   5.279  0.8328  0.1994 -0.1360
18687TIP3    H177476   5.079   0.917   5.301  3.2661  1.2830 -0.4237
18687TIP3    H277477   5.018   1.041   5.363 -0.2755 -0.5670  0.0042
18688TIP3   OH277478   1.821   3.630   3.544  0.4870  0.3808  0.1494
18688TIP3    H177479   1.906   3.630   3.500 -0.3448  0.8082 -1.5234
18688TIP3    H277480   1.796   3.538   3.549  1.1563  0.2255  0.9309
18689TIP3   OH277481   0.094   0.805   5.996  0.1340  0.1716  0.0488
18689TIP3    H177482   0.181   0.844   6.010  0.1486 -0.1653  0.8825
18689TIP3    H277483   0.063   0.782   6.083 -1.3269  1.4085 -0.1055
18690TIP3   OH277484   4.345   0.194  14.152 -0.5864 -0.5325  0.5073
18690TIP3    H177485   4.406   0.189  14.226  0.7846  0.2314 -0.5061
18690TIP3    H277486   4.316   0.286  14.151 -0.7263 -0.5801  0.1963
18691TIP3   OH277487   4.889   6.490   1.435 -0.4804 -0.7165  0.4700
18691TIP3    H177488   4.867   6.580   1.460  0.7369 -0.1941 -0.2503
18691TIP3    H277489   4.884   6.441   1.517  0.6421  0.3938  1.2354
18692TIP3   OH277490   0.167   5.863   3.256 -0.2015 -0.4636 -0.3398
18692TIP3    H177491   0.250   5.910   3.245  1.4244 -1.5365  4.6707
18692TIP3    H277492   0.104   5.931   3.280 -0.2747  0.0968 -2.0175
18693TIP3   OH277493   6.310   4.236  15.336 -0.2182 -0.4225  0.6377
18693TIP3    H177494   6.235   4.227  15.277 -0.6040 -0.9337  1.1905
18693TIP3    H277495   6.386   4.222  15.281 -0.5687 -0.7832  0.2372
18694TIP3   OH277496   1.971   2.789  15.553  0.2741 -0.6349  0.2375
18694TIP3    H177497   1.964   2.785  15.648 -0.0234 -1.2140  0.1950
18694TIP3    H277498   1.891   2.833  15.524  1.2716  1.3918  0.3725
18695TIP3   OH277499   3.632   0.704  14.693 -0.0918 -0.0088 -0.7742
18695TIP3    H177500   3.707   0.699  14.752 -0.0096 -0.5364 -0.9164
18695TIP3    H277501   3.569   0.641  14.730  0.2858 -0.9534 -1.6916
18696TIP3   OH277502   5.787   1.884   6.735 -0.5048  0.0632 -0.0200
18696TIP3    H177503   5.839   1.808   6.708  1.0339  0.4608  1.6855
18696TIP3    H277504   5.761   1.925   6.652 -0.2022 -1.5272 -0.9472
18697TIP3   OH277505   6.706   1.197  14.225 -0.1528  0.1065 -0.2599
18697TIP3    H177506   6.626   1.205  14.173 -0.4189 -0.4023  0.0525
18697TIP3    H277507   6.686   1.243  14.306  0.0449  0.3924 -0.3757
18698TIP3   OH277508   3.312   1.679   4.684  0.3771 -0.4239  0.1063
18698TIP3    H177509   3.275   1.639   4.606 -3.2487 -0.7438  1.7862
18698TIP3    H277510   3.322   1.607   4.746  1.9925  0.0138  0.4004
18699TIP3   OH277511   6.570   3.883   4.065 -0.1737  0.0059 -0.0779
18699TIP3    H177512   6.658   3.886   4.103 -0.9852 -1.4467  2.1147
18699TIP3    H277513   6.555   3.971   4.031  1.4275  0.8037  1.1893
18700TIP3   OH277514   5.779   6.155  11.397  0.5774  0.1576  0.5499
18700TIP3    H177515   5.822   6.168  11.481  1.3881  0.3751  0.1064
18700TIP3    H277516   5.755   6.243  11.368  0.9449  0.1491  0.2187
18701TIP3   OH277517   3.108   1.942  14.654  0.7659  0.3343  0.6111
18701TIP3    H177518   3.126   1.962  14.562  1.2160  1.4324  0.9187
18701TIP3    H277519   3.053   2.016  14.683 -0.3885 -0.6145  0.9154
18702TIP3   OH277520   2.035   6.283  10.603  0.0493 -0.3834 -0.4103
18702TIP3    H177521   2.123   6.260  10.634  0.0936  0.0427 -0.2043
18702TIP3    H277522   2.023   6.374  10.633 -0.2060 -0.2218 -0.9989
18703TIP3   OH277523   0.551   5.371  11.419  0.1680 -0.3680  0.1440
18703TIP3    H177524   0.569   5.286  11.379  0.4787  0.4618 -1.6050
18703TIP3    H277525   0.456   5.380  11.413  0.0953 -0.7483  0.6863
18704TIP3   OH277526   1.663   2.944  11.437 -0.7993 -0.1856 -0.3651
18704TIP3    H177527   1.604   2.889  11.387 -1.0162 -1.1627  0.9157
18704TIP3    H277528   1.609   3.017  11.466 -1.3870 -1.0205  0.7101
18705TIP3   OH277529   3.747   4.842   3.898 -0.3776 -0.3540  0.2725
18705TIP3    H177530   3.707   4.762   3.864  1.0686 -0.3033 -1.7495
18705TIP3    H277531   3.749   4.901   3.822  2.5735 -0.0306  0.5059
18706TIP3   OH277532   3.811   3.879   1.114  0.3996 -0.0492 -0.9495
18706TIP3    H177533   3.862   3.908   1.038  0.0236  0.5408 -0.9743
18706TIP3    H277534   3.722   3.907   1.096  0.3178  0.1504 -0.2628
18707TIP3   OH277535   1.348   5.807   2.970  0.6058  0.2734 -0.0247
18707TIP3    H177536   1.423   5.775   3.020  0.4214  1.0484  0.7643
18707TIP3    H277537   1.352   5.758   2.887  2.0274  0.3802 -0.0405
18708TIP3   OH277538   6.699   6.583   2.038  0.0518  0.8783  0.3391
18708TIP3    H177539   6.686   6.626   2.123 -0.1621 -0.8664  1.2469
18708TIP3    H277540   6.615   6.592   1.993 -0.4919  0.1489  1.1573
18709TIP3   OH277541   5.443   3.847   4.878 -0.1883 -0.3637  0.1562
18709TIP3    H177542   5.397   3.857   4.962 -2.8187 -4.1045 -0.5909
18709TIP3    H277543   5.526   3.805   4.901 -1.0531 -1.7199  0.9447
18710TIP3   OH277544   5.144   4.201  13.398  0.6394  0.7106  0.0283
18710TIP3    H177545   5.230   4.213  13.358  0.9785  0.8627  0.7769
18710TIP3    H277546   5.083   4.245  13.340  1.0116  0.2506 -0.7264
18711TIP3   OH277547   1.086   2.614  12.156 -0.1206 -0.1451 -0.1301
18711TIP3    H177548   1.115   2.685  12.099 -0.7535  0.8448  0.7442
18711TIP3    H277549   1.161   2.555  12.161  0.8781  1.1176  0.1598
18712TIP3   OH277550   0.985   4.970   3.673 -0.8146  0.0964 -0.3525
18712TIP3    H177551   1.032   4.978   3.757 -1.2430  1.2046 -0.2054
18712TIP3    H277552   1.041   4.913   3.620 -0.3448 -0.3114  0.5496
18713TIP3   OH277553   5.997   5.175  14.851 -0.4586  0.2912 -0.6027
18713TIP3    H177554   5.976   5.261  14.813 -1.1995  0.4205  0.0803
18713TIP3    H277555   5.915   5.145  14.889 -0.0819 -0.5107 -0.4046
18714TIP3   OH277556   3.376   4.581  11.620  0.5232  0.2690  0.0904
18714TIP3    H177557   3.429   4.555  11.696  0.3198  0.1601  0.1963
18714TIP3    H277558   3.381   4.506  11.561 -0.8746 -0.4498  0.8230
18715TIP3   OH277559   0.520   1.251   4.158 -0.2579 -0.2067  0.1159
18715TIP3    H177560   0.428   1.272   4.150 -0.2213 -0.5300 -1.3945
18715TIP3    H277561   0.545   1.285   4.244 -2.2180 -1.8103  1.4059
18716TIP3   OH277562   4.729   0.291  15.135  0.0395 -0.1096 -0.6545
18716TIP3    H177563   4.742   0.324  15.047  2.1314 -0.5096 -0.5379
18716TIP3    H277564   4.698   0.367  15.185 -0.3458  0.3203 -1.5371
18717TIP3   OH277565   4.921   4.404  13.362 -0.1669  0.4272  0.0089
18717TIP3    H177566   4.906   4.475  13.299 -0.5620 -0.6655 -1.1456
18717TIP3    H277567   4.833   4.379  13.390 -0.1754 -1.0298 -1.2154
18718TIP3   OH277568   5.939   5.575   4.449  0.1838  0.1484  1.0904
18718TIP3    H177569   5.917   5.649   4.506 -0.3775  0.3461  0.6245
18718TIP3    H277570   5.866   5.513   4.461  0.1476  0.1161  0.7263
18719TIP3   OH277571   3.652   3.182   6.670  0.3355  0.3788  0.0191
18719TIP3    H177572   3.611   3.109   6.624  0.0701 -0.0964  0.9825
18719TIP3    H277573   3.728   3.143   6.713  0.8367  0.9092 -0.3800
18720TIP3   OH277574   5.757   5.439   3.456  0.2796 -0.2232 -0.5740
18720TIP3    H177575   5.848   5.469   3.454  0.3560 -0.4158 -0.0526
18720TIP3    H277576   5.761   5.350   3.421  0.0622  0.3034 -2.0508
18721TIP3   OH277577   2.351   6.529  14.773 -0.0406  0.0533 -0.4427
18721TIP3    H177578   2.361   6.481  14.691  0.6307 -0.2155 -0.2043
18721TIP3    H277579   2.342   6.621  14.746  1.6518  0.1488 -0.7578
18722TIP3   OH277580   3.082   4.120   4.846  0.2539 -0.3967  0.0495
18722TIP3    H177581   3.147   4.058   4.880  0.2425 -0.7379 -0.5323
18722TIP3    H277582   3.115   4.206   4.871  1.8279 -0.4365 -1.6540
18723TIP3   OH277583   3.899   0.447   0.922  0.2220  0.2954 -0.6023
18723TIP3    H177584   3.897   0.376   0.858 -0.8753 -0.9579  0.7539
18723TIP3    H277585   3.988   0.445   0.957  0.1227 -0.6334 -0.3722
18724TIP3   OH277586   5.141   5.046  15.342  0.3816 -0.1942 -0.3330
18724TIP3    H177587   5.196   5.111  15.298  0.4694  1.0687  1.5250
18724TIP3    H277588   5.052   5.082  15.336  0.5739  0.6939  1.6398
18725TIP3   OH277589   5.019   3.919   4.441  0.0425  0.2593 -0.5448
18725TIP3    H177590   4.954   3.849   4.444 -0.5414  0.8154  0.9677
18725TIP3    H277591   5.035   3.933   4.348 -1.6842 -0.1998 -0.9466
18726TIP3   OH277592   3.388   0.001   4.684  0.4560  0.1890  0.5451
18726TIP3    H177593   3.417   0.088   4.714 -1.6122  1.0823  0.1096
18726TIP3    H277594   3.313   0.019   4.628  0.5621 -1.8548 -0.3312
18727TIP3   OH277595   2.639   6.490   6.088  0.1131 -0.0621 -0.2398
18727TIP3    H177596   2.725   6.526   6.067  0.4323 -1.7475 -2.0727
18727TIP3    H277597   2.658   6.411   6.139 -0.3263 -0.5179 -0.7754
18728TIP3   OH277598   1.128   1.169  15.872  0.6426 -0.3797 -0.6929
18728TIP3    H177599   1.055   1.162  15.810 -0.1660 -1.1706  0.3072
18728TIP3    H277600   1.199   1.121  15.831 -0.5405 -2.7697 -0.1201
18729TIP3   OH277601   4.863   1.115   4.888  0.2289 -0.1970 -0.1344
18729TIP3    H177602   4.872   1.155   4.974  3.5708 -1.0638  0.0555
18729TIP3    H277603   4.940   1.059   4.879 -1.2526 -2.0603 -2.7314
18730TIP3   OH277604   0.976   1.948   5.497 -0.0232  0.2206  0.1704
18730TIP3    H177605   0.910   1.928   5.431 -0.5199  0.3362  0.6285
18730TIP3    H277606   0.936   2.017   5.550 -0.8564 -1.8608  2.4306
18731TIP3   OH277607   0.847   1.466  16.466  0.0453 -0.5650 -0.2346
18731TIP3    H177608   0.833   1.416  16.386  0.0745  1.4995 -1.5963
18731TIP3    H277609   0.805   1.413  16.534 -2.4637 -1.0741 -2.0421
18732TIP3   OH277610   1.665   5.179   4.830 -0.8134  0.1398 -0.0169
18732TIP3    H177611   1.585   5.208   4.787 -1.3323  0.2923  1.0364
18732TIP3    H277612   1.658   5.083   4.831 -0.6743  0.1208 -0.4897
18733TIP3   OH277613   1.658   2.721   4.690  0.6878  0.2014 -0.2198
18733TIP3    H177614   1.565   2.742   4.680  0.4089 -0.0826  1.5371
18733TIP3    H277615   1.673   2.650   4.627 -0.2407  0.3458 -0.6226
18734TIP3   OH277616   4.516   5.609   2.268  0.0888  0.4535  0.1234
18734TIP3    H177617   4.499   5.635   2.359 -0.3050  0.7263 -0.0252
18734TIP3    H277618   4.548   5.689   2.226 -1.3875  0.7984 -0.4041
18735TIP3   OH277619   0.914   1.783   0.755 -0.4386 -0.1941  0.5333
18735TIP3    H177620   0.873   1.735   0.826 -1.1713  0.8695  0.8569
18735TIP3    H277621   0.996   1.737   0.738 -0.3862 -0.6134  1.8841
18736TIP3   OH277622   2.689   4.568  12.143  0.5055 -0.4199 -0.0215
18736TIP3    H177623   2.639   4.573  12.062 -0.3155 -1.2990  0.4043
18736TIP3    H277624   2.630   4.602  12.211  0.6299 -1.0610  0.4221
18737TIP3   OH277625   3.498   3.952  12.880 -0.2378 -0.0966 -0.2978
18737TIP3    H177626   3.550   4.031  12.864  0.8016 -1.1591 -2.5926
18737TIP3    H277627   3.417   3.966  12.830 -0.7739  0.1576  0.6089
18738TIP3   OH277628   1.644   3.546   1.406  0.8157 -0.0226  0.1960
18738TIP3    H177629   1.693   3.510   1.332 -0.6561 -2.8899  0.4666
18738TIP3    H277630   1.606   3.469   1.449 -3.1523  1.8744  0.5144
18739TIP3   OH277631   4.269   6.556  13.092 -0.0581  0.3102 -0.2131
18739TIP3    H177632   4.238   6.540  13.181  2.1161 -1.2066  0.3495
18739TIP3    H277633   4.220   6.495  13.038 -0.2418  0.1054  0.1836
18740TIP3   OH277634   5.549   4.610   4.246  0.0322 -0.5106 -0.2751
18740TIP3    H177635   5.634   4.650   4.267 -0.1268  0.1717 -0.8853
18740TIP3    H277636   5.571   4.520   4.221  0.4720 -0.6213  0.4504
18741TIP3   OH277637   6.114   5.243  16.219 -0.0571  0.9700 -0.5848
18741TIP3    H177638   6.075   5.302  16.283 -0.7185 -1.3224  1.2443
18741TIP3    H277639   6.207   5.241  16.242  0.0090  1.4086 -0.7910
18742TIP3   OH277640   1.884   4.811   3.049  0.2410 -0.2765 -0.2374
18742TIP3    H177641   1.879   4.901   3.079 -1.5329 -0.2283 -0.5719
18742TIP3    H277642   1.821   4.764   3.103 -0.3988 -0.8845 -1.4843
18743TIP3   OH277643   4.589   5.118  15.190  0.1896  0.5633  0.1246
18743TIP3    H177644   4.560   5.106  15.280  0.6381 -0.4876  0.1462
18743TIP3    H277645   4.510   5.104  15.137  0.1291  0.2249  0.3043
18744TIP3   OH277646   2.839   4.523   4.836 -0.7252 -0.0578 -0.0486
18744TIP3    H177647   2.748   4.531   4.805  0.0476 -1.2939 -3.0602
18744TIP3    H277648   2.858   4.430   4.830  1.0371  0.2970 -0.4750
18745TIP3   OH277649   2.174   2.844   2.151  1.2894  0.1317 -0.2762
18745TIP3    H177650   2.228   2.842   2.230  0.7751 -0.9351  0.0699
18745TIP3    H277651   2.233   2.820   2.080  1.4313 -0.3090 -0.0083
18746TIP3   OH277652   2.258   6.322  12.079  0.0850 -0.4881 -0.1832
18746TIP3    H177653   2.187   6.376  12.043  0.2699 -0.4867 -0.5465
18746TIP3    H277654   2.335   6.347  12.028 -0.1964 -2.4345 -1.6692
18747TIP3   OH277655   0.456   2.736  12.140  0.2850 -0.6957  0.3815
18747TIP3    H177656   0.513   2.660  12.150  0.2042 -0.6920  0.9015
18747TIP3    H277657   0.515   2.811  12.134  0.4284 -0.8981 -1.4354
18748TIP3   OH277658   1.492   2.928   4.641 -0.1075  0.5551 -0.8305
18748TIP3    H177659   1.463   2.901   4.728  0.4100  0.6790 -0.6115
18748TIP3    H277660   1.584   2.952   4.654  0.9440 -2.3179 -1.9695
18749TIP3   OH277661   3.022   2.067   5.004 -0.3442 -0.2172 -0.0971
18749TIP3    H177662   3.048   2.156   5.025  0.5563 -0.1485 -1.3582
18749TIP3    H277663   2.996   2.070   4.912  1.3986 -1.5615 -0.6982
18750TIP3   OH277664   1.998   0.381   2.755 -0.1129 -0.7757  0.1476
18750TIP3    H177665   1.948   0.330   2.691  1.4206 -1.0100 -0.9031
18750TIP3    H277666   1.990   0.472   2.725  2.3578 -1.0781 -1.7239
18751TIP3   OH277667   0.584   3.645   5.096  0.3371 -0.1523  0.2186
18751TIP3    H177668   0.559   3.734   5.071  1.4129 -0.3513 -1.8122
18751TIP3    H277669   0.543   3.632   5.181  0.9752  2.6315  1.0654
18752TIP3   OH277670   4.406   4.319  16.128  0.0628  0.0417  0.1344
18752TIP3    H177671   4.422   4.243  16.183  0.7272 -0.6723 -1.0085
18752TIP3    H277672   4.396   4.392  16.190  0.7499 -0.7280  1.1848
18753TIP3   OH277673   4.718   0.635   5.421  0.0967 -0.0659 -0.2033
18753TIP3    H177674   4.755   0.567   5.477  0.9812 -0.2843 -1.0206
18753TIP3    H277675   4.665   0.586   5.357  0.4515  0.0315 -0.5783
18754TIP3   OH277676   6.407   1.627   0.455 -0.3944 -0.6829  0.6619
18754TIP3    H177677   6.369   1.704   0.499 -1.9030 -0.9703 -0.0655
18754TIP3    H277678   6.466   1.664   0.389  0.2227 -0.1995  1.4777
18755TIP3   OH277679   0.283   4.600  11.708  0.1424  0.1856  0.0080
18755TIP3    H177680   0.232   4.676  11.735 -0.6134 -0.9336  1.8799
18755TIP3    H277681   0.367   4.610  11.752 -0.2647 -0.4695  0.9610
18756TIP3   OH277682   1.361   2.456  11.899 -0.1015 -0.6521 -0.2368
18756TIP3    H177683   1.306   2.526  11.864 -0.8803 -0.3575  1.4647
18756TIP3    H277684   1.340   2.380  11.845  1.6187  0.5776 -2.9051
18757TIP3   OH277685   0.058   2.239  17.214  0.0387  0.2508 -0.4436
18757TIP3    H177686   0.105   2.189  17.148  0.9020 -1.1957  1.2079
18757TIP3    H277687  -0.033   2.213  17.203 -0.1962  1.5751 -2.3400
18758TIP3   OH277688   4.019   1.446  16.547 -0.0451 -0.5909  0.1961
18758TIP3    H177689   4.024   1.496  16.465 -3.2949 -2.1115 -1.1222
18758TIP3    H277690   4.070   1.367  16.531 -0.1921 -0.6131 -0.1771
18759TIP3   OH277691   0.056   6.723  10.577  0.4160  0.1418 -0.2462
18759TIP3    H177692   0.065   6.774  10.496 -0.2217  1.6292  0.5944
18759TIP3    H277693   0.003   6.777  10.634  2.5758  0.0749  1.9750
18760TIP3   OH277694   0.108   1.463  12.712 -0.9130 -0.4729  0.2241
18760TIP3    H177695   0.100   1.554  12.684 -0.0843 -0.3059  0.5043
18760TIP3    H277696   0.065   1.460  12.797  3.0211  0.8077  2.5411
18761TIP3   OH277697   1.539   6.470   0.185 -0.4586 -0.2213  0.1042
18761TIP3    H177698   1.444   6.476   0.177 -0.4055 -0.0281 -0.4281
18761TIP3    H277699   1.565   6.408   0.117 -0.2966 -1.0457  0.9027
18762TIP3   OH277700   1.367   2.472   4.975  0.5005 -0.1751  0.3658
18762TIP3    H177701   1.278   2.440   4.995  1.3321 -1.1988  2.8966
18762TIP3    H277702   1.358   2.517   4.892 -2.2127 -1.0530  0.0729
18763TIP3   OH277703   3.369   6.157  14.070 -0.3484 -0.5563  0.1890
18763TIP3    H177704   3.464   6.149  14.061 -0.1281 -2.4823  2.7426
18763TIP3    H277705   3.352   6.251  14.068  1.6653 -0.1484  0.1070
18764TIP3   OH277706   0.244   3.570   1.589  0.1262  0.1428  0.1673
18764TIP3    H177707   0.221   3.651   1.542  0.1620 -0.7821 -1.5103
18764TIP3    H277708   0.282   3.514   1.522  3.6358  0.0653  2.0047
18765TIP3   OH277709   5.354   5.516   4.548  0.0533 -0.2479 -0.4267
18765TIP3    H177710   5.339   5.606   4.577 -0.4175 -0.0347 -1.2988
18765TIP3    H277711   5.375   5.468   4.628  1.2079  0.8118 -0.0723
18766TIP3   OH277712   2.129   5.517  16.730 -0.0916  0.6474 -0.2382
18766TIP3    H177713   2.197   5.491  16.792 -0.7265 -0.0444  0.1807
18766TIP3    H277714   2.177   5.531  16.648  0.3038 -2.0549 -0.5537
18767TIP3   OH277715   0.472   5.710   6.553  0.1725  0.0693  0.2311
18767TIP3    H177716   0.395   5.727   6.608 -1.1722 -0.6206 -1.3573
18767TIP3    H277717   0.473   5.782   6.491  0.7064 -0.0221  0.1351
18768TIP3   OH277718   3.815   3.070  12.140 -0.0590  0.3299 -0.2369
18768TIP3    H177719   3.745   3.092  12.079 -0.1843 -2.0699 -1.0849
18768TIP3    H277720   3.891   3.052  12.084  0.0973 -0.9768  0.3532
18769TIP3   OH277721   4.164   3.019  11.094  0.5048 -0.5021  0.3272
18769TIP3    H177722   4.082   2.972  11.080  1.2236 -1.7652  0.2880
18769TIP3    H277723   4.227   2.976  11.037  0.4926  2.6221 -2.3385
18770TIP3   OH277724   3.831   6.451   3.808 -0.0514 -0.4788 -0.4195
18770TIP3    H177725   3.822   6.413   3.896 -2.2168  0.0259 -0.3833
18770TIP3    H277726   3.761   6.410   3.757  0.3106  0.2715 -1.5501
18771TIP3   OH277727   1.697   0.595   0.011  0.5649 -0.2501  0.0219
18771TIP3    H177728   1.751   0.540  -0.045  0.9168 -0.1446  0.2544
18771TIP3    H277729   1.684   0.544   0.090 -0.3307 -0.5962 -0.3340
18772TIP3   OH277730   4.327   0.269  17.341  0.1051  0.1167 -0.0063
18772TIP3    H177731   4.351   0.185  17.303  0.3245 -0.6236  1.6563
18772TIP3    H277732   4.232   0.265  17.351  0.2312 -0.4332  1.1233
18773TIP3   OH277733   4.894   3.680  16.309 -0.4161  0.0398  0.1836
18773TIP3    H177734   4.935   3.637  16.234 -1.1371  0.7536 -0.6377
18773TIP3    H277735   4.817   3.725  16.273 -0.0830  1.4400  1.1144
18774TIP3   OH277736   4.533   3.588   2.291 -0.7505  0.4245  0.4290
18774TIP3    H177737   4.557   3.660   2.350  0.1576  1.6268 -1.3075
18774TIP3    H277738   4.615   3.540   2.278 -1.1731 -0.4692  0.9137
18775TIP3   OH277739   0.415   1.670   2.933 -0.4438 -0.3518  0.2884
18775TIP3    H177740   0.504   1.703   2.920 -0.5763 -0.7734 -2.0299
18775TIP3    H277741   0.363   1.710   2.864 -1.6131 -1.6984  0.3321
18776TIP3   OH277742   5.734   2.088   4.681 -0.1448  0.1097  0.3835
18776TIP3    H177743   5.756   2.148   4.610 -1.4877 -0.0942 -0.2309
18776TIP3    H277744   5.685   2.017   4.639 -0.2009 -0.4678  1.3784
18777TIP3   OH277745   2.646   0.520   3.144  0.1606 -0.2666  0.4715
18777TIP3    H177746   2.640   0.557   3.056 -2.1007 -2.8560 -0.6352
18777TIP3    H277747   2.734   0.484   3.150  0.7117  0.9380 -0.2790
18778TIP3   OH277748   4.144   1.722  17.162 -0.8466 -0.2761 -0.1223
18778TIP3    H177749   4.138   1.638  17.116 -2.2634 -1.2038  1.6135
18778TIP3    H277750   4.111   1.703  17.250 -0.4561  1.9444  0.5628
18779TIP3   OH277751   3.318   5.555   2.731  0.2834  0.7159 -0.3401
18779TIP3    H177752   3.412   5.542   2.748 -0.2054 -0.1672  2.0476
18779TIP3    H277753   3.301   5.503   2.653  1.4269 -0.6418  0.2723
18780TIP3   OH277754   5.644   6.396   2.836  0.2229  0.5049 -0.4361
18780TIP3    H177755   5.634   6.378   2.742  0.5507  0.8114 -0.5312
18780TIP3    H277756   5.580   6.465   2.854  0.2844  0.5703 -0.4698
18781TIP3   OH277757   2.817   2.344   3.113  0.4499  0.3884 -0.4799
18781TIP3    H177758   2.904   2.370   3.080  0.5717  1.3425  0.5296
18781TIP3    H277759   2.836   2.282   3.183  0.4196  1.7837  0.8089
18782TIP3   OH277760   6.116   4.184  12.502  0.5573 -0.6338 -0.2639
18782TIP3    H177761   6.104   4.090  12.489  2.6564 -1.0968  0.7074
18782TIP3    H277762   6.126   4.220  12.414  0.0501 -1.3616 -0.6275
18783TIP3   OH277763   6.326   3.872   2.984 -0.6482 -0.5441 -0.2012
18783TIP3    H177764   6.268   3.940   3.017  0.0616  0.1368 -0.3319
18783TIP3    H277765   6.303   3.864   2.892 -0.4019 -0.1298 -0.3016
18784TIP3   OH277766   4.476   5.076  14.540  0.3806  0.0867 -0.3142
18784TIP3    H177767   4.555   5.059  14.590  1.1142  1.0679 -1.0853
18784TIP3    H277768   4.460   4.995  14.491  1.1888  0.0410 -0.5113
18785TIP3   OH277769   0.964   6.225   2.624 -0.4318  0.3567 -0.9446
18785TIP3    H177770   0.931   6.144   2.586 -0.7945 -0.3416  0.7968
18785TIP3    H277771   1.053   6.233   2.588 -0.0302 -1.3240 -0.4169
18786TIP3   OH277772   2.929   5.878  14.801  0.3695 -0.3210 -0.1310
18786TIP3    H177773   2.977   5.926  14.734 -2.9615 -0.0049 -2.5644
18786TIP3    H277774   2.995   5.826  14.846  3.1783  1.5393 -1.8392
18787TIP3   OH277775   5.290   2.727   1.328 -0.1325 -0.5225 -0.5705
18787TIP3    H177776   5.274   2.711   1.421 -1.6843 -0.2338 -0.7638
18787TIP3    H277777   5.359   2.793   1.327 -0.0898 -0.5301  0.3678
18788TIP3   OH277778   3.170   3.814   2.142  0.1168 -0.4845  0.7079
18788TIP3    H177779   3.158   3.892   2.196 -1.8331 -1.5986  2.0492
18788TIP3    H277780   3.134   3.837   2.057 -1.1714 -0.1219  1.3255
18789TIP3   OH277781   6.066   3.163  14.243 -0.1601  0.0042 -0.2599
18789TIP3    H177782   6.059   3.069  14.225  0.0522  0.1563 -1.1914
18789TIP3    H277783   6.146   3.171  14.296 -1.4171 -0.5867  1.8309
18790TIP3   OH277784   1.395   5.623   1.531  0.2471 -0.0398  0.1644
18790TIP3    H177785   1.412   5.537   1.569  1.8530  0.6245  1.0676
18790TIP3    H277786   1.338   5.667   1.595 -0.9018 -0.5382 -0.4862
18791TIP3   OH277787   2.654   6.122  11.296  0.6108 -0.5251  0.2368
18791TIP3    H177788   2.690   6.209  11.288 -0.1082 -0.1067  1.2501
18791TIP3    H277789   2.666   6.099  11.388 -1.9642 -0.2036  0.7260
18792TIP3   OH277790   1.211   6.240   3.648 -0.5141 -0.0831  0.3018
18792TIP3    H177791   1.131   6.279   3.614 -0.6167  0.4665  1.1537
18792TIP3    H277792   1.207   6.255   3.743  0.1994 -0.7732  0.4530
18793TIP3   OH277793   1.972   2.082   1.667 -0.1609  0.1231  0.5914
18793TIP3    H177794   2.010   2.099   1.753  0.7911  1.1597 -0.0115
18793TIP3    H277795   2.017   2.143   1.608 -0.9995 -0.3640 -0.5930
18794TIP3   OH277796   3.285   5.526  16.489  0.7452 -0.6751 -0.3566
18794TIP3    H177797   3.203   5.520  16.438  0.7683  0.4785 -0.5437
18794TIP3    H277798   3.341   5.458  16.451  0.4762 -0.3583 -1.3735
18795TIP3   OH277799   6.142   5.104  11.003  0.2748  0.5239  0.3197
18795TIP3    H177800   6.075   5.091  10.935 -0.1340 -0.5569  0.8962
18795TIP3    H277801   6.219   5.133  10.956  0.1817 -0.7822 -0.7113
18796TIP3   OH277802   3.173   6.648  13.002  0.2229 -0.0934 -0.0242
18796TIP3    H177803   3.176   6.573  12.942  0.4267  1.4097 -1.9690
18796TIP3    H277804   3.079   6.663  13.015  0.1778 -0.7883  0.5644
18797TIP3   OH277805   6.586   5.937  13.344  0.2770 -0.1407  0.6896
18797TIP3    H177806   6.584   5.847  13.375  0.6216 -0.9260 -1.3844
18797TIP3    H277807   6.575   5.991  13.423  1.6648 -1.9390  2.1715
18798TIP3   OH277808   1.620   5.932  14.596  0.4125 -0.5688  0.1192
18798TIP3    H177809   1.592   6.016  14.632  1.9141  0.8267 -1.7997
18798TIP3    H277810   1.691   5.903  14.653 -0.4292 -0.8294  1.0716
18799TIP3   OH277811   2.585   1.250  12.479 -0.2337  0.6260 -0.0232
18799TIP3    H177812   2.648   1.235  12.549 -0.4186  0.5440  0.1253
18799TIP3    H277813   2.578   1.164  12.435 -1.6967  0.1075  1.1579
18800TIP3   OH277814   0.712   4.733   0.364  0.2086 -0.0343  0.6384
18800TIP3    H177815   0.660   4.683   0.301  0.1867 -0.8976  1.3225
18800TIP3    H277816   0.743   4.668   0.427 -0.9005  0.9831  2.3141
18801TIP3   OH277817   1.310   0.965   4.439 -0.7639  0.4289  0.1515
18801TIP3    H177818   1.321   0.870   4.427 -0.0486 -0.0500  3.4684
18801TIP3    H277819   1.240   0.972   4.504 -0.4314  2.1493  0.3563
18802TIP3   OH277820   1.813   5.786  12.246 -0.2381 -0.0082 -0.4912
18802TIP3    H177821   1.838   5.806  12.336 -0.3277 -2.2829  0.1058
18802TIP3    H277822   1.757   5.859  12.220  0.9161  1.3808  0.7919
18803TIP3   OH277823   5.185   0.642   3.794 -0.5359 -0.0187  0.7051
18803TIP3    H177824   5.271   0.617   3.828  0.1850  1.1545 -0.1325
18803TIP3    H277825   5.145   0.693   3.864  0.3198  1.1276  0.4024
18804TIP3   OH277826   6.448   5.184  15.421 -0.2495  0.0123  0.0279
18804TIP3    H177827   6.412   5.125  15.488  0.8846  1.4104  2.0029
18804TIP3    H277828   6.514   5.235  15.468  2.1481 -0.3584 -2.6868
18805TIP3   OH277829   1.499   1.195  13.411  0.1021 -0.3568 -0.4247
18805TIP3    H177830   1.546   1.263  13.362 -0.9579  1.5477  1.0316
18805TIP3    H277831   1.561   1.166  13.478 -0.3725  1.4487  0.8771
18806TIP3   OH277832   0.639   3.378   3.736  0.3336 -0.0962 -0.2126
18806TIP3    H177833   0.686   3.295   3.725 -1.0981 -0.9838  0.1205
18806TIP3    H277834   0.702   3.435   3.780  1.2317 -1.1071 -0.1405
18807TIP3   OH277835   0.445   6.294   6.656  0.4520 -0.6055 -0.4434
18807TIP3    H177836   0.508   6.359   6.627 -2.0950  1.7769 -1.0052
18807TIP3    H277837   0.408   6.329   6.736 -0.5529 -1.6641 -0.4058
18808TIP3   OH277838   5.224   4.871  14.578 -0.7752  0.0955  0.0385
18808TIP3    H177839   5.224   4.776  14.576 -1.4522  0.0972 -1.9742
18808TIP3    H277840   5.317   4.895  14.576 -0.6102 -0.4990  0.4103
18809TIP3   OH277841   6.054   5.048  15.149 -0.0185  0.0573  0.5956
18809TIP3    H177842   6.007   5.132  15.146  0.6883  0.4305 -1.6762
18809TIP3    H277843   6.123   5.062  15.214 -1.9542  0.0487  2.7691
18810TIP3   OH277844   4.756   0.342  11.333  0.1346 -0.3357  0.4065
18810TIP3    H177845   4.735   0.278  11.265  0.0034 -0.3068  0.4201
18810TIP3    H277846   4.782   0.290  11.408  0.4820 -0.3643  0.2667
18811TIP3   OH277847   5.391   2.938  14.336 -0.2922 -0.2090 -0.3256
18811TIP3    H177848   5.325   2.988  14.384 -0.3339  1.7363 -2.2234
18811TIP3    H277849   5.467   2.937  14.394 -1.6219 -1.6173  1.4755
18812TIP3   OH277850   5.520   1.456   1.387  0.4347  0.5880 -0.2162
18812TIP3    H177851   5.561   1.535   1.351  0.2574  0.9864  0.4365
18812TIP3    H277852   5.439   1.447   1.337 -0.0124  1.3727  0.3373
18813TIP3   OH277853   4.104   4.558  10.814 -0.1886 -0.3918  0.2414
18813TIP3    H177854   4.182   4.598  10.851 -1.1521  0.7448  1.1456
18813TIP3    H277855   4.135   4.480  10.768  1.5504  0.4690 -0.0995
18814TIP3   OH277856   6.008   0.120  11.962  0.2566 -0.2900  0.2011
18814TIP3    H177857   6.091   0.078  11.937  0.9406  1.9090 -1.6277
18814TIP3    H277858   5.960   0.052  12.009  1.1905 -3.1630 -2.6161
18815TIP3   OH277859   4.298   1.861  10.901 -0.8076 -0.6893 -0.0939
18815TIP3    H177860   4.371   1.867  10.840 -0.9859 -0.4317 -0.2843
18815TIP3    H277861   4.301   1.771  10.933 -0.2792 -0.6212  0.0615
18816TIP3   OH277862   6.161   5.017   2.504  0.4169  0.2999  0.0636
18816TIP3    H177863   6.134   5.063   2.583  0.8089  1.4818 -0.4492
18816TIP3    H277864   6.167   4.925   2.529 -1.6324  0.3363  0.8186
18817TIP3   OH277865   0.457   2.301  17.228  0.1911  0.0915 -0.6751
18817TIP3    H177866   0.422   2.380  17.268  1.6869 -0.0569  1.0526
18817TIP3    H277867   0.414   2.229  17.274 -1.0737 -0.1599 -2.1567
18818TIP3   OH277868   0.175   4.767  12.114 -0.3908 -0.3856  0.0523
18818TIP3    H177869   0.094   4.743  12.159 -1.1587 -0.4677 -1.3148
18818TIP3    H277870   0.200   4.687  12.067 -0.1957  0.0103 -0.5188
18819TIP3   OH277871   0.979   4.330  12.723  0.2918  0.3589  0.1483
18819TIP3    H177872   0.965   4.301  12.813 -0.9287  1.3657  0.3004
18819TIP3    H277873   0.892   4.357  12.692  0.1094 -2.3886 -2.2356
18820TIP3   OH277874   1.202   0.092  15.006  0.0445 -0.5649 -0.4118
18820TIP3    H177875   1.183   0.125  15.093  0.1523  0.9166 -0.9138
18820TIP3    H277876   1.283   0.137  14.980 -1.3011  0.9768 -2.2213
18821TIP3   OH277877   5.949   3.950  15.261  0.1649  0.2373 -0.6970
18821TIP3    H177878   5.941   4.045  15.250 -0.3321  0.5348  1.5903
18821TIP3    H277879   5.980   3.940  15.351 -0.2895 -1.7953 -0.7348
18822TIP3   OH277880   5.129   3.810   0.503  0.0629 -0.1847 -0.3994
18822TIP3    H177881   5.202   3.800   0.563  1.2391 -0.1637 -1.7653
18822TIP3    H277882   5.161   3.775   0.419 -1.0908  0.8428 -1.3165
18823TIP3   OH277883   3.052   6.550   5.391 -0.4311 -0.1411  0.0668
18823TIP3    H177884   3.006   6.541   5.308 -1.1026 -0.9989  0.5165
18823TIP3    H277885   3.075   6.461   5.416  1.1307  0.2371  0.0582
18824TIP3   OH277886   1.067   1.497  12.601 -0.6245 -0.0862  0.0167
18824TIP3    H177887   1.036   1.582  12.633 -0.2694 -0.6046  1.9001
18824TIP3    H277888   1.116   1.517  12.522  0.0808  1.5746  0.8281
18825TIP3   OH277889   5.189   2.887   1.992 -0.1227  0.1577 -0.4143
18825TIP3    H177890   5.184   2.864   1.899 -0.9285 -1.1192 -0.0773
18825TIP3    H277891   5.160   2.808   2.037 -1.5631  1.3680  0.8745
18826TIP3   OH277892   5.476   1.544   4.809 -0.7555 -0.5751  0.0324
18826TIP3    H177893   5.454   1.584   4.894  0.8948 -0.4396  0.4198
18826TIP3    H277894   5.490   1.619   4.751 -1.6252 -0.6663 -0.3061
18827TIP3   OH277895   2.862   2.630  14.834 -0.6651  0.3434 -0.2808
18827TIP3    H177896   2.932   2.688  14.804 -0.6309  0.1465 -0.5837
18827TIP3    H277897   2.896   2.592  14.915 -1.9379  3.1533  1.7516
18828TIP3   OH277898   1.915   4.255   1.452 -0.3868  0.3485  0.8353
18828TIP3    H177899   1.873   4.223   1.532 -0.6337 -1.7847 -0.0762
18828TIP3    H277900   1.995   4.203   1.444 -0.3802  0.5105 -0.3037
18829TIP3   OH277901   2.991   5.731   1.972  0.4555  0.4689  0.2680
18829TIP3    H177902   3.071   5.699   1.930  0.2799  0.0947  0.2134
18829TIP3    H277903   2.983   5.680   2.052  1.6607  2.2925  1.6224
18830TIP3   OH277904   1.108   4.356  14.441 -0.0983 -0.4199 -0.0759
18830TIP3    H177905   1.037   4.292  14.433  0.7545 -1.5835  1.1190
18830TIP3    H277906   1.184   4.313  14.402  0.1882  0.3924 -0.4245
18831TIP3   OH277907   3.383   5.818   1.623  0.6489  0.1986  0.1774
18831TIP3    H177908   3.462   5.784   1.665  2.1957  2.5226 -0.6679
18831TIP3    H277909   3.405   5.822   1.530 -0.2770  1.3503 -0.0207
18832TIP3   OH277910   4.257   0.811  16.712 -0.7039 -0.2698  0.6758
18832TIP3    H177911   4.246   0.773  16.625 -0.0208  1.6079 -0.2784
18832TIP3    H277912   4.338   0.773  16.745 -0.7422 -0.6652  0.3131
18833TIP3   OH277913   3.437   3.227  14.611  0.1331 -0.2126  0.0846
18833TIP3    H177914   3.421   3.206  14.703  0.2951 -0.6505  0.0131
18833TIP3    H277915   3.458   3.321  14.612  1.4723 -0.4942  0.6684
18834TIP3   OH277916   2.949   5.035   2.881  0.3893 -0.1329 -0.4918
18834TIP3    H177917   3.024   5.081   2.844  0.9800  0.4293  1.3283
18834TIP3    H277918   2.986   4.976   2.947 -0.7356 -0.0396  0.2580
18835TIP3   OH277919   6.350   6.614  15.178  0.5776 -0.4271 -0.3646
18835TIP3    H177920   6.325   6.575  15.095  0.0360 -0.2537 -0.2861
18835TIP3    H277921   6.402   6.546  15.222 -0.8525 -1.3203  0.0292
18836TIP3   OH277922   3.417   2.642   2.871 -0.3859 -0.0690  0.5640
18836TIP3    H177923   3.424   2.583   2.796  0.4388  0.0190  0.5681
18836TIP3    H277924   3.390   2.585   2.943  1.1339 -0.6036  0.7470
18837TIP3   OH277925   1.351   2.406  16.060  0.1154  0.1149  0.9581
18837TIP3    H177926   1.294   2.480  16.079  0.0329 -0.2864  2.4404
18837TIP3    H277927   1.336   2.345  16.133  0.0643 -1.4404 -0.3008
18838TIP3   OH277928   3.438   2.457  10.945  0.0495 -0.5630 -0.6119
18838TIP3    H177929   3.349   2.476  10.918 -0.2748  0.2375  0.8698
18838TIP3    H277930   3.489   2.455  10.864 -1.2226 -0.5833 -1.4332
18839TIP3   OH277931   4.924   3.967   5.754  0.0535 -0.0383  0.0629
18839TIP3    H177932   4.837   4.007   5.758  0.1344  0.0781  1.1717
18839TIP3    H277933   4.920   3.895   5.817  0.0937 -1.4440 -1.4698
18840TIP3   OH277934   2.676   6.358   2.849 -0.5086 -0.3725 -0.0970
18840TIP3    H177935   2.719   6.442   2.833 -0.3884 -0.6638 -1.4271
18840TIP3    H277936   2.636   6.368   2.936 -0.6792  1.1362 -0.3132
18841TIP3   OH277937   2.551   3.946   2.798 -0.3440  0.1430  0.3998
18841TIP3    H177938   2.573   3.931   2.890 -3.2748  2.3696  1.6362
18841TIP3    H277939   2.490   4.020   2.799 -1.8495 -0.7929 -3.1882
18842TIP3   OH277940   5.060   4.956   2.139 -0.4084  0.3169 -0.5113
18842TIP3    H177941   4.980   4.955   2.086  0.0209 -1.4592 -1.1948
18842TIP3    H277942   5.083   4.864   2.150  3.1386  0.7151 -2.8413
18843TIP3   OH277943   6.494   5.482   6.595  1.0297  0.0411 -0.4005
18843TIP3    H177944   6.407   5.522   6.586  0.4396 -0.9923  0.4368
18843TIP3    H277945   6.525   5.474   6.505  0.3839  0.6995 -0.6937
18844TIP3   OH277946   1.335   6.655  16.083 -0.9942 -0.3658 -0.1742
18844TIP3    H177947   1.245   6.689  16.086 -0.9510 -0.3235  1.9441
18844TIP3    H277948   1.389   6.731  16.105 -0.3861 -0.3377 -1.6601
18845TIP3   OH277949   2.932   2.829   6.163 -0.5000 -0.0464  0.6953
18845TIP3    H177950   2.919   2.914   6.205 -1.7427  0.1082  0.0589
18845TIP3    H277951   2.947   2.768   6.235  0.7759  0.7487  1.1418
18846TIP3   OH277952   4.767   3.221   6.177 -0.3822 -0.1561  0.1598
18846TIP3    H177953   4.814   3.160   6.120 -0.5538 -0.2715  0.1438
18846TIP3    H277954   4.804   3.307   6.154  0.6450 -0.3724  0.9700
18847TIP3   OH277955   3.841   5.429   2.536 -0.0074  0.4227 -0.3098
18847TIP3    H177956   3.829   5.444   2.630 -0.4943 -0.3652 -0.2385
18847TIP3    H277957   3.797   5.346   2.519 -0.1269  0.6696 -1.2822
18848TIP3   OH277958   4.200   2.269  14.142 -0.0555 -0.3001 -0.1712
18848TIP3    H177959   4.289   2.296  14.165  0.1326  0.1141 -1.2846
18848TIP3    H277960   4.143   2.330  14.189  0.3196  0.7328 -1.0078
18849TIP3   OH277961   2.239   1.591  13.638 -1.1515 -0.1989 -0.5680
18849TIP3    H177962   2.210   1.667  13.687  0.6601  0.8369 -1.0411
18849TIP3    H277963   2.289   1.626  13.564  0.6426 -1.8300 -0.2229
18850TIP3   OH277964   3.531   4.848   5.963  0.3091 -0.0919 -0.1231
18850TIP3    H177965   3.521   4.789   6.038 -1.6841  0.4481  0.0861
18850TIP3    H277966   3.465   4.818   5.900 -2.8378  3.4916  1.1264
18851TIP3   OH277967   5.103   3.675  16.503  0.9240  0.1042 -0.1043
18851TIP3    H177968   5.042   3.709  16.437  1.3727 -0.4972 -0.8435
18851TIP3    H277969   5.064   3.591  16.530  0.5203  0.5438  0.7232
18852TIP3   OH277970   1.944   4.981   5.119 -0.3562 -0.6130  0.9508
18852TIP3    H177971   2.028   4.986   5.166 -0.3740  0.6148  0.8836
18852TIP3    H277972   1.879   5.007   5.184 -0.5061 -0.0315  0.5722
18853TIP3   OH277973   1.882   1.243   2.684 -0.0466  0.0464 -0.3468
18853TIP3    H177974   1.946   1.177   2.710  1.7932  2.3470  1.4443
18853TIP3    H277975   1.906   1.321   2.735 -2.5526  1.8883 -1.7602
18854TIP3   OH277976   2.119   4.354   6.257 -0.3187  0.3737  0.9409
18854TIP3    H177977   2.148   4.412   6.187 -2.3630 -0.3569 -0.5922
18854TIP3    H277978   2.124   4.266   6.218 -1.6093 -0.0322  1.6529
18855TIP3   OH277979   1.028   0.797  10.969 -0.0766  0.5307 -0.0357
18855TIP3    H177980   0.992   0.851  11.040  0.6005  2.4185 -1.0539
18855TIP3    H277981   0.987   0.711  10.981  1.0906  0.3036  3.4759
18856TIP3   OH277982   3.706   1.857   5.956 -0.3726  0.5492 -0.0898
18856TIP3    H177983   3.645   1.808   5.900 -1.6673  1.4883  0.4331
18856TIP3    H277984   3.656   1.935   5.982  1.0862  1.3670  0.3403
18857TIP3   OH277985   0.667   5.012  16.958  0.2669 -0.5473 -0.2498
18857TIP3    H177986   0.605   5.080  16.933 -0.2421 -1.1547 -0.6656
18857TIP3    H277987   0.698   5.037  17.045  0.7853  0.7036 -0.7799
18858TIP3   OH277988   6.761   2.899  15.494 -0.2509 -0.4279 -0.1461
18858TIP3    H177989   6.678   2.879  15.537 -0.6457  1.1879 -0.1189
18858TIP3    H277990   6.827   2.858  15.550 -0.9151 -0.2686  0.7765
18859TIP3   OH277991   0.191   5.696  14.037  0.3988  0.1217 -0.2526
18859TIP3    H177992   0.227   5.608  14.027 -0.0467 -0.0797 -0.0994
18859TIP3    H277993   0.204   5.737  13.952  2.3443  0.5704  0.2012
18860TIP3   OH277994   0.137   3.062  16.538 -0.3087  0.2566  0.1832
18860TIP3    H177995   0.071   3.104  16.593 -0.0484 -1.8016  2.2349
18860TIP3    H277996   0.216   3.114  16.551 -0.7546  0.9493  0.1633
18861TIP3   OH277997   3.677   3.667   4.958  0.5053  0.2530 -0.7458
18861TIP3    H177998   3.682   3.592   4.898 -1.6766  0.5323 -1.3641
18861TIP3    H277999   3.677   3.629   5.045  0.4380 -0.4054 -1.0310
18862TIP3   OH278000   0.585   0.287  15.918  0.3404 -0.7569  0.0465
18862TIP3    H178001   0.557   0.378  15.911  1.2696 -0.1380  2.7961
18862TIP3    H278002   0.504   0.238  15.932 -0.0065 -0.0363  0.6403
18863TIP3   OH278003   6.077   0.205   1.503 -0.2129  0.9418 -0.0490
18863TIP3    H178004   6.010   0.148   1.540  1.1569  0.2600  1.4727
18863TIP3    H278005   6.092   0.272   1.569  0.8282  0.9030 -0.2245
18864TIP3   OH278006   2.226   5.967   0.943  0.0325  0.1728  0.5499
18864TIP3    H178007   2.138   5.931   0.956 -0.5472  1.5635  0.6107
18864TIP3    H278008   2.274   5.939   1.021 -0.6749  0.3140  1.0506
18865TIP3   OH278009   0.923   5.669  13.377 -0.1401 -0.1702  0.1295
18865TIP3    H178010   0.886   5.583  13.356 -0.1915 -0.1141 -0.0117
18865TIP3    H278011   0.899   5.724  13.302  0.0218 -0.0712  0.1508
18866TIP3   OH278012   5.516   6.594   0.589  0.4775 -0.3749 -0.2179
18866TIP3    H178013   5.466   6.553   0.659  0.1803  0.4616  0.0655
18866TIP3    H278014   5.461   6.665   0.557  0.2350 -1.2485 -1.8828
18867TIP3   OH278015   4.756   3.120   0.659  0.8467  0.5406 -0.1711
18867TIP3    H178016   4.816   3.194   0.666 -0.1041  1.4592 -1.3645
18867TIP3    H278017   4.811   3.048   0.626  0.8489  2.1363 -4.2158
18868TIP3   OH278018   4.735   6.649  10.994 -0.2429  0.0960  0.4292
18868TIP3    H178019   4.779   6.653  10.909 -1.3657  1.8838 -0.1108
18868TIP3    H278020   4.804   6.622  11.055  0.5251 -1.4755 -1.0474
18869TIP3   OH278021   1.443   0.018  14.597  0.0689  0.4908  0.3383
18869TIP3    H178022   1.385  -0.045  14.638  0.7831  0.1497  0.8482
18869TIP3    H278023   1.432   0.004  14.503  0.8788 -1.0325  0.4378
18870TIP3   OH278024   1.595   3.388  14.474  0.1907 -0.1607  0.2967
18870TIP3    H178025   1.549   3.459  14.517  1.5916  0.4340  0.8989
18870TIP3    H278026   1.681   3.386  14.517  0.3626 -1.8887 -0.0502
18871TIP3   OH278027   1.299   6.199  12.059  0.1504  0.3759  0.8872
18871TIP3    H178028   1.304   6.242  11.973 -0.1831  0.6044  0.9817
18871TIP3    H278029   1.321   6.268  12.121  1.2988 -0.0135  0.9322
18872TIP3   OH278030   5.691   1.857   4.900  0.0924  0.0206  0.1793
18872TIP3    H178031   5.633   1.923   4.938 -1.0806 -1.4146  0.9795
18872TIP3    H278032   5.690   1.876   4.806  0.8408  1.9193  0.5085
18873TIP3   OH278033   3.422   1.699   1.335  0.2565 -0.5208  0.7435
18873TIP3    H178034   3.401   1.609   1.362  1.1937 -0.1247  2.9878
18873TIP3    H278035   3.371   1.754   1.393  0.6861  0.4084  0.2527
18874TIP3   OH278036   2.033   5.156  12.209  0.6158 -0.0801  0.0138
18874TIP3    H178037   2.010   5.186  12.297  0.5561  0.5567 -0.2098
18874TIP3    H278038   2.097   5.220  12.179  1.2104 -0.7307 -0.1163
18875TIP3   OH278039   1.572   5.297  14.140 -0.3466  0.3796 -0.2568
18875TIP3    H178040   1.535   5.209  14.141  1.1033 -0.3046 -1.4336
18875TIP3    H278041   1.514   5.349  14.195 -3.3937 -0.4423 -2.4260
18876TIP3   OH278042   3.088   2.252  10.878  0.1569 -0.4036  0.3123
18876TIP3    H178043   3.148   2.204  10.936  0.0292 -0.5233  0.3474
18876TIP3    H278044   3.097   2.209  10.793 -1.0066 -1.4197  0.6742
18877TIP3   OH278045   3.090   6.076   0.043  0.2492  0.6196 -0.1749
18877TIP3    H178046   3.148   6.012   0.083  0.5748 -0.8459 -2.7565
18877TIP3    H278047   3.149   6.144   0.009  0.2683  0.2908 -0.8114
18878TIP3   OH278048   2.635   4.392  14.540  0.1211 -0.0071 -1.2248
18878TIP3    H178049   2.724   4.385  14.504  0.0113  0.7918 -1.6556
18878TIP3    H278050   2.647   4.436  14.624  0.0750  0.5372 -1.5054
18879TIP3   OH278051   1.021   5.113  15.435 -0.1737 -0.1809  0.4654
18879TIP3    H178052   1.065   5.196  15.417 -0.5498  0.0327  0.5260
18879TIP3    H278053   1.026   5.065  15.352  1.3169 -0.7085  0.8094
18880TIP3   OH278054   3.871   0.508   0.119 -0.1063  0.7259  0.3506
18880TIP3    H178055   3.883   0.435   0.180 -0.3596  0.8618  0.5619
18880TIP3    H278056   3.811   0.567   0.163 -1.2477  0.2570 -0.5251
18881TIP3   OH278057   5.049   6.745   3.012  0.0175  0.2527 -0.1640
18881TIP3    H178058   5.098   6.666   2.986  0.2638  0.7060 -1.1251
18881TIP3    H278059   5.108   6.791   3.071 -0.3751 -0.5736  0.9221
18882TIP3   OH278060   4.160   1.837  16.092 -0.0658 -0.7652  0.1396
18882TIP3    H178061   4.116   1.819  16.175 -1.0233 -0.2974 -0.2558
18882TIP3    H278062   4.145   1.758  16.039  1.3757 -1.4709  0.7305
18883TIP3   OH278063   4.965   0.745  12.836  0.5323 -0.2260 -0.5422
18883TIP3    H178064   4.948   0.725  12.744  0.9448  1.4068 -0.9991
18883TIP3    H278065   5.010   0.829  12.835 -0.0336  0.1393  1.1956
18884TIP3   OH278066   4.774   3.085  15.933 -0.3604  0.3173  0.0015
18884TIP3    H178067   4.867   3.102  15.918  0.0442 -2.7993 -2.2195
18884TIP3    H278068   4.736   3.170  15.953  3.0190  1.6133  1.5531
18885TIP3   OH278069   4.189   4.270   1.860  0.2505  0.1695 -0.2456
18885TIP3    H178070   4.244   4.293   1.935 -0.3008 -0.4074  0.3452
18885TIP3    H278071   4.202   4.175   1.850 -0.1250  0.1474 -0.5182
18886TIP3   OH278072   0.736   3.370  13.533 -0.1246 -0.1975  0.7548
18886TIP3    H178073   0.701   3.325  13.610  1.2355  0.6044  1.9129
18886TIP3    H278074   0.723   3.463  13.553 -0.5439  0.0037 -0.4044
18887TIP3   OH278075   4.358   4.234  15.722 -0.2023  0.4055 -0.1080
18887TIP3    H178076   4.440   4.281  15.711 -0.5558  0.9968 -0.2679
18887TIP3    H278077   4.309   4.250  15.641 -0.3738 -0.1384 -0.1134
18888TIP3   OH278078   0.491   6.356  12.353 -0.4114 -0.2125 -0.5127
18888TIP3    H178079   0.571   6.363  12.302  0.3393 -2.5889  0.1810
18888TIP3    H278080   0.460   6.446  12.363  2.5087  0.8601 -0.2716
18889TIP3   OH278081   5.872   5.486   2.639 -0.2936 -0.2619  0.1736
18889TIP3    H178082   5.843   5.571   2.673  0.7223 -0.0123  0.4733
18889TIP3    H278083   5.823   5.422   2.690 -0.5187  0.1424  0.4710
18890TIP3   OH278084   2.252   4.770  11.644 -0.6759  0.5684  0.0710
18890TIP3    H178085   2.225   4.746  11.732  2.0996  0.3968  0.9570
18890TIP3    H278086   2.284   4.860  11.652  0.1523  0.3505 -0.6332
18891TIP3   OH278087   2.113   5.195  16.943  0.0577  0.3806 -0.0423
18891TIP3    H178088   2.052   5.263  16.971  2.1128  2.4132 -0.1227
18891TIP3    H278089   2.115   5.201  16.848  0.3981  0.3758 -0.0395
18892TIP3   OH278090   1.547   2.552  14.692  0.2797  0.5827 -0.1646
18892TIP3    H178091   1.552   2.502  14.774  3.1111  1.9786  0.6478
18892TIP3    H278092   1.455   2.547  14.666 -0.5515 -0.6227  2.6496
18893TIP3   OH278093   1.603   1.641  10.957  0.1910  0.1408 -0.3973
18893TIP3    H178094   1.608   1.615  11.049 -0.9039  0.1405 -0.3324
18893TIP3    H278095   1.691   1.673  10.937  1.1404 -2.0373 -0.0184
18894TIP3   OH278096   5.274   3.377   1.779 -0.1635 -0.2541 -0.0759
18894TIP3    H178097   5.278   3.420   1.865 -2.5731  1.0201 -0.5151
18894TIP3    H278098   5.271   3.283   1.799 -1.3569  0.0381  1.3094
18895TIP3   OH278099   2.180   4.059   5.894 -0.4255  0.1176 -0.7457
18895TIP3    H178100   2.212   4.146   5.870 -0.2349 -0.2088 -1.7427
18895TIP3    H278101   2.256   4.002   5.885 -0.2198  0.0310  1.1594
18896TIP3   OH278102   3.628   3.090  11.928 -0.7616  0.5215  0.3025
18896TIP3    H178103   3.581   3.006  11.930 -1.6677  0.9833 -0.4486
18896TIP3    H278104   3.566   3.153  11.966 -1.1264  1.3026 -1.4891
18897TIP3   OH278105   2.104   0.967   2.145 -0.1580 -0.0566  0.0551
18897TIP3    H178106   2.071   1.051   2.178  0.2257 -0.0447  0.4203
18897TIP3    H278107   2.185   0.990   2.099 -1.8213  0.2726 -3.0207
18898TIP3   OH278108   4.450   4.214   2.984 -0.3144  0.5071 -0.1381
18898TIP3    H178109   4.470   4.294   3.032  0.0026  0.8909 -0.8952
18898TIP3    H278110   4.399   4.243   2.909  1.1279  0.2289 -1.2901
18899TIP3   OH278111   4.524   2.728  12.644 -0.2117 -0.1785 -0.4577
18899TIP3    H178112   4.470   2.675  12.703 -0.6411 -0.9571 -1.5218
18899TIP3    H278113   4.508   2.690  12.557 -0.0454  1.3107 -1.1571
18900TIP3   OH278114   2.855   2.287   1.405  0.2181  0.1110  0.9494
18900TIP3    H178115   2.768   2.289   1.447  0.2098 -1.0878  1.0091
18900TIP3    H278116   2.892   2.373   1.423 -2.3271  2.0719 -2.0456
18901TIP3   OH278117   5.705   5.152  11.304  0.2218  0.0640 -0.0898
18901TIP3    H178118   5.688   5.231  11.355  0.9057  0.8745 -1.0774
18901TIP3    H278119   5.756   5.096  11.363 -1.2525 -0.1696  1.0241
18902TIP3   OH278120   3.104   5.867   1.612  0.1172 -0.2003 -0.5998
18902TIP3    H178121   3.059   5.873   1.528  1.1317  1.8187 -1.0632
18902TIP3    H278122   3.194   5.845   1.589 -0.0717 -1.9304  0.1560
18903TIP3   OH278123   0.923   6.275  15.151  0.0487 -0.2104  0.6402
18903TIP3    H178124   0.952   6.340  15.216  0.0073  1.3560 -0.8337
18903TIP3    H278125   1.004   6.246  15.109 -0.1185  1.0280 -0.6089
18904TIP3   OH278126   0.697   5.715  12.697  0.1346  0.3475  0.2351
18904TIP3    H178127   0.774   5.668  12.730 -0.2957 -0.4689  0.1079
18904TIP3    H278128   0.731   5.799  12.667  1.1532 -0.3951 -0.7851
18905TIP3   OH278129   2.924   6.381  14.600  0.1808 -0.4094  0.9491
18905TIP3    H178130   2.892   6.362  14.688 -0.0379  0.0919  0.9809
18905TIP3    H278131   3.018   6.362  14.603  0.0835 -0.8613  1.1527
18906TIP3   OH278132   3.995   2.247  14.470 -0.4788  0.0411  0.0554
18906TIP3    H178133   4.087   2.227  14.482 -0.8409 -0.6623  2.1009
18906TIP3    H278134   3.994   2.330  14.423  1.1616 -0.3351 -0.7038
18907TIP3   OH278135   1.816   6.157   0.118  0.0729 -0.2559 -0.7106
18907TIP3    H178136   1.807   6.108   0.036  0.3146  0.2718 -1.0558
18907TIP3    H278137   1.910   6.161   0.134  0.1549  1.3835 -1.4811
18908TIP3   OH278138   0.265   3.674  13.949 -0.3065 -0.6412 -0.2829
18908TIP3    H178139   0.194   3.722  13.992 -0.2902  0.2905 -1.2305
18908TIP3    H278140   0.224   3.637  13.870  0.5660  1.3539 -1.7760
18909TIP3   OH278141   3.159   5.258  14.435  0.5538 -0.0658 -0.2769
18909TIP3    H178142   3.174   5.267  14.529  0.4833 -0.4486 -0.2245
18909TIP3    H278143   3.081   5.203  14.429  1.5451 -1.4830 -0.5704
18910TIP3   OH278144   0.900   3.072  12.766  0.1282 -0.2300 -0.1583
18910TIP3    H178145   0.919   2.998  12.708  0.2975  0.8595 -1.5495
18910TIP3    H278146   0.882   3.145  12.707 -0.0107  0.8630  1.1749
18911TIP3   OH278147   5.912   1.562  17.076  0.0721  0.6858 -0.3148
18911TIP3    H178148   5.910   1.593  16.985 -1.1462  1.5651 -0.0086
18911TIP3    H278149   5.867   1.630  17.126  1.2887  0.5360  1.0630
18912TIP3   OH278150   2.779   0.313   3.507 -0.0687 -0.2432  0.2492
18912TIP3    H178151   2.800   0.405   3.495 -1.8831  0.0722 -0.8761
18912TIP3    H278152   2.690   0.313   3.540  1.1935 -1.5230  4.2586
18913TIP3   OH278153   5.018   1.832   4.613  0.4539 -0.3010 -0.5662
18913TIP3    H178154   4.937   1.877   4.589 -0.0278 -1.5536 -1.3962
18913TIP3    H278155   5.069   1.830   4.532 -0.0085 -2.1634 -0.8598
18914TIP3   OH278156   0.682   5.188   4.359 -0.5163 -0.1542  0.6982
18914TIP3    H178157   0.764   5.168   4.404  0.0521 -1.6412 -0.8866
18914TIP3    H278158   0.619   5.126   4.396 -0.5627  0.0007  0.8808
18915TIP3   OH278159   2.615   3.723  17.137 -0.1442 -0.4803  0.1600
18915TIP3    H178160   2.574   3.689  17.058  0.9999 -1.4503 -0.0405
18915TIP3    H278161   2.706   3.741  17.112 -0.3232  1.3941  0.6517
18916TIP3   OH278162   5.845   3.170  12.691 -0.1985  0.5660  0.5727
18916TIP3    H178163   5.760   3.149  12.652 -0.8194  0.3094  1.9930
18916TIP3    H278164   5.860   3.262  12.667 -0.9139  0.6403  0.3804
18917TIP3   OH278165   5.339   0.048  11.015  0.3547  0.5205  0.2219
18917TIP3    H178166   5.297  -0.036  11.035  0.4333  0.7936  1.6974
18917TIP3    H278167   5.403   0.027  10.947  0.5249 -0.6731  0.7150
18918TIP3   OH278168   2.899   2.136  14.110 -0.5525 -0.4131  0.1544
18918TIP3    H178169   2.816   2.120  14.154 -0.2106  0.6807  1.2496
18918TIP3    H278170   2.879   2.127  14.017 -2.3802  1.6666  0.2629
18919TIP3   OH278171   4.284   5.422  16.043 -0.8132 -0.1341 -0.1604
18919TIP3    H178172   4.306   5.511  16.017  0.0536 -0.4485 -0.5650
18919TIP3    H278173   4.242   5.384  15.965  1.2907 -0.9067 -0.9870
18920TIP3   OH278174   3.660   0.959   2.550  0.3597  0.2525  0.6931
18920TIP3    H178175   3.620   0.934   2.466  0.9694  0.1758  0.4199
18920TIP3    H278176   3.716   1.033   2.529 -1.3436  1.8504  1.4761
18921TIP3   OH278177   6.323   4.349  14.589 -0.0006  0.3227  0.0421
18921TIP3    H178178   6.326   4.255  14.603  2.9561  0.4037  0.5815
18921TIP3    H278179   6.343   4.360  14.496 -1.9233  0.4218 -0.4004
18922TIP3   OH278180   3.550   3.411   1.267 -0.0479 -0.4924 -0.3231
18922TIP3    H178181   3.605   3.485   1.292 -2.6300  1.1759  0.8791
18922TIP3    H278182   3.547   3.415   1.171  0.1272  0.7935 -0.2998
18923TIP3   OH278183   1.714   4.865   5.684  0.0979  0.2749 -0.1828
18923TIP3    H178184   1.710   4.877   5.589 -0.4699  3.2402  0.1328
18923TIP3    H278185   1.806   4.879   5.707 -0.1904  2.1694 -0.0652
18924TIP3   OH278186   2.728   3.870   1.259  0.2374 -0.3517  0.1383
18924TIP3    H178187   2.811   3.897   1.220 -0.5828  0.4303 -1.1527
18924TIP3    H278188   2.671   3.947   1.251 -0.5784 -0.8214  1.1181
18925TIP3   OH278189   3.851   0.379   1.647  0.1984 -0.1355  0.8271
18925TIP3    H178190   3.814   0.373   1.559  0.0543  0.0437  0.8761
18925TIP3    H278191   3.909   0.302   1.654  1.1169  0.4745  0.1505
18926TIP3   OH278192   6.379   0.153  14.384 -0.4895 -0.1505 -0.4770
18926TIP3    H178193   6.398   0.243  14.411  0.4428  0.0054 -1.5894
18926TIP3    H278194   6.402   0.150  14.291  1.4679 -2.0624 -0.0209
18927TIP3   OH278195   5.810   0.475   4.970 -0.1018 -0.5122  0.7666
18927TIP3    H178196   5.792   0.552   5.024  2.2602  1.0160 -0.4237
18927TIP3    H278197   5.848   0.411   5.030  3.1603  1.4088  1.0011
18928TIP3   OH278198   4.297   6.575  11.433 -0.1488  0.2379 -0.6891
18928TIP3    H178199   4.348   6.512  11.483 -0.9621 -0.6590 -0.9618
18928TIP3    H278200   4.361   6.637  11.400  0.4348  0.9382  1.5316
18929TIP3   OH278201   2.227   2.249   0.403  0.3590 -0.1957 -0.4029
18929TIP3    H178202   2.162   2.319   0.390 -1.4918 -1.2963  2.1157
18929TIP3    H278203   2.268   2.239   0.317 -1.4502  1.9073 -1.6301
18930TIP3   OH278204   0.594   0.654  11.245 -0.5257 -0.1436 -0.7185
18930TIP3    H178205   0.622   0.730  11.297  2.9228 -1.9464  0.3781
18930TIP3    H278206   0.602   0.683  11.154  0.5416  0.9062 -0.3154
18931TIP3   OH278207   5.268   5.050   0.029 -0.2987  0.5726 -0.1498
18931TIP3    H178208   5.204   4.994  -0.016 -0.2447  0.4777 -0.1092
18931TIP3    H278209   5.222   5.133   0.042  0.4911  1.4775 -2.5863
18932TIP3   OH278210   3.272   0.851  14.122 -0.3398  0.1021  0.4555
18932TIP3    H178211   3.330   0.910  14.073  1.0046 -0.4588  1.3059
18932TIP3    H278212   3.283   0.878  14.213  0.9116 -1.8989  0.9566
18933TIP3   OH278213   4.717   3.453   1.995  0.0541 -0.6407 -0.0395
18933TIP3    H178214   4.740   3.447   1.902  0.6872 -0.6150  0.1086
18933TIP3    H278215   4.769   3.527   2.028 -0.1576 -0.6562  0.3390
18934TIP3   OH278216   1.293   0.788   6.177 -0.0380 -0.3669 -0.5293
18934TIP3    H178217   1.272   0.844   6.252 -2.0719 -0.0367 -1.2723
18934TIP3    H278218   1.229   0.717   6.182  1.1217 -1.4738 -0.8377
18935TIP3   OH278219   4.882   2.599   2.507 -0.0792 -0.0974  0.2067
18935TIP3    H178220   4.855   2.638   2.590 -0.1376 -0.0567  0.1686
18935TIP3    H278221   4.911   2.511   2.530  0.8730  0.2655  0.4219
18936TIP3   OH278222   5.384   2.773   0.160 -0.0003 -0.0855 -0.0749
18936TIP3    H178223   5.306   2.766   0.214 -0.3370 -2.3873 -0.7672
18936TIP3    H278224   5.448   2.715   0.202  2.0555  3.0489  1.4880
18937TIP3   OH278225   3.014   2.652  14.465 -0.1022 -0.6937  0.1197
18937TIP3    H178226   3.070   2.682  14.394 -1.6671  0.5787 -0.6456
18937TIP3    H278227   2.925   2.661  14.431 -0.9156  0.0093  2.2491
18938TIP3   OH278228   0.439   5.360  16.214 -0.9102 -0.4069  0.3518
18938TIP3    H178229   0.462   5.450  16.234  0.4555 -0.7240  0.3456
18938TIP3    H278230   0.388   5.330  16.290 -0.4499  0.0433  0.8463
18939TIP3   OH278231   3.512   0.851  13.636 -0.2508 -0.1608 -0.4222
18939TIP3    H178232   3.454   0.922  13.610  1.5810  2.1477  1.3465
18939TIP3    H278233   3.565   0.834  13.558 -0.5842  0.5725 -0.8194
18940TIP3   OH278234   5.833   4.677   6.686 -0.4321 -0.3520 -0.1880
18940TIP3    H178235   5.768   4.720   6.630  0.1132  1.3511  0.4280
18940TIP3    H278236   5.782   4.618   6.740 -1.6173  1.3937  0.7162
18941TIP3   OH278237   4.665   1.705   3.104 -0.0317  0.0224 -0.6544
18941TIP3    H178238   4.653   1.799   3.115  0.8691  0.1783 -0.9263
18941TIP3    H278239   4.623   1.666   3.181 -0.4708  0.6373 -0.5784
18942TIP3   OH278240   2.840   4.246   4.880  0.1535  0.1266 -0.1278
18942TIP3    H178241   2.790   4.181   4.930 -0.2801  0.3621 -0.2462
18942TIP3    H278242   2.905   4.195   4.832 -1.0554 -0.3907 -1.2881
18943TIP3   OH278243   0.375   1.413   4.847  0.5234 -0.2365 -0.0732
18943TIP3    H178244   0.429   1.473   4.898  0.7291  0.1814 -0.7712
18943TIP3    H278245   0.321   1.369   4.913  0.9037  0.1591  0.5231
18944TIP3   OH278246   1.225   1.918  11.874 -1.2312 -0.2984  0.3603
18944TIP3    H178247   1.172   1.864  11.816  0.7299 -2.4814  0.4269
18944TIP3    H278248   1.242   1.998  11.824 -1.6472 -1.0665 -1.0525
18945TIP3   OH278249   5.363   1.991  16.581 -0.4206 -0.0599  0.2207
18945TIP3    H178250   5.355   2.017  16.490 -1.3912  0.7450  0.5146
18945TIP3    H278251   5.273   1.987  16.613 -0.1182 -0.7085  1.0438
18946TIP3   OH278252   0.563   2.894  13.079  0.4919  0.2323  0.0184
18946TIP3    H178253   0.626   2.875  13.149  0.9182  2.7664  0.4265
18946TIP3    H278254   0.607   2.959  13.024 -0.7960  0.1377 -1.1824
18947TIP3   OH278255   6.048   5.952  11.684  0.1864  0.3003  0.3550
18947TIP3    H178256   6.142   5.965  11.695 -0.0889  2.2864  0.6342
18947TIP3    H278257   6.011   6.040  11.687 -1.1542  0.2520 -4.9037
18948TIP3   OH278258   5.366   2.583   4.807  0.0750 -0.2813 -0.5044
18948TIP3    H178259   5.357   2.506   4.863  0.1322  0.2323  0.2139
18948TIP3    H278260   5.459   2.605   4.810  0.2666 -0.8218 -1.5907
18949TIP3   OH278261   3.737   4.520  15.077  0.0551 -0.1268 -0.2010
18949TIP3    H178262   3.700   4.512  15.165  1.3569 -1.2005  0.2837
18949TIP3    H278263   3.693   4.452  15.026  0.3723 -0.5069  0.0253
18950TIP3   OH278264   1.306   2.512   2.539 -0.3975 -0.1332 -0.8318
18950TIP3    H178265   1.331   2.467   2.458  0.1728 -2.2949  0.4793
18950TIP3    H278266   1.388   2.526   2.585 -0.7959  0.3536 -0.2566
18951TIP3   OH278267   4.193   0.892   1.643  0.6730 -0.1271  0.6019
18951TIP3    H178268   4.164   0.979   1.671 -0.0963 -0.3999  0.6618
18951TIP3    H278269   4.263   0.909   1.580 -0.5058  0.5585 -0.5437
18952TIP3   OH278270   5.364   5.455   4.881 -0.2924 -0.6382  0.1510
18952TIP3    H178271   5.458   5.463   4.901  0.0657 -1.4694 -1.0840
18952TIP3    H278272   5.330   5.398   4.950  0.0702 -0.2219  0.6891
18953TIP3   OH278273   0.813   5.437   3.202  0.0637 -0.1449 -0.0772
18953TIP3    H178274   0.872   5.363   3.186  0.4850 -0.6172  3.0728
18953TIP3    H278275   0.755   5.407   3.273 -1.3210  1.7439 -0.3291
18954TIP3   OH278276   2.616   3.851  11.727  0.9550  0.5517  0.0306
18954TIP3    H178277   2.569   3.890  11.652  0.4732  1.8150  0.9524
18954TIP3    H278278   2.659   3.774  11.690 -0.8512  0.0233 -1.1390
18955TIP3   OH278279   3.569   3.424   3.215 -0.5347 -0.6448  0.5842
18955TIP3    H178280   3.571   3.518   3.196  0.3986 -0.8366 -0.3439
18955TIP3    H278281   3.658   3.394   3.198 -1.4308 -2.2094 -1.9850
18956TIP3   OH278282   3.636   5.940   1.245 -0.1349 -0.1842  0.3289
18956TIP3    H178283   3.623   5.900   1.330 -0.0724 -0.8760  0.0221
18956TIP3    H278284   3.662   6.030   1.264 -0.2559 -0.2926  1.0299
18957TIP3   OH278285   0.746   2.958  13.354  0.3868 -0.4851 -0.0871
18957TIP3    H178286   0.793   2.907  13.288 -2.0393  2.6196 -4.7302
18957TIP3    H278287   0.813   3.017  13.390  1.5874 -1.5483 -0.4990
18958TIP3   OH278288   5.194   1.541  14.415 -0.3096 -0.5148 -0.2403
18958TIP3    H178289   5.272   1.537  14.471 -0.6948 -0.5056  0.3037
18958TIP3    H278290   5.229   1.555  14.327  0.3498 -1.4622 -0.1431
18959TIP3   OH278291   5.439   5.888   0.545  0.1000 -0.5425 -0.4862
18959TIP3    H178292   5.518   5.930   0.578 -1.1786  1.5109  0.1346
18959TIP3    H278293   5.434   5.805   0.593  0.3371  0.6273  1.6649
18960TIP3   OH278294   0.229   0.112  14.806 -0.1544  0.2234 -0.1870
18960TIP3    H178295   0.144   0.100  14.847  0.2580  1.4111  1.1043
18960TIP3    H278296   0.209   0.136  14.716 -1.1782  0.2793  0.0446
18961TIP3   OH278297   3.960   3.503   2.698  0.4988 -0.0035 -0.3237
18961TIP3    H178298   4.023   3.567   2.730  0.6754 -0.5338  0.4158
18961TIP3    H278299   3.892   3.501   2.765 -0.6511  1.0376 -1.4247
18962TIP3   OH278300   1.068   1.561  13.798 -0.1988 -0.1377 -0.1867
18962TIP3    H178301   0.985   1.523  13.769  0.0668 -1.3495  0.5595
18962TIP3    H278302   1.046   1.604  13.881  0.4651 -3.4131  1.8957
18963TIP3   OH278303   5.611   4.272  16.421 -0.1415  0.2479 -0.0068
18963TIP3    H178304   5.562   4.232  16.493 -2.5792  1.2970 -1.0040
18963TIP3    H278305   5.644   4.197  16.370 -0.4488 -0.4789  0.8279
18964TIP3   OH278306   4.426   2.423  15.680  0.0792  1.2004  0.0160
18964TIP3    H178307   4.343   2.374  15.675  0.5925  0.1641  1.2313
18964TIP3    H278308   4.484   2.377  15.619  0.0856  1.2813 -0.0396
18965TIP3   OH278309   4.379   4.324  14.737 -0.5491  0.2072 -0.2495
18965TIP3    H178310   4.436   4.337  14.814 -0.6848  0.4220 -0.1857
18965TIP3    H278311   4.305   4.382  14.752 -0.5245  0.3294 -0.5993
18966TIP3   OH278312   2.239   0.610  11.450  0.0263  0.1324 -0.2492
18966TIP3    H178313   2.211   0.521  11.427 -0.2928  0.6978 -2.2951
18966TIP3    H278314   2.160   0.663  11.442  0.7909  1.0869 -2.1946
18967TIP3   OH278315   1.831   1.172  16.857 -0.3791 -0.2017  0.4012
18967TIP3    H178316   1.792   1.174  16.769 -0.2257 -0.4494  0.3263
18967TIP3    H278317   1.756   1.156  16.915 -0.5201  0.2163  0.3431
18968TIP3   OH278318   5.211   3.150   3.641  0.1710  0.9087 -0.0465
18968TIP3    H178319   5.155   3.103   3.579 -2.0824  2.7869  0.4247
18968TIP3    H278320   5.268   3.082   3.679 -0.0531 -0.6691 -2.3529
18969TIP3   OH278321   3.605   2.141  11.318 -0.1091 -0.5357 -0.3427
18969TIP3    H178322   3.555   2.215  11.282 -2.9083 -1.4115  1.3752
18969TIP3    H278323   3.672   2.182  11.373  0.2702  0.7018 -1.6476
18970TIP3   OH278324   3.839   1.019  10.629 -0.0087 -0.5514  0.1374
18970TIP3    H178325   3.849   0.978  10.543  0.9295  0.3605 -0.2030
18970TIP3    H278326   3.849   1.113  10.612 -0.1254 -0.3382  1.2019
18971TIP3   OH278327   4.692   5.091   0.229  0.3708  0.3938 -0.4384
18971TIP3    H178328   4.722   5.120   0.315 -1.3400  1.9465 -0.3053
18971TIP3    H278329   4.597   5.087   0.237  0.1711  0.7599 -2.3227
18972TIP3   OH278330   5.751   3.038  13.432  0.5956  0.4003 -0.2238
18972TIP3    H178331   5.813   3.062  13.362  0.6540 -1.1042 -0.7067
18972TIP3    H278332   5.804   2.990  13.495  0.4334  1.3172  0.6487
18973TIP3   OH278333   5.463   0.401  13.040  0.0189 -0.4534 -0.0816
18973TIP3    H178334   5.480   0.456  12.964 -0.1030 -0.7605 -0.3359
18973TIP3    H278335   5.438   0.316  13.003  0.6374 -0.8119  0.2991
18974TIP3   OH278336   1.986   4.350   4.502  0.0406  0.2677 -0.0279
18974TIP3    H178337   2.001   4.426   4.559 -0.5548  0.6805 -0.4080
18974TIP3    H278338   2.062   4.294   4.517 -1.7499 -1.4456  3.9716
18975TIP3   OH278339   3.387   2.237  13.805  0.1305 -0.3178  0.5996
18975TIP3    H178340   3.339   2.263  13.884  0.3991 -0.0950  0.6928
18975TIP3    H278341   3.476   2.221  13.835  1.2091  3.2595 -0.1651
18976TIP3   OH278342   0.825   2.930  16.523 -0.2498 -0.1525 -0.1475
18976TIP3    H178343   0.794   2.839  16.532  0.0450 -0.2141  0.3040
18976TIP3    H278344   0.827   2.945  16.429 -0.9636 -0.3848 -0.2045
18977TIP3   OH278345   6.544   0.857  12.637  0.2000 -0.5311 -0.2130
18977TIP3    H178346   6.604   0.928  12.659 -0.3489 -0.7184  2.1640
18977TIP3    H278347   6.457   0.895  12.647 -0.0977 -1.3753  0.5831
18978TIP3   OH278348   6.734   2.092   0.328  0.1705  0.3399 -0.0675
18978TIP3    H178349   6.749   2.181   0.298  2.3083 -0.1012 -0.5287
18978TIP3    H278350   6.821   2.061   0.354 -0.8232 -0.9060  2.1315
18979TIP3   OH278351   3.700   3.608   1.380  0.0315  0.5306 -0.0483
18979TIP3    H178352   3.748   3.625   1.461  1.7716  0.4555 -1.0223
18979TIP3    H278353   3.767   3.607   1.312 -1.1997 -0.8542 -1.3116
18980TIP3   OH278354   2.608   5.603  16.910  0.0560  0.2780  0.0853
18980TIP3    H178355   2.607   5.538  16.840 -0.6148  2.1628 -1.7779
18980TIP3    H278356   2.607   5.552  16.990  1.5183 -2.0123 -1.2329
18981TIP3   OH278357   3.870   1.602  14.730 -0.8603  0.0285 -0.1423
18981TIP3    H178358   3.904   1.691  14.737 -0.7947  0.0795 -1.0479
18981TIP3    H278359   3.946   1.549  14.708 -1.0517 -0.1301 -0.4205
18982TIP3   OH278360   4.591   2.874   5.082  0.1834 -0.0015  0.1607
18982TIP3    H178361   4.525   2.902   5.146 -0.5233 -0.7750 -0.1987
18982TIP3    H278362   4.648   2.815   5.131  1.4624  1.7149  0.8262
18983TIP3   OH278363   6.283   3.278  12.831  0.5793 -0.8301  0.1305
18983TIP3    H178364   6.313   3.239  12.913  0.8797  1.8584  1.4139
18983TIP3    H278365   6.288   3.207  12.767  0.6042 -2.9590  2.3443
18984TIP3   OH278366   6.432   0.896  11.339 -0.0179  0.1985  0.4658
18984TIP3    H178367   6.414   0.958  11.410 -2.7783 -0.8755  0.8283
18984TIP3    H278368   6.475   0.949  11.272 -0.5480  2.0579  1.5070
18985TIP3   OH278369   4.734   3.887  15.925 -0.2868 -0.1511  0.3974
18985TIP3    H178370   4.674   3.813  15.914  0.5594 -1.2277  2.5035
18985TIP3    H278371   4.798   3.857  15.990  0.2781  2.3183  1.0936
18986TIP3   OH278372   4.359   1.162   4.418 -0.3467 -0.3620  0.1938
18986TIP3    H178373   4.454   1.164   4.420 -0.3561  0.5168  2.1373
18986TIP3    H278374   4.332   1.194   4.504 -2.3956 -1.3011 -0.0229
18987TIP3   OH278375   2.357   4.103  12.378 -0.5324 -0.3157 -0.1562
18987TIP3    H178376   2.355   4.092  12.283  0.9793 -1.8098 -0.0476
18987TIP3    H278377   2.265   4.098  12.405 -1.3784  3.1984 -1.7695
18988TIP3   OH278378   3.692   5.981  13.818  0.3277  0.1685 -0.4249
18988TIP3    H178379   3.625   6.049  13.828  0.7986  0.6395 -0.4735
18988TIP3    H278380   3.735   5.977  13.903  1.3337  1.0259 -0.8753
18989TIP3   OH278381   2.487   0.358  12.132 -0.4393 -0.2680 -0.0396
18989TIP3    H178382   2.417   0.390  12.189  0.1433  0.4394  0.2984
18989TIP3    H278383   2.460   0.386  12.044 -0.3014  0.5330  0.1611
18990TIP3   OH278384   0.794   1.168   0.550 -0.3627  0.1834  0.4879
18990TIP3    H178385   0.864   1.208   0.499 -0.3001 -0.6546 -0.1062
18990TIP3    H278386   0.832   1.085   0.581 -1.3679 -0.7309 -0.6206
18991TIP3   OH278387   5.840   0.162   1.307  0.7266  0.1167 -0.6565
18991TIP3    H178388   5.819   0.216   1.383 -0.5082 -0.4797 -0.5460
18991TIP3    H278389   5.875   0.081   1.344  1.7981  0.5001 -0.7961
18992TIP3   OH278390   6.438   2.758   4.464  0.3106 -0.7109  0.4115
18992TIP3    H178391   6.432   2.669   4.430 -0.7272 -0.4490 -0.1455
18992TIP3    H278392   6.510   2.797   4.414 -0.6369 -0.5958 -0.9382
18993TIP3   OH278393   5.103   1.025   3.670 -0.3864 -0.0919  0.0232
18993TIP3    H178394   5.151   0.947   3.643  0.0127  0.0778  0.2220
18993TIP3    H278395   5.106   1.022   3.766 -0.0964  0.3251  0.0329
18994TIP3   OH278396   3.082   0.376   6.264 -0.2632  0.4467 -0.2565
18994TIP3    H178397   3.041   0.345   6.183  0.3135 -0.4150 -0.2295
18994TIP3    H278398   3.067   0.305   6.327 -0.0689  0.7963  0.1856
18995TIP3   OH278399   1.792   6.247  11.947 -0.2799 -0.3665  0.0269
18995TIP3    H178400   1.808   6.171  11.891 -1.5588  0.3156 -1.3508
18995TIP3    H278401   1.713   6.224  11.996  0.5505 -0.7583  1.1965
18996TIP3   OH278402   4.278   4.741  11.410 -0.2956 -0.0609  0.6065
18996TIP3    H178403   4.188   4.722  11.385 -0.2088 -0.3452  0.4991
18996TIP3    H278404   4.324   4.752  11.327 -0.1323 -0.3988  0.6512
18997TIP3   OH278405   3.953   5.287  16.194 -0.1680 -0.4229  0.1153
18997TIP3    H178406   3.995   5.370  16.170 -0.6033 -0.0120  0.7539
18997TIP3    H278407   3.987   5.267  16.281  0.1621 -1.0770 -0.1546
18998TIP3   OH278408   1.361   4.191  17.203  0.1017  0.0791  0.2554
18998TIP3    H178409   1.441   4.138  17.203  0.7043  0.7861 -3.1193
18998TIP3    H278410   1.292   4.129  17.176 -0.4315 -0.3378  2.3826
18999TIP3   OH278411   6.724   3.688  17.154  0.3668 -0.3001  0.2278
18999TIP3    H178412   6.678   3.752  17.100  0.6577 -0.6486 -0.4441
18999TIP3    H278413   6.709   3.717  17.244 -0.0401  0.3445 -0.0419
19000TIP3   OH278414   1.060   1.756   2.300 -0.4759 -0.3286  0.0980
19000TIP3    H178415   1.128   1.700   2.264  1.6789  1.4811  1.0830
19000TIP3    H278416   1.091   1.779   2.387 -0.5839  3.2410 -0.6212
19001TIP3   OH278417   5.178   3.433   0.658  0.0802 -0.2300  0.3209
19001TIP3    H178418   5.195   3.404   0.568 -2.5052 -0.5387 -0.1291
19001TIP3    H278419   5.262   3.470   0.687  0.8285  0.4196 -2.3974
19002TIP3   OH278420   0.678   1.474   0.753 -0.1690  0.5442 -0.4618
19002TIP3    H178421   0.644   1.557   0.786 -1.1940  0.3577 -1.0246
19002TIP3    H278422   0.630   1.458   0.673  0.1634 -0.5032 -0.4719
19003TIP3   OH278423   5.433   6.091   6.322  0.0725  0.4035 -0.5064
19003TIP3    H178424   5.358   6.044   6.284 -0.0340 -0.0201  0.2011
19003TIP3    H278425   5.414   6.183   6.305 -0.8623  0.3366  0.0717
19004TIP3   OH278426   1.062   5.509   5.533 -0.1408 -0.1592  0.1612
19004TIP3    H178427   1.022   5.494   5.619 -0.7719 -3.3550 -0.5456
19004TIP3    H278428   1.135   5.568   5.551 -0.2066 -0.7653  2.9070
19005TIP3   OH278429   4.144   6.019   3.148  0.3254 -0.2479  0.0379
19005TIP3    H178430   4.090   6.060   3.080  2.1253  0.1779 -1.1915
19005TIP3    H278431   4.100   5.935   3.165 -0.7827  0.1267 -0.8116
19006TIP3   OH278432   3.786   4.801  16.556 -0.1617 -0.4863  1.1600
19006TIP3    H178433   3.716   4.865  16.543 -0.2591 -0.9639 -1.1222
19006TIP3    H278434   3.856   4.849  16.600 -1.4639  0.2925  2.4629
19007TIP3   OH278435   0.706   1.033  10.220  0.5682  0.4945 -0.7819
19007TIP3    H178436   0.732   1.097  10.286  1.4550 -0.7811  0.1427
19007TIP3    H278437   0.755   0.954  10.242 -3.3564 -1.8299  0.5176
19008TIP3   OH278438   0.520   4.058  12.438 -0.5358 -0.0537  0.1490
19008TIP3    H178439   0.557   3.986  12.386  0.0975  0.4620 -0.1307
19008TIP3    H278440   0.477   4.114  12.374  0.2062  0.5608  0.1719
19009TIP3   OH278441   0.066   6.621  11.227 -0.0495  0.3284 -0.0586
19009TIP3    H178442  -0.006   6.558  11.221  0.2190  0.1852 -2.8624
19009TIP3    H278443   0.133   6.577  11.279 -0.6657 -0.8931 -0.2798
19010TIP3   OH278444   5.575   2.367   3.693  0.2900 -0.2002  0.0252
19010TIP3    H178445   5.575   2.399   3.784  1.6195 -1.6375  0.5894
19010TIP3    H278446   5.556   2.274   3.701  1.1425 -0.4874 -1.1126
19011TIP3   OH278447   0.196   0.261  15.128  0.2791 -0.0891  0.1819
19011TIP3    H178448   0.215   0.337  15.184 -2.7843  2.1598 -1.5170
19011TIP3    H278449   0.192   0.297  15.040  1.6090 -2.8935 -1.1339
19012TIP3   OH278450   4.731   6.726   4.693  0.0781 -0.1224  0.3719
19012TIP3    H178451   4.639   6.723   4.668 -0.5044  0.8353  2.1956
19012TIP3    H278452   4.764   6.638   4.675 -0.8276 -0.1272 -1.4802
19013TIP3   OH278453   0.250   0.026   3.606  0.4666 -0.6884  0.5100
19013TIP3    H178454   0.336   0.017   3.566 -0.3527 -1.5979 -1.2056
19013TIP3    H278455   0.230   0.119   3.600  0.3065 -0.7926 -1.5527
19014TIP3   OH278456   1.591   2.476  16.221 -0.2792 -0.3395  0.8967
19014TIP3    H178457   1.518   2.480  16.159  0.4090  0.0077  0.1050
19014TIP3    H278458   1.669   2.475  16.167  0.3096 -1.1864  1.7305
19015TIP3   OH278459   3.551   4.129   0.490 -0.3867 -0.0130 -0.2855
19015TIP3    H178460   3.588   4.204   0.536 -0.4662 -0.6247  0.7996
19015TIP3    H278461   3.465   4.115   0.530  0.3760 -1.8212  0.8663
19016TIP3   OH278462   4.420   3.022   5.578 -0.0273 -0.2736  0.3104
19016TIP3    H178463   4.440   3.057   5.665 -0.0174 -0.8754  0.5517
19016TIP3    H278464   4.442   3.094   5.518  0.7136 -0.1320  0.7393
19017TIP3   OH278465   4.236   2.320   3.468  0.0192 -0.7679 -0.2128
19017TIP3    H178466   4.327   2.297   3.450  0.9654  1.6270  1.0250
19017TIP3    H278467   4.203   2.352   3.385  0.4593 -1.2077 -0.5647
19018TIP3   OH278468   2.685   3.911  13.950 -0.3942 -0.0190 -0.0811
19018TIP3    H178469   2.703   3.867  14.033  2.5427  1.5235  0.2571
19018TIP3    H278470   2.767   3.903  13.901 -1.3998  0.8346 -2.0030
19019TIP3   OH278471   0.627   1.416  15.342 -0.4083  0.4974 -0.5380
19019TIP3    H178472   0.712   1.371  15.340 -0.2802  0.5781  1.5848
19019TIP3    H278473   0.590   1.400  15.255  1.5760  0.0879 -1.3541
19020TIP3   OH278474   5.575   1.134  16.411 -0.0143 -0.0563  0.2090
19020TIP3    H178475   5.483   1.141  16.436 -1.0784 -0.8792 -3.0483
19020TIP3    H278476   5.585   1.044  16.382  2.0073 -0.1340  0.9883
19021TIP3   OH278477   5.060   5.512   5.501 -0.1012 -0.2833  0.2675
19021TIP3    H178478   5.007   5.453   5.448  0.2692 -0.2848 -0.1117
19021TIP3    H278479   5.141   5.464   5.517  0.0660 -0.0107  0.2470
19022TIP3   OH278480   6.519   6.400  15.276 -0.5522 -0.2727 -0.5546
19022TIP3    H178481   6.558   6.325  15.231 -2.0593 -1.3059 -0.2350
19022TIP3    H278482   6.526   6.378  15.369 -1.0334 -0.0591 -0.4614
19023TIP3   OH278483   4.044   3.344  13.584  0.7028  0.5116  0.0454
19023TIP3    H178484   4.002   3.426  13.606 -0.3873  0.2844 -1.0963
19023TIP3    H278485   4.071   3.307  13.668  1.7236  2.2692  0.5381
19024TIP3   OH278486   3.769   5.036   6.670  0.7209  0.1326  0.1294
19024TIP3    H178487   3.834   5.087   6.622  0.2103  0.1360 -0.5786
19024TIP3    H278488   3.726   4.983   6.603 -2.0032  2.2357  0.0368
19025TIP3   OH278489   0.390   5.529  11.713 -0.5881 -0.1818 -0.4389
19025TIP3    H178490   0.363   5.452  11.762 -0.1047 -0.6309 -0.8758
19025TIP3    H278491   0.376   5.506  11.621 -1.3059  0.5862 -0.5373
19026TIP3   OH278492   5.446   3.127  11.244 -0.2168 -0.3414  0.0754
19026TIP3    H178493   5.487   3.058  11.192  0.7836  0.5635 -0.3604
19026TIP3    H278494   5.361   3.090  11.270  0.6485 -2.0876  0.6125
19027TIP3   OH278495   4.807   6.699   2.848  0.2772 -0.0705 -0.1941
19027TIP3    H178496   4.804   6.756   2.925  1.3653  0.5774 -0.6052
19027TIP3    H278497   4.833   6.613   2.882  1.8378  0.4755  0.0399
19028TIP3   OH278498   4.590   5.208  12.931 -0.1095 -0.3280  0.5235
19028TIP3    H178499   4.511   5.252  12.962  0.5400  0.2841  1.3663
19028TIP3    H278500   4.641   5.277  12.888  0.3363 -0.5422  0.7064
19029TIP3   OH278501   2.868   5.943   2.887  0.1358 -0.4244 -0.3351
19029TIP3    H178502   2.942   5.968   2.941  1.9582 -2.3695 -1.7426
19029TIP3    H278503   2.811   5.892   2.945  1.3522 -1.2983  0.1317
19030TIP3   OH278504   3.893   0.173  14.479 -0.1869 -0.0262 -0.5591
19030TIP3    H178505   3.907   0.078  14.470 -0.9611 -0.2192  0.1553
19030TIP3    H278506   3.943   0.211  14.407  0.7449 -0.9284 -0.4236
19031TIP3   OH278507   6.671   2.114   2.829  0.2901  0.1192  0.0049
19031TIP3    H178508   6.608   2.184   2.813  1.3115  1.3958  1.2834
19031TIP3    H278509   6.707   2.133   2.915  1.5602 -1.2554 -0.1744
19032TIP3   OH278510   3.824   2.262  12.142  0.0233 -0.5080  0.2038
19032TIP3    H178511   3.801   2.196  12.076  0.6149 -1.0099  0.4841
19032TIP3    H278512   3.746   2.269  12.197 -0.6771  0.3150 -0.8549
19033TIP3   OH278513   6.078   1.963   1.552  0.8995  0.3075  0.6504
19033TIP3    H178514   6.038   1.900   1.492 -1.8543  1.6513  0.8805
19033TIP3    H278515   6.134   2.017   1.496  0.3422 -0.0277 -0.2543
19034TIP3   OH278516   5.257   2.137  11.328  0.1070  0.5973 -0.0900
19034TIP3    H178517   5.303   2.188  11.261  0.5032 -0.2074 -0.4471
19034TIP3    H278518   5.318   2.131  11.401 -0.4589  1.7695  0.4956
19035TIP3   OH278519   3.870   2.289  15.588  0.5895  0.2552  0.0502
19035TIP3    H178520   3.824   2.268  15.507  1.0076 -0.0999 -0.1012
19035TIP3    H278521   3.801   2.291  15.655  0.4439 -1.0958 -0.0276
19036TIP3   OH278522   5.867   3.850  13.948  1.0916  0.1267  0.0133
19036TIP3    H178523   5.895   3.758  13.942 -0.4035 -0.4922  1.7541
19036TIP3    H278524   5.934   3.898  13.900  2.7499 -1.7197  0.3457
19037TIP3   OH278525   0.268   6.157  14.606  0.2230  0.6547 -0.1906
19037TIP3    H178526   0.277   6.092  14.536 -0.2546 -1.3870  1.5048
19037TIP3    H278527   0.232   6.234  14.563  0.0022 -0.4872 -2.1895
19038TIP3   OH278528   1.581   3.502  12.461 -0.0238 -0.9181  0.1512
19038TIP3    H178529   1.634   3.473  12.387 -1.2915 -0.2740 -1.0586
19038TIP3    H278530   1.490   3.491  12.432 -0.5800  1.5382  0.6740
19039TIP3   OH278531   1.680   6.014   1.346 -0.5639  0.1716  0.1951
19039TIP3    H178532   1.718   6.077   1.285  0.8395  0.0378  0.9030
19039TIP3    H278533   1.682   5.930   1.299  0.2959  0.1144  0.3176
19040TIP3   OH278534   3.296   0.017   0.334  0.6479  0.0692 -0.1694
19040TIP3    H178535   3.344   0.065   0.401  0.1207  0.5656 -0.1394
19040TIP3    H278536   3.349  -0.061   0.318  1.8042  0.9034 -0.6003
19041TIP3   OH278537   5.926   3.359  13.333  0.8984  0.1854  0.1941
19041TIP3    H178538   6.003   3.392  13.379  1.4482 -0.3512 -0.3414
19041TIP3    H278539   5.861   3.347  13.403  1.2953  0.6169  0.6519
19042TIP3   OH278540   4.689   2.866   6.566  0.9799  0.3573 -0.7703
19042TIP3    H178541   4.619   2.826   6.618  0.7284  0.9950 -0.6183
19042TIP3    H278542   4.754   2.796   6.557 -0.0341 -0.5203 -1.6098
19043TIP3   OH278543   5.890   2.366  11.844  0.4033 -0.4888  0.1022
19043TIP3    H178544   5.986   2.365  11.836  0.6106  3.3836  0.3762
19043TIP3    H278545   5.860   2.397  11.759 -0.6856 -1.7213  0.0067
19044TIP3   OH278546   3.581   4.655  11.273  0.0308  0.0707 -0.0514
19044TIP3    H178547   3.508   4.713  11.254 -0.3090 -1.0019 -2.3409
19044TIP3    H278548   3.638   4.706  11.331 -0.5429  2.4603 -1.4787
19045TIP3   OH278549   1.025   6.728   2.591  0.5125  0.3097 -0.3257
19045TIP3    H178550   1.020   6.635   2.614 -1.1205  0.8531  1.9195
19045TIP3    H278551   1.037   6.729   2.496 -0.9760 -2.2108 -0.6385
19046TIP3   OH278552   3.181   2.344   4.325 -0.7709  0.3494  0.2200
19046TIP3    H178553   3.137   2.262   4.303  0.2062 -0.3619  0.8093
19046TIP3    H278554   3.199   2.386   4.241  0.6880 -1.1085 -0.2335
19047TIP3   OH278555   1.279   2.657  14.636 -0.4287 -0.2507 -0.1332
19047TIP3    H178556   1.239   2.679  14.552  0.7356  0.9170 -0.4221
19047TIP3    H278557   1.286   2.740  14.682  0.1561 -0.6787  0.5697
19048TIP3   OH278558   6.093   3.004  13.343  0.7104  0.4508 -0.0278
19048TIP3    H178559   6.078   2.910  13.352  2.6140  0.1022 -0.0478
19048TIP3    H278560   6.021   3.035  13.288 -0.1976 -0.8896  0.3424
19049TIP3   OH278561   1.390   5.543   3.489 -0.0345 -0.0369 -0.4195
19049TIP3    H178562   1.425   5.624   3.526 -2.3415 -0.0373  2.0061
19049TIP3    H278563   1.438   5.474   3.534 -0.8773  0.0011  0.5897
19050TIP3   OH278564   3.223   2.523  10.672 -0.5369  0.0839  0.3778
19050TIP3    H178565   3.192   2.614  10.665 -0.1985  0.4375  2.5228
19050TIP3    H278566   3.150   2.476  10.712 -1.4183 -1.0971 -2.3854
19051TIP3   OH278567   1.114   2.717  17.166  0.1939 -0.1696  0.0790
19051TIP3    H178568   1.130   2.651  17.234  1.4692 -0.1469 -0.1636
19051TIP3    H278569   1.028   2.695  17.130  0.6424 -1.7917 -0.0818
19052TIP3   OH278570   2.768   2.790   2.919  0.0763  0.0102  0.3610
19052TIP3    H178571   2.739   2.751   3.001  0.7318 -0.0818  0.5560
19052TIP3    H278572   2.841   2.734   2.890  0.6597  0.7558  0.3528
19053TIP3   OH278573   0.372   3.063  11.705  0.5895  0.3625 -0.7512
19053TIP3    H178574   0.422   3.135  11.666  1.7731  0.9500  1.6729
19053TIP3    H278575   0.362   3.087  11.797 -2.8004 -0.5465 -0.7494
19054TIP3   OH278576   4.539   1.013  11.856 -0.1668  0.0277 -0.2180
19054TIP3    H178577   4.516   0.975  11.941 -1.4584  0.4016 -0.3751
19054TIP3    H278578   4.536   0.940  11.795  3.3673 -0.7993  0.4185
19055TIP3   OH278579   4.091   5.412   2.390 -0.0783 -0.4703 -0.0948
19055TIP3    H178580   4.154   5.381   2.455  0.8726  0.1065 -0.7228
19055TIP3    H278581   4.006   5.408   2.434  0.2326 -2.3429  0.3923
19056TIP3   OH278582   0.768   4.895   5.289 -0.5060 -0.0965 -0.4764
19056TIP3    H178583   0.818   4.821   5.252 -0.5187 -0.0354 -0.6179
19056TIP3    H278584   0.803   4.972   5.244 -0.4857 -0.0158 -0.3197
19057TIP3   OH278585   3.432   4.722   1.775  0.4713  0.1622  0.4215
19057TIP3    H178586   3.388   4.640   1.801  0.4580  0.0443  0.0342
19057TIP3    H278587   3.399   4.739   1.687 -0.9670  1.5801  1.1777
19058TIP3   OH278588   2.357   4.783  17.146  0.0035  0.4355  0.3291
19058TIP3    H178589   2.292   4.793  17.215 -1.0313 -1.0084 -0.3690
19058TIP3    H278590   2.418   4.718  17.180 -0.0083  0.3760  0.2371
19059TIP3   OH278591   0.934   4.550  16.130  0.2213 -0.2739 -0.4158
19059TIP3    H178592   0.939   4.620  16.066 -0.2900  0.4360  0.2936
19059TIP3    H278593   0.987   4.581  16.204  1.5814 -1.4869 -0.8348
19060TIP3   OH278594   5.217   1.391  13.502 -0.6178 -0.2638  0.3758
19060TIP3    H178595   5.240   1.300  13.518  2.2628  0.6576  2.1742
19060TIP3    H278596   5.283   1.422  13.440 -0.4329  1.0626  1.2051
19061TIP3   OH278597   6.628   5.189   3.144 -0.4152  0.1621 -0.0190
19061TIP3    H178598   6.664   5.242   3.073  0.0832 -2.8128 -2.1903
19061TIP3    H278599   6.557   5.139   3.103 -0.1530 -1.6171  1.5597
19062TIP3   OH278600   4.876   1.354  12.641  0.5672 -0.3620  0.6196
19062TIP3    H178601   4.926   1.274  12.657 -0.3762 -1.0401  0.3152
19062TIP3    H278602   4.791   1.338  12.683 -0.4027 -0.4202 -1.2498
19063TIP3   OH278603   2.052   2.206   3.382  0.4393 -0.0710  0.5812
19063TIP3    H178604   2.138   2.190   3.419  0.1330 -0.9996  0.9458
19063TIP3    H278605   2.007   2.122   3.391  0.1446 -0.1656 -1.3364
19064TIP3   OH278606   4.567   0.357  14.268  0.9350  1.1317 -0.5983
19064TIP3    H178607   4.581   0.284  14.327 -1.2907  1.1466  0.0509
19064TIP3    H278608   4.578   0.320  14.181 -0.1714 -0.0116 -0.2805
19065TIP3   OH278609   3.832   3.219   3.914 -0.7002 -0.0777  0.5600
19065TIP3    H178610   3.904   3.157   3.922 -0.0221  0.8157  1.6121
19065TIP3    H278611   3.777   3.202   3.991 -1.4477 -0.5158 -0.0496
19066TIP3   OH278612   1.875   4.480  12.063  0.5117 -0.5931 -0.7618
19066TIP3    H178613   1.850   4.573  12.061 -0.6558 -0.8855 -2.8984
19066TIP3    H278614   1.793   4.433  12.074  0.8611 -1.4257 -1.6140
19067TIP3   OH278615   0.576   1.193   0.391  0.5988  0.4051 -0.4534
19067TIP3    H178616   0.598   1.213   0.300 -0.6316  2.8196 -0.3178
19067TIP3    H278617   0.661   1.192   0.436  1.1417  0.1830 -1.4463
19068TIP3   OH278618   3.677   2.437   2.357  0.3053  0.0646  0.6705
19068TIP3    H178619   3.758   2.489   2.354  0.2515  0.1715  1.0771
19068TIP3    H278620   3.607   2.501   2.340  0.2702  0.0550  0.7786
19069TIP3   OH278621   2.853   2.073   2.951  0.0768 -0.6206 -0.2665
19069TIP3    H178622   2.787   2.012   2.983 -1.7426  1.2921 -0.2398
19069TIP3    H278623   2.890   2.112   3.030 -0.0352 -0.3649 -0.3426
19070TIP3   OH278624   3.116   6.562  11.291  0.2393 -0.2224 -0.1623
19070TIP3    H178625   3.157   6.592  11.372  1.0638  0.0120 -0.6668
19070TIP3    H278626   3.184   6.513  11.246 -0.6846 -1.7739  0.0282
19071TIP3   OH278627   4.871   3.005   6.073  0.4993 -0.2005  0.1098
19071TIP3    H178628   4.879   2.969   6.161  0.3677  0.1641  0.2742
19071TIP3    H278629   4.828   2.936   6.023  0.4998 -0.3787  0.3528
19072TIP3   OH278630   5.148   1.319   0.533  0.3994  0.8449  0.1321
19072TIP3    H178631   5.100   1.350   0.456 -2.2558 -1.2138  0.8114
19072TIP3    H278632   5.201   1.247   0.500 -2.3304 -1.4776  0.3661
19073TIP3   OH278633   6.576   5.003  12.888  0.0972 -0.3407  0.1431
19073TIP3    H178634   6.584   5.071  12.956 -2.2661  0.3707 -0.1913
19073TIP3    H278635   6.507   4.946  12.920  0.1963 -1.0303 -0.8429
19074TIP3   OH278636   6.048   6.208  12.929 -0.8210  0.1891  0.4055
19074TIP3    H178637   6.116   6.223  12.994  0.1666  1.0394 -0.7770
19074TIP3    H278638   5.966   6.224  12.976 -0.1359  0.8350  1.4262
19075TIP3   OH278639   3.998   6.090  10.917  0.3493 -0.2762 -0.3889
19075TIP3    H178640   4.082   6.134  10.904 -0.1060  1.1097  0.9786
19075TIP3    H278641   3.933   6.151  10.880 -0.1661 -0.6128 -0.0525
19076TIP3   OH278642   3.777   0.969   4.956  0.1154  0.3791  0.4107
19076TIP3    H178643   3.738   0.974   4.868  1.6365  0.2025 -0.2954
19076TIP3    H278644   3.716   1.018   5.011 -0.7665  0.6734 -0.7727
19077TIP3   OH278645   0.396   0.710  14.697  0.0957 -0.2452 -0.4724
19077TIP3    H178646   0.468   0.744  14.644  0.6899 -1.8964 -0.8059
19077TIP3    H278647   0.421   0.619  14.714 -2.2218 -1.0618 -1.1402
19078TIP3   OH278648   1.699   6.144   2.254  0.8155 -0.0543  0.4563
19078TIP3    H178649   1.620   6.130   2.306  1.1484 -1.1137  0.7054
19078TIP3    H278650   1.771   6.125   2.314  1.2534  0.5443  0.1311
19079TIP3   OH278651   0.906   1.034   5.663  0.0932 -0.0849  0.0120
19079TIP3    H178652   0.988   0.988   5.649  1.9087  2.7408  0.4722
19079TIP3    H278653   0.873   1.050   5.574  0.2254 -0.8843 -0.1935
19080TIP3   OH278654   3.374   4.372   2.378  0.0578  0.3865  0.3351
19080TIP3    H178655   3.447   4.369   2.316 -1.0684 -0.1644 -1.0363
19080TIP3    H278656   3.378   4.288   2.424  0.1377  0.2443  0.0738
19081TIP3   OH278657   4.823   1.047  12.350 -0.3449  0.0541  0.4200
19081TIP3    H178658   4.793   1.000  12.272  0.0295 -0.0425  0.3283
19081TIP3    H278659   4.919   1.042  12.345 -0.2574  1.8651 -0.2370
19082TIP3   OH278660   4.778   5.869   5.091  0.3089 -0.3934 -0.5173
19082TIP3    H178661   4.724   5.790   5.081 -0.4379 -0.1209  1.0332
19082TIP3    H278662   4.715   5.941   5.094  0.6838 -0.0848  1.5457
19083TIP3   OH278663   5.915   3.027  15.338  0.4464 -0.1579  0.1206
19083TIP3    H178664   5.984   3.044  15.403 -0.1522 -0.4858  0.8486
19083TIP3    H278665   5.855   2.967  15.381  0.3163 -0.8203 -0.9352
19084TIP3   OH278666   3.889   4.010   2.707  0.0534 -0.3081 -0.3258
19084TIP3    H178667   3.971   4.049   2.676 -0.1690  0.9698  0.6335
19084TIP3    H278668   3.911   3.968   2.790  0.0913 -1.4981 -0.9126
19085TIP3   OH278669   1.799   2.606   4.096  0.1625  0.0976  0.2484
19085TIP3    H178670   1.737   2.553   4.146 -0.1008  1.6034  1.6051
19085TIP3    H278671   1.759   2.692   4.091  0.4559  0.1439 -2.1461
19086TIP3   OH278672   0.455   5.612  12.803 -0.1385 -0.1428  0.2946
19086TIP3    H178673   0.539   5.651  12.778 -0.6441 -0.2367 -1.7437
19086TIP3    H278674   0.450   5.624  12.897  2.0750  0.0309  0.4390
19087TIP3   OH278675   4.579   5.717  17.254  0.0194  0.3120  0.2190
19087TIP3    H178676   4.640   5.676  17.192  0.5390 -0.1633  1.0207
19087TIP3    H278677   4.500   5.664  17.249  0.1950  0.0468  0.2324
19088TIP3   OH278678   3.812   0.131   5.498  0.5529  0.2946 -0.0373
19088TIP3    H178679   3.865   0.207   5.474  2.1334 -1.2879 -1.9930
19088TIP3    H278680   3.760   0.112   5.419 -0.2604 -0.3086  0.6247
19089TIP3   OH278681   4.224   5.093   0.535  0.2024  0.1598 -0.1530
19089TIP3    H178682   4.176   5.173   0.517  0.3454  0.4050  0.5387
19089TIP3    H278683   4.293   5.090   0.469  0.1390  0.5540 -0.2353
19090TIP3   OH278684   6.669   1.860   3.429  0.8387  0.1751 -0.2907
19090TIP3    H178685   6.612   1.889   3.358  0.4114  0.6222  0.2233
19090TIP3    H278686   6.740   1.813   3.385  0.3621  0.0809 -0.9798
19091TIP3   OH278687   2.558   6.674  13.217  0.0658 -0.1661 -0.2310
19091TIP3    H178688   2.506   6.746  13.182  0.1031  0.3827  0.8051
19091TIP3    H278689   2.589   6.705  13.302  1.9837 -0.5183 -0.7367
19092TIP3   OH278690   0.172   4.097  14.652  0.4790  0.4088  0.0883
19092TIP3    H178691   0.086   4.129  14.624  1.0169  3.0581  1.1820
19092TIP3    H278692   0.154   4.014  14.696 -1.2189 -0.1757 -1.5811
19093TIP3   OH278693   4.368   4.324  12.149  0.4069  0.0678 -0.4777
19093TIP3    H178694   4.358   4.415  12.122 -1.3529  1.6902  4.4659
19093TIP3    H278695   4.278   4.294  12.165  1.0809 -1.6736  0.2994
19094TIP3   OH278696   0.362   1.128   3.369 -0.2776  0.0804 -0.1198
19094TIP3    H178697   0.302   1.107   3.298 -1.2654  1.4751  0.2544
19094TIP3    H278698   0.313   1.189   3.425  1.4410  1.1933  0.2556
19095TIP3   OH278699   2.097   6.422  11.856 -0.5968  0.1449 -0.2100
19095TIP3    H178700   2.107   6.328  11.841 -0.7720 -0.1800  1.5342
19095TIP3    H278701   2.032   6.449  11.791 -1.0768 -1.0777 -0.2813
19096TIP3   OH278702   6.348   3.284   2.163 -0.9303  0.4090  1.0191
19096TIP3    H178703   6.394   3.367   2.151 -1.0614  0.2207 -1.1942
19096TIP3    H278704   6.396   3.221   2.110 -1.5092 -0.6745  1.7388
19097TIP3   OH278705   1.503   2.567  14.331 -0.4653  0.4850 -0.0595
19097TIP3    H178706   1.508   2.648  14.382 -0.8045  0.1361  0.5522
19097TIP3    H278707   1.448   2.509  14.385 -1.5310  0.3856 -1.2245
19098TIP3   OH278708   2.275   2.486   3.918 -0.2690 -0.1353 -0.0895
19098TIP3    H178709   2.281   2.507   3.825 -0.7036 -4.0362 -1.1581
19098TIP3    H278710   2.184   2.459   3.931  0.3521 -1.9707  0.8267
19099TIP3   OH278711   5.777   5.120  15.419 -0.6192 -0.0113  0.1838
19099TIP3    H178712   5.806   5.054  15.482 -1.6720  0.4137  1.1569
19099TIP3    H278713   5.735   5.187  15.473  0.0344  1.2519 -0.8158
19100TIP3   OH278714   4.430   5.325  14.429  0.1310  0.4453 -0.5688
19100TIP3    H178715   4.428   5.241  14.475  2.4504  0.5207 -0.2340
19100TIP3    H278716   4.415   5.391  14.498 -1.1514  0.3790 -0.7483
19101TIP3   OH278717   2.006   2.276   4.290 -0.5914  1.0633 -0.5259
19101TIP3    H178718   2.044   2.197   4.252 -0.0227  0.8880  0.3742
19101TIP3    H278719   1.916   2.252   4.310  0.1845 -0.1456  1.8570
19102TIP3   OH278720   0.945   4.584  15.340 -0.2017  0.0700  0.0192
19102TIP3    H178721   0.888   4.656  15.314 -0.9857  0.0837  1.6505
19102TIP3    H278722   0.901   4.506  15.306 -0.3852  0.1996 -0.0432
19103TIP3   OH278723   2.398   5.624   4.370  0.6406  0.5299  0.5463
19103TIP3    H178724   2.429   5.700   4.420  0.4731  1.1693 -0.2893
19103TIP3    H278725   2.473   5.600   4.315 -0.1089  1.7425 -1.0892
19104TIP3   OH278726   6.050   5.627   0.108 -0.1170 -0.3166 -0.2740
19104TIP3    H178727   6.071   5.578   0.029 -2.0235 -2.2162  0.3302
19104TIP3    H278728   6.024   5.713   0.076 -0.6660 -0.9867 -1.7050
19105TIP3   OH278729   0.390   2.849   2.747 -0.6880  0.0656  0.3425
19105TIP3    H178730   0.363   2.779   2.807 -0.1051 -0.7213 -0.2908
19105TIP3    H278731   0.405   2.805   2.663  1.9463  0.5014  0.4786
19106TIP3   OH278732   5.016   4.786  13.724  0.0991 -0.4085  0.5486
19106TIP3    H178733   5.019   4.776  13.629  0.6140 -0.3386  0.5523
19106TIP3    H278734   4.923   4.788  13.746 -0.0644 -2.4814  0.2604
19107TIP3   OH278735   2.804   0.609  15.678  0.1036 -0.3094 -0.4918
19107TIP3    H178736   2.882   0.586  15.628  0.6125 -1.7890  0.9157
19107TIP3    H278737   2.808   0.705  15.686  1.9929 -0.4020 -0.1028
19108TIP3   OH278738   6.488   6.203   3.433 -0.1028 -0.3535  0.0470
19108TIP3    H178739   6.531   6.239   3.510 -0.3632 -0.7142  0.3653
19108TIP3    H278740   6.492   6.108   3.445  1.7383 -0.5159 -1.4153
19109TIP3   OH278741   5.152   2.302  15.285  0.1183  0.0672  0.1677
19109TIP3    H178742   5.157   2.352  15.204  0.2202 -1.8652 -1.0807
19109TIP3    H278743   5.242   2.299  15.318  0.1733  0.3635  0.0457
19110TIP3   OH278744   2.957   3.315   5.560  0.2129 -0.6173 -0.3514
19110TIP3    H178745   2.948   3.278   5.647  0.5669 -0.2064 -0.1395
19110TIP3    H278746   2.867   3.335   5.533  0.2734  2.3625  1.2652
19111TIP3   OH278747   5.478   4.943   6.230 -0.1091  0.1166  0.0753
19111TIP3    H178748   5.425   4.921   6.153 -0.1486 -0.3242  0.2260
19111TIP3    H278749   5.556   4.985   6.194 -1.0015  1.6846 -0.0922
19112TIP3   OH278750   2.123   0.268  11.094 -0.6441  0.0677 -0.1213
19112TIP3    H178751   2.086   0.273  11.006  0.5422  0.4465 -0.6218
19112TIP3    H278752   2.126   0.175  11.114  3.1884 -0.5309 -2.3852
19113TIP3   OH278753   5.600   2.390  14.906  0.3992 -0.4972 -0.2874
19113TIP3    H178754   5.652   2.310  14.898  1.6924  0.3794 -0.8436
19113TIP3    H278755   5.587   2.420  14.816  0.5948  0.3428 -0.0408
19114TIP3   OH278756   2.506   2.773  17.078  0.0251 -0.7892  0.0933
19114TIP3    H178757   2.495   2.862  17.043  1.0173 -1.1217 -1.1608
19114TIP3    H278758   2.575   2.782  17.144 -0.3434 -0.5175  0.4448
19115TIP3   OH278759   4.098   3.537   0.746  0.4662 -0.4186 -0.0170
19115TIP3    H178760   4.132   3.550   0.658  2.0355 -0.6157  0.5273
19115TIP3    H278761   4.003   3.532   0.735  0.7154 -2.3173 -1.9373
19116TIP3   OH278762   3.895   4.802  15.725  0.1906 -0.2073 -0.4431
19116TIP3    H178763   3.978   4.848  15.738 -0.9329  1.3270  2.0818
19116TIP3    H278764   3.842   4.826  15.801 -2.7481 -0.7953 -2.1471
19117TIP3   OH278765   0.803   1.274   3.222  0.2282  0.7905  0.8067
19117TIP3    H178766   0.740   1.273   3.150 -0.9657  1.0427  1.8148
19117TIP3    H278767   0.752   1.249   3.299  1.8659 -1.2873  1.2891
19118TIP3   OH278768   1.574   6.237  13.292 -0.1725 -0.4784  0.4742
19118TIP3    H178769   1.667   6.253  13.276 -0.1637 -0.1166  0.8728
19118TIP3    H278770   1.532   6.322  13.275 -0.2427 -0.2461  1.7208
19119TIP3   OH278771   0.435   2.019  14.585  0.5690  0.0633  0.1800
19119TIP3    H178772   0.394   1.938  14.552 -0.8155  0.8798 -0.1915
19119TIP3    H278773   0.476   1.993  14.667 -1.9903 -0.5453  1.3747
19120TIP3   OH278774   2.445   3.760   5.488  0.0830 -0.2985  0.5870
19120TIP3    H178775   2.354   3.737   5.472 -0.0257 -1.3277  2.3566
19120TIP3    H278776   2.444   3.855   5.505 -0.5830 -0.2330  0.1790
19121TIP3   OH278777   2.102   3.143  12.282  0.1348 -0.1791 -0.3685
19121TIP3    H178778   2.039   3.174  12.346  0.5955 -0.4094  0.2022
19121TIP3    H278779   2.050   3.094  12.218 -0.5557  1.4347 -1.0973
19122TIP3   OH278780   4.744   2.623  13.364 -0.1638  0.0139  0.3142
19122TIP3    H178781   4.649   2.631  13.367 -0.2745 -1.3163  1.5978
19122TIP3    H278782   4.762   2.581  13.280 -1.0332 -2.6195  1.3349
19123TIP3   OH278783   3.250   4.510   3.380 -0.0659 -0.7273  0.5010
19123TIP3    H178784   3.192   4.454   3.328  1.2695  1.0022 -3.1316
19123TIP3    H278785   3.334   4.465   3.377  0.1454 -0.3457  0.7375
19124TIP3   OH278786   4.263   0.144   4.295  0.1172 -0.1809 -0.2848
19124TIP3    H178787   4.346   0.144   4.248  0.5386 -1.5392  0.3983
19124TIP3    H278788   4.197   0.160   4.228  0.8106 -0.7632 -1.1245
19125TIP3   OH278789   3.205   2.442  14.829  0.0171  0.0740 -0.2761
19125TIP3    H178790   3.114   2.431  14.799  0.4055  0.1867 -1.5570
19125TIP3    H278791   3.231   2.528  14.796  0.3434  0.3832  0.7663
19126TIP3   OH278792   6.078   2.970  14.546 -0.0477  0.0237  0.3470
19126TIP3    H178793   6.129   2.965  14.628  2.5952 -2.6066 -1.2566
19126TIP3    H278794   6.050   2.880  14.530  1.5195 -0.0361 -2.7351
19127TIP3   OH278795   4.245   0.789  13.790  0.7973 -0.4822  0.4276
19127TIP3    H178796   4.222   0.721  13.852  0.3075 -0.7541 -0.0434
19127TIP3    H278797   4.294   0.853  13.842  1.0932 -1.0883  0.9129
19128TIP3   OH278798   0.323   5.913   1.998  0.5423  0.1228 -0.4660
19128TIP3    H178799   0.345   5.821   2.013 -0.1332 -0.0837 -0.6831
19128TIP3    H278800   0.361   5.960   2.072  0.7112 -0.3600 -0.2450
19129TIP3   OH278801   4.227   2.891  16.568  0.1427  0.1814 -1.0107
19129TIP3    H178802   4.248   2.805  16.532 -0.9638 -0.3467 -0.4423
19129TIP3    H278803   4.288   2.902  16.641 -0.0388 -0.3419 -0.7745
19130TIP3   OH278804   4.940   2.975   2.735  0.4101 -0.2654  0.1193
19130TIP3    H178805   5.029   2.966   2.701 -0.2020 -1.5731 -1.2405
19130TIP3    H278806   4.945   2.942   2.825  1.3659  0.0390  0.1898
19131TIP3   OH278807   0.032   0.111  11.928  0.1349  0.0106 -0.4825
19131TIP3    H178808   0.076   0.078  11.849 -0.8966  1.5507 -1.7602
19131TIP3    H278809   0.032   0.206  11.918 -0.0083  0.2432  1.4051
19132TIP3   OH278810   5.790   1.422   3.438  0.1526  0.0740  0.0849
19132TIP3    H178811   5.835   1.337   3.435 -0.2769 -0.2889  2.3802
19132TIP3    H278812   5.834   1.474   3.371  2.4467 -1.0100  0.6367
19133TIP3   OH278813   6.324   1.655  13.345  0.3022  0.0803  0.2081
19133TIP3    H178814   6.276   1.703  13.277  1.7176 -1.4281 -1.9773
19133TIP3    H278815   6.410   1.639  13.307  0.9786 -1.3246  2.1723
19134TIP3   OH278816   5.656   1.250  11.401 -0.7689 -0.2936 -0.0341
19134TIP3    H178817   5.672   1.270  11.494 -0.5753 -0.5824 -0.0076
19134TIP3    H278818   5.735   1.280  11.356 -0.4531 -1.0403  0.0105
19135TIP3   OH278819   4.642   1.854   0.823 -0.1893 -0.3708  0.3226
19135TIP3    H178820   4.637   1.918   0.752  1.0436 -0.9990 -0.3727
19135TIP3    H278821   4.728   1.813   0.812  0.3305 -0.0358  2.5811
19136TIP3   OH278822   2.946   0.349   0.308 -0.5588  0.1970 -0.4991
19136TIP3    H178823   2.865   0.382   0.347  0.1270  0.4984  0.7358
19136TIP3    H278824   2.927   0.258   0.286 -1.8117  0.7731 -1.9997
19137TIP3   OH278825   5.103   3.850   2.309  0.7494  0.4053 -0.0305
19137TIP3    H178826   5.180   3.804   2.342 -0.3420 -0.8707  0.8435
19137TIP3    H278827   5.107   3.841   2.214  1.3754 -0.1413  0.0462
19138TIP3   OH278828   1.355   4.922   5.982 -0.7075  0.0577  0.4133
19138TIP3    H178829   1.409   4.897   6.057  0.0857 -0.2680 -0.2489
19138TIP3    H278830   1.319   5.007   6.006 -0.1396  0.1481  0.9946
19139TIP3   OH278831   3.824   1.087  13.348  0.1921 -0.1617  0.0787
19139TIP3    H178832   3.732   1.110  13.331  0.0003 -1.0099 -0.0648
19139TIP3    H278833   3.864   1.169  13.378 -0.2206  0.6089 -1.3826
19140TIP3   OH278834   6.242   5.885  16.481  0.1389  0.4244  0.1803
19140TIP3    H178835   6.195   5.928  16.553 -0.0275  2.2024 -0.9199
19140TIP3    H278836   6.257   5.796  16.512 -2.4183  0.2828  1.2688
19141TIP3   OH278837   4.352   5.163  16.579 -0.1818  0.3357  0.1057
19141TIP3    H178838   4.400   5.209  16.510 -1.2891  2.3374  0.5873
19141TIP3    H278839   4.401   5.182  16.659 -0.9125  1.1651  0.3811
19142TIP3   OH278840   4.932   1.412   5.955  0.2322  0.2988  0.0487
19142TIP3    H178841   4.850   1.393   6.001 -0.4772  3.0722  0.1473
19142TIP3    H278842   4.994   1.347   5.989 -1.8321 -1.7894  0.0921
19143TIP3   OH278843   1.355   0.914  14.097  0.4547  0.7334 -0.1361
19143TIP3    H178844   1.332   0.844  14.158  2.0331 -1.3277 -1.7440
19143TIP3    H278845   1.386   0.986  14.153 -1.1726  0.1757  1.5661
19144TIP3   OH278846   5.860   5.849  14.541 -0.2179 -0.4271  0.0776
19144TIP3    H178847   5.861   5.928  14.595 -2.7423 -1.5423  1.8953
19144TIP3    H278848   5.940   5.803  14.565 -0.6565 -0.2758  1.9508
19145TIP3   OH278849   4.237   6.550   3.272 -0.2188 -0.0634 -0.0651
19145TIP3    H178850   4.301   6.500   3.222  2.3918  1.4863  1.4545
19145TIP3    H278851   4.213   6.492   3.345  0.0345 -0.4063 -0.2523
19146TIP3   OH278852   5.260   0.663  15.868  0.1635  0.6219 -0.2500
19146TIP3    H178853   5.277   0.674  15.962  0.1874 -0.4233 -0.1131
19146TIP3    H278854   5.291   0.574  15.849 -2.4140 -0.2715 -0.6494
19147TIP3   OH278855   5.873   3.333  11.196  0.2255 -0.0863 -0.7747
19147TIP3    H178856   5.893   3.368  11.109  1.2385  0.0001 -0.5080
19147TIP3    H278857   5.892   3.239  11.188 -0.8756 -0.3119 -0.9944
19148TIP3   OH278858   4.828   4.521   4.937 -0.0095 -0.3324 -0.7132
19148TIP3    H178859   4.849   4.529   5.030 -0.2418 -1.7055 -0.5273
19148TIP3    H278860   4.733   4.504   4.935  0.2762 -2.0019 -1.0901
19149TIP3   OH278861   1.241   4.408  12.627  0.0357 -0.3295 -0.0618
19149TIP3    H178862   1.156   4.369  12.647 -1.1972  1.2044 -1.8733
19149TIP3    H278863   1.305   4.352  12.670 -1.8778 -1.6510  1.1936
19150TIP3   OH278864   1.941   2.857  13.459  0.4381 -0.0366 -0.5755
19150TIP3    H178865   1.903   2.778  13.422 -1.4490  0.2224  0.6358
19150TIP3    H278866   1.865   2.909  13.488  1.6883  1.0907  0.8851
19151TIP3   OH278867   6.112   3.268   1.912 -0.3231  0.2738 -0.7725
19151TIP3    H178868   6.144   3.253   2.001 -0.7622 -0.0413 -0.6670
19151TIP3    H278869   6.018   3.252   1.917 -0.4310  0.7463 -1.1832
19152TIP3   OH278870   4.744   1.258  11.490 -0.4485 -0.2016  0.5423
19152TIP3    H178871   4.775   1.215  11.410 -1.5405  0.4887 -0.2808
19152TIP3    H278872   4.816   1.317  11.514 -0.7040  0.7504 -0.8577
19153TIP3   OH278873   0.551   1.766  13.075  0.3577  0.3801 -0.1876
19153TIP3    H178874   0.483   1.723  13.024  0.5234  0.2159 -0.2699
19153TIP3    H278875   0.593   1.826  13.012  1.7090 -1.0709 -0.7227
19154TIP3   OH278876   0.743   2.204   3.093  0.0633 -0.3812 -0.5202
19154TIP3    H178877   0.686   2.278   3.072  1.5991  0.5321 -1.7143
19154TIP3    H278878   0.724   2.139   3.026 -2.5907 -1.9139  1.5707
19155TIP3   OH278879   2.987   3.348   1.214 -0.2498 -0.4988 -0.1847
19155TIP3    H178880   3.019   3.258   1.221 -0.5784 -0.7411 -1.4573
19155TIP3    H278881   2.939   3.350   1.131 -0.5420  0.7626 -0.0090
19156TIP3   OH278882   3.977   3.940  16.630 -0.1267 -0.0058 -0.2912
19156TIP3    H178883   3.945   3.869  16.685  0.6066 -0.5838 -0.5727
19156TIP3    H278884   4.072   3.925  16.625  0.4167  2.3118  1.4856
19157TIP3   OH278885   3.121   6.519   1.995  0.2011 -0.4843 -0.4078
19157TIP3    H178886   3.171   6.483   2.069 -1.4609  0.7452  1.3869
19157TIP3    H278887   3.126   6.451   1.928  2.2247 -1.4130  0.5934
19158TIP3   OH278888   0.731   0.116  13.910  0.0441  0.2915  0.2352
19158TIP3    H178889   0.692   0.063  13.841 -0.3379 -0.8152  1.2591
19158TIP3    H278890   0.803   0.163  13.867 -1.1031  0.7876 -1.2273
19159TIP3   OH278891   1.608   4.511   1.437 -0.1944  0.0297 -0.1147
19159TIP3    H178892   1.582   4.456   1.511  0.7883  0.6529  0.7194
19159TIP3    H278893   1.528   4.519   1.384 -1.6911  1.5937  2.1586
19160TIP3   OH278894   0.689   3.634  13.612  0.7875  0.7361 -0.2989
19160TIP3    H178895   0.668   3.698  13.680  1.0515  1.3439 -0.7794
19160TIP3    H278896   0.667   3.678  13.529  2.4375  0.8189 -0.7358
19161TIP3   OH278897   1.875   5.312  15.775 -0.0296 -0.0005  0.1143
19161TIP3    H178898   1.835   5.383  15.725 -2.0425 -1.3897 -0.3989
19161TIP3    H278899   1.801   5.258  15.803  1.3329 -1.2309  1.5381
19162TIP3   OH278900   1.306   1.579   2.416 -0.2709 -0.4559  0.2006
19162TIP3    H178901   1.370   1.530   2.364 -0.4420 -0.5422  0.0723
19162TIP3    H278902   1.330   1.671   2.402  0.0043 -0.4971  0.3832
19163TIP3   OH278903   0.642   1.615  13.894 -0.1118  0.0056  0.1633
19163TIP3    H178904   0.621   1.538  13.947 -1.0227  0.5398  0.5803
19163TIP3    H278905   0.723   1.649  13.932 -1.3836  1.1036  2.0469
19164TIP3   OH278906   2.291   5.163  14.835  0.1981 -0.0805 -0.1072
19164TIP3    H178907   2.324   5.095  14.893  0.7040  0.0452 -0.2421
19164TIP3    H278908   2.370   5.210  14.806 -0.2424  1.5930  1.2379
19165TIP3   OH278909   3.827   6.700   2.213  0.5053  0.2623  0.1571
19165TIP3    H178910   3.831   6.676   2.306 -0.2087 -0.7295 -0.0576
19165TIP3    H278911   3.797   6.791   2.213 -0.0419  0.0865  0.8703
19166TIP3   OH278912   5.996   5.371  16.452 -0.1596  0.8376 -0.1121
19166TIP3    H178913   5.907   5.340  16.436 -0.7455  2.0397  0.6433
19166TIP3    H278914   5.984   5.461  16.482  1.2493  0.6752  1.0249
19167TIP3   OH278915   0.118   5.713   4.631 -0.4544 -0.6532  0.4950
19167TIP3    H178916   0.114   5.620   4.609  1.4538 -0.4936 -0.8348
19167TIP3    H278917   0.181   5.749   4.568 -0.5313  1.3756  1.5125
19168TIP3   OH278918   1.505   6.677  15.848 -0.0147 -0.4603 -0.4632
19168TIP3    H178919   1.515   6.625  15.928 -0.3825 -0.2875 -0.3015
19168TIP3    H278920   1.418   6.717  15.856  0.5287  0.7027 -0.2941
19169TIP3   OH278921   3.721   4.372   2.001 -0.3531 -0.2064  0.6077
19169TIP3    H178922   3.761   4.458   1.991 -2.5233  0.9215  1.0476
19169TIP3    H278923   3.705   4.364   2.095 -1.1410 -0.6284  0.4401
19170TIP3   OH278924   2.606   2.323  14.719 -0.1561  0.2039 -0.1061
19170TIP3    H178925   2.651   2.240  14.705 -2.3569 -1.0010 -0.2873
19170TIP3    H278926   2.632   2.377  14.644  2.1947  0.1789  0.5856
19171TIP3   OH278927   6.130   1.266  13.589  0.3551 -0.0779 -0.3879
19171TIP3    H178928   6.222   1.243  13.596  0.3224 -0.2450 -0.4975
19171TIP3    H278929   6.128   1.343  13.532  0.5416  0.7260  0.6704
19172TIP3   OH278930   6.766   5.213  11.799 -0.6372  0.0038  0.0797
19172TIP3    H178931   6.718   5.294  11.778 -1.1765 -0.5714 -1.0431
19172TIP3    H278932   6.697   5.146  11.807 -0.0514 -0.9580 -2.1494
19173TIP3   OH278933   2.336   2.872   2.396  0.5822  0.0803  0.2782
19173TIP3    H178934   2.404   2.808   2.418  1.1450  0.0482 -1.4035
19173TIP3    H278935   2.367   2.954   2.437  0.9576 -0.2268  0.6232
19174TIP3   OH278936   5.643   3.696  13.890  0.3279 -0.0945  0.2178
19174TIP3    H178937   5.710   3.757  13.922  1.3133 -0.3876 -1.2095
19174TIP3    H278938   5.659   3.615  13.938 -1.2643  0.7990  2.4551
19175TIP3   OH278939   0.108   5.317  15.440 -0.2770 -0.1208  0.1057
19175TIP3    H178940   0.150   5.302  15.356  0.0311 -1.3312  0.4637
19175TIP3    H278941   0.178   5.307  15.505 -0.9929 -1.7097  0.6775
19176TIP3   OH278942   2.941   4.225  13.837 -0.6446 -0.2026 -0.0606
19176TIP3    H178943   3.030   4.254  13.859 -0.1683 -1.7446  0.1868
19176TIP3    H278944   2.893   4.232  13.920 -0.0639 -1.6852  0.4461
19177TIP3   OH278945   5.858   5.077  15.864  0.1982  0.0657 -0.6470
19177TIP3    H178946   5.821   5.006  15.917  1.6080 -0.0017  0.2976
19177TIP3    H278947   5.932   5.109  15.915  1.5323  0.1038 -2.5124
19178TIP3   OH278948   6.560   4.658  10.722 -0.3358 -0.2033 -0.4322
19178TIP3    H178949   6.541   4.601  10.796 -0.2499  1.5932  1.0454
19178TIP3    H278950   6.648   4.690  10.739 -0.8566  1.3453 -0.5308
19179TIP3   OH278951   2.843   4.074  14.895  0.5057  0.1812  0.1768
19179TIP3    H178952   2.840   4.125  14.813 -0.1026  0.1937  0.2048
19179TIP3    H278953   2.751   4.055  14.914  0.6039  0.6733  1.1728
19180TIP3   OH278954   5.762   2.704   1.672  0.5049  0.9356  0.1868
19180TIP3    H178955   5.709   2.776   1.706  0.2809  0.9858 -0.2749
19180TIP3    H278956   5.815   2.743   1.603  0.9077  0.8145  0.4226
19181TIP3   OH278957   2.974   4.323   1.767 -0.8447  0.3582  0.0363
19181TIP3    H178958   2.962   4.381   1.842  1.7779 -1.2329  1.8681
19181TIP3    H278959   3.031   4.372   1.708 -2.4282  1.3783 -0.7121
19182TIP3   OH278960   0.469   5.234  12.067 -0.0218 -0.5123  0.3994
19182TIP3    H178961   0.511   5.314  12.101  1.3196 -0.5465 -1.0685
19182TIP3    H278962   0.483   5.169  12.135  2.0560 -0.4172  0.1284
19183TIP3   OH278963   1.914   1.421   2.474  0.0226  0.3245 -0.0966
19183TIP3    H178964   1.860   1.349   2.441  0.3497 -0.4479  0.9757
19183TIP3    H278965   1.918   1.406   2.569  4.3031 -1.2646 -0.3351
19184TIP3   OH278966   1.093   5.551  15.207 -0.4066  0.2333  0.0599
19184TIP3    H178967   1.079   5.621  15.143 -0.9745  1.4793  1.4896
19184TIP3    H278968   1.005   5.521  15.231 -0.1988 -0.3327  0.1467
19185TIP3   OH278969   2.672   3.946  16.801 -0.3588 -0.4197 -0.5515
19185TIP3    H178970   2.630   4.026  16.767 -1.0580 -0.4669  0.1744
19185TIP3    H278971   2.759   3.975  16.827 -0.9476  0.3637  0.6553
19186TIP3   OH278972   3.662   6.143  17.294 -0.1716  0.0721 -0.3076
19186TIP3    H178973   3.623   6.091  17.365 -0.1519 -0.6508 -0.8165
19186TIP3    H278974   3.594   6.205  17.269  0.3876  1.5082  1.4766
19187TIP3   OH278975   2.286   3.113   1.930  0.1297  0.2156 -0.3648
19187TIP3    H178976   2.191   3.114   1.939 -0.1731 -0.7724 -2.6868
19187TIP3    H278977   2.319   3.146   2.013 -2.2112 -0.3020  0.8400
19188TIP3   OH278978   6.020   5.039   0.747  0.4587  0.1450 -0.1687
19188TIP3    H178979   5.987   5.129   0.737  1.4362  0.4516 -0.7381
19188TIP3    H278980   6.079   5.027   0.673 -0.2062 -1.2271 -0.4940
19189TIP3   OH278981   4.812   4.736   1.426  0.2741 -0.2963 -0.2604
19189TIP3    H178982   4.874   4.802   1.395 -0.6442  1.0199  0.6218
19189TIP3    H278983   4.858   4.690   1.496  0.7222 -0.2201 -0.5034
19190TIP3   OH278984   0.196   0.463  14.274 -0.0695 -0.2207  1.1218
19190TIP3    H178985   0.234   0.548  14.251  2.6595 -2.1343 -2.2213
19190TIP3    H278986   0.238   0.440  14.357  0.2062  1.0585  1.3576
19191TIP3   OH278987   6.066   5.911  14.132 -0.1012  0.3229  0.2593
19191TIP3    H178988   6.090   5.876  14.218 -0.3164 -0.0917  0.1571
19191TIP3    H278989   6.091   5.841  14.071 -0.7809  0.2325  0.0756
19192TIP3   OH278990   4.678   0.865  13.081 -0.2415 -0.3529 -0.3172
19192TIP3    H178991   4.770   0.839  13.075 -0.4811 -1.3391  0.1584
19192TIP3    H278992   4.664   0.882  13.174 -0.1571  1.2856 -0.5807
19193TIP3   OH278993   1.085   4.405  17.171  0.2369  0.6445 -0.4557
19193TIP3    H178994   1.128   4.379  17.252 -0.5792 -0.5780 -0.3977
19193TIP3    H278995   1.018   4.468  17.197  0.1767  0.4789 -0.2107
19194TIP3   OH278996   3.102   0.291  14.334  0.7759  0.3693  0.1030
19194TIP3    H178997   3.029   0.351  14.349  0.3412 -0.4331  1.3275
19194TIP3    H278998   3.180   0.348  14.334  0.5527  0.8151  2.8790
19195TIP3   OH278999   2.830   0.118  14.422 -0.2697 -0.0420 -0.6427
19195TIP3    H179000   2.842   0.115  14.517 -1.5171  1.0831 -0.4153
19195TIP3    H279001   2.832   0.212  14.401 -2.0272 -0.1383 -1.4158
19196TIP3   OH279002   2.131   5.997   5.583  0.6139  0.0868 -0.1637
19196TIP3    H179003   2.087   6.082   5.591 -0.0259  0.1459 -3.1212
19196TIP3    H279004   2.060   5.933   5.576  1.0890 -0.5675  0.7839
19197TIP3   OH279005   3.423   4.796   2.382  0.3748 -0.0474 -0.0402
19197TIP3    H179006   3.381   4.801   2.468  0.0550  0.2405 -0.2073
19197TIP3    H279007   3.352   4.772   2.322  0.8758 -1.6347 -0.0299
19198TIP3   OH279008   1.507   1.025  15.599  0.0910 -0.2327 -0.0438
19198TIP3    H179009   1.526   1.049  15.509 -1.2295  1.8657  0.1662
19198TIP3    H279010   1.583   0.975  15.628  0.5988 -0.8276 -2.2545
19199TIP3   OH279011   6.593   5.786  13.003 -0.4860 -0.2431  0.0324
19199TIP3    H179012   6.515   5.770  12.950 -1.2663 -0.6392  1.2881
19199TIP3    H279013   6.653   5.716  12.978 -1.5803 -1.5855  1.0454
19200TIP3   OH279014   5.817   0.309  11.855  0.4853  0.6858  0.1219
19200TIP3    H179015   5.742   0.250  11.849  1.1512 -0.2674  0.9114
19200TIP3    H279016   5.888   0.255  11.891  1.1894  1.8917  0.6217
19201TIP3   OH279017   4.325   2.897   5.802  0.5168  0.2061 -0.1540
19201TIP3    H179018   4.252   2.930   5.855  0.8482  0.1554  0.3390
19201TIP3    H279019   4.314   2.941   5.717  0.3455  0.7859  0.1589
19202TIP3   OH279020   4.761   2.802  12.566 -0.3809  0.0060  0.4454
19202TIP3    H179021   4.678   2.786  12.612 -2.2221 -1.4156 -2.9547
19202TIP3    H279022   4.761   2.896  12.550 -0.6799  0.2143  1.5793
19203TIP3   OH279023   3.994   6.064  16.111 -0.0856  0.4362 -0.2216
19203TIP3    H179024   4.056   6.078  16.183  1.8670  0.0690 -1.7212
19203TIP3    H279025   4.042   6.092  16.033 -1.5420 -0.5946 -1.5566
19204TIP3   OH279026   5.695   6.690   4.301 -0.7977  0.1732  0.0362
19204TIP3    H179027   5.745   6.700   4.220 -0.6689  3.4494  0.3718
19204TIP3    H279028   5.752   6.641   4.360 -0.7984 -2.0497 -1.6877
19205TIP3   OH279029   5.326   0.156   1.366  0.4323  0.3536  0.0077
19205TIP3    H179030   5.234   0.150   1.391  0.7269 -0.7492  0.9188
19205TIP3    H279031   5.326   0.155   1.270 -0.4061 -2.1046 -0.0345
19206TIP3   OH279032   6.248   5.080  17.260 -0.2266  0.2885  0.3667
19206TIP3    H179033   6.258   5.154  17.320 -1.8877  0.2220  0.7766
19206TIP3    H279034   6.217   5.119  17.179 -1.9215  0.0223  0.8358
19207TIP3   OH279035   5.155   6.146  13.137  0.3746  0.0678  0.0233
19207TIP3    H179036   5.097   6.074  13.162 -1.1326  0.2759 -2.5742
19207TIP3    H279037   5.115   6.224  13.175 -1.3416  0.2472 -1.9475
19208TIP3   OH279038   2.295   0.381   2.824  0.6838 -0.3425 -0.1646
19208TIP3    H179039   2.231   0.440   2.863  0.3633  0.0647 -1.2667
19208TIP3    H279040   2.252   0.296   2.823 -1.8499  0.6352 -4.9779
19209TIP3   OH279041   1.469   3.857  12.106 -0.1006 -0.5974  0.1856
19209TIP3    H179042   1.424   3.783  12.148  0.6462 -0.1948  1.7602
19209TIP3    H279043   1.527   3.816  12.042 -1.1876 -1.2342 -0.4353
19210TIP3   OH279044   3.444   0.721  11.377  0.5178 -0.0518 -0.8041
19210TIP3    H179045   3.472   0.660  11.445  1.0445  0.0257 -0.9466
19210TIP3    H279046   3.350   0.706  11.369  0.0768  1.1777  1.2121
19211TIP3   OH279047   4.999   2.341  16.675 -0.4164  0.1133  0.4531
19211TIP3    H179048   5.005   2.251  16.708 -2.0234 -0.4884 -0.7771
19211TIP3    H279049   5.064   2.346  16.605 -1.0804 -0.4731 -0.2269
19212TIP3   OH279050   4.672   4.825  15.374  0.1293 -0.5883  0.4837
19212TIP3    H179051   4.576   4.821  15.376  0.1424 -0.8065  1.5193
19212TIP3    H279052   4.692   4.918  15.371 -0.1111 -0.5710 -1.1567
19213TIP3   OH279053   6.469   3.170   3.583  0.1584  0.0485  0.4366
19213TIP3    H179054   6.531   3.141   3.650  0.7144  0.3851  0.0800
19213TIP3    H279055   6.507   3.251   3.549  0.7020 -0.8934 -1.3566
19214TIP3   OH279056   2.425   2.155   1.038  0.1488  0.4650  0.1127
19214TIP3    H179057   2.470   2.212   1.101  0.1658  0.4988  0.0704
19214TIP3    H279058   2.336   2.191   1.033  0.5705  1.4127 -1.0307
19215TIP3   OH279059   0.118   0.834   5.716 -0.7162  0.1298 -0.1772
19215TIP3    H179060   0.111   0.793   5.803 -1.3800  2.9937  1.2444
19215TIP3    H279061   0.064   0.779   5.659 -0.2389 -1.8656  1.1606
19216TIP3   OH279062   4.007   2.752  12.714  0.2602  0.1904  0.3379
19216TIP3    H179063   4.077   2.815  12.727  0.7317 -0.4826  1.1899
19216TIP3    H279064   4.026   2.682  12.777 -1.6089  0.3703  1.1749
19217TIP3   OH279065   5.635   2.428   5.188  0.1982 -0.3062 -0.4153
19217TIP3    H179066   5.645   2.338   5.157 -0.5094 -0.4696 -0.1755
19217TIP3    H279067   5.547   2.432   5.225  0.2750  0.4451 -0.2860
19218TIP3   OH279068   0.366   5.559   4.490  0.0552  0.3445  0.2485
19218TIP3    H179069   0.411   5.489   4.442 -0.1086  0.4817 -0.1106
19218TIP3    H279070   0.310   5.601   4.424 -2.6416 -1.4698  1.2241
19219TIP3   OH279071   3.374   6.055  15.662  0.4153  0.4097  0.4897
19219TIP3    H179072   3.430   6.052  15.584  0.1171 -0.9282  0.2985
19219TIP3    H279073   3.350   6.147  15.671  0.4814  0.5955 -0.9943
19220TIP3   OH279074   1.432   2.995  14.168  0.3179 -0.1106 -0.4614
19220TIP3    H179075   1.411   2.923  14.108 -0.6273 -0.5891  0.4073
19220TIP3    H279076   1.414   3.074  14.117  0.3898 -0.4879 -1.0941
19221TIP3   OH279077   3.562   3.942  17.010  0.1756 -0.0904 -0.4892
19221TIP3    H179078   3.550   3.965  17.102  0.2141 -2.0686  0.0566
19221TIP3    H279079   3.644   3.892  17.009  0.2324  0.0042 -1.6385
19222TIP3   OH279080   2.824   3.032  17.226 -0.2692  0.1632  0.0218
19222TIP3    H179081   2.878   3.087  17.282 -0.3462  1.2358 -0.9168
19222TIP3    H279082   2.744   3.082  17.212 -0.7179 -0.5800 -0.1303
19223TIP3   OH279083   2.743   0.867   1.336 -0.4802  0.6966 -0.9280
19223TIP3    H179084   2.799   0.867   1.414 -0.4172  1.5458 -0.9650
19223TIP3    H279085   2.787   0.926   1.275 -0.3018 -0.3007 -1.7802
19224TIP3   OH279086   5.371   3.013   4.278  0.6083  0.1858  0.3556
19224TIP3    H179087   5.461   3.034   4.300  0.6376  0.4621 -0.0191
19224TIP3    H279088   5.352   2.933   4.327  1.8310 -1.2613 -1.3943
19225TIP3   OH279089   2.803   6.096   1.933 -0.3210 -0.2348  0.0378
19225TIP3    H179090   2.739   6.155   1.893 -1.3927 -0.8334  0.8243
19225TIP3    H279091   2.752   6.042   1.994  0.8904 -0.9051  0.5016
19226TIP3   OH279092   3.315   1.050  11.819  0.2392 -0.3762  0.1138
19226TIP3    H179093   3.353   1.085  11.899 -0.7904  1.3144 -0.1024
19226TIP3    H279094   3.348   1.107  11.750 -0.5381 -0.5486 -0.4104
19227TIP3   OH279095   4.518   5.319  11.728  0.7445  0.1840 -0.0360
19227TIP3    H179096   4.563   5.391  11.685  0.5895 -0.9953 -2.3189
19227TIP3    H279097   4.531   5.335  11.822  0.1605  3.4811 -0.4126
19228TIP3   OH279098   6.241   6.755  17.154  0.1607  0.0808  0.2444
19228TIP3    H179099   6.280   6.670  17.172  0.7275  0.1737 -0.4896
19228TIP3    H279100   6.315   6.816  17.149 -0.3089  0.8011  1.6745
19229TIP3   OH279101   2.013   0.020  12.015 -0.3806  0.0117  0.2071
19229TIP3    H179102   1.931   0.011  11.966 -1.4184  1.1128  1.6418
19229TIP3    H279103   2.064   0.083  11.964 -0.4024 -0.6808 -0.6990
19230TIP3   OH279104   4.297   4.423  16.811 -0.0492  0.6279  0.5355
19230TIP3    H179105   4.252   4.507  16.817 -0.6107  0.4492 -0.8231
19230TIP3    H279106   4.288   4.384  16.898 -3.5755  0.0990  0.0846
19231TIP3   OH279107   1.898   0.580  15.889 -0.2250 -0.3815 -0.3032
19231TIP3    H179108   1.990   0.597  15.909  0.0185 -2.1186  0.1752
19231TIP3    H279109   1.898   0.554  15.797 -0.3403  0.2429 -0.4858
19232TIP3   OH279110   1.084   5.384   0.673  0.1628  0.6259  0.1656
19232TIP3    H179111   1.052   5.474   0.664 -0.3240  0.5512  1.0199
19232TIP3    H279112   1.005   5.330   0.669  0.4389  0.2517 -0.1886
19233TIP3   OH279113   4.553   2.087   1.143 -0.3474 -0.2619 -0.2752
19233TIP3    H179114   4.599   2.147   1.084 -0.1513 -0.3830 -0.2482
19233TIP3    H279115   4.590   2.105   1.230 -1.5052  0.7747  0.0262
19234TIP3   OH279116   2.124   1.874   3.310 -0.3680  0.1778 -0.0829
19234TIP3    H179117   2.067   1.872   3.387  2.2123  0.2812  1.9725
19234TIP3    H279118   2.196   1.933   3.334  0.9785 -0.4299 -2.2710
19235TIP3   OH279119   0.561   2.698   4.076  0.2916 -0.1916  0.7743
19235TIP3    H179120   0.571   2.603   4.069 -3.1359 -0.7146  1.4413
19235TIP3    H279121   0.617   2.723   4.149  0.5308 -1.8545  1.1966
19236TIP3   OH279122   3.349   4.812  16.373  0.3240 -0.3629  0.1645
19236TIP3    H179123   3.423   4.752  16.386  0.0285 -0.5847  0.8706
19236TIP3    H279124   3.361   4.845  16.285  1.5981  0.0419  0.4608
19237TIP3   OH279125   6.096   2.208  11.498 -0.6673 -0.1648 -0.5820
19237TIP3    H179126   6.042   2.283  11.521  1.6969  1.2154  0.8819
19237TIP3    H279127   6.098   2.208  11.402 -1.2259  1.2393 -0.6092
19238TIP3   OH279128   1.404   4.549  14.777 -0.1578  0.1702 -0.0280
19238TIP3    H179129   1.419   4.612  14.707  1.1233  0.5045  0.5176
19238TIP3    H279130   1.365   4.473  14.734 -1.9810  1.4070 -0.6673
19239TIP3   OH279131   2.375   1.012   3.322  0.1514 -0.0493 -0.1514
19239TIP3    H179132   2.297   0.958   3.341 -0.0019  0.3301  0.3083
19239TIP3    H279133   2.447   0.963   3.361 -0.0887  0.4483  0.9514
19240TIP3   OH279134   2.366   5.638  14.974 -0.0356 -0.0446 -0.2985
19240TIP3    H179135   2.393   5.576  15.042  3.7112  0.5978 -0.9617
19240TIP3    H279136   2.271   5.633  14.974 -0.2586 -0.8623  4.2263
19241TIP3   OH279137   4.553   0.391  11.831 -0.8709  0.4289 -0.0221
19241TIP3    H179138   4.621   0.442  11.788 -0.7866  1.8282  1.6394
19241TIP3    H279139   4.472   0.420  11.789 -0.6149  0.1816 -0.6945
19242TIP3   OH279140   4.849   0.926  11.639  0.0027  0.2039  0.2487
19242TIP3    H179141   4.782   0.930  11.571  1.0860 -0.5048 -0.9324
19242TIP3    H279142   4.810   0.873  11.708 -0.0530 -1.7577 -1.1976
19243TIP3   OH279143   2.493   4.330  16.579 -0.1713 -0.5870 -0.5158
19243TIP3    H179144   2.406   4.353  16.609  0.3605 -0.0877  0.7270
19243TIP3    H279145   2.536   4.293  16.657  0.9331 -0.1878 -0.9118
19244TIP3   OH279146   1.553   6.133   1.602  0.3140 -0.1058  0.3252
19244TIP3    H179147   1.597   6.104   1.522 -1.9255  0.3556 -1.1398
19244TIP3    H279148   1.601   6.212   1.628  1.1283 -0.3083 -0.5127
19245TIP3   OH279149   2.786   3.746   4.354  0.2382 -0.7657 -0.1440
19245TIP3    H179150   2.826   3.777   4.273  1.3498  2.1780  1.3815
19245TIP3    H279151   2.699   3.786   4.354  0.9889  0.9944  0.9683
19246TIP3   OH279152   0.058   0.860   0.592  0.0342  0.3876  0.1637
19246TIP3    H179153   0.097   0.776   0.567 -1.5839  0.1421 -1.7265
19246TIP3    H279154   0.119   0.896   0.657 -0.0955 -2.9794  2.3643
19247TIP3   OH279155   1.549   3.536   2.097  0.3371 -0.2250  0.2033
19247TIP3    H179156   1.504   3.522   2.014  0.5147 -1.0150  0.2295
19247TIP3    H279157   1.637   3.564   2.072  0.0564  0.6353  0.1453
19248TIP3   OH279158   0.708   1.391   2.792  0.0083 -0.3891  0.5086
19248TIP3    H179159   0.643   1.369   2.725 -0.3874 -0.0435  0.7779
19248TIP3    H279160   0.792   1.365   2.753  0.1220  2.3355 -1.3096
19249TIP3   OH279161   1.670   4.286   3.782  0.5430 -0.0904 -0.2271
19249TIP3    H179162   1.645   4.299   3.873  0.0100 -2.1780 -0.0246
19249TIP3    H279163   1.591   4.253   3.740  0.3931  2.0784 -1.8000
19250TIP3   OH279164   3.037   3.868  13.554 -0.2588  0.5528  0.0618
19250TIP3    H179165   3.100   3.796  13.560 -0.9129  0.1066  2.3172
19250TIP3    H279166   3.067   3.919  13.479  2.4673  0.0386  0.6967
19251TIP3   OH279167   2.894   6.519   3.770 -0.0021 -0.6674 -0.4722
19251TIP3    H179168   2.928   6.480   3.689 -0.4030  1.0366 -1.4902
19251TIP3    H279169   2.848   6.598   3.742 -0.6372 -0.3364  1.3750
19252TIP3   OH279170   0.850   3.318   2.225  0.2379 -0.7698  0.3628
19252TIP3    H179171   0.856   3.345   2.317  0.3157  0.7213 -0.0442
19252TIP3    H279172   0.886   3.230   2.223  1.0958 -0.4716  1.6314
19253TIP3   OH279173   0.239   5.694   0.898 -0.1710 -0.1520 -0.2512
19253TIP3    H179174   0.207   5.688   0.808  0.0572  2.9583 -0.6556
19253TIP3    H279175   0.168   5.739   0.945  0.2984 -0.4788  0.7870
19254TIP3   OH279176   6.158   3.990  17.017 -0.1405  0.2053 -0.0538
19254TIP3    H179177   6.127   3.979  17.107 -0.2803 -1.2113 -0.2518
19254TIP3    H279178   6.079   3.990  16.963  0.0462 -1.5893 -0.3893
19255TIP3   OH279179   6.078   2.549  16.123  0.2497  0.4175 -0.3599
19255TIP3    H179180   6.146   2.491  16.157 -0.8858 -1.4264 -1.0749
19255TIP3    H279181   6.048   2.598  16.199  0.7336 -0.4883  0.4422
19256TIP3   OH279182   2.612   2.264  12.356 -0.3506  0.0897 -0.0145
19256TIP3    H179183   2.615   2.338  12.416  3.0376 -0.0723  0.2277
19256TIP3    H279184   2.642   2.299  12.272  0.5476 -0.8191 -0.0917
19257TIP3   OH279185   2.253   5.900  13.945  0.7381 -0.4595  0.1559
19257TIP3    H179186   2.193   5.909  13.871  1.7309 -0.5026 -0.6646
19257TIP3    H279187   2.332   5.947  13.919  0.5831  0.8360  1.7940
19258TIP3   OH279188   2.697   1.445   3.368 -0.5153 -0.6686  0.8892
19258TIP3    H179189   2.784   1.455   3.329 -0.9447  0.0312  0.0623
19258TIP3    H279190   2.679   1.351   3.365  0.1925 -0.8107  1.0261
19259TIP3   OH279191   5.977   1.637   1.719 -0.2385 -0.1652  0.3012
19259TIP3    H179192   5.904   1.678   1.766 -0.1997  0.0868  0.1440
19259TIP3    H279193   5.942   1.553   1.690 -0.2203 -0.3891  0.9001
19260TIP3   OH279194   1.507   5.857  14.244 -0.1239  0.2923 -0.5379
19260TIP3    H179195   1.474   5.845  14.155 -0.3035 -2.2269 -0.1861
19260TIP3    H279196   1.438   5.824  14.301  1.1139 -0.7933  0.4052
19261TIP3   OH279197   6.660   1.226  11.887 -0.1450  0.2350 -0.5439
19261TIP3    H179198   6.696   1.271  11.810  1.0435 -1.2258 -0.8781
19261TIP3    H279199   6.575   1.268  11.901  1.1034  2.9600 -0.4991
19262TIP3   OH279200   1.759   0.510   2.571  0.0201  0.5580 -0.4132
19262TIP3    H179201   1.704   0.495   2.648  0.2185 -0.5315 -0.4610
19262TIP3    H279202   1.767   0.423   2.530  1.7683  0.6762 -0.4012
19263TIP3   OH279203   5.788   6.204   0.386 -0.0840  0.6318  0.1116
19263TIP3    H179204   5.727   6.156   0.331 -0.2517  1.5388 -0.5233
19263TIP3    H279205   5.740   6.283   0.412  0.9027  1.5104 -0.6530
19264TIP3   OH279206   0.573   3.822   2.286 -0.1284 -0.1847  0.0050
19264TIP3    H179207   0.481   3.809   2.263 -0.3009  0.4632  0.3156
19264TIP3    H279208   0.622   3.776   2.217 -0.6411  1.1095 -1.2657
19265TIP3   OH279209   6.720   2.458   0.813 -0.4267  0.1810  0.1654
19265TIP3    H179210   6.711   2.423   0.901  1.1990  2.1535  1.1782
19265TIP3    H279211   6.730   2.380   0.757 -1.1087 -1.0766  1.7194
19266TIP3   OH279212   3.886   0.912  16.738 -0.0667  0.0852 -0.2573
19266TIP3    H179213   3.873   0.997  16.780 -1.0449 -1.2692  2.4357
19266TIP3    H279214   3.809   0.860  16.763 -0.0394 -1.3089 -2.7238
19267TIP3   OH279215   2.120   0.406   1.505 -0.3408 -0.3143  0.3351
19267TIP3    H179216   2.152   0.356   1.580 -0.0489 -2.2279 -1.0130
19267TIP3    H279217   2.146   0.355   1.428  0.8815  2.3934 -1.2052
19268TIP3   OH279218   5.835   5.928   3.174  0.4837 -0.1550  0.0536
19268TIP3    H179219   5.906   5.870   3.200 -0.1207 -0.4493  1.1628
19268TIP3    H279220   5.756   5.887   3.210 -0.0961  0.7662 -0.1092
19269TIP3   OH279221   6.465   0.481   6.196  0.1514  0.4882  0.4999
19269TIP3    H179222   6.416   0.504   6.118  0.9196  0.1518 -0.0919
19269TIP3    H279223   6.553   0.459   6.165  0.0902 -1.0328  1.2670
19270TIP3   OH279224   4.909   3.647  13.568  0.2745 -0.0109 -0.1436
19270TIP3    H179225   4.872   3.728  13.603 -1.4962  0.1824 -2.2290
19270TIP3    H279226   5.003   3.660  13.569  0.1746  0.8953  2.1971
19271TIP3   OH279227   4.300   4.611   4.170 -0.4408 -0.2577 -0.0535
19271TIP3    H179228   4.272   4.558   4.096  0.2222  0.2074 -0.6544
19271TIP3    H279229   4.368   4.668   4.134  2.6859 -2.5806  1.6610
19272TIP3   OH279230   2.937   5.131  15.625 -0.1869 -0.1473 -0.0111
19272TIP3    H179231   2.971   5.178  15.549 -0.4939  1.2406  0.6813
19272TIP3    H279232   2.842   5.138  15.617 -0.2284 -0.3209  0.3200
19273TIP3   OH279233   1.160   6.539  15.049 -0.5704  0.2590 -0.3605
19273TIP3    H179234   1.117   6.623  15.035 -2.0553 -0.7615 -2.6699
19273TIP3    H279235   1.233   6.538  14.988  0.7486  0.6246  1.1360
19274TIP3   OH279236   1.771   0.204   1.493 -0.8155  0.0129  0.6443
19274TIP3    H179237   1.796   0.281   1.441  0.8179  0.7949  2.4430
19274TIP3    H279238   1.852   0.156   1.505 -1.9066 -2.3963 -0.9201
19275TIP3   OH279239   3.129   5.839  11.440 -0.6855 -0.4618 -0.0298
19275TIP3    H179240   3.066   5.895  11.487 -0.9220 -1.2644  0.6344
19275TIP3    H279241   3.074   5.782  11.386 -0.4714 -0.4631 -0.2474
19276TIP3   OH279242   1.024   1.213  10.398 -0.0779 -0.5588  0.3979
19276TIP3    H179243   1.067   1.193  10.481 -0.7426  1.0952  1.1944
19276TIP3    H279244   0.931   1.202  10.417 -0.5303  3.0422  0.9677
19277TIP3   OH279245   5.106   1.214   1.987  0.4295 -0.2273  0.3620
19277TIP3    H179246   5.071   1.278   2.048  0.7929  0.4703 -0.1479
19277TIP3    H279247   5.124   1.136   2.040 -1.8931 -0.6342  0.6497
19278TIP3   OH279248   1.606   0.184  10.868  0.0298  0.7588  0.5003
19278TIP3    H179249   1.578   0.176  10.959  0.5499 -0.5344  0.5753
19278TIP3    H279250   1.539   0.237  10.826 -1.0777  0.0020  1.2819
19279TIP3   OH279251   3.346   0.396  16.703  0.1139 -0.0108 -0.4149
19279TIP3    H179252   3.427   0.444  16.688  0.5094 -0.4393  0.2603
19279TIP3    H279253   3.363   0.308  16.668 -0.4761  0.2315 -1.3282
19280TIP3   OH279254   3.811   1.436  10.665  0.2282  0.4536 -0.6431
19280TIP3    H179255   3.862   1.366  10.625  0.3481 -0.6348  1.3313
19280TIP3    H279256   3.729   1.395  10.692 -0.9502  1.7500 -2.0114
19281TIP3   OH279257   6.766   0.005   4.448 -0.1572 -0.0763  0.2668
19281TIP3    H179258   6.832  -0.064   4.450 -1.1348 -1.0513 -0.3042
19281TIP3    H279259   6.754   0.029   4.540  0.4018 -0.4437  0.4448
19282TIP3   OH279260   3.939   4.238  13.249  0.2268  0.2113  0.5264
19282TIP3    H179261   3.882   4.313  13.229 -1.6380 -1.1130  0.5853
19282TIP3    H279262   3.961   4.202  13.164  0.5964  0.4485  0.5207
19283TIP3   OH279263   0.806   5.093  16.668  0.2437 -0.5079 -0.2078
19283TIP3    H179264   0.778   5.130  16.752 -1.4212  3.2222 -2.1561
19283TIP3    H279265   0.894   5.128  16.654  1.0660 -2.1802  0.4228
19284TIP3   OH279266   5.683   6.727  14.142  0.1650  0.0337 -0.1921
19284TIP3    H179267   5.756   6.783  14.166  0.6197 -0.2320 -0.9177
19284TIP3    H279268   5.717   6.673  14.070 -0.0436 -1.6007  0.8600
19285TIP3   OH279269   4.360   2.322  13.519  0.8564 -0.3930 -0.7606
19285TIP3    H179270   4.368   2.414  13.546 -0.3451 -0.0856 -1.3924
19285TIP3    H279271   4.316   2.326  13.434 -0.1698 -1.6049 -0.3063
19286TIP3   OH279272   1.834   2.615  13.356  0.9623 -0.1199 -0.1177
19286TIP3    H179273   1.790   2.572  13.430 -0.9870  1.0884 -0.5140
19286TIP3    H279274   1.890   2.547  13.318  2.1694 -0.7427  2.5189
19287TIP3   OH279275   4.732   2.424  11.636  0.0945 -0.8403  0.0390
19287TIP3    H179276   4.707   2.478  11.711 -1.8976 -1.6587  0.0290
19287TIP3    H279277   4.798   2.476  11.590  0.0363  0.4744  1.3682
19288TIP3   OH279278   5.371   1.677  16.982 -0.3063  0.4243 -0.6594
19288TIP3    H179279   5.331   1.727  16.910  0.1145  1.0419 -0.4733
19288TIP3    H279280   5.465   1.695  16.973 -0.1421 -0.3879 -0.6197
19289TIP3   OH279281   0.749   4.985  13.621  0.0203 -0.5156  0.2399
19289TIP3    H179282   0.821   5.026  13.572 -0.1186 -1.5158 -0.8350
19289TIP3    H279283   0.784   4.900  13.648 -0.5506 -0.7612  0.2159
19290TIP3   OH279284   4.544   1.050  14.519  0.5599 -0.1664  0.0305
19290TIP3    H179285   4.518   0.994  14.446  0.2587  1.3584 -1.0956
19290TIP3    H279286   4.603   1.115  14.479 -0.0027  0.9978  1.0346
19291TIP3   OH279287   5.332   0.970  11.507  0.0709 -0.3798 -0.0746
19291TIP3    H179288   5.307   0.901  11.445  0.2000 -0.4613 -0.0353
19291TIP3    H279289   5.259   0.975  11.568  0.8814 -1.8123  1.0727
19292TIP3   OH279290   4.089   4.824   5.059  0.3891 -1.0894 -0.6358
19292TIP3    H179291   4.128   4.822   4.972 -0.9329  0.3973 -1.3176
19292TIP3    H279292   4.145   4.884   5.109 -1.7760  2.5335 -2.1309
19293TIP3   OH279293   4.940   4.312  16.391  0.0587 -0.4223 -0.6114
19293TIP3    H179294   5.035   4.296  16.390 -0.0583 -1.2115 -2.2105
19293TIP3    H279295   4.903   4.237  16.346 -1.5164 -0.9883  1.4829
19294TIP3   OH279296   2.191   5.298   3.453 -0.3691 -0.0959  0.7081
19294TIP3    H179297   2.236   5.337   3.377  0.7828 -0.5236  1.1563
19294TIP3    H279298   2.104   5.275   3.419 -1.5714  3.7913  0.6572
19295TIP3   OH279299   5.307   5.777  14.632 -0.2993 -0.2160 -0.0551
19295TIP3    H179300   5.228   5.795  14.683  1.5246 -0.1058  2.9170
19295TIP3    H279301   5.293   5.689  14.597 -1.9083 -0.0079 -0.0152
19296TIP3   OH279302   1.668   2.255   2.839 -0.3967  0.6199 -0.1637
19296TIP3    H179303   1.710   2.282   2.920 -2.1192  0.2106  0.9135
19296TIP3    H279304   1.612   2.328   2.815  0.8277  1.1435 -1.5602
19297TIP3   OH279305   0.755   3.612  11.017 -0.2878 -0.1878  0.0819
19297TIP3    H179306   0.771   3.644  10.928 -0.8036  0.3527  0.1756
19297TIP3    H279307   0.840   3.580  11.047  0.3787  1.4868  0.1280
19298TIP3   OH279308   0.009   5.342   1.465 -0.1722 -0.3162 -0.2403
19298TIP3    H179309  -0.086   5.326   1.460 -0.3345  0.4827  0.1414
19298TIP3    H279310   0.020   5.430   1.431  0.3242 -0.0381  0.6063
19299TIP3   OH279311   5.749   2.232   5.631 -0.2484 -0.5136  0.4030
19299TIP3    H179312   5.672   2.211   5.578 -0.6412 -0.2064  0.8436
19299TIP3    H279313   5.775   2.319   5.602 -1.0305  0.0607  1.3431
19300TIP3   OH279314   4.650   3.627   0.315  0.0764  0.2110 -0.1389
19300TIP3    H179315   4.708   3.686   0.266 -0.7876  0.0081 -1.4606
19300TIP3    H279316   4.569   3.624   0.263 -0.1568 -1.5926  0.2589
19301TIP3   OH279317   2.971   4.604   6.221 -0.1552  0.2454 -0.0273
19301TIP3    H179318   3.003   4.522   6.184 -1.5339  0.7347 -2.5075
19301TIP3    H279319   3.051   4.653   6.241  0.7663  0.0904 -2.8619
19302TIP3   OH279320   5.856   5.901   2.322 -1.0054  0.0809  0.0369
19302TIP3    H179321   5.949   5.892   2.342 -1.0995  0.1678  0.5115
19302TIP3    H279322   5.854   5.928   2.230 -0.6336 -2.9374 -0.9619
19303TIP3   OH279323   5.710   1.242  12.128 -0.2900  1.0218 -0.1959
19303TIP3    H179324   5.764   1.314  12.160 -1.5942  1.1438  1.9115
19303TIP3    H279325   5.635   1.284  12.086  0.2686  0.8468 -1.4226
19304TIP3   OH279326   2.173   5.294   2.434 -0.3475 -0.1324 -0.0828
19304TIP3    H179327   2.086   5.273   2.400 -0.1251 -0.9504 -0.1710
19304TIP3    H279328   2.192   5.223   2.495  1.2595 -1.3665 -1.8792
19305TIP3   OH279329   1.506   5.601  15.638  0.0314  0.4227  0.2921
19305TIP3    H179330   1.456   5.642  15.709 -2.0955 -0.3707 -0.6366
19305TIP3    H279331   1.438   5.564  15.580  1.7412 -0.7059 -1.0859
19306TIP3   OH279332   6.150   2.012   4.444  1.0876 -0.4369 -0.2169
19306TIP3    H179333   6.125   2.100   4.416  2.9105  0.3688  0.5370
19306TIP3    H279334   6.125   1.956   4.370 -1.1556  0.4971 -0.2468
19307TIP3   OH279335   1.114   3.677   1.638 -0.1235  0.3169 -0.8017
19307TIP3    H179336   1.184   3.635   1.587 -1.0743 -1.2329 -0.9085
19307TIP3    H279337   1.135   3.770   1.636  2.5458 -0.1660  0.1040
19308TIP3   OH279338   5.979   1.784  15.055 -0.0058  0.4307 -0.3743
19308TIP3    H179339   6.055   1.726  15.055 -1.2492 -1.3650  1.7722
19308TIP3    H279340   6.014   1.871  15.035  2.3103 -0.6185 -1.1557
19309TIP3   OH279341   3.091   2.708   3.109 -0.3009 -0.5554 -0.0100
19309TIP3    H179342   3.090   2.670   3.197 -0.0176 -0.0906  0.2002
19309TIP3    H279343   3.105   2.802   3.124  1.3458 -0.6719 -0.6168
19310TIP3   OH279344   4.658   6.415  15.746  0.0587 -0.4378 -0.1794
19310TIP3    H179345   4.617   6.501  15.758 -0.3621 -0.9093  2.3726
19310TIP3    H279346   4.632   6.388  15.658 -1.7307  1.0578 -0.1736
19311TIP3   OH279347   2.961   4.376  11.552  0.2693 -0.5905 -0.4010
19311TIP3    H179348   2.956   4.296  11.499 -0.4144  0.1192 -1.4589
19311TIP3    H279349   2.870   4.401  11.566  0.4433  1.4175 -2.3566
19312TIP3   OH279350   1.098   3.075   1.827  0.3732  0.3327 -0.0712
19312TIP3    H179351   1.036   3.113   1.764 -0.7615 -1.7947 -0.3194
19312TIP3    H279352   1.045   3.014   1.878  1.5140  1.1808  2.2649
19313TIP3   OH279353   5.632   3.866   1.956  0.2617 -0.1325 -0.3919
19313TIP3    H179354   5.607   3.803   1.888 -0.4878  1.4754 -1.6779
19313TIP3    H279355   5.610   3.822   2.038 -0.1842 -1.5575 -1.2312
19314TIP3   OH279356   4.123   4.240  13.469  0.4953 -0.0823  0.0801
19314TIP3    H179357   4.096   4.228  13.378  1.7280  2.3547 -0.6997
19314TIP3    H279358   4.067   4.311  13.502  0.6763 -0.3212  0.9260
19315TIP3   OH279359   3.127   5.569  16.960 -0.0414  0.8168  0.2755
19315TIP3    H179360   3.206   5.522  16.986 -0.3801  0.1619  0.1519
19315TIP3    H279361   3.159   5.646  16.913  0.5276  0.8245  0.6731
19316TIP3   OH279362   3.996   6.128  13.427 -0.0999  0.7393 -0.0887
19316TIP3    H179363   3.909   6.131  13.387 -0.0614  1.1164 -0.1457
19316TIP3    H279364   3.979   6.129  13.521 -0.1500  0.9261 -0.1007
19317TIP3   OH279365   1.976   1.560  13.538  0.1170  0.0808 -0.1498
19317TIP3    H179366   2.040   1.613  13.588 -1.5206 -0.6086  2.9201
19317TIP3    H279367   1.969   1.478  13.587 -1.9109 -0.5173 -1.3248
19318TIP3   OH279368   1.130   1.835   2.543  0.5116  0.3123 -0.1031
19318TIP3    H179369   1.097   1.924   2.554  1.3267  0.5254  0.7211
19318TIP3    H279370   1.209   1.832   2.596  1.5169 -0.3574 -1.5627
19319TIP3   OH279371   3.829   4.934   3.126 -0.5729  0.1702 -0.7775
19319TIP3    H179372   3.756   4.886   3.088  1.1850 -1.0153 -2.9278
19319TIP3    H279373   3.840   5.011   3.070 -0.1543  0.3165 -0.5006
19320TIP3   OH279374   3.050   0.935   0.767  0.5117 -0.1411  0.4321
19320TIP3    H179375   3.104   0.948   0.845  0.9827 -2.7173  0.6337
19320TIP3    H279376   3.025   0.843   0.771 -1.3772  0.2308 -1.2886
19321TIP3   OH279377   4.658   6.346   5.329 -0.3986 -0.4829  0.3047
19321TIP3    H179378   4.725   6.343   5.260  0.2599 -0.1822  0.9256
19321TIP3    H279379   4.655   6.257   5.363  0.6225 -0.2067  1.1531
19322TIP3   OH279380   3.290   0.921   4.424  0.6685  0.3902  0.6270
19322TIP3    H179381   3.323   0.911   4.334  2.2694  3.6033  0.7015
19322TIP3    H279382   3.348   0.866   4.477  2.1119  1.2570  0.0249
19323TIP3   OH279383   3.481   2.469  16.417 -0.2556  0.0465 -1.0380
19323TIP3    H179384   3.393   2.445  16.388 -0.7674  2.1827 -1.4694
19323TIP3    H279385   3.497   2.554  16.375  1.3185  0.5072  0.3941
19324TIP3   OH279386   5.285   5.309   2.607 -0.0972 -0.4338 -0.5749
19324TIP3    H179387   5.360   5.271   2.560  0.7171  0.1692  0.2036
19324TIP3    H279388   5.301   5.403   2.604  0.0136 -0.3895  0.9821
19325TIP3   OH279389   3.982   3.545   6.605 -0.6530 -0.3178  0.3036
19325TIP3    H179390   4.023   3.488   6.540 -2.3759  0.3820 -1.4969
19325TIP3    H279391   4.055   3.596   6.641  0.5994 -2.0197  0.2980
19326TIP3   OH279392   5.295   0.779   5.276 -1.1645 -0.5987 -0.1950
19326TIP3    H179393   5.344   0.830   5.340 -1.7400 -0.6488  0.2944
19326TIP3    H279394   5.301   0.689   5.307  0.9573 -1.0875 -1.7480
19327TIP3   OH279395   0.734   0.800   5.344  0.2877  0.3476 -0.4737
19327TIP3    H179396   0.711   0.864   5.412 -1.2595  0.8919 -1.4497
19327TIP3    H279397   0.783   0.732   5.391 -0.0004  1.1169  1.0212
19328TIP3   OH279398   3.332   0.592  14.253 -0.1999 -1.0156  0.1146
19328TIP3    H179399   3.310   0.663  14.193 -0.3948 -0.3592  0.9412
19328TIP3    H279400   3.378   0.528  14.199 -0.9804 -0.7658 -0.8772
19329TIP3   OH279401   3.466   1.375   1.219  0.2012  0.3143  0.1549
19329TIP3    H179402   3.523   1.406   1.289 -1.2291  0.5645  1.2569
19329TIP3    H279403   3.447   1.284   1.243  0.2887  0.1730 -0.3075
19330TIP3   OH279404   1.760   2.113  13.059  0.4144 -0.0330 -0.3221
19330TIP3    H179405   1.687   2.090  13.002  0.1138  0.3693 -0.1052
19330TIP3    H279406   1.758   2.208  13.063  2.2138  0.1355 -1.9599
19331TIP3   OH279407   5.851   3.910   1.100 -0.0371 -0.0975  0.4755
19331TIP3    H179408   5.884   3.994   1.069 -0.4104 -0.1009  0.0629
19331TIP3    H279409   5.865   3.849   1.028 -1.6893  0.0894 -0.0398
19332TIP3   OH279410   6.740   2.128   1.389  0.0053  0.3609  0.8847
19332TIP3    H179411   6.667   2.149   1.332  0.6556 -0.2438 -0.1902
19332TIP3    H279412   6.700   2.116   1.476 -1.3754 -1.3812  0.0675
19333TIP3   OH279413   0.070   0.570   0.449  0.1949  0.3026 -0.0001
19333TIP3    H179414  -0.009   0.622   0.432 -0.6876 -0.1727  2.3630
19333TIP3    H279415   0.075   0.510   0.375 -0.4566  1.7161 -1.2543
19334TIP3   OH279416   6.700   1.071  12.701  0.0934 -0.1190  0.2881
19334TIP3    H179417   6.739   1.141  12.648 -1.6107  0.0979 -0.7729
19334TIP3    H279418   6.656   1.116  12.772 -2.3643  0.1247 -1.2683
19335TIP3   OH279419   2.429   5.102   6.007 -0.1584 -0.0608  0.2123
19335TIP3    H179420   2.343   5.091   6.048 -0.6970  0.5904 -0.6956
19335TIP3    H279421   2.467   5.178   6.050 -0.5958  0.4385 -0.2634
19336TIP3   OH279422   2.067   1.223   2.990 -0.4119 -0.1226 -0.5485
19336TIP3    H179423   2.092   1.207   2.899 -0.1015  0.0856 -0.4989
19336TIP3    H279424   2.067   1.136   3.030  0.2289 -0.1242 -0.5481
19337TIP3   OH279425   5.204   0.170  14.334  0.4594  0.2260  0.0322
19337TIP3    H179426   5.195   0.235  14.403 -0.8143 -0.0765  0.1636
19337TIP3    H279427   5.207   0.086  14.381 -1.6452 -0.0831 -0.2998
19338TIP3   OH279428   6.393   3.290   0.598 -0.3097  0.1210  0.1163
19338TIP3    H179429   6.350   3.356   0.653  2.2984  2.1273 -0.0674
19338TIP3    H279430   6.436   3.232   0.661  0.9399  1.1852  0.2875
19339TIP3   OH279431   4.605   4.919   2.546  0.8071 -0.2376  0.1977
19339TIP3    H179432   4.647   4.969   2.476  0.8185 -0.1899  0.2389
19339TIP3    H279433   4.676   4.865   2.582  0.4373 -1.6026 -1.0050
19340TIP3   OH279434   4.949   2.155   2.817 -0.0280 -0.2684  0.5210
19340TIP3    H179435   4.899   2.209   2.878  0.1444  0.5985 -0.0935
19340TIP3    H279436   4.906   2.069   2.821  0.2694 -0.3700  2.1906
19341TIP3   OH279437   0.140   0.674   3.325  0.1457  0.1980  0.4464
19341TIP3    H179438   0.059   0.704   3.284 -0.8939 -1.8505  0.8676
19341TIP3    H279439   0.208   0.692   3.260 -0.9462  0.1532 -0.7444
19342TIP3   OH279440   2.159   0.523  12.503  0.0438  0.3683 -0.4053
19342TIP3    H179441   2.211   0.602  12.484 -1.3572  1.3121 -0.4535
19342TIP3    H279442   2.218   0.451  12.481  1.4162  1.3870 -0.2425
19343TIP3   OH279443   6.705   5.491   2.383  0.2016  0.0999  0.2007
19343TIP3    H179444   6.786   5.542   2.386 -0.8975  1.9424  1.2939
19343TIP3    H279445   6.638   5.553   2.414 -1.3396 -1.8664  0.9881
19344TIP3   OH279446   0.985   1.389  16.011 -0.9450  0.3250 -0.3835
19344TIP3    H179447   1.037   1.319  15.971  0.0490  1.2285 -0.7244
19344TIP3    H279448   0.930   1.345  16.076 -0.0243 -0.7154 -0.2943
19345TIP3   OH279449   1.105   3.615  13.651 -0.2662  0.1096  0.4047
19345TIP3    H179450   1.062   3.654  13.575 -0.9753  1.4557  1.4342
19345TIP3    H279451   1.033   3.596  13.712  0.4295  0.8452  1.4877
19346TIP3   OH279452   5.083   3.603  12.378  0.4009  0.9019  0.6813
19346TIP3    H179453   5.067   3.587  12.285 -1.4544  2.0360  0.7524
19346TIP3    H279454   5.127   3.688  12.380  1.6915  0.2471  0.7890
19347TIP3   OH279455   0.917   4.080   3.255  0.6555 -0.4291  0.4700
19347TIP3    H179456   0.894   4.021   3.183 -1.1284 -2.7564  2.7554
19347TIP3    H279457   0.902   4.168   3.220  0.2576 -1.4183 -2.0844
19348TIP3   OH279458   5.453   5.818  10.957 -0.3116  0.2388 -0.2806
19348TIP3    H179459   5.402   5.871  11.019  0.2101 -0.5971  0.9248
19348TIP3    H279460   5.539   5.811  10.999  0.1483 -0.1028 -1.2710
19349TIP3   OH279461   2.534   3.889   0.449 -0.3032 -0.2546  0.1162
19349TIP3    H179462   2.560   3.979   0.466  0.4140 -0.2522 -0.8806
19349TIP3    H279463   2.603   3.836   0.488  1.2907 -0.2497 -2.4984
19350TIP3   OH279464   2.704   3.740   0.600 -0.6407  0.3368 -0.4361
19350TIP3    H179465   2.680   3.649   0.586 -2.3360  0.9254 -1.6530
19350TIP3    H279466   2.783   3.736   0.654 -0.3041 -1.8466 -1.0066
19351TIP3   OH279467   5.181   6.288  17.050  0.0339  0.3909 -0.1867
19351TIP3    H179468   5.098   6.241  17.061 -0.4837  1.4184  0.5633
19351TIP3    H279469   5.248   6.227  17.080 -0.5080 -0.2588 -0.2770
19352TIP3   OH279470   0.942   5.460   5.772 -0.1280  0.0500 -0.1349
19352TIP3    H179471   0.929   5.497   5.859  0.2999  0.0997 -0.0885
19352TIP3    H279472   0.888   5.381   5.771 -1.3058  0.8336 -0.3471
19353TIP3   OH279473   4.439   2.247   5.473  0.1071  0.0130  0.2024
19353TIP3    H179474   4.419   2.236   5.380  1.1891  1.1630 -0.1993
19353TIP3    H279475   4.387   2.323   5.500  1.9255  1.4671 -0.2217
19354TIP3   OH279476   6.048   1.598  14.770  0.3741 -0.3499 -0.3449
19354TIP3    H179477   6.040   1.522  14.827 -0.5439 -1.5913 -2.0253
19354TIP3    H279478   6.141   1.618  14.769  0.5472 -1.0528  0.6310
19355TIP3   OH279479   1.119   2.539   0.429 -0.2115  0.0948 -0.1105
19355TIP3    H179480   1.084   2.572   0.511  3.3525  1.3767  1.0687
19355TIP3    H279481   1.121   2.444   0.440 -2.7310 -0.0238 -0.1168
19356TIP3   OH279482   2.419   2.129   5.424 -0.5455  0.2698 -0.8478
19356TIP3    H179483   2.338   2.147   5.376 -0.0799  0.1183 -1.7034
19356TIP3    H279484   2.485   2.185   5.382  0.4453 -1.7384 -2.1269
19357TIP3   OH279485   1.907   3.079   5.963  0.0681 -0.3219 -0.4997
19357TIP3    H179486   1.995   3.116   5.969  0.3568 -1.0070 -0.3888
19357TIP3    H279487   1.882   3.093   5.871  1.0651 -1.7863 -1.0337
19358TIP3   OH279488   2.014   6.597   2.720  0.4680  0.0487 -0.0029
19358TIP3    H179489   1.989   6.605   2.812 -0.2813  0.8689 -0.2601
19358TIP3    H279490   2.106   6.622   2.718 -0.1142  2.4590  0.2112
19359TIP3   OH279491   1.632   5.413  13.893  0.3430  0.5937  0.4984
19359TIP3    H179492   1.648   5.507  13.896 -1.8894  1.0112  1.1600
19359TIP3    H279493   1.637   5.385  13.984 -0.3233  0.3574  0.4712
19360TIP3   OH279494   1.665   5.678   3.706  0.0068 -0.0217  0.1188
19360TIP3    H179495   1.710   5.755   3.741 -0.2321 -0.6335  1.8927
19360TIP3    H279496   1.631   5.633   3.783 -1.2421 -1.0655 -0.9821
19361TIP3   OH279497   5.999   2.075  16.795 -0.4094 -0.8588  0.2723
19361TIP3    H179498   5.979   2.165  16.822  0.9037 -0.8697  1.4151
19361TIP3    H279499   6.015   2.028  16.877 -0.0417 -1.8756 -0.3560
19362TIP3   OH279500   2.135   4.644   1.116  0.3222  0.2956 -0.2687
19362TIP3    H179501   2.137   4.655   1.211  2.7576  1.9731 -0.4393
19362TIP3    H279502   2.047   4.673   1.091 -0.9434 -1.6486  1.5489
19363TIP3   OH279503   1.180   6.071   3.410 -0.0622 -0.5675  0.4055
19363TIP3    H179504   1.103   6.056   3.465  1.1744 -0.7903  2.1775
19363TIP3    H279505   1.196   5.986   3.368 -1.0094 -0.4034 -0.3066
19364TIP3   OH279506   6.772   0.081  12.731 -0.1888  0.6809 -0.4960
19364TIP3    H179507   6.700   0.044  12.784  0.3705  0.3836  0.0695
19364TIP3    H279508   6.748   0.059  12.641 -0.8369  0.6282 -0.3222
19365TIP3   OH279509   6.461   4.900   3.917 -0.3940 -0.1648 -0.1646
19365TIP3    H179510   6.527   4.962   3.944  0.0054  0.4540 -2.3561
19365TIP3    H279511   6.505   4.845   3.852 -1.3938 -1.2278  0.0270
19366TIP3   OH279512   1.878   4.545   3.313 -0.1715  0.4512  0.5723
19366TIP3    H179513   1.826   4.626   3.308 -1.6016 -0.4996 -0.6966
19366TIP3    H279514   1.837   4.494   3.382 -0.1526  0.2214  0.4160
19367TIP3   OH279515   4.035   4.805  10.695 -0.4201 -0.2021 -0.3240
19367TIP3    H179516   4.057   4.731  10.752 -0.1388 -0.5873 -0.9187
19367TIP3    H279517   3.956   4.777  10.650  0.6748 -0.9291 -1.8957
19368TIP3   OH279518   5.093   2.879  12.266 -0.1807  0.0755 -0.4102
19368TIP3    H179519   5.064   2.954  12.214 -0.8640 -0.6639 -1.1259
19368TIP3    H279520   5.109   2.914  12.354 -1.0057  0.9504 -0.6040
19369TIP3   OH279521   4.025   3.131  14.801  0.4391 -0.2214  0.1702
19369TIP3    H179522   4.100   3.131  14.742  0.4104  0.0084  0.1314
19369TIP3    H279523   3.974   3.207  14.774 -0.6736 -1.3002 -0.8836
19370TIP3   OH279524   1.271   4.836  15.613 -0.4312  0.2437  0.5397
19370TIP3    H179525   1.235   4.838  15.702 -1.2387  0.3013  0.2103
19370TIP3    H279526   1.209   4.885  15.560 -0.2336 -0.2596 -0.1688
19371TIP3   OH279527   1.420   4.675  13.512 -0.7362 -0.4020 -0.1405
19371TIP3    H179528   1.433   4.584  13.486 -0.9849 -0.4856  0.0304
19371TIP3    H279529   1.409   4.722  13.429  0.4262 -0.3603 -0.2913
19372TIP3   OH279530   0.223   3.225   1.246 -0.2299  0.1149  0.6320
19372TIP3    H179531   0.145   3.268   1.281 -1.1975 -0.0483 -1.2053
19372TIP3    H279532   0.221   3.244   1.152  2.2959  0.6122  0.6211
19373TIP3   OH279533   2.999   5.623   5.706 -0.0352 -0.1743 -0.1128
19373TIP3    H179534   2.942   5.689   5.743 -0.1785 -0.4292  0.1270
19373TIP3    H279535   2.958   5.599   5.623 -0.5088 -0.6604  0.2552
19374TIP3   OH279536   3.969   3.441   1.940 -0.2284  0.3325 -0.0620
19374TIP3    H179537   3.934   3.361   1.981  2.1482 -0.7658 -0.0436
19374TIP3    H279538   3.980   3.502   2.013 -1.3821  0.4455  0.0341
19375TIP3   OH279539   5.932   1.715   0.667  0.3687 -0.5545  0.1236
19375TIP3    H179540   5.926   1.726   0.572 -0.0852  2.8811  0.4416
19375TIP3    H279541   5.849   1.674   0.692 -0.6666  0.9130 -0.7532
19376TIP3   OH279542   2.672   4.149   0.506 -0.3473  0.3946  0.0866
19376TIP3    H179543   2.758   4.107   0.505 -1.2542 -1.5730 -0.4419
19376TIP3    H279544   2.667   4.192   0.591  1.4024  1.1355 -0.1535
19377TIP3   OH279545   2.542   2.110  16.050 -0.0979 -0.0311 -0.6478
19377TIP3    H179546   2.462   2.158  16.029  0.4228  0.3905 -1.7763
19377TIP3    H279547   2.554   2.051  15.976  0.5375 -0.2177 -0.4014
19378TIP3   OH279548   6.743   5.686  12.589 -0.3826  0.2650  0.4075
19378TIP3    H179549   6.825   5.703  12.634 -0.1004  0.6021 -0.2289
19378TIP3    H279550   6.741   5.749  12.517 -1.2577  0.3496  0.4953
19379TIP3   OH279551   5.806   6.246   1.460 -0.2138  0.2155  0.1050
19379TIP3    H179552   5.719   6.206   1.458 -0.8457  1.4837  0.5903
19379TIP3    H279553   5.854   6.204   1.389 -0.0132 -3.0615  1.9877
19380TIP3   OH279554   5.159   0.299  13.008 -0.2893  0.7986  0.3154
19380TIP3    H179555   5.100   0.364  12.969 -0.1626  0.3109 -0.7206
19380TIP3    H279556   5.157   0.318  13.101 -1.4282  1.3366  0.1971
19381TIP3   OH279557   3.307   4.902  14.391 -0.5153 -0.5170 -0.0260
19381TIP3    H179558   3.348   4.976  14.345  1.6086 -1.5563  0.0733
19381TIP3    H279559   3.213   4.913  14.376 -0.2135  1.8463 -0.5236
19382TIP3   OH279560   4.057   4.768  11.198 -0.0811 -0.4220 -0.3444
19382TIP3    H179561   4.002   4.844  11.178 -0.1603 -0.6522 -1.0252
19382TIP3    H279562   4.121   4.766  11.127  0.8468 -0.1255  0.4612
19383TIP3   OH279563   6.030   3.689   2.419 -0.1714 -0.2239  0.0510
19383TIP3    H179564   6.014   3.762   2.479 -2.1799 -0.2017 -0.4231
19383TIP3    H279565   5.993   3.613   2.464  0.5099 -0.6700 -0.1321
19384TIP3   OH279566   6.631   1.997  13.374 -0.6474 -0.5873 -0.0419
19384TIP3    H179567   6.636   1.941  13.297 -1.2408 -1.4717  0.5550
19384TIP3    H279568   6.715   1.985  13.418 -0.4419 -0.3449 -0.3660
19385TIP3   OH279569   0.867   3.794  14.720 -0.5080 -0.0075  0.2265
19385TIP3    H179570   0.918   3.741  14.782 -0.4629  0.4123  0.5457
19385TIP3    H279571   0.928   3.862  14.691 -0.6800  0.0879  0.0872
19386TIP3   OH279572   6.505   1.842  13.160  0.1400 -0.1067 -0.4740
19386TIP3    H179573   6.476   1.883  13.078 -2.2662 -1.7980 -0.5930
19386TIP3    H279574   6.444   1.875  13.226  0.7248 -0.3795  0.2115
19387TIP3   OH279575   5.429   0.288  14.218  0.3290 -0.0816 -0.0364
19387TIP3    H179576   5.394   0.374  14.196 -0.7574 -0.4908  0.0389
19387TIP3    H279577   5.353   0.237  14.248  1.2015 -0.5957  1.4141
19388TIP3   OH279578   1.218   3.117   5.279  0.4720  0.6414  0.2413
19388TIP3    H179579   1.313   3.123   5.269  0.3342  0.4721 -1.2821
19388TIP3    H279580   1.182   3.180   5.217 -0.4266  0.2835  0.3795
19389TIP3   OH279581   1.747   1.582   4.047 -0.0573  0.2083  0.1082
19389TIP3    H179582   1.652   1.577   4.062 -0.4747  0.6861 -2.0242
19389TIP3    H279583   1.755   1.612   3.957  2.1488  0.0505  0.2052
19390TIP3   OH279584   1.631   2.193   0.782  0.5631 -0.1650  0.5637
19390TIP3    H179585   1.654   2.221   0.694  2.3530  0.4048  1.1522
19390TIP3    H279586   1.609   2.100   0.773  1.2369 -0.2442 -0.4125
19391TIP3   OH279587   3.785   0.622   4.183 -0.5999  0.2106 -0.3322
19391TIP3    H179588   3.826   0.695   4.230 -1.2147  0.2468  0.1569
19391TIP3    H279589   3.702   0.657   4.150 -0.0748  0.2575 -1.6761
19392TIP3   OH279590   0.312   6.097   1.668 -0.4437 -0.3764  0.6217
19392TIP3    H179591   0.278   6.161   1.606  0.6041 -0.5015 -0.1193
19392TIP3    H279592   0.234   6.057   1.707 -1.1128  0.3036  0.0158
19393TIP3   OH279593   2.673   2.515  16.713  0.6259  0.0390 -0.2406
19393TIP3    H179594   2.717   2.573  16.650  1.6681  0.3954  0.7849
19393TIP3    H279595   2.730   2.438  16.717  0.8581  0.2543  0.6710
19394TIP3   OH279596   3.059   2.926   2.837  0.4430  0.5269 -0.1666
19394TIP3    H179597   3.068   2.940   2.743  0.3306  1.4751 -0.0491
19394TIP3    H279598   3.148   2.924   2.870  0.5689 -1.5729 -0.5046
19395TIP3   OH279599   2.142   5.149  13.754  0.0019  0.1991  0.3814
19395TIP3    H179600   2.050   5.127  13.742 -0.4079  1.6402  0.7435
19395TIP3    H279601   2.184   5.065  13.773 -1.0343 -0.6354 -0.8703
19396TIP3   OH279602   4.476   5.819  13.670 -0.1693  0.1937  0.2941
19396TIP3    H179603   4.430   5.775  13.742 -1.3619  1.8730  0.6214
19396TIP3    H279604   4.535   5.880  13.713  1.2346 -0.7945 -0.1629
19397TIP3   OH279605   2.795   2.123   3.945  0.1728 -0.2560  0.7135
19397TIP3    H179606   2.825   2.145   3.857  0.1430  0.7372  0.9454
19397TIP3    H279607   2.844   2.044   3.967 -0.5079 -1.0818 -0.5513
19398TIP3   OH279608   2.364   3.635  13.340  0.3752  0.1314  0.5900
19398TIP3    H179609   2.318   3.625  13.257  0.0077  1.7828  0.5573
19398TIP3    H279610   2.299   3.673  13.399  1.7714  3.1124  0.3754
19399TIP3   OH279611   1.155   6.580   5.967  0.1833 -0.1613  0.0578
19399TIP3    H179612   1.102   6.514   5.922 -0.2994 -0.3637  0.9025
19399TIP3    H279613   1.141   6.563   6.060  0.4645  0.8068  0.2907
19400TIP3   OH279614   6.431   5.007  11.583  0.6569  0.0581 -0.2776
19400TIP3    H179615   6.401   4.921  11.551  0.3855 -0.2241  0.6972
19400TIP3    H279616   6.484   4.987  11.660  2.1205  0.6674 -1.0914
19401TIP3   OH279617   3.035   5.946   4.448  0.0223  0.1035  0.8539
19401TIP3    H179618   3.075   5.863   4.474 -0.3911  0.0046  1.1850
19401TIP3    H279619   3.108   5.998   4.414  0.5099  0.0662  1.8093
19402TIP3   OH279620   0.880   4.767  13.128  0.3771 -0.2867 -0.2287
19402TIP3    H179621   0.958   4.799  13.173 -0.5775 -0.0917  1.3667
19402TIP3    H279622   0.888   4.672  13.132  1.2248 -0.2765 -1.3611
19403TIP3   OH279623   1.798   5.044   0.447 -0.4377 -0.0177  0.3977
19403TIP3    H179624   1.771   5.035   0.538  0.4057 -2.7082  0.4609
19403TIP3    H279625   1.717   5.042   0.397 -1.0448  2.9673  1.0560
19404TIP3   OH279626   0.940   1.301  16.770  0.5795  0.5084 -0.2564
19404TIP3    H179627   0.855   1.319  16.732  0.3686  1.0953  0.4498
19404TIP3    H279628   0.959   1.379  16.823  1.3143  0.1658  0.0001
19405TIP3   OH279629   1.116   6.009   1.859  0.0550 -0.0568  0.4727
19405TIP3    H179630   1.104   6.075   1.791 -0.7894 -0.8044 -0.1189
19405TIP3    H279631   1.077   6.047   1.938 -0.5760  0.0771  0.0948
19406TIP3   OH279632   3.332   3.349  15.765 -0.4541 -0.4969  0.4262
19406TIP3    H179633   3.332   3.335  15.860 -0.0061 -1.6869  0.2644
19406TIP3    H279634   3.399   3.289  15.732  0.9190  1.4106 -0.4537
19407TIP3   OH279635   6.368   1.329   2.382  0.1741  0.5082  0.1388
19407TIP3    H179636   6.435   1.293   2.324 -1.0287 -0.5067 -0.6745
19407TIP3    H279637   6.386   1.290   2.467 -0.2054 -0.8873 -0.3926
19408TIP3   OH279638   4.061   0.630  14.491 -0.0839 -0.1837 -0.0254
19408TIP3    H179639   4.042   0.634  14.585  1.3702 -2.2722  0.4274
19408TIP3    H279640   4.145   0.585  14.485 -0.9488 -1.7150 -2.3687
19409TIP3   OH279641   3.827   0.464   4.607  0.6641 -0.2341 -0.5997
19409TIP3    H179642   3.769   0.533   4.573  1.7644  0.7374 -0.5868
19409TIP3    H279643   3.826   0.396   4.540 -1.4194 -0.7972 -0.0449
19410TIP3   OH279644   3.828   5.464  14.224 -0.0055  0.2768  0.0246
19410TIP3    H179645   3.909   5.420  14.250  1.4215  1.6975 -1.7663
19410TIP3    H279646   3.767   5.393  14.206  0.7961 -0.8249  1.4178
19411TIP3   OH279647   0.341   0.137  15.537  0.0401  0.0956  0.1382
19411TIP3    H179648   0.281   0.085  15.591  0.1746 -1.0393 -0.7859
19411TIP3    H279649   0.297   0.143  15.452  0.5393  0.5698 -0.0914
19412TIP3   OH279650   1.662   1.097  15.387 -0.1536  0.0679  0.2204
19412TIP3    H179651   1.663   1.183  15.429  0.8997  0.3211 -0.2729
19412TIP3    H279652   1.628   1.115  15.299  1.5319  0.2848 -0.4248
19413TIP3   OH279653   0.083   2.781  17.248 -0.3192  0.0536 -0.6082
19413TIP3    H179654   0.114   2.857  17.199 -1.7036  1.2408  0.2674
19413TIP3    H279655   0.074   2.813  17.338 -0.5362 -1.2717 -0.1433
19414TIP3   OH279656   6.382   0.910  14.896 -0.3758  0.4883 -0.6233
19414TIP3    H179657   6.443   0.857  14.948 -0.9748  2.1853  2.0363
19414TIP3    H279658   6.326   0.846  14.853  0.9155 -1.0516 -0.1364
19415TIP3   OH279659   2.824   0.057   4.920  0.1012 -0.0752  0.4829
19415TIP3    H179660   2.910   0.016   4.932  0.9365  1.5206  0.2285
19415TIP3    H279661   2.800   0.036   4.830  0.6318  0.1632  0.2790
19416TIP3   OH279662   6.322   2.622   6.246  0.1333 -0.3965  0.1430
19416TIP3    H179663   6.254   2.680   6.282 -0.4282 -0.6124 -0.5253
19416TIP3    H279664   6.282   2.586   6.167  1.0478 -0.5045 -0.2844
19417TIP3   OH279665   5.935   3.237   2.512 -0.0001  0.0470 -0.4285
19417TIP3    H179666   5.925   3.143   2.528 -0.5414  0.1504 -0.1363
19417TIP3    H279667   5.997   3.242   2.439 -0.4268 -0.5591 -0.8482
19418TIP3   OH279668   6.281   3.213   2.762  0.5023  0.4196  0.3951
19418TIP3    H179669   6.254   3.274   2.693  0.6070 -0.6533 -0.6474
19418TIP3    H279670   6.376   3.220   2.764  0.4651  0.8300  0.8040
19419TIP3   OH279671   5.423   0.098  11.513  0.1073 -0.1160 -0.5053
19419TIP3    H179672   5.351   0.128  11.457 -0.6327  1.5976  1.2166
19419TIP3    H279673   5.380   0.069  11.594  1.2531 -0.2605  0.0770
19420TIP3   OH279674   6.626   1.760   1.868 -0.4618 -0.0129  0.4107
19420TIP3    H179675   6.712   1.718   1.865 -0.6500 -0.3579 -0.7032
19420TIP3    H279676   6.566   1.691   1.898 -0.9390 -0.9299 -2.3715
19421TIP3   OH279677   0.453   1.573   0.322 -0.2586  0.5388  0.0374
19421TIP3    H179678   0.445   1.643   0.257  0.9313 -0.5879 -1.4213
19421TIP3    H279679   0.376   1.518   0.307 -0.5503  0.8696  0.3275
19422TIP3   OH279680   3.282   0.395   5.517  0.0066 -0.2447 -0.3411
19422TIP3    H179681   3.284   0.350   5.433 -1.6925 -1.2269  0.0823
19422TIP3    H279682   3.194   0.378   5.551  0.0147  1.6761  0.8070
19423TIP3   OH279683   0.004   2.351  12.392  0.3224  0.0925 -0.1636
19423TIP3    H179684  -0.008   2.421  12.457  2.8495  0.6198 -0.1756
19423TIP3    H279685   0.088   2.312  12.414 -0.6974 -2.5688 -0.5900
19424TIP3   OH279686   0.301   0.549   2.145  0.6543 -0.4139 -0.5862
19424TIP3    H179687   0.213   0.516   2.126  0.2429 -1.2890  2.2686
19424TIP3    H279688   0.306   0.631   2.098 -1.1236 -1.0497 -2.0216
19425TIP3   OH279689   6.043   5.295   4.571  0.0149 -0.5149 -0.0691
19425TIP3    H179690   5.969   5.236   4.553 -0.3132  0.1537 -0.9895
19425TIP3    H279691   6.034   5.317   4.663 -2.2014  1.2184 -0.6132
19426TIP3   OH279692   3.632   6.593   3.551  0.0032  0.0428  0.3484
19426TIP3    H179693   3.676   6.539   3.485  1.2878  0.0767  1.1280
19426TIP3    H279694   3.566   6.535   3.589 -0.0677 -0.2973 -0.2916
19427TIP3   OH279695   0.245   3.339  13.896  0.1872 -0.9968  0.1974
19427TIP3    H179696   0.302   3.349  13.820 -0.8667  0.5473 -0.4182
19427TIP3    H279697   0.160   3.370  13.867  0.3475  2.2805  2.7276
19428TIP3   OH279698   1.816   1.359   3.073  0.2634  0.7722  0.3213
19428TIP3    H179699   1.906   1.336   3.053  0.3614  1.7357 -0.4050
19428TIP3    H279700   1.800   1.439   3.024 -1.3582  0.0003 -0.4968
19429TIP3   OH279701   1.463   1.835   2.367 -0.2667 -0.2146 -0.0110
19429TIP3    H179702   1.425   1.923   2.362 -1.6208 -0.8424 -1.3445
19429TIP3    H279703   1.514   1.826   2.287  0.5281 -0.3862  0.4962
19430TIP3   OH279704   4.156   4.928   0.789 -0.1204  0.6395 -0.7301
19430TIP3    H179705   4.060   4.931   0.782 -0.1803  1.5676  0.2743
19430TIP3    H279706   4.185   4.905   0.701 -1.3272 -1.3482 -0.6840
19431TIP3   OH279707   1.576   5.467   5.277 -0.0760  0.2134  0.2069
19431TIP3    H179708   1.508   5.427   5.221  0.3855 -0.2946 -0.0031
19431TIP3    H279709   1.650   5.407   5.271  0.9086  1.4608 -0.6980
19432TIP3   OH279710   3.744   3.952   5.688  0.1352  0.3572 -0.4429
19432TIP3    H179711   3.707   4.039   5.673 -0.8603  0.2355  1.1363
19432TIP3    H279712   3.716   3.929   5.776  2.7383 -0.4017  0.2581
19433TIP3   OH279713   4.651   4.496   4.392 -0.2795  0.1767  0.0553
19433TIP3    H179714   4.672   4.463   4.479 -0.4739  0.1103  0.0773
19433TIP3    H279715   4.609   4.581   4.408  2.8066  1.8745 -0.0828
19434TIP3   OH279716   3.233   1.490  17.143  0.3569  0.4305 -0.1728
19434TIP3    H179717   3.150   1.532  17.167  0.9303  1.0956  0.7109
19434TIP3    H279718   3.221   1.398  17.168 -1.2224 -0.2036 -2.8990
19435TIP3   OH279719   6.517   2.776  16.882  0.2722 -0.2383 -0.4818
19435TIP3    H179720   6.459   2.838  16.927  0.2596 -1.1523  0.8105
19435TIP3    H279721   6.604   2.816  16.887  0.1623 -0.0307 -0.2381
19436TIP3   OH279722   1.498   1.676  14.656  0.2858  0.3703  0.0952
19436TIP3    H179723   1.415   1.637  14.685 -0.0556 -0.2623 -1.5617
19436TIP3    H279724   1.562   1.606  14.666 -0.0281 -0.1899 -1.4722
19437TIP3   OH279725   1.628   2.139  14.236 -0.1387 -0.2511  0.4182
19437TIP3    H179726   1.667   2.182  14.313 -1.0682 -1.2004  1.4482
19437TIP3    H279727   1.563   2.079  14.272 -0.3482 -0.9883 -1.1089
19438TIP3   OH279728   4.021   3.531  12.566 -0.0960 -0.0823 -0.0171
19438TIP3    H179729   4.051   3.446  12.598  0.2782  0.2592  0.5541
19438TIP3    H279730   3.949   3.554  12.623  0.5492  0.5119  0.5736
19439TIP3   OH279731   0.575   3.745   4.736  0.2428  0.6366  0.4295
19439TIP3    H179732   0.545   3.737   4.645  0.9952  0.1174  0.2224
19439TIP3    H279733   0.504   3.791   4.780 -0.6656 -0.1566 -0.1565
19440TIP3   OH279734   3.283   6.558  14.895  0.1414  0.0705 -0.2761
19440TIP3    H179735   3.362   6.597  14.933 -0.0422  0.1052  0.0754
19440TIP3    H279736   3.235   6.633  14.859  1.1306 -0.1344 -2.1389
19441TIP3   OH279737   4.210   5.071  16.148  0.2452 -0.3329  0.4278
19441TIP3    H179738   4.127   5.036  16.118  0.7442 -0.9643 -0.2591
19441TIP3    H279739   4.195   5.094  16.240 -0.3214 -1.6977  0.7055
19442TIP3   OH279740   4.395   5.855   5.063  0.2259 -0.0417 -0.5140
19442TIP3    H179741   4.457   5.783   5.060  0.7816  0.4395 -0.7428
19442TIP3    H279742   4.438   5.922   5.117 -0.8990 -0.4389  0.9596
19443TIP3   OH279743   4.122   2.234  13.391 -0.6394 -0.0100  0.4908
19443TIP3    H179744   4.034   2.260  13.365 -1.6034 -2.8717  0.5519
19443TIP3    H279745   4.134   2.147  13.352  2.6297  0.7160 -0.4878
19444TIP3   OH279746   4.436   0.842   3.640  0.8392 -0.4255 -0.0988
19444TIP3    H179747   4.468   0.793   3.564 -0.0640  0.6499 -1.2168
19444TIP3    H279748   4.343   0.819   3.646  0.3008  1.3760 -0.8782
19445TIP3   OH279749   0.661   2.231  13.991 -0.1189  0.4451  0.1624
19445TIP3    H179750   0.652   2.298  14.059  0.4618  0.5749  0.1119
19445TIP3    H279751   0.718   2.165  14.029 -2.5025 -1.2203  1.1131
19446TIP3   OH279752   2.392   0.752   0.365 -0.1318  0.3490  0.7944
19446TIP3    H179753   2.311   0.705   0.386  0.1796 -0.5541  0.0604
19446TIP3    H279754   2.389   0.763   0.270  0.1169  1.2498  0.8839
19447TIP3   OH279755   2.033   3.596  13.825  0.2108  0.6174  0.2247
19447TIP3    H179756   2.110   3.541  13.818 -0.1039  0.1120  0.6328
19447TIP3    H279757   1.988   3.587  13.741  0.9718  1.5030 -0.2934
19448TIP3   OH279758   2.206   6.014  12.065  0.1415 -0.3521 -0.3851
19448TIP3    H179759   2.172   6.091  12.020  1.3006  0.0442 -0.6109
19448TIP3    H279760   2.298   6.033  12.080  0.1543 -1.1606  0.7278
19449TIP3   OH279761   4.832   2.696  17.130  0.1573 -0.0592 -0.0650
19449TIP3    H179762   4.838   2.745  17.049  0.0228 -0.7514 -0.4999
19449TIP3    H279763   4.760   2.737  17.178  0.8476  0.9570  0.1376
19450TIP3   OH279764   4.683   1.284   6.096 -0.6190 -0.2372 -0.0008
19450TIP3    H179765   4.656   1.317   6.182 -0.6309  0.1970 -0.1689
19450TIP3    H279766   4.624   1.327   6.034 -1.4039 -1.4716 -0.1352
19451TIP3   OH279767   1.060   6.092   5.575  0.1875 -0.6122 -0.4647
19451TIP3    H179768   0.978   6.115   5.533 -0.3546  1.9146  1.7025
19451TIP3    H279769   1.124   6.090   5.504 -1.4738 -1.4415 -2.0213
19452TIP3   OH279770   0.117   6.574  15.008 -0.0942 -0.9589  0.5046
19452TIP3    H179771   0.053   6.621  15.061  0.3639  1.3132 -0.8178
19452TIP3    H279772   0.081   6.575  14.920  0.3219 -2.4489  0.2852
19453TIP3   OH279773   3.127   2.601  11.259 -0.1803 -0.5651  0.2678
19453TIP3    H179774   3.044   2.612  11.306 -0.3677  0.7387 -0.3357
19453TIP3    H279775   3.112   2.525  11.202 -0.9111 -0.4388  0.2753
19454TIP3   OH279776   3.205   3.724  14.020 -0.3308  0.1013  0.0132
19454TIP3    H179777   3.240   3.689  14.102  0.2788  1.6080  0.4389
19454TIP3    H279778   3.130   3.668  14.000 -0.3023 -0.4955  1.4330
19455TIP3   OH279779   4.085   4.063   1.471 -0.1094  0.2184 -0.6500
19455TIP3    H179780   4.104   4.111   1.552 -1.5216 -1.1941  0.5756
19455TIP3    H279781   4.171   4.033   1.441  0.3272 -0.4246  1.1002
19456TIP3   OH279782   6.541   5.652   0.927  0.3735  0.2313  0.4632
19456TIP3    H179783   6.507   5.565   0.947 -0.7054  0.8556  1.5430
19456TIP3    H279784   6.578   5.645   0.839  1.1838 -1.5392  0.9106
19457TIP3   OH279785   1.424   0.477   3.648  0.3452 -0.2880 -0.4453
19457TIP3    H179786   1.383   0.398   3.682  1.6416 -0.2098  1.4808
19457TIP3    H279787   1.354   0.542   3.646 -0.2956 -0.9558 -0.1776
19458TIP3   OH279788   3.125   0.967   4.646 -0.3596 -0.7189  0.2523
19458TIP3    H179789   3.196   0.952   4.583 -0.6998 -0.3668 -0.2231
19458TIP3    H279790   3.168   0.963   4.731  0.4121  0.3837 -0.0576
19459TIP3   OH279791   6.450   5.457   3.920 -0.3409  0.0730 -0.1018
19459TIP3    H179792   6.495   5.483   3.840  0.2302  1.3453  0.6112
19459TIP3    H279793   6.427   5.539   3.963 -0.3779 -0.5865  1.1870
19460TIP3   OH279794   3.894   0.332  14.708  0.0996  0.1892 -1.6030
19460TIP3    H179795   3.907   0.285  14.626  0.0171  0.7099 -1.9205
19460TIP3    H279796   3.981   0.364  14.732  0.8055 -2.7426  0.2729
19461TIP3   OH279797   4.869   3.893  11.964  0.0458 -0.1593 -0.2788
19461TIP3    H179798   4.807   3.837  11.917 -0.3772  0.2601 -0.2198
19461TIP3    H279799   4.834   3.981  11.955  1.0764  0.2051 -0.9810
19462TIP3   OH279800   3.056   0.670   5.323  0.3128 -0.4081  0.3818
19462TIP3    H179801   2.965   0.696   5.339 -1.1187 -3.4209 -1.7003
19462TIP3    H279802   3.077   0.610   5.394 -0.0988 -1.2058 -0.1477
19463TIP3   OH279803   1.405   4.805   2.783  0.4757 -0.3468 -0.2566
19463TIP3    H179804   1.402   4.714   2.755  1.0986  0.1402 -1.9799
19463TIP3    H279805   1.484   4.841   2.743  0.5090  0.8414  0.7975
19464TIP3   OH279806   4.249   1.896   0.424  0.3884  0.0037  0.4250
19464TIP3    H179807   4.277   1.964   0.486  1.5864  0.1756 -0.2708
19464TIP3    H279808   4.316   1.827   0.433 -1.0281 -1.3127  1.4318
19465TIP3   OH279809   0.119   2.677   4.131  0.0003 -0.6427  0.1688
19465TIP3    H179810   0.054   2.619   4.171 -0.6403 -0.6974 -0.9053
19465TIP3    H279811   0.202   2.652   4.170 -0.5686 -0.8634  1.2529
19466TIP3   OH279812   6.589   6.581  14.976 -0.6655  0.7589 -0.0334
19466TIP3    H179813   6.537   6.662  14.977  0.4099  1.5167 -1.4693
19466TIP3    H279814   6.530   6.515  14.939 -0.6743  1.6013 -1.6186
19467TIP3   OH279815   5.692   6.612  11.206  0.1089  0.4637 -0.1071
19467TIP3    H179816   5.706   6.610  11.112  0.5564  0.0627 -0.0373
19467TIP3    H279817   5.598   6.603  11.218  0.0712  0.3339 -0.5121
19468TIP3   OH279818   2.274   4.300   0.394  0.6374  0.1062  0.0556
19468TIP3    H179819   2.329   4.371   0.427  1.0460  0.5754 -1.5274
19468TIP3    H279820   2.192   4.307   0.443  1.3275  0.5435  1.1649
19469TIP3   OH279821   1.814   0.432   0.559 -0.1337  0.3811  0.5371
19469TIP3    H179822   1.792   0.480   0.639 -1.4332 -0.2800  0.5992
19469TIP3    H279823   1.730   0.399   0.527  0.2357  1.4053 -1.6288
19470TIP3   OH279824   5.724   1.432   2.499  0.7693 -0.1199 -0.2039
19470TIP3    H179825   5.807   1.415   2.454 -1.2887 -0.9987 -4.1003
19470TIP3    H279826   5.704   1.349   2.543  1.9596  0.1726  0.9789
19471TIP3   OH279827   5.501   4.118   1.858  0.6279  0.1624  0.2972
19471TIP3    H179828   5.420   4.093   1.813  0.3726  0.9527  0.3067
19471TIP3    H279829   5.543   4.035   1.879 -0.8782 -0.3503  1.5523
19472TIP3   OH279830   4.257   0.721  16.438  0.1398 -0.3277  0.2594
19472TIP3    H179831   4.210   0.796  16.401  1.8317  0.3431 -0.6421
19472TIP3    H279832   4.202   0.646  16.418 -1.4417  0.6120  0.8956
19473TIP3   OH279833   4.491   0.173  11.531 -0.3741 -0.3532  0.2638
19473TIP3    H179834   4.495   0.268  11.527 -1.0974 -0.3398 -0.3489
19473TIP3    H279835   4.399   0.152  11.515 -0.3487 -1.1270  1.0417
19474TIP3   OH279836   5.011   3.844  16.046 -0.0236  0.0502 -0.5392
19474TIP3    H179837   5.000   3.786  15.971  0.7524 -1.0504  0.1584
19474TIP3    H279838   5.078   3.801  16.100  0.6219  1.6292 -0.0120
19475TIP3   OH279839   4.745   2.693  10.768 -0.4745  0.2210  0.3478
19475TIP3    H179840   4.736   2.787  10.785  1.5130  0.4480  0.3277
19475TIP3    H279841   4.790   2.687  10.684  2.5002 -0.5998  1.8482
19476TIP3   OH279842   3.152   6.312   3.073  0.3861  0.1704  0.1336
19476TIP3    H179843   3.113   6.394   3.043  1.4651  1.0258  0.9876
19476TIP3    H279844   3.246   6.323   3.058  0.8356  0.1165  2.4628
19477TIP3   OH279845   4.408   1.829   1.533  0.0190  0.2764  0.4146
19477TIP3    H179846   4.463   1.856   1.460  1.5890 -0.4566  1.2792
19477TIP3    H279847   4.393   1.909   1.583 -0.0830  0.5616 -0.0652
19478TIP3   OH279848   0.872   1.701   4.836 -0.6035  0.4570 -0.2158
19478TIP3    H179849   0.858   1.795   4.835 -1.5103  0.3274 -0.4967
19478TIP3    H279850   0.865   1.675   4.744  2.3549  0.4765 -0.5409
19479TIP3   OH279851   1.078   6.424  16.708 -0.3529 -0.0011 -0.1727
19479TIP3    H179852   1.035   6.339  16.701 -0.8173  0.3250 -2.0495
19479TIP3    H279853   1.009   6.484  16.734 -0.4635  0.0927 -0.6667
19480TIP3   OH279854   3.051   3.976  14.375 -0.0201  0.2992 -0.1496
19480TIP3    H179855   3.034   3.924  14.297 -2.0683 -0.8049  0.9567
19480TIP3    H279856   2.998   3.935  14.444  0.3155  2.2897  1.3948
19481TIP3   OH279857   4.676   4.301   6.660 -0.4110  0.0401 -0.0114
19481TIP3    H179858   4.736   4.249   6.714  0.1266 -0.6085 -1.1765
19481TIP3    H279859   4.729   4.374   6.629 -0.5610  0.1119 -0.0986
19482TIP3   OH279860   5.382   0.221   5.090  0.1644  0.3746  0.5623
19482TIP3    H179861   5.298   0.178   5.102  0.0823  0.1776 -0.5534
19482TIP3    H279862   5.446   0.160   5.127 -0.0997  0.0643  0.5076
19483TIP3   OH279863   1.834   5.252  14.086  0.3101  0.0827 -0.0144
19483TIP3    H179864   1.751   5.276  14.128  0.5860 -0.6126  0.9584
19483TIP3    H279865   1.809   5.192  14.016 -0.1338  1.0662 -0.7255
19484TIP3   OH279866   2.359   2.419   5.897  0.0088 -0.0413  0.1682
19484TIP3    H179867   2.435   2.446   5.947  0.1410  1.3975 -0.7410
19484TIP3    H279868   2.376   2.327   5.874  0.9490 -0.0532  0.8847
19485TIP3   OH279869   3.733   4.552  15.371  0.5152 -0.4717  0.3240
19485TIP3    H179870   3.783   4.540  15.452  0.9638 -0.7961  0.0028
19485TIP3    H279871   3.665   4.615  15.394 -0.1166 -1.4564  1.2803
19486TIP3   OH279872   0.192   1.446  14.786 -0.2134 -0.1994 -0.1518
19486TIP3    H179873   0.174   1.470  14.695  1.5557 -1.4843 -0.8821
19486TIP3    H279874   0.280   1.409  14.785 -0.7691 -1.7750  1.8131
19487TIP3   OH279875   3.220   1.208  17.165  0.4658  0.1041 -0.1516
19487TIP3    H179876   3.161   1.218  17.090  1.5914  1.8463 -0.8598
19487TIP3    H279877   3.193   1.125  17.206 -1.6965  0.2701 -1.1022
19488TIP3   OH279878   2.007   6.425   3.023 -0.4236  0.0803 -0.1739
19488TIP3    H179879   2.082   6.407   2.966  1.2012 -1.3538  2.2263
19488TIP3    H279880   1.939   6.365   2.992  1.0100 -1.9418  0.4095
19489TIP3   OH279881   2.131   4.237  11.943 -0.7962 -0.9341  0.3108
19489TIP3    H179882   2.070   4.199  11.878 -1.7114 -0.9796  1.1768
19489TIP3    H279883   2.083   4.310  11.981  0.1069 -0.3070  0.2700
19490TIP3   OH279884   1.645   5.757  12.666  0.8523 -0.2718 -0.1299
19490TIP3    H179885   1.554   5.734  12.647  0.8488 -0.1263 -0.2863
19490TIP3    H279886   1.673   5.692  12.731  0.1961  0.5077  0.9708
19491TIP3   OH279887   2.315   0.063   4.472  0.1998  0.4610 -0.0590
19491TIP3    H179888   2.384   0.084   4.409 -0.4134  1.3399 -0.4465
19491TIP3    H279889   2.298   0.145   4.518  0.0725  0.0245  0.7059
19492TIP3   OH279890   5.194   4.147   4.437 -0.9832  0.3982  0.1976
19492TIP3    H179891   5.145   4.066   4.443  0.4420 -0.4814  0.5874
19492TIP3    H279892   5.233   4.145   4.349 -1.0463  0.7326  0.1596
19493TIP3   OH279893   0.424   4.913  14.900  0.2781 -0.0171  0.1959
19493TIP3    H179894   0.421   4.911  14.804 -0.5996 -1.5758  0.2183
19493TIP3    H279895   0.396   5.001  14.923  1.7039  0.8049 -0.9811
19494TIP3   OH279896   5.708   3.975  14.405  0.4000 -0.0759  0.4583
19494TIP3    H179897   5.779   3.942  14.349  0.7991  1.4565  0.0330
19494TIP3    H279898   5.667   4.045  14.354 -2.4667 -1.8759  0.0196
19495TIP3   OH279899   0.211   6.345   4.096  0.0670 -0.2275  0.0595
19495TIP3    H179900   0.303   6.344   4.124 -0.1688 -0.2949  0.8646
19495TIP3    H279901   0.215   6.347   4.001  0.9130  0.5230  0.0920
19496TIP3   OH279902   5.407   2.686   5.100 -0.3704  0.2671  0.1866
19496TIP3    H179903   5.339   2.642   5.050  0.1362  0.0269 -0.2991
19496TIP3    H279904   5.489   2.657   5.061 -0.0018  3.0955 -1.4687
19497TIP3   OH279905   4.023   6.454   3.459  0.4648  0.5055  0.3646
19497TIP3    H179906   4.059   6.396   3.391  0.5747  0.1308  0.7363
19497TIP3    H279907   3.934   6.473   3.430  0.3214 -0.1096  0.3930
19498TIP3   OH279908   0.866   6.386   1.306 -0.2256  0.6659 -0.0230
19498TIP3    H179909   0.943   6.408   1.253 -0.7818 -0.7119 -1.4709
19498TIP3    H279910   0.802   6.354   1.243 -0.4980 -2.2103  1.5541
19499TIP3   OH279911   5.836   0.641  11.248  0.2135 -0.2045 -0.1585
19499TIP3    H179912   5.837   0.663  11.341  0.9140 -1.0817  0.0478
19499TIP3    H279913   5.920   0.599  11.232  0.7163  1.2194 -1.5072
19500TIP3   OH279914   5.768   3.736   2.300 -0.4834 -0.5125  0.1804
19500TIP3    H179915   5.845   3.761   2.351 -1.1135 -3.2008  2.7731
19500TIP3    H279916   5.699   3.725   2.365 -2.2073 -1.2209 -1.6565
19501TIP3   OH279917   3.738   2.537  11.602 -0.6566 -0.0519 -0.0791
19501TIP3    H179918   3.644   2.555  11.593 -0.4387  0.7538 -0.9495
19501TIP3    H279919   3.745   2.487  11.683 -1.8173  0.0344  0.0982
19502TIP3   OH279920   2.216   0.390   0.097 -0.1755 -0.2731 -0.6001
19502TIP3    H179921   2.222   0.295   0.099  2.9892 -0.1683 -0.0082
19502TIP3    H279922   2.261   0.416   0.017 -2.3721  0.7549 -1.5966
19503TIP3   OH279923   3.230   0.346  12.949 -0.5974 -0.1840  0.0995
19503TIP3    H179924   3.175   0.295  12.889  0.5886 -0.1243 -1.0786
19503TIP3    H279925   3.203   0.437  12.934 -1.1979 -0.2696  0.6161
19504TIP3   OH279926   3.242   1.161   5.840 -0.7382  0.3608 -0.1794
19504TIP3    H179927   3.262   1.211   5.919 -0.6448  1.3590 -0.8185
19504TIP3    H279928   3.203   1.080   5.873  1.2476 -0.2012  0.9681
19505TIP3   OH279929   5.661   1.672   1.278  0.8012 -0.5916 -0.2519
19505TIP3    H179930   5.658   1.657   1.184  0.3694  0.6279 -0.4455
19505TIP3    H279931   5.751   1.702   1.295  0.6113  0.0981 -0.4322
19506TIP3   OH279932   6.280   2.381   0.017  0.1751  0.2326 -0.2128
19506TIP3    H179933   6.221   2.359   0.090  0.2242 -0.0576 -0.2593
19506TIP3    H279934   6.363   2.339   0.040  0.1295 -0.0423 -0.5397
19507TIP3   OH279935   2.878   6.490   0.255  0.6006  0.1578  0.2091
19507TIP3    H179936   2.784   6.503   0.262  0.4097 -1.3610  0.9907
19507TIP3    H279937   2.915   6.578   0.259 -0.7324  0.7135  0.9101
19508TIP3   OH279938   6.110   6.276  16.610  0.5099  0.3768 -0.0470
19508TIP3    H179939   6.130   6.370  16.615 -0.1137  0.4771  0.7469
19508TIP3    H279940   6.086   6.252  16.699 -0.2931 -0.3242 -0.4430
19509TIP3   OH279941   1.024   2.017   4.452  0.3077 -0.4549 -0.2236
19509TIP3    H179942   1.031   2.107   4.422  1.9054 -0.5009 -0.0616
19509TIP3    H279943   0.930   2.002   4.460 -0.0109  0.9469 -0.9643
19510TIP3   OH279944   3.602   5.727  14.928 -0.3716  0.2435  0.0362
19510TIP3    H179945   3.579   5.746  14.837  0.7817  0.3857 -0.2353
19510TIP3    H279946   3.639   5.639  14.924  1.2572  0.9094  0.0845
19511TIP3   OH279947   0.648   3.254  13.748  0.0784 -0.6005 -0.3266
19511TIP3    H179948   0.714   3.186  13.761  0.2339 -0.2789  0.6633
19511TIP3    H279949   0.604   3.262  13.833  0.0520  0.5185 -0.4286
19512TIP3   OH279950   1.390   6.741   3.128  0.1810 -0.0569  0.5085
19512TIP3    H179951   1.391   6.680   3.054 -1.9974  0.8840 -0.3610
19512TIP3    H279952   1.348   6.692   3.198 -0.7617  0.1174  0.0813
19513TIP3   OH279953   1.470   5.403   1.659  0.0473  0.2856 -0.3186
19513TIP3    H179954   1.546   5.460   1.658 -1.6479  2.8226  1.4612
19513TIP3    H279955   1.487   5.340   1.729  0.8714  0.2740 -0.5291
19514TIP3   OH279956   3.228   0.897   2.764  0.6305  0.4921  0.1717
19514TIP3    H179957   3.188   0.982   2.783 -0.5696  0.3983 -1.6384
19514TIP3    H279958   3.254   0.863   2.849  1.5490  2.8434  0.9087
19515TIP3   OH279959   2.567   1.315   1.841 -0.6092 -0.2130  0.0271
19515TIP3    H179960   2.610   1.342   1.922  1.4458  0.1197 -1.1229
19515TIP3    H279961   2.532   1.395   1.803 -0.1515 -0.1180 -0.2009
19516TIP3   OH279962   2.495   0.391   2.301  0.5250  0.2374 -0.6090
19516TIP3    H179963   2.426   0.370   2.365  1.1715  0.0612  0.0433
19516TIP3    H279964   2.450   0.392   2.217 -0.6670  1.9895 -0.0151
19517TIP3   OH279965   3.593   4.649  16.419 -0.3718 -0.2487 -0.8386
19517TIP3    H179966   3.665   4.672  16.477 -0.5660  0.3759 -0.8339
19517TIP3    H279967   3.635   4.629  16.335 -0.1748 -0.1675 -0.7598
19518TIP3   OH279968   2.897   0.116  14.720 -0.1877  0.2166  0.2380
19518TIP3    H179969   2.945   0.192  14.754  0.3494  0.0810 -0.2051
19518TIP3    H279970   2.805   0.138  14.733 -0.0362  0.9504  0.1057
19519TIP3   OH279971   5.852   1.009   1.967 -0.0158  0.0391  0.6082
19519TIP3    H179972   5.925   1.069   1.976 -0.0012 -0.1590  2.1875
19519TIP3    H279973   5.868   0.942   2.033 -1.1450 -0.5102  0.3507
19520TIP3   OH279974   0.810   2.981   1.263  0.3703  0.2592  0.0922
19520TIP3    H179975   0.835   3.028   1.184 -1.1885  0.0452 -0.5613
19520TIP3    H279976   0.879   2.917   1.277  0.4134 -0.0243 -1.3681
19521TIP3   OH279977   5.333   5.287   0.875 -0.0763 -0.0094  0.0262
19521TIP3    H179978   5.322   5.215   0.812  0.5233 -3.1222  3.1825
19521TIP3    H279979   5.420   5.273   0.913  0.0231  2.3848  0.8560
19522TIP3   OH279980   2.707   3.941   0.854  0.3496 -0.4800 -0.0528
19522TIP3    H179981   2.764   4.012   0.823  0.3209 -0.4120  0.0469
19522TIP3    H279982   2.756   3.861   0.838  0.4356 -0.4277 -0.0512
19523TIP3   OH279983   3.662   0.972   1.617 -0.4227 -0.6057 -0.0312
19523TIP3    H179984   3.660   0.931   1.531  1.0964  1.3966 -1.0814
19523TIP3    H279985   3.578   0.947   1.656 -1.2710 -1.3504 -2.1638
19524TIP3   OH279986   1.249   1.474   5.665 -0.3917  0.1192 -0.0126
19524TIP3    H179987   1.221   1.498   5.754  1.1154 -2.0843  1.1320
19524TIP3    H279988   1.344   1.483   5.666 -0.2256 -1.2726 -0.9610
19525TIP3   OH279989   5.483   4.767   0.211  0.2985  0.1656 -0.1286
19525TIP3    H179990   5.477   4.763   0.115 -0.0590 -1.8021 -0.0576
19525TIP3    H279991   5.393   4.782   0.240  0.4473  1.0406 -0.0893
19526TIP3   OH279992   2.419   4.225   4.867  0.1100 -0.3759 -0.2620
19526TIP3    H179993   2.375   4.298   4.822 -0.5274  0.0307  0.9680
19526TIP3    H279994   2.356   4.153   4.863 -1.4030  0.6133  2.7166
19527TIP3   OH279995   5.050   3.844  13.231 -0.3259 -0.8783  0.1691
19527TIP3    H179996   5.108   3.802  13.167  0.4109  0.8600 -0.3716
19527TIP3    H279997   5.093   3.831  13.315 -0.3715 -1.6238  0.0829
19528TIP3   OH279998   2.133   5.684   1.801 -0.7369 -0.4459  0.4653
19528TIP3    H179999   2.205   5.663   1.741 -1.4417  0.0540 -0.5813
19528TIP3    H280000   2.173   5.741   1.866  0.2228 -1.6290  0.9453
19529TIP3   OH280001   6.398   3.008  13.456 -0.1810  0.2573  0.0660
19529TIP3    H180002   6.317   3.028  13.411 -0.2264 -1.3905 -0.6534
19529TIP3    H280003   6.391   2.915  13.480  0.6228  0.5959  1.8415
19530TIP3   OH280004   2.599   6.317  10.457 -0.3269  0.6390 -0.4792
19530TIP3    H180005   2.617   6.309  10.363  0.0535 -1.2401 -0.2747
19530TIP3    H280006   2.684   6.336  10.496 -0.4858  1.4216 -0.4863
19531TIP3   OH280007   1.135   0.800   2.274 -0.1985  0.3448 -0.1111
19531TIP3    H180008   1.217   0.845   2.255 -0.0031  0.5121  1.0383
19531TIP3    H280009   1.113   0.827   2.363 -1.0012 -0.4510 -0.0503
19532TIP3   OH280010   6.514   2.893  15.674 -0.5577  0.6154 -0.2220
19532TIP3    H180011   6.471   2.979  15.673  0.4771  1.1513 -1.9197
19532TIP3    H280012   6.563   2.892  15.757 -1.5838  1.1174  0.4155
19533TIP3   OH280013   0.941   2.813   2.555 -0.7502  0.0909 -0.4209
19533TIP3    H180014   0.911   2.775   2.472 -0.8577 -0.4541 -0.1426
19533TIP3    H280015   1.003   2.748   2.589 -1.3935 -0.1334  0.3593
19534TIP3   OH280016   3.201   0.860   6.435 -0.1366 -0.1802  0.7215
19534TIP3    H180017   3.287   0.828   6.463 -0.3676 -1.0837  0.4303
19534TIP3    H280018   3.215   0.952   6.414  0.3901  0.1186  2.2803
19535TIP3   OH280019   5.486   4.939  14.568  0.2882 -0.1358 -0.0896
19535TIP3    H180020   5.569   4.894  14.557  0.2444 -0.2065 -0.1308
19535TIP3    H280021   5.510   5.030  14.584  0.3510  0.0429 -1.1289
19536TIP3   OH280022   4.553   1.776  16.279  0.4781 -0.2804 -0.5112
19536TIP3    H180023   4.586   1.728  16.203  1.2792  0.2852 -0.5316
19536TIP3    H280024   4.495   1.714  16.323 -0.6356 -0.3694 -2.0046
19537TIP3   OH280025   1.920   1.161   1.850 -0.0619 -0.7143  0.6242
19537TIP3    H180026   2.012   1.172   1.876 -0.0958  0.7116  0.2145
19537TIP3    H280027   1.870   1.187   1.927 -0.1260 -0.2611  0.4322
19538TIP3   OH280028   0.741   2.458   2.493 -0.0728 -0.2809 -0.3504
19538TIP3    H180029   0.796   2.415   2.559  0.1447  0.5559  0.0312
19538TIP3    H280030   0.774   2.426   2.409  0.0051 -0.9408 -0.0756
19539TIP3   OH280031   2.509   1.361   4.109  0.1475  0.1116  1.5811
19539TIP3    H180032   2.452   1.297   4.152  0.8417 -1.7174 -0.0685
19539TIP3    H280033   2.563   1.395   4.180 -0.0140 -1.4128  2.4826
19540TIP3   OH280034   5.374   5.849  15.279 -0.2455 -0.0623 -0.3637
19540TIP3    H180035   5.357   5.815  15.191 -1.2671 -0.1680 -0.1389
19540TIP3    H280036   5.461   5.889  15.273 -0.6227  0.6143 -1.6218
19541TIP3   OH280037   0.110   4.314  12.663 -0.2576  0.4254 -0.3311
19541TIP3    H180038   0.047   4.264  12.611 -0.7757  1.1706 -0.4367
19541TIP3    H280039   0.123   4.395  12.613  1.1187  0.1155 -0.5286
19542TIP3   OH280040   5.397   4.548  10.666 -0.1374  0.1294  0.0759
19542TIP3    H180041   5.321   4.603  10.683 -1.2567 -1.1021 -0.6707
19542TIP3    H280042   5.367   4.459  10.686  0.6777 -0.5401 -1.4326
19543TIP3   OH280043   0.473   5.687  15.894 -0.2721 -0.1525  0.0418
19543TIP3    H180044   0.433   5.634  15.963  1.6339  0.4623  1.7400
19543TIP3    H280045   0.527   5.624  15.844 -0.3797 -0.3304  0.1496
19544TIP3   OH280046   4.215   1.542   1.674 -0.7528 -0.4276  0.6298
19544TIP3    H180047   4.297   1.568   1.717 -1.5046  2.1336  0.6997
19544TIP3    H280048   4.242   1.497   1.594  0.7301  0.3477  0.6665
19545TIP3   OH280049   5.663   0.646   5.141  0.2391  0.9232  0.2085
19545TIP3    H180050   5.623   0.730   5.122  0.7262  1.2911  0.7808
19545TIP3    H280051   5.607   0.607   5.209 -0.5530  0.3386 -0.7605
19546TIP3   OH280052   0.675   3.308  15.115  0.5580 -0.0455 -0.2290
19546TIP3    H180053   0.750   3.325  15.172  1.3831 -0.0734 -1.2826
19546TIP3    H280054   0.668   3.387  15.061  0.8929 -0.7379 -1.2985
19547TIP3   OH280055   5.448   5.081   5.056 -0.1439  0.2012  0.2068
19547TIP3    H180056   5.376   5.131   5.019 -1.0056 -0.8816  0.3666
19547TIP3    H280057   5.441   4.994   5.015  0.1569 -0.3687  1.3089
19548TIP3   OH280058   5.978   5.394   6.220 -0.1894 -0.3577 -0.2867
19548TIP3    H180059   5.883   5.401   6.229 -0.1046  0.9681 -0.2169
19548TIP3    H280060   6.011   5.393   6.310  0.0338  2.7600 -0.2107
19549TIP3   OH280061   1.975   2.749  14.265  0.3884 -0.1115  0.1737
19549TIP3    H180062   2.003   2.834  14.300  0.4659 -0.1298  0.1548
19549TIP3    H280063   1.879   2.752  14.270  0.4241 -0.8080  2.0403
19550TIP3   OH280064   2.002   2.522  15.483 -0.2925 -0.1792 -0.3503
19550TIP3    H180065   1.913   2.521  15.449  0.3409 -0.4028 -2.0722
19550TIP3    H280066   2.013   2.610  15.518 -0.7443  0.2838 -1.3561
19551TIP3   OH280067   4.156   1.665   3.629  0.4322 -0.1348  0.6130
19551TIP3    H180068   4.182   1.576   3.603 -2.2336 -1.2454  1.3487
19551TIP3    H280069   4.112   1.653   3.713 -1.6973  1.5810 -0.1788
19552TIP3   OH280070   0.363   6.309   6.186 -0.0990 -0.5928  0.0033
19552TIP3    H180071   0.332   6.260   6.262 -0.5710 -1.2778 -0.6111
19552TIP3    H280072   0.376   6.243   6.118  2.3298 -0.2848  0.0795
19553TIP3   OH280073   5.675   5.676   4.691 -0.4331 -0.6498 -0.0613
19553TIP3    H180074   5.716   5.634   4.766 -0.7908 -2.2414 -0.7053
19553TIP3    H280075   5.655   5.603   4.632 -2.0314  0.3341 -0.7810
19554TIP3   OH280076   1.324   0.142   0.565  0.4814 -0.6987 -0.5574
19554TIP3    H180077   1.335   0.117   0.473 -0.7830  0.1318 -0.9683
19554TIP3    H280078   1.238   0.184   0.568 -0.3592 -2.4132  1.3940
19555TIP3   OH280079   4.685   3.460  13.558 -0.5843 -0.3151 -0.2684
19555TIP3    H180080   4.757   3.523  13.558  0.6571 -1.6691  0.5834
19555TIP3    H280081   4.607   3.513  13.573  0.4092  1.0290  0.3977
19556TIP3   OH280082   0.428   3.222   6.212  0.0820  0.0480  0.1801
19556TIP3    H180083   0.349   3.270   6.236 -0.0078  1.5329 -2.6658
19556TIP3    H280084   0.500   3.281   6.234  0.2522 -0.2847  0.5278
19557TIP3   OH280085   3.796   0.722  14.921  0.0881  0.0184  0.0439
19557TIP3    H180086   3.759   0.680  14.999 -1.9622  2.0901  0.2741
19557TIP3    H280087   3.830   0.806  14.952 -0.2491  0.6318 -1.1929
19558TIP3   OH280088   3.366   5.052   1.072  0.8253  0.0831 -0.2731
19558TIP3    H180089   3.355   5.121   1.137 -0.7689  1.4691 -1.9398
19558TIP3    H280090   3.388   5.097   0.991 -0.5879 -1.2869 -1.4984
19559TIP3   OH280091   6.403   3.284  14.677  0.4383 -0.6019  0.7861
19559TIP3    H180092   6.419   3.377  14.658 -0.8425 -0.0165  2.3627
19559TIP3    H280093   6.479   3.239  14.640  0.7174  0.9760 -0.6999
19560TIP3   OH280094   4.023   5.067   2.506 -0.3599  0.1525 -0.6843
19560TIP3    H180095   4.055   5.158   2.503 -0.5844  0.2119 -1.8045
19560TIP3    H280096   4.024   5.044   2.598 -0.9420  1.5265 -0.3124
19561TIP3   OH280097   4.575   0.316  12.713  0.1639  0.0625 -0.0788
19561TIP3    H180098   4.526   0.274  12.643 -0.7697 -0.5576  0.9089
19561TIP3    H280099   4.529   0.289  12.793  1.4985  0.3264  0.8026
19562TIP3   OH280100   0.154   1.641   2.369  0.2311 -0.5826  0.0301
19562TIP3    H180101   0.099   1.682   2.302 -0.8054  0.3975  1.4204
19562TIP3    H280102   0.238   1.687   2.363 -0.5267  0.9656  0.7575
19563TIP3   OH280103   4.019   0.638  14.762  0.0069  0.0931  0.3339
19563TIP3    H180104   4.085   0.611  14.826 -0.5008  0.1016  0.8793
19563TIP3    H280105   3.938   0.646  14.814 -0.3171  0.5354 -0.2307
19564TIP3   OH280106   4.575   4.418   1.854  0.4880  0.1545 -0.0081
19564TIP3    H180107   4.513   4.408   1.926  0.4754  0.4505  0.0239
19564TIP3    H280108   4.655   4.377   1.886 -0.3823 -2.4910 -0.9894
19565TIP3   OH280109   4.805   2.280  15.856  0.0834  0.2301 -0.1058
19565TIP3    H180110   4.853   2.345  15.804 -1.4819  1.8953  0.4134
19565TIP3    H280111   4.721   2.322  15.875  0.2058 -0.6585  2.9488
19566TIP3   OH280112   4.907   5.872   1.477  0.5954  0.3397  0.0065
19566TIP3    H180113   4.974   5.806   1.459 -1.4135 -1.6871 -0.5976
19566TIP3    H280114   4.844   5.827   1.533 -0.6623  1.9016 -0.0811
19567TIP3   OH280115   0.278   4.890  15.901 -0.0155  0.4165 -0.2598
19567TIP3    H180116   0.300   4.829  15.830 -0.3807 -0.2128  0.1522
19567TIP3    H280117   0.242   4.967  15.856  0.1137  0.1838 -0.7745
19568TIP3   OH280118   0.989   6.167  16.348  0.0579  0.0331 -0.4548
19568TIP3    H180119   1.078   6.159  16.382 -0.5605  0.2612  1.3107
19568TIP3    H280120   0.950   6.081  16.363 -0.1155  0.0136 -0.9833
19569TIP3   OH280121   2.127   6.569   2.026 -0.0376 -0.2810  0.6535
19569TIP3    H180122   2.043   6.523   2.027  0.1395 -1.1788 -3.8677
19569TIP3    H280123   2.187   6.508   2.069 -1.1463 -0.9020  1.3966
19570TIP3   OH280124   4.076   2.364  15.736 -0.0732  0.0041 -0.3005
19570TIP3    H180125   3.995   2.324  15.704 -0.0640 -0.5156  0.3130
19570TIP3    H280126   4.142   2.295  15.726  0.1049  0.1229  0.0518
19571TIP3   OH280127   4.564   4.974   3.693 -0.4979  0.1946  0.2037
19571TIP3    H180128   4.535   4.982   3.603 -1.3867 -0.0024  0.4655
19571TIP3    H280129   4.658   4.992   3.690 -0.2319 -1.2090 -0.9727
19572TIP3   OH280130   3.303   1.776   2.414  0.5001  0.1566 -0.2537
19572TIP3    H180131   3.258   1.700   2.450  0.5466 -0.3010 -1.1238
19572TIP3    H280132   3.380   1.787   2.470  0.1960 -0.0915  0.2201
19573TIP3   OH280133   3.349   3.197   5.287 -0.1161  0.1854 -1.0730
19573TIP3    H180134   3.264   3.180   5.327  0.1216 -0.4650 -0.8457
19573TIP3    H280135   3.329   3.252   5.211 -0.5233  1.8966  0.2013
19574TIP3   OH280136   0.384   0.099  11.232 -0.5750 -0.1383 -0.2291
19574TIP3    H180137   0.449   0.058  11.288 -0.5001  1.0082  0.5567
19574TIP3    H280138   0.425   0.181  11.203 -1.7395  0.7523  0.5192
19575TIP3   OH280139   0.023   0.960  15.371 -0.4541  0.4237 -0.0523
19575TIP3    H180140   0.090   0.991  15.431 -0.0463  0.0884 -0.3247
19575TIP3    H280141   0.027   1.021  15.297  1.2713 -1.0023 -1.2027
19576TIP3   OH280142   0.525   0.880   0.629  0.4999  0.6149 -0.1102
19576TIP3    H180143   0.530   0.788   0.656 -0.2703 -0.1380 -2.2852
19576TIP3    H280144   0.613   0.914   0.645  2.1614 -1.7598 -3.1417
19577TIP3   OH280145   2.161   0.241   1.302 -0.0878 -0.6440  0.3622
19577TIP3    H180146   2.072   0.242   1.266 -0.8693 -0.5718  2.2178
19577TIP3    H280147   2.181   0.148   1.315 -0.7759 -0.5808  1.9949
19578TIP3   OH280148   5.281   2.786   3.118  0.4994 -0.0198 -0.0883
19578TIP3    H180149   5.363   2.825   3.147 -0.0443  1.7203 -0.7734
19578TIP3    H280150   5.268   2.819   3.029 -1.3444  0.4588  0.3015
19579TIP3   OH280151   5.643   0.577   3.087 -0.2219  0.8399 -0.4696
19579TIP3    H180152   5.574   0.609   3.145  1.8840  1.4970  1.8310
19579TIP3    H280153   5.702   0.528   3.144  1.1479  0.1761 -2.3580
19580TIP3   OH280154   6.425   1.153  15.071 -0.0870 -0.4660 -0.2825
19580TIP3    H180155   6.489   1.224  15.068  1.7198 -1.9906  0.3435
19580TIP3    H280156   6.427   1.115  14.983 -0.5031 -0.2655 -0.3880
19581TIP3   OH280157   6.239   2.299   2.235 -0.0065 -0.5837 -0.1033
19581TIP3    H180158   6.272   2.388   2.222  1.1171 -0.9315  0.2838
19581TIP3    H280159   6.160   2.295   2.180 -1.2025  1.2406  1.3459
19582TIP3   OH280160   6.284   6.242   6.170  0.2570  0.3852  0.1592
19582TIP3    H180161   6.368   6.206   6.196  0.0110 -1.2165 -1.1287
19582TIP3    H280162   6.307   6.321   6.120  1.1836 -1.3133 -2.2487
19583TIP3   OH280163   5.449   0.590  14.539 -0.0954  0.2532  0.1442
19583TIP3    H180164   5.393   0.655  14.497  0.3137  0.2532 -0.4253
19583TIP3    H280165   5.408   0.573  14.624 -0.1428  1.3275  0.3480
19584TIP3   OH280166   1.201   1.284  13.206  0.1443 -0.5883  0.1801
19584TIP3    H180167   1.229   1.352  13.144 -1.1425  0.9044  1.1746
19584TIP3    H280168   1.260   1.294  13.280  0.4931 -1.1324 -0.0221
19585TIP3   OH280169   5.364   3.947  13.496  0.1446  0.3902 -0.2229
19585TIP3    H180170   5.345   4.038  13.518  1.4329  0.3495  1.2138
19585TIP3    H280171   5.434   3.921  13.556  1.6550 -0.7517 -2.3266
19586TIP3   OH280172   2.857   5.804   1.739 -0.5563  0.0093  0.3561
19586TIP3    H180173   2.864   5.783   1.832  0.2720 -2.3833 -0.1900
19586TIP3    H280174   2.941   5.844   1.717 -0.6213  0.2523  0.5389
19587TIP3   OH280175   1.777   0.139  12.709  0.4627  0.2303 -0.3490
19587TIP3    H180176   1.723   0.063  12.729  1.6754  0.1738  3.5495
19587TIP3    H280177   1.722   0.214  12.732  0.1966  0.4554 -1.6490
19588TIP3   OH280178   1.939   2.330   1.942  0.2991 -0.7462 -0.2908
19588TIP3    H180179   1.953   2.413   1.897 -1.3192 -0.0239  0.4641
19588TIP3    H280180   1.845   2.327   1.958  0.3773 -2.5775  0.0086
19589TIP3   OH280181   1.946   2.113  14.878  0.4748  0.3455  0.0291
19589TIP3    H180182   2.035   2.096  14.909  0.4716  0.2069 -0.0349
19589TIP3    H280183   1.924   2.037  14.824  0.5353  0.6493 -0.4323
19590TIP3   OH280184   3.816   4.617  11.089 -0.0577  0.2281  0.0224
19590TIP3    H180185   3.824   4.709  11.063  0.6255  0.1440 -0.0875
19590TIP3    H280186   3.726   4.609  11.121 -0.2573  0.8346 -0.3578
19591TIP3   OH280187   5.610   4.963  13.067  0.2902  0.0872 -0.2216
19591TIP3    H180188   5.524   4.981  13.105 -0.6942 -1.5400 -1.5366
19591TIP3    H280189   5.642   5.049  13.040 -0.7118  0.7814  0.6906
19592TIP3   OH280190   3.606   5.711  12.149  0.3796 -0.4635 -0.0840
19592TIP3    H180191   3.635   5.620  12.160  0.1235 -0.4463  0.8190
19592TIP3    H280192   3.514   5.704  12.126  0.5610 -0.4535 -0.8246
19593TIP3   OH280193   3.263   5.503   0.181 -0.1348  0.2327  0.3586
19593TIP3    H180194   3.187   5.458   0.143  0.2253 -1.0715  1.1143
19593TIP3    H280195   3.235   5.525   0.270  0.0068  0.6901  0.2887
19594TIP3   OH280196   5.583   5.566   0.126  0.0445 -0.4572  0.2905
19594TIP3    H180197   5.548   5.493   0.176  0.7713 -0.9554  0.0894
19594TIP3    H280198   5.672   5.576   0.159 -0.0095  0.2636  0.2304
19595TIP3   OH280199   2.456   6.659  12.368  0.0595  0.1410  0.5179
19595TIP3    H180200   2.405   6.685  12.291 -0.1196  2.4402  1.3687
19595TIP3    H280201   2.547   6.663  12.338 -0.0678 -0.6759 -0.0330
19596TIP3   OH280202   4.732   2.468  15.457  0.1078  0.2867  0.1567
19596TIP3    H180203   4.647   2.425  15.463  0.5837 -0.6657  0.2990
19596TIP3    H280204   4.712   2.560  15.442 -0.9423  0.0428  0.0184
19597TIP3   OH280205   4.250   1.841  14.612  0.4314 -0.1946 -0.5526
19597TIP3    H180206   4.166   1.881  14.591 -0.1175 -0.9084  0.2208
19597TIP3    H280207   4.315   1.902  14.577 -0.3768  1.3900  0.5867
19598TIP3   OH280208   5.422   0.243   3.929  0.4267 -0.3895  0.1594
19598TIP3    H180209   5.473   0.245   4.010  1.6661 -1.6782 -0.5216
19598TIP3    H280210   5.366   0.166   3.938 -0.0048 -0.0791  0.1188
19599TIP3   OH280211   2.445   4.293   3.038 -0.0908  0.8568  0.8072
19599TIP3    H180212   2.413   4.207   3.010 -0.0268  1.1614 -0.2492
19599TIP3    H280213   2.538   4.292   3.015  0.7754 -0.0497  3.9012
19600TIP3   OH280214   2.194   5.847  13.036 -0.6165 -0.0045  0.0547
19600TIP3    H180215   2.150   5.859  12.952  1.1472  0.5252 -0.8546
19600TIP3    H280216   2.265   5.912  13.035 -0.0815 -0.5190  1.6116
19601TIP3   OH280217   5.119   1.448  12.153 -0.3368  0.2791  0.1232
19601TIP3    H180218   5.076   1.438  12.238 -0.3905 -0.4731  0.0143
19601TIP3    H280219   5.049   1.438  12.089 -0.1205 -0.2376 -0.0378
19602TIP3   OH280220   6.694   0.285   3.893 -0.3844  0.4184  0.3114
19602TIP3    H180221   6.708   0.366   3.843  1.9821  0.9572  1.7052
19602TIP3    H280222   6.632   0.310   3.962 -3.1286 -0.1603 -1.7380
19603TIP3   OH280223   4.529   4.795   5.817 -0.2375  0.2520  0.5285
19603TIP3    H180224   4.435   4.787   5.807 -0.0198 -0.7596 -0.9134
19603TIP3    H280225   4.566   4.739   5.750  1.4049  1.3633  0.4306
19604TIP3   OH280226   6.010   4.089   3.773 -0.4127  0.3278  0.1011
19604TIP3    H180227   5.950   4.063   3.703  0.5128  0.2252 -0.6882
19604TIP3    H280228   5.996   4.025   3.842 -0.9629  0.0976 -0.2194
19605TIP3   OH280229   5.967   6.662   0.915 -0.1213  0.3457 -0.2038
19605TIP3    H180230   5.951   6.756   0.912 -1.3497  0.1325 -1.3459
19605TIP3    H280231   5.886   6.623   0.883  1.5316 -0.9825 -3.2238
19606TIP3   OH280232   2.162   3.971   1.663  0.3465  0.1721 -0.6815
19606TIP3    H180233   2.229   3.903   1.651  0.2821  0.3147 -1.9311
19606TIP3    H280234   2.151   4.010   1.577 -0.9120  0.5783 -0.3594
19607TIP3   OH280235   0.426   5.627   0.374  0.0659  0.5024  0.3140
19607TIP3    H180236   0.332   5.635   0.357 -0.3068  1.5070  2.5870
19607TIP3    H280237   0.432   5.593   0.463  1.8693  1.2220  0.5039
19608TIP3   OH280238   2.579   6.593  11.869  0.1092  0.0579  0.1500
19608TIP3    H180239   2.582   6.498  11.884 -2.2269 -0.3981 -1.5642
19608TIP3    H280240   2.486   6.615  11.875  0.5004  2.0840 -0.4060
19609TIP3   OH280241   0.199   6.085   4.965  0.4779  0.1391  0.2109
19609TIP3    H180242   0.176   6.178   4.970  0.5529  0.1021  2.8486
19609TIP3    H280243   0.122   6.043   4.929 -0.8674  0.8983  2.0166
19610TIP3   OH280244   5.648   4.132  13.724 -0.0890  0.0397  0.0424
19610TIP3    H180245   5.687   4.124  13.811 -0.9157 -0.3645  0.3887
19610TIP3    H280246   5.636   4.042  13.695  2.9612  0.1199 -1.8166
19611TIP3   OH280247   3.316   1.185   0.796 -0.0736 -0.3263  0.1401
19611TIP3    H180248   3.290   1.128   0.724 -2.0967  0.1829  0.4040
19611TIP3    H280249   3.277   1.146   0.873 -0.0979  0.5195  0.5698
19612TIP3   OH280250   5.167   2.159   3.016  0.5019 -0.0210  0.0531
19612TIP3    H180251   5.155   2.251   3.039 -0.9477 -0.1853  0.0377
19612TIP3    H280252   5.136   2.153   2.925 -0.9422 -0.7994  0.5609
19613TIP3   OH280253   4.282   5.714   1.018 -0.1644  0.1602 -0.5736
19613TIP3    H180254   4.216   5.646   1.003 -0.4491  0.8405 -2.6713
19613TIP3    H280255   4.365   5.671   0.996 -0.1436 -0.0105 -0.1770
19614TIP3   OH280256   6.406   6.356   4.526  0.7536 -0.2667  0.5967
19614TIP3    H180257   6.311   6.351   4.516  0.8841  0.0191 -1.0424
19614TIP3    H280258   6.424   6.450   4.534  1.0677 -0.0793 -1.6160
19615TIP3   OH280259   3.196   3.705   1.208  0.7497  0.3480  0.7789
19615TIP3    H180260   3.152   3.645   1.269  2.9219 -1.1776  0.9652
19615TIP3    H280261   3.128   3.729   1.144 -0.9398  0.0568  2.3898
19616TIP3   OH280262   2.635   6.501   1.640 -0.5346  0.6206  0.1575
19616TIP3    H180263   2.583   6.490   1.560 -1.5559 -2.1622  1.1162
19616TIP3    H280264   2.720   6.533   1.608 -2.0982  3.4901 -1.6206
19617TIP3   OH280265   2.394   5.573   3.340  1.0350 -0.2422  0.2354
19617TIP3    H180266   2.401   5.554   3.434  0.1710 -0.8828  0.1738
19617TIP3    H280267   2.372   5.490   3.300 -0.1645  0.3432 -0.3522
19618TIP3   OH280268   6.736   2.641  17.036  0.0464  0.3554 -0.0004
19618TIP3    H180269   6.779   2.692  17.104  1.2845 -0.3625 -0.2134
19618TIP3    H280270   6.673   2.587  17.084  1.9100 -1.2182  0.8365
19619TIP3   OH280271   6.183   1.539   0.276 -0.0733 -0.7787  0.3789
19619TIP3    H180272   6.198   1.524   0.183  1.2187 -0.9192  0.5969
19619TIP3    H280273   6.264   1.577   0.308 -0.4604 -0.8395  1.4786
19620TIP3   OH280274   0.252   1.709  16.253  0.3926  0.0474 -0.1016
19620TIP3    H180275   0.337   1.752  16.244 -0.0350  1.0959  0.6389
19620TIP3    H280276   0.267   1.642  16.320 -0.0632  2.3386  2.4582
19621TIP3   OH280277   5.534   4.411  14.160 -0.0107  0.0183  0.0768
19621TIP3    H180278   5.458   4.354  14.144 -1.0368  0.3812  3.0691
19621TIP3    H280279   5.497   4.499  14.160  1.0388  0.4901 -1.5560
19622TIP3   OH280280   3.036   2.642   2.326  0.1707  1.0120  0.0464
19622TIP3    H180281   2.963   2.678   2.376 -0.7242  0.4881 -0.8460
19622TIP3    H280282   3.040   2.550   2.351  0.3366  0.9720 -0.1238
19623TIP3   OH280283   5.962   2.812   0.557 -0.0390  0.3897  0.2716
19623TIP3    H180284   5.932   2.883   0.614  0.5469  0.3950  0.5777
19623TIP3    H280285   6.055   2.803   0.576  0.3394  0.8900 -1.2182
19624TIP3   OH280286   1.918   1.726  17.270  0.1111  0.1090 -0.4021
19624TIP3    H180287   1.866   1.806  17.259 -1.0423 -0.8027 -1.8570
19624TIP3    H280288   1.893   1.671  17.196 -1.7566 -3.0715  2.3303
19625TIP3   OH280289   6.388   3.865  12.254  1.4724  0.6133 -0.2804
19625TIP3    H180290   6.371   3.886  12.162  1.4411 -2.4608 -1.0865
19625TIP3    H280291   6.308   3.822  12.284  1.4924  1.5540  1.2087
19626TIP3   OH280292   2.395   2.994  17.330 -0.0734  0.0752 -0.2391
19626TIP3    H180293   2.476   3.016  17.284 -0.0556  0.5199  0.0038
19626TIP3    H280294   2.422   2.978  17.420 -0.4897  2.1172  0.2949
19627TIP3   OH280295   3.460   4.534  14.424 -0.5624  0.1053 -0.2119
19627TIP3    H180296   3.518   4.605  14.397 -0.8972  0.0811 -1.0356
19627TIP3    H280297   3.519   4.464  14.451 -0.2147  0.3588 -0.3060
19628TIP3   OH280298   2.400   4.156   6.133  0.0728  0.2769  0.3328
19628TIP3    H180299   2.475   4.210   6.108 -0.9873  1.2337 -0.9384
19628TIP3    H280300   2.407   4.078   6.078 -1.1136  1.4513 -1.6279
19629TIP3   OH280301   1.797   3.262  15.076  0.1995 -0.0831 -0.5031
19629TIP3    H180302   1.768   3.188  15.023 -0.7904 -1.8788  2.3116
19629TIP3    H280303   1.716   3.302  15.109  0.7680  0.4467  0.2938
19630TIP3   OH280304   4.297   1.200   0.811  0.0039  0.4675  0.0079
19630TIP3    H180305   4.347   1.182   0.890 -0.5582  2.0338  0.7603
19630TIP3    H280306   4.361   1.232   0.747  1.1141 -4.0531 -1.5053
19631TIP3   OH280307   5.560   6.190  12.863 -0.2520  0.2596 -0.3146
19631TIP3    H180308   5.573   6.283  12.842 -1.7596  0.4861 -0.4055
19631TIP3    H280309   5.619   6.143  12.805  0.2737  1.1542 -0.5154
19632TIP3   OH280310   0.184   1.727  16.757  0.8621  0.4002  0.0943
19632TIP3    H180311   0.200   1.670  16.832  1.1524 -3.7245 -2.7771
19632TIP3    H280312   0.270   1.739  16.717  0.2662 -0.7777 -1.6428
19633TIP3   OH280313   0.066   4.932   5.391 -0.3245 -0.1976  0.4184
19633TIP3    H180314   0.122   4.888   5.327  0.1043  0.4562  0.3302
19633TIP3    H280315   0.127   4.984   5.444 -1.0712  3.4115 -1.9174
19634TIP3   OH280316   6.128   0.875   5.318  0.7780  0.5454  0.0689
19634TIP3    H180317   6.141   0.794   5.269  2.2311  0.1597  1.0504
19634TIP3    H280318   6.074   0.930   5.260 -0.1871 -1.0781 -0.6310
19635TIP3   OH280319   0.283   1.390   2.376 -0.2237 -0.3921 -0.2868
19635TIP3    H180320   0.303   1.385   2.470  0.9947  0.6852 -0.4664
19635TIP3    H280321   0.213   1.455   2.370 -0.8156 -0.9947 -0.0728
19636TIP3   OH280322   4.044   2.389  16.013 -0.1319  0.8283  0.4005
19636TIP3    H180323   4.069   2.354  15.927  1.7462 -0.2770  1.3251
19636TIP3    H280324   3.999   2.316  16.056 -0.6974  1.2391  0.5083
19637TIP3   OH280325   6.155   4.634  11.097  0.6674  0.0875 -0.4328
19637TIP3    H180326   6.100   4.682  11.035 -0.0434  2.3930  1.8236
19637TIP3    H280327   6.245   4.655  11.071  0.3736  2.2780  0.1568
19638TIP3   OH280328   5.533   0.795   1.059 -0.2812  0.2020 -0.1826
19638TIP3    H180329   5.517   0.888   1.045  0.0328  0.3921  0.6764
19638TIP3    H280330   5.545   0.759   0.971 -3.5038  0.3632 -0.8241
19639TIP3   OH280331   5.096   1.015  11.638 -0.2651 -0.2129 -0.2989
19639TIP3    H180332   5.009   0.975  11.632  0.4784 -1.8589 -0.6495
19639TIP3    H280333   5.083   1.092  11.695 -1.8680 -0.6182 -0.0619
19640TIP3   OH280334   1.826   3.769   1.532  0.2425  0.6005  0.5943
19640TIP3    H180335   1.764   3.707   1.494  0.1906  0.8331  0.2952
19640TIP3    H280336   1.900   3.715   1.561 -0.2350  0.2793  1.2491
19641TIP3   OH280337   0.806   6.695  16.433  0.2174 -0.1517  0.0177
19641TIP3    H180338   0.822   6.601  16.442  0.2144 -0.0882  0.8476
19641TIP3    H280339   0.795   6.725  16.524  0.4137  0.6786 -0.2266
19642TIP3   OH280340   2.605   0.530   4.790  0.8696 -0.4560 -0.0194
19642TIP3    H180341   2.579   0.440   4.769  0.4615 -0.2743 -0.3068
19642TIP3    H280342   2.677   0.549   4.729  0.0799 -0.1367 -0.8757
19643TIP3   OH280343   2.320   1.580   4.374 -0.1820  0.5572  0.1736
19643TIP3    H180344   2.237   1.538   4.350 -0.0606  0.4606 -0.0833
19643TIP3    H280345   2.295   1.651   4.433 -0.4472  0.5146  0.1137
19644TIP3   OH280346   5.704   6.613   5.412  0.4605 -0.4370 -0.0241
19644TIP3    H180347   5.625   6.667   5.417  0.4296 -0.5251  0.6190
19644TIP3    H280348   5.677   6.534   5.366 -0.1443 -0.9876  1.2314
19645TIP3   OH280349   2.364   5.386  12.775  0.3626 -0.2038 -0.1151
19645TIP3    H180350   2.408   5.336  12.844  2.8220  1.8638 -0.0714
19645TIP3    H280351   2.331   5.464  12.820 -0.4112 -0.1192 -0.8064
19646TIP3   OH280352   1.783   3.630  11.420  0.5346  0.3320 -0.1390
19646TIP3    H180353   1.877   3.614  11.431  0.6962 -1.2579 -2.8178
19646TIP3    H280354   1.774   3.666  11.331 -1.5018 -1.8432 -0.9480
19647TIP3   OH280355   1.507   0.438  17.072  0.0500 -0.1563  0.6037
19647TIP3    H180356   1.581   0.472  17.022 -0.6720 -0.1449 -0.4767
19647TIP3    H280357   1.527   0.346  17.085  0.2745 -0.1410  0.3698
19648TIP3   OH280358   5.973   5.349   1.893 -0.1061 -0.0853 -0.1447
19648TIP3    H180359   5.935   5.354   1.981 -0.0764  1.4285 -0.1783
19648TIP3    H280360   6.057   5.395   1.901 -0.3026  0.4539 -1.0439
19649TIP3   OH280361   6.239   4.708  16.361  0.1319 -0.7418 -0.1628
19649TIP3    H180362   6.285   4.665  16.433  0.6726 -1.3248 -0.8342
19649TIP3    H280363   6.203   4.637  16.310 -0.6041 -0.3165 -0.2443
19650TIP3   OH280364   2.397   6.147  13.888 -0.5251  0.3060  0.4414
19650TIP3    H180365   2.434   6.154  13.800 -0.2996 -1.5189  0.3443
19650TIP3    H280366   2.473   6.137  13.945 -0.7121  0.4628  0.7179
19651TIP3   OH280367   1.484   4.983  11.906 -0.2530  0.0414  0.8517
19651TIP3    H180368   1.454   5.043  11.974 -0.0609  0.5805  0.4722
19651TIP3    H280369   1.570   4.953  11.935 -0.1386  0.3297  0.8138
19652TIP3   OH280370   6.453   1.698  16.106 -0.3588 -0.4314  0.3577
19652TIP3    H180371   6.360   1.713  16.122 -0.1423 -0.5213  1.8530
19652TIP3    H280372   6.494   1.782  16.125 -0.0708 -0.5485  0.2593
19653TIP3   OH280373   0.137   5.497  16.759 -0.4688 -0.1200  0.2238
19653TIP3    H180374   0.143   5.406  16.731 -3.9971 -0.1037 -1.0477
19653TIP3    H280375   0.055   5.502  16.808  0.1483  2.1668  1.1468
19654TIP3   OH280376   0.118   5.850  15.397  0.4479  0.6389 -0.4151
19654TIP3    H180377   0.111   5.901  15.316  1.4583  1.5086  0.0228
19654TIP3    H280378   0.077   5.905  15.464  1.3287  0.7899  0.0139
19655TIP3   OH280379   4.987   6.106  12.080 -0.0292 -0.2118  0.0539
19655TIP3    H180380   5.000   6.027  12.133 -0.1978  1.1482  2.2191
19655TIP3    H280381   4.926   6.159  12.130 -1.8044  0.3356 -2.4877
19656TIP3   OH280382   4.448   4.647  14.674  0.2328 -0.0419 -0.1534
19656TIP3    H180383   4.405   4.663  14.758  0.7811 -1.7075  0.4868
19656TIP3    H280384   4.540   4.668  14.690 -0.1333  3.1165 -1.4019
19657TIP3   OH280385   4.432   4.231  11.400 -0.0833  0.5118 -0.6503
19657TIP3    H180386   4.433   4.219  11.305 -2.5057  1.2379 -0.8482
19657TIP3    H280387   4.488   4.161  11.434 -0.0048 -0.4243 -2.5698
19658TIP3   OH280388   3.803   3.492  15.262  0.0496  0.4354  0.0843
19658TIP3    H180389   3.802   3.467  15.355 -1.0621  0.5861  0.1272
19658TIP3    H280390   3.800   3.410  15.214  3.2681  0.1898  0.0958
19659TIP3   OH280391   1.873   0.948   1.204  0.3619  0.0625  0.7816
19659TIP3    H180392   1.882   0.978   1.295  0.8493 -0.1956  0.8230
19659TIP3    H280393   1.787   0.980   1.176  0.2543  0.2325  1.3015
19660TIP3   OH280394   0.608   5.154   2.949  0.1971  0.1016 -0.2673
19660TIP3    H180395   0.686   5.169   3.001  0.1063  0.2459 -0.1737
19660TIP3    H280396   0.636   5.171   2.859  0.5655 -0.9290 -0.3610
19661TIP3   OH280397   2.638   3.076   2.221 -0.1945 -0.1496 -0.2529
19661TIP3    H180398   2.678   3.071   2.308 -0.6517 -0.7292 -0.0758
19661TIP3    H280399   2.683   3.150   2.179  1.1062 -0.8075 -0.0782
19662TIP3   OH280400   1.468   4.336   5.361 -0.3665 -0.5871 -0.4679
19662TIP3    H180401   1.451   4.411   5.419  0.7802 -1.2054  0.7295
19662TIP3    H280402   1.388   4.326   5.310  0.1415  2.8348 -2.3043
19663TIP3   OH280403   6.279   0.320  10.694 -0.5264 -0.5854 -0.5826
19663TIP3    H180404   6.293   0.251  10.629 -1.7332 -0.7259 -0.7053
19663TIP3    H280405   6.367   0.340  10.727 -0.1705 -2.3094 -0.4105
19664TIP3   OH280406   1.254   3.615  14.443 -0.5224 -0.1528  0.1233
19664TIP3    H180407   1.281   3.693  14.394 -0.9328 -0.5776 -0.8211
19664TIP3    H280408   1.158   3.617  14.440 -0.5470 -0.1847  0.9204
19665TIP3   OH280409   4.329   0.711   2.302 -0.3961  0.0125 -0.3144
19665TIP3    H180410   4.311   0.725   2.209 -1.6775 -2.0400 -0.4512
19665TIP3    H280411   4.363   0.794   2.333 -1.1802  1.1535 -2.3235
19666TIP3   OH280412   0.481   4.116   5.811  0.2937 -0.5260 -0.3474
19666TIP3    H180413   0.550   4.088   5.872  0.7510 -1.9559 -1.4857
19666TIP3    H280414   0.514   4.093   5.725 -0.9813  0.1583 -1.0463
19667TIP3   OH280415   1.842   5.915   0.789 -0.0900  0.1408 -0.1177
19667TIP3    H180416   1.782   5.985   0.765 -0.2649  0.6024  1.5881
19667TIP3    H280417   1.929   5.955   0.786 -0.2452  0.6583  1.5276
19668TIP3   OH280418   2.583   3.941   5.806 -0.4655  0.3617 -0.5026
19668TIP3    H180419   2.633   3.863   5.781 -0.1808  0.4127 -0.0838
19668TIP3    H280420   2.521   3.953   5.734 -2.0470 -1.5641  0.4669
19669TIP3   OH280421   1.740   5.336   1.606 -0.0449  0.1804 -0.2285
19669TIP3    H180422   1.808   5.398   1.632 -0.7189  1.2100 -0.8724
19669TIP3    H280423   1.778   5.250   1.626  0.5231  0.8046  1.5801
19670TIP3   OH280424   2.552   2.812  12.712  0.9459  0.6039 -0.0504
19670TIP3    H180425   2.581   2.748  12.777  1.9674  2.4202  1.4018
19670TIP3    H280426   2.629   2.826  12.656  1.0924  1.3079  0.3095
19671TIP3   OH280427   4.845   5.721  15.100  0.6404  0.4997 -0.2717
19671TIP3    H180428   4.858   5.812  15.075  1.6076  0.9270  1.5508
19671TIP3    H280429   4.752   5.715  15.123  0.7677  1.2872  0.4955
19672TIP3   OH280430   5.266   4.010  15.226 -0.0563 -0.3836 -0.2862
19672TIP3    H180431   5.288   4.058  15.305  0.5458 -0.5066 -0.3734
19672TIP3    H280432   5.194   3.953  15.252 -1.2696  1.0567 -0.3605
19673TIP3   OH280433   2.750   2.057  14.336  1.1282 -0.5404  0.7311
19673TIP3    H180434   2.696   2.136  14.348 -0.5890 -0.7375 -3.5982
19673TIP3    H280435   2.695   1.986  14.367  0.7659 -0.3603  0.5143
19674TIP3   OH280436   6.268   3.882   5.318 -0.2177 -0.2071 -0.0911
19674TIP3    H180437   6.239   3.816   5.381  0.3505  0.9995  1.5044
19674TIP3    H280438   6.364   3.883   5.326 -0.2450  1.3485  0.5570
19675TIP3   OH280439   0.870   3.058   4.801 -0.2906  0.2004  0.9200
19675TIP3    H180440   0.848   3.150   4.815 -0.8739  0.0868  0.7871
19675TIP3    H280441   0.899   3.053   4.710  1.4554  0.5612  1.4308
19676TIP3   OH280442   1.093   4.141   0.117  0.2613 -0.0511  0.3790
19676TIP3    H180443   1.053   4.147   0.204  1.2394 -0.9996  0.9133
19676TIP3    H280444   1.174   4.092   0.131  1.1757  1.0518 -0.8194
19677TIP3   OH280445   2.428   6.110   2.105  0.7489  0.1305 -0.1785
19677TIP3    H180446   2.334   6.126   2.112  0.3016 -1.2384 -2.1510
19677TIP3    H280447   2.452   6.074   2.190 -0.4682  0.6237  0.4068
19678TIP3   OH280448   2.214   3.770  14.831 -0.4671  0.3456 -1.0010
19678TIP3    H180449   2.132   3.720  14.837 -0.2080 -0.1928 -1.8195
19678TIP3    H280450   2.259   3.752  14.913 -0.0603 -1.3556 -1.5580
19679TIP3   OH280451   3.287   4.144  11.728 -0.0428 -0.4948  0.2545
19679TIP3    H180452   3.339   4.155  11.807 -0.6267 -0.8938  0.7036
19679TIP3    H280453   3.302   4.053  11.702  1.1750 -0.0122 -0.8500
19680TIP3   OH280454   1.114   6.196   1.395 -0.0299  0.0383  0.7467
19680TIP3    H180455   1.124   6.291   1.397  0.5909 -0.0150  0.3262
19680TIP3    H280456   1.194   6.163   1.435  0.0828 -0.3244  0.2262
19681TIP3   OH280457   4.706   6.078   5.379  0.2990  0.4138  0.5333
19681TIP3    H180458   4.684   6.077   5.472  0.0202  1.3496  0.4846
19681TIP3    H280459   4.799   6.055   5.376  0.1415 -0.3144  0.9842
19682TIP3   OH280460   4.140   6.175   4.642  0.7184 -0.2137 -0.1844
19682TIP3    H180461   4.137   6.245   4.576 -3.3891 -1.4831 -1.6935
19682TIP3    H280462   4.107   6.216   4.721  1.4390  0.2911 -0.1383
19683TIP3   OH280463   2.887   3.263  14.945 -0.1839 -0.2911 -0.0032
19683TIP3    H180464   2.833   3.271  14.866 -0.4896  0.8226  0.3043
19683TIP3    H280465   2.862   3.338  14.999 -2.2572 -2.6033  2.5533
19684TIP3   OH280466   6.671   3.950  14.394 -0.1089  0.3246  0.0826
19684TIP3    H180467   6.725   4.025  14.369  1.0399 -0.0844  1.2320
19684TIP3    H280468   6.733   3.878  14.405 -1.1963 -0.8814 -1.1635
19685TIP3   OH280469   4.300   4.179   6.105  0.6351 -0.0201 -0.3953
19685TIP3    H180470   4.263   4.098   6.141 -0.9998  0.4940 -0.7955
19685TIP3    H280471   4.246   4.248   6.143  2.4993  0.9846  0.5575
19686TIP3   OH280472   2.434   1.165   1.654  0.6520  0.0878  0.1381
19686TIP3    H180473   2.483   1.227   1.708  0.2146 -0.4612  1.1778
19686TIP3    H280474   2.481   1.082   1.663  0.2240 -0.1544  0.1660
19687TIP3   OH280475   6.036   0.351   5.151  0.1352 -0.4698  0.4357
19687TIP3    H180476   6.026   0.444   5.168  0.1895 -0.6093  1.2790
19687TIP3    H280477   6.113   0.345   5.095 -0.1677  0.0270 -0.0387
19688TIP3   OH280478   4.513   4.200   0.441  0.7569 -0.0510  0.4277
19688TIP3    H180479   4.589   4.249   0.473 -0.6326  1.4138  1.6926
19688TIP3    H280480   4.446   4.213   0.509 -1.1287  0.0530 -1.3580
19689TIP3   OH280481   1.291   1.938   5.143  0.3954 -0.2880 -0.5398
19689TIP3    H180482   1.345   2.010   5.175  0.5748 -0.8297  0.4044
19689TIP3    H280483   1.218   1.982   5.098  1.1557  0.4567 -1.0936
19690TIP3   OH280484   2.822   1.828  14.838 -0.5982 -0.5708  0.2788
19690TIP3    H180485   2.903   1.792  14.803 -0.1702  0.4008  0.2398
19690TIP3    H280486   2.839   1.843  14.931 -1.8480 -3.4723  1.0711
19691TIP3   OH280487   4.640   1.503   0.441 -0.0730  0.9685  0.1631
19691TIP3    H180488   4.675   1.524   0.527  0.6192 -0.4323  0.2523
19691TIP3    H280489   4.690   1.427   0.412 -0.3284  1.3803 -1.4633
19692TIP3   OH280490   2.710   2.016   5.059 -0.0804 -0.3697 -0.0000
19692TIP3    H180491   2.625   1.976   5.077 -0.4535  0.4294  0.0365
19692TIP3    H280492   2.720   2.084   5.125 -0.2753  0.8245 -1.1435
19693TIP3   OH280493   5.873   3.799   1.430 -0.9295  0.2328 -0.1728
19693TIP3    H180494   5.873   3.821   1.337 -0.3379 -0.8025 -0.4350
19693TIP3    H280495   5.823   3.718   1.436  0.2859 -0.5248  0.1786
19694TIP3   OH280496   1.174   0.887  14.533  0.0060  0.1720 -0.1963
19694TIP3    H180497   1.101   0.858  14.479  1.3598 -0.0297 -2.0034
19694TIP3    H280498   1.166   0.836  14.614 -1.0954 -0.7722 -0.8795
19695TIP3   OH280499   3.803   5.281   4.677 -0.1861  0.2692 -0.1077
19695TIP3    H180500   3.872   5.222   4.648 -0.0293  0.0171  0.7289
19695TIP3    H280501   3.820   5.363   4.630 -0.0144 -0.1451 -0.7827
19696TIP3   OH280502   2.382   5.561   2.584 -0.3187  0.1003 -0.0067
19696TIP3    H180503   2.448   5.530   2.522  0.3172  3.1764 -1.0807
19696TIP3    H280504   2.298   5.543   2.541  0.0709  0.9275 -1.1737
19697TIP3   OH280505   3.358   2.569   5.250  0.1401 -0.0069  0.6016
19697TIP3    H180506   3.444   2.532   5.230  1.2662  0.8453  3.3655
19697TIP3    H280507   3.367   2.662   5.232  0.2959  0.3072  2.1088
19698TIP3   OH280508   0.065   6.096   6.472 -0.1826  0.2802  0.4195
19698TIP3    H180509   0.052   6.007   6.439 -0.0688 -0.4935  2.3154
19698TIP3    H280510  -0.015   6.115   6.522  0.4863  0.5524  1.4317
19699TIP3   OH280511   4.156   4.706   3.775  0.2754 -0.8226 -0.1141
19699TIP3    H180512   4.098   4.713   3.700  1.5394  1.7867 -0.9820
19699TIP3    H280513   4.135   4.782   3.829  2.3869 -0.1322 -0.1559
19700TIP3   OH280514   4.330   5.098   2.027 -0.2971  1.0548  0.2053
19700TIP3    H180515   4.407   5.118   1.973 -0.7470 -0.8380 -1.2172
19700TIP3    H280516   4.318   5.177   2.081  3.3086  1.0282  1.3536
19701TIP3   OH280517   6.339   6.615  14.069 -0.3315 -0.0676  0.4104
19701TIP3    H180518   6.350   6.545  14.005  0.8047  0.7544 -0.3445
19701TIP3    H280519   6.386   6.689  14.031  0.4499  0.4214  2.2332
19702TIP3   OH280520   5.905   5.521   0.969 -0.5410  0.1607 -0.4073
19702TIP3    H180521   5.851   5.597   0.950 -1.7596 -0.4889  0.3122
19702TIP3    H280522   5.899   5.510   1.064 -1.0484 -1.2827 -0.5702
19703TIP3   OH280523   1.925   2.229   6.284 -0.0368 -0.1078  0.1771
19703TIP3    H180524   1.869   2.194   6.354  1.1329  1.6387  2.0968
19703TIP3    H280525   2.002   2.172   6.285 -0.2105 -0.3506 -0.0163
19704TIP3   OH280526   3.583   5.520   4.177 -0.0794 -0.2568 -0.1753
19704TIP3    H180527   3.565   5.584   4.246 -0.0243  2.9162 -2.8546
19704TIP3    H280528   3.679   5.516   4.173 -0.0729 -1.2704  0.5609
19705TIP3   OH280529   1.733   3.919  12.561 -0.1535  0.3868 -0.1501
19705TIP3    H180530   1.730   3.838  12.510 -1.1895  1.4238 -1.8513
19705TIP3    H280531   1.809   3.909  12.617 -0.1725 -1.7019 -0.4076
19706TIP3   OH280532   3.894   6.559   4.918  0.4050  0.3304 -0.4767
19706TIP3    H180533   3.814   6.603   4.890  0.6609  0.7472 -0.5725
19706TIP3    H280534   3.885   6.548   5.012  0.9041  1.8038 -0.2297
19707TIP3   OH280535   3.785   6.617   5.208  0.2310 -0.0781  0.3024
19707TIP3    H180536   3.769   6.652   5.295 -0.3331 -3.0296  1.5126
19707TIP3    H280537   3.866   6.567   5.216 -0.2749 -1.0922 -0.6287
19708TIP3   OH280538   4.194   0.714  11.898  0.1823 -0.3064 -0.4929
19708TIP3    H180539   4.241   0.764  11.832  0.9039 -0.3062  0.0147
19708TIP3    H280540   4.262   0.667  11.947 -0.3251 -0.2160  0.3219
19709TIP3   OH280541   1.324   1.243  14.900 -0.3344 -0.5651 -0.3155
19709TIP3    H180542   1.369   1.238  14.815 -0.6636  0.2365 -0.5512
19709TIP3    H280543   1.245   1.191  14.888 -2.2604  2.3701 -1.7683
19710TIP3   OH280544   0.768   6.501  16.060  0.3253  0.2551  0.0269
19710TIP3    H180545   0.721   6.557  15.998  0.0673 -0.7221 -0.6720
19710TIP3    H280546   0.856   6.495  16.024  0.3691  0.2517  0.1355
19711TIP3   OH280547   6.079   4.728   4.890 -0.0175 -0.2846  0.2322
19711TIP3    H180548   6.155   4.766   4.844 -0.7963 -0.1227 -0.9655
19711TIP3    H280549   6.011   4.723   4.823 -0.9930 -0.6700  1.2298
19712TIP3   OH280550   3.182   1.327   4.665 -0.2841  0.2708 -0.5652
19712TIP3    H180551   3.240   1.389   4.710 -0.4779  0.8554 -1.1024
19712TIP3    H280552   3.134   1.284   4.736  0.1668  0.4133 -0.1624
19713TIP3   OH280553   6.641   1.049   1.893 -0.1320  0.5550 -0.0746
19713TIP3    H180554   6.639   0.960   1.928 -1.3317  0.3313 -0.6451
19713TIP3    H280555   6.691   1.042   1.812 -0.2685  0.3821 -0.1454
19714TIP3   OH280556   6.205   5.008  13.071 -0.2515 -0.5750 -0.0749
19714TIP3    H180557   6.188   4.976  12.982 -1.0972  1.4641 -0.7258
19714TIP3    H280558   6.119   5.010  13.112  0.2073 -2.0096  1.0157
19715TIP3   OH280559   1.866   3.184  12.086 -0.1342 -0.3891  0.0179
19715TIP3    H180560   1.884   3.267  12.042  0.0871 -0.3840  0.1188
19715TIP3    H280561   1.825   3.209  12.169  1.8299 -0.2828  1.0046
19716TIP3   OH280562   0.809   2.660   1.895 -0.2534 -0.5099 -0.5131
19716TIP3    H180563   0.769   2.595   1.952  0.1980  1.1674  1.8630
19716TIP3    H280564   0.747   2.669   1.822 -2.0850 -1.0272  0.9064
19717TIP3   OH280565   0.678   2.883  12.146  1.3628  0.4644  0.6042
19717TIP3    H180566   0.728   2.824  12.201  1.1472  0.4820  0.8198
19717TIP3    H280567   0.743   2.945  12.111  1.5777  0.1329  0.4172
19718TIP3   OH280568   6.709   0.839   2.926  0.0638 -0.3703  0.4002
19718TIP3    H180569   6.621   0.803   2.916  0.7189 -1.9152 -0.2264
19718TIP3    H280570   6.761   0.795   2.858  1.0857  1.3448  0.0060
19719TIP3   OH280571   0.747   4.680   3.136  0.2187 -0.0265  0.3023
19719TIP3    H180572   0.655   4.683   3.163  0.2866 -0.7366  0.6275
19719TIP3    H280573   0.776   4.591   3.158  1.2094  0.4445  0.9796
19720TIP3   OH280574   0.361   2.848   0.990  0.8209 -0.1851  0.1688
19720TIP3    H180575   0.371   2.912   1.061  1.7754  0.9427 -0.9327
19720TIP3    H280576   0.342   2.901   0.913 -1.3544 -1.4662 -0.2449
19721TIP3   OH280577   6.120   2.342   4.927  0.0646 -0.9077 -0.6070
19721TIP3    H180578   6.051   2.393   4.968  1.5116 -0.1860  1.0524
19721TIP3    H280579   6.198   2.398   4.931  1.3569 -2.6302 -0.0801
19722TIP3   OH280580   1.398   6.529   2.946 -0.3710 -0.7436  0.4820
19722TIP3    H180581   1.417   6.491   2.860  0.5634 -0.5259  0.5743
19722TIP3    H280582   1.457   6.483   3.005  0.1420  0.2158  0.7361
19723TIP3   OH280583   3.104   1.072  16.017 -0.1514  0.4124 -0.0201
19723TIP3    H180584   3.038   1.010  15.986  0.5984  0.0137 -0.8827
19723TIP3    H280585   3.103   1.143  15.953  0.6647  0.1048 -0.3933
19724TIP3   OH280586   1.118   1.659   1.273 -0.0077 -1.0938  0.1657
19724TIP3    H180587   1.133   1.567   1.294  0.3920 -0.8168  1.1338
19724TIP3    H280588   1.177   1.707   1.331 -0.0979 -0.2294 -0.4402
19725TIP3   OH280589   4.194   0.382  14.778 -0.5673 -0.4239  0.4730
19725TIP3    H180590   4.266   0.436  14.809  0.4247 -1.8051  0.6789
19725TIP3    H280591   4.237   0.309  14.733 -1.8843 -0.3774 -0.9374
19726TIP3   OH280592   3.235   1.467   2.763  0.2599  0.1737  0.0804
19726TIP3    H180593   3.195   1.528   2.700  1.4180  1.2724  0.3608
19726TIP3    H280594   3.226   1.381   2.722 -0.4631  0.6631 -0.8322
19727TIP3   OH280595   6.692   4.707  15.842  0.0134  0.2941  0.0306
19727TIP3    H180596   6.634   4.709  15.766  0.7307 -2.7058 -0.7079
19727TIP3    H280597   6.770   4.755  15.815 -1.0813  2.3268  0.2221
19728TIP3   OH280598   2.410   0.470   4.259 -0.1157 -0.1272  0.4129
19728TIP3    H180599   2.475   0.535   4.233  0.3358 -0.9411 -0.5704
19728TIP3    H280600   2.449   0.427   4.336  0.5648 -0.6644 -0.2155
19729TIP3   OH280601   6.274   5.912  15.025 -0.4145  0.6310  0.1572
19729TIP3    H180602   6.348   5.854  15.043 -1.7342 -2.2233 -2.6979
19729TIP3    H280603   6.297   5.957  14.944 -1.3807  0.3794 -0.2779
19730TIP3   OH280604   4.070   5.821  14.118  0.0614 -0.5672  0.9454
19730TIP3    H180605   4.147   5.786  14.163 -0.1890 -0.4412  1.4830
19730TIP3    H280606   4.014   5.745  14.104  2.2566 -1.6784 -3.7689
19731TIP3   OH280607   1.701   6.269   4.696 -0.0191 -0.2798  0.0275
19731TIP3    H180608   1.765   6.277   4.767  0.6403 -2.5926 -0.2190
19731TIP3    H280609   1.616   6.280   4.739  0.3184  4.7329  0.1037
19732TIP3   OH280610   3.468   6.348  14.679  0.1087 -0.4768  0.4635
19732TIP3    H180611   3.491   6.358  14.587 -0.7587  0.5784  0.3334
19732TIP3    H280612   3.481   6.255  14.698  0.3685 -0.6871 -0.6939
19733TIP3   OH280613   4.157   5.350  16.969  1.2605 -0.0188  0.3670
19733TIP3    H180614   4.168   5.259  16.997  0.4801  0.1330  1.1884
19733TIP3    H280615   4.231   5.366  16.910  1.0894 -1.3592 -0.2469
19734TIP3   OH280616   3.264   5.753  14.412  0.1080 -0.4901 -0.3749
19734TIP3    H180617   3.201   5.720  14.348  0.3973 -0.3706 -0.7296
19734TIP3    H280618   3.320   5.813  14.362  1.8522 -2.1975 -0.5972
19735TIP3   OH280619   6.704   1.100  10.297  0.2995  0.1754 -0.2819
19735TIP3    H180620   6.783   1.153  10.295 -0.1548  0.8622 -1.6608
19735TIP3    H280621   6.648   1.143  10.361  1.1130 -0.4591  0.8839
19736TIP3   OH280622   1.374   6.009   5.512  0.2341 -1.0044 -0.3151
19736TIP3    H180623   1.332   6.069   5.450  0.9825  0.9297  0.9501
19736TIP3    H280624   1.316   6.010   5.589  1.4690  0.0454  0.6359
19737TIP3   OH280625   2.901   5.841  11.703 -0.3441 -0.0191 -0.0781
19737TIP3    H180626   2.912   5.899  11.778  0.4303  1.5456 -1.3512
19737TIP3    H280627   2.912   5.753  11.739 -0.4247  0.6726  1.7049
19738TIP3   OH280628   2.479   5.601  17.195  0.3575  0.5230 -0.6383
19738TIP3    H180629   2.404   5.624  17.249  0.9815  1.2288 -0.0638
19738TIP3    H280630   2.502   5.682  17.150 -0.0624 -0.0155 -1.8745
19739TIP3   OH280631   6.357   0.608   0.991 -0.5759 -0.3373  0.1701
19739TIP3    H180632   6.299   0.539   0.957  0.3116 -1.7423  1.3873
19739TIP3    H280633   6.302   0.686   0.993 -1.0849 -0.4209 -3.1688
19740TIP3   OH280634   6.698   0.239   3.506  0.0257  0.0420 -0.0224
19740TIP3    H180635   6.609   0.255   3.537  0.0366  1.8335 -0.7886
19740TIP3    H280636   6.691   0.244   3.411  1.3773  3.2345 -0.0694
19741TIP3   OH280637   5.775   6.771  16.149 -0.7242  0.0202  0.7255
19741TIP3    H180638   5.757   6.717  16.226 -0.9935  0.5724  1.0586
19741TIP3    H280639   5.821   6.713  16.089 -2.3765 -1.0263  0.4242
19742TIP3   OH280640   3.540   5.244   2.716 -0.4251 -0.5979  0.0745
19742TIP3    H180641   3.573   5.327   2.749  0.3498 -0.1260 -1.7269
19742TIP3    H280642   3.607   5.180   2.739 -1.4575 -0.9628  2.2939
19743TIP3   OH280643   4.583   4.516  17.170  0.7583  0.5026  0.3775
19743TIP3    H180644   4.549   4.427  17.179  3.9139 -0.6427  2.5149
19743TIP3    H280645   4.675   4.510  17.195  1.5302  4.1314 -0.8974
19744TIP3   OH280646   2.066   3.539  11.440  0.1900  0.0605  0.2518
19744TIP3    H180647   2.154   3.566  11.469  0.4343  0.8929 -1.1577
19744TIP3    H280648   2.083   3.480  11.366 -0.4299  0.0852  0.0891
19745TIP3   OH280649   1.376   5.300  16.269 -0.0311 -0.2888  0.3605
19745TIP3    H180650   1.283   5.278  16.261  0.1040 -0.5578 -0.6885
19745TIP3    H280651   1.394   5.355  16.192 -0.1168  2.7268  2.3193
19746TIP3   OH280652   4.423   3.331  14.224  0.3117  0.2012  0.2163
19746TIP3    H180653   4.501   3.363  14.180  1.7010 -1.5153  1.3193
19746TIP3    H280654   4.419   3.382  14.305 -0.3198  0.9921 -0.2968
19747TIP3   OH280655   5.676   0.141  14.660  0.2330  0.2106  0.8109
19747TIP3    H180656   5.619   0.212  14.633  0.6969  0.5394  0.6958
19747TIP3    H280657   5.734   0.127  14.586 -0.5853 -1.0595  0.3740
19748TIP3   OH280658   2.308   4.374   1.400  0.5802 -0.0954  0.2895
19748TIP3    H180659   2.234   4.435   1.397  0.1937 -0.6082 -1.2008
19748TIP3    H280660   2.325   4.362   1.494 -1.4645 -0.2580  0.6827
19749TIP3   OH280661   1.312   2.541  14.128  0.1575  0.0062 -0.2446
19749TIP3    H180662   1.247   2.523  14.195 -1.3988  1.0229 -1.4093
19749TIP3    H280663   1.396   2.527  14.171 -0.8033 -0.0348  1.6977
19750TIP3   OH280664   5.828   6.719  16.695  0.3185  0.2525 -0.3786
19750TIP3    H180665   5.827   6.624  16.711 -2.1876 -0.4135 -3.3092
19750TIP3    H280666   5.866   6.727  16.607  0.6154  2.0152 -0.1133
19751TIP3   OH280667   6.386   5.434  15.946  0.0772 -0.0038 -0.0877
19751TIP3    H180668   6.297   5.437  15.979  0.1531  1.1087  0.0536
19751TIP3    H280669   6.384   5.367  15.878 -0.2129 -1.9126  1.7299
19752TIP3   OH280670   4.234   4.101  16.665 -0.0637 -0.6722 -0.0233
19752TIP3    H180671   4.322   4.128  16.693 -0.3927  2.3676 -1.5329
19752TIP3    H280672   4.175   4.163  16.707 -1.2989 -1.2160 -0.8872
19753TIP3   OH280673   5.513   6.034   2.649  0.2023  0.6034 -0.3443
19753TIP3    H180674   5.596   6.080   2.656 -0.2007  1.1580  1.1629
19753TIP3    H280675   5.533   5.958   2.595  1.7885  0.5328  0.2687
19754TIP3   OH280676   0.421   1.143  11.875  0.1349 -0.1504 -0.1516
19754TIP3    H180677   0.393   1.230  11.845 -0.3503 -0.3585 -0.3212
19754TIP3    H280678   0.344   1.108  11.921  0.5775 -0.1902  0.5754
19755TIP3   OH280679   1.800   4.414   3.559 -0.0184 -0.1944  0.1245
19755TIP3    H180680   1.839   4.476   3.622  1.1731  0.7088 -1.4172
19755TIP3    H280681   1.770   4.341   3.613  0.1519  0.9277  1.8304
19756TIP3   OH280682   6.572   5.178   3.890  0.9564  0.2350  0.6946
19756TIP3    H180683   6.483   5.209   3.878 -0.2534 -2.5440  1.6889
19756TIP3    H280684   6.614   5.244   3.944 -1.5065  0.1255  2.9061
19757TIP3   OH280685   2.567   2.345  14.341 -0.0231  0.6170 -0.3220
19757TIP3    H180686   2.501   2.379  14.402 -0.3227 -0.4312 -0.0265
19757TIP3    H280687   2.517   2.307  14.270  0.2181 -0.5747  0.1116
19758TIP3   OH280688   4.737   1.813  17.201 -0.4213  0.0087  0.2652
19758TIP3    H180689   4.733   1.733  17.148 -0.6513  0.2741 -0.1267
19758TIP3    H280690   4.684   1.793  17.278  1.5728 -1.1071  1.4335
19759TIP3   OH280691   5.932   5.934   0.033  0.2483 -0.1244 -0.8366
19759TIP3    H180692   5.871   5.878   0.082  0.8663 -0.5330 -0.5190
19759TIP3    H280693   5.893   6.021   0.037 -0.1121 -0.3050 -0.2975
19760TIP3   OH280694   5.492   3.878   4.165 -0.4496  0.3252 -0.2427
19760TIP3    H180695   5.561   3.888   4.230 -0.2471  2.1810 -0.7094
19760TIP3    H280696   5.536   3.888   4.080 -1.1737  0.8360 -0.5707
19761TIP3   OH280697   6.607   5.051   5.790 -0.0557 -0.2909 -0.7781
19761TIP3    H180698   6.555   4.976   5.762 -1.0650 -0.2743  0.9435
19761TIP3    H280699   6.555   5.127   5.765 -0.7807 -0.2694  0.6944
19762TIP3   OH280700   5.417   0.692   4.231  0.2355 -0.2819 -0.1354
19762TIP3    H180701   5.422   0.621   4.296  1.4067  1.1470  1.4000
19762TIP3    H280702   5.327   0.687   4.198  0.1082 -2.0955  0.3380
19763TIP3   OH280703   0.094   3.315  12.629  0.5776 -0.5067 -0.0173
19763TIP3    H180704   0.036   3.390  12.625  0.6103 -0.4805 -0.0015
19763TIP3    H280705   0.097   3.291  12.721  0.5796 -0.5177 -0.0202
19764TIP3   OH280706   3.976   0.604  13.215  0.3428 -0.2796  0.1359
19764TIP3    H180707   4.004   0.655  13.291  0.4979 -0.6335  0.3155
19764TIP3    H280708   3.884   0.584  13.232  0.5404 -0.8748  0.5173
19765TIP3   OH280709   6.165   5.429   1.351  0.3658  0.8927 -0.6269
19765TIP3    H180710   6.217   5.442   1.430  0.4109  1.1987 -0.7045
19765TIP3    H280711   6.074   5.443   1.379  0.2767 -0.0827 -0.3939
19766TIP3   OH280712   5.299   1.272  12.288  0.0291 -0.6488 -0.7526
19766TIP3    H180713   5.382   1.259  12.242  1.0066  2.6689 -0.2077
19766TIP3    H280714   5.247   1.327  12.230 -0.9885 -1.0083 -0.2123
19767TIP3   OH280715   6.247   2.667  16.996  0.2365  0.1042  0.2793
19767TIP3    H180716   6.278   2.747  17.038 -0.7326  0.6265  0.0233
19767TIP3    H280717   6.327   2.621  16.970  0.8135  0.6047  1.1271
19768TIP3   OH280718   5.401   6.545  12.024  0.0739 -0.2179 -0.0005
19768TIP3    H180719   5.450   6.624  12.003 -0.2821 -0.4753 -2.0041
19768TIP3    H280720   5.318   6.576  12.061 -0.5115  0.4236 -1.7589
19769TIP3   OH280721   2.074   5.871   3.341 -0.1794 -0.4137  0.1698
19769TIP3    H180722   2.039   5.955   3.311  0.7347 -0.7050 -1.9473
19769TIP3    H280723   2.106   5.888   3.429 -0.5256  1.3106  0.0052
19770TIP3   OH280724   4.632   2.282  16.711  0.0150  0.0410  0.5526
19770TIP3    H180725   4.688   2.340  16.763  0.0961  0.8979 -0.4647
19770TIP3    H280726   4.583   2.340  16.654 -0.0134 -0.8792 -0.4010
19771TIP3   OH280727   3.847   1.488   4.271  0.2614  0.2043 -0.1153
19771TIP3    H180728   3.843   1.417   4.334  1.7618  1.0364  0.9751
19771TIP3    H280729   3.807   1.563   4.316  0.3939  0.5400 -0.5457
19772TIP3   OH280730   4.146   5.799   1.801  0.9425  0.1758 -0.0705
19772TIP3    H180731   4.133   5.707   1.776 -1.0644  0.6878 -1.1352
19772TIP3    H280732   4.236   5.818   1.774  0.9025 -1.0679 -1.2118
19773TIP3   OH280733   4.897   3.986   2.975 -0.3605  0.4923 -0.2604
19773TIP3    H180734   4.851   4.055   2.927  0.2865  1.5793  0.6321
19773TIP3    H280735   4.855   3.984   3.061  1.1260  1.4548  0.5477
19774TIP3   OH280736   2.231   3.164  16.067 -0.0038  0.2408 -0.1828
19774TIP3    H180737   2.170   3.210  16.009 -1.5794  0.1376  1.3134
19774TIP3    H280738   2.318   3.185  16.032 -0.8770 -1.3897 -3.7203
19775TIP3   OH280739   2.656   5.349  11.616 -0.3108 -0.3003  0.4600
19775TIP3    H180740   2.621   5.396  11.692 -2.0218 -3.0090  1.5151
19775TIP3    H280741   2.589   5.362  11.548  1.0706  1.8608 -0.5983
19776TIP3   OH280742   2.920   4.647  11.997 -0.4763  0.3453  0.2765
19776TIP3    H180743   2.973   4.719  12.031  1.2182 -0.1227 -1.1804
19776TIP3    H280744   2.831   4.665  12.028  0.0574  2.5603  0.6946
19777TIP3   OH280745   1.622   3.793   2.505 -0.5006 -0.3775 -0.3635
19777TIP3    H180746   1.654   3.748   2.427  0.2075 -1.3396  0.4508
19777TIP3    H280747   1.688   3.860   2.523 -1.3253  0.7198 -1.3167
19778TIP3   OH280748   2.549   1.419  10.483  0.3070 -0.4918 -0.0656
19778TIP3    H180749   2.564   1.405  10.576 -0.1698  0.7461  0.2128
19778TIP3    H280750   2.637   1.410  10.444  0.5477 -0.7692  0.5208
19779TIP3   OH280751   1.445   4.400  13.492  0.0195  0.1601 -0.3133
19779TIP3    H180752   1.425   4.359  13.576 -0.3294 -1.9835 -1.3745
19779TIP3    H280753   1.369   4.382  13.437  1.1927 -0.5911 -1.7963
19780TIP3   OH280754   4.826   2.524   0.803 -0.0621 -0.3873 -0.1235
19780TIP3    H180755   4.855   2.555   0.718 -1.1286  1.8336  0.2452
19780TIP3    H280756   4.765   2.452   0.784  0.1556 -0.2921 -1.1930
19781TIP3   OH280757   2.126   5.751   3.005  0.8193 -0.2350 -0.7379
19781TIP3    H180758   2.186   5.729   3.077  0.0376  1.4694  0.5357
19781TIP3    H280759   2.040   5.722   3.036 -0.1166  3.4270  0.6737
19782TIP3   OH280760   4.638   5.665  14.400 -0.1999  0.2668  0.6199
19782TIP3    H180761   4.556   5.635  14.362  0.1957 -1.5272  1.1046
19782TIP3    H280762   4.621   5.756  14.425 -1.7739  0.1667 -0.0116
19783TIP3   OH280763   5.572   4.286   5.297  0.0109  0.8388  0.1270
19783TIP3    H180764   5.581   4.354   5.363 -1.7170  1.4002 -0.1673
19783TIP3    H280765   5.651   4.294   5.244  0.8493  1.1682  1.4026
19784TIP3   OH280766   0.120   5.488  14.771  0.3765 -0.1371  0.3358
19784TIP3    H180767   0.137   5.436  14.693 -0.6763  1.4158 -0.9972
19784TIP3    H280768   0.028   5.472  14.792 -0.4463  2.2099 -1.0268
19785TIP3   OH280769   0.001   3.674   5.050 -0.1861 -0.0154  0.6535
19785TIP3    H180770   0.073   3.712   4.999  0.0828 -1.8555 -0.4589
19785TIP3    H280771   0.004   3.719   5.134  0.6674  1.6928 -0.2557
19786TIP3   OH280772   4.905   6.062  13.238 -0.5293 -0.2272  0.6911
19786TIP3    H180773   4.912   6.058  13.334 -0.3445 -0.2685  0.6772
19786TIP3    H280774   4.830   6.120  13.222 -0.2933  0.1321  0.8586
19787TIP3   OH280775   5.177   3.660  15.261 -0.1962 -0.1152 -0.4220
19787TIP3    H180776   5.150   3.575  15.296  0.5496  0.0473  0.6166
19787TIP3    H280777   5.215   3.640  15.175  2.8620 -1.3445  1.0457
19788TIP3   OH280778   4.745   0.013   2.273 -0.3831 -0.1046 -0.3206
19788TIP3    H180779   4.791   0.004   2.357  0.3568 -1.4312 -0.8336
19788TIP3    H280780   4.654   0.027   2.297  0.3070  3.6837  0.7582
19789TIP3   OH280781   2.270   6.048   5.307  0.5162 -0.7487 -0.0091
19789TIP3    H180782   2.335   6.102   5.351 -0.1235 -0.4095  0.5478
19789TIP3    H280783   2.207   6.026   5.375 -0.7165  0.1250 -0.8092
19790TIP3   OH280784   2.741   3.584   3.851 -0.3219 -0.2943 -0.4732
19790TIP3    H180785   2.749   3.491   3.870  3.6522 -0.5553 -2.4311
19790TIP3    H280786   2.705   3.586   3.762  1.1892 -0.1054 -1.1050
19791TIP3   OH280787   5.295   6.035  13.376 -0.7014  0.1061  0.5667
19791TIP3    H180788   5.301   6.126  13.348  0.7704  0.0007  0.4706
19791TIP3    H280789   5.272   5.986  13.297 -0.0318  0.2205  0.3016
19792TIP3   OH280790   6.522   3.262  11.569 -0.5328  0.0222  0.0927
19792TIP3    H180791   6.535   3.355  11.549 -3.2101  0.3527 -0.4876
19792TIP3    H280792   6.551   3.253  11.659  0.2170  1.3071  0.0082
19793TIP3   OH280793   6.542   1.993   3.990  0.1936  0.2427 -0.1053
19793TIP3    H180794   6.544   2.017   4.082  0.7909 -1.2479  0.3057
19793TIP3    H280795   6.601   1.918   3.984 -1.1967 -0.8076 -1.3650
19794TIP3   OH280796   2.701   6.116  13.826  0.1118  0.4432 -0.1538
19794TIP3    H180797   2.685   6.099  13.918 -1.5997  0.0462 -0.4792
19794TIP3    H280798   2.760   6.047  13.798  1.7699  1.3620  0.9181
19795TIP3   OH280799   0.255   3.221  10.715  0.2662 -0.2763  0.1942
19795TIP3    H180800   0.294   3.297  10.670 -1.8513  1.7858  1.6035
19795TIP3    H280801   0.171   3.208  10.671 -1.2439  0.9297  2.5147
19796TIP3   OH280802   0.655   3.842  12.326 -0.6386  0.3969 -0.1381
19796TIP3    H180803   0.605   3.771  12.287  1.0690 -0.2133 -1.3726
19796TIP3    H280804   0.702   3.882  12.253 -0.2853  1.7284  0.7684
19797TIP3   OH280805   4.649   3.847  16.771  0.5805  0.4227 -0.3588
19797TIP3    H180806   4.733   3.813  16.741  0.8222 -1.5868  2.1554
19797TIP3    H280807   4.599   3.768  16.794 -1.5084  1.6211 -0.5922
19798TIP3   OH280808   1.758   1.392   0.182 -0.2916  0.4923  0.1050
19798TIP3    H180809   1.708   1.460   0.227 -0.6867 -0.5074  1.2300
19798TIP3    H280810   1.713   1.380   0.098 -0.7027  1.0460  0.2448
19799TIP3   OH280811   6.410   4.082  14.600  0.3206  0.4253  0.1748
19799TIP3    H180812   6.382   4.002  14.555 -1.3563  1.0241  0.0822
19799TIP3    H280813   6.467   4.051  14.671  3.2843 -0.5530 -2.3619
19800TIP3   OH280814   5.514   2.549  12.680 -0.1602  0.1002 -0.3045
19800TIP3    H180815   5.560   2.614  12.733  2.0870 -0.6052 -1.2847
19800TIP3    H280816   5.475   2.600  12.609  1.0460  0.5006 -0.7102
19801TIP3   OH280817   4.840   3.927   5.485  0.0590  0.0010 -0.1977
19801TIP3    H180818   4.907   3.902   5.548  0.2727  0.9179 -0.0429
19801TIP3    H280819   4.856   4.020   5.468 -0.1795 -0.1466 -1.3700
19802TIP3   OH280820   0.516   2.706   0.143  0.5166 -0.5154  0.6099
19802TIP3    H180821   0.557   2.727   0.060 -2.7217  0.8662 -0.8344
19802TIP3    H280822   0.454   2.636   0.122 -1.2480  0.6990  1.4924
19803TIP3   OH280823   3.325   2.018  16.119 -0.4128 -0.3028 -0.3919
19803TIP3    H180824   3.310   2.001  16.026  0.0594 -3.2201 -0.0346
19803TIP3    H280825   3.415   1.989  16.135 -0.5996 -0.2030  1.0323
19804TIP3   OH280826   6.339   0.811   2.534  0.2651 -0.1307  0.4291
19804TIP3    H180827   6.316   0.783   2.446  0.3834 -0.0104  0.3586
19804TIP3    H280828   6.345   0.730   2.585  2.0792 -0.3966 -0.1263
19805TIP3   OH280829   3.161   6.388  15.172  0.2283 -0.3536 -0.6146
19805TIP3    H180830   3.145   6.296  15.191 -1.8512  0.1008  0.1108
19805TIP3    H280831   3.096   6.411  15.106  0.6677  0.6216 -0.7300
19806TIP3   OH280832   4.276   0.217   6.302 -0.1618  0.3595 -0.3767
19806TIP3    H180833   4.297   0.299   6.346 -2.5846  1.0644 -0.3759
19806TIP3    H280834   4.231   0.243   6.221  2.6240 -0.9377 -2.5044
19807TIP3   OH280835   2.803   3.766   4.063  0.3142  0.3859  0.0455
19807TIP3    H180836   2.773   3.762   3.972 -0.7447 -1.4032  0.4147
19807TIP3    H280837   2.745   3.831   4.104 -0.7340 -0.4359 -0.0782
19808TIP3   OH280838   3.917   4.440   3.989  0.1205 -0.2230 -0.0450
19808TIP3    H180839   3.996   4.493   3.999 -0.1507  0.2541 -0.3907
19808TIP3    H280840   3.924   4.374   4.058  0.9015 -0.2933 -0.1831
19809TIP3   OH280841   1.994   0.202   4.996  0.0814  0.6410 -0.0503
19809TIP3    H180842   1.976   0.195   5.090  1.7923 -0.4100  0.2494
19809TIP3    H280843   1.913   0.175   4.954 -1.1707  2.4410  1.0763
19810TIP3   OH280844   6.575   0.779   5.609  0.0108  0.4620 -0.4290
19810TIP3    H180845   6.590   0.712   5.675  0.3940  0.9912  0.0282
19810TIP3    H280846   6.540   0.731   5.534 -3.3032  0.1875  1.1145
19811TIP3   OH280847   3.140   5.769  12.135 -0.0387  0.4560  0.0540
19811TIP3    H180848   3.141   5.798  12.044  4.3992 -0.7707 -0.5095
19811TIP3    H280849   3.188   5.837  12.182  0.4124 -0.4330  0.9010
19812TIP3   OH280850   3.234   0.347  11.324  0.4598  0.5280 -0.0442
19812TIP3    H180851   3.187   0.428  11.305  1.3921  0.8339 -1.1296
19812TIP3    H280852   3.307   0.347  11.263 -0.0961 -1.6341 -0.7786
19813TIP3   OH280853   4.844   3.138   5.691 -0.5323 -0.1228  0.0066
19813TIP3    H180854   4.789   3.214   5.710 -0.2728 -0.0399  0.4455
19813TIP3    H280855   4.785   3.063   5.700 -1.0391  0.0725 -1.4315
19814TIP3   OH280856   0.235   6.371  16.470  0.3885 -0.1047 -0.0002
19814TIP3    H180857   0.253   6.448  16.524 -1.3048 -0.5210  1.2202
19814TIP3    H280858   0.321   6.346  16.436  1.5151  0.2948  2.3386
19815TIP3   OH280859   5.229   1.584  11.319  0.3972  0.1423  0.0434
19815TIP3    H180860   5.229   1.660  11.378 -0.3047  0.1174  0.0848
19815TIP3    H280861   5.155   1.600  11.260  1.5008  0.5067 -1.2919
19816TIP3   OH280862   2.924   0.303   4.688  0.5573  0.0008  0.0001
19816TIP3    H180863   2.913   0.398   4.697 -0.2811 -0.2397  2.1768
19816TIP3    H280864   3.012   0.286   4.721  0.6928  0.0056 -0.3531
19817TIP3   OH280865   1.262   3.469   5.053  0.0610  0.4183  0.3023
19817TIP3    H180866   1.246   3.510   5.138  1.8385  0.1543  0.7916
19817TIP3    H280867   1.181   3.484   5.005 -0.8689  0.8776  1.9107
19818TIP3   OH280868   3.287   2.373  13.186 -0.5772 -0.3516  0.4596
19818TIP3    H180869   3.200   2.341  13.210 -1.5705  2.4511  0.9193
19818TIP3    H280870   3.287   2.466  13.210  2.1584  0.0268 -0.5731
19819TIP3   OH280871   1.469   0.912  11.571 -0.4176 -0.2583  0.5496
19819TIP3    H180872   1.382   0.880  11.550 -0.5476  0.4450 -0.0177
19819TIP3    H280873   1.528   0.845  11.538 -0.7161 -0.3006  0.0958
19820TIP3   OH280874   2.662   5.340   1.212 -0.0167  0.6209 -0.6977
19820TIP3    H180875   2.589   5.401   1.226 -0.1157  0.3360  0.0317
19820TIP3    H280876   2.661   5.324   1.118 -1.0836  0.3900 -0.6623
19821TIP3   OH280877   3.082   2.384  11.991 -0.3050  0.3195 -0.5928
19821TIP3    H180878   3.149   2.453  11.994  0.3808 -0.3541  0.9652
19821TIP3    H280879   3.015   2.415  12.053 -0.5355  0.1207 -0.7453
19822TIP3   OH280880   0.438   4.429   2.041  0.2928 -0.1859  0.3128
19822TIP3    H180881   0.439   4.523   2.020  1.1205 -0.5663 -1.4994
19822TIP3    H280882   0.370   4.393   1.984 -0.8522 -0.5400  1.8535
19823TIP3   OH280883   4.970   3.069   1.161 -0.0061 -0.3690 -0.2680
19823TIP3    H180884   4.905   3.095   1.096  1.8900  1.5373 -1.5602
19823TIP3    H280885   4.988   3.149   1.210  1.0756 -0.9189  0.2838
19824TIP3   OH280886   5.740   6.471   0.458  0.4305 -0.2521  0.0763
19824TIP3    H180887   5.817   6.479   0.513  1.3707  0.3107 -1.2755
19824TIP3    H280888   5.670   6.514   0.508  0.7608 -1.4977  1.6808
19825TIP3   OH280889   3.188   5.783  14.824  0.0961 -0.0598  0.0066
19825TIP3    H180890   3.211   5.859  14.771 -0.4667  0.4725  0.5091
19825TIP3    H280891   3.237   5.794  14.905  0.6774 -0.6862 -0.2488
19826TIP3   OH280892   0.583   0.057   0.484 -0.2369 -1.2146  0.7308
19826TIP3    H180893   0.595   0.079   0.392  1.0135 -0.3894  1.0594
19826TIP3    H280894   0.500   0.010   0.487  0.7273 -3.2225 -1.1390
19827TIP3   OH280895   5.596   5.750   3.215 -0.4461  0.4754  0.3215
19827TIP3    H180896   5.577   5.673   3.268  0.6851  0.1431  0.2838
19827TIP3    H280897   5.601   5.717   3.125  0.4574  0.4907  0.3514
19828TIP3   OH280898   6.662   0.939   4.999  0.2072  0.2200 -0.2304
19828TIP3    H180899   6.642   0.895   5.082  0.9649  0.1484 -0.0778
19828TIP3    H280900   6.755   0.922   4.985  0.4412  1.4822 -0.3388
19829TIP3   OH280901   2.756   1.308   1.628 -0.1863 -0.1765  0.2828
19829TIP3    H180902   2.807   1.322   1.707 -0.7819 -2.3330  1.1430
19829TIP3    H280903   2.665   1.320   1.656 -0.3177  0.5904 -0.4642
19830TIP3   OH280904   2.167   2.522  17.291  0.1519 -0.0703  0.7036
19830TIP3    H180905   2.215   2.511  17.209 -1.6203 -1.7595 -0.1858
19830TIP3    H280906   2.133   2.612  17.287  0.9062  0.1946  0.0564
19831TIP3   OH280907   5.993   3.792   3.638  0.0437 -0.8094  0.9771
19831TIP3    H180908   5.929   3.854   3.603  0.0541 -0.8029  0.9696
19831TIP3    H280909   5.950   3.753   3.714 -0.6593 -2.0390 -0.0145
19832TIP3   OH280910   1.409   0.505  14.328  0.2438 -0.0125 -0.7438
19832TIP3    H180911   1.363   0.437  14.277  0.2201  0.5563 -1.5113
19832TIP3    H280912   1.501   0.479  14.325 -0.0468 -1.4656  1.2780
19833TIP3   OH280913   2.373   1.761   1.581 -0.4942 -0.3664  0.3620
19833TIP3    H180914   2.359   1.817   1.658  0.5515  1.6202 -0.8013
19833TIP3    H280915   2.446   1.802   1.534 -0.2609 -2.2376 -1.0582
19834TIP3   OH280916   0.626   0.087  13.045 -0.2388  0.2210 -0.2519
19834TIP3    H180917   0.640  -0.007  13.060 -0.1968  0.4546  1.2485
19834TIP3    H280918   0.638   0.127  13.131  0.5996  1.7157 -1.0391
19835TIP3   OH280919   1.684   0.224  17.090  0.0646  0.0748 -0.0173
19835TIP3    H180920   1.749   0.294  17.086 -0.1787  0.2978 -0.1008
19835TIP3    H280921   1.734   0.145  17.109  0.5731 -0.0273 -1.6163
19836TIP3   OH280922   4.751   2.032   3.334 -0.3195 -0.1583 -0.3772
19836TIP3    H180923   4.818   2.096   3.307  0.8336 -0.7671  0.8630
19836TIP3    H280924   4.672   2.084   3.348  0.6798  1.1098  0.9232
19837TIP3   OH280925   6.173   3.317   5.399  0.3783 -0.0966 -0.1054
19837TIP3    H180926   6.216   3.390   5.355  1.4346 -1.1678 -0.9240
19837TIP3    H280927   6.233   3.291   5.469 -0.0239 -0.1286  0.2322
19838TIP3   OH280928   6.038   0.401  15.168  0.2011 -0.0540 -0.1576
19838TIP3    H180929   5.990   0.483  15.178  0.3886  0.0276  0.0758
19838TIP3    H280930   6.128   0.423  15.192  0.1496 -0.4570  0.4208
19839TIP3   OH280931   5.558   3.010   5.560  0.4638  0.5888  0.0547
19839TIP3    H180932   5.559   2.977   5.470 -0.4595  2.2888 -0.6370
19839TIP3    H280933   5.646   3.045   5.573  0.4653  0.7537 -0.3701
19840TIP3   OH280934   1.081   3.675  16.671 -0.1698  0.0241 -0.0812
19840TIP3    H180935   1.068   3.580  16.677  1.3425 -0.1267  1.2005
19840TIP3    H280936   0.993   3.711  16.678 -0.5844 -1.2040  1.6718
19841TIP3   OH280937   6.365   6.125   0.129  0.3579 -0.4234 -0.0539
19841TIP3    H180938   6.434   6.060   0.117 -0.8784 -1.7020 -0.6037
19841TIP3    H280939   6.290   6.074   0.162 -1.3060  0.3029 -2.4520
19842TIP3   OH280940   3.663   0.581  11.847 -0.1127 -0.2417 -0.0449
19842TIP3    H180941   3.710   0.663  11.856 -0.9991  0.2048  0.6648
19842TIP3    H280942   3.730   0.517  11.824  0.7445  0.4863  0.3888
19843TIP3   OH280943   6.287   6.571   2.576 -0.2211  0.3209  0.0108
19843TIP3    H180944   6.257   6.646   2.525  0.6571  0.6364 -0.0509
19843TIP3    H280945   6.380   6.562   2.554 -0.5521 -1.4651 -0.8106
19844TIP3   OH280946   0.168   5.106   5.963  0.4395  0.1240 -0.0275
19844TIP3    H180947   0.156   5.167   5.890  2.2198  0.1412 -0.3387
19844TIP3    H280948   0.263   5.096   5.971  0.2271 -1.2952  1.1249
19845TIP3   OH280949   6.355   1.743   5.372 -0.3570 -0.0756  0.7717
19845TIP3    H180950   6.371   1.745   5.277 -0.8346  0.0327  0.6930
19845TIP3    H280951   6.373   1.832   5.401 -1.2359  0.1643  0.6101
19846TIP3   OH280952   1.776   0.531  11.805 -0.1673 -0.1928  0.1541
19846TIP3    H180953   1.703   0.557  11.861  0.2413  0.7303  0.2767
19846TIP3    H280954   1.763   0.437  11.790 -2.0884  0.1705 -0.8477
19847TIP3   OH280955   6.323   0.010  12.704  0.1770 -0.6231 -0.5286
19847TIP3    H180956   6.397  -0.010  12.761  1.8545  0.9735 -2.0035
19847TIP3    H280957   6.262  -0.062  12.718  1.4291 -1.3379  1.7018
19848TIP3   OH280958   2.285   4.020  11.627 -0.7600 -0.2827 -0.4131
19848TIP3    H180959   2.342   4.040  11.553  2.1255 -1.2960  1.3778
19848TIP3    H280960   2.211   4.081  11.618  0.7068  1.2967 -2.7370
19849TIP3   OH280961   2.868   0.162   4.470  0.8585 -0.0685  0.5037
19849TIP3    H180962   2.877   0.221   4.545 -3.1181  0.1623  1.0138
19849TIP3    H280963   2.825   0.084   4.506  1.7956 -1.3507 -1.0142
19850TIP3   OH280964   4.972   4.929  14.983 -0.5532 -0.0322  0.3509
19850TIP3    H180965   4.915   4.998  15.017 -3.3270 -0.9676 -1.9872
19850TIP3    H280966   4.942   4.849  15.026 -1.8689 -0.7082 -1.7059
19851TIP3   OH280967   4.409   6.269  16.404  0.7593 -0.2501 -0.1622
19851TIP3    H180968   4.493   6.245  16.365  1.6291 -0.3764  1.6857
19851TIP3    H280969   4.349   6.199  16.378  1.0920  0.0255 -1.8050
19852TIP3   OH280970   5.760   3.822  12.326  0.2134  0.3110 -0.4803
19852TIP3    H180971   5.792   3.905  12.291 -1.0558  1.4705  0.9357
19852TIP3    H280972   5.787   3.822  12.417  0.4896 -1.0164 -0.5399
19853TIP3   OH280973   1.444   1.744  17.176  0.1555  0.0441  1.3011
19853TIP3    H180974   1.441   1.732  17.081 -0.4956  1.9834  1.0151
19853TIP3    H280975   1.383   1.679  17.210  0.2311 -0.5346  0.3789
19854TIP3   OH280976   4.932   1.187   4.476  0.4237  0.1623 -0.4441
19854TIP3    H180977   4.997   1.166   4.542  1.4383 -0.5069 -1.6049
19854TIP3    H280978   4.963   1.268   4.435 -0.2975  0.6798  0.0146
19855TIP3   OH280979   6.694   0.705   1.360 -0.4498 -0.5015 -0.3071
19855TIP3    H180980   6.715   0.767   1.290 -1.8824 -0.8193 -1.0528
19855TIP3    H280981   6.779   0.673   1.390  0.2672 -2.5203 -3.8692
19856TIP3   OH280982   4.411   4.195   5.289  0.2606 -0.0289 -0.1932
19856TIP3    H180983   4.324   4.160   5.269  0.4033 -0.3608 -0.2279
19856TIP3    H280984   4.435   4.247   5.212  1.4909 -2.5654 -1.6211
19857TIP3   OH280985   2.339   6.734  16.068  0.0250 -0.0604  0.1517
19857TIP3    H180986   2.354   6.642  16.089  0.8972 -0.1972 -0.9596
19857TIP3    H280987   2.418   6.779  16.099  0.4895  0.0057 -1.0677
19858TIP3   OH280988   0.374   6.523   2.689  0.1493  0.1869  0.0191
19858TIP3    H180989   0.288   6.498   2.722 -0.4810  1.7645 -0.3189
19858TIP3    H280990   0.362   6.528   2.594  0.2445  1.6061  0.0566
19859TIP3   OH280991   0.536   0.355   2.772 -0.6789  0.3782  0.5101
19859TIP3    H180992   0.530   0.297   2.848 -1.0575 -0.6404 -0.2795
19859TIP3    H280993   0.483   0.312   2.704  0.6056  0.6264 -0.7123
19860TIP3   OH280994   2.783   4.196   1.912  0.4479 -0.0501 -0.2519
19860TIP3    H180995   2.709   4.254   1.898 -0.3296 -0.6374  1.2366
19860TIP3    H280996   2.857   4.242   1.873 -0.6193  0.6885 -1.5059
19861TIP3   OH280997   1.159   1.090   2.085 -0.8010 -0.0693  0.2848
19861TIP3    H180998   1.214   1.031   2.137  0.8598 -0.4754 -1.7967
19861TIP3    H280999   1.166   1.175   2.128  0.6419 -0.3565  0.6646
19862TIP3   OH281000   2.518   3.516  16.479  0.1215  0.6151 -0.4209
19862TIP3    H181001   2.524   3.605  16.445 -1.2448  1.1719  0.6637
19862TIP3    H281002   2.480   3.526  16.567 -0.8001 -1.0855 -0.5711
19863TIP3   OH281003   0.010   4.908  11.928 -0.0445 -0.2979  0.5495
19863TIP3    H181004   0.055   4.902  11.843  0.1286  0.0155  0.6210
19863TIP3    H281005   0.080   4.910  11.992 -0.1324  1.1419  0.6151
19864TIP3   OH281006   6.737   6.172  16.615  0.4776 -0.5363  0.3034
19864TIP3    H181007   6.666   6.111  16.635 -0.8994  0.9255  0.0580
19864TIP3    H281008   6.736   6.180  16.519 -0.8381  1.5110  0.4448
19865TIP3   OH281009   3.478   5.989  11.913 -0.1327  0.1929 -0.3476
19865TIP3    H181010   3.471   6.073  11.867 -0.2087  0.0386 -0.6260
19865TIP3    H281011   3.464   5.923  11.844 -0.7174 -0.0381 -0.0135
19866TIP3   OH281012   0.196   2.331  15.715 -0.3071  0.4195  0.1995
19866TIP3    H181013   0.211   2.376  15.632 -1.4468  0.1570 -0.1691
19866TIP3    H281014   0.250   2.253  15.710 -1.0840 -0.0841 -0.7249
19867TIP3   OH281015   3.689   1.728   1.268  0.1685 -0.7569 -0.5098
19867TIP3    H181016   3.604   1.721   1.310  0.4216 -0.9607 -0.0273
19867TIP3    H281017   3.746   1.669   1.318  1.1754  1.1171  0.6434
19868TIP3   OH281018   5.504   3.554  16.402 -0.0351 -0.4208  0.2868
19868TIP3    H181019   5.462   3.522  16.481 -2.1729  1.1263 -0.1181
19868TIP3    H281020   5.587   3.591  16.432 -1.1213  0.8028  1.9981
19869TIP3   OH281021   5.048   5.597   2.564 -0.3463 -0.4967  0.7762
19869TIP3    H181022   5.096   5.622   2.485  0.4217 -0.5418  1.2237
19869TIP3    H281023   5.021   5.506   2.548 -2.8642  0.4145 -0.7147
19870TIP3   OH281024   0.047   6.029  15.583 -0.1856  0.3919  0.4961
19870TIP3    H181025  -0.032   6.063  15.626  0.9441  1.3865  1.9074
19870TIP3    H281026   0.109   6.017  15.655  0.9300 -0.4307 -0.5754
19871TIP3   OH281027   0.260   5.568   2.718  0.0607  0.0784 -0.3582
19871TIP3    H181028   0.198   5.515   2.768  0.9211  1.0759  1.8921
19871TIP3    H281029   0.340   5.515   2.714  0.6991  0.8415  1.3035
19872TIP3   OH281030   4.381   0.553  12.052  0.2747  0.8926  0.0784
19872TIP3    H181031   4.342   0.490  12.112  0.1040  1.0110  0.0945
19872TIP3    H281032   4.439   0.502  11.996  0.3276  0.7605  0.2549
19873TIP3   OH281033   6.465   4.058  15.926  0.0525 -0.0080 -0.0547
19873TIP3    H181034   6.393   4.048  15.988  0.0485 -0.0219 -0.0623
19873TIP3    H281035   6.482   4.152  15.923  0.0985 -0.0136  0.0189
19874TIP3   OH281036   0.545   1.646   5.192 -0.1743  0.2100 -0.2649
19874TIP3    H181037   0.636   1.668   5.169 -0.4187  3.0514  1.0298
19874TIP3    H281038   0.505   1.620   5.109  1.5508 -0.0177 -1.0618
19875TIP3   OH281039   4.089   1.177  15.402 -0.3677 -0.2075 -0.3639
19875TIP3    H181040   4.104   1.262  15.443  0.3948  0.1121 -1.2585
19875TIP3    H281041   4.170   1.128  15.418 -1.2538 -1.2641  1.2352
19876TIP3   OH281042   0.010   1.783  12.497  0.3290 -0.2274  0.0961
19876TIP3    H181043  -0.060   1.722  12.475 -0.9043  1.0469  0.3257
19876TIP3    H281044  -0.028   1.869  12.482  2.3804  0.5105 -1.3350
19877TIP3   OH281045   5.028   0.231   5.320 -1.1013  0.4009  0.2206
19877TIP3    H181046   5.054   0.323   5.324 -0.3316  0.2553 -0.9368
19877TIP3    H281047   4.947   0.232   5.269 -1.3304  0.4772  0.5841
19878TIP3   OH281048   2.305   0.238   4.143  0.4128 -0.2311 -0.0839
19878TIP3    H181049   2.338   0.184   4.215 -0.8217  0.3071  0.9284
19878TIP3    H281050   2.345   0.323   4.157 -0.9156  0.2798  0.8512
19879TIP3   OH281051   6.733   1.159   4.624  0.1597  0.2727 -0.2697
19879TIP3    H181052   6.665   1.215   4.661 -0.8003 -0.8093 -0.3329
19879TIP3    H281053   6.687   1.080   4.597  1.8284 -1.9385  2.6606
19880TIP3   OH281054   0.483   1.617  11.719 -0.5627 -0.3726  0.6258
19880TIP3    H181055   0.403   1.668  11.706 -0.3535 -0.4889 -1.3347
19880TIP3    H281056   0.482   1.553  11.648  1.8882  0.4130 -0.1983
19881TIP3   OH281057   4.988   1.141  12.092  0.0083 -0.4736 -0.2127
19881TIP3    H181058   5.037   1.103  12.165  0.7851 -0.1352 -0.5473
19881TIP3    H281059   4.948   1.220  12.130  0.7343 -0.0808 -0.2379
19882TIP3   OH281060   5.172   6.104   1.006 -0.5496  0.4169  0.0057
19882TIP3    H181061   5.154   6.018   1.044  0.6359 -0.1185 -0.5826
19882TIP3    H281062   5.110   6.112   0.934 -0.8390  0.1639  0.2263
19883TIP3   OH281063   6.276   3.818   2.355 -0.2519  0.3881  0.3567
19883TIP3    H181064   6.189   3.782   2.370  0.1913 -1.0262 -0.3253
19883TIP3    H281065   6.335   3.743   2.362  1.1029  1.5158  2.1796
19884TIP3   OH281066   1.372   6.762   1.880 -0.1769  0.0290  0.3839
19884TIP3    H181067   1.328   6.826   1.935  0.0141  0.5988 -0.1198
19884TIP3    H281068   1.309   6.690   1.871 -0.7193  0.5180  0.2618
19885TIP3   OH281069   5.537   3.881   3.429 -0.0073 -0.4711  0.0226
19885TIP3    H181070   5.499   3.810   3.480 -0.6603 -0.6212 -0.6528
19885TIP3    H281071   5.552   3.951   3.492 -2.1637 -0.0989  0.1888
19886TIP3   OH281072   2.284   6.450   2.572  0.1281 -0.2691  1.0077
19886TIP3    H181073   2.194   6.449   2.602 -1.1818 -0.3031 -2.4472
19886TIP3    H281074   2.315   6.539   2.590 -1.0321  0.1250  1.1083
19887TIP3   OH281075   3.814   6.658   5.744  0.4424  0.1176 -0.0388
19887TIP3    H181076   3.817   6.581   5.800  2.4382  1.4837  1.9028
19887TIP3    H281077   3.722   6.684   5.743 -0.1765 -1.9568 -0.3266
19888TIP3   OH281078   0.133   0.550  16.144  0.0386  0.5873 -0.5442
19888TIP3    H181079   0.104   0.565  16.234  1.3401 -1.8758  0.3804
19888TIP3    H281080   0.197   0.620  16.127  0.5982  0.4430  0.8710
19889TIP3   OH281081   2.208   1.908  12.662  0.2367  0.0946 -0.2722
19889TIP3    H181082   2.185   1.815  12.661 -0.4307  0.2369 -2.2594
19889TIP3    H281083   2.302   1.909  12.681  0.1056 -0.9396  0.4793
19890TIP3   OH281084   3.279   1.526   4.430  0.1983  0.5828 -0.2208
19890TIP3    H181085   3.260   1.442   4.473 -0.2539  1.4894  1.4713
19890TIP3    H281086   3.217   1.530   4.357  0.2997 -0.5899 -0.3937
19891TIP3   OH281087   2.734   4.494   3.357  0.0306  0.2096  0.2514
19891TIP3    H181088   2.677   4.417   3.352  0.0645  0.1993  0.0145
19891TIP3    H281089   2.730   4.521   3.449  0.5610 -0.4841  0.4870
19892TIP3   OH281090   3.094   3.331  13.969  0.3410 -0.3245 -0.2971
19892TIP3    H181091   3.055   3.245  13.952 -0.5077 -0.1058  0.4806
19892TIP3    H281092   3.124   3.326  14.059 -0.2071  0.3765 -0.0695
19893TIP3   OH281093   2.056   3.332  15.236  0.0182  0.1775 -0.3197
19893TIP3    H181094   2.079   3.298  15.150 -0.3541 -0.5445 -0.1502
19893TIP3    H281095   2.126   3.299  15.294 -1.0913 -1.6032  0.1078
19894TIP3   OH281096   0.182   3.832  14.331 -0.1793 -0.1333  0.2853
19894TIP3    H181097   0.184   3.895  14.259  0.4737 -0.6209 -0.1278
19894TIP3    H281098   0.159   3.749  14.290 -1.6774 -0.0618  0.9202
19895TIP3   OH281099   3.961   1.419  12.811  0.0631  0.0158  0.4358
19895TIP3    H181100   3.959   1.327  12.787  0.8364  0.5495 -1.9233
19895TIP3    H281101   3.899   1.461  12.751  0.1731  1.1252  1.0586
19896TIP3   OH281102   5.607   5.109  12.671  0.0237 -0.0281 -0.0073
19896TIP3    H181103   5.637   5.018  12.673  0.2481  0.0513  2.0002
19896TIP3    H281104   5.511   5.103  12.675  0.0863 -0.1975  2.3670
19897TIP3   OH281105   5.977   0.426  10.517  0.3089  0.2137  0.3619
19897TIP3    H181106   6.036   0.495  10.486 -0.0970 -0.3397 -1.8130
19897TIP3    H281107   5.904   0.474  10.556 -0.1499  1.0986 -1.4540
19898TIP3   OH281108   1.445   2.492  13.083  0.9237 -0.0910  0.2330
19898TIP3    H181109   1.453   2.459  13.173  0.5722 -1.0535 -0.0768
19898TIP3    H281110   1.512   2.444  13.035 -0.1734 -1.0396 -0.4049
19899TIP3   OH281111   1.958   2.515  14.030  0.3496 -0.6469  0.0716
19899TIP3    H181112   1.894   2.510  14.101 -0.5385  2.8184 -0.3247
19899TIP3    H281113   2.042   2.496  14.073 -0.3082  0.0819  1.8066
19900TIP3   OH281114   3.085   3.819   0.508 -0.2503  0.5076 -0.3147
19900TIP3    H181115   3.135   3.754   0.557 -0.3635  0.7517  0.1272
19900TIP3    H281116   3.077   3.781   0.420 -2.3323 -1.2392  0.5029
19901TIP3   OH281117   0.419   0.849  15.659 -0.7205 -0.5991 -0.2256
19901TIP3    H181118   0.368   0.893  15.727 -0.9188 -1.7474  0.4106
19901TIP3    H281119   0.510   0.874  15.676 -0.4384 -2.7038  2.0311
19902TIP3   OH281120   1.938   4.504   2.595  0.2035  0.4396 -0.1279
19902TIP3    H181121   2.030   4.528   2.607 -0.1781  2.7580 -1.1221
19902TIP3    H281122   1.940   4.417   2.555  1.8855 -0.1850  1.2161
19903TIP3   OH281123   0.602   2.650  17.219 -0.3213 -0.6697 -0.5410
19903TIP3    H181124   0.584   2.718  17.153  2.6541 -0.5997 -1.4277
19903TIP3    H281125   0.588   2.568  17.173 -4.1957 -0.8493  0.6119
19904TIP3   OH281126   5.913   1.164   3.445  0.0571 -0.0460 -0.7543
19904TIP3    H181127   5.830   1.160   3.493  0.5485  0.0215  0.1255
19904TIP3    H281128   5.912   1.087   3.388 -2.0507  1.6253 -3.2366
19905TIP3   OH281129   2.140   1.027  16.657 -0.7696  0.3108  0.1620
19905TIP3    H181130   2.138   0.993  16.746  2.3328 -1.4988 -0.3147
19905TIP3    H281131   2.092   0.962  16.605 -1.5302  0.7443  0.3043
19906TIP3   OH281132   4.913   4.656   5.559 -0.8816  0.6185  0.0946
19906TIP3    H181133   4.869   4.597   5.499  0.2859 -1.0325  0.7818
19906TIP3    H281134   4.852   4.665   5.633 -0.5366 -0.8669  0.5999
19907TIP3   OH281135   2.207   5.963  12.784  0.1996 -0.0299  0.2375
19907TIP3    H181136   2.150   5.976  12.708  1.1952 -0.1233 -0.5458
19907TIP3    H281137   2.248   5.878  12.770 -0.1967 -0.4236  1.3024
19908TIP3   OH281138   3.394   4.454  16.476 -0.7334 -0.1839 -0.0298
19908TIP3    H181139   3.308   4.493  16.493 -0.4441  2.1790 -3.0623
19908TIP3    H281140   3.455   4.528  16.480  0.4306 -0.9023 -2.3534
19909TIP3   OH281141   4.126   1.176   1.180 -0.2831 -0.2544  0.6108
19909TIP3    H181142   4.137   1.161   1.274 -0.8364  1.1251  0.9248
19909TIP3    H281143   4.082   1.261   1.175 -0.3325 -0.3501 -0.9006
19910TIP3   OH281144   2.203   5.111   6.144  0.2158 -0.2772  0.8965
19910TIP3    H181145   2.161   5.198   6.143 -0.8413 -0.7636  1.6843
19910TIP3    H281146   2.252   5.109   6.225 -3.4467 -2.0379  3.3538
19911TIP3   OH281147   1.193   0.093   2.069  0.3045  0.1479  0.4551
19911TIP3    H181148   1.203   0.025   2.136  1.0199 -0.4494 -0.2329
19911TIP3    H281149   1.232   0.171   2.108  0.3044 -0.0778  0.9152
19912TIP3   OH281150   5.979   6.052   5.397 -0.5512  0.3431 -0.3388
19912TIP3    H181151   5.924   6.105   5.340  0.1317 -0.4790 -1.8042
19912TIP3    H281152   6.000   5.974   5.346  0.9506  0.0585  0.6277
19913TIP3   OH281153   5.198   3.510   3.461 -0.2870  0.1190 -0.2106
19913TIP3    H181154   5.281   3.556   3.454 -1.2652  2.3298  1.4069
19913TIP3    H281155   5.146   3.543   3.387  0.3699 -1.6315 -1.5139
19914TIP3   OH281156   2.195   3.257  16.668  0.0856  0.3515 -0.6777
19914TIP3    H181157   2.168   3.307  16.591 -1.0733  0.4542 -0.2269
19914TIP3    H281158   2.152   3.300  16.742 -0.5156 -0.9802 -0.2161
19915TIP3   OH281159   2.677   2.282  10.790  0.4218  0.2560 -0.4537
19915TIP3    H181160   2.679   2.372  10.823  1.4309  0.4517 -1.0080
19915TIP3    H281161   2.673   2.228  10.869 -0.4213  0.7844 -0.1240
19916TIP3   OH281162   1.506   3.610   4.857  0.1514 -0.3809  0.2158
19916TIP3    H181163   1.513   3.702   4.881 -0.4426 -0.4242  0.5715
19916TIP3    H281164   1.448   3.572   4.923 -2.4744 -0.2605 -1.8842
19917TIP3   OH281165   5.486   6.151   3.523 -0.4210  0.1481  0.0429
19917TIP3    H181166   5.402   6.106   3.534  0.2554 -1.4386 -0.9390
19917TIP3    H281167   5.525   6.111   3.446  2.5383 -1.2925  2.0948
19918TIP3   OH281168   2.088   1.986   1.260  1.0317  0.1784 -0.0668
19918TIP3    H181169   2.053   1.906   1.298 -0.2593 -0.7314 -2.9284
19918TIP3    H281170   2.034   2.056   1.298 -2.1444 -0.9335 -2.0902
19919TIP3   OH281171   4.647   2.188   1.367  0.2514 -0.4190 -0.1153
19919TIP3    H181172   4.682   2.201   1.455 -0.4476  0.3955  0.0600
19919TIP3    H281173   4.666   2.270   1.321  1.9866 -1.3789 -1.2362
19920TIP3   OH281174   4.160   6.518  12.785 -0.2314 -0.2958  0.0002
19920TIP3    H181175   4.075   6.491  12.750  0.1713 -1.3603 -0.1785
19920TIP3    H281176   4.223   6.461  12.742  0.3413 -1.2682  1.9868
19921TIP3   OH281177   1.492   1.647   4.137  0.5121  0.0111 -0.4176
19921TIP3    H181178   1.525   1.689   4.216 -0.9038 -0.1526  0.2950
19921TIP3    H281179   1.406   1.687   4.122 -0.0070 -1.2056 -0.8462
19922TIP3   OH281180   3.839   5.423  16.820 -0.3778  0.0002 -0.4226
19922TIP3    H181181   3.755   5.385  16.791  0.4012 -0.8583 -1.6329
19922TIP3    H281182   3.905   5.370  16.777  0.8014  2.2468 -1.5250
19923TIP3   OH281183   5.821   0.323  13.101 -0.4749  0.0382  0.1769
19923TIP3    H181184   5.782   0.337  13.014  0.4938  0.5021 -0.1882
19923TIP3    H281185   5.852   0.233  13.099 -1.5578 -0.3627  0.4955
19924TIP3   OH281186   1.734   6.256  15.566 -0.1362 -0.5406  0.2220
19924TIP3    H181187   1.712   6.348  15.551 -1.1339 -1.0990 -2.1319
19924TIP3    H281188   1.689   6.234  15.647 -0.2036  0.9154  0.6162
19925TIP3   OH281189   5.709   6.618  13.632 -0.4006 -0.3077  0.6911
19925TIP3    H181190   5.771   6.659  13.572 -0.6069  0.1766  0.8042
19925TIP3    H281191   5.645   6.687  13.651 -1.7547 -1.2021 -0.4970
19926TIP3   OH281192   5.277   1.207   3.827  0.4771  0.8037 -0.0623
19926TIP3    H181193   5.341   1.237   3.891  2.0646  0.5872 -1.4578
19926TIP3    H281194   5.319   1.132   3.785 -0.0928  1.4758 -1.9512
19927TIP3   OH281195   3.775   2.741   1.949 -0.4969 -0.6381 -0.0900
19927TIP3    H181196   3.855   2.755   1.999 -0.0877  1.3057 -1.1849
19927TIP3    H281197   3.736   2.828   1.941 -2.6654 -1.5161  0.2749
19928TIP3   OH281198   5.433   3.652   1.936 -0.2490  0.1317  0.2452
19928TIP3    H181199   5.463   3.608   2.015  0.2436  0.0728  0.0268
19928TIP3    H281200   5.340   3.630   1.930 -0.5544  1.0033  1.3895
19929TIP3   OH281201   5.916   5.969  15.151  0.7065 -0.1227 -0.5184
19929TIP3    H181202   5.984   5.994  15.215  1.5779 -0.7500 -1.1692
19929TIP3    H281203   5.919   6.039  15.085  1.6768 -0.8283 -1.2458
19930TIP3   OH281204   2.374   5.390   0.649  0.9723  0.2113 -0.0288
19930TIP3    H181205   2.325   5.348   0.719 -0.3808  0.8547 -0.5355
19930TIP3    H281206   2.355   5.337   0.571  0.7680  0.6682 -0.2997
19931TIP3   OH281207   5.048   5.893  14.696  0.1622  0.1576 -0.0007
19931TIP3    H181208   5.043   5.910  14.791  0.1286  1.5191 -0.2162
19931TIP3    H281209   4.957   5.887  14.668  0.1238 -3.2401  0.4745
19932TIP3   OH281210   1.573   4.347  14.523  0.4711 -0.0458  0.2135
19932TIP3    H181211   1.619   4.264  14.514  0.2571 -0.0293 -1.4523
19932TIP3    H281212   1.520   4.338  14.602 -0.5387 -1.9901 -0.6308
19933TIP3   OH281213   1.959   0.746  12.097  0.2686  0.5818  0.3941
19933TIP3    H181214   2.008   0.675  12.136  0.8101  1.5928  1.6225
19933TIP3    H281215   1.868   0.717  12.098  0.5907 -0.4996 -0.1084
19934TIP3   OH281216   2.685   4.348   6.066 -0.0907 -0.7072  0.6979
19934TIP3    H181217   2.610   4.345   6.006  0.9850  1.2265 -0.8802
19934TIP3    H281218   2.740   4.275   6.038  0.1637 -0.1211 -0.4027
19935TIP3   OH281219   6.606   1.004   0.576 -0.3216 -0.7038 -0.4859
19935TIP3    H181220   6.693   0.967   0.562 -0.2690  0.2895 -3.4545
19935TIP3    H281221   6.564   1.002   0.490 -2.2973  1.1006  0.3277
19936TIP3   OH281222   3.000   0.184  14.107 -0.1429  0.1442  0.1842
19936TIP3    H181223   3.019   0.211  14.197  0.3453  2.1102 -0.4401
19936TIP3    H281224   3.063   0.114  14.089  0.6977  0.6733  0.9466
19937TIP3   OH281225   5.618   3.204   1.673 -0.0008 -0.0960 -0.1637
19937TIP3    H181226   5.662   3.134   1.721 -1.4958 -0.0055  1.4661
19937TIP3    H281227   5.631   3.282   1.726  0.5303  0.6013 -1.2856
19938TIP3   OH281228   1.502   2.708  15.523 -0.0608 -0.0230  0.4123
19938TIP3    H181229   1.439   2.640  15.547  1.1983 -0.9808  1.1031
19938TIP3    H281230   1.508   2.764  15.601 -0.9965  0.8475 -0.1095
19939TIP3   OH281231   3.038   4.731   4.038  0.4084  0.0692  0.2432
19939TIP3    H181232   2.969   4.686   4.086 -0.0857  1.8697  1.2892
19939TIP3    H281233   3.074   4.664   3.979 -2.4241 -0.8456 -0.5868
19940TIP3   OH281234   0.226   2.499  16.229  0.2446 -0.1924  0.4910
19940TIP3    H181235   0.300   2.452  16.267  0.3313  0.2833  0.9246
19940TIP3    H281236   0.217   2.463  16.141 -0.8336 -2.3187  1.3841
19941TIP3   OH281237   4.260   5.547   5.962  0.2696  0.7179  0.4150
19941TIP3    H181238   4.243   5.618   5.901  0.3461 -0.1560 -0.6478
19941TIP3    H281239   4.284   5.591   6.044 -0.1085  1.9041 -0.0923
19942TIP3   OH281240   0.407   1.398  14.412 -0.7140 -0.1675 -0.6860
19942TIP3    H181241   0.428   1.474  14.467 -0.2222  0.2206 -1.3897
19942TIP3    H281242   0.466   1.329  14.444 -0.0133  0.2260 -1.0878
19943TIP3   OH281243   5.963   1.129  11.871 -0.1837 -0.5179 -0.0447
19943TIP3    H181244   6.053   1.102  11.853  0.3365 -0.2032  1.8161
19943TIP3    H281245   5.968   1.224  11.882 -0.3776 -0.6684  1.7209
19944TIP3   OH281246   3.825   4.920   2.810 -0.4500 -0.0879  0.0000
19944TIP3    H181247   3.919   4.936   2.822 -0.1812 -1.6989  0.3795
19944TIP3    H281248   3.782   4.995   2.851  0.6687  1.5413 -1.6752
19945TIP3   OH281249   4.691   2.133   2.483  0.4621 -0.6106  0.2791
19945TIP3    H181250   4.640   2.205   2.520 -0.3561  0.7625 -3.1322
19945TIP3    H281251   4.633   2.057   2.490 -1.5156  0.5525 -1.9450
19946TIP3   OH281252   3.003   0.296   0.963 -0.3117 -0.6177 -0.9641
19946TIP3    H181253   2.919   0.269   0.926 -1.0819  2.1204 -1.4539
19946TIP3    H281254   3.041   0.354   0.897  0.8152  0.1000  0.2631
19947TIP3   OH281255   5.456   1.094   2.659  0.7088  0.4204  0.0786
19947TIP3    H181256   5.521   1.053   2.603  1.0048 -0.0332  0.7428
19947TIP3    H281257   5.408   1.021   2.699 -2.4372  0.6571 -2.8212
19948TIP3   OH281258   1.890   6.623  16.582  0.0853 -0.2931 -0.0422
19948TIP3    H181259   1.812   6.579  16.547  0.9660 -2.9887  1.0499
19948TIP3    H281260   1.954   6.619  16.511 -0.1497  0.1309 -0.2790
19949TIP3   OH281261   2.930   2.762  12.896  0.0411  0.4625 -0.3882
19949TIP3    H181262   2.874   2.796  12.967  0.7192 -0.9703  0.8992
19949TIP3    H281263   2.887   2.791  12.816 -2.9685 -1.0657  0.5134
19950TIP3   OH281264   5.369   5.576   2.557  0.3615  0.3623  0.0426
19950TIP3    H181265   5.410   5.590   2.472  0.5077  2.4935  0.4097
19950TIP3    H281266   5.326   5.659   2.577  0.5802  0.0214  2.1759
19951TIP3   OH281267   6.461   1.133  14.096 -0.6726 -0.5847  0.5309
19951TIP3    H181268   6.438   1.058  14.151 -2.0809  0.4075  1.3619
19951TIP3    H281269   6.377   1.166  14.065 -0.0138  0.1462 -0.5224
19952TIP3   OH281270   6.660   3.830   1.226  0.3538 -0.0316  0.2731
19952TIP3    H181271   6.607   3.863   1.153  1.3941  0.4365 -0.2809
19952TIP3    H281272   6.645   3.893   1.297  0.7338  0.4922 -0.1144
19953TIP3   OH281273   1.971   3.450   4.865  0.1754 -0.3593  0.2429
19953TIP3    H181274   2.060   3.464   4.833  0.6451 -0.6269  1.3905
19953TIP3    H281275   1.960   3.515   4.934 -1.3407  1.2001 -1.3539
19954TIP3   OH281276   5.143   3.809  11.145  0.4347  0.4972 -0.2354
19954TIP3    H181277   5.205   3.737  11.156 -0.3222 -0.5887 -2.5069
19954TIP3    H281278   5.146   3.830  11.052 -0.6955  2.2126  0.0626
19955TIP3   OH281279   1.857   3.511   5.454 -0.2167  0.4223 -0.0969
19955TIP3    H181280   1.938   3.466   5.474 -0.9610 -0.7708  0.3205
19955TIP3    H281281   1.831   3.552   5.537  0.5445  1.8241 -0.5131
19956TIP3   OH281282   5.221   0.351   3.740  0.3435  0.4113  0.5802
19956TIP3    H181283   5.305   0.315   3.769  0.2931 -0.8165 -0.6848
19956TIP3    H281284   5.199   0.416   3.806  2.0376  0.3902  1.2175
19957TIP3   OH281285   2.648   6.164   6.081  0.4406 -0.1694 -0.0901
19957TIP3    H181286   2.602   6.198   6.158  0.2304  0.8782 -0.6593
19957TIP3    H281287   2.739   6.189   6.095  0.5293 -0.6283  0.1646
19958TIP3   OH281288   1.142   1.867   1.520 -0.3363  0.0751  0.1315
19958TIP3    H181289   1.203   1.842   1.451 -0.0546 -0.2775  0.4966
19958TIP3    H281290   1.110   1.783   1.555 -1.2639  0.2565 -0.2571
19959TIP3   OH281291   5.240   0.830  12.483  0.0756  0.2501 -0.4238
19959TIP3    H181292   5.292   0.804  12.559 -1.1317 -2.1396 -0.3016
19959TIP3    H281293   5.300   0.825  12.409  0.9689  1.4713  0.1836
19960TIP3   OH281294   0.244   3.151  14.986  0.1100 -0.3289 -0.3573
19960TIP3    H181295   0.199   3.082  14.937 -1.1814  0.6236 -0.5702
19960TIP3    H281296   0.176   3.217  15.002  1.0736  0.4433  0.6989
19961TIP3   OH281297   5.473   4.982  14.982 -0.7030  0.1315  0.2656
19961TIP3    H181298   5.542   4.924  14.949 -0.9961  0.3084 -0.6889
19961TIP3    H281299   5.410   4.923  15.024 -1.0931 -0.2823 -0.8648
19962TIP3   OH281300   0.808   3.896   4.665 -0.1375  0.4914  0.0612
19962TIP3    H181301   0.830   3.904   4.572  2.5030 -0.0389  0.5435
19962TIP3    H281302   0.744   3.825   4.669  0.1640  0.1060 -1.2982
19963TIP3   OH281303   0.864   2.923   4.246  0.4109 -0.6554 -0.3893
19963TIP3    H181304   0.785   2.976   4.234  1.9162  1.3134 -2.6000
19963TIP3    H281305   0.831   2.835   4.265 -2.2711  0.3267 -0.0087
19964LIG      O81306   1.395   5.351   8.734 -0.1493 -0.3169  0.1225
19964LIG      N81307   1.597   5.340   8.546  0.1205 -0.2284 -0.5131
19964LIG     C181308   1.163   5.345   8.679  0.0066 -0.0861  0.6874
19964LIG     C281309   1.300   5.291   8.643 -0.8361  0.3145  0.1244
19964LIG     C381310   1.059   5.312   8.567 -0.2198  0.1492  0.3299
19964LIG     C481311   1.111   5.303   8.821  0.1746 -0.7567 -0.5307
19964LIG     C581312   1.349   5.335   8.502  0.3054  0.0251  0.1145
19964LIG     C681313   0.925   5.373   8.605 -0.4807  0.4689  0.3995
19964LIG     C781314   0.965   5.349   8.856 -0.3851 -0.6347 -0.3604
19964LIG     C881315   0.864   5.329   8.742  1.0649  0.2771  0.0145
19964LIG     C981316   1.492   5.298   8.455  0.2600 -0.3003  0.7421
19964LIG    C1081317   1.300   5.136   8.653  0.3748  0.0258 -0.7836
19964LIG    C1181318   1.723   5.266   8.525  0.8280 -0.4040 -0.0871
19964LIG    C1281319   1.611   5.484   8.551  0.4460 -1.3489  0.0141
19964LIG    C1381320   1.776   5.313   8.387 -0.3937 -0.6699  0.0581
19964LIG    C1481321   1.670   5.538   8.423 -0.3704  0.4410  0.2938
19964LIG    C1581322   1.802   5.466   8.394  0.3011  0.4383  0.2789
19964LIG    C1681323   1.263   5.047   8.546  0.0525 -0.2846  0.2343
19964LIG    C1781324   1.337   5.075   8.774  0.2016  0.0276 -0.0044
19964LIG    C1881325   1.250   4.906   8.560  0.0680  0.1072  0.2295
19964LIG    C1981326   1.321   4.940   8.793  0.7474  0.0776 -0.4906
19964LIG    C2081327   1.278   4.856   8.686 -0.7165 -0.6226  0.6225
19964LIG     H181328   1.168   5.455   8.667 -2.1723 -0.2508 -3.4795
19964LIG     H281329   1.043   5.202   8.561 -2.9786  0.4744  0.5088
19964LIG     H381330   1.092   5.362   8.474  1.4250 -1.2715  0.0955
19964LIG     H481331   1.174   5.340   8.905  0.9271 -1.0234 -0.9614
19964LIG     H581332   1.095   5.193   8.826 -0.6816 -0.6004  0.6103
19964LIG     H681333   1.332   5.445   8.499  1.1608  0.1684  0.2414
19964LIG     H781334   1.271   5.298   8.431  0.8366  1.8264 -1.4812
19964LIG     H881335   0.852   5.350   8.524  1.7228 -0.0920 -1.5368
19964LIG     H981336   0.940   5.483   8.600 -0.6683  0.4609 -0.6296
19964LIG    H1081337   0.970   5.460   8.864 -2.7965 -0.6146  2.0592
19964LIG    H1181338   0.938   5.303   8.953  1.5582 -0.8687  0.1059
19964LIG    H1281339   0.824   5.226   8.725  1.1745  0.2822 -0.2939
19964LIG    H1381340   0.763   5.372   8.760  0.0805 -0.7759 -2.4647
19964LIG    H1481341   1.491   5.188   8.441  1.6301 -0.1849 -0.4245
19964LIG    H1581342   1.495   5.345   8.355  0.6795  1.6273  1.6021
19964LIG    H1681343   1.707   5.156   8.531  2.3381 -0.5930  0.9026
19964LIG    H1781344   1.789   5.301   8.607  0.5172 -4.1366  1.9621
19964LIG    H1881345   1.676   5.519   8.634  0.7008 -1.3924 -0.1658
19964LIG    H1981346   1.510   5.527   8.570  1.3468  0.2863  1.4117
19964LIG    H2081347   1.476   5.353   8.683  0.1855 -1.0735  0.6091
19964LIG    H2181348   1.709   5.280   8.304 -0.3526 -1.6027  0.3862
19964LIG    H2281349   1.869   5.255   8.372 -0.9669 -1.2660 -1.3756
19964LIG    H2381350   1.694   5.646   8.417  0.6154  0.1727 -1.0167
19964LIG    H2481351   1.599   5.530   8.338  1.4919  0.4743 -1.3135
19964LIG    H2581352   1.836   5.516   8.301 -0.3990 -0.6891 -0.6108
19964LIG    H2681353   1.869   5.489   8.479 -0.2102  3.6673 -0.0754
19964LIG    H2781354   1.244   5.086   8.447 -0.6074  0.0126  0.4725
19964LIG    H2881355   1.361   5.138   8.859 -1.0241 -0.5328  0.7881
19964LIG    H2981356   1.222   4.836   8.484 -1.6757 -0.3165  1.2077
19964LIG    H3081357   1.336   4.885   8.885 -0.4439 -3.4463 -2.2373
19964LIG    H3181358   1.277   4.751   8.712 -1.3593 -1.2533 -1.7569
   6.77457   6.77457  17.34468
