Title
43134
    1CHL1    C3    1   2.491   6.632   6.802 -0.5022  0.5114  0.1566
    1CHL1    H3    2   2.593   6.666   6.829 -0.6364 -0.5813  2.2268
    1CHL1    O3    3   2.440   6.581   6.930  0.4048 -0.4434  0.2881
    1CHL1   H3'    4   2.353   6.551   6.905  0.2209 -0.4987  0.9835
    1CHL1    C4    5   2.404   6.752   6.753  0.1613  0.5016  0.3901
    1CHL1   H4A    6   2.304   6.711   6.776 -0.2213  1.2473  0.0582
    1CHL1   H4B    7   2.417   6.842   6.817  0.6681 -0.7200  2.0834
    1CHL1    C5    8   2.408   6.785   6.598  0.0663  0.1373 -1.0165
    1CHL1    C6    9   2.420   6.912   6.564 -0.3771 -0.0720  0.0216
    1CHL1    H6   10   2.398   6.989   6.639  0.0586  0.4676 -0.3950
    1CHL1    C7   11   2.433   6.962   6.424 -0.5985  0.2432  0.3676
    1CHL1   H7A   12   2.380   7.055   6.396  0.7939  0.5243 -1.5155
    1CHL1   H7B   13   2.542   6.984   6.415 -0.1148 -1.1438  2.2160
    1CHL1    C8   14   2.403   6.850   6.321 -0.2588  0.0754  0.3410
    1CHL1    H8   15   2.293   6.837   6.329 -0.0868 -0.5593  2.3268
    1CHL1   C14   16   2.452   6.880   6.186 -0.6389 -0.0471  0.4115
    1CHL1   H14   17   2.560   6.899   6.198 -1.1014  1.5838  2.4790
    1CHL1   C15   18   2.392   7.008   6.125  0.1123  0.6876 -0.3008
    1CHL1  H15A   19   2.282   7.017   6.142  0.1582 -1.5092  1.5888
    1CHL1  H15B   20   2.435   7.099   6.172 -0.2278 -0.4773  2.4521
    1CHL1   C16   21   2.419   6.986   5.970 -0.1049 -0.6273  0.7059
    1CHL1  H16A   22   2.322   6.999   5.917  0.5592 -1.8503 -0.9000
    1CHL1  H16B   23   2.493   7.062   5.938 -1.9275  1.5968  1.5218
    1CHL1   C17   24   2.484   6.848   5.946  0.2544 -0.2622 -0.3654
    1CHL1   H17   25   2.595   6.858   5.957  0.6224 -3.7773  0.4372
    1CHL1   C13   26   2.438   6.774   6.078  0.8970  0.1430  0.3293
    1CHL1   C18   27   2.286   6.740   6.063 -0.1770 -0.6272 -0.2440
    1CHL1  H18A   28   2.280   6.662   5.985  1.5379 -1.1508  0.0958
    1CHL1  H18B   29   2.252   6.696   6.160 -0.8484 -1.5719 -0.8926
    1CHL1  H18C   30   2.232   6.836   6.051  2.3929  0.9677  0.1952
    1CHL1   C12   31   2.525   6.649   6.123  0.1801  0.2398 -0.1761
    1CHL1  H12A   32   2.516   6.559   6.059  1.9954 -0.3280  0.2910
    1CHL1  H12B   33   2.627   6.690   6.139 -0.2175  0.7671  1.1522
    1CHL1   C11   34   2.479   6.601   6.267  0.7992 -0.3630  0.2485
    1CHL1  H11A   35   2.379   6.559   6.246  0.7376 -0.4251  0.6728
    1CHL1  H11B   36   2.551   6.518   6.287  0.0941 -0.4950  2.3997
    1CHL1    C9   37   2.472   6.718   6.369  0.4421 -0.4112  0.6659
    1CHL1    H9   38   2.581   6.736   6.380  1.0571 -3.5082  0.7145
    1CHL1   C10   39   2.420   6.666   6.507  0.3908 -0.8006  0.2890
    1CHL1   C19   40   2.275   6.607   6.499 -0.5897 -0.6150  0.7143
    1CHL1  H19A   41   2.208   6.677   6.444 -0.2453 -0.2376  0.7639
    1CHL1  H19B   42   2.281   6.516   6.436  0.5942  0.2981 -0.5689
    1CHL1  H19C   43   2.236   6.586   6.601  1.4655 -1.1264  1.4597
    1CHL1    C1   44   2.521   6.563   6.568 -0.7356 -0.8628 -0.1954
    1CHL1   H1A   45   2.534   6.483   6.492 -0.3861 -1.4343  0.4643
    1CHL1   H1B   46   2.619   6.613   6.576 -0.8301 -0.7587  0.3438
    1CHL1    C2   47   2.485   6.515   6.710 -0.2208  0.3575 -0.4067
    1CHL1   H2A   48   2.557   6.435   6.740 -0.6185  0.8688  2.0504
    1CHL1   H2B   49   2.383   6.471   6.714 -0.0444 -0.3087 -2.1482
    1CHL1   C20   50   2.449   6.794   5.810  0.5231  0.5060 -0.1268
    1CHL1   H20   51   2.338   6.801   5.810  0.5559  1.5004 -1.5617
    1CHL1   C21   52   2.490   6.647   5.793 -0.3269 -0.2476  0.0790
    1CHL1  H21A   53   2.595   6.632   5.827  0.7804  0.8309 -2.5749
    1CHL1  H21B   54   2.487   6.603   5.691  0.2585  1.7101 -0.8306
    1CHL1  H21C   55   2.437   6.584   5.868 -0.9357  0.3864  0.1882
    1CHL1   C22   56   2.503   6.880   5.701 -0.5845 -0.0320  0.0572
    1CHL1  H22A   57   2.483   6.829   5.604 -0.2933 -1.1822  0.5774
    1CHL1  H22B   58   2.452   6.978   5.703 -2.0670 -0.7155 -1.6164
    1CHL1   C23   59   2.653   6.908   5.702  0.0574  0.2012  0.1628
    1CHL1  H23A   60   2.677   6.965   5.794 -0.5909 -0.4631  0.7535
    1CHL1  H23B   61   2.706   6.813   5.723 -1.0018 -0.4819 -0.1554
    1CHL1   C24   62   2.709   6.954   5.568 -0.1716 -0.1996 -0.0721
    1CHL1  H24A   63   2.638   7.032   5.533 -0.6994 -1.3857 -1.7353
    1CHL1  H24B   64   2.807   7.006   5.577 -0.4540  0.1068  1.6934
    1CHL1   C25   65   2.730   6.850   5.443  0.5369 -0.5323 -0.4383
    1CHL1   H25   66   2.625   6.815   5.431  0.5228  0.1352 -2.8696
    1CHL1   C26   67   2.769   6.934   5.324 -0.6347  0.2805 -0.0203
    1CHL1  H26A   68   2.695   7.012   5.297 -0.7818 -0.6168 -2.4752
    1CHL1  H26B   69   2.872   6.975   5.330  0.2493 -1.9932  1.7348
    1CHL1  H26C   70   2.774   6.866   5.236 -0.5533  1.5025 -0.9888
    1CHL1   C27   71   2.812   6.728   5.475 -0.0854 -0.6722 -0.6088
    1CHL1  H27A   72   2.772   6.675   5.564  0.5119  2.0492  1.3977
    1CHL1  H27B   73   2.816   6.668   5.382  0.3775  0.8449 -1.5977
    1CHL1  H27C   74   2.915   6.756   5.503 -0.3786 -2.0121  2.1531
    2CHL1    C3   75   4.471   0.540   6.988  0.0131  0.0043 -0.4948
    2CHL1    H3   76   4.401   0.625   6.973  2.0927  1.5644 -1.9128
    2CHL1    O3   77   4.518   0.543   7.120  0.1214  0.6852 -0.1763
    2CHL1   H3'   78   4.444   0.527   7.178  1.2386  1.1431  1.4582
    2CHL1    C4   79   4.404   0.404   6.957 -0.2423  0.2339 -0.1525
    2CHL1   H4A   80   4.473   0.326   6.995  1.2875  2.0527  1.0379
    2CHL1   H4B   81   4.319   0.405   7.028  0.5807 -0.4791  0.8714
    2CHL1    C5   82   4.362   0.385   6.813  0.1848 -0.2919 -0.7048
    2CHL1    C6   83   4.232   0.359   6.778 -0.1064  0.0186 -0.1328
    2CHL1    H6   84   4.153   0.351   6.855 -0.1230  0.6517 -0.0773
    2CHL1    C7   85   4.180   0.339   6.637 -0.4491 -0.1228  0.3598
    2CHL1   H7A   86   4.132   0.239   6.631  0.5255 -0.5707 -0.2832
    2CHL1   H7B   87   4.109   0.421   6.611  2.3028  2.4819  0.5640
    2CHL1    C8   88   4.293   0.339   6.535 -0.3141  0.3217  0.4702
    2CHL1    H8   89   4.331   0.234   6.533 -2.8886 -0.7222  1.2554
    2CHL1   C14   90   4.242   0.368   6.394  0.3725  0.0166  0.3163
    2CHL1   H14   91   4.220   0.476   6.402 -0.2700 -0.1676  1.1325
    2CHL1   C15   92   4.108   0.306   6.352  0.0024  0.4830 -0.4801
    2CHL1  H15A   93   4.107   0.207   6.401 -1.4616  1.3100  1.3061
    2CHL1  H15B   94   4.016   0.354   6.394 -0.2970 -2.7167  3.1316
    2CHL1   C16   95   4.111   0.308   6.199  0.4526 -0.2269 -0.4596
    2CHL1  H16A   96   4.118   0.202   6.166  0.2212 -0.7789  1.2126
    2CHL1  H16B   97   4.027   0.364   6.153 -0.6152 -1.3666  0.0649
    2CHL1   C17   98   4.247   0.382   6.159  1.3074  0.3698 -0.0342
    2CHL1   H17   99   4.228   0.491   6.165  2.1505  0.5369 -0.3012
    2CHL1   C13  100   4.341   0.355   6.278  0.3865  0.3132  0.2205
    2CHL1   C18  101   4.391   0.211   6.270  0.2909  0.8432  0.1713
    2CHL1  H18A  102   4.310   0.140   6.247  0.0115  0.7483  1.3517
    2CHL1  H18B  103   4.473   0.197   6.196  1.9650 -1.3791  2.2689
    2CHL1  H18C  104   4.423   0.170   6.369  0.8986 -4.1773 -1.8229
    2CHL1   C12  105   4.451   0.449   6.314  0.0842  0.1658  0.2677
    2CHL1  H12A  106   4.537   0.431   6.245  0.7340 -0.6131  1.2536
    2CHL1  H12B  107   4.421   0.555   6.304  1.1579  0.5746  1.1438
    2CHL1   C11  108   4.520   0.429   6.447 -0.4587 -0.1625 -1.1803
    2CHL1  H11A  109   4.572   0.331   6.445 -1.0655 -0.4937 -1.2411
    2CHL1  H11B  110   4.593   0.510   6.470 -2.4971  0.3852  5.4635
    2CHL1    C9  111   4.413   0.429   6.568  0.1576  0.8722  0.0342
    2CHL1    H9  112   4.378   0.533   6.555  0.4804  0.9882  0.0641
    2CHL1   C10  113   4.472   0.412   6.709 -0.2653  0.1608  0.4960
    2CHL1   C19  114   4.572   0.292   6.718 -0.5043  0.6524  0.3547
    2CHL1  H19A  115   4.580   0.255   6.823 -3.2718  2.6510  1.3795
    2CHL1  H19B  116   4.540   0.210   6.650 -2.7464  1.8099 -0.0915
    2CHL1  H19C  117   4.669   0.332   6.684 -0.0683 -2.4073 -2.6196
    2CHL1    C1  118   4.557   0.540   6.747 -0.2889 -0.4868  0.1137
    2CHL1   H1A  119   4.644   0.567   6.684  0.8245  0.3890  1.9466
    2CHL1   H1B  120   4.486   0.625   6.733  0.5355  0.3152  0.7043
    2CHL1    C2  121   4.595   0.547   6.897 -0.0175  0.1200 -0.3220
    2CHL1   H2A  122   4.662   0.631   6.922 -1.8505  1.9202 -1.1696
    2CHL1   H2B  123   4.660   0.457   6.906 -0.6633 -0.6163 -2.4583
    2CHL1   C20  124   4.295   0.346   6.020 -0.1711 -0.4615  0.5029
    2CHL1   H20  125   4.315   0.237   6.009 -1.3766 -0.6131 -0.4096
    2CHL1   C21  126   4.422   0.426   5.984  0.2678 -0.1320  0.5160
    2CHL1  H21A  127   4.414   0.535   6.004  2.5918  0.7341 -2.4200
    2CHL1  H21B  128   4.467   0.405   5.885  0.5194  0.1251  0.5739
    2CHL1  H21C  129   4.505   0.393   6.050 -0.0221 -0.2781  0.8085
    2CHL1   C22  130   4.184   0.382   5.912  0.4512 -0.3339  0.7215
    2CHL1  H22A  131   4.088   0.335   5.940  0.1191 -0.1532 -0.0731
    2CHL1  H22B  132   4.171   0.491   5.891  0.7779 -0.3769  0.2869
    2CHL1   C23  133   4.214   0.327   5.767  0.4419 -0.0336  0.1185
    2CHL1  H23A  134   4.305   0.373   5.723 -0.3273  1.6013  0.1743
    2CHL1  H23B  135   4.234   0.219   5.784  1.1715  0.1731  0.6169
    2CHL1   C24  136   4.101   0.347   5.667  0.3581 -0.2480  0.3852
    2CHL1  H24A  137   4.014   0.295   5.714 -1.4951  2.4280  0.1096
    2CHL1  H24B  138   4.088   0.457   5.668 -2.3499 -0.4292  3.4709
    2CHL1   C25  139   4.127   0.288   5.536  0.5205  0.0397 -0.1037
    2CHL1   H25  140   4.162   0.183   5.549  1.3419  0.1560 -1.2371
    2CHL1   C26  141   4.010   0.290   5.442  0.1220 -0.2540  0.3984
    2CHL1  H26A  142   4.020   0.213   5.363 -1.8881 -0.5093  0.3501
    2CHL1  H26B  143   3.926   0.254   5.506 -0.4970  0.7463  0.1796
    2CHL1  H26C  144   3.984   0.394   5.412 -0.3558 -0.4016  0.2841
    2CHL1   C27  145   4.224   0.373   5.458 -0.8056 -0.3251  0.3724
    2CHL1  H27A  146   4.320   0.369   5.514 -0.5467 -2.0401 -0.1246
    2CHL1  H27B  147   4.239   0.335   5.354 -0.2180 -0.2357  0.4205
    2CHL1  H27C  148   4.185   0.477   5.449 -1.3099 -0.3974  1.6130
    3CHL1    C3  149   2.951   0.457   7.075  0.1352 -0.7570  0.1461
    3CHL1    H3  150   3.060   0.456   7.054 -0.0972  0.4182 -1.3632
    3CHL1    O3  151   2.924   0.453   7.210  0.6221  0.3246  0.2289
    3CHL1   H3'  152   2.882   0.369   7.228 -1.3149  1.1524 -0.1739
    3CHL1    C4  153   2.893   0.596   7.038  0.1802  0.0522  0.0241
    3CHL1   H4A  154   2.791   0.613   7.079  1.4455  0.5092  3.2634
    3CHL1   H4B  155   2.950   0.676   7.090  2.2018 -0.6537 -1.0247
    3CHL1    C5  156   2.891   0.624   6.893 -0.5719  0.7161 -0.9024
    3CHL1    C6  157   2.959   0.729   6.832  0.1335 -0.7129  0.6162
    3CHL1    H6  158   3.025   0.797   6.888  2.2859 -0.6753 -1.7575
    3CHL1    C7  159   2.949   0.764   6.686 -0.3473 -0.2709  0.2480
    3CHL1   H7A  160   2.928   0.871   6.665 -0.6553 -0.7876 -2.5040
    3CHL1   H7B  161   3.044   0.735   6.634  0.5712  2.8000  0.0156
    3CHL1    C8  162   2.841   0.685   6.610 -0.0842 -0.2558  1.3830
    3CHL1    H8  163   2.747   0.743   6.621  1.0259  2.3888 -1.4947
    3CHL1   C14  164   2.866   0.698   6.458  0.3381  0.5123 -0.3567
    3CHL1   H14  165   2.968   0.656   6.447 -0.0651 -0.4555 -0.5692
    3CHL1   C15  166   2.872   0.829   6.387  0.1332 -0.5171 -0.0528
    3CHL1  H15A  167   2.790   0.899   6.412  0.5140  0.8284 -2.3212
    3CHL1  H15B  168   2.970   0.877   6.409  0.0108 -1.3263  2.6129
    3CHL1   C16  169   2.851   0.790   6.240  0.2313  0.4511  0.4420
    3CHL1  H16A  170   2.758   0.843   6.210 -0.7507 -1.1358  0.5824
    3CHL1  H16B  171   2.936   0.818   6.174  0.3078 -1.6182 -0.4103
    3CHL1   C17  172   2.824   0.637   6.234  0.4925 -0.5994 -1.0232
    3CHL1   H17  173   2.923   0.587   6.226  0.0385 -1.6232 -0.4379
    3CHL1   C13  174   2.771   0.607   6.375 -0.0956 -0.3058 -0.1376
    3CHL1   C18  175   2.630   0.668   6.386  0.4123 -0.5226  0.1921
    3CHL1  H18A  176   2.594   0.671   6.491  0.1811  1.2965  0.1000
    3CHL1  H18B  177   2.631   0.776   6.358  1.1953 -0.6421 -0.2668
    3CHL1  H18C  178   2.547   0.628   6.322 -1.1704  1.2827  1.0136
    3CHL1   C12  179   2.778   0.457   6.419  0.3604  0.3797  1.1358
    3CHL1  H12A  180   2.704   0.411   6.351  1.7271  0.9323 -0.8243
    3CHL1  H12B  181   2.881   0.417   6.409  0.2338  0.4532 -0.6719
    3CHL1   C11  182   2.742   0.452   6.562 -0.0286  0.2512 -1.1536
    3CHL1  H11A  183   2.634   0.475   6.573 -0.8646 -2.0427 -3.5137
    3CHL1  H11B  184   2.761   0.344   6.585  1.2108  0.5000 -0.9433
    3CHL1    C9  185   2.829   0.544   6.652 -1.1959 -0.2300 -0.1408
    3CHL1    H9  186   2.933   0.509   6.635 -1.0300  0.1701  0.0392
    3CHL1   C10  187   2.808   0.523   6.807  0.4179 -0.2799 -0.4931
    3CHL1   C19  188   2.652   0.530   6.840  0.0554 -0.2298 -0.0932
    3CHL1  H19A  189   2.599   0.452   6.782  0.7132 -1.0778  0.4165
    3CHL1  H19B  190   2.617   0.519   6.945 -1.0082  3.1652  0.0342
    3CHL1  H19C  191   2.613   0.630   6.811 -0.0365 -0.4160 -0.6052
    3CHL1    C1  192   2.861   0.378   6.844 -0.2922 -0.6078 -0.8509
    3CHL1   H1A  193   2.814   0.292   6.792  1.9249 -2.9698  0.7969
    3CHL1   H1B  194   2.966   0.369   6.811  0.7855 -0.9749  2.2809
    3CHL1    C2  195   2.869   0.356   7.001 -0.1370 -0.0766  0.3074
    3CHL1   H2A  196   2.918   0.258   7.014  1.0064  0.3224 -0.7206
    3CHL1   H2B  197   2.767   0.347   7.042 -0.6679  0.7260 -0.7850
    3CHL1   C20  198   2.744   0.590   6.115 -0.2487 -0.1533  0.1917
    3CHL1   H20  199   2.637   0.606   6.141 -0.4974  0.2754 -1.0255
    3CHL1   C21  200   2.776   0.444   6.086  0.0251 -0.3250  0.5081
    3CHL1  H21A  201   2.711   0.383   6.152 -0.7671  0.0349  0.0668
    3CHL1  H21B  202   2.883   0.414   6.090  0.1296 -0.5449 -2.1343
    3CHL1  H21C  203   2.737   0.412   5.987 -0.8237  0.9754  0.3965
    3CHL1   C22  204   2.761   0.674   5.982 -0.4979  0.8975 -0.1299
    3CHL1  H22A  205   2.734   0.779   6.002 -0.3099  1.8092 -3.8642
    3CHL1  H22B  206   2.867   0.664   5.950 -0.8663 -0.3513 -1.0809
    3CHL1   C23  207   2.676   0.631   5.859  0.1024 -0.6489  0.4638
    3CHL1  H23A  208   2.721   0.546   5.804 -1.5266 -0.1452 -1.7829
    3CHL1  H23B  209   2.576   0.596   5.894  0.5067 -1.9039  0.4052
    3CHL1   C24  210   2.665   0.740   5.757  0.4502 -0.4522  0.1324
    3CHL1  H24A  211   2.598   0.826   5.779 -0.0538 -1.1954  1.7032
    3CHL1  H24B  212   2.768   0.778   5.741  0.6919 -0.9195  0.5323
    3CHL1   C25  213   2.622   0.688   5.617  1.0526  0.2980 -0.1728
    3CHL1   H25  214   2.696   0.607   5.598 -0.1034 -0.6426 -0.7928
    3CHL1   C26  215   2.477   0.632   5.616 -0.3678  0.0174  0.5502
    3CHL1  H26A  216   2.473   0.572   5.710  1.1203  1.1717  1.3866
    3CHL1  H26B  217   2.400   0.709   5.637 -1.1573 -0.3616 -0.8173
    3CHL1  H26C  218   2.453   0.569   5.527  0.0708  1.1635 -0.4126
    3CHL1   C27  219   2.624   0.805   5.513  0.3793 -0.0465 -1.0459
    3CHL1  H27A  220   2.549   0.884   5.535  0.3001  0.7989 -3.9746
    3CHL1  H27B  221   2.726   0.845   5.499  1.4649 -0.9130  2.9851
    3CHL1  H27C  222   2.583   0.763   5.419  0.0839 -3.8293  0.5587
    4CHL1    C3  223   3.817   0.063   7.046  0.6426  0.4020  0.1398
    4CHL1    H3  224   3.785   0.169   7.033 -0.0273  0.2322  0.3769
    4CHL1    O3  225   3.843   0.050   7.183 -0.1702  0.1023 -0.3958
    4CHL1   H3'  226   3.836  -0.045   7.198 -1.7964  0.0311 -1.3157
    4CHL1    C4  227   3.717  -0.043   7.014  0.0395  0.3658 -0.2887
    4CHL1   H4A  228   3.781  -0.131   7.032  0.5501  1.1278  1.9563
    4CHL1   H4B  229   3.623  -0.064   7.069  0.4468 -0.5165  0.0853
    4CHL1    C5  230   3.690  -0.027   6.869  0.2370 -0.3574 -0.5347
    4CHL1    C6  231   3.570   0.003   6.829  0.0901 -0.4846 -0.2600
    4CHL1    H6  232   3.489   0.011   6.903  0.5011  1.9852  0.0279
    4CHL1    C7  233   3.532   0.015   6.689 -0.1393 -0.4446  0.0385
    4CHL1   H7A  234   3.438  -0.043   6.678  0.1871 -0.5096 -3.2338
    4CHL1   H7B  235   3.508   0.122   6.675  2.5295  0.2894  0.5005
    4CHL1    C8  236   3.636  -0.023   6.582 -0.0666  0.5136 -0.4139
    4CHL1    H8  237   3.629  -0.134   6.573  0.2163  0.4580  0.0254
    4CHL1   C14  238   3.599   0.031   6.446  0.5392 -0.9600  0.1585
    4CHL1   H14  239   3.594   0.141   6.460 -2.2530 -0.9493 -0.2527
    4CHL1   C15  240   3.458   0.012   6.392  0.3639 -0.5741  0.3633
    4CHL1  H15A  241   3.418  -0.085   6.427 -2.0250  0.0222 -0.5082
    4CHL1  H15B  242   3.389   0.089   6.433  0.9391 -1.4430  3.1587
    4CHL1   C16  243   3.470   0.025   6.244 -0.2036 -0.4886  1.5971
    4CHL1  H16A  244   3.452  -0.069   6.188 -1.1882  0.4944  0.1895
    4CHL1  H16B  245   3.400   0.098   6.198  1.1742  1.7853  2.8846
    4CHL1   C17  246   3.618   0.075   6.220  0.0187 -0.4596  0.2482
    4CHL1   H17  247   3.614   0.183   6.245  1.6493 -0.4078  0.3904
    4CHL1   C13  248   3.698   0.004   6.337  0.1114  0.2006  0.2466
    4CHL1   C18  249   3.725  -0.143   6.298 -0.1395  0.0676 -0.0025
    4CHL1  H18A  250   3.773  -0.206   6.376  0.7045  0.9419  0.1905
    4CHL1  H18B  251   3.626  -0.190   6.278 -1.1942  1.4355  1.6899
    4CHL1  H18C  252   3.788  -0.149   6.207  0.9399 -0.9478  0.7829
    4CHL1   C12  253   3.837   0.062   6.385  0.0370 -0.4985  0.1776
    4CHL1  H12A  254   3.906   0.054   6.298 -1.0013 -2.4348 -0.5191
    4CHL1  H12B  255   3.821   0.172   6.394 -1.5857 -0.6894 -0.0903
    4CHL1   C11  256   3.882   0.002   6.519  0.0022 -0.1642 -0.2714
    4CHL1  H11A  257   3.921  -0.100   6.500  1.3891  0.2924  0.0723
    4CHL1  H11B  258   3.980   0.041   6.550  0.7894 -0.2045 -2.4947
    4CHL1    C9  259   3.769   0.025   6.629 -0.3145 -0.3717  0.2176
    4CHL1    H9  260   3.754   0.135   6.640 -1.9475 -0.5996  0.5457
    4CHL1   C10  261   3.807  -0.029   6.767  0.1307  0.3407 -0.2412
    4CHL1   C19  262   3.862  -0.177   6.751  0.2229 -0.1887 -0.0222
    4CHL1  H19A  263   3.948  -0.175   6.680  0.1569  0.7079 -0.0927
    4CHL1  H19B  264   3.897  -0.219   6.847  0.8382 -1.6745 -0.8525
    4CHL1  H19C  265   3.781  -0.239   6.708 -0.2696 -0.1783  0.8884
    4CHL1    C1  266   3.930   0.055   6.822 -0.1048  0.2666 -0.1148
    4CHL1   H1A  267   4.020   0.019   6.767 -0.6097 -1.5484  0.1711
    4CHL1   H1B  268   3.926   0.161   6.788 -2.9912  0.1448 -0.4039
    4CHL1    C2  269   3.950   0.047   6.975  0.2457 -0.0445  0.0830
    4CHL1   H2A  270   4.025   0.123   7.004 -0.3389  0.0308  1.4950
    4CHL1   H2B  271   3.994  -0.054   6.992  1.0392  0.2044 -0.4289
    4CHL1   C20  272   3.669   0.066   6.074  0.0240  0.8934 -0.3529
    4CHL1   H20  273   3.695  -0.041   6.057  1.8784  0.2780  4.8273
    4CHL1   C21  274   3.798   0.153   6.043  0.9572 -0.4339 -0.0071
    4CHL1  H21A  275   3.834   0.144   5.939  1.2460 -0.8075  0.1235
    4CHL1  H21B  276   3.882   0.126   6.111 -0.0478  0.8748  1.8755
    4CHL1  H21C  277   3.777   0.259   6.070 -0.3088 -0.7321  0.2296
    4CHL1   C22  278   3.569   0.094   5.955  0.5308  0.0444  0.3133
    4CHL1  H22A  279   3.465   0.066   5.982  0.3386  0.6884  0.2572
    4CHL1  H22B  280   3.567   0.203   5.932  0.1909 -0.2938 -1.3783
    4CHL1   C23  281   3.605   0.016   5.826 -0.2528  0.5880  0.0929
    4CHL1  H23A  282   3.712   0.041   5.811  0.7196 -3.0424 -0.1283
    4CHL1  H23B  283   3.602  -0.093   5.849 -1.6406  0.1984 -1.7018
    4CHL1   C24  284   3.504   0.056   5.714 -0.6893  0.7979 -0.6066
    4CHL1  H24A  285   3.411   0.001   5.737 -0.2409 -0.2191 -1.1688
    4CHL1  H24B  286   3.479   0.165   5.719 -1.2655  0.6143  1.9407
    4CHL1   C25  287   3.566   0.021   5.578 -0.1180 -0.1828 -0.0157
    4CHL1   H25  288   3.675   0.043   5.578  0.3965 -2.4484 -0.1077
    4CHL1   C26  289   3.546  -0.123   5.542  0.0947  0.6012  0.5165
    4CHL1  H26A  290   3.631  -0.178   5.589 -1.1606 -2.2127 -0.2937
    4CHL1  H26B  291   3.450  -0.147   5.593 -0.0269 -0.0593 -0.0111
    4CHL1  H26C  292   3.537  -0.146   5.434 -1.6979 -0.4678  0.8621
    4CHL1   C27  293   3.494   0.118   5.480 -0.2120  0.5285 -0.0131
    4CHL1  H27A  294   3.510   0.223   5.513  2.7122  0.4034 -0.7769
    4CHL1  H27B  295   3.542   0.115   5.380 -2.7709  0.6002 -1.3313
    4CHL1  H27C  296   3.385   0.095   5.486 -0.0839 -0.0576  0.1643
    5CHL1    C3  297   2.812   2.155   7.060 -0.2871 -0.4713 -0.1566
    5CHL1    H3  298   2.862   2.070   7.110 -0.8092 -1.2494 -0.9326
    5CHL1    O3  299   2.753   2.246   7.155  0.1673  0.5071  0.1643
    5CHL1   H3'  300   2.717   2.313   7.097  1.7791  1.7267  0.5053
    5CHL1    C4  301   2.909   2.226   6.961 -0.5071 -0.4811 -0.3064
    5CHL1   H4A  302   2.866   2.318   6.916 -1.8495 -1.0738 -0.2565
    5CHL1   H4B  303   2.993   2.270   7.019 -0.1349  0.6843 -1.6595
    5CHL1    C5  304   2.959   2.129   6.859  0.2447  0.0658  0.3511
    5CHL1    C6  305   3.087   2.099   6.849 -0.2682 -0.2011  0.0565
    5CHL1    H6  306   3.153   2.160   6.912 -0.1230  1.2585 -1.4320
    5CHL1    C7  307   3.146   2.004   6.752  0.1285 -0.5294  0.2751
    5CHL1   H7A  308   3.240   2.054   6.720 -0.3673  1.5835  1.9038
    5CHL1   H7B  309   3.165   1.904   6.798 -1.4412 -1.3143 -0.6634
    5CHL1    C8  310   3.045   1.988   6.634  0.3354  0.1287 -0.3087
    5CHL1    H8  311   3.037   2.088   6.586 -0.2439 -1.0410 -2.8096
    5CHL1   C14  312   3.089   1.884   6.531  0.2579 -0.1262 -0.0879
    5CHL1   H14  313   3.082   1.788   6.585 -3.1380 -0.1372 -0.3017
    5CHL1   C15  314   3.235   1.886   6.481  0.2135  1.1302  0.2863
    5CHL1  H15A  315   3.268   1.991   6.468 -0.7758  1.3793 -0.3028
    5CHL1  H15B  316   3.298   1.822   6.547 -1.6570 -1.2060 -0.0651
    5CHL1   C16  317   3.219   1.829   6.339 -0.4262 -0.4407  0.0835
    5CHL1  H16A  318   3.213   1.909   6.262  0.5253 -1.6888 -1.3383
    5CHL1  H16B  319   3.301   1.760   6.313  0.2997 -0.2921  1.8422
    5CHL1   C17  320   3.075   1.763   6.328  0.5275  0.8028  0.5618
    5CHL1   H17  321   3.083   1.668   6.385  2.7924  0.3053 -0.4584
    5CHL1   C13  322   2.990   1.859   6.416  0.0751 -0.2146 -0.4738
    5CHL1   C18  323   2.965   1.991   6.330 -0.3972  0.0935  0.2610
    5CHL1  H18A  324   3.056   2.049   6.303 -1.1318  0.4415 -1.6095
    5CHL1  H18B  325   2.898   1.975   6.243  0.0267  0.7181 -0.1881
    5CHL1  H18C  326   2.911   2.051   6.407 -0.5095 -0.1112  0.3414
    5CHL1   C12  327   2.853   1.806   6.472  0.2566 -0.3122 -0.1821
    5CHL1  H12A  328   2.776   1.799   6.392 -1.2890  0.7794  1.1473
    5CHL1  H12B  329   2.873   1.707   6.519 -1.8717 -0.9065 -0.4436
    5CHL1   C11  330   2.798   1.904   6.577  0.1172  1.3098 -0.1436
    5CHL1  H11A  331   2.745   1.988   6.528 -1.9250  1.6804  2.4949
    5CHL1  H11B  332   2.720   1.843   6.627 -1.0674  0.7733 -2.5120
    5CHL1    C9  333   2.906   1.949   6.691  0.4720  0.2183 -0.3085
    5CHL1    H9  334   2.918   1.860   6.756  0.4720  0.0314 -0.5631
    5CHL1   C10  335   2.851   2.061   6.780  0.2378  0.5386 -0.0871
    5CHL1   C19  336   2.790   2.171   6.692  1.1246  0.3974  0.2626
    5CHL1  H19A  337   2.863   2.196   6.612  3.6552 -2.2581  1.5819
    5CHL1  H19B  338   2.702   2.130   6.639  1.4823  0.1023 -0.1157
    5CHL1  H19C  339   2.752   2.254   6.755  0.1682 -1.3250  2.0589
    5CHL1    C1  340   2.738   1.995   6.873  0.1676 -0.3813 -0.5538
    5CHL1   H1A  341   2.649   1.948   6.825 -0.0020 -0.1060 -0.5045
    5CHL1   H1B  342   2.784   1.913   6.933  2.6117 -1.0542 -3.0750
    5CHL1    C2  343   2.694   2.099   6.983 -0.2839 -0.0763  0.7151
    5CHL1   H2A  344   2.615   2.060   7.052  0.8786  0.2250  2.2747
    5CHL1   H2B  345   2.646   2.184   6.929  0.9421 -0.3836 -0.9189
    5CHL1   C20  346   3.034   1.720   6.179 -0.2028 -0.3687  0.7863
    5CHL1   H20  347   3.030   1.812   6.117  0.8622 -1.1673 -0.5142
    5CHL1   C21  348   2.898   1.642   6.183  0.0926  0.2919  0.4734
    5CHL1  H21A  349   2.892   1.575   6.271  0.8220  0.3880  0.6045
    5CHL1  H21B  350   2.878   1.586   6.089 -0.7721 -0.2311  0.9557
    5CHL1  H21C  351   2.817   1.717   6.195 -0.0045  0.1882  0.4708
    5CHL1   C22  352   3.147   1.641   6.105  0.1003  0.3212  0.5099
    5CHL1  H22A  353   3.249   1.685   6.104  1.2789 -2.2830  0.4917
    5CHL1  H22B  354   3.162   1.541   6.152  4.3604 -0.1632 -1.3974
    5CHL1   C23  355   3.116   1.632   5.959 -0.0053  0.0398  0.2940
    5CHL1  H23A  356   3.031   1.570   5.926  0.4806 -0.7449  0.4928
    5CHL1  H23B  357   3.083   1.730   5.917 -0.7811 -0.4738 -0.3223
    5CHL1   C24  358   3.224   1.549   5.879 -0.3778 -0.5274 -0.4891
    5CHL1  H24A  359   3.310   1.618   5.863 -0.2643 -0.9032 -1.5764
    5CHL1  H24B  360   3.255   1.459   5.937  3.4812  1.5195  0.9991
    5CHL1   C25  361   3.182   1.508   5.732  0.0938 -0.3663 -0.7015
    5CHL1   H25  362   3.078   1.469   5.736  0.1408 -0.4862 -0.6704
    5CHL1   C26  363   3.162   1.634   5.647 -0.8288 -0.4540 -0.6095
    5CHL1  H26A  364   3.080   1.702   5.678  0.7764  1.1130  0.4672
    5CHL1  H26B  365   3.255   1.696   5.645 -0.3265 -1.1737 -0.1462
    5CHL1  H26C  366   3.148   1.609   5.540  0.7928  0.0365 -0.9677
    5CHL1   C27  367   3.285   1.409   5.675 -0.3013 -0.8281  0.1398
    5CHL1  H27A  368   3.281   1.416   5.564  0.9441 -4.0385 -0.2331
    5CHL1  H27B  369   3.385   1.436   5.715  0.4522 -1.8006 -0.9996
    5CHL1  H27C  370   3.265   1.304   5.707  0.8288 -1.1429 -0.1509
    6CHL1    C3  371   1.228   6.523   6.676  0.4227 -0.5666 -0.7264
    6CHL1    H3  372   1.321   6.463   6.687  0.7934 -0.0228 -0.8644
    6CHL1    O3  373   1.157   6.532   6.796 -0.1311 -0.2054  0.2484
    6CHL1   H3'  374   1.077   6.580   6.774  0.0915 -0.2620 -0.7353
    6CHL1    C4  375   1.261   6.665   6.619  0.2848 -0.0095  0.1823
    6CHL1   H4A  376   1.172   6.731   6.622  0.5655  0.3499  0.7767
    6CHL1   H4B  377   1.333   6.714   6.688 -0.1901  1.3869 -0.2820
    6CHL1    C5  378   1.317   6.676   6.480 -0.4942 -0.4737  0.9927
    6CHL1    C6  379   1.426   6.747   6.440  0.6704 -0.5349 -0.6399
    6CHL1    H6  380   1.477   6.807   6.517 -2.3355  1.0245  0.2851
    6CHL1    C7  381   1.480   6.749   6.300  0.0643 -0.2670  0.8604
    6CHL1   H7A  382   1.532   6.844   6.275 -0.3731 -0.1145  0.5227
    6CHL1   H7B  383   1.559   6.671   6.302  0.4102  0.0352 -0.1529
    6CHL1    C8  384   1.366   6.700   6.197 -1.3015 -0.2007  0.4466
    6CHL1    H8  385   1.296   6.785   6.183 -1.0626 -0.0170  0.3626
    6CHL1   C14  386   1.431   6.663   6.063 -0.4049  0.0048 -0.0983
    6CHL1   H14  387   1.504   6.581   6.082  1.3289  1.1178 -1.5921
    6CHL1   C15  388   1.517   6.774   5.997 -0.2995  0.3025  0.4357
    6CHL1  H15A  389   1.464   6.870   6.011 -1.2116 -0.0025 -0.7849
    6CHL1  H15B  390   1.620   6.770   6.039 -0.1571 -0.3581  0.0411
    6CHL1   C16  391   1.534   6.711   5.855 -0.8401 -0.0750 -0.0804
    6CHL1  H16A  392   1.525   6.799   5.788  0.3548 -0.4537 -0.7582
    6CHL1  H16B  393   1.638   6.672   5.851 -0.8255 -0.6840  3.3188
    6CHL1   C17  394   1.423   6.612   5.832  0.2601  0.6291  0.4142
    6CHL1   H17  395   1.460   6.509   5.847 -0.7469  0.1123 -0.4364
    6CHL1   C13  396   1.330   6.633   5.955 -0.1650  0.9014  0.3174
    6CHL1   C18  397   1.230   6.751   5.935  0.5289 -0.6042  0.1586
    6CHL1  H18A  398   1.170   6.724   5.845 -0.1321 -1.1853  0.7627
    6CHL1  H18B  399   1.149   6.757   6.011  0.8171 -2.9626  0.7341
    6CHL1  H18C  400   1.271   6.853   5.919 -2.0197  0.0010 -4.0190
    6CHL1   C12  401   1.257   6.507   6.008  0.0586  0.8042 -0.3612
    6CHL1  H12A  402   1.175   6.474   5.940 -1.5333  0.1039  1.7762
    6CHL1  H12B  403   1.327   6.421   6.019 -0.1082  0.4263 -1.9583
    6CHL1   C11  404   1.189   6.524   6.139  0.1482 -0.6054 -0.4007
    6CHL1  H11A  405   1.113   6.603   6.120  1.7536  0.8292 -1.0542
    6CHL1  H11B  406   1.125   6.437   6.165 -2.5283  1.6468  1.1426
    6CHL1    C9  407   1.286   6.578   6.247 -0.1118 -0.3325  0.3668
    6CHL1    H9  408   1.354   6.490   6.258  0.0269 -0.0943  1.5181
    6CHL1   C10  409   1.225   6.602   6.384 -0.0086  0.3657 -0.2605
    6CHL1   C19  410   1.086   6.670   6.369 -0.6220  0.1987  0.2761
    6CHL1  H19A  411   1.037   6.725   6.452 -3.3260  0.0690 -1.1320
    6CHL1  H19B  412   1.084   6.751   6.293 -3.6141  1.6932  1.7681
    6CHL1  H19C  413   1.013   6.596   6.332  0.2868  0.5095 -2.2971
    6CHL1    C1  414   1.200   6.454   6.441 -0.2758  0.5730  0.5676
    6CHL1   H1A  415   1.136   6.396   6.372  1.6529 -1.2362  0.1761
    6CHL1   H1B  416   1.303   6.413   6.447  0.2858  1.6557 -1.0187
    6CHL1    C2  417   1.143   6.450   6.577 -0.1787  0.4133 -0.9408
    6CHL1   H2A  418   1.142   6.346   6.616  2.7781 -0.1992 -2.2686
    6CHL1   H2B  419   1.035   6.477   6.575  0.0658  1.3634 -2.3394
    6CHL1   C20  420   1.361   6.621   5.694 -0.0999 -0.1309  0.2102
    6CHL1   H20  421   1.323   6.724   5.676  0.7837  0.5709  2.0440
    6CHL1   C21  422   1.242   6.526   5.681  0.1418  0.0123 -0.3708
    6CHL1  H21A  423   1.157   6.552   5.748 -0.4591  1.2571 -1.5607
    6CHL1  H21B  424   1.280   6.425   5.707  0.8153  0.5268  0.7379
    6CHL1  H21C  425   1.201   6.515   5.578 -0.0516 -0.2409 -0.2675
    6CHL1   C22  426   1.469   6.587   5.588  0.3814 -0.1261  0.4937
    6CHL1  H22A  427   1.408   6.593   5.495  0.0683 -2.6769  0.4535
    6CHL1  H22B  428   1.549   6.662   5.574  1.2375 -1.1882 -0.5120
    6CHL1   C23  429   1.536   6.448   5.592  0.4099 -0.2535  0.0059
    6CHL1  H23A  430   1.601   6.454   5.682  0.4872 -2.9100  0.2062
    6CHL1  H23B  431   1.458   6.370   5.611  0.6864 -1.0915 -2.0482
    6CHL1   C24  432   1.617   6.413   5.467 -0.2791  0.2911  0.3212
    6CHL1  H24A  433   1.576   6.452   5.371  1.6034  3.5661  0.6835
    6CHL1  H24B  434   1.719   6.458   5.471 -0.7404  1.5552 -1.0335
    6CHL1   C25  435   1.635   6.259   5.466  0.0729 -0.1563 -0.2379
    6CHL1   H25  436   1.536   6.209   5.466 -0.2175  0.3775 -1.2723
    6CHL1   C26  437   1.710   6.203   5.343 -1.3867  0.6995 -0.3254
    6CHL1  H26A  438   1.650   6.213   5.250 -0.2964  0.3162 -1.0969
    6CHL1  H26B  439   1.802   6.265   5.348  0.3493 -1.8201  1.8506
    6CHL1  H26C  440   1.731   6.096   5.364 -3.0818  0.3806 -0.1010
    6CHL1   C27  441   1.710   6.221   5.594  0.1667  0.4246 -0.5064
    6CHL1  H27A  442   1.734   6.113   5.590 -0.0929  0.4078 -2.1213
    6CHL1  H27B  443   1.801   6.281   5.618 -0.5570  0.5656  2.2116
    6CHL1  H27C  444   1.642   6.236   5.681 -1.0262  1.2099 -1.5375
    7CHL1    C3  445   2.762   5.305   6.529  0.0294 -0.0149 -0.6521
    7CHL1    H3  446   2.666   5.272   6.483 -0.0970 -1.2307  0.4148
    7CHL1    O3  447   2.750   5.297   6.674  0.6419  0.0836  0.3116
    7CHL1   H3'  448   2.684   5.367   6.680  0.4254  0.3670 -3.2935
    7CHL1    C4  449   2.884   5.219   6.493 -0.0578  0.4182 -0.2863
    7CHL1   H4A  450   2.973   5.265   6.541  0.7684  0.3319 -1.6615
    7CHL1   H4B  451   2.865   5.118   6.534  1.5740 -0.6956 -2.0631
    7CHL1    C5  452   2.902   5.230   6.339  0.1886 -0.5025  0.4483
    7CHL1    C6  453   2.896   5.119   6.265  0.0775 -1.1693 -0.2860
    7CHL1    H6  454   2.875   5.026   6.319 -0.5284 -1.9925 -1.8649
    7CHL1    C7  455   2.926   5.113   6.119  0.0112 -0.1329 -0.7148
    7CHL1   H7A  456   3.002   5.032   6.108 -1.2387 -1.4750  0.2611
    7CHL1   H7B  457   2.832   5.087   6.067 -1.1112  1.5910  0.3603
    7CHL1    C8  458   2.986   5.249   6.065  1.0701 -0.2241 -0.2881
    7CHL1    H8  459   3.094   5.246   6.090  0.7417 -1.4193  1.1298
    7CHL1   C14  460   2.960   5.258   5.920 -0.0381 -0.2152  0.5264
    7CHL1   H14  461   2.853   5.247   5.889  0.2954 -1.4138 -0.2862
    7CHL1   C15  462   3.014   5.133   5.842 -0.2872 -0.2116 -0.5789
    7CHL1  H15A  463   3.122   5.120   5.866 -0.2584  1.4325  0.3225
    7CHL1  H15B  464   2.962   5.038   5.864 -0.0794  0.2847  2.5530
    7CHL1   C16  465   3.016   5.185   5.694  0.4985 -0.3987  0.0408
    7CHL1  H16A  466   3.106   5.133   5.656 -0.0139 -2.9419  2.0414
    7CHL1  H16B  467   2.925   5.147   5.643 -0.2695  0.5238  0.6763
    7CHL1   C17  468   2.997   5.343   5.703 -0.1075  0.0882 -0.1050
    7CHL1   H17  469   2.887   5.360   5.696 -0.6012 -2.3817  0.6810
    7CHL1   C13  470   3.023   5.383   5.849  0.2219  0.3590 -0.8747
    7CHL1   C18  471   3.178   5.406   5.862  0.5639  0.1125 -0.3832
    7CHL1  H18A  472   3.224   5.311   5.828 -2.0949 -2.0251  1.5237
    7CHL1  H18B  473   3.223   5.497   5.817  0.8848  0.7351  1.1236
    7CHL1  H18C  474   3.214   5.405   5.967 -0.6047 -0.0264  0.0291
    7CHL1   C12  475   2.955   5.503   5.906 -0.1523 -0.2256  0.1319
    7CHL1  H12A  476   2.986   5.597   5.854  2.2817 -0.3586  1.2335
    7CHL1  H12B  477   2.844   5.507   5.895 -0.0946  1.1626 -0.2091
    7CHL1   C11  478   2.965   5.503   6.060  0.3956 -0.4574 -0.0710
    7CHL1  H11A  479   3.071   5.524   6.082  0.6124  0.9506 -2.1614
    7CHL1  H11B  480   2.899   5.575   6.113  1.9418 -0.1436  1.4870
    7CHL1    C9  481   2.920   5.372   6.129 -0.2642  0.6183 -0.2721
    7CHL1    H9  482   2.812   5.364   6.105 -0.9319 -2.8699  2.9601
    7CHL1   C10  483   2.926   5.375   6.287 -0.2165 -0.4686  0.0001
    7CHL1   C19  484   3.066   5.415   6.333  0.7486  0.1677  0.0703
    7CHL1  H19A  485   3.069   5.426   6.443  2.3623  2.2276 -0.1243
    7CHL1  H19B  486   3.131   5.329   6.305  0.6699 -0.9874  3.0829
    7CHL1  H19C  487   3.090   5.519   6.303 -0.7615  0.7664  0.8128
    7CHL1    C1  488   2.814   5.467   6.346  0.3983  0.2460 -0.4372
    7CHL1   H1A  489   2.853   5.567   6.317  1.1792  0.6034  1.6232
    7CHL1   H1B  490   2.715   5.460   6.297  0.5583  2.2615 -1.1733
    7CHL1    C2  491   2.796   5.452   6.501  0.4419  0.0816 -0.3761
    7CHL1   H2A  492   2.709   5.518   6.520  0.2269  0.5037 -2.6012
    7CHL1   H2B  493   2.887   5.486   6.555  0.6556 -0.2708 -0.5123
    7CHL1   C20  494   3.054   5.432   5.583 -0.6598  0.1294  0.3563
    7CHL1   H20  495   3.074   5.530   5.632  0.5188 -0.6803  1.5649
    7CHL1   C21  496   2.943   5.458   5.478 -0.6489 -0.7026 -0.1340
    7CHL1  H21A  497   2.969   5.521   5.391 -0.6647  0.1059  0.4284
    7CHL1  H21B  498   2.868   5.521   5.532 -0.1240  0.4761 -0.7421
    7CHL1  H21C  499   2.902   5.360   5.448 -3.5200  0.9238 -2.0153
    7CHL1   C22  500   3.179   5.378   5.527 -0.0391 -0.7119  0.0105
    7CHL1  H22A  501   3.255   5.353   5.604 -0.8181 -0.5771  0.8393
    7CHL1  H22B  502   3.150   5.281   5.481  1.3274 -0.6869 -0.9496
    7CHL1   C23  503   3.255   5.468   5.431 -0.9334  0.3487  0.8981
    7CHL1  H23A  504   3.185   5.519   5.360  1.1917  0.0922 -1.5192
    7CHL1  H23B  505   3.317   5.546   5.480  2.0638 -0.0656 -1.9160
    7CHL1   C24  506   3.362   5.389   5.345  0.2782 -0.1873  0.0442
    7CHL1  H24A  507   3.425   5.321   5.407  1.1600  0.4800 -0.0944
    7CHL1  H24B  508   3.324   5.326   5.263  0.0497  0.9162 -0.7196
    7CHL1   C25  509   3.461   5.480   5.268  0.4105 -0.0923 -0.2899
    7CHL1   H25  510   3.512   5.554   5.334 -1.5360  1.3348 -0.2880
    7CHL1   C26  511   3.576   5.390   5.212 -0.0380 -0.0612  0.0998
    7CHL1  H26A  512   3.639   5.436   5.134 -0.4656 -0.2202 -0.3409
    7CHL1  H26B  513   3.642   5.352   5.294 -0.8477  0.4868  1.0330
    7CHL1  H26C  514   3.537   5.302   5.157  1.6416 -0.5520 -0.3794
    7CHL1   C27  515   3.388   5.561   5.160  0.0683  0.0778  0.1161
    7CHL1  H27A  516   3.340   5.487   5.092  2.1879 -3.1372  1.8571
    7CHL1  H27B  517   3.318   5.636   5.203 -0.9683 -0.7927 -0.0048
    7CHL1  H27C  518   3.463   5.623   5.107  1.0259 -0.8579  0.3456
    8CHL1    C3  519   0.692   5.719   6.446  0.6651  0.7271 -0.6827
    8CHL1    H3  520   0.789   5.765   6.419  0.7572  0.7487 -0.3101
    8CHL1    O3  521   0.687   5.692   6.586  0.0532  0.1541 -0.1691
    8CHL1   H3'  522   0.598   5.661   6.603  0.1548 -0.8933 -1.3786
    8CHL1    C4  523   0.576   5.797   6.382 -0.5587  0.8514  0.4223
    8CHL1   H4A  524   0.484   5.759   6.431 -0.0893 -1.5652 -0.4372
    8CHL1   H4B  525   0.591   5.904   6.409  0.9320  1.7426 -3.2496
    8CHL1    C5  526   0.568   5.814   6.229  0.0907  0.5345 -0.2129
    8CHL1    C6  527   0.558   5.933   6.162 -0.7558 -0.4096 -0.0167
    8CHL1    H6  528   0.551   6.029   6.215  0.1148 -0.6572  0.5690
    8CHL1    C7  529   0.556   5.947   6.015  0.1166  0.1288  0.3320
    8CHL1   H7A  530   0.478   6.019   5.982  0.9149  0.2287 -1.4671
    8CHL1   H7B  531   0.646   6.002   5.978 -0.9885 -0.8959 -4.5283
    8CHL1    C8  532   0.552   5.814   5.937  0.1081 -0.2470  0.2075
    8CHL1    H8  533   0.445   5.784   5.937 -0.2480  0.9345 -1.3511
    8CHL1   C14  534   0.602   5.828   5.790 -0.2503  0.2317 -0.1993
    8CHL1   H14  535   0.713   5.835   5.795  0.0427 -2.6998 -0.6087
    8CHL1   C15  536   0.547   5.944   5.716 -0.2074 -0.3251  0.3522
    8CHL1  H15A  537   0.441   5.958   5.746  0.7814 -0.1825  4.4280
    8CHL1  H15B  538   0.596   6.041   5.735  0.3834 -0.3456 -0.9457
    8CHL1   C16  539   0.566   5.896   5.570  0.1018  0.8703  0.1954
    8CHL1  H16A  540   0.470   5.872   5.520 -0.7816  2.8600  0.8836
    8CHL1  H16B  541   0.626   5.969   5.511  1.8779 -1.9010 -1.6909
    8CHL1   C17  542   0.638   5.756   5.566 -0.0058  0.0234 -0.1870
    8CHL1   H17  543   0.747   5.769   5.582 -0.1550  1.3124 -0.1339
    8CHL1   C13  544   0.587   5.704   5.707  0.2134  0.3998 -0.2167
    8CHL1   C18  545   0.433   5.661   5.695 -1.0734 -0.8213  0.2377
    8CHL1  H18A  546   0.368   5.739   5.650  0.3435  1.1197  1.3897
    8CHL1  H18B  547   0.428   5.563   5.643  0.5853 -0.5626 -0.4732
    8CHL1  H18C  548   0.389   5.639   5.794  0.8313  0.3297  1.3950
    8CHL1   C12  549   0.667   5.586   5.774  0.3747 -0.0751  0.6907
    8CHL1  H12A  550   0.638   5.495   5.717 -1.0412  0.2915  0.7869
    8CHL1  H12B  551   0.775   5.606   5.758  0.3993 -0.0864  0.8396
    8CHL1   C11  552   0.618   5.566   5.915  0.0581 -0.2271 -0.4697
    8CHL1  H11A  553   0.518   5.518   5.909  1.0553 -2.2498 -3.3248
    8CHL1  H11B  554   0.680   5.493   5.971  0.2675  0.5346  0.3093
    8CHL1    C9  555   0.627   5.694   6.001 -0.6713 -0.0805  0.3010
    8CHL1    H9  556   0.735   5.717   6.012 -0.9737  0.5193  2.8125
    8CHL1   C10  557   0.590   5.675   6.153 -0.1801  0.9895  1.0085
    8CHL1   C19  558   0.452   5.602   6.161 -0.1762  0.0293  0.1640
    8CHL1  H19A  559   0.466   5.498   6.123  0.1045  0.5303 -1.1576
    8CHL1  H19B  560   0.411   5.590   6.264  0.7686 -2.6440  0.2988
    8CHL1  H19C  561   0.377   5.654   6.098  0.3390 -0.3661 -0.7987
    8CHL1    C1  562   0.702   5.593   6.227  0.1132  0.4900 -0.2220
    8CHL1   H1A  563   0.716   5.493   6.180  3.0322  1.5760 -1.9149
    8CHL1   H1B  564   0.800   5.642   6.211  0.7784 -0.1176  1.7789
    8CHL1    C2  565   0.686   5.578   6.379  0.0086 -0.3573  0.0523
    8CHL1   H2A  566   0.769   5.517   6.421 -2.0238 -2.7688  0.8475
    8CHL1   H2B  567   0.596   5.518   6.405  2.3748 -3.6096  1.4519
    8CHL1   C20  568   0.602   5.680   5.439 -0.0514  0.0593  0.6847
    8CHL1   H20  569   0.491   5.675   5.430 -0.1189 -0.7740  1.6723
    8CHL1   C21  570   0.653   5.532   5.432  0.0209 -0.6959 -0.3962
    8CHL1  H21A  571   0.761   5.528   5.458 -0.1818  2.4057  1.4246
    8CHL1  H21B  572   0.631   5.482   5.335 -0.1726 -2.5789  0.5785
    8CHL1  H21C  573   0.594   5.470   5.503 -1.0641  0.3524 -0.3491
    8CHL1   C22  574   0.644   5.748   5.307 -1.0304  0.9219 -0.2874
    8CHL1  H22A  575   0.614   5.681   5.224 -0.8267  1.7727 -1.0597
    8CHL1  H22B  576   0.595   5.847   5.303 -0.0170  1.4006 -3.9274
    8CHL1   C23  577   0.796   5.778   5.297  1.0818 -0.5466  0.1112
    8CHL1  H23A  578   0.829   5.817   5.396  1.0930  3.6917 -1.3479
    8CHL1  H23B  579   0.857   5.686   5.283 -0.0643 -1.3838  0.4696
    8CHL1   C24  580   0.834   5.876   5.200 -0.5263  0.7253  0.5018
    8CHL1  H24A  581   0.785   5.976   5.209  1.5176  1.9805 -1.2022
    8CHL1  H24B  582   0.938   5.911   5.218  0.3442 -2.7274  3.2791
    8CHL1   C25  583   0.818   5.845   5.049  0.5306 -0.2547 -0.5973
    8CHL1   H25  584   0.715   5.809   5.031  0.1915  1.0332 -1.4307
    8CHL1   C26  585   0.832   5.969   4.962  0.7620 -0.6118  0.3682
    8CHL1  H26A  586   0.817   5.936   4.857 -0.6526  0.8520  0.0724
    8CHL1  H26B  587   0.740   6.029   4.977  0.7487 -0.5892  0.1981
    8CHL1  H26C  588   0.929   6.022   4.971  2.8856 -4.1613 -0.0417
    8CHL1   C27  589   0.910   5.736   5.002 -0.9676 -0.0166 -0.1722
    8CHL1  H27A  590   0.882   5.643   5.055 -1.7187 -0.1575 -0.7974
    8CHL1  H27B  591   0.911   5.729   4.891 -0.6957  0.0114 -0.1735
    8CHL1  H27C  592   1.013   5.766   5.033 -1.3450  1.6690 -0.4661
    9CHL1    C3  593   4.955   5.817   6.558  0.2466  1.1972 -0.2195
    9CHL1    H3  594   4.854   5.864   6.550 -0.9540 -1.3650 -1.0484
    9CHL1    O3  595   4.962   5.781   6.697  0.7972  0.4041 -0.2366
    9CHL1   H3'  596   5.038   5.724   6.713  0.7218 -1.2638 -4.4342
    9CHL1    C4  597   4.963   5.686   6.478 -0.0144  0.0341 -0.0168
    9CHL1   H4A  598   5.060   5.635   6.499 -0.5396  0.1324  3.0647
    9CHL1   H4B  599   4.880   5.622   6.515 -0.3173  0.8026  0.6459
    9CHL1    C5  600   4.969   5.709   6.324  0.0069  1.1803 -0.3367
    9CHL1    C6  601   4.864   5.656   6.250  0.4384 -0.2595  1.1761
    9CHL1    H6  602   4.782   5.608   6.305 -2.5152  1.0857 -1.6956
    9CHL1    C7  603   4.841   5.697   6.108 -1.0996 -0.2047 -0.0863
    9CHL1   H7A  604   4.797   5.611   6.054 -1.7554  0.5253 -0.7415
    9CHL1   H7B  605   4.765   5.778   6.104 -1.1723 -0.3092 -1.3170
    9CHL1    C8  606   4.977   5.739   6.037 -1.1235  0.3670 -1.0374
    9CHL1    H8  607   5.046   5.654   6.023 -0.3193  0.7437  0.3806
    9CHL1   C14  608   4.949   5.809   5.902 -0.0179  0.0272 -0.3107
    9CHL1   H14  609   4.879   5.894   5.912 -0.9480 -0.6971 -0.4900
    9CHL1   C15  610   4.882   5.717   5.806  0.1449 -0.4436 -0.0124
    9CHL1  H15A  611   4.917   5.612   5.812 -2.2774 -1.2643  0.5285
    9CHL1  H15B  612   4.772   5.729   5.817 -0.2626 -0.3431 -3.1019
    9CHL1   C16  613   4.905   5.780   5.667  0.1449 -0.0528 -0.3573
    9CHL1  H16A  614   4.937   5.695   5.603 -0.7136 -0.6328 -0.0291
    9CHL1  H16B  615   4.808   5.806   5.619 -0.9318  0.3181  1.9181
    9CHL1   C17  616   5.002   5.897   5.689  1.2424 -0.2031 -0.7489
    9CHL1   H17  617   4.924   5.972   5.715  0.2316 -1.9165  1.5190
    9CHL1   C13  618   5.070   5.861   5.822 -0.0886 -0.0423  0.5690
    9CHL1   C18  619   5.180   5.749   5.787  0.2509 -0.5294  0.0521
    9CHL1  H18A  620   5.126   5.666   5.736  0.6279 -0.5113 -0.3818
    9CHL1  H18B  621   5.254   5.798   5.720 -2.1288  1.2555 -1.4182
    9CHL1  H18C  622   5.226   5.713   5.881 -0.1166  0.7257  0.7331
    9CHL1   C12  623   5.132   5.975   5.910  0.4450 -0.3572 -0.3244
    9CHL1  H12A  624   5.225   5.997   5.853  0.4031 -1.7308 -0.9469
    9CHL1  H12B  625   5.060   6.060   5.918  0.1838 -0.7070  1.6780
    9CHL1   C11  626   5.153   5.922   6.047 -0.5639 -0.8257 -0.2691
    9CHL1  H11A  627   5.243   5.858   6.035 -2.3301 -3.3546 -0.9603
    9CHL1  H11B  628   5.187   6.012   6.103  1.8787 -2.1941  0.5758
    9CHL1    C9  629   5.039   5.856   6.120 -0.3469  0.7883  0.0640
    9CHL1    H9  630   4.950   5.922   6.125 -0.9672  0.1612 -1.7649
    9CHL1   C10  631   5.066   5.803   6.266 -0.1997 -0.4386 -0.0490
    9CHL1   C19  632   5.207   5.736   6.269  0.0285  0.2684  0.1008
    9CHL1  H19A  633   5.216   5.644   6.207  1.8003  0.0081  0.7053
    9CHL1  H19B  634   5.282   5.813   6.241 -2.0521  2.7275  0.8798
    9CHL1  H19C  635   5.237   5.707   6.372  1.9680 -4.0649 -1.4425
    9CHL1    C1  636   5.075   5.931   6.354  0.7921  0.5311  0.0557
    9CHL1   H1A  637   5.172   5.983   6.337  1.0070  0.1637  0.1342
    9CHL1   H1B  638   4.997   6.005   6.329 -0.8815 -0.8351  0.9949
    9CHL1    C2  639   5.069   5.910   6.511  0.3285 -0.7827 -0.2548
    9CHL1   H2A  640   5.053   6.001   6.572 -3.0860 -0.3783 -1.5595
    9CHL1   H2B  641   5.166   5.865   6.544  0.3089 -0.6238  0.0231
    9CHL1   C20  642   5.082   5.934   5.568  0.1428 -0.1718  0.0490
    9CHL1   H20  643   5.183   5.963   5.605  1.1357 -0.0309 -2.5902
    9CHL1   C21  644   5.020   6.062   5.511 -0.3822 -0.8433 -0.2600
    9CHL1  H21A  645   5.091   6.121   5.449  0.6774  2.7277  3.8343
    9CHL1  H21B  646   5.004   6.127   5.600  0.6614 -0.0575 -0.6346
    9CHL1  H21C  647   4.916   6.050   5.474 -0.7959  1.4397  0.0102
    9CHL1   C22  648   5.108   5.828   5.456  1.1173 -0.7121  0.2673
    9CHL1  H22A  649   5.133   5.727   5.497  1.6350 -0.3241  0.9215
    9CHL1  H22B  650   5.026   5.832   5.382  1.5148 -0.2239 -0.1458
    9CHL1   C23  651   5.226   5.862   5.361  0.1135 -0.7273  0.5248
    9CHL1  H23A  652   5.210   5.957   5.305 -0.8406 -1.1775  0.0114
    9CHL1  H23B  653   5.302   5.886   5.439 -0.4092 -1.7705  1.3834
    9CHL1   C24  654   5.278   5.755   5.267  0.3572  0.4228 -0.5801
    9CHL1  H24A  655   5.300   5.666   5.329 -0.0734  1.0850  0.5666
    9CHL1  H24B  656   5.206   5.717   5.191 -0.7380 -0.7190  0.9586
    9CHL1   C25  657   5.412   5.789   5.187  0.2365 -0.1941 -0.0741
    9CHL1   H25  658   5.494   5.803   5.261 -1.4173 -1.3646  2.0717
    9CHL1   C26  659   5.454   5.678   5.090 -0.0893 -0.0305 -0.2565
    9CHL1  H26A  660   5.546   5.711   5.037 -0.4193  0.1720 -0.7101
    9CHL1  H26B  661   5.473   5.582   5.144 -0.7492 -0.5722 -0.9662
    9CHL1  H26C  662   5.382   5.662   5.007 -2.2028  0.0815  1.4650
    9CHL1   C27  663   5.399   5.929   5.119 -0.9733 -0.2505  0.0697
    9CHL1  H27A  664   5.387   6.008   5.195  0.1562  0.0762 -0.0828
    9CHL1  H27B  665   5.501   5.942   5.078 -0.3445 -1.7353  1.0669
    9CHL1  H27C  666   5.320   5.924   5.041  0.4863 -0.3025 -1.4469
   10CHL1    C3  667   4.448   1.524   7.398  0.2661  0.3393  0.1955
   10CHL1    H3  668   4.550   1.482   7.398  1.1736  2.3564  1.3032
   10CHL1    O3  669   4.440   1.563   7.541  0.0182  0.2011 -0.7809
   10CHL1   H3'  670   4.355   1.608   7.549 -0.2456 -0.5788  2.2572
   10CHL1    C4  671   4.427   1.638   7.306  0.4974 -0.8078  0.1909
   10CHL1   H4A  672   4.341   1.695   7.347  2.7188  1.8519  1.5365
   10CHL1   H4B  673   4.513   1.705   7.329 -1.5239  1.4259  1.7482
   10CHL1    C5  674   4.413   1.616   7.160 -0.2853  0.4743  0.2538
   10CHL1    C6  675   4.492   1.679   7.072  0.6417 -0.6082  0.6134
   10CHL1    H6  676   4.553   1.761   7.114 -0.3333 -0.9650  2.8818
   10CHL1    C7  677   4.493   1.655   6.925  0.7758 -1.0446 -0.5515
   10CHL1   H7A  678   4.487   1.750   6.868 -0.8403 -1.1972 -0.6992
   10CHL1   H7B  679   4.588   1.613   6.885  1.9855  1.4808 -0.5063
   10CHL1    C8  680   4.375   1.565   6.871  0.0498  0.1070 -0.5385
   10CHL1    H8  681   4.287   1.632   6.878 -1.2212 -1.4589 -1.0710
   10CHL1   C14  682   4.400   1.517   6.731  0.1679  0.0841 -0.3086
   10CHL1   H14  683   4.483   1.443   6.744  0.9533  0.9344 -0.4016
   10CHL1   C15  684   4.443   1.608   6.618 -0.1595 -0.5284 -0.4703
   10CHL1  H15A  685   4.395   1.708   6.609 -1.8430 -1.3546 -1.1460
   10CHL1  H15B  686   4.552   1.629   6.623 -0.2612 -0.1116 -0.0137
   10CHL1   C16  687   4.396   1.539   6.488  0.5796 -0.5944 -0.2080
   10CHL1  H16A  688   4.326   1.605   6.432  0.8439  1.1001  1.3774
   10CHL1  H16B  689   4.492   1.526   6.434  1.9685 -1.5942  2.3302
   10CHL1   C17  690   4.325   1.406   6.529  0.7967 -0.3419 -0.0222
   10CHL1   H17  691   4.400   1.325   6.534 -0.1608 -1.1906  1.5335
   10CHL1   C13  692   4.277   1.433   6.676 -0.0200  0.3648 -0.8048
   10CHL1   C18  693   4.145   1.516   6.672 -0.0304 -0.2742 -0.2611
   10CHL1  H18A  694   4.112   1.558   6.769 -2.3474  0.6479 -1.3561
   10CHL1  H18B  695   4.157   1.601   6.601  2.8649 -0.3606  0.0332
   10CHL1  H18C  696   4.058   1.450   6.651 -0.3007 -0.9771  2.6765
   10CHL1   C12  697   4.261   1.315   6.771 -0.1705  0.4762 -0.1195
   10CHL1  H12A  698   4.171   1.263   6.732 -0.6824  1.4256 -0.2329
   10CHL1  H12B  699   4.345   1.243   6.764 -1.1075 -0.7933  1.1579
   10CHL1   C11  700   4.247   1.354   6.916  0.0463  0.1691 -0.5055
   10CHL1  H11A  701   4.143   1.388   6.933  0.1565  0.7292 -0.9489
   10CHL1  H11B  702   4.264   1.264   6.979 -1.7138 -1.3219 -2.0714
   10CHL1    C9  703   4.348   1.452   6.968 -0.2878 -0.3841  0.3843
   10CHL1    H9  704   4.444   1.398   6.953  0.6730  1.2844  0.2847
   10CHL1   C10  705   4.327   1.495   7.113 -0.3077 -0.1249  0.7316
   10CHL1   C19  706   4.183   1.543   7.130  0.2877  0.4792 -0.0478
   10CHL1  H19A  707   4.170   1.591   7.229  1.3072 -1.4749  1.0937
   10CHL1  H19B  708   4.153   1.613   7.049  1.2020  1.4950  0.4724
   10CHL1  H19C  709   4.111   1.459   7.133  0.8824 -0.0175  0.5026
   10CHL1    C1  710   4.362   1.376   7.216  0.3150  0.0009 -0.4530
   10CHL1   H1A  711   4.286   1.298   7.194  2.7127 -2.6432  0.0564
   10CHL1   H1B  712   4.467   1.346   7.199  0.5795  0.6889 -0.0923
   10CHL1    C2  713   4.344   1.414   7.363 -0.0044  0.0830  0.0870
   10CHL1   H2A  714   4.359   1.323   7.425  0.3733 -1.6170 -2.3665
   10CHL1   H2B  715   4.240   1.450   7.380 -0.3379 -1.0185  0.5100
   10CHL1   C20  716   4.227   1.355   6.426 -0.4083  0.1690  0.0948
   10CHL1   H20  717   4.150   1.434   6.409 -1.3456 -0.7757 -0.1854
   10CHL1   C21  718   4.155   1.232   6.484  0.0458  0.7768 -0.0506
   10CHL1  H21A  719   4.091   1.191   6.403 -1.7328  2.8533  0.1946
   10CHL1  H21B  720   4.081   1.249   6.565  0.0970 -0.6881  0.3317
   10CHL1  H21C  721   4.231   1.156   6.513  0.0838  1.6876  2.4887
   10CHL1   C22  722   4.281   1.330   6.285 -0.4276  0.4304  0.7664
   10CHL1  H22A  723   4.386   1.364   6.268  0.7962 -3.3573 -0.2287
   10CHL1  H22B  724   4.295   1.222   6.264 -0.0988  0.4506  0.8754
   10CHL1   C23  725   4.177   1.373   6.185 -0.2842  0.0924  0.2907
   10CHL1  H23A  726   4.073   1.361   6.224 -0.8358 -0.7545 -1.3525
   10CHL1  H23B  727   4.190   1.483   6.174  1.9328 -0.3376 -2.3157
   10CHL1   C24  728   4.176   1.316   6.049 -0.2070  0.1476  0.3494
   10CHL1  H24A  729   4.274   1.332   6.000 -1.0706  1.1402 -1.1172
   10CHL1  H24B  730   4.166   1.205   6.047  4.2671 -0.4562 -2.6734
   10CHL1   C25  731   4.084   1.397   5.946  0.4426  0.0850  0.4202
   10CHL1   H25  732   4.103   1.506   5.950 -0.4371  0.2885 -0.6067
   10CHL1   C26  733   4.106   1.339   5.806  0.0367  0.0142 -0.2283
   10CHL1  H26A  734   4.080   1.231   5.800  0.6022 -0.1716  0.4828
   10CHL1  H26B  735   4.030   1.379   5.736  0.8054 -1.2559 -1.8724
   10CHL1  H26C  736   4.207   1.360   5.765  0.2803 -0.6834 -0.0011
   10CHL1   C27  737   3.936   1.381   5.975  0.7516  0.1483 -0.0362
   10CHL1  H27A  738   3.879   1.398   5.882  1.8398  0.3090 -0.6982
   10CHL1  H27B  739   3.906   1.285   6.023  0.2745  0.7323  0.8689
   10CHL1  H27C  740   3.911   1.469   6.037 -1.5195  0.1660 -0.9018
   11CHL1    C3  741   1.337   5.882   6.614 -0.0801  0.3870 -0.2758
   11CHL1    H3  742   1.446   5.897   6.606  0.2660 -1.8635 -0.5262
   11CHL1    O3  743   1.322   5.873   6.750  0.3557 -0.4456  0.6002
   11CHL1   H3'  744   1.227   5.880   6.760  0.2180 -0.5532 -0.4972
   11CHL1    C4  745   1.265   6.003   6.553  0.0483  0.5259  0.4637
   11CHL1   H4A  746   1.160   5.995   6.586 -0.1204 -1.3077 -0.3887
   11CHL1   H4B  747   1.304   6.096   6.600 -2.5775  2.0955 -0.2570
   11CHL1    C5  748   1.284   6.001   6.399  0.3827  0.0474  0.2739
   11CHL1    C6  749   1.340   6.104   6.332 -0.7648 -0.8627 -0.1275
   11CHL1    H6  750   1.362   6.190   6.397  1.1284 -1.7753  0.5074
   11CHL1    C7  751   1.363   6.108   6.187  0.1808  0.5487  0.3873
   11CHL1   H7A  752   1.349   6.207   6.139  2.1189  0.0769 -1.2966
   11CHL1   H7B  753   1.468   6.075   6.171 -0.3098  0.2956 -3.3868
   11CHL1    C8  754   1.274   6.003   6.116  1.0545  0.1469  0.1471
   11CHL1    H8  755   1.171   6.044   6.121  0.7459 -0.1616 -2.2645
   11CHL1   C14  756   1.314   6.002   5.967 -0.1008  0.9510 -0.4092
   11CHL1   H14  757   1.416   5.959   5.959  0.5607  2.3574  0.0813
   11CHL1   C15  758   1.316   6.130   5.891 -0.6342 -0.1986  0.4487
   11CHL1  H15A  759   1.224   6.185   5.919 -1.4414 -1.1736 -0.2219
   11CHL1  H15B  760   1.408   6.188   5.914 -0.7944  0.6526 -0.9569
   11CHL1   C16  761   1.307   6.097   5.744 -0.6129 -0.3623 -0.2777
   11CHL1  H16A  762   1.229   6.158   5.695  0.0808 -1.1271 -2.4343
   11CHL1  H16B  763   1.400   6.113   5.686 -0.6792  0.5541 -0.1433
   11CHL1   C17  764   1.280   5.946   5.741 -0.1217 -0.0270 -0.2224
   11CHL1   H17  765   1.378   5.894   5.733 -0.0525 -0.2751  1.6935
   11CHL1   C13  766   1.231   5.912   5.885  0.2324 -0.3551 -0.8169
   11CHL1   C18  767   1.076   5.965   5.888 -0.5629 -0.3576 -0.1330
   11CHL1  H18A  768   1.014   5.884   5.843 -1.0557 -0.8427  1.3817
   11CHL1  H18B  769   1.043   5.966   5.994 -1.3092 -2.8196 -0.2824
   11CHL1  H18C  770   1.053   6.069   5.859 -1.2382  0.1078  1.9401
   11CHL1   C12  771   1.251   5.768   5.933  0.0989 -0.1305 -0.1265
   11CHL1  H12A  772   1.188   5.692   5.882  0.0832 -0.5069  0.4403
   11CHL1  H12B  773   1.358   5.740   5.925  0.5112  0.3154  2.6696
   11CHL1   C11  774   1.220   5.754   6.084 -0.2505  0.0011  0.4650
   11CHL1  H11A  775   1.109   5.758   6.091 -0.1239  3.0898  3.3425
   11CHL1  H11B  776   1.251   5.652   6.116 -2.6363 -1.7893 -2.4232
   11CHL1    C9  777   1.288   5.862   6.175 -0.2001  1.3341  0.0112
   11CHL1    H9  778   1.398   5.847   6.163 -0.4430  0.9428 -2.2590
   11CHL1   C10  779   1.246   5.868   6.325  0.3172 -0.0550 -0.3952
   11CHL1   C19  780   1.089   5.864   6.335  0.2591 -0.2085 -0.3849
   11CHL1  H19A  781   1.043   5.963   6.314  0.1531 -0.0323  0.5892
   11CHL1  H19B  782   1.033   5.784   6.282 -0.2768  2.1629 -3.6500
   11CHL1  H19C  783   1.060   5.842   6.441  1.8906 -3.8385 -0.5491
   11CHL1    C1  784   1.309   5.751   6.402  0.3003 -0.2063  0.1557
   11CHL1   H1A  785   1.254   5.659   6.371  0.0075  0.0049  0.0496
   11CHL1   H1B  786   1.416   5.751   6.373 -0.0973  0.1738 -1.4375
   11CHL1    C2  787   1.293   5.753   6.558 -0.2647 -0.0961  0.1420
   11CHL1   H2A  788   1.363   5.677   6.598  0.4619 -0.4835 -1.7579
   11CHL1   H2B  789   1.190   5.729   6.591 -0.0406 -1.1924  0.0824
   11CHL1   C20  790   1.196   5.912   5.612  0.4796  0.0192 -0.2305
   11CHL1   H20  791   1.104   5.972   5.630  0.3400 -0.4094  0.4973
   11CHL1   C21  792   1.162   5.758   5.617  0.0782 -0.0072 -0.1526
   11CHL1  H21A  793   1.251   5.693   5.635 -0.8744 -0.7139  2.4028
   11CHL1  H21B  794   1.114   5.717   5.526  0.2753 -1.1323  0.2415
   11CHL1  H21C  795   1.096   5.734   5.703  0.1530  0.2642 -0.0157
   11CHL1   C22  796   1.278   5.937   5.489  0.8634  0.1080 -0.4935
   11CHL1  H22A  797   1.338   6.031   5.494 -0.8254  1.1404  2.0208
   11CHL1  H22B  798   1.353   5.855   5.477 -0.7442 -1.3545 -0.9383
   11CHL1   C23  799   1.191   5.915   5.359  0.3264 -0.3199 -0.3370
   11CHL1  H23A  800   1.191   5.805   5.340 -3.1652 -0.3622 -0.7691
   11CHL1  H23B  801   1.086   5.947   5.377  1.0350  1.0576  1.7292
   11CHL1   C24  802   1.241   5.980   5.235 -0.4027  0.8427 -0.2464
   11CHL1  H24A  803   1.351   5.968   5.227 -0.3783  1.0089 -0.1658
   11CHL1  H24B  804   1.200   5.922   5.150 -1.7491  0.7486  0.4381
   11CHL1   C25  805   1.197   6.128   5.225 -0.1893  0.4796 -0.4802
   11CHL1   H25  806   1.089   6.139   5.249 -0.0512  0.6895  0.0456
   11CHL1   C26  807   1.270   6.228   5.322  0.1163  0.2394  0.3135
   11CHL1  H26A  808   1.234   6.197   5.423 -1.4669  0.4009 -0.1757
   11CHL1  H26B  809   1.380   6.215   5.328 -0.0009 -0.3210  1.4981
   11CHL1  H26C  810   1.249   6.334   5.298 -0.1004  0.1615  0.1549
   11CHL1   C27  811   1.222   6.167   5.081 -0.4813  0.3234  0.9596
   11CHL1  H27A  812   1.326   6.144   5.048 -1.3105 -0.4460 -1.3167
   11CHL1  H27B  813   1.157   6.103   5.018 -0.0897  1.2972 -0.4609
   11CHL1  H27C  814   1.207   6.276   5.069  1.8654  0.4912 -1.3850
   12CHL1    C3  815   3.067   4.613   6.351 -0.7123 -0.3789 -0.3397
   12CHL1    H3  816   3.128   4.520   6.359 -2.1610 -1.2629  1.3329
   12CHL1    O3  817   3.060   4.663   6.483  0.1857 -0.0246 -0.1601
   12CHL1   H3'  818   3.013   4.746   6.474 -0.0666 -0.3001 -1.6311
   12CHL1    C4  819   3.118   4.727   6.274  0.0733 -0.1278  0.6835
   12CHL1   H4A  820   3.054   4.816   6.290  1.4321  0.7826  1.1844
   12CHL1   H4B  821   3.222   4.749   6.305  0.7642  0.5823 -1.8522
   12CHL1    C5  822   3.115   4.699   6.124  0.3250 -0.1439 -0.4885
   12CHL1    C6  823   3.226   4.701   6.044  0.0571 -0.4894  0.1992
   12CHL1    H6  824   3.324   4.732   6.082 -0.2085  0.8581 -0.1439
   12CHL1    C7  825   3.227   4.674   5.901  0.0018  0.6382 -0.0161
   12CHL1   H7A  826   3.294   4.745   5.849 -0.5551  2.0469  1.1172
   12CHL1   H7B  827   3.280   4.577   5.888  0.7297  1.0097  0.1471
   12CHL1    C8  828   3.089   4.680   5.837  0.8710 -0.4293 -1.0411
   12CHL1    H8  829   3.062   4.787   5.842 -0.4154 -0.8026  1.6344
   12CHL1   C14  830   3.085   4.637   5.695 -0.4892 -0.1346  0.1472
   12CHL1   H14  831   3.119   4.532   5.682  1.6739  0.6020 -0.6656
   12CHL1   C15  832   3.170   4.710   5.595  0.3097  0.5769 -0.0924
   12CHL1  H15A  833   3.165   4.821   5.602  0.6409  0.4790  2.5941
   12CHL1  H15B  834   3.273   4.670   5.605 -0.5852 -1.7012  0.7732
   12CHL1   C16  835   3.111   4.670   5.453 -0.5809  0.6030  0.0103
   12CHL1  H16A  836   3.099   4.765   5.396  1.1941  1.2300  0.6315
   12CHL1  H16B  837   3.185   4.610   5.397 -1.3958 -0.4174 -0.0166
   12CHL1   C17  838   2.990   4.585   5.481 -0.4368  0.1117 -0.1095
   12CHL1   H17  839   3.010   4.477   5.500 -1.2354  0.2421  1.7102
   12CHL1   C13  840   2.944   4.628   5.624 -0.1216 -0.3935  0.0559
   12CHL1   C18  841   2.886   4.770   5.615 -0.7480  0.1480 -0.0283
   12CHL1  H18A  842   2.919   4.837   5.532 -0.5198 -1.7018 -1.4968
   12CHL1  H18B  843   2.776   4.765   5.619 -0.7656  0.4219 -0.1551
   12CHL1  H18C  844   2.916   4.824   5.707  0.9249 -0.0657 -0.4058
   12CHL1   C12  845   2.858   4.536   5.704  0.5694  1.3970  0.1562
   12CHL1  H12A  846   2.752   4.530   5.670  0.8587 -4.5856 -0.8162
   12CHL1  H12B  847   2.896   4.431   5.696  1.2580  1.6037  0.5912
   12CHL1   C11  848   2.851   4.578   5.850  0.4929 -0.9803 -0.8173
   12CHL1  H11A  849   2.786   4.668   5.853  0.4850 -0.9998  1.0953
   12CHL1  H11B  850   2.777   4.505   5.889 -2.6559  1.4603 -1.8938
   12CHL1    C9  851   2.987   4.598   5.926  0.3411 -0.0113  0.7512
   12CHL1    H9  852   3.041   4.502   5.934  1.6541  0.6626  0.3420
   12CHL1   C10  853   2.975   4.651   6.074  0.4504 -0.0898  0.1789
   12CHL1   C19  854   2.874   4.772   6.069 -0.0036 -0.0124 -1.0830
   12CHL1  H19A  855   2.860   4.823   6.167 -2.5537 -0.1391 -1.3240
   12CHL1  H19B  856   2.905   4.850   5.996  1.7041 -0.0909 -0.4839
   12CHL1  H19C  857   2.771   4.736   6.048 -0.4141  0.1287  0.5599
   12CHL1    C1  858   2.922   4.535   6.162  0.0048 -0.3785 -0.4269
   12CHL1   H1A  859   2.821   4.508   6.125 -0.7725  0.4410  1.0145
   12CHL1   H1B  860   2.991   4.449   6.144  3.1647  1.9816 -0.5444
   12CHL1    C2  861   2.922   4.581   6.310 -0.3425 -0.0477  0.6032
   12CHL1   H2A  862   2.885   4.498   6.374  0.1236 -1.0231 -0.3543
   12CHL1   H2B  863   2.856   4.670   6.320  2.2657  2.3703 -1.8569
   12CHL1   C20  864   2.889   4.579   5.364  0.2902 -0.1053 -0.0748
   12CHL1   H20  865   2.831   4.672   5.345  1.9437  0.7078 -1.2950
   12CHL1   C21  866   2.796   4.466   5.411  0.7976 -0.7778  0.2054
   12CHL1  H21A  867   2.748   4.428   5.318  0.2357 -0.3164  0.3013
   12CHL1  H21B  868   2.712   4.513   5.467  1.1653  1.0680 -0.7214
   12CHL1  H21C  869   2.852   4.382   5.459 -2.1511 -3.4659 -0.6829
   12CHL1   C22  870   2.951   4.549   5.225 -0.3721  0.1974 -0.5791
   12CHL1  H22A  871   2.854   4.538   5.171 -1.3028  1.8155  0.6814
   12CHL1  H22B  872   3.006   4.632   5.175 -1.5323  0.4523 -1.4784
   12CHL1   C23  873   3.038   4.416   5.218  0.6564 -0.0137  0.1001
   12CHL1  H23A  874   3.132   4.442   5.272 -0.3181  0.1002  1.8366
   12CHL1  H23B  875   2.983   4.340   5.277  2.4949  0.4608  2.6080
   12CHL1   C24  876   3.059   4.365   5.078  0.2774  0.6330 -0.2736
   12CHL1  H24A  877   2.966   4.320   5.035  0.4802  0.7529 -0.8509
   12CHL1  H24B  878   3.083   4.453   5.015  0.2423  1.8769  1.3858
   12CHL1   C25  879   3.178   4.265   5.071 -0.6949  0.0247 -0.7807
   12CHL1   H25  880   3.264   4.313   5.123 -0.3666  0.6008 -1.8195
   12CHL1   C26  881   3.152   4.138   5.151 -0.2780  0.2882 -0.0502
   12CHL1  H26A  882   3.143   4.157   5.260 -1.5022  0.9600 -0.2472
   12CHL1  H26B  883   3.067   4.079   5.111 -1.0591  2.5682 -1.9746
   12CHL1  H26C  884   3.249   4.084   5.148 -0.3793  0.0304  0.9368
   12CHL1   C27  885   3.230   4.239   4.925  0.0571  0.5242  0.0398
   12CHL1  H27A  886   3.262   4.341   4.893  1.9404 -0.2178 -0.6015
   12CHL1  H27B  887   3.318   4.171   4.920  0.8509  1.4173  1.2240
   12CHL1  H27C  888   3.146   4.210   4.859  0.4867  0.3326 -0.4315
   13CHL1    C3  889   2.082   5.066   6.481  0.4937 -0.3012  0.3820
   13CHL1    H3  890   2.188   5.058   6.448  1.1512  1.6783  1.8050
   13CHL1    O3  891   2.064   5.073   6.623  0.4830 -0.2258  0.7260
   13CHL1   H3'  892   1.972   5.050   6.637 -0.0184  0.8627 -0.5923
   13CHL1    C4  893   2.020   5.194   6.427  0.3834  0.2197  0.4890
   13CHL1   H4A  894   1.913   5.200   6.456  0.7282 -2.0966  2.5677
   13CHL1   H4B  895   2.070   5.280   6.476 -0.8458  0.2455  1.7398
   13CHL1    C5  896   2.032   5.193   6.272 -0.0920 -0.9060 -0.3342
   13CHL1    C6  897   2.104   5.281   6.209 -0.2944  0.0689  0.3621
   13CHL1    H6  898   2.163   5.355   6.263 -0.9623  0.9720 -0.1132
   13CHL1    C7  899   2.112   5.298   6.061  0.1362  0.6887  0.4024
   13CHL1   H7A  900   2.078   5.401   6.038  3.0478  1.5979 -0.1951
   13CHL1   H7B  901   2.213   5.278   6.019  0.6273  0.0932  1.8090
   13CHL1    C8  902   2.008   5.202   5.989  0.7619 -0.6617 -0.2855
   13CHL1    H8  903   1.910   5.253   6.001 -0.0568 -2.3064  0.3063
   13CHL1   C14  904   2.062   5.184   5.849  0.1993  0.0651 -0.1442
   13CHL1   H14  905   2.157   5.129   5.867  1.0723  1.9676  1.4523
   13CHL1   C15  906   2.114   5.308   5.763 -0.2622  0.2825 -0.0965
   13CHL1  H15A  907   2.032   5.381   5.742 -1.4008 -0.9529 -0.0844
   13CHL1  H15B  908   2.206   5.353   5.806  0.1142 -0.9668  0.4433
   13CHL1   C16  909   2.139   5.237   5.627 -0.0063  0.0293  0.0133
   13CHL1  H16A  910   2.089   5.278   5.537  1.0767 -1.9242 -1.5582
   13CHL1  H16B  911   2.247   5.226   5.600  0.2326 -0.6540  1.1567
   13CHL1   C17  912   2.081   5.093   5.634 -0.3253  0.0107 -0.0118
   13CHL1   H17  913   2.163   5.028   5.670  0.6077  0.1599 -1.7291
   13CHL1   C13  914   1.981   5.092   5.753 -0.1665 -1.6043 -0.5679
   13CHL1   C18  915   1.848   5.170   5.718 -0.4995  0.5661  0.0513
   13CHL1  H18A  916   1.865   5.254   5.647 -2.0574  1.2934  0.5032
   13CHL1  H18B  917   1.780   5.098   5.668  0.0323 -1.1427  1.6648
   13CHL1  H18C  918   1.794   5.200   5.810  0.9152  1.4783  0.6254
   13CHL1   C12  919   1.945   4.960   5.822  0.0139 -0.0897  0.0979
   13CHL1  H12A  920   1.870   4.897   5.770  0.2079 -2.8477  2.8664
   13CHL1  H12B  921   2.032   4.891   5.823  0.4610  0.4502 -0.8892
   13CHL1   C11  922   1.889   4.984   5.965  0.1497 -0.4444  0.0770
   13CHL1  H11A  923   1.805   5.054   5.948 -0.8758 -1.1864  1.7612
   13CHL1  H11B  924   1.864   4.888   6.017  0.8833 -0.4657  0.4191
   13CHL1    C9  925   1.988   5.065   6.050  0.0018  0.4359 -0.7621
   13CHL1    H9  926   2.083   5.007   6.043 -1.5731 -2.1638 -2.6197
   13CHL1   C10  927   1.961   5.075   6.205 -0.6544 -0.0591 -0.0132
   13CHL1   C19  928   1.806   5.093   6.227  0.2194  0.4854 -0.6195
   13CHL1  H19A  929   1.758   5.002   6.186  1.6255 -0.6130  0.1130
   13CHL1  H19B  930   1.782   5.100   6.336  1.3806 -1.4742 -0.1941
   13CHL1  H19C  931   1.778   5.184   6.169  3.6069  1.2363 -1.2619
   13CHL1    C1  932   2.007   4.943   6.272 -0.0740 -0.4801 -0.4647
   13CHL1   H1A  933   1.948   4.853   6.245 -0.4851 -0.0750 -0.9393
   13CHL1   H1B  934   2.114   4.926   6.248  0.0096 -0.7158  0.0628
   13CHL1    C2  935   2.005   4.948   6.427 -0.1624 -0.0787  0.3110
   13CHL1   H2A  936   2.041   4.856   6.476  0.7065  0.4647  0.7259
   13CHL1   H2B  937   1.898   4.962   6.454 -1.3657  0.0051 -3.7831
   13CHL1   C20  938   2.046   5.040   5.495 -0.1076  1.3400 -1.2123
   13CHL1   H20  939   1.980   5.112   5.443 -2.4786  0.6840  0.6993
   13CHL1   C21  940   1.982   4.897   5.507 -0.5615  0.4332 -0.0333
   13CHL1  H21A  941   1.875   4.906   5.536 -0.6003 -1.6375  0.6711
   13CHL1  H21B  942   2.050   4.830   5.565  1.9852  0.9095 -2.2269
   13CHL1  H21C  943   1.973   4.837   5.414  2.4794 -0.8474  0.3693
   13CHL1   C22  944   2.176   5.015   5.418  0.2410  0.4333  0.2821
   13CHL1  H22A  945   2.251   5.097   5.423 -0.7700  1.4440 -0.7312
   13CHL1  H22B  946   2.214   4.913   5.441 -2.0488 -0.4047  0.5474
   13CHL1   C23  947   2.145   5.036   5.265  0.7480 -0.5682 -0.1398
   13CHL1  H23A  948   2.058   4.971   5.246 -0.3659  0.9836 -0.5901
   13CHL1  H23B  949   2.098   5.136   5.248  3.0486  0.1880 -2.8657
   13CHL1   C24  950   2.247   4.997   5.158 -1.0246  0.2056 -0.2567
   13CHL1  H24A  951   2.335   5.062   5.173  0.6523 -2.0822  0.4035
   13CHL1  H24B  952   2.262   4.887   5.169 -1.4814  0.1233 -0.4132
   13CHL1   C25  953   2.199   5.022   5.008 -0.3152  0.3437  0.0193
   13CHL1   H25  954   2.161   5.127   5.001  0.0540  0.5103  0.4714
   13CHL1   C26  955   2.322   5.003   4.904  0.4056  0.7185 -0.3493
   13CHL1  H26A  956   2.287   5.012   4.799  0.0394 -1.0052 -0.4021
   13CHL1  H26B  957   2.407   5.071   4.925  1.2999 -0.7233  0.9128
   13CHL1  H26C  958   2.361   4.901   4.923 -0.2773  0.7435  1.3291
   13CHL1   C27  959   2.086   4.920   4.976 -0.8301  0.1019 -0.9490
   13CHL1  H27A  960   1.997   4.942   5.038 -1.8471 -1.1611 -1.9142
   13CHL1  H27B  961   2.060   4.931   4.868 -0.7574  2.4310 -0.7810
   13CHL1  H27C  962   2.125   4.822   5.009 -0.6481  0.7351  0.8089
   14CHL1    C3  963   1.479   1.640   6.907 -0.3493  0.0122 -0.6303
   14CHL1    H3  964   1.556   1.720   6.918 -1.5436  1.2617 -1.1349
   14CHL1    O3  965   1.421   1.612   7.040 -0.0848 -0.4732  0.0669
   14CHL1   H3'  966   1.361   1.540   7.020  1.0095 -1.5521  0.5809
   14CHL1    C4  967   1.372   1.680   6.814  0.1303 -0.6422  0.2139
   14CHL1   H4A  968   1.289   1.609   6.832 -1.1346  0.9667  0.9227
   14CHL1   H4B  969   1.324   1.771   6.855 -1.3722 -0.6687 -1.3763
   14CHL1    C5  970   1.420   1.702   6.675 -0.6687  0.2502 -0.3105
   14CHL1    C6  971   1.400   1.818   6.604 -0.6192 -0.6311 -0.2881
   14CHL1    H6  972   1.338   1.898   6.648  1.3048  0.5440  0.4196
   14CHL1    C7  973   1.438   1.840   6.459  0.5605  0.3581  0.5404
   14CHL1   H7A  974   1.367   1.886   6.388  1.6339  0.1514 -0.7001
   14CHL1   H7B  975   1.528   1.905   6.463  0.6890  0.2144  0.0080
   14CHL1    C8  976   1.492   1.707   6.384  0.2101 -0.6357 -0.2652
   14CHL1    H8  977   1.408   1.639   6.361 -0.8791  0.5334  0.1670
   14CHL1   C14  978   1.573   1.745   6.262 -0.0667  0.1451  0.4511
   14CHL1   H14  979   1.660   1.807   6.292 -1.0107  0.3851  2.8988
   14CHL1   C15  980   1.514   1.848   6.160 -0.1249 -0.8736 -0.5970
   14CHL1  H15A  981   1.408   1.821   6.137 -1.7875  3.4163  0.8631
   14CHL1  H15B  982   1.513   1.956   6.186  1.6681 -0.9702 -0.0307
   14CHL1   C16  983   1.613   1.826   6.039  0.8258  0.1468  0.5579
   14CHL1  H16A  984   1.542   1.814   5.955  1.0424  0.1289  0.3755
   14CHL1  H16B  985   1.687   1.906   6.017 -0.7726  1.9480  1.4503
   14CHL1   C17  986   1.693   1.695   6.062  1.1865  0.5833  0.3789
   14CHL1   H17  987   1.795   1.722   6.096  1.2524  0.0829  0.5943
   14CHL1   C13  988   1.622   1.622   6.184  0.2981 -0.1891 -0.6836
   14CHL1   C18  989   1.508   1.535   6.131 -0.3295  0.3252 -0.3194
   14CHL1  H18A  990   1.431   1.595   6.077 -0.8004 -1.4261 -1.6782
   14CHL1  H18B  991   1.537   1.451   6.065  0.1740  0.0025  0.3012
   14CHL1  H18C  992   1.451   1.486   6.213  0.3383  2.2018  1.3612
   14CHL1   C12  993   1.718   1.537   6.277  1.0712 -0.3738 -0.1625
   14CHL1  H12A  994   1.737   1.445   6.217 -4.7607 -0.9277 -1.8134
   14CHL1  H12B  995   1.812   1.585   6.311  0.3892  0.3941  0.6757
   14CHL1   C11  996   1.643   1.504   6.408 -0.2098  0.6052  0.9402
   14CHL1  H11A  997   1.575   1.427   6.366 -1.6726  0.5884  3.1267
   14CHL1  H11B  998   1.718   1.456   6.474  1.0172  0.9394 -0.1762
   14CHL1    C9  999   1.578   1.621   6.479  0.3523 -1.2614 -0.1940
   14CHL1    H9 1000   1.663   1.684   6.515 -0.0323 -0.9973  0.2584
   14CHL1   C10 1001   1.499   1.583   6.611 -0.4227  0.6596  0.2089
   14CHL1   C19 1002   1.388   1.475   6.588 -0.5099 -0.4275 -0.4798
   14CHL1  H19A 1003   1.312   1.509   6.514  0.9455 -1.9682 -2.8462
   14CHL1  H19B 1004   1.433   1.382   6.545  0.3821  0.4787 -1.5776
   14CHL1  H19C 1005   1.332   1.440   6.677 -1.7478 -0.9106 -1.4254
   14CHL1    C1 1006   1.603   1.533   6.710 -0.2231 -0.6021 -0.6209
   14CHL1   H1A 1007   1.641   1.435   6.674 -1.9228 -1.5029 -0.0575
   14CHL1   H1B 1008   1.680   1.613   6.717  0.0138 -0.9860  2.5662
   14CHL1    C2 1009   1.554   1.517   6.853 -0.2299 -0.6195  0.1330
   14CHL1   H2A 1010   1.643   1.496   6.917  0.1358  0.7459  0.0979
   14CHL1   H2B 1011   1.484   1.431   6.850 -0.8807 -0.0637 -1.1813
   14CHL1   C20 1012   1.711   1.615   5.930  0.2685  0.7053 -0.5203
   14CHL1   H20 1013   1.611   1.590   5.890 -0.6690  0.4738  1.8162
   14CHL1   C21 1014   1.793   1.486   5.959  0.3295  0.6239 -0.0816
   14CHL1  H21A 1015   1.751   1.406   6.024  1.0955 -1.1589 -1.6844
   14CHL1  H21B 1016   1.896   1.514   5.991  0.3886  2.4299 -1.6619
   14CHL1  H21C 1017   1.807   1.418   5.873  3.3672 -0.4332  1.0745
   14CHL1   C22 1018   1.786   1.697   5.817 -0.4610 -0.2846  0.1941
   14CHL1  H22A 1019   1.729   1.792   5.801 -0.6437 -0.4605 -0.2117
   14CHL1  H22B 1020   1.891   1.708   5.851  0.0606 -0.4199 -1.3061
   14CHL1   C23 1021   1.775   1.626   5.677 -1.2958  0.3181  0.4880
   14CHL1  H23A 1022   1.775   1.515   5.682  2.4766  0.0830 -1.1438
   14CHL1  H23B 1023   1.673   1.660   5.651 -0.7487  0.9275 -0.9910
   14CHL1   C24 1024   1.882   1.687   5.582 -0.0165 -0.1033 -0.0555
   14CHL1  H24A 1025   1.868   1.796   5.571 -3.1870 -0.1163  2.2590
   14CHL1  H24B 1026   1.981   1.670   5.629 -0.2089  0.1845  0.4705
   14CHL1   C25 1027   1.883   1.614   5.443  0.1482  0.0893  0.4091
   14CHL1   H25 1028   1.907   1.508   5.465  0.1196  0.4933  2.6625
   14CHL1   C26 1029   1.753   1.618   5.359 -0.1729  0.1204  0.2697
   14CHL1  H26A 1030   1.716   1.722   5.344  0.2900  0.4265  1.1206
   14CHL1  H26B 1031   1.756   1.581   5.255  0.4449  1.1049 -0.0749
   14CHL1  H26C 1032   1.673   1.558   5.406  1.2797 -2.7091 -0.6576
   14CHL1   C27 1033   1.981   1.685   5.355 -0.0213  0.0187 -0.1285
   14CHL1  H27A 1034   2.072   1.650   5.407  0.6290  0.2847 -1.0635
   14CHL1  H27B 1035   1.971   1.651   5.249 -1.5460  1.5660 -0.5306
   14CHL1  H27C 1036   1.975   1.796   5.363  0.4950 -0.0908  3.2906
   15CHL1    C3 1037   2.983   2.976   6.547  0.0440  0.4851  0.0343
   15CHL1    H3 1038   2.896   2.908   6.559 -0.5693  0.8049 -2.1015
   15CHL1    O3 1039   3.009   3.002   6.685  0.0759  0.0185  0.2360
   15CHL1   H3' 1040   2.935   3.051   6.722 -0.6615 -0.9424  0.0564
   15CHL1    C4 1041   3.103   2.906   6.485  0.2590 -0.0790  0.4952
   15CHL1   H4A 1042   3.200   2.954   6.508  0.6697 -0.8960  0.5282
   15CHL1   H4B 1043   3.106   2.808   6.538  1.5276 -0.4012 -0.1216
   15CHL1    C5 1044   3.095   2.878   6.337 -0.7819  0.3272  0.0865
   15CHL1    C6 1045   3.135   2.761   6.287 -0.1656 -0.1639 -0.1814
   15CHL1    H6 1046   3.165   2.681   6.356 -2.8265 -0.5064  0.7040
   15CHL1    C7 1047   3.132   2.730   6.140 -0.2960  0.1354 -0.1308
   15CHL1   H7A 1048   3.226   2.680   6.107  0.3655  0.0247  1.7791
   15CHL1   H7B 1049   3.049   2.659   6.120  0.7123 -1.0279 -0.3400
   15CHL1    C8 1050   3.106   2.858   6.055  1.1303  0.2462  0.2874
   15CHL1    H8 1051   3.208   2.903   6.052  1.3845 -0.3046  0.4458
   15CHL1   C14 1052   3.060   2.814   5.918 -1.3734  0.1985  0.2834
   15CHL1   H14 1053   2.964   2.758   5.921 -0.8337 -0.8118 -0.5824
   15CHL1   C15 1054   3.147   2.710   5.841  0.4476 -0.0423 -0.2385
   15CHL1  H15A 1055   3.257   2.729   5.846  0.6870 -1.2902 -0.3972
   15CHL1  H15B 1056   3.131   2.608   5.880  0.6592  0.1496  0.3725
   15CHL1   C16 1057   3.093   2.715   5.699 -0.4826  0.9773  0.1161
   15CHL1  H16A 1058   3.182   2.744   5.639  0.3711  0.1855  0.9718
   15CHL1  H16B 1059   3.038   2.625   5.666 -1.7796  1.7929 -0.0018
   15CHL1   C17 1060   2.990   2.840   5.690 -0.2465 -0.5570  0.2989
   15CHL1   H17 1061   2.895   2.784   5.702 -0.0178 -1.5823 -2.1389
   15CHL1   C13 1062   3.022   2.929   5.818  0.1067  1.0781  0.3781
   15CHL1   C18 1063   3.141   3.010   5.776  0.0384 -0.3162 -0.0176
   15CHL1  H18A 1064   3.177   3.071   5.862  0.2229  0.7659 -0.8342
   15CHL1  H18B 1065   3.232   2.961   5.734  0.6856 -0.2066  1.2049
   15CHL1  H18C 1066   3.113   3.093   5.707  0.7929  0.9660  1.1549
   15CHL1   C12 1067   2.910   3.018   5.883  0.3973 -0.5852  0.1438
   15CHL1  H12A 1068   2.877   3.109   5.828 -0.0778  0.3337  1.8843
   15CHL1  H12B 1069   2.832   2.939   5.897  2.0663 -2.6233 -1.4264
   15CHL1   C11 1070   2.950   3.070   6.023  0.8629  0.4518  0.6098
   15CHL1  H11A 1071   3.037   3.135   6.002 -0.1842  1.3064 -1.3358
   15CHL1  H11B 1072   2.871   3.139   6.063  0.3021 -0.1362  0.5351
   15CHL1    C9 1073   3.002   2.958   6.118  0.5565 -0.7079  0.0929
   15CHL1    H9 1074   2.913   2.894   6.133 -1.4093  1.5787 -1.0945
   15CHL1   C10 1075   3.044   2.997   6.256 -0.7309  0.4779 -0.8877
   15CHL1   C19 1076   3.162   3.102   6.247 -0.1332  0.2781 -0.2280
   15CHL1  H19A 1077   3.217   3.133   6.338  1.3840  0.6904 -1.2601
   15CHL1  H19B 1078   3.233   3.063   6.171  0.0790 -3.0444  1.4867
   15CHL1  H19C 1079   3.123   3.196   6.202  1.5337  0.2222 -1.9014
   15CHL1    C1 1080   2.933   3.081   6.326 -0.1160 -0.5254  0.2432
   15CHL1   H1A 1081   2.924   3.178   6.274  0.0174 -0.6163  0.0520
   15CHL1   H1B 1082   2.832   3.035   6.313 -0.6946  0.8050 -0.1246
   15CHL1    C2 1083   2.963   3.105   6.476  0.4306  0.5518 -0.7383
   15CHL1   H2A 1084   2.875   3.167   6.504  1.0421  0.6836  1.0252
   15CHL1   H2B 1085   3.042   3.175   6.511  2.0362 -2.0076  1.0782
   15CHL1   C20 1086   2.973   2.903   5.556 -1.1550  0.9474 -0.8213
   15CHL1   H20 1087   3.064   2.964   5.538  0.6612 -1.3644  0.0684
   15CHL1   C21 1088   2.849   2.994   5.541  0.7125 -0.4132  0.1459
   15CHL1  H21A 1089   2.826   3.034   5.440 -0.3091 -1.4163 -0.0322
   15CHL1  H21B 1090   2.850   3.086   5.603 -1.3569  0.0628 -0.4622
   15CHL1  H21C 1091   2.758   2.938   5.570 -0.3855  1.4402  0.4485
   15CHL1   C22 1092   2.954   2.795   5.439  0.3149  0.3234  0.4562
   15CHL1  H22A 1093   2.898   2.701   5.459  0.4769  0.4165  1.4393
   15CHL1  H22B 1094   2.889   2.849   5.367 -0.5874 -1.8719 -0.4634
   15CHL1   C23 1095   3.077   2.760   5.363 -0.0860  0.8432  0.0863
   15CHL1  H23A 1096   3.159   2.738   5.435  0.6134 -0.9093 -1.1742
   15CHL1  H23B 1097   3.058   2.668   5.304  0.7872  0.5225  0.2895
   15CHL1   C24 1098   3.119   2.877   5.272  0.0504  0.1989  0.2234
   15CHL1  H24A 1099   3.037   2.891   5.198  1.5943 -0.2053 -1.6319
   15CHL1  H24B 1100   3.134   2.967   5.335  0.5327  0.2579  0.0308
   15CHL1   C25 1101   3.246   2.850   5.193  0.2431 -0.9857 -0.5887
   15CHL1   H25 1102   3.328   2.840   5.268  0.7375 -2.1858 -1.2475
   15CHL1   C26 1103   3.260   2.722   5.109  0.1888 -0.3441 -0.1255
   15CHL1  H26A 1104   3.253   2.631   5.172  0.8344  0.0041  0.4643
   15CHL1  H26B 1105   3.178   2.723   5.034  1.6828 -0.9537 -1.8252
   15CHL1  H26C 1106   3.360   2.711   5.062 -0.1971 -1.1975 -0.7679
   15CHL1   C27 1107   3.295   2.969   5.107 -0.0545  0.2004 -0.3770
   15CHL1  H27A 1108   3.247   2.967   5.007  1.0164 -2.5714 -0.9284
   15CHL1  H27B 1109   3.273   3.060   5.166  2.2114  0.0623  0.8204
   15CHL1  H27C 1110   3.406   2.972   5.099  0.0124  1.3332  0.7206
   16CHL1    C3 1111   0.173   0.443   6.751  0.3619  0.0475 -0.1086
   16CHL1    H3 1112   0.143   0.548   6.773 -0.4123  0.2357 -1.8753
   16CHL1    O3 1113   0.186   0.380   6.878  0.3229 -0.3612 -0.1603
   16CHL1   H3' 1114   0.256   0.426   6.924 -0.2221 -1.4012  1.8437
   16CHL1    C4 1115   0.070   0.361   6.672 -0.1706  0.0213  0.2063
   16CHL1   H4A 1116   0.106   0.257   6.666  1.4298  0.6220 -1.6909
   16CHL1   H4B 1117  -0.029   0.361   6.722  0.3041  0.0203  1.1641
   16CHL1    C5 1118   0.064   0.422   6.533 -0.4531  0.1444 -0.5474
   16CHL1    C6 1119  -0.050   0.474   6.487  0.1717 -0.7908  0.3807
   16CHL1    H6 1120  -0.138   0.465   6.552  1.6409  1.0765  2.8210
   16CHL1    C7 1121  -0.073   0.515   6.349 -1.0946  0.3198 -0.0775
   16CHL1   H7A 1122  -0.162   0.461   6.310 -1.4121  2.1550 -2.0768
   16CHL1   H7B 1123  -0.099   0.623   6.342  2.2309  1.1191 -3.5086
   16CHL1    C8 1124   0.048   0.478   6.264 -0.1414  0.6007  0.9152
   16CHL1    H8 1125   0.034   0.370   6.239 -2.8262  0.8294  1.1726
   16CHL1   C14 1126   0.032   0.557   6.129  0.4339  0.4503  0.2106
   16CHL1   H14 1127   0.044   0.662   6.161  3.6802  0.4087 -0.5318
   16CHL1   C15 1128  -0.106   0.539   6.051  0.6711  0.3042 -0.1985
   16CHL1  H15A 1129  -0.146   0.435   6.045  2.2462 -0.3885  0.5626
   16CHL1  H15B 1130  -0.186   0.604   6.090  1.0205  0.5600  0.0992
   16CHL1   C16 1131  -0.057   0.584   5.910  0.0404 -0.1013 -0.7105
   16CHL1  H16A 1132  -0.098   0.519   5.830  0.2978 -1.1382 -0.0281
   16CHL1  H16B 1133  -0.102   0.679   5.876 -0.8107 -0.7015 -1.2981
   16CHL1   C17 1134   0.099   0.607   5.910  0.5481  0.0156 -0.4412
   16CHL1   H17 1135   0.117   0.710   5.948 -0.9101 -0.5404  1.9937
   16CHL1   C13 1136   0.147   0.528   6.032 -0.6309  0.2485  0.3075
   16CHL1   C18 1137   0.165   0.382   5.990 -0.2612  0.2179  0.0933
   16CHL1  H18A 1138   0.243   0.367   5.912 -1.1216 -0.6054 -0.6263
   16CHL1  H18B 1139   0.202   0.323   6.076  1.7740 -0.6840 -1.3422
   16CHL1  H18C 1140   0.071   0.341   5.948  0.0759 -0.5796  0.1061
   16CHL1   C12 1141   0.274   0.582   6.104  0.8585  0.7427 -0.2552
   16CHL1  H12A 1142   0.366   0.586   6.043  1.3683 -0.2912  0.4154
   16CHL1  H12B 1143   0.257   0.690   6.125 -2.3860 -0.0189  1.7397
   16CHL1   C11 1144   0.302   0.508   6.230 -0.1332 -0.1170 -0.1048
   16CHL1  H11A 1145   0.346   0.409   6.205  2.6487  0.4849  1.8624
   16CHL1  H11B 1146   0.382   0.564   6.282 -0.6663 -0.0368  0.6416
   16CHL1    C9 1147   0.180   0.506   6.330 -0.3111  0.1785  0.1368
   16CHL1    H9 1148   0.164   0.610   6.365 -1.2920  0.1408 -0.1660
   16CHL1   C10 1149   0.199   0.420   6.458 -0.9670 -0.2247 -0.5673
   16CHL1   C19 1150   0.252   0.279   6.420 -0.7504  0.1139  0.3300
   16CHL1  H19A 1151   0.272   0.219   6.511  2.9894  0.3883 -0.1706
   16CHL1  H19B 1152   0.181   0.226   6.354 -0.3176  0.6722 -0.6030
   16CHL1  H19C 1153   0.345   0.290   6.361  0.4630 -5.2621  0.7474
   16CHL1    C1 1154   0.305   0.487   6.544 -0.4530 -0.5313  0.1205
   16CHL1   H1A 1155   0.402   0.465   6.493  0.2058  0.2094  1.0197
   16CHL1   H1B 1156   0.311   0.598   6.544  1.2857 -0.6015  0.2675
   16CHL1    C2 1157   0.312   0.438   6.690  0.3198  0.5870 -0.0450
   16CHL1   H2A 1158   0.381   0.495   6.755 -1.3927  1.3490  1.1757
   16CHL1   H2B 1159   0.351   0.334   6.694  0.6883  0.7479  0.8112
   16CHL1   C20 1160   0.162   0.580   5.775  0.2059  0.1746  0.5072
   16CHL1   H20 1161   0.149   0.472   5.755  4.7959 -0.2459 -1.4294
   16CHL1   C21 1162   0.309   0.603   5.775 -0.5160 -0.5062 -0.1753
   16CHL1  H21A 1163   0.366   0.599   5.680  0.5601  1.1074  0.3649
   16CHL1  H21B 1164   0.362   0.529   5.839 -0.5829  0.6775  1.3055
   16CHL1  H21C 1165   0.351   0.696   5.820 -1.7742 -0.7211  1.5412
   16CHL1   C22 1166   0.095   0.660   5.660  0.1973 -0.4577 -0.6891
   16CHL1  H22A 1167  -0.012   0.632   5.652  0.1827 -0.1214 -1.8640
   16CHL1  H22B 1168   0.094   0.771   5.670 -0.0790 -0.3601 -1.6505
   16CHL1   C23 1169   0.164   0.630   5.514  0.1196 -0.4447  0.8458
   16CHL1  H23A 1170   0.257   0.690   5.511  0.3766 -0.8796 -0.4213
   16CHL1  H23B 1171   0.184   0.522   5.498  0.4866 -0.3290  0.5022
   16CHL1   C24 1172   0.064   0.673   5.402 -0.0956  0.1429  0.2639
   16CHL1  H24A 1173   0.017   0.572   5.394 -0.6038  0.5017 -1.8071
   16CHL1  H24B 1174  -0.013   0.748   5.426  0.0673  1.1532 -2.0673
   16CHL1   C25 1175   0.128   0.683   5.263 -0.3412  0.5920  0.2995
   16CHL1   H25 1176   0.052   0.704   5.184 -0.2126  3.1788  0.7782
   16CHL1   C26 1177   0.218   0.809   5.264 -0.1389  0.5739  0.1081
   16CHL1  H26A 1178   0.149   0.896   5.266 -1.6665 -0.6021  1.3598
   16CHL1  H26B 1179   0.297   0.817   5.341 -0.2001  0.4007  0.1907
   16CHL1  H26C 1180   0.263   0.796   5.163 -0.8600 -1.3551 -0.0045
   16CHL1   C27 1181   0.220   0.567   5.222  0.2698  0.1266  0.6007
   16CHL1  H27A 1182   0.173   0.468   5.239 -0.6445 -0.6652 -4.6502
   16CHL1  H27B 1183   0.251   0.581   5.116 -0.1033 -0.4257  0.4127
   16CHL1  H27C 1184   0.315   0.560   5.279  0.3592 -2.3404  0.2576
   17CHL1    C3 1185   2.012   3.336   6.904  0.3549 -0.2553  0.0572
   17CHL1    H3 1186   2.093   3.409   6.882  1.2165 -2.1555 -3.8801
   17CHL1    O3 1187   1.960   3.331   7.036 -0.2181 -0.2081 -0.1798
   17CHL1   H3' 1188   2.035   3.363   7.086  0.0489  2.3092 -1.9930
   17CHL1    C4 1189   1.883   3.380   6.815  0.1627  0.6984 -0.2176
   17CHL1   H4A 1190   1.802   3.311   6.847  1.5093 -1.5549 -1.3234
   17CHL1   H4B 1191   1.869   3.488   6.836 -0.7385  0.9643 -1.9422
   17CHL1    C5 1192   1.923   3.356   6.667  0.5763  0.2641  0.6009
   17CHL1    C6 1193   1.916   3.460   6.585 -0.4472  0.0720 -0.3956
   17CHL1    H6 1194   1.884   3.561   6.617  0.8865  1.1686 -2.3124
   17CHL1    C7 1195   1.950   3.443   6.441 -0.6210 -0.6277 -0.4645
   17CHL1   H7A 1196   1.885   3.515   6.386  0.4944 -0.2965 -1.3888
   17CHL1   H7B 1197   2.048   3.483   6.409 -1.1627  0.7865 -0.4405
   17CHL1    C8 1198   1.937   3.298   6.385  0.0767 -0.4762  0.1953
   17CHL1    H8 1199   1.829   3.271   6.390  0.0173 -0.7142 -1.7434
   17CHL1   C14 1200   1.991   3.285   6.243  0.3215 -0.1295 -0.4193
   17CHL1   H14 1201   2.100   3.305   6.250  0.5072 -1.6714  3.6225
   17CHL1   C15 1202   1.933   3.389   6.146  0.2827  0.7444  0.4569
   17CHL1  H15A 1203   1.823   3.397   6.157  0.5083  2.6496  1.7884
   17CHL1  H15B 1204   1.974   3.487   6.179 -0.2030 -0.0389  3.7668
   17CHL1   C16 1205   1.953   3.324   6.008 -0.6311 -0.0781  0.3978
   17CHL1  H16A 1206   1.853   3.320   5.960 -0.5007 -2.0782  0.2018
   17CHL1  H16B 1207   2.016   3.384   5.939 -1.2351 -0.1786 -0.2579
   17CHL1   C17 1208   2.002   3.177   6.034 -0.7355  0.3150  0.1801
   17CHL1   H17 1209   2.113   3.178   6.043 -0.8886 -1.1208  3.4220
   17CHL1   C13 1210   1.964   3.146   6.182  0.5219 -0.0469  0.2002
   17CHL1   C18 1211   1.811   3.107   6.185 -0.0775  0.3096  0.0845
   17CHL1  H18A 1212   1.795   3.005   6.145  0.2999  0.1492  0.3414
   17CHL1  H18B 1213   1.776   3.099   6.290  0.5864 -2.1614  0.1745
   17CHL1  H18C 1214   1.737   3.176   6.139  0.7503  0.7670 -0.6054
   17CHL1   C12 1215   2.059   3.061   6.271  0.6418  0.2625 -0.1177
   17CHL1  H12A 1216   2.048   2.958   6.230  0.2461  1.1764 -2.4590
   17CHL1  H12B 1217   2.166   3.090   6.262  0.5000  0.8624  0.0910
   17CHL1   C11 1218   2.017   3.064   6.421 -0.0292 -0.9228 -0.1936
   17CHL1  H11A 1219   1.915   3.019   6.423 -0.6924  0.4693  2.6326
   17CHL1  H11B 1220   2.079   2.996   6.484  0.3856 -1.5054 -1.1999
   17CHL1    C9 1221   2.018   3.210   6.481  0.6694 -0.0863 -0.7380
   17CHL1    H9 1222   2.120   3.253   6.475  0.0474  1.2943 -2.6870
   17CHL1   C10 1223   1.976   3.215   6.626  0.6446  0.6666  0.8184
   17CHL1   C19 1224   1.862   3.107   6.651 -0.7369  0.3405  0.3234
   17CHL1  H19A 1225   1.911   3.007   6.652  1.8256  1.5169  1.1424
   17CHL1  H19B 1226   1.808   3.122   6.747 -0.9401  1.1229  0.0948
   17CHL1  H19C 1227   1.782   3.112   6.573  0.5292 -1.1591 -1.1574
   17CHL1    C1 1228   2.094   3.189   6.719 -0.5465  0.5703 -0.1667
   17CHL1   H1A 1229   2.129   3.090   6.685 -1.0896  0.7537 -1.3238
   17CHL1   H1B 1230   2.173   3.262   6.692  0.8076 -0.3414  1.1735
   17CHL1    C2 1231   2.076   3.199   6.865  0.1350  0.5913 -0.0934
   17CHL1   H2A 1232   2.167   3.178   6.924 -0.4477 -1.6489  0.1015
   17CHL1   H2B 1233   2.017   3.118   6.913  0.7595  1.4710  2.2912
   17CHL1   C20 1234   1.959   3.080   5.919 -0.0285 -0.0317 -0.3187
   17CHL1   H20 1235   1.849   3.071   5.930 -0.0748  0.9507  0.2218
   17CHL1   C21 1236   2.006   2.938   5.938 -0.4219  0.0331  0.5070
   17CHL1  H21A 1237   2.117   2.936   5.946  0.1098 -1.0398 -4.4623
   17CHL1  H21B 1238   1.979   2.883   5.846  1.0443 -0.8823  0.6013
   17CHL1  H21C 1239   1.964   2.896   6.032  3.4421  0.2331  2.5208
   17CHL1   C22 1240   1.977   3.120   5.776 -0.4561  0.1912  1.1064
   17CHL1  H22A 1241   1.901   3.069   5.713 -0.5564  0.8667  0.6686
   17CHL1  H22B 1242   1.941   3.225   5.770 -2.6212 -0.5449 -0.1027
   17CHL1   C23 1243   2.114   3.098   5.712 -0.4054  0.8176  0.1274
   17CHL1  H23A 1244   2.184   3.143   5.786 -1.2327  1.2794  0.6390
   17CHL1  H23B 1245   2.140   2.990   5.703  1.0693  1.1167  0.4346
   17CHL1   C24 1246   2.128   3.161   5.570 -0.4079  0.0268  0.3808
   17CHL1  H24A 1247   2.065   3.106   5.497 -0.4145  1.3888 -0.6649
   17CHL1  H24B 1248   2.101   3.269   5.568 -1.3326 -0.2145 -0.6853
   17CHL1   C25 1249   2.273   3.139   5.518  0.5931 -0.8260  0.4546
   17CHL1   H25 1250   2.310   3.035   5.530  2.2439 -0.5977 -1.9300
   17CHL1   C26 1251   2.277   3.163   5.361 -0.3778 -0.0150 -0.5757
   17CHL1  H26A 1252   2.256   3.270   5.338 -4.7816 -0.6809 -0.5722
   17CHL1  H26B 1253   2.378   3.141   5.320 -0.2543 -0.6584  0.0471
   17CHL1  H26C 1254   2.199   3.097   5.317 -0.8648  0.6695 -0.7511
   17CHL1   C27 1255   2.365   3.243   5.583 -0.3305  0.2845 -0.2083
   17CHL1  H27A 1256   2.306   3.336   5.598  0.0134  0.4248  0.2976
   17CHL1  H27B 1257   2.399   3.209   5.683 -0.8425  1.4517  0.3850
   17CHL1  H27C 1258   2.449   3.271   5.515  0.1625  0.8089  0.6007
   18CHL1    C3 1259   2.419   4.790   6.481 -0.4190 -1.0658  0.0135
   18CHL1    H3 1260   2.345   4.872   6.470  1.2565  0.5476  0.1598
   18CHL1    O3 1261   2.452   4.789   6.619 -0.1222 -0.2356  0.0260
   18CHL1   H3' 1262   2.393   4.851   6.662 -0.2073  1.0790 -1.8669
   18CHL1    C4 1263   2.364   4.657   6.433 -0.3125 -0.1457  0.1604
   18CHL1   H4A 1264   2.438   4.578   6.460 -1.0423 -1.8496 -2.4674
   18CHL1   H4B 1265   2.276   4.648   6.501 -1.0776 -0.2266 -0.8222
   18CHL1    C5 1266   2.330   4.656   6.287 -0.0214  0.2206  0.4189
   18CHL1    C6 1267   2.209   4.628   6.245 -0.1455  0.0721  0.5619
   18CHL1    H6 1268   2.134   4.596   6.320 -1.2053  0.0279 -0.4790
   18CHL1    C7 1269   2.167   4.610   6.102 -0.4454 -0.1613 -0.1420
   18CHL1   H7A 1270   2.115   4.512   6.098 -1.0949  0.1080  1.0953
   18CHL1   H7B 1271   2.097   4.693   6.076 -2.3707 -1.4995  0.4886
   18CHL1    C8 1272   2.286   4.609   6.007  0.2103  0.0070 -0.6239
   18CHL1    H8 1273   2.330   4.507   6.015 -0.8566 -0.3959  0.4899
   18CHL1   C14 1274   2.249   4.636   5.865  0.6727 -0.2059  0.4106
   18CHL1   H14 1275   2.208   4.739   5.860  1.4938  0.2347  2.2556
   18CHL1   C15 1276   2.144   4.546   5.805  0.4605  0.1420  0.0662
   18CHL1  H15A 1277   2.160   4.438   5.825 -1.2767 -0.3134 -0.8007
   18CHL1  H15B 1278   2.040   4.566   5.837  0.6963 -1.6190  2.1526
   18CHL1   C16 1279   2.158   4.566   5.649  0.1566  0.7542  0.0548
   18CHL1  H16A 1280   2.158   4.466   5.601 -1.5769 -0.7041  2.8100
   18CHL1  H16B 1281   2.083   4.636   5.606  0.5243  0.1302 -1.6664
   18CHL1   C17 1282   2.288   4.656   5.627  0.6854  0.6844  0.2060
   18CHL1   H17 1283   2.260   4.764   5.633  1.5010  0.8365  1.9284
   18CHL1   C13 1284   2.365   4.642   5.759 -0.8272 -0.0901 -0.6998
   18CHL1   C18 1285   2.437   4.508   5.756  0.5301 -0.9289  0.3374
   18CHL1  H18A 1286   2.478   4.472   5.852  0.1652  0.2622  0.9632
   18CHL1  H18B 1287   2.359   4.436   5.723  0.0695 -0.0231 -0.6330
   18CHL1  H18C 1288   2.514   4.529   5.679 -1.5112  1.5206 -1.2250
   18CHL1   C12 1289   2.460   4.757   5.802  0.0448 -0.2518  0.3528
   18CHL1  H12A 1290   2.542   4.762   5.728 -1.9101  0.0903 -1.9187
   18CHL1  H12B 1291   2.411   4.855   5.785 -1.5276 -1.0916 -0.2060
   18CHL1   C11 1292   2.505   4.742   5.942 -0.1717  0.2175  0.0338
   18CHL1  H11A 1293   2.570   4.652   5.947 -1.2702 -0.5879  0.2034
   18CHL1  H11B 1294   2.566   4.832   5.966  0.0260  0.3088 -0.7754
   18CHL1    C9 1295   2.390   4.716   6.049 -0.3513 -0.6234 -0.8458
   18CHL1    H9 1296   2.331   4.809   6.033 -0.9934 -1.2164 -2.0859
   18CHL1   C10 1297   2.443   4.695   6.195 -0.1858 -0.5103 -0.0504
   18CHL1   C19 1298   2.548   4.585   6.204  0.3303 -0.3521  0.9134
   18CHL1  H19A 1299   2.650   4.629   6.194  0.1021 -0.1035 -0.4471
   18CHL1  H19B 1300   2.549   4.533   6.302  0.2954 -1.1036  0.5227
   18CHL1  H19C 1301   2.534   4.502   6.132  2.9571 -1.4795  1.5959
   18CHL1    C1 1302   2.510   4.829   6.247 -0.3127  0.3691  0.0141
   18CHL1   H1A 1303   2.598   4.865   6.189  0.0279  2.0744  1.4965
   18CHL1   H1B 1304   2.436   4.911   6.233 -0.0099  1.2760  2.9145
   18CHL1    C2 1305   2.536   4.836   6.403 -0.5002 -0.3951  0.2706
   18CHL1   H2A 1306   2.567   4.940   6.423  2.2075 -0.8476 -0.9591
   18CHL1   H2B 1307   2.623   4.770   6.427 -1.5887 -1.6079  0.9921
   18CHL1   C20 1308   2.367   4.634   5.493 -0.4742  0.2702  0.1223
   18CHL1   H20 1309   2.424   4.539   5.489 -0.9370 -0.0159  0.2950
   18CHL1   C21 1310   2.473   4.745   5.452 -0.8124 -0.6032 -0.3785
   18CHL1  H21A 1311   2.433   4.813   5.373 -1.7293 -1.8196 -0.9784
   18CHL1  H21B 1312   2.571   4.702   5.422 -0.7272  0.1856 -1.2748
   18CHL1  H21C 1313   2.507   4.809   5.536  1.7494 -1.1504 -0.8946
   18CHL1   C22 1314   2.272   4.614   5.371  1.0990  0.3392 -0.5928
   18CHL1  H22A 1315   2.201   4.533   5.397  0.6960  1.5366  2.5510
   18CHL1  H22B 1316   2.224   4.713   5.355  1.3112  0.3960 -0.8879
   18CHL1   C23 1317   2.343   4.587   5.241 -0.0526 -0.3948  0.8386
   18CHL1  H23A 1318   2.401   4.671   5.197 -1.0044 -1.3543 -2.5536
   18CHL1  H23B 1319   2.399   4.493   5.259 -0.7237 -1.0984 -0.5871
   18CHL1   C24 1320   2.243   4.551   5.121 -0.6778 -0.3573 -0.5199
   18CHL1  H24A 1321   2.201   4.451   5.145 -0.1763 -0.2328  0.9845
   18CHL1  H24B 1322   2.156   4.620   5.121  0.1353  0.6934 -0.4239
   18CHL1   C25 1323   2.310   4.535   4.979 -0.1388 -0.9010  0.9348
   18CHL1   H25 1324   2.369   4.627   4.959  0.1735 -0.8075  2.2610
   18CHL1   C26 1325   2.391   4.410   4.966  0.0585 -0.1516 -0.3732
   18CHL1  H26A 1326   2.390   4.380   4.859 -2.7418 -0.7359 -0.2460
   18CHL1  H26B 1327   2.495   4.431   5.002  1.3725  0.5787 -4.1471
   18CHL1  H26C 1328   2.348   4.328   5.027 -1.2022  0.8583  0.1302
   18CHL1   C27 1329   2.193   4.536   4.878 -0.0122  0.0097 -0.1570
   18CHL1  H27A 1330   2.114   4.466   4.911 -0.1213 -0.6426 -1.7106
   18CHL1  H27B 1331   2.142   4.634   4.864 -0.9567 -0.8171 -3.0842
   18CHL1  H27C 1332   2.224   4.507   4.775 -1.5014 -1.2471 -0.2859
   19CHL1    C3 1333   2.119   3.870   6.869  0.1893  0.8622  0.1281
   19CHL1    H3 1334   2.224   3.905   6.865  0.0206  1.4828  0.9827
   19CHL1    O3 1335   2.106   3.828   7.003 -0.2914  0.3306  0.4629
   19CHL1   H3' 1336   2.025   3.777   7.000 -0.3176  0.3324  1.0226
   19CHL1    C4 1337   2.021   3.975   6.823 -0.3186 -0.3521 -0.2238
   19CHL1   H4A 1338   1.919   3.936   6.844 -0.6503  0.9660  0.7371
   19CHL1   H4B 1339   2.036   4.067   6.884  1.7231 -0.7337 -0.1081
   19CHL1    C5 1340   2.033   4.014   6.674 -0.2685  0.7127  0.0260
   19CHL1    C6 1341   2.058   4.141   6.636  0.8841  0.0447 -0.1822
   19CHL1    H6 1342   2.068   4.225   6.707  1.1405 -0.6262  0.5976
   19CHL1    C7 1343   2.049   4.173   6.491  0.1666 -0.1074 -0.9318
   19CHL1   H7A 1344   1.974   4.253   6.475  1.1666  1.2494  0.7743
   19CHL1   H7B 1345   2.147   4.208   6.452 -0.5687 -0.4718 -3.2842
   19CHL1    C8 1346   2.010   4.063   6.392 -0.2424 -0.5297 -0.0295
   19CHL1    H8 1347   1.901   4.044   6.389  0.1143 -2.7830 -1.2346
   19CHL1   C14 1348   2.057   4.086   6.244  1.0222 -0.2803 -0.2747
   19CHL1   H14 1349   2.166   4.092   6.265  0.7395  1.2279  0.9086
   19CHL1   C15 1350   2.030   4.222   6.175 -0.8868  0.1252  0.0944
   19CHL1  H15A 1351   1.923   4.248   6.183 -0.6534  0.8852  1.0560
   19CHL1  H15B 1352   2.091   4.306   6.214  2.0326 -0.2374 -3.1737
   19CHL1   C16 1353   2.068   4.193   6.031  0.2031  0.0074  0.0377
   19CHL1  H16A 1354   1.993   4.241   5.964  1.8010  1.5491 -0.7492
   19CHL1  H16B 1355   2.170   4.224   6.002 -0.4227 -0.5334 -3.1356
   19CHL1   C17 1356   2.077   4.038   6.017 -0.2985 -0.2263 -0.5957
   19CHL1   H17 1357   2.185   4.014   6.014  0.1226  1.4859 -3.2738
   19CHL1   C13 1358   2.017   3.984   6.142  0.9910 -0.4990 -0.3007
   19CHL1   C18 1359   1.862   3.992   6.131 -0.5221  0.0212  0.0540
   19CHL1  H18A 1360   1.829   4.094   6.100  0.4227 -0.9425 -4.8947
   19CHL1  H18B 1361   1.827   3.913   6.062  1.9119 -0.5661 -0.5838
   19CHL1  H18C 1362   1.813   3.988   6.231 -0.0223  3.3933  0.5613
   19CHL1   C12 1363   2.071   3.841   6.187  0.1054 -0.5219 -0.2089
   19CHL1  H12A 1364   2.031   3.759   6.124  3.6933 -1.4466 -1.5807
   19CHL1  H12B 1365   2.180   3.837   6.166  0.2759  2.1135 -0.1966
   19CHL1   C11 1366   2.032   3.808   6.337 -0.2008  0.0132 -0.0296
   19CHL1  H11A 1367   1.924   3.783   6.332  0.0573 -1.0871 -0.3021
   19CHL1  H11B 1368   2.095   3.719   6.357  0.4497  0.2304 -1.0349
   19CHL1    C9 1369   2.067   3.925   6.437  0.0409 -0.2255 -0.4093
   19CHL1    H9 1370   2.177   3.933   6.444 -0.0313  0.3168  0.2272
   19CHL1   C10 1371   2.021   3.888   6.581  0.0817 -0.1487 -0.1042
   19CHL1   C19 1372   1.876   3.851   6.581 -0.7774  0.4116  0.2005
   19CHL1  H19A 1373   1.853   3.755   6.528 -1.6359  0.8381 -0.2164
   19CHL1  H19B 1374   1.833   3.843   6.683  0.4883  2.9002  1.0017
   19CHL1  H19C 1375   1.807   3.930   6.545 -1.1717  0.1300  0.3219
   19CHL1    C1 1376   2.115   3.777   6.638 -0.5129 -0.6157  1.2490
   19CHL1   H1A 1377   2.121   3.680   6.583 -0.3075  0.1453 -0.1156
   19CHL1   H1B 1378   2.220   3.808   6.622 -1.6763  2.1150 -2.8339
   19CHL1    C2 1379   2.101   3.745   6.782  0.0578  0.3668 -0.5323
   19CHL1   H2A 1380   2.177   3.670   6.813  1.5533  2.2127  0.4525
   19CHL1   H2B 1381   2.003   3.696   6.802 -0.9798  2.8640  1.0607
   19CHL1   C20 1382   2.019   3.994   5.881  0.5497  0.3080  0.4423
   19CHL1   H20 1383   1.920   4.044   5.878  1.4018  2.0703  0.1425
   19CHL1   C21 1384   2.008   3.844   5.861 -0.3752  0.2807  0.3940
   19CHL1  H21A 1385   1.976   3.817   5.758  0.1962 -0.9483  0.5198
   19CHL1  H21B 1386   1.933   3.794   5.926 -2.5077  0.4073 -1.8316
   19CHL1  H21C 1387   2.102   3.785   5.867 -0.1466  0.4894 -0.7908
   19CHL1   C22 1388   2.107   4.063   5.768  0.0822  0.4791 -0.6711
   19CHL1  H22A 1389   2.100   4.173   5.782  2.7432  0.8060 -1.3436
   19CHL1  H22B 1390   2.212   4.033   5.790 -0.8133 -1.1523  1.7352
   19CHL1   C23 1391   2.054   4.041   5.626 -1.1267 -0.1446  0.0367
   19CHL1  H23A 1392   2.071   3.934   5.602 -2.6955 -0.4805  0.3258
   19CHL1  H23B 1393   1.947   4.069   5.626 -1.0134  0.3363  1.1087
   19CHL1   C24 1394   2.127   4.137   5.532 -0.0021  0.4971  0.7765
   19CHL1  H24A 1395   2.098   4.242   5.551 -1.0533  0.7938 -2.0264
   19CHL1  H24B 1396   2.238   4.142   5.543  0.1355  0.2858 -0.3202
   19CHL1   C25 1397   2.086   4.113   5.381  0.1949 -0.3528 -0.1130
   19CHL1   H25 1398   1.979   4.144   5.376  0.9765  2.7746  0.7976
   19CHL1   C26 1399   2.152   4.222   5.286  0.3121  0.5841  0.3209
   19CHL1  H26A 1400   2.254   4.200   5.246 -0.2663  1.5828 -1.8768
   19CHL1  H26B 1401   2.087   4.231   5.196  0.5587 -0.0321  0.0761
   19CHL1  H26C 1402   2.148   4.326   5.326  0.0827 -0.1111  2.2024
   19CHL1   C27 1403   2.103   3.972   5.335  0.2069  0.2546  0.1318
   19CHL1  H27A 1404   2.085   3.972   5.225  0.9165 -4.4471 -0.1994
   19CHL1  H27B 1405   2.209   3.944   5.349 -0.0628 -0.6647  0.3752
   19CHL1  H27C 1406   2.036   3.903   5.390  1.0623 -0.2393  0.5806
   20CHL1    C3 1407   1.400   4.917   6.399 -0.0049  0.5481  0.5229
   20CHL1    H3 1408   1.504   4.951   6.417  0.1202  1.2656 -1.2986
   20CHL1    O3 1409   1.340   4.894   6.525 -0.0218  0.3523 -0.3264
   20CHL1   H3' 1410   1.245   4.889   6.511 -0.1738  3.9933 -1.5705
   20CHL1    C4 1411   1.317   5.022   6.322  0.1800 -0.7679 -0.3866
   20CHL1   H4A 1412   1.211   4.991   6.336  0.4185 -0.4775  2.7552
   20CHL1   H4B 1413   1.325   5.118   6.378  3.5008  0.8113 -3.1751
   20CHL1    C5 1414   1.365   5.048   6.181  0.0199  0.1049 -0.9560
   20CHL1    C6 1415   1.400   5.166   6.129  0.1962  0.0063 -0.2346
   20CHL1    H6 1416   1.387   5.258   6.187 -1.2969 -0.0554 -0.4377
   20CHL1    C7 1417   1.435   5.197   5.979  0.2787  0.0578 -0.1463
   20CHL1   H7A 1418   1.381   5.287   5.943 -1.7280 -0.6272  0.9862
   20CHL1   H7B 1419   1.544   5.219   5.973  1.0969 -2.5943  2.4239
   20CHL1    C8 1420   1.405   5.072   5.893 -0.2934 -0.3566  0.6853
   20CHL1    H8 1421   1.296   5.062   5.874 -0.2002  0.0088 -0.0719
   20CHL1   C14 1422   1.476   5.077   5.756  0.0795 -0.1299  0.2964
   20CHL1   H14 1423   1.583   5.072   5.786  1.5569  0.3484 -4.1491
   20CHL1   C15 1424   1.457   5.203   5.683  0.2822 -0.5814 -0.1155
   20CHL1  H15A 1425   1.355   5.247   5.690  0.5521  0.1930 -0.8520
   20CHL1  H15B 1426   1.536   5.274   5.714 -0.3005  0.2551 -0.4980
   20CHL1   C16 1427   1.497   5.174   5.539 -0.6136 -0.7140  0.3015
   20CHL1  H16A 1428   1.400   5.201   5.493 -0.8367 -0.4571  0.9093
   20CHL1  H16B 1429   1.576   5.239   5.496 -0.5218  0.4540  2.1038
   20CHL1   C17 1430   1.524   5.021   5.535  0.6986 -0.0859 -0.6856
   20CHL1   H17 1431   1.633   5.004   5.543  0.4975 -1.4047 -0.5705
   20CHL1   C13 1432   1.453   4.964   5.662 -0.4822  0.3864 -0.1100
   20CHL1   C18 1433   1.303   4.940   5.644 -1.1844 -0.4856  0.2605
   20CHL1  H18A 1434   1.254   5.016   5.580  0.4038 -0.0320 -0.4468
   20CHL1  H18B 1435   1.300   4.846   5.586  3.9449 -1.4354  1.0329
   20CHL1  H18C 1436   1.249   4.911   5.737 -0.6060 -0.5895  0.5647
   20CHL1   C12 1437   1.524   4.844   5.722 -0.3207 -0.1919  0.2176
   20CHL1  H12A 1438   1.519   4.754   5.656 -0.7745  0.2510 -0.3585
   20CHL1  H12B 1439   1.630   4.878   5.726 -0.6309  1.0358 -1.2533
   20CHL1   C11 1440   1.463   4.814   5.869  0.4002 -0.1043  0.0675
   20CHL1  H11A 1441   1.363   4.769   5.852  0.5036 -0.1532 -0.4266
   20CHL1  H11B 1442   1.524   4.728   5.906  0.8465 -1.2003 -2.9239
   20CHL1    C9 1443   1.452   4.937   5.965 -0.3750  0.3050  1.1335
   20CHL1    H9 1444   1.558   4.960   5.991  0.0772  0.0342 -0.4059
   20CHL1   C10 1445   1.375   4.919   6.099 -0.3298  1.2057  0.0096
   20CHL1   C19 1446   1.236   4.850   6.070  0.3444  0.1107 -0.5610
   20CHL1  H19A 1447   1.170   4.899   5.996  0.3364  1.1885  0.1339
   20CHL1  H19B 1448   1.259   4.749   6.030  0.2913  0.7282 -2.1995
   20CHL1  H19C 1449   1.182   4.844   6.168 -0.6557 -1.3633 -1.1727
   20CHL1    C1 1450   1.452   4.815   6.184  0.6940  0.2440  0.6449
   20CHL1   H1A 1451   1.468   4.724   6.123  0.4910 -0.1806  1.2204
   20CHL1   H1B 1452   1.556   4.854   6.190  0.7611  0.3279 -0.7443
   20CHL1    C2 1453   1.397   4.787   6.328 -1.0671  0.2135  0.4888
   20CHL1   H2A 1454   1.468   4.715   6.373 -1.3289  0.3129  1.0736
   20CHL1   H2B 1455   1.296   4.741   6.343  0.3102 -2.5560  1.9655
   20CHL1   C20 1456   1.491   4.959   5.393  0.3627  0.1681  0.8140
   20CHL1   H20 1457   1.380   4.961   5.383  0.3040  0.9680  1.4826
   20CHL1   C21 1458   1.555   4.822   5.380 -0.3774  0.5255 -0.1154
   20CHL1  H21A 1459   1.660   4.827   5.416  0.3086  0.0851 -1.9733
   20CHL1  H21B 1460   1.562   4.792   5.274 -0.4699 -0.0855  0.0468
   20CHL1  H21C 1461   1.491   4.754   5.441 -1.4296  1.1702 -0.4737
   20CHL1   C22 1462   1.549   5.044   5.279  0.1587  0.3489 -0.2128
   20CHL1  H22A 1463   1.536   4.993   5.181  0.9880 -0.1229 -0.0878
   20CHL1  H22B 1464   1.488   5.135   5.265  0.8158  0.5407 -2.2283
   20CHL1   C23 1465   1.701   5.069   5.299 -0.0514  0.0968 -0.1062
   20CHL1  H23A 1466   1.727   5.111   5.398 -0.6372 -0.5140  0.3219
   20CHL1  H23B 1467   1.759   4.974   5.297  1.7615  1.1153  1.2378
   20CHL1   C24 1468   1.765   5.141   5.182  0.8796  0.3447 -0.4683
   20CHL1  H24A 1469   1.874   5.128   5.199  0.3515 -0.5165  2.8739
   20CHL1  H24B 1470   1.741   5.082   5.091  0.7001 -0.1882 -0.0776
   20CHL1   C25 1471   1.731   5.289   5.164 -0.5210 -0.6183  0.3056
   20CHL1   H25 1472   1.623   5.299   5.139 -0.4067 -2.1554 -0.9481
   20CHL1   C26 1473   1.755   5.370   5.288 -0.5377 -0.3370  0.5982
   20CHL1  H26A 1474   1.665   5.366   5.353 -1.2995  1.7382 -0.2397
   20CHL1  H26B 1475   1.851   5.346   5.339  0.0365  2.2768  0.8817
   20CHL1  H26C 1476   1.760   5.479   5.271  0.9011 -0.7120 -1.8623
   20CHL1   C27 1477   1.811   5.339   5.047  0.4773 -0.7609  0.3916
   20CHL1  H27A 1478   1.919   5.338   5.072  0.9087 -0.0449 -1.2490
   20CHL1  H27B 1479   1.792   5.269   4.962  3.4276  0.2745 -1.2766
   20CHL1  H27C 1480   1.768   5.434   5.009 -0.2154 -1.2356 -0.0384
   21CHL1    C3 1481   5.665   3.156   6.273  0.2301 -0.4995  0.2145
   21CHL1    H3 1482   5.589   3.080   6.244  0.4041 -0.2270 -1.0455
   21CHL1    O3 1483   5.691   3.172   6.410 -0.2702 -0.5428  0.0519
   21CHL1   H3' 1484   5.727   3.260   6.419 -0.1560 -0.3697 -1.7275
   21CHL1    C4 1485   5.793   3.135   6.194  0.3252  0.5364 -0.3064
   21CHL1   H4A 1486   5.872   3.199   6.239  0.3999 -0.2626  0.7456
   21CHL1   H4B 1487   5.833   3.034   6.219  0.9131  0.0259 -2.9465
   21CHL1    C5 1488   5.784   3.143   6.043  0.0532 -0.0808  0.4922
   21CHL1    C6 1489   5.821   3.048   5.960  0.3000  0.3773  0.1912
   21CHL1    H6 1490   5.867   2.959   6.006  0.9700  0.3409 -0.5435
   21CHL1    C7 1491   5.819   3.052   5.813  0.4905 -0.3194  0.0248
   21CHL1   H7A 1492   5.915   3.015   5.770  1.3476  2.1742 -0.3728
   21CHL1   H7B 1493   5.733   2.987   5.787  0.5547 -0.2269 -0.4318
   21CHL1    C8 1494   5.797   3.195   5.764 -0.6416  0.0065  0.5022
   21CHL1    H8 1495   5.887   3.257   5.788  0.3177 -0.2220 -2.1396
   21CHL1   C14 1496   5.774   3.184   5.609 -0.0172 -0.0435  0.2876
   21CHL1   H14 1497   5.683   3.121   5.611 -1.1573  1.5678  1.0851
   21CHL1   C15 1498   5.872   3.108   5.521 -0.0169 -0.2657  0.5621
   21CHL1  H15A 1499   5.977   3.134   5.547 -0.0651 -1.1621  1.7530
   21CHL1  H15B 1500   5.865   2.997   5.522  0.4295 -0.3614 -1.3595
   21CHL1   C16 1501   5.833   3.157   5.378  0.5129  0.0170  0.5255
   21CHL1  H16A 1502   5.922   3.211   5.341  2.1718 -1.4389  2.1784
   21CHL1  H16B 1503   5.821   3.065   5.316  0.3645  0.5006 -0.1719
   21CHL1   C17 1504   5.718   3.261   5.397  0.7028 -0.7729  0.2387
   21CHL1   H17 1505   5.622   3.205   5.402  0.4224 -0.2881  0.4070
   21CHL1   C13 1506   5.743   3.312   5.542  0.0595  0.1863 -0.0477
   21CHL1   C18 1507   5.862   3.407   5.549 -0.7882 -0.6948  0.1487
   21CHL1  H18A 1508   5.847   3.509   5.506  1.3736 -0.0629  0.7523
   21CHL1  H18B 1509   5.890   3.420   5.656 -0.9659  0.5923  0.0565
   21CHL1  H18C 1510   5.954   3.372   5.497 -0.6570  1.1682 -0.9696
   21CHL1   C12 1511   5.620   3.374   5.616  0.0700  0.5698  0.6457
   21CHL1  H12A 1512   5.604   3.480   5.586 -0.3843  0.5035  0.6525
   21CHL1  H12B 1513   5.523   3.327   5.591  0.3715  1.0590 -1.6609
   21CHL1   C11 1514   5.631   3.390   5.773 -0.0572  0.1021 -0.6618
   21CHL1  H11A 1515   5.700   3.474   5.796 -0.6278  0.4334 -0.1379
   21CHL1  H11B 1516   5.528   3.412   5.807 -0.4038 -1.3625 -0.6638
   21CHL1    C9 1517   5.686   3.255   5.836  0.9091 -0.9856  0.3940
   21CHL1    H9 1518   5.606   3.177   5.830 -0.4889  0.5116 -3.1276
   21CHL1   C10 1519   5.711   3.272   5.986  0.5732 -0.2306 -0.3348
   21CHL1   C19 1520   5.792   3.401   6.014 -0.2929 -0.2394  0.6418
   21CHL1  H19A 1521   5.859   3.426   5.929 -0.7847 -0.4043  0.1948
   21CHL1  H19B 1522   5.721   3.486   6.024  0.5677  0.3949  1.4797
   21CHL1  H19C 1523   5.858   3.399   6.103  0.7073  0.7602 -0.0501
   21CHL1    C1 1524   5.578   3.281   6.072 -0.0723 -0.7999  0.1319
   21CHL1   H1A 1525   5.528   3.374   6.036  1.1213 -0.3838 -0.5085
   21CHL1   H1B 1526   5.510   3.196   6.050  0.7210 -2.0328  2.1819
   21CHL1    C2 1527   5.601   3.284   6.224 -0.2908 -1.2310 -0.0942
   21CHL1   H2A 1528   5.500   3.291   6.271  0.8070 -0.0951  2.2729
   21CHL1   H2B 1529   5.661   3.377   6.240 -1.3893 -0.1968 -1.6179
   21CHL1   C20 1530   5.706   3.358   5.282 -0.8996  0.7520  0.2389
   21CHL1   H20 1531   5.783   3.437   5.293 -0.2652  0.3580 -1.1698
   21CHL1   C21 1532   5.570   3.427   5.278  0.9975 -0.3519  0.3624
   21CHL1  H21A 1533   5.569   3.500   5.195  0.9558 -2.0977 -1.2553
   21CHL1  H21B 1534   5.542   3.484   5.369  2.2051  2.6376 -1.0331
   21CHL1  H21C 1535   5.487   3.354   5.262  1.4351 -0.4417 -1.6984
   21CHL1   C22 1536   5.713   3.277   5.151  0.3934  0.7821  0.6144
   21CHL1  H22A 1537   5.816   3.242   5.128 -0.0102 -0.1805  0.2253
   21CHL1  H22B 1538   5.637   3.196   5.157  0.6989  0.4591  0.1684
   21CHL1   C23 1539   5.678   3.349   5.018 -0.3142 -0.5106  1.1794
   21CHL1  H23A 1540   5.569   3.372   5.018 -0.4568 -1.0834  0.0506
   21CHL1  H23B 1541   5.735   3.445   5.011 -1.1208 -0.1386 -2.8908
   21CHL1   C24 1542   5.710   3.250   4.902 -0.4784 -0.0749  0.2085
   21CHL1  H24A 1543   5.820   3.240   4.885 -0.6954  2.5759 -4.8160
   21CHL1  H24B 1544   5.672   3.153   4.942 -1.4547  0.3463  0.3113
   21CHL1   C25 1545   5.655   3.291   4.766  0.0751 -0.1837 -0.4688
   21CHL1   H25 1546   5.546   3.312   4.772 -0.1935 -1.2196 -1.2205
   21CHL1   C26 1547   5.730   3.418   4.708  0.5065 -0.7810  0.0564
   21CHL1  H26A 1548   5.837   3.389   4.694 -0.0045 -2.1524 -1.2894
   21CHL1  H26B 1549   5.687   3.423   4.606  0.0350 -3.0353  0.0864
   21CHL1  H26C 1550   5.722   3.507   4.773  3.4558 -1.0167  0.9015
   21CHL1   C27 1551   5.676   3.178   4.666 -0.0091 -0.4155 -0.1208
   21CHL1  H27A 1552   5.777   3.165   4.622 -0.8793  1.6859 -3.0461
   21CHL1  H27B 1553   5.633   3.083   4.704 -2.5416  0.5944 -0.2649
   21CHL1  H27C 1554   5.615   3.214   4.580  0.1270  1.2985  0.4568
   22CHL1    C3 1555   0.227   2.655   6.460 -0.1199 -0.2184 -0.6928
   22CHL1    H3 1556   0.262   2.739   6.396 -1.6881 -0.4815 -1.9638
   22CHL1    O3 1557   0.252   2.682   6.594 -0.1967  0.0250 -0.8321
   22CHL1   H3' 1558   0.171   2.728   6.618 -1.0385 -2.6949  2.2873
   22CHL1    C4 1559   0.077   2.624   6.429  0.3079 -0.2744 -0.4519
   22CHL1   H4A 1560   0.039   2.544   6.495  0.5145  0.9436  1.1899
   22CHL1   H4B 1561   0.025   2.712   6.472  1.0899  0.8705 -1.7428
   22CHL1    C5 1562   0.057   2.613   6.283  0.3582  0.4659  0.4253
   22CHL1    C6 1563  -0.019   2.705   6.222  0.6053  0.6136 -0.2076
   22CHL1    H6 1564  -0.072   2.783   6.279 -0.1655 -0.9010  1.2227
   22CHL1    C7 1565  -0.045   2.704   6.073 -0.3278 -0.3888  0.0824
   22CHL1   H7A 1566  -0.156   2.716   6.066 -0.4803 -2.1279 -1.1193
   22CHL1   H7B 1567   0.011   2.786   6.024  0.5905 -0.4074  1.0764
   22CHL1    C8 1568  -0.005   2.571   6.011 -0.5189  0.1293  0.3492
   22CHL1    H8 1569  -0.081   2.495   6.041 -1.6617  1.3563  0.6621
   22CHL1   C14 1570  -0.009   2.583   5.855 -0.1550  0.4886  0.5410
   22CHL1   H14 1571   0.074   2.655   5.836 -0.7633  1.3443  1.0556
   22CHL1   C15 1572  -0.128   2.647   5.783 -0.4408  0.1429  0.1187
   22CHL1  H15A 1573  -0.224   2.602   5.816 -0.9608  0.8623 -0.3697
   22CHL1  H15B 1574  -0.133   2.756   5.805  1.4680  0.4827 -0.9405
   22CHL1   C16 1575  -0.101   2.612   5.632 -0.0287 -0.0944 -0.6290
   22CHL1  H16A 1576  -0.197   2.575   5.592 -2.5020  3.3583  1.5573
   22CHL1  H16B 1577  -0.063   2.703   5.580  2.9137 -0.8974 -0.0916
   22CHL1   C17 1578   0.014   2.507   5.632  0.8679  0.0964  0.0847
   22CHL1   H17 1579   0.103   2.571   5.612 -0.3159  1.0095 -2.6900
   22CHL1   C13 1580   0.024   2.458   5.783 -0.6266  0.1390  0.0738
   22CHL1   C18 1581  -0.081   2.349   5.812 -0.5539 -0.5374 -0.5730
   22CHL1  H18A 1582  -0.182   2.382   5.782 -1.2926 -3.2498 -1.3382
   22CHL1  H18B 1583  -0.069   2.259   5.748 -1.8089  1.5967 -4.0751
   22CHL1  H18C 1584  -0.083   2.318   5.919  0.2918  0.6212 -0.1946
   22CHL1   C12 1585   0.167   2.423   5.825 -0.3702 -0.3958 -0.2333
   22CHL1  H12A 1586   0.182   2.328   5.769  1.2036  0.4076 -1.2526
   22CHL1  H12B 1587   0.240   2.501   5.796 -0.8334 -0.0977 -0.6135
   22CHL1   C11 1588   0.192   2.406   5.975 -0.5644  0.4220  0.6382
   22CHL1  H11A 1589   0.146   2.313   6.015  2.3307 -0.9538  1.0029
   22CHL1  H11B 1590   0.300   2.391   5.992 -0.6536 -0.4087  0.5420
   22CHL1    C9 1591   0.140   2.529   6.058  0.3984 -0.1418 -0.4737
   22CHL1    H9 1592   0.203   2.618   6.037  0.2284  0.3506  1.0132
   22CHL1   C10 1593   0.140   2.500   6.210  0.5230 -0.2119  0.0565
   22CHL1   C19 1594   0.072   2.370   6.258 -0.0640  0.0933 -0.0066
   22CHL1  H19A 1595  -0.028   2.371   6.211  0.8572  1.3191 -2.0442
   22CHL1  H19B 1596   0.129   2.278   6.232 -0.5111 -0.5598  1.2152
   22CHL1  H19C 1597   0.047   2.363   6.366  1.7973 -1.5660  0.3663
   22CHL1    C1 1598   0.281   2.505   6.268 -0.1274  0.5917  0.2046
   22CHL1   H1A 1599   0.338   2.413   6.243  0.0593  1.0345 -1.0325
   22CHL1   H1B 1600   0.341   2.581   6.215  0.0627  1.1732  1.2379
   22CHL1    C2 1601   0.311   2.534   6.416  0.2137  0.1709 -0.4405
   22CHL1   H2A 1602   0.419   2.556   6.429  0.4184 -1.0823  0.1820
   22CHL1   H2B 1603   0.281   2.439   6.467 -1.5195  0.2916 -1.1816
   22CHL1   C20 1604  -0.002   2.405   5.512 -0.3326  0.5880 -0.0971
   22CHL1   H20 1605  -0.080   2.330   5.540  1.0333 -0.4161  1.1562
   22CHL1   C21 1606   0.132   2.330   5.501 -0.0796 -0.7143 -1.0842
   22CHL1  H21A 1607   0.139   2.287   5.399 -0.5222  1.5959 -2.1606
   22CHL1  H21B 1608   0.135   2.258   5.585 -1.6139  1.9844  1.4743
   22CHL1  H21C 1609   0.211   2.406   5.517 -0.7767 -0.4159  1.3212
   22CHL1   C22 1610  -0.042   2.464   5.375  0.3873 -0.1079  0.4976
   22CHL1  H22A 1611  -0.050   2.379   5.303  0.4574  0.5151 -0.2517
   22CHL1  H22B 1612  -0.147   2.501   5.383  0.1911 -0.8430  1.5713
   22CHL1   C23 1613   0.043   2.573   5.315 -0.7909 -0.4653 -0.2962
   22CHL1  H23A 1614   0.081   2.634   5.400  0.2043 -0.8468 -0.4555
   22CHL1  H23B 1615   0.125   2.530   5.254  0.4962 -0.3089  1.2705
   22CHL1   C24 1616  -0.038   2.656   5.213  0.5472  0.1665 -0.2154
   22CHL1  H24A 1617  -0.127   2.688   5.272  1.7374  1.0441  1.1700
   22CHL1  H24B 1618   0.020   2.747   5.190  3.8141 -2.1931 -2.0965
   22CHL1   C25 1619  -0.069   2.587   5.082  0.2648  0.2104  0.2125
   22CHL1   H25 1620  -0.113   2.487   5.100 -1.1997  0.9195  0.7760
   22CHL1   C26 1621  -0.170   2.667   5.000  0.2535  0.0159 -0.1857
   22CHL1  H26A 1622  -0.263   2.680   5.059 -0.8099  0.0330 -1.7861
   22CHL1  H26B 1623  -0.126   2.767   4.983  1.9091 -0.7591 -0.7569
   22CHL1  H26C 1624  -0.185   2.610   4.905  2.4973 -0.4981 -0.3020
   22CHL1   C27 1625   0.059   2.564   5.002 -0.1594 -0.2591 -0.3173
   22CHL1  H27A 1626   0.049   2.524   4.899  0.1414  1.4665 -1.0401
   22CHL1  H27B 1627   0.122   2.656   4.997 -0.4246  0.0881  1.8242
   22CHL1  H27C 1628   0.110   2.479   5.052 -0.0285  1.2043  2.2167
   23CHL1    C3 1629   6.159   5.872   6.513  0.6522 -0.1240 -0.3100
   23CHL1    H3 1630   6.202   5.973   6.528  0.9483 -0.3666  0.4999
   23CHL1    O3 1631   6.136   5.815   6.643  0.0829 -0.1104 -0.2307
   23CHL1   H3' 1632   6.206   5.848   6.700  0.6400  1.5711 -1.7681
   23CHL1    C4 1633   6.029   5.877   6.430  0.5010  0.0514 -0.8344
   23CHL1   H4A 1634   5.981   5.777   6.441  0.2480  0.1003 -1.4469
   23CHL1   H4B 1635   5.963   5.955   6.473  1.5755  0.3444  0.3268
   23CHL1    C5 1636   6.065   5.914   6.288 -0.0662  0.1022 -0.1385
   23CHL1    C6 1637   6.006   6.022   6.226  0.6653  0.0061  0.3496
   23CHL1    H6 1638   5.929   6.087   6.271  0.6797 -0.2998  0.8239
   23CHL1    C7 1639   6.020   6.058   6.083  0.0793  0.1828  0.2450
   23CHL1   H7A 1640   5.926   6.100   6.040 -0.4642 -0.3519  0.8868
   23CHL1   H7B 1641   6.089   6.145   6.077 -2.3342  2.1071 -1.5951
   23CHL1    C8 1642   6.086   5.943   6.000  0.2873  0.2805  0.1571
   23CHL1    H8 1643   6.013   5.861   5.982  2.5522 -1.5677 -1.3431
   23CHL1   C14 1644   6.145   5.992   5.869 -0.2822  0.3447 -0.5242
   23CHL1   H14 1645   6.234   6.055   5.891 -1.1226  2.0811 -1.9127
   23CHL1   C15 1646   6.057   6.084   5.780  0.2332  0.6053 -0.1365
   23CHL1  H15A 1647   5.955   6.042   5.779  0.3969  0.2027 -0.5878
   23CHL1  H15B 1648   6.046   6.186   5.822 -0.3576  1.2731 -1.8299
   23CHL1   C16 1649   6.133   6.101   5.650  0.4883 -0.4595 -0.3008
   23CHL1  H16A 1650   6.070   6.105   5.559 -0.0101 -1.4700 -0.0254
   23CHL1  H16B 1651   6.191   6.194   5.662 -1.5833  0.7102  1.4186
   23CHL1   C17 1652   6.234   5.975   5.651  0.2631 -0.7181 -0.7297
   23CHL1   H17 1653   6.328   6.030   5.671  0.2981  0.1931 -3.1237
   23CHL1   C13 1654   6.198   5.891   5.771 -0.0995  1.0738  0.1437
   23CHL1   C18 1655   6.077   5.791   5.733 -0.7610  0.3336 -1.2232
   23CHL1  H18A 1656   5.982   5.846   5.714 -2.8843 -3.2661 -1.8614
   23CHL1  H18B 1657   6.099   5.722   5.649  1.2380 -1.2854  0.5012
   23CHL1  H18C 1658   6.055   5.719   5.815 -1.5906  0.4226 -1.3611
   23CHL1   C12 1659   6.314   5.825   5.842 -0.9696 -0.6280  0.1454
   23CHL1  H12A 1660   6.358   5.734   5.798 -2.9816 -1.2032 -0.7909
   23CHL1  H12B 1661   6.402   5.890   5.862  0.3743 -2.0286 -0.9603
   23CHL1   C11 1662   6.274   5.771   5.979  0.0582 -0.3440  0.3269
   23CHL1  H11A 1663   6.207   5.684   5.964 -0.9481  0.2809  1.0383
   23CHL1  H11B 1664   6.371   5.741   6.024  1.8590  3.2854 -0.6779
   23CHL1    C9 1665   6.199   5.874   6.070 -0.4057 -0.7184 -0.6095
   23CHL1    H9 1666   6.279   5.949   6.081 -1.1040  0.0294 -0.5084
   23CHL1   C10 1667   6.169   5.829   6.212 -0.2438  0.4669 -0.6724
   23CHL1   C19 1668   6.122   5.685   6.208  0.0433 -0.7161 -0.1627
   23CHL1  H19A 1669   6.025   5.668   6.157  0.0428 -3.2559  0.5697
   23CHL1  H19B 1670   6.194   5.605   6.180 -0.8967 -2.2526  1.6075
   23CHL1  H19C 1671   6.091   5.668   6.314  0.5715  0.6625  0.2411
   23CHL1    C1 1672   6.300   5.835   6.308  0.0384  0.3637 -0.4967
   23CHL1   H1A 1673   6.373   5.764   6.264  1.7037  1.5551  0.2417
   23CHL1   H1B 1674   6.354   5.932   6.303  1.0712 -0.2276 -1.3264
   23CHL1    C2 1675   6.270   5.789   6.454 -0.4994 -0.3583 -0.1862
   23CHL1   H2A 1676   6.363   5.799   6.514 -1.5392 -1.1639  1.6400
   23CHL1   H2B 1677   6.232   5.685   6.462 -0.8959 -0.1325  1.0482
   23CHL1   C20 1678   6.250   5.911   5.514  0.5211  0.1615  0.7058
   23CHL1   H20 1679   6.309   5.818   5.522  1.3710  0.4751 -1.2439
   23CHL1   C21 1680   6.358   5.997   5.431  0.2188  0.4664  0.5058
   23CHL1  H21A 1681   6.330   6.104   5.416 -0.5851  0.1034 -0.8262
   23CHL1  H21B 1682   6.365   5.953   5.329 -0.4036 -2.5847  1.6653
   23CHL1  H21C 1683   6.454   5.989   5.485 -0.0507  0.4841  0.9921
   23CHL1   C22 1684   6.123   5.890   5.427  0.5254 -0.4934  0.5395
   23CHL1  H22A 1685   6.037   5.864   5.492  0.8168 -0.1011  1.0875
   23CHL1  H22B 1686   6.104   5.985   5.372  1.5460 -0.8316 -0.4423
   23CHL1   C23 1687   6.125   5.769   5.325 -0.1447  0.1096 -0.5697
   23CHL1  H23A 1688   6.202   5.787   5.248  0.9740 -1.0280  0.2470
   23CHL1  H23B 1689   6.147   5.681   5.388 -1.4389 -0.6036 -1.0882
   23CHL1   C24 1690   5.990   5.751   5.250 -0.9234  0.7058  0.1775
   23CHL1  H24A 1691   5.917   5.724   5.329  0.5163  0.3133  1.4159
   23CHL1  H24B 1692   5.964   5.852   5.211  0.4434  1.1910  0.4629
   23CHL1   C25 1693   6.014   5.657   5.137  0.1339  0.5298  0.0159
   23CHL1   H25 1694   6.088   5.711   5.074 -0.3367  0.2126 -0.8201
   23CHL1   C26 1695   6.059   5.513   5.170 -0.5267  0.0635  0.0245
   23CHL1  H26A 1696   6.068   5.460   5.073  0.7624  1.3257 -0.5796
   23CHL1  H26B 1697   6.162   5.518   5.213  0.2334  2.4020 -1.8629
   23CHL1  H26C 1698   5.979   5.477   5.239 -1.3891  2.1339  0.1770
   23CHL1   C27 1699   5.889   5.645   5.057 -0.2807 -0.6964  0.4518
   23CHL1  H27A 1700   5.918   5.641   4.949  0.9025 -0.7662  0.7593
   23CHL1  H27B 1701   5.830   5.553   5.074 -2.4357  0.5950  0.3783
   23CHL1  H27C 1702   5.821   5.732   5.068  0.7588  0.5669 -2.1098
   24CHL1    C3 1703   6.405   3.868   6.667 -0.0263  0.4885  0.4832
   24CHL1    H3 1704   6.358   3.767   6.672  0.0765  0.4738  1.2802
   24CHL1    O3 1705   6.390   3.938   6.795 -0.1201 -0.3310 -0.6205
   24CHL1   H3' 1706   6.439   4.019   6.778 -1.4764  0.3712 -1.2982
   24CHL1    C4 1707   6.554   3.839   6.634  0.7779  0.4695 -0.1983
   24CHL1   H4A 1708   6.606   3.937   6.638 -0.4664  1.1274  0.9565
   24CHL1   H4B 1709   6.597   3.778   6.717  0.7123  0.0633 -0.4601
   24CHL1    C5 1710   6.578   3.780   6.491  0.4804  0.1460 -0.4499
   24CHL1    C6 1711   6.655   3.672   6.475 -0.5747 -0.8148  0.0042
   24CHL1    H6 1712   6.697   3.624   6.565  2.0037 -0.3984 -0.8957
   24CHL1    C7 1713   6.690   3.617   6.341 -0.1197 -0.2745  0.2635
   24CHL1   H7A 1714   6.799   3.598   6.341 -0.2449 -1.0794 -0.8868
   24CHL1   H7B 1715   6.638   3.526   6.306 -0.8293  1.0986 -2.4974
   24CHL1    C8 1716   6.664   3.722   6.224 -0.6092  0.2516  0.0025
   24CHL1    H8 1717   6.745   3.798   6.229 -1.2409  1.1111 -1.7827
   24CHL1   C14 1718   6.663   3.652   6.088 -0.2738  0.0827 -0.2253
   24CHL1   H14 1719   6.573   3.586   6.090 -0.0924 -0.1597  0.2921
   24CHL1   C15 1720   6.783   3.556   6.072  0.9532  0.0625 -0.7176
   24CHL1  H15A 1721   6.877   3.609   6.100  1.4158 -0.4870 -1.1907
   24CHL1  H15B 1722   6.780   3.462   6.131  0.4242  1.2339  1.1868
   24CHL1   C16 1723   6.787   3.548   5.914  0.4767  0.7868 -0.2017
   24CHL1  H16A 1724   6.885   3.568   5.866 -0.0085  0.2430 -1.4815
   24CHL1  H16B 1725   6.766   3.441   5.893  3.0295 -0.1516  1.5283
   24CHL1   C17 1726   6.678   3.637   5.846  0.5161 -0.1424  0.3329
   24CHL1   H17 1727   6.582   3.582   5.848 -1.1418  2.5090 -0.6684
   24CHL1   C13 1728   6.650   3.741   5.966  0.1156 -0.1605 -0.2291
   24CHL1   C18 1729   6.758   3.853   5.965 -0.1224  0.0434 -0.1992
   24CHL1  H18A 1730   6.759   3.911   6.060  2.2303 -0.7691  0.3500
   24CHL1  H18B 1731   6.859   3.809   5.949 -0.6223 -1.1871 -0.0374
   24CHL1  H18C 1732   6.749   3.934   5.889 -2.4014 -0.2814 -0.3428
   24CHL1   C12 1733   6.507   3.804   5.975 -0.0581 -0.2603 -1.2981
   24CHL1  H12A 1734   6.480   3.868   5.888  0.2578  1.0391 -0.4698
   24CHL1  H12B 1735   6.449   3.709   5.965  0.3006 -0.6501  0.1952
   24CHL1   C11 1736   6.483   3.870   6.115 -0.5950 -0.0876  0.1383
   24CHL1  H11A 1737   6.545   3.963   6.116  2.2206 -1.6927 -3.1996
   24CHL1  H11B 1738   6.375   3.899   6.117  0.0071  2.3051  1.4599
   24CHL1    C9 1739   6.524   3.787   6.243  0.5333 -0.8886  0.0532
   24CHL1    H9 1740   6.448   3.706   6.253  1.6775 -2.0905 -0.7085
   24CHL1   C10 1741   6.511   3.863   6.379 -0.3683  0.4872  0.0721
   24CHL1   C19 1742   6.591   3.995   6.370 -0.4903  0.7964  0.2210
   24CHL1  H19A 1743   6.702   3.988   6.372 -0.5866 -0.9451  0.9376
   24CHL1  H19B 1744   6.555   4.054   6.283 -0.5153 -0.5118 -0.6918
   24CHL1  H19C 1745   6.573   4.064   6.455  0.2747  0.3108  0.7860
   24CHL1    C1 1746   6.371   3.896   6.406 -0.1229  0.5697  0.0653
   24CHL1   H1A 1747   6.330   3.964   6.329 -0.0625  0.8313  0.2616
   24CHL1   H1B 1748   6.311   3.803   6.396 -0.1998  0.7013 -0.7578
   24CHL1    C2 1749   6.335   3.948   6.552 -0.4153  0.0270  0.0428
   24CHL1   H2A 1750   6.224   3.946   6.558 -0.3888 -0.0645  0.5870
   24CHL1   H2B 1751   6.375   4.051   6.546  2.4085 -1.0535 -1.4206
   24CHL1   C20 1752   6.709   3.695   5.708 -0.5313  0.6432  0.8994
   24CHL1   H20 1753   6.810   3.741   5.703  0.4300 -1.4879 -2.7049
   24CHL1   C21 1754   6.604   3.800   5.668 -0.0765  0.2783 -0.3837
   24CHL1  H21A 1755   6.499   3.768   5.686  0.2041  0.8076  2.6808
   24CHL1  H21B 1756   6.618   3.830   5.562 -3.1567 -0.8166 -1.2216
   24CHL1  H21C 1757   6.607   3.889   5.734  0.3392  0.4346 -0.6140
   24CHL1   C22 1758   6.726   3.576   5.610  0.1533  0.7348  0.3088
   24CHL1  H22A 1759   6.833   3.550   5.622 -0.5559 -1.7163  2.2054
   24CHL1  H22B 1760   6.652   3.495   5.624  1.0781  0.1809  2.4679
   24CHL1   C23 1761   6.709   3.615   5.463  0.0320  0.1868 -0.3742
   24CHL1  H23A 1762   6.604   3.637   5.435  0.5924  0.5772 -2.3207
   24CHL1  H23B 1763   6.759   3.709   5.433  0.3391 -0.1121 -0.8071
   24CHL1   C24 1764   6.758   3.508   5.353  0.1934  0.0108  0.6010
   24CHL1  H24A 1765   6.858   3.474   5.388  0.0449  0.6887  1.7401
   24CHL1  H24B 1766   6.691   3.420   5.367  1.9532 -1.6814 -1.0914
   24CHL1   C25 1767   6.756   3.549   5.205 -0.0324 -0.1140 -0.0784
   24CHL1   H25 1768   6.665   3.609   5.185 -1.6764 -2.3152  0.4214
   24CHL1   C26 1769   6.884   3.620   5.164  0.3177 -0.8732  0.4125
   24CHL1  H26A 1770   6.870   3.645   5.057  0.9741  0.5158  0.6140
   24CHL1  H26B 1771   6.901   3.710   5.228 -0.1870 -0.5065  0.0435
   24CHL1  H26C 1772   6.971   3.554   5.187  2.1749  1.1905 -0.2303
   24CHL1   C27 1773   6.737   3.420   5.117 -0.5315 -0.6148 -0.9512
   24CHL1  H27A 1774   6.825   3.352   5.125  1.5958  2.1266  1.2355
   24CHL1  H27B 1775   6.651   3.364   5.160 -2.1942  2.6822  0.4150
   24CHL1  H27C 1776   6.718   3.440   5.010  0.4661  0.2310 -0.9869
   25CHL1    C3 1777   5.342   3.792   6.387  0.5192  0.0035  0.3806
   25CHL1    H3 1778   5.241   3.746   6.383  0.8486 -1.0117  2.4213
   25CHL1    O3 1779   5.383   3.807   6.530 -0.2807  0.2146 -0.2450
   25CHL1   H3' 1780   5.297   3.796   6.572  0.9307  1.1725  2.7587
   25CHL1    C4 1781   5.430   3.686   6.316  0.0710  0.1404  0.6098
   25CHL1   H4A 1782   5.535   3.721   6.332 -0.9779  2.3516  3.5379
   25CHL1   H4B 1783   5.421   3.586   6.364  1.8078 -0.9598 -1.1899
   25CHL1    C5 1784   5.386   3.675   6.168 -0.7428 -0.5606  0.5209
   25CHL1    C6 1785   5.329   3.562   6.123 -0.0278 -0.4531  0.4184
   25CHL1    H6 1786   5.310   3.479   6.192 -2.3838  0.2916  0.7500
   25CHL1    C7 1787   5.276   3.547   5.977 -0.4869  0.1280 -0.7491
   25CHL1   H7A 1788   5.315   3.452   5.933  0.3133 -0.4940  1.2094
   25CHL1   H7B 1789   5.165   3.550   5.979 -0.4528  1.3059  0.1991
   25CHL1    C8 1790   5.329   3.652   5.875  0.5101  0.1833 -0.4081
   25CHL1    H8 1791   5.436   3.630   5.857  0.5656  0.3843 -0.3227
   25CHL1   C14 1792   5.243   3.657   5.747 -0.1316  0.5658 -0.0438
   25CHL1   H14 1793   5.138   3.676   5.776  0.0937  0.5562  0.7947
   25CHL1   C15 1794   5.242   3.532   5.651  0.2138 -0.1190 -0.4026
   25CHL1  H15A 1795   5.341   3.485   5.635 -0.0233 -0.5896 -0.5236
   25CHL1  H15B 1796   5.183   3.450   5.698 -0.7819  1.2375  0.8146
   25CHL1   C16 1797   5.187   3.579   5.516 -0.6809  0.0685 -0.0808
   25CHL1  H16A 1798   5.258   3.549   5.437 -0.3241 -1.3320  0.7323
   25CHL1  H16B 1799   5.094   3.522   5.492 -0.6316 -1.4378  2.8089
   25CHL1   C17 1800   5.171   3.729   5.534 -0.0380  0.7805 -0.4671
   25CHL1   H17 1801   5.068   3.737   5.575  0.4895 -1.6956  1.6212
   25CHL1   C13 1802   5.281   3.766   5.650  0.7419 -0.8247  0.4006
   25CHL1   C18 1803   5.425   3.741   5.594  0.2519  0.4127 -0.7024
   25CHL1  H18A 1804   5.466   3.826   5.535 -2.1998  1.5170 -0.9487
   25CHL1  H18B 1805   5.494   3.724   5.679 -1.2155  0.2883  0.4953
   25CHL1  H18C 1806   5.430   3.664   5.514 -1.4254 -1.1093  0.5717
   25CHL1   C12 1807   5.265   3.901   5.716 -0.1303 -0.1807 -0.6365
   25CHL1  H12A 1808   5.299   3.982   5.648 -0.3605  0.2364 -0.2533
   25CHL1  H12B 1809   5.161   3.922   5.745 -0.3206 -1.8750  0.0364
   25CHL1   C11 1810   5.346   3.902   5.840  0.1488 -0.7706  0.3790
   25CHL1  H11A 1811   5.453   3.896   5.809  0.6664  1.3381  1.5224
   25CHL1  H11B 1812   5.324   4.000   5.888 -0.1990  0.7010 -2.5465
   25CHL1    C9 1813   5.314   3.794   5.941 -0.2429  0.4214  0.3953
   25CHL1    H9 1814   5.207   3.803   5.969 -0.5476 -0.4115 -0.4431
   25CHL1   C10 1815   5.388   3.804   6.083 -0.9921  0.7202 -0.5660
   25CHL1   C19 1816   5.532   3.874   6.065  0.3261 -0.2617  0.5078
   25CHL1  H19A 1817   5.585   3.815   5.987 -0.7590 -2.6257  1.4648
   25CHL1  H19B 1818   5.523   3.974   6.019 -1.7496 -1.2882 -1.4838
   25CHL1  H19C 1819   5.591   3.868   6.159 -0.0033 -0.4426  0.7024
   25CHL1    C1 1820   5.305   3.916   6.162  0.3891  0.5805  0.2890
   25CHL1   H1A 1821   5.317   4.011   6.104  0.0137 -1.3029 -3.1281
   25CHL1   H1B 1822   5.197   3.894   6.154  0.4625  0.0646  0.7097
   25CHL1    C2 1823   5.346   3.925   6.311 -1.0314 -0.3202  0.5633
   25CHL1   H2A 1824   5.282   3.993   6.371 -0.4798 -1.3094  2.3418
   25CHL1   H2B 1825   5.450   3.964   6.318 -0.3283 -2.0663  0.3528
   25CHL1   C20 1826   5.184   3.794   5.396 -0.3295  0.3810 -0.4227
   25CHL1   H20 1827   5.282   3.768   5.350 -0.4158  1.8268 -1.5204
   25CHL1   C21 1828   5.184   3.946   5.422 -0.0388  0.4338  0.0286
   25CHL1  H21A 1829   5.118   3.984   5.504  1.2753  1.4527  0.6407
   25CHL1  H21B 1830   5.161   4.008   5.332 -0.8694  0.7158  0.4224
   25CHL1  H21C 1831   5.288   3.982   5.437  0.2818 -0.8744  1.1537
   25CHL1   C22 1832   5.075   3.752   5.290 -0.6292  0.3521 -0.4687
   25CHL1  H22A 1833   5.096   3.819   5.203  1.0921  2.8864  1.7221
   25CHL1  H22B 1834   5.087   3.646   5.258  0.6431  0.9331 -2.0855
   25CHL1   C23 1835   4.919   3.757   5.324  0.3844 -0.1746 -0.4250
   25CHL1  H23A 1836   4.902   3.680   5.403  0.3130 -0.6794 -0.9284
   25CHL1  H23B 1837   4.894   3.856   5.368  0.4167  0.2639 -1.3695
   25CHL1   C24 1838   4.838   3.726   5.199  0.2596  0.6607 -0.5041
   25CHL1  H24A 1839   4.868   3.787   5.110  0.0258 -1.0366 -1.7981
   25CHL1  H24B 1840   4.868   3.621   5.180 -2.0066 -0.0918 -0.2180
   25CHL1   C25 1841   4.688   3.719   5.205  0.5135  0.3598 -0.5167
   25CHL1   H25 1842   4.647   3.653   5.285  2.0678  0.2984  0.2596
   25CHL1   C26 1843   4.632   3.859   5.240  0.1517 -0.0764  0.1182
   25CHL1  H26A 1844   4.524   3.851   5.262  0.4997 -0.9964  1.6812
   25CHL1  H26B 1845   4.680   3.901   5.331  2.5565  0.6134 -1.3739
   25CHL1  H26C 1846   4.651   3.933   5.159  1.8274 -0.3829  0.2025
   25CHL1   C27 1847   4.621   3.678   5.072  0.9205 -0.3723 -0.2043
   25CHL1  H27A 1848   4.632   3.766   5.005  1.7974 -1.2079 -1.1768
   25CHL1  H27B 1849   4.670   3.585   5.037  2.2595  0.3909 -0.4204
   25CHL1  H27C 1850   4.513   3.674   5.096  1.1594  1.4979  1.5164
   26CHL1    C3 1851   2.531   3.687   6.723 -0.5819  0.0310 -0.5505
   26CHL1    H3 1852   2.447   3.751   6.688 -1.9718 -1.7370 -0.6493
   26CHL1    O3 1853   2.541   3.699   6.861  0.1185 -0.4550 -0.7169
   26CHL1   H3' 1854   2.609   3.765   6.877 -1.9876  1.4733  0.9540
   26CHL1    C4 1855   2.508   3.546   6.685 -0.0891 -0.1267 -0.1966
   26CHL1   H4A 1856   2.602   3.491   6.707 -1.5743 -2.5412  0.4239
   26CHL1   H4B 1857   2.438   3.489   6.749  0.6647 -0.7315  0.1016
   26CHL1    C5 1858   2.472   3.543   6.535 -0.3301  0.2192 -0.0756
   26CHL1    C6 1859   2.350   3.501   6.491 -0.8048 -0.6913  0.6789
   26CHL1    H6 1860   2.276   3.461   6.563  1.2379  0.3484  3.5412
   26CHL1    C7 1861   2.320   3.504   6.346 -0.2787 -0.6499 -0.3514
   26CHL1   H7A 1862   2.272   3.407   6.324  1.2782 -1.3556 -0.7448
   26CHL1   H7B 1863   2.239   3.577   6.321  0.6290  1.1780  1.6412
   26CHL1    C8 1864   2.442   3.525   6.247 -0.0820  0.6889  0.5815
   26CHL1    H8 1865   2.502   3.432   6.239  2.7741  2.5731 -2.0498
   26CHL1   C14 1866   2.398   3.556   6.103 -0.5168  0.3901 -0.0864
   26CHL1   H14 1867   2.348   3.654   6.091 -2.6654 -0.8025 -1.4743
   26CHL1   C15 1868   2.298   3.451   6.044  0.4636  0.4473 -0.0117
   26CHL1  H15A 1869   2.318   3.343   6.059 -0.6158  0.0491 -1.2600
   26CHL1  H15B 1870   2.202   3.483   6.090 -0.4631  1.1873 -2.2822
   26CHL1   C16 1871   2.295   3.488   5.896  0.2314 -0.0486 -0.4048
   26CHL1  H16A 1872   2.305   3.399   5.830  0.4207  0.3895 -0.9850
   26CHL1  H16B 1873   2.208   3.550   5.867  0.4162  0.8452  0.8828
   26CHL1   C17 1874   2.423   3.591   5.882 -0.0075  0.1711 -0.6260
   26CHL1   H17 1875   2.378   3.692   5.887  0.5906  0.3939  0.6821
   26CHL1   C13 1876   2.505   3.575   6.011 -0.4066  0.2637 -0.3615
   26CHL1   C18 1877   2.590   3.444   5.999  0.0631  0.1880 -0.2477
   26CHL1  H18A 1878   2.656   3.458   5.911  0.4185  0.9456  0.1377
   26CHL1  H18B 1879   2.660   3.427   6.083  1.8974  1.0347 -1.5308
   26CHL1  H18C 1880   2.523   3.355   5.996  1.5319 -0.9948  0.8658
   26CHL1   C12 1881   2.593   3.697   6.057  0.1612  0.3159 -0.8621
   26CHL1  H12A 1882   2.681   3.713   5.991  0.5239  1.7581 -0.0692
   26CHL1  H12B 1883   2.528   3.787   6.051  0.7322  0.8127  0.1704
   26CHL1   C11 1884   2.642   3.694   6.199 -0.2396  0.5362  0.0218
   26CHL1  H11A 1885   2.743   3.647   6.205  0.0829  1.2425  0.2946
   26CHL1  H11B 1886   2.673   3.797   6.227  1.1532  0.6719 -1.7718
   26CHL1    C9 1887   2.534   3.639   6.299 -0.1139  0.3917  0.0142
   26CHL1    H9 1888   2.468   3.728   6.312 -2.8740 -1.6947  1.4051
   26CHL1   C10 1889   2.585   3.607   6.442  0.8398 -1.0870  0.6164
   26CHL1   C19 1890   2.698   3.505   6.429 -0.1204  0.1861  0.1335
   26CHL1  H19A 1891   2.729   3.467   6.529  0.7647 -1.5232 -0.7378
   26CHL1  H19B 1892   2.665   3.422   6.363  2.0116 -0.4756 -0.1693
   26CHL1  H19C 1893   2.793   3.543   6.386  0.2148  0.2994  0.9585
   26CHL1    C1 1894   2.632   3.746   6.501 -0.5898  0.1670 -0.1955
   26CHL1   H1A 1895   2.727   3.772   6.451  0.6274 -2.6772  0.4668
   26CHL1   H1B 1896   2.552   3.822   6.486 -1.7239 -0.7922  0.7240
   26CHL1    C2 1897   2.657   3.739   6.657  0.6019  0.6776  0.0662
   26CHL1   H2A 1898   2.693   3.840   6.684  0.8279  0.9806 -1.3157
   26CHL1   H2B 1899   2.741   3.669   6.675  0.7209  1.2513  1.9546
   26CHL1   C20 1900   2.489   3.576   5.747  0.6018 -0.0698  0.6906
   26CHL1   H20 1901   2.527   3.473   5.733  0.3844 -0.1825  0.9324
   26CHL1   C21 1902   2.620   3.663   5.739  0.6518 -0.1228  0.3179
   26CHL1  H21A 1903   2.596   3.771   5.754 -0.8028 -0.0990 -1.8248
   26CHL1  H21B 1904   2.661   3.655   5.636 -1.3577  1.2129 -0.6325
   26CHL1  H21C 1905   2.702   3.636   5.810  2.4719  0.5412 -1.4214
   26CHL1   C22 1906   2.391   3.612   5.635 -0.1006 -0.2478  0.3970
   26CHL1  H22A 1907   2.304   3.543   5.632 -0.3040 -0.0222  1.0289
   26CHL1  H22B 1908   2.358   3.717   5.653 -0.2850  0.0157 -1.3165
   26CHL1   C23 1909   2.445   3.618   5.492 -0.0880 -0.1919  0.7751
   26CHL1  H23A 1910   2.526   3.694   5.487 -0.8920  0.6164 -0.8680
   26CHL1  H23B 1911   2.486   3.519   5.462 -0.1503 -0.1459  0.5352
   26CHL1   C24 1912   2.326   3.659   5.393 -0.2472  0.5028 -0.6987
   26CHL1  H24A 1913   2.251   3.579   5.410 -1.7229  1.4226 -2.5756
   26CHL1  H24B 1914   2.278   3.750   5.435  2.0374  0.8395  1.4219
   26CHL1   C25 1915   2.364   3.658   5.249 -0.2037  0.4300  0.4768
   26CHL1   H25 1916   2.421   3.746   5.213  1.5319 -0.7192  0.3219
   26CHL1   C26 1917   2.447   3.526   5.210 -0.3052 -0.7560  0.9149
   26CHL1  H26A 1918   2.391   3.432   5.225 -0.5542 -0.7786 -0.1166
   26CHL1  H26B 1919   2.467   3.528   5.101  0.7333  2.0749  1.0638
   26CHL1  H26C 1920   2.549   3.533   5.254  0.8393  0.0522 -1.6429
   26CHL1   C27 1921   2.238   3.656   5.158 -0.4176  0.4900  0.0477
   26CHL1  H27A 1922   2.179   3.563   5.170  2.0643 -1.1074  0.6835
   26CHL1  H27B 1923   2.181   3.748   5.182  0.5072  0.4999  2.5641
   26CHL1  H27C 1924   2.268   3.657   5.051  0.5482 -0.4491  0.2891
   27CHL1    C3 1925   1.156   4.515   6.222  0.3083 -0.2339 -0.5533
   27CHL1    H3 1926   1.195   4.619   6.215 -0.1935  0.1177  1.1808
   27CHL1    O3 1927   1.125   4.485   6.358 -0.7860 -0.3230 -0.1210
   27CHL1   H3' 1928   1.087   4.398   6.370 -0.0518 -0.7566 -0.8215
   27CHL1    C4 1929   1.028   4.498   6.144  0.8851 -0.8232  0.0045
   27CHL1   H4A 1930   0.989   4.396   6.164 -0.7781 -0.1476  0.3418
   27CHL1   H4B 1931   0.946   4.563   6.183  0.3051 -0.9934 -0.9088
   27CHL1    C5 1932   1.054   4.515   6.000 -0.2712 -0.7344  0.3198
   27CHL1    C6 1933   0.987   4.600   5.917 -0.2932  0.6591  0.6378
   27CHL1    H6 1934   0.903   4.655   5.962 -2.3703  0.3478 -2.5860
   27CHL1    C7 1935   1.021   4.624   5.778 -0.1100 -0.5421  0.0726
   27CHL1   H7A 1936   0.924   4.636   5.726 -0.4333  1.0095  0.9804
   27CHL1   H7B 1937   1.075   4.721   5.773 -1.9120  0.6228  1.9626
   27CHL1    C8 1938   1.101   4.516   5.715 -0.5208  0.0277 -0.8621
   27CHL1    H8 1939   1.034   4.428   5.702  0.8251 -1.1677  0.0290
   27CHL1   C14 1940   1.160   4.556   5.574  0.5306  0.2674  0.2311
   27CHL1   H14 1941   1.242   4.628   5.593 -0.0413  1.8956 -2.8101
   27CHL1   C15 1942   1.087   4.641   5.471 -0.6791  1.1400  0.1662
   27CHL1  H15A 1943   0.989   4.589   5.457  0.0817 -0.9995  2.1952
   27CHL1  H15B 1944   1.072   4.747   5.498 -0.1400  0.8340  1.7966
   27CHL1   C16 1945   1.163   4.631   5.343 -0.3287  0.0453 -0.2652
   27CHL1  H16A 1946   1.088   4.604   5.265 -2.5438  1.9778  1.0734
   27CHL1  H16B 1947   1.206   4.731   5.322 -1.3025  0.8372  1.3382
   27CHL1   C17 1948   1.271   4.522   5.363  0.4544 -0.5196  0.5519
   27CHL1   H17 1949   1.366   4.575   5.382  0.8115 -0.4756 -1.1440
   27CHL1   C13 1950   1.234   4.448   5.497 -0.0138 -0.5792  1.1551
   27CHL1   C18 1951   1.140   4.331   5.466 -0.2052  0.1107  0.5070
   27CHL1  H18A 1952   1.191   4.245   5.418  0.8823  0.4333  1.0569
   27CHL1  H18B 1953   1.090   4.291   5.557 -0.3559 -2.2923 -0.5735
   27CHL1  H18C 1954   1.072   4.367   5.385  1.0621  0.8584 -0.2582
   27CHL1   C12 1955   1.357   4.409   5.578  0.0476 -0.2581 -0.6503
   27CHL1  H12A 1956   1.410   4.323   5.533 -1.7353 -1.6203 -0.2448
   27CHL1  H12B 1957   1.426   4.495   5.589 -0.2985  0.6116 -3.9254
   27CHL1   C11 1958   1.313   4.377   5.720  0.0959 -0.1731 -1.3618
   27CHL1  H11A 1959   1.272   4.274   5.717 -0.6781  0.1416 -2.5357
   27CHL1  H11B 1960   1.407   4.369   5.778 -1.6344  1.1894  1.8310
   27CHL1    C9 1961   1.222   4.479   5.800  0.1390  0.0942 -0.2285
   27CHL1    H9 1962   1.290   4.566   5.817  0.3109  0.3540 -2.0917
   27CHL1   C10 1963   1.178   4.439   5.949 -0.2486 -0.0090 -0.5627
   27CHL1   C19 1964   1.133   4.291   5.935  0.2130 -0.4368 -0.3747
   27CHL1  H19A 1965   1.054   4.280   5.858 -0.0544  0.1980 -0.1953
   27CHL1  H19B 1966   1.216   4.223   5.906  0.1368 -0.1587 -1.2607
   27CHL1  H19C 1967   1.092   4.262   6.035 -0.6735  2.5712  0.2493
   27CHL1    C1 1968   1.305   4.458   6.040 -0.6315  0.3500  0.9635
   27CHL1   H1A 1969   1.387   4.394   6.001 -0.5046  2.1230 -1.9580
   27CHL1   H1B 1970   1.340   4.563   6.039  1.3514 -0.2616  0.3308
   27CHL1    C2 1971   1.265   4.421   6.185 -0.0311 -0.6512 -0.2255
   27CHL1   H2A 1972   1.354   4.429   6.250 -1.1646 -0.0860  1.3031
   27CHL1   H2B 1973   1.230   4.315   6.186 -2.5675  0.1147  1.5655
   27CHL1   C20 1974   1.304   4.441   5.237 -0.2830  0.4986  0.0175
   27CHL1   H20 1975   1.209   4.385   5.222 -1.0296  1.7893 -0.2392
   27CHL1   C21 1976   1.415   4.335   5.259  0.3828  0.0939 -0.4230
   27CHL1  H21A 1977   1.513   4.373   5.293  0.1948  0.4488 -0.2685
   27CHL1  H21B 1978   1.448   4.277   5.169 -0.3786 -3.4382  1.3871
   27CHL1  H21C 1979   1.387   4.255   5.331  2.9452 -1.0354 -0.5918
   27CHL1   C22 1980   1.346   4.532   5.112 -0.6600  1.1665 -0.3630
   27CHL1  H22A 1981   1.261   4.594   5.076 -0.5358  0.9405 -1.0794
   27CHL1  H22B 1982   1.415   4.610   5.149  0.3750 -0.0310  0.3467
   27CHL1   C23 1983   1.385   4.440   4.995  0.7626 -0.1985 -0.7373
   27CHL1  H23A 1984   1.481   4.386   5.005  2.4260  2.9463  4.2784
   27CHL1  H23B 1985   1.303   4.370   4.970  0.1985 -0.0984  0.7524
   27CHL1   C24 1986   1.396   4.530   4.868  0.7487  0.0123  0.7189
   27CHL1  H24A 1987   1.309   4.599   4.868  1.4607  0.9312  1.3815
   27CHL1  H24B 1988   1.483   4.597   4.883 -1.4466  3.1607  0.3051
   27CHL1   C25 1989   1.415   4.449   4.733 -0.3554 -0.3846 -0.0723
   27CHL1   H25 1990   1.342   4.365   4.736 -1.0058  0.1893  0.6426
   27CHL1   C26 1991   1.402   4.537   4.610  0.2447 -0.5784  0.4583
   27CHL1  H26A 1992   1.435   4.472   4.526  0.5103 -0.6843  0.6441
   27CHL1  H26B 1993   1.297   4.568   4.588  0.7798  0.7834 -0.2943
   27CHL1  H26C 1994   1.468   4.625   4.623 -0.1144 -0.5338  2.2584
   27CHL1   C27 1995   1.560   4.388   4.741  0.9975 -0.7274 -0.0752
   27CHL1  H27A 1996   1.630   4.468   4.773 -1.5703  2.4024 -1.6715
   27CHL1  H27B 1997   1.580   4.305   4.812 -0.0519 -1.3790 -0.5103
   27CHL1  H27C 1998   1.599   4.361   4.641  2.2203 -0.6888  0.3791
   28CHL1    C3 1999   0.864   5.142   6.566 -0.0637  0.2252  0.2211
   28CHL1    H3 2000   0.897   5.246   6.546 -0.9002  0.2764 -0.9849
   28CHL1    O3 2001   0.869   5.111   6.699 -0.4934 -0.1522 -1.0280
   28CHL1   H3' 2002   0.848   5.019   6.716 -1.5781  0.3626  0.6647
   28CHL1    C4 2003   0.716   5.123   6.517 -0.4930 -0.0764 -0.3065
   28CHL1   H4A 2004   0.676   5.025   6.549 -0.4866  0.0478  0.0805
   28CHL1   H4B 2005   0.662   5.200   6.576 -1.5418 -0.4072 -0.8053
   28CHL1    C5 2006   0.701   5.137   6.368 -0.3229 -0.4347 -0.5106
   28CHL1    C6 2007   0.614   5.224   6.307 -0.4934  0.2366  0.7826
   28CHL1    H6 2008   0.558   5.294   6.371 -1.1703 -0.4557  0.9532
   28CHL1    C7 2009   0.590   5.219   6.153 -0.3775 -0.0617 -0.4174
   28CHL1   H7A 2010   0.483   5.232   6.128 -0.8891 -1.4337  0.9312
   28CHL1   H7B 2011   0.644   5.308   6.114 -2.8188  1.3147 -0.8276
   28CHL1    C8 2012   0.649   5.098   6.074 -0.4434  0.6455  0.2247
   28CHL1    H8 2013   0.586   5.007   6.070  0.5830 -0.0473 -1.8015
   28CHL1   C14 2014   0.659   5.134   5.926  0.3865 -0.3984 -0.0174
   28CHL1   H14 2015   0.728   5.220   5.935  0.7005 -0.7442  1.1028
   28CHL1   C15 2016   0.536   5.208   5.848  0.5223 -0.2117 -0.6283
   28CHL1  H15A 2017   0.446   5.145   5.867  1.4933 -2.2319 -2.3822
   28CHL1  H15B 2018   0.513   5.309   5.888 -0.7183 -0.6903 -0.0611
   28CHL1   C16 2019   0.581   5.194   5.700 -0.2482 -0.0261 -0.1401
   28CHL1  H16A 2020   0.507   5.133   5.644  1.0227  0.2346 -2.2144
   28CHL1  H16B 2021   0.591   5.294   5.653  0.0900 -0.0377 -0.1023
   28CHL1   C17 2022   0.715   5.116   5.701 -0.0096 -1.0588  0.2788
   28CHL1   H17 2023   0.786   5.200   5.711 -0.3519 -1.0075  3.1581
   28CHL1   C13 2024   0.719   5.036   5.833  0.1211 -0.4675  0.1338
   28CHL1   C18 2025   0.640   4.906   5.813  0.4117  0.2346  0.3870
   28CHL1  H18A 2026   0.620   4.857   5.911  0.3248 -0.0225  0.2405
   28CHL1  H18B 2027   0.547   4.931   5.759  0.8750  0.1163 -0.4773
   28CHL1  H18C 2028   0.696   4.839   5.745  0.7463 -0.1259  1.0114
   28CHL1   C12 2029   0.854   4.998   5.891  0.2291  0.4730 -0.3254
   28CHL1  H12A 2030   0.896   4.917   5.827  0.8050 -0.3754  1.0839
   28CHL1  H12B 2031   0.933   5.075   5.880  3.2786 -2.4001  0.0992
   28CHL1   C11 2032   0.854   4.964   6.038 -0.2001  0.2424 -0.2038
   28CHL1  H11A 2033   0.792   4.872   6.044  2.8060 -2.0491 -1.3344
   28CHL1  H11B 2034   0.954   4.934   6.077 -0.8377 -3.5979 -1.0791
   28CHL1    C9 2035   0.791   5.068   6.123 -0.4317 -0.6605  0.7612
   28CHL1    H9 2036   0.854   5.156   6.101 -2.6732  0.5120 -1.3985
   28CHL1   C10 2037   0.794   5.049   6.279 -0.3389 -0.4607 -0.2660
   28CHL1   C19 2038   0.739   4.912   6.305 -0.1882  0.2380 -0.5084
   28CHL1  H19A 2039   0.638   4.901   6.261 -1.2880 -0.1542  1.9253
   28CHL1  H19B 2040   0.806   4.833   6.264  0.8890  0.3841  0.8849
   28CHL1  H19C 2041   0.742   4.887   6.414  1.1667  0.9052 -0.3735
   28CHL1    C1 2042   0.939   5.062   6.334 -0.3803  0.2045  0.0883
   28CHL1   H1A 2043   1.006   4.986   6.289 -0.2673 -1.4120  2.7899
   28CHL1   H1B 2044   0.967   5.168   6.315 -2.0477  0.8127  0.7695
   28CHL1    C2 2045   0.952   5.041   6.487 -0.4645  0.5645  0.3562
   28CHL1   H2A 2046   1.059   5.038   6.519  0.1705 -1.7940 -1.6799
   28CHL1   H2B 2047   0.929   4.936   6.513  2.1080  0.1637  1.2781
   28CHL1   C20 2048   0.740   5.041   5.564 -0.8112  0.0048 -0.0062
   28CHL1   H20 2049   0.679   4.948   5.559  0.5344 -0.9400  0.4964
   28CHL1   C21 2050   0.893   5.009   5.550  0.7119  0.5142 -0.5163
   28CHL1  H21A 2051   0.920   4.938   5.631 -1.8525 -2.5231 -2.0925
   28CHL1  H21B 2052   0.958   5.100   5.550 -1.2615  2.0136  1.1112
   28CHL1  H21C 2053   0.905   4.938   5.465 -0.6003 -0.8825  0.4194
   28CHL1   C22 2054   0.689   5.133   5.451 -1.0782  0.1402 -0.2992
   28CHL1  H22A 2055   0.586   5.173   5.466 -1.1571  1.0994 -2.8747
   28CHL1  H22B 2056   0.759   5.219   5.444  0.5308 -0.8616  2.1440
   28CHL1   C23 2057   0.690   5.073   5.308 -0.0069  0.1477 -0.0096
   28CHL1  H23A 2058   0.788   5.020   5.301  0.0144  0.0736  0.7567
   28CHL1  H23B 2059   0.610   4.996   5.297 -1.3828  1.3368  1.2633
   28CHL1   C24 2060   0.688   5.186   5.209 -0.2107  0.1646  0.0601
   28CHL1  H24A 2061   0.590   5.238   5.202  0.3039  1.1281 -0.1802
   28CHL1  H24B 2062   0.761   5.263   5.243  1.4417 -1.2720 -0.0788
   28CHL1   C25 2063   0.725   5.151   5.063 -0.6468 -0.2188 -0.2808
   28CHL1   H25 2064   0.817   5.089   5.063 -1.5894 -1.6586 -1.0624
   28CHL1   C26 2065   0.621   5.066   5.000  0.1026  0.3465  0.4857
   28CHL1  H26A 2066   0.662   5.025   4.906 -1.2339 -0.1515  0.0904
   28CHL1  H26B 2067   0.598   4.977   5.062  0.1824 -0.6048 -0.8172
   28CHL1  H26C 2068   0.524   5.119   4.982 -1.5911 -2.3943  0.9803
   28CHL1   C27 2069   0.749   5.266   4.981  0.1463 -0.2319  0.5309
   28CHL1  H27A 2070   0.796   5.346   5.042  1.3788  1.2101 -2.1355
   28CHL1  H27B 2071   0.801   5.244   4.886 -0.4141  1.5080 -0.2088
   28CHL1  H27C 2072   0.650   5.308   4.952 -0.1025 -0.4596  1.0362
   29CHL1    C3 2073   5.334   4.781   3.414 -0.1389  0.2551  0.1495
   29CHL1    H3 2074   5.251   4.712   3.443  1.9727 -2.2447  0.6577
   29CHL1    O3 2075   5.344   4.802   3.276  0.0699  0.5356  0.4805
   29CHL1   H3' 2076   5.414   4.741   3.250  0.0338  0.5610  0.3206
   29CHL1    C4 2077   5.312   4.918   3.486  0.1355 -0.0913 -0.8062
   29CHL1   H4A 2078   5.395   4.983   3.451  0.6383  0.4985  1.3812
   29CHL1   H4B 2079   5.209   4.950   3.458 -0.1307  1.0295  1.2827
   29CHL1    C5 2080   5.306   4.906   3.636 -0.1243 -0.0962 -0.3915
   29CHL1    C6 2081   5.210   4.964   3.709 -0.2752  0.0655  0.0785
   29CHL1    H6 2082   5.126   5.014   3.659 -0.1791  0.1905  0.0404
   29CHL1    C7 2083   5.205   4.954   3.857  0.4148 -0.0311 -0.3850
   29CHL1   H7A 2084   5.180   5.043   3.918 -2.3092 -0.9512 -0.0086
   29CHL1   H7B 2085   5.123   4.882   3.878  0.9859 -0.5081  0.2099
   29CHL1    C8 2086   5.334   4.900   3.925 -0.4966 -0.0209  0.8315
   29CHL1    H8 2087   5.406   4.984   3.925  1.8443 -1.9178  1.5647
   29CHL1   C14 2088   5.308   4.857   4.066 -0.2295  0.0273 -0.1605
   29CHL1   H14 2089   5.240   4.770   4.054  0.4721 -0.3826 -1.4014
   29CHL1   C15 2090   5.241   4.947   4.170  0.0363 -0.3029  0.7461
   29CHL1  H15A 2091   5.301   5.040   4.171  1.4541 -1.1763  0.1261
   29CHL1  H15B 2092   5.145   4.975   4.122  0.0552  0.3344  1.0658
   29CHL1   C16 2093   5.251   4.872   4.297 -0.1350 -0.2719 -0.0093
   29CHL1  H16A 2094   5.271   4.942   4.381  0.1065  1.9784 -1.8733
   29CHL1  H16B 2095   5.155   4.818   4.318 -1.1641 -0.1006 -3.6646
   29CHL1   C17 2096   5.373   4.769   4.274  0.0687  0.1845 -1.1720
   29CHL1   H17 2097   5.329   4.668   4.257  1.4367 -0.1819 -2.9534
   29CHL1   C13 2098   5.437   4.802   4.139  0.5159 -0.6968 -0.0755
   29CHL1   C18 2099   5.541   4.921   4.156 -0.5426 -0.4340  1.0157
   29CHL1  H18A 2100   5.502   5.011   4.207 -1.8217 -1.8243  2.6486
   29CHL1  H18B 2101   5.630   4.876   4.205  0.5441 -1.0575 -1.4018
   29CHL1  H18C 2102   5.590   4.953   4.062  0.5038 -0.9309  1.3795
   29CHL1   C12 2103   5.495   4.686   4.062 -0.0178  0.7791  0.5039
   29CHL1  H12A 2104   5.577   4.633   4.114  0.1121 -1.4027 -1.7508
   29CHL1  H12B 2105   5.414   4.610   4.060 -0.2809  1.0398  1.0120
   29CHL1   C11 2106   5.528   4.731   3.918 -0.0581  0.3009 -0.0981
   29CHL1  H11A 2107   5.611   4.805   3.915  0.6701 -0.5122 -0.5278
   29CHL1  H11B 2108   5.569   4.653   3.850 -0.2710  0.5926 -0.5621
   29CHL1    C9 2109   5.401   4.784   3.845  0.0208 -0.7123  0.0248
   29CHL1    H9 2110   5.333   4.696   3.837 -0.9638 -0.0347  0.7103
   29CHL1   C10 2111   5.426   4.822   3.694  0.0870  0.0403 -0.0034
   29CHL1   C19 2112   5.544   4.923   3.690  0.2234  0.1072 -0.1200
   29CHL1  H19A 2113   5.558   4.979   3.785  3.0960 -1.2603  0.3472
   29CHL1  H19B 2114   5.640   4.868   3.695  1.6086  2.4205  0.2461
   29CHL1  H19C 2115   5.551   4.987   3.599  0.4378  0.4111  0.1090
   29CHL1    C1 2116   5.453   4.698   3.609 -0.2164 -0.1274 -0.2870
   29CHL1   H1A 2117   5.553   4.656   3.633 -0.9934 -2.2069 -0.4641
   29CHL1   H1B 2118   5.373   4.623   3.627  1.2915 -2.2615 -2.0094
   29CHL1    C2 2119   5.466   4.724   3.462 -0.2822  0.9338 -0.5967
   29CHL1   H2A 2120   5.507   4.647   3.393 -1.5283 -1.2569  0.9766
   29CHL1   H2B 2121   5.540   4.805   3.449  1.7513 -0.7260 -0.0549
   29CHL1   C20 2122   5.472   4.745   4.395 -0.4744  0.2119 -0.0650
   29CHL1   H20 2123   5.534   4.836   4.410  1.4151 -0.5251 -2.5715
   29CHL1   C21 2124   5.587   4.642   4.381 -0.1373 -0.3542 -1.2541
   29CHL1  H21A 2125   5.651   4.638   4.472  1.2796 -0.0982 -2.2032
   29CHL1  H21B 2126   5.657   4.661   4.296 -1.2365 -0.6444 -2.2462
   29CHL1  H21C 2127   5.542   4.546   4.347  0.1043 -0.4517 -1.3051
   29CHL1   C22 2128   5.395   4.720   4.525 -0.2547 -0.6247  0.0961
   29CHL1  H22A 2129   5.326   4.806   4.537 -0.6556 -0.9183 -0.0926
   29CHL1  H22B 2130   5.339   4.625   4.515  0.7716 -1.2044 -0.4323
   29CHL1   C23 2131   5.483   4.710   4.648 -0.0927 -0.4973 -0.5950
   29CHL1  H23A 2132   5.559   4.628   4.646  1.3888  0.8233 -0.7706
   29CHL1  H23B 2133   5.549   4.800   4.654  1.7924 -1.6743 -2.2742
   29CHL1   C24 2134   5.408   4.710   4.784 -0.0930  0.1283  0.0021
   29CHL1  H24A 2135   5.330   4.788   4.777 -0.6228 -0.4902 -1.5409
   29CHL1  H24B 2136   5.351   4.616   4.798 -0.8956  0.8593  1.9405
   29CHL1   C25 2137   5.484   4.727   4.915 -0.5875 -0.2689  0.1969
   29CHL1   H25 2138   5.517   4.833   4.922  3.5437 -1.3610 -0.3818
   29CHL1   C26 2139   5.374   4.712   5.028  0.2690 -0.8595  0.4470
   29CHL1  H26A 2140   5.326   4.613   5.019 -1.5131 -0.0290  0.4916
   29CHL1  H26B 2141   5.428   4.706   5.125  2.8555 -0.5200 -0.8810
   29CHL1  H26C 2142   5.302   4.796   5.026  1.0984 -0.1356 -1.2873
   29CHL1   C27 2143   5.591   4.619   4.930 -0.3655  0.5126  0.1638
   29CHL1  H27A 2144   5.675   4.637   4.859  0.2924  0.9567  1.0350
   29CHL1  H27B 2145   5.636   4.610   5.031  0.8707 -1.0550 -0.4767
   29CHL1  H27C 2146   5.538   4.523   4.913 -2.6745  1.7040  0.2328
   30CHL1    C3 2147   0.319   5.883   3.218  0.1722 -0.3068  0.3379
   30CHL1    H3 2148   0.212   5.913   3.219  0.1534 -0.4000  1.0574
   30CHL1    O3 2149   0.368   5.907   3.086 -0.6898 -0.2586  0.6423
   30CHL1   H3' 2150   0.462   5.887   3.089 -0.7185 -0.6760 -0.6667
   30CHL1    C4 2151   0.394   5.987   3.307  0.3994  0.3900 -0.2446
   30CHL1   H4A 2152   0.503   5.972   3.292  0.5227 -0.8585  1.5138
   30CHL1   H4B 2153   0.358   6.087   3.275  0.9697  1.2314  1.5783
   30CHL1    C5 2154   0.369   5.970   3.455  0.3872  0.4381 -0.2836
   30CHL1    C6 2155   0.323   6.065   3.532  0.4446  0.1156  0.1930
   30CHL1    H6 2156   0.301   6.161   3.483 -1.2736 -1.4227 -2.2303
   30CHL1    C7 2157   0.312   6.057   3.682 -0.1479 -0.5588  0.4141
   30CHL1   H7A 2158   0.352   6.151   3.726 -2.8698 -0.3929  2.8301
   30CHL1   H7B 2159   0.209   6.065   3.724  1.1909  1.4109  3.7901
   30CHL1    C8 2160   0.386   5.936   3.743 -0.6031  0.0801  0.1489
   30CHL1    H8 2161   0.493   5.967   3.753 -0.6199 -0.4334  2.7931
   30CHL1   C14 2162   0.342   5.907   3.886  0.1907  0.4303 -0.5361
   30CHL1   H14 2163   0.238   5.875   3.865 -0.2134  1.6035 -0.4122
   30CHL1   C15 2164   0.331   6.028   3.981 -0.2005  0.9384  0.0201
   30CHL1  H15A 2165   0.422   6.090   3.969  0.6718 -0.3166 -0.0388
   30CHL1  H15B 2166   0.248   6.096   3.954 -0.6508 -0.2879 -1.9193
   30CHL1   C16 2167   0.320   5.969   4.119 -0.0118 -0.0305  0.0741
   30CHL1  H16A 2168   0.405   6.010   4.178  1.1594 -0.2884 -1.3649
   30CHL1  H16B 2169   0.227   5.991   4.175 -0.1804  1.4823 -0.7288
   30CHL1   C17 2170   0.339   5.813   4.104  0.0989 -0.7052  0.0445
   30CHL1   H17 2171   0.233   5.781   4.098  0.0215 -0.2553 -1.2846
   30CHL1   C13 2172   0.403   5.788   3.967  0.1685  0.0691  0.3197
   30CHL1   C18 2173   0.557   5.805   3.972  0.0294 -0.3226 -0.2530
   30CHL1  H18A 2174   0.589   5.901   4.017 -3.5215  1.3373 -0.9838
   30CHL1  H18B 2175   0.599   5.723   4.034  0.5858 -0.6969 -1.0985
   30CHL1  H18C 2176   0.593   5.798   3.867 -1.0809  2.1670 -0.8599
   30CHL1   C12 2177   0.362   5.660   3.881 -0.0391 -0.5299 -1.1101
   30CHL1  H12A 2178   0.419   5.580   3.934 -0.0223 -0.9059 -1.6884
   30CHL1  H12B 2179   0.253   5.643   3.882 -0.8722  3.7425 -2.1163
   30CHL1   C11 2180   0.399   5.678   3.729  0.3540  0.2589 -0.4051
   30CHL1  H11A 2181   0.508   5.701   3.735 -0.0880  2.2588  0.9829
   30CHL1  H11B 2182   0.375   5.590   3.666  1.9070  0.3237 -1.1301
   30CHL1    C9 2183   0.357   5.811   3.657  0.6394  0.4806  0.2659
   30CHL1    H9 2184   0.247   5.799   3.651  0.7623 -0.0688 -2.1869
   30CHL1   C10 2185   0.402   5.831   3.511  0.9048  0.0120  0.1247
   30CHL1   C19 2186   0.553   5.805   3.503  0.3758 -0.5474 -0.5736
   30CHL1  H19A 2187   0.585   5.829   3.399  0.6150 -1.1889 -0.6492
   30CHL1  H19B 2188   0.607   5.878   3.567 -2.9160  0.9596  0.7476
   30CHL1  H19C 2189   0.581   5.700   3.526  0.7126 -0.2627  0.3321
   30CHL1    C1 2190   0.324   5.728   3.420  0.1576  0.1259 -0.0595
   30CHL1   H1A 2191   0.360   5.626   3.444  0.0812 -0.0502 -0.6744
   30CHL1   H1B 2192   0.219   5.742   3.454  0.4228 -1.6927  1.7003
   30CHL1    C2 2193   0.342   5.742   3.269 -0.8042 -0.2758 -0.1308
   30CHL1   H2A 2194   0.267   5.680   3.215 -0.6415 -0.0123 -0.6775
   30CHL1   H2B 2195   0.441   5.709   3.231  2.1344  3.8566  3.0094
   30CHL1   C20 2196   0.392   5.750   4.235  0.1484 -0.5718 -0.2090
   30CHL1   H20 2197   0.494   5.789   4.254  0.4674 -1.8264  0.7288
   30CHL1   C21 2198   0.393   5.593   4.219  0.1929 -0.2662 -0.7265
   30CHL1  H21A 2199   0.487   5.557   4.171  1.8771  1.5485  1.0438
   30CHL1  H21B 2200   0.305   5.545   4.171  1.0103 -1.9818 -0.6018
   30CHL1  H21C 2201   0.413   5.547   4.318 -0.4394 -0.5326 -0.7159
   30CHL1   C22 2202   0.294   5.782   4.348 -0.8520  0.5821 -0.3688
   30CHL1  H22A 2203   0.282   5.891   4.367  1.9775  0.8685  0.1195
   30CHL1  H22B 2204   0.192   5.747   4.320 -1.9358  1.4605  2.2179
   30CHL1   C23 2205   0.317   5.726   4.493  0.2889  0.1083 -0.0278
   30CHL1  H23A 2206   0.228   5.769   4.544 -0.1196  0.1497 -0.7627
   30CHL1  H23B 2207   0.305   5.616   4.496 -1.1067  0.2620  1.8604
   30CHL1   C24 2208   0.445   5.775   4.558  0.8109  0.2179  0.3168
   30CHL1  H24A 2209   0.514   5.789   4.472  2.5531  0.0139  1.6279
   30CHL1  H24B 2210   0.423   5.869   4.614 -0.0473  0.4856 -0.4407
   30CHL1   C25 2211   0.508   5.668   4.644  0.0602  0.3647  1.0717
   30CHL1   H25 2212   0.431   5.636   4.717  0.8045 -3.9160  0.2391
   30CHL1   C26 2213   0.557   5.534   4.571  0.2026 -0.1547  0.0419
   30CHL1  H26A 2214   0.590   5.455   4.641 -0.8119 -0.2633  0.4186
   30CHL1  H26B 2215   0.468   5.501   4.513 -0.7185  2.0382  0.1027
   30CHL1  H26C 2216   0.637   5.569   4.502 -0.3559  1.8538  0.3233
   30CHL1   C27 2217   0.620   5.743   4.727 -0.3353  0.0027 -1.2553
   30CHL1  H27A 2218   0.665   5.670   4.797 -3.4343 -1.1363 -0.2939
   30CHL1  H27B 2219   0.693   5.776   4.650 -0.3598 -0.2329 -1.3819
   30CHL1  H27C 2220   0.576   5.827   4.784  0.0635  0.3095 -1.3950
   31CHL1    C3 2221   1.088   0.798   3.470  0.1502 -0.1246 -0.2213
   31CHL1    H3 2222   1.111   0.902   3.500 -0.6028 -0.3140  1.1081
   31CHL1    O3 2223   1.074   0.799   3.332  0.1716  0.5874  0.2854
   31CHL1   H3' 2224   1.139   0.865   3.308  0.9324 -0.5088 -0.7798
   31CHL1    C4 2225   1.206   0.708   3.517  0.0351 -0.2883  0.1918
   31CHL1   H4A 2226   1.196   0.614   3.458 -0.6655  1.2394 -2.2953
   31CHL1   H4B 2227   1.297   0.753   3.473  2.2663 -4.2953  0.1510
   31CHL1    C5 2228   1.218   0.696   3.666 -0.2628  0.2318 -0.1261
   31CHL1    C6 2229   1.333   0.718   3.728  0.0516 -0.5624 -0.8367
   31CHL1    H6 2230   1.428   0.732   3.674  1.8859 -4.7522  0.8329
   31CHL1    C7 2231   1.350   0.717   3.879 -0.2473 -0.2568 -0.1322
   31CHL1   H7A 2232   1.443   0.664   3.908 -0.8651 -3.7073 -3.6501
   31CHL1   H7B 2233   1.353   0.822   3.917 -0.7974 -0.0628 -0.6132
   31CHL1    C8 2234   1.227   0.655   3.956 -0.5707  0.0615 -0.0034
   31CHL1    H8 2235   1.229   0.545   3.945 -0.5792 -0.0856  1.2853
   31CHL1   C14 2236   1.234   0.692   4.100 -0.3667  0.1590 -0.6221
   31CHL1   H14 2237   1.225   0.802   4.102 -1.9412  0.0550  1.0451
   31CHL1   C15 2238   1.370   0.664   4.174 -0.8005 -0.0300 -0.3325
   31CHL1  H15A 2239   1.411   0.564   4.145  1.7304  0.5011  1.1333
   31CHL1  H15B 2240   1.446   0.742   4.153 -0.1357  0.1143  2.3053
   31CHL1   C16 2241   1.332   0.676   4.324 -0.2997  0.7710 -0.4948
   31CHL1  H16A 2242   1.373   0.588   4.378  1.9984  0.9689 -1.7959
   31CHL1  H16B 2243   1.377   0.770   4.361 -0.6153  0.9944 -0.6784
   31CHL1   C17 2244   1.175   0.681   4.332 -0.4638  0.0560  0.1775
   31CHL1   H17 2245   1.156   0.790   4.344 -0.6290 -0.1561  2.1263
   31CHL1   C13 2246   1.123   0.637   4.189  0.9477 -0.2608  0.0812
   31CHL1   C18 2247   1.126   0.483   4.180 -0.0527  0.7225  0.4698
   31CHL1  H18A 2248   1.040   0.443   4.238 -1.9767  1.8681 -1.4418
   31CHL1  H18B 2249   1.115   0.453   4.074  2.9798 -0.0406  0.2882
   31CHL1  H18C 2250   1.214   0.445   4.237 -0.6892 -1.3424  0.1465
   31CHL1   C12 2251   0.990   0.700   4.125  0.0095  0.5381 -0.3138
   31CHL1  H12A 2252   0.898   0.660   4.173  0.8888  1.8111  2.6387
   31CHL1  H12B 2253   1.005   0.808   4.147 -0.9835  0.7785 -0.7745
   31CHL1   C11 2254   0.982   0.661   3.980  0.1175  0.1688 -0.1550
   31CHL1  H11A 2255   0.973   0.552   3.964  2.2634  0.1624 -1.7983
   31CHL1  H11B 2256   0.884   0.701   3.947 -0.6009 -1.9575 -0.7241
   31CHL1    C9 2257   1.097   0.712   3.895  0.1632  0.9843 -0.2784
   31CHL1    H9 2258   1.101   0.823   3.902 -2.4202  1.0779  0.6458
   31CHL1   C10 2259   1.089   0.678   3.747 -0.1223  0.7416  0.3334
   31CHL1   C19 2260   1.046   0.524   3.736  0.1507 -0.5760 -0.0324
   31CHL1  H19A 2261   1.047   0.492   3.629  1.4239  0.4926 -0.3601
   31CHL1  H19B 2262   1.111   0.457   3.797  0.2823 -1.2756 -0.9219
   31CHL1  H19C 2263   0.938   0.513   3.759 -0.1239 -1.0481 -1.4290
   31CHL1    C1 2264   0.970   0.765   3.688  0.1843  0.1845 -0.1356
   31CHL1   H1A 2265   0.876   0.736   3.740  0.8312  1.2154  1.7380
   31CHL1   H1B 2266   0.995   0.864   3.730 -0.2083  0.3616 -0.3193
   31CHL1    C2 2267   0.950   0.761   3.533 -0.0587  0.2343 -0.0857
   31CHL1   H2A 2268   0.880   0.843   3.504  0.5583 -0.1388 -2.8988
   31CHL1   H2B 2269   0.928   0.661   3.490  0.7681  1.2482 -3.1290
   31CHL1   C20 2270   1.122   0.609   4.461  0.1822  0.3360  0.4463
   31CHL1   H20 2271   1.153   0.503   4.449  2.8415  1.1676 -0.6671
   31CHL1   C21 2272   0.967   0.624   4.458 -0.1088  0.4146  0.0815
   31CHL1  H21A 2273   0.931   0.561   4.374 -0.5893 -2.6333  2.3880
   31CHL1  H21B 2274   0.923   0.726   4.468  0.3713  0.4594  2.4924
   31CHL1  H21C 2275   0.927   0.570   4.547 -0.5180 -1.4931 -1.1969
   31CHL1   C22 2276   1.175   0.652   4.598 -0.7711 -0.3371 -0.6481
   31CHL1  H22A 2277   1.250   0.733   4.584 -1.3346  0.0172 -1.8276
   31CHL1  H22B 2278   1.089   0.705   4.646 -0.7449 -0.5273 -0.3877
   31CHL1   C23 2279   1.221   0.535   4.689 -0.1004  0.0002  0.0625
   31CHL1  H23A 2280   1.137   0.462   4.697 -0.1424 -0.0145 -0.4814
   31CHL1  H23B 2281   1.314   0.491   4.647 -0.0834 -0.0823  0.1855
   31CHL1   C24 2282   1.227   0.588   4.835 -1.1309 -0.1932 -0.5038
   31CHL1  H24A 2283   1.125   0.599   4.877 -0.9682  1.1077 -0.4317
   31CHL1  H24B 2284   1.276   0.507   4.895 -0.3588 -0.3306 -1.2930
   31CHL1   C25 2285   1.317   0.718   4.853 -0.4967  0.1229 -0.8543
   31CHL1   H25 2286   1.279   0.806   4.796 -1.7117  1.4178  1.7888
   31CHL1   C26 2287   1.292   0.778   4.993  0.0272 -0.0740 -0.0458
   31CHL1  H26A 2288   1.307   0.694   5.064  0.6317 -0.9883 -1.2097
   31CHL1  H26B 2289   1.369   0.853   5.020  0.3106 -0.7972  1.2274
   31CHL1  H26C 2290   1.190   0.818   5.013 -0.0195 -1.0994  1.9992
   31CHL1   C27 2291   1.464   0.690   4.829 -0.5898 -0.3285  0.1118
   31CHL1  H27A 2292   1.474   0.664   4.722 -0.2588  0.1910  0.0149
   31CHL1  H27B 2293   1.529   0.779   4.846  0.4604 -0.8219 -1.1464
   31CHL1  H27C 2294   1.500   0.614   4.902  0.4620 -0.9684 -1.0269
   32CHL1    C3 2295   1.675   5.851   3.029 -0.6039  0.0030 -1.0371
   32CHL1    H3 2296   1.784   5.849   3.046 -0.8075  0.3392  0.4728
   32CHL1    O3 2297   1.637   5.847   2.892  0.1374  0.1089  0.0876
   32CHL1   H3' 2298   1.542   5.836   2.895  0.1674  0.0572  1.0107
   32CHL1    C4 2299   1.614   5.731   3.096  0.3343 -0.1264 -0.0231
   32CHL1   H4A 2300   1.509   5.723   3.060  1.3269  1.3676 -3.6949
   32CHL1   H4B 2301   1.662   5.644   3.046 -3.3803 -1.2643 -1.9830
   32CHL1    C5 2302   1.610   5.730   3.243  0.5245  0.3875  0.5797
   32CHL1    C6 2303   1.670   5.630   3.304 -0.4731 -1.0705 -0.8267
   32CHL1    H6 2304   1.701   5.537   3.255  0.3383 -1.8464  1.0785
   32CHL1    C7 2305   1.685   5.623   3.451  0.2840 -0.0969 -0.7450
   32CHL1   H7A 2306   1.650   5.523   3.484 -2.1389  1.3826  1.5658
   32CHL1   H7B 2307   1.793   5.633   3.473 -0.2312  0.9858  1.5256
   32CHL1    C8 2308   1.609   5.738   3.527  0.2929  0.1263 -0.1347
   32CHL1    H8 2309   1.503   5.707   3.536  0.0207  1.2689  0.6983
   32CHL1   C14 2310   1.670   5.751   3.661  0.3242 -0.3282 -0.5498
   32CHL1   H14 2311   1.777   5.773   3.640  0.5374 -0.5180  0.3303
   32CHL1   C15 2312   1.688   5.619   3.745 -0.1290 -0.5011 -0.4929
   32CHL1  H15A 2313   1.605   5.546   3.735  2.1325 -3.2605 -0.2373
   32CHL1  H15B 2314   1.778   5.558   3.720 -0.9576 -2.5253  1.2078
   32CHL1   C16 2315   1.682   5.661   3.893 -0.2954  0.1425  0.1455
   32CHL1  H16A 2316   1.586   5.621   3.934 -0.4818  0.8609  0.4128
   32CHL1  H16B 2317   1.770   5.626   3.951  0.9557  0.4356 -1.5233
   32CHL1   C17 2318   1.665   5.817   3.896 -0.1104 -0.6452 -0.8942
   32CHL1   H17 2319   1.764   5.867   3.886 -0.3746 -0.2649 -1.6843
   32CHL1   C13 2320   1.602   5.848   3.759 -0.4100  0.5215 -0.8213
   32CHL1   C18 2321   1.445   5.825   3.767  1.0897  0.2590 -0.7450
   32CHL1  H18A 2322   1.400   5.804   3.667 -1.5752 -1.5215  0.6907
   32CHL1  H18B 2323   1.422   5.736   3.830  1.7639 -0.1353 -1.0405
   32CHL1  H18C 2324   1.403   5.914   3.819  1.2255  0.7910 -1.5237
   32CHL1   C12 2325   1.633   5.991   3.700 -0.0131  0.3927 -0.0146
   32CHL1  H12A 2326   1.589   6.073   3.761 -0.5849 -1.0701  1.6080
   32CHL1  H12B 2327   1.743   6.001   3.692  0.3219 -0.9391  2.2438
   32CHL1   C11 2328   1.571   5.995   3.552 -0.6778 -0.4348 -0.4369
   32CHL1  H11A 2329   1.461   5.981   3.554 -0.6015 -1.1167  1.4865
   32CHL1  H11B 2330   1.597   6.090   3.500 -0.4701 -1.1632 -1.6940
   32CHL1    C9 2331   1.626   5.877   3.463 -0.0657  0.3814  0.2862
   32CHL1    H9 2332   1.736   5.888   3.463 -0.0401  0.1337 -0.3468
   32CHL1   C10 2333   1.577   5.863   3.312 -0.5371 -0.2787 -0.0296
   32CHL1   C19 2334   1.422   5.873   3.314  0.3215  0.2775  0.1653
   32CHL1  H19A 2335   1.380   5.804   3.391  1.1679  1.1470  1.4276
   32CHL1  H19B 2336   1.398   5.978   3.341 -1.1146  1.2626 -4.0825
   32CHL1  H19C 2337   1.394   5.861   3.207  2.4263  0.7942 -0.4758
   32CHL1    C1 2338   1.656   5.978   3.241 -0.3016  0.0516 -0.2852
   32CHL1   H1A 2339   1.613   6.070   3.285  0.5672 -0.2263  1.2147
   32CHL1   H1B 2340   1.761   5.974   3.277 -1.1159 -2.2695  2.2481
   32CHL1    C2 2341   1.633   5.987   3.088 -0.4667  0.3292 -0.4664
   32CHL1   H2A 2342   1.675   6.071   3.029 -0.2912 -0.0764 -0.9197
   32CHL1   H2B 2343   1.523   6.001   3.076 -0.8738 -2.6507 -0.8910
   32CHL1   C20 2344   1.600   5.865   4.025 -0.1213  0.6154  0.2368
   32CHL1   H20 2345   1.494   5.834   4.033  0.3717 -1.8389 -1.4491
   32CHL1   C21 2346   1.609   6.013   4.044  0.9498  0.1216 -0.5699
   32CHL1  H21A 2347   1.544   6.067   3.972  0.9772  0.7811 -0.1082
   32CHL1  H21B 2348   1.714   6.050   4.041  0.5473  1.4339  0.8290
   32CHL1  H21C 2349   1.568   6.043   4.143  1.5401  0.5906 -0.4633
   32CHL1   C22 2350   1.652   5.775   4.143 -0.1235 -0.3545  0.3335
   32CHL1  H22A 2351   1.598   5.679   4.143  0.4943 -0.7068  0.2246
   32CHL1  H22B 2352   1.762   5.763   4.129 -0.7103 -3.9130 -2.6009
   32CHL1   C23 2353   1.618   5.821   4.285  0.4371  0.2771  0.0627
   32CHL1  H23A 2354   1.665   5.759   4.364  1.5293  1.4181  0.3481
   32CHL1  H23B 2355   1.655   5.925   4.294  0.5022  0.5169 -2.3734
   32CHL1   C24 2356   1.469   5.839   4.306  0.1641  0.3155  0.2371
   32CHL1  H24A 2357   1.420   5.901   4.229  2.7537  0.0128 -1.8071
   32CHL1  H24B 2358   1.420   5.739   4.296  1.1553 -0.0025 -1.9146
   32CHL1   C25 2359   1.430   5.903   4.439  0.0969 -1.2603  0.1628
   32CHL1   H25 2360   1.475   6.004   4.450 -1.3672  0.0408 -3.8259
   32CHL1   C26 2361   1.281   5.936   4.463  0.6055  0.0601 -0.1662
   32CHL1  H26A 2362   1.279   5.991   4.560 -0.0062  2.2212 -1.3581
   32CHL1  H26B 2363   1.250   5.999   4.378  0.5545  0.3417  0.0583
   32CHL1  H26C 2364   1.219   5.844   4.472  1.4538 -0.5543 -0.4911
   32CHL1   C27 2365   1.488   5.821   4.557 -0.5703 -0.2270  0.1176
   32CHL1  H27A 2366   1.441   5.722   4.538 -1.4649  0.3292 -0.6241
   32CHL1  H27B 2367   1.599   5.822   4.560 -0.5522  1.6004 -0.1006
   32CHL1  H27C 2368   1.453   5.865   4.652  1.3200  1.4630  0.1068
   33CHL1    C3 2369   3.997   4.449   3.081  0.2953 -1.1020 -0.5472
   33CHL1    H3 2370   3.920   4.371   3.100 -2.0604  1.0986 -0.4357
   33CHL1    O3 2371   4.036   4.433   2.948  0.1286 -0.0316  0.6078
   33CHL1   H3' 2372   3.954   4.416   2.902  1.5792 -0.4029 -1.9865
   33CHL1    C4 2373   3.920   4.584   3.100  0.3298 -0.3447 -0.1026
   33CHL1   H4A 2374   3.982   4.670   3.066  0.4947 -0.6450 -0.5691
   33CHL1   H4B 2375   3.831   4.580   3.034 -1.0306 -1.7520  1.7113
   33CHL1    C5 2376   3.880   4.605   3.242  0.1561 -0.1195 -0.2003
   33CHL1    C6 2377   3.750   4.622   3.276 -0.7616 -1.2523 -0.9071
   33CHL1    H6 2378   3.675   4.619   3.196 -2.0097  0.0620  0.1722
   33CHL1    C7 2379   3.704   4.663   3.420  0.2674  0.6508 -0.0514
   33CHL1   H7A 2380   3.648   4.759   3.412  0.1203  0.4361 -1.9593
   33CHL1   H7B 2381   3.640   4.583   3.463 -0.4996  0.2928 -1.8062
   33CHL1    C8 2382   3.825   4.690   3.519 -0.2962 -0.3708  0.0615
   33CHL1    H8 2383   3.875   4.783   3.486  2.8092 -2.3087 -1.1642
   33CHL1   C14 2384   3.785   4.687   3.669  0.4960 -0.9192 -0.6247
   33CHL1   H14 2385   3.753   4.582   3.688 -2.4274 -0.5198 -2.6333
   33CHL1   C15 2386   3.665   4.774   3.711  0.4183  0.7158  0.0408
   33CHL1  H15A 2387   3.678   4.873   3.661 -1.0143  2.1802  2.3963
   33CHL1  H15B 2388   3.566   4.729   3.688  0.7980 -1.4408  2.2489
   33CHL1   C16 2389   3.682   4.791   3.861  0.1464 -0.2588 -0.0380
   33CHL1  H16A 2390   3.690   4.901   3.858  0.7165 -0.3129 -1.4900
   33CHL1  H16B 2391   3.602   4.755   3.929 -1.8067 -0.3295 -2.2626
   33CHL1   C17 2392   3.821   4.726   3.898 -0.0773 -0.0693 -0.5959
   33CHL1   H17 2393   3.797   4.621   3.924  0.7984  0.0676  0.8787
   33CHL1   C13 2394   3.899   4.725   3.769  0.7343  0.2977  0.6675
   33CHL1   C18 2395   3.950   4.862   3.730  0.0884 -0.2052 -0.2009
   33CHL1  H18A 2396   4.040   4.891   3.789 -2.5680  1.5379  3.4035
   33CHL1  H18B 2397   3.978   4.876   3.623 -0.5501  0.1683 -0.3281
   33CHL1  H18C 2398   3.878   4.943   3.754  0.4817 -0.3359  1.5557
   33CHL1   C12 2399   4.002   4.616   3.747  0.7659  0.1331 -0.6125
   33CHL1  H12A 2400   4.089   4.629   3.816 -1.0584 -0.2830  1.9086
   33CHL1  H12B 2401   3.963   4.520   3.787  1.6323  1.0427  2.7721
   33CHL1   C11 2402   4.056   4.612   3.599 -0.1908  1.1245  0.4565
   33CHL1  H11A 2403   4.103   4.712   3.581  2.3075 -0.2709 -1.5048
   33CHL1  H11B 2404   4.133   4.532   3.593 -1.1129  0.2218  0.4475
   33CHL1    C9 2405   3.941   4.591   3.497 -0.5461  0.3999  0.1738
   33CHL1    H9 2406   3.900   4.489   3.512  1.8657 -0.8202 -1.0829
   33CHL1   C10 2407   3.993   4.598   3.350  0.5361 -0.0323 -0.0405
   33CHL1   C19 2408   4.092   4.722   3.333 -0.0196  1.1067  0.9468
   33CHL1  H19A 2409   4.127   4.724   3.227 -0.0293  3.8392  0.9246
   33CHL1  H19B 2410   4.042   4.821   3.341 -1.5843  0.4005  0.2223
   33CHL1  H19C 2411   4.181   4.728   3.400  0.1275 -0.9911  0.9957
   33CHL1    C1 2412   4.071   4.467   3.324 -0.4214  0.5432  0.5341
   33CHL1   H1A 2413   4.156   4.473   3.395 -1.6018  0.1642  2.0465
   33CHL1   H1B 2414   4.020   4.375   3.359 -0.2255 -0.3895 -1.4786
   33CHL1    C2 2415   4.116   4.443   3.175  0.3269  0.1864 -0.1748
   33CHL1   H2A 2416   4.168   4.346   3.162  1.1228  0.6507 -0.5460
   33CHL1   H2B 2417   4.199   4.507   3.138  0.9537 -0.9451 -0.7991
   33CHL1   C20 2418   3.891   4.798   4.014 -0.4405  0.1513 -0.1726
   33CHL1   H20 2419   3.919   4.900   3.979  1.5970 -0.2684  0.0942
   33CHL1   C21 2420   4.025   4.730   4.068  0.2809  0.1172 -0.0727
   33CHL1  H21A 2421   4.064   4.784   4.156  2.2595 -0.8641 -0.2778
   33CHL1  H21B 2422   4.108   4.740   3.994  1.0036 -0.6366  0.6220
   33CHL1  H21C 2423   3.998   4.627   4.098  2.0273 -0.2454  0.3844
   33CHL1   C22 2424   3.794   4.822   4.133 -0.4205  0.3898 -0.5558
   33CHL1  H22A 2425   3.694   4.851   4.094 -0.6236  0.0962 -0.2563
   33CHL1  H22B 2426   3.780   4.730   4.194 -0.1549 -1.2500 -2.8536
   33CHL1   C23 2427   3.840   4.940   4.220 -0.6136 -0.0369  0.0649
   33CHL1  H23A 2428   3.950   4.954   4.229 -0.7164  0.7326  0.1851
   33CHL1  H23B 2429   3.816   5.036   4.169  1.8353  1.1453  0.9603
   33CHL1   C24 2430   3.784   4.948   4.369  0.4113 -0.3706  0.6568
   33CHL1  H24A 2431   3.716   5.034   4.379  1.6080  0.8062 -0.7949
   33CHL1  H24B 2432   3.721   4.863   4.403 -0.5417 -0.3963 -1.0721
   33CHL1   C25 2433   3.891   4.973   4.473 -0.4278 -0.0606 -0.8542
   33CHL1   H25 2434   3.952   5.063   4.452 -1.3882  0.7250 -0.3698
   33CHL1   C26 2435   3.823   4.990   4.613 -0.8992 -0.0908 -0.7733
   33CHL1  H26A 2436   3.894   4.988   4.699 -1.7525  1.8411  0.0442
   33CHL1  H26B 2437   3.766   5.085   4.619 -0.3034  0.3043 -1.2297
   33CHL1  H26C 2438   3.760   4.904   4.643 -0.9971  0.5586  1.0512
   33CHL1   C27 2439   3.984   4.856   4.481 -0.7933 -0.1535 -0.0794
   33CHL1  H27A 2440   4.024   4.833   4.380 -0.6426  0.0116 -0.0588
   33CHL1  H27B 2441   4.062   4.868   4.559 -1.2242 -0.0202  0.3360
   33CHL1  H27C 2442   3.924   4.765   4.501  0.2286 -1.3564 -2.1895
   34CHL1    C3 2443   1.509   0.287   3.341 -0.5672  0.4570 -0.1894
   34CHL1    H3 2444   1.543   0.392   3.349  0.1662  0.1840  0.4393
   34CHL1    O3 2445   1.491   0.245   3.205 -0.0437  0.2376 -0.5095
   34CHL1   H3' 2446   1.460   0.155   3.215  1.4920 -0.4910 -1.8177
   34CHL1    C4 2447   1.608   0.196   3.407  1.0126  0.0291  0.0697
   34CHL1   H4A 2448   1.579   0.090   3.395  1.8168 -0.1735 -0.1488
   34CHL1   H4B 2449   1.701   0.205   3.348 -0.4579  0.3097 -2.3165
   34CHL1    C5 2450   1.639   0.209   3.554 -0.1453  0.5384  0.5808
   34CHL1    C6 2451   1.763   0.220   3.602  0.0738  0.4328  0.3434
   34CHL1    H6 2452   1.850   0.227   3.536 -0.0750  1.9967  0.2797
   34CHL1    C7 2453   1.795   0.226   3.751  0.1956 -0.2590  0.1262
   34CHL1   H7A 2454   1.881   0.159   3.774  1.4631  1.2798  0.0145
   34CHL1   H7B 2455   1.833   0.327   3.777  0.6284 -0.7481  1.4780
   34CHL1    C8 2456   1.675   0.189   3.838  0.1236  0.1001 -0.4876
   34CHL1    H8 2457   1.661   0.080   3.818  1.7543 -0.1659 -0.2750
   34CHL1   C14 2458   1.694   0.214   3.983  0.0319  0.2417 -0.2114
   34CHL1   H14 2459   1.712   0.323   3.992  0.8097 -0.0477  3.1483
   34CHL1   C15 2460   1.826   0.166   4.056  0.3242  0.6158  0.7055
   34CHL1  H15A 2461   1.824   0.060   4.021  0.7862  0.3617  1.4243
   34CHL1  H15B 2462   1.911   0.226   4.018 -0.4697  2.4574  1.7011
   34CHL1   C16 2463   1.789   0.173   4.203 -0.2911 -0.7757 -0.6847
   34CHL1  H16A 2464   1.798   0.068   4.240  0.7607 -0.5601 -0.2994
   34CHL1  H16B 2465   1.857   0.233   4.267 -1.0022 -2.4919  1.8468
   34CHL1   C17 2466   1.640   0.228   4.206  0.8071  0.3680 -0.1489
   34CHL1   H17 2467   1.655   0.337   4.219 -1.8367  0.7923 -0.1575
   34CHL1   C13 2468   1.576   0.190   4.070 -0.8027  0.6860 -0.2335
   34CHL1   C18 2469   1.549   0.042   4.068  0.4812 -0.3980  0.5984
   34CHL1  H18A 2470   1.459   0.027   4.132  0.4085 -1.2983  0.3024
   34CHL1  H18B 2471   1.526  -0.002   3.969 -0.0382  3.4822 -1.1683
   34CHL1  H18C 2472   1.630  -0.016   4.117 -0.8952 -0.2561  3.2681
   34CHL1   C12 2473   1.465   0.280   4.024  0.5502  0.0935 -0.4316
   34CHL1  H12A 2474   1.368   0.269   4.078 -0.1289  0.9508 -1.4459
   34CHL1  H12B 2475   1.492   0.387   4.027 -0.0388  0.2512 -0.5091
   34CHL1   C11 2476   1.431   0.250   3.880 -0.1909 -0.3399  0.5259
   34CHL1  H11A 2477   1.389   0.147   3.877 -0.5339 -0.1863 -1.6982
   34CHL1  H11B 2478   1.351   0.326   3.862  0.7755  0.9072  1.3085
   34CHL1    C9 2479   1.548   0.257   3.786  0.5126  0.0011 -0.4014
   34CHL1    H9 2480   1.565   0.366   3.798 -0.7475  0.2914 -1.0509
   34CHL1   C10 2481   1.520   0.214   3.639  0.7292  0.6595 -0.3498
   34CHL1   C19 2482   1.454   0.077   3.643  0.0342 -0.4438  0.6560
   34CHL1  H19A 2483   1.343   0.080   3.648 -0.2511 -2.6302 -1.8936
   34CHL1  H19B 2484   1.474   0.005   3.561  0.4345 -2.4158  2.3982
   34CHL1  H19C 2485   1.489   0.024   3.735  0.4594  2.1745  2.0965
   34CHL1    C1 2486   1.418   0.315   3.575 -0.2413  0.7211  0.3159
   34CHL1   H1A 2487   1.321   0.319   3.630 -0.3100 -1.5591  0.4392
   34CHL1   H1B 2488   1.466   0.415   3.579  1.2266  0.1567 -1.8343
   34CHL1    C2 2489   1.381   0.292   3.423  0.6073 -0.1994 -0.3312
   34CHL1   H2A 2490   1.316   0.373   3.382 -0.3765 -1.1421 -0.6682
   34CHL1   H2B 2491   1.329   0.195   3.412 -0.2186  0.3454 -1.4454
   34CHL1   C20 2492   1.570   0.177   4.335  0.2798  0.2388  0.6610
   34CHL1   H20 2493   1.535   0.073   4.320  2.0852 -0.1364 -1.4072
   34CHL1   C21 2494   1.443   0.265   4.360 -0.0940 -0.3407 -0.1967
   34CHL1  H21A 2495   1.485   0.367   4.373 -2.2287  0.8430 -1.9363
   34CHL1  H21B 2496   1.382   0.227   4.445 -1.1585 -0.5626 -1.0305
   34CHL1  H21C 2497   1.367   0.252   4.280 -1.9482 -1.0262  1.5788
   34CHL1   C22 2498   1.669   0.174   4.457  0.2923  0.0622 -0.4305
   34CHL1  H22A 2499   1.758   0.115   4.425 -0.5574  0.0604 -2.9409
   34CHL1  H22B 2500   1.703   0.275   4.491  0.0098  0.5414 -1.5384
   34CHL1   C23 2501   1.617   0.100   4.580 -0.4087  0.2423 -0.2970
   34CHL1  H23A 2502   1.538   0.163   4.627 -0.0563  1.2828 -1.0558
   34CHL1  H23B 2503   1.565   0.005   4.559  0.3694 -0.4617  0.8492
   34CHL1   C24 2504   1.721   0.088   4.697  0.4254  0.5825 -1.0156
   34CHL1  H24A 2505   1.806   0.024   4.665 -0.3493 -0.3103 -1.3422
   34CHL1  H24B 2506   1.763   0.187   4.723 -0.4476  0.0895  3.0148
   34CHL1   C25 2507   1.677   0.023   4.831 -0.0170 -0.2896  0.0592
   34CHL1   H25 2508   1.649  -0.082   4.810  2.5935 -1.7743  3.1101
   34CHL1   C26 2509   1.788   0.011   4.928 -0.0103 -0.6881  0.8537
   34CHL1  H26A 2510   1.827   0.110   4.957 -2.0869  0.4764 -0.1414
   34CHL1  H26B 2511   1.781  -0.049   5.022 -0.2857 -3.4855 -0.8293
   34CHL1  H26C 2512   1.862  -0.037   4.860  1.7266 -0.1771  2.2855
   34CHL1   C27 2513   1.557   0.092   4.891  0.3035  0.6436  0.6976
   34CHL1  H27A 2514   1.576   0.198   4.920  0.0764  1.0301 -0.5085
   34CHL1  H27B 2515   1.470   0.091   4.822  1.0385 -0.2113 -0.2376
   34CHL1  H27C 2516   1.526   0.033   4.980 -2.8611  1.9164  0.5613
   35CHL1    C3 2517   3.063   6.106   3.325  0.1759  0.0919  0.0124
   35CHL1    H3 2518   3.073   6.210   3.363  2.9178 -0.2821  0.4986
   35CHL1    O3 2519   3.061   6.105   3.186 -0.1604 -0.0761 -0.0410
   35CHL1   H3' 2520   2.970   6.126   3.163 -0.8524 -1.7240  0.9717
   35CHL1    C4 2521   3.186   6.027   3.368 -1.1888 -0.6057  0.2053
   35CHL1   H4A 2522   3.181   5.923   3.329 -0.9379 -0.7622  0.5810
   35CHL1   H4B 2523   3.276   6.073   3.322 -1.9525  0.8732  0.1348
   35CHL1    C5 2524   3.198   6.016   3.515  0.6517 -0.4771  0.5418
   35CHL1    C6 2525   3.294   6.074   3.584 -0.0657  0.4468 -0.6046
   35CHL1    H6 2526   3.372   6.127   3.528  0.0197  0.9206 -0.0426
   35CHL1    C7 2527   3.306   6.069   3.731 -1.2878  0.0596 -0.5769
   35CHL1   H7A 2528   3.403   6.027   3.765 -0.2608  1.7097 -1.3270
   35CHL1   H7B 2529   3.311   6.170   3.777 -0.3522 -0.0195 -0.4707
   35CHL1    C8 2530   3.209   5.971   3.798  0.2296 -0.4542 -0.2888
   35CHL1    H8 2531   3.258   5.874   3.776  0.4287 -0.9333  2.0396
   35CHL1   C14 2532   3.201   5.999   3.950  0.2130  0.0929 -0.3063
   35CHL1   H14 2533   3.175   6.107   3.958 -1.1772 -0.2384 -0.0963
   35CHL1   C15 2534   3.332   5.970   4.028  0.5540  0.0077  0.3705
   35CHL1  H15A 2535   3.365   5.868   3.999  1.0861  0.5408 -0.9709
   35CHL1  H15B 2536   3.409   6.049   4.013 -0.6500  1.1633  0.1049
   35CHL1   C16 2537   3.284   5.979   4.174  0.1694  0.0319  0.3552
   35CHL1  H16A 2538   3.299   5.881   4.225 -0.5411 -0.7703 -0.9008
   35CHL1  H16B 2539   3.329   6.062   4.232 -0.6224  0.0896  0.9005
   35CHL1   C17 2540   3.128   5.973   4.166  0.1969 -0.4022 -0.0588
   35CHL1   H17 2541   3.086   6.076   4.164  0.2057 -0.4078 -0.7175
   35CHL1   C13 2542   3.089   5.920   4.029 -0.0155 -0.5419  0.2491
   35CHL1   C18 2543   3.109   5.766   4.023 -0.7207  0.6620 -0.8080
   35CHL1  H18A 2544   3.019   5.705   4.045 -1.3455  0.9729 -2.4150
   35CHL1  H18B 2545   3.146   5.754   3.919  0.5066  2.7898 -0.6895
   35CHL1  H18C 2546   3.186   5.738   4.099  0.3025  2.7014 -1.0172
   35CHL1   C12 2547   2.956   5.963   3.969 -0.3176 -0.5527 -0.1473
   35CHL1  H12A 2548   2.869   5.919   4.024  0.0939 -0.0255  0.9434
   35CHL1  H12B 2549   2.958   6.071   3.993  1.6472 -1.0066  2.1926
   35CHL1   C11 2550   2.943   5.926   3.822 -0.3863  0.5667  0.3194
   35CHL1  H11A 2551   2.952   5.816   3.825  2.0125  0.7247  2.7826
   35CHL1  H11B 2552   2.847   5.957   3.775 -0.1187  1.5121  0.3694
   35CHL1    C9 2553   3.066   5.988   3.739 -0.1293  0.2662  0.3855
   35CHL1    H9 2554   3.043   6.096   3.749 -1.4156  0.0608 -0.1710
   35CHL1   C10 2555   3.071   5.957   3.585  0.0733  0.0266  0.0183
   35CHL1   C19 2556   3.054   5.808   3.560  1.0594 -0.0228 -0.4198
   35CHL1  H19A 2557   2.957   5.772   3.602  1.4517  1.0954  1.6078
   35CHL1  H19B 2558   3.050   5.789   3.451 -1.7221 -1.8798 -0.1170
   35CHL1  H19C 2559   3.128   5.742   3.610  0.4153 -0.4496 -0.0070
   35CHL1    C1 2560   2.944   6.034   3.528 -0.1772 -0.1407  0.0674
   35CHL1   H1A 2561   2.846   5.999   3.566 -0.3994 -0.0819 -0.4358
   35CHL1   H1B 2562   2.944   6.137   3.570 -0.2291 -0.2157  0.2525
   35CHL1    C2 2563   2.930   6.049   3.373  0.0890  0.2461  0.7379
   35CHL1   H2A 2564   2.848   6.115   3.339 -1.0246 -0.9329  1.0989
   35CHL1   H2B 2565   2.914   5.944   3.341  1.0630  0.2714  0.1024
   35CHL1   C20 2566   3.065   5.919   4.295  0.6761 -0.4258 -0.3259
   35CHL1   H20 2567   3.067   5.808   4.305  2.9744 -0.5229 -1.2069
   35CHL1   C21 2568   2.913   5.954   4.293  0.0977  0.7000  0.3103
   35CHL1  H21A 2569   2.897   6.059   4.260  2.5944  0.6482 -1.3452
   35CHL1  H21B 2570   2.866   5.951   4.393  0.0683 -0.9134  0.2729
   35CHL1  H21C 2571   2.847   5.891   4.229  0.9789  0.7584 -0.6833
   35CHL1   C22 2572   3.128   5.975   4.426 -0.8742 -0.4679 -0.7749
   35CHL1  H22A 2573   3.237   5.962   4.408 -1.3098 -0.8987 -3.6409
   35CHL1  H22B 2574   3.101   6.081   4.445  2.3712  0.0698  1.8209
   35CHL1   C23 2575   3.105   5.890   4.553  0.4846 -0.3255  0.5777
   35CHL1  H23A 2576   2.997   5.877   4.574 -0.2348  1.2674 -1.7185
   35CHL1  H23B 2577   3.147   5.787   4.550  0.5074 -0.3027 -0.1789
   35CHL1   C24 2578   3.159   5.959   4.680 -0.2836  0.3794  0.2792
   35CHL1  H24A 2579   3.250   6.018   4.657  1.6992 -1.2364  3.2254
   35CHL1  H24B 2580   3.080   6.026   4.719 -1.3996 -0.3322 -0.6993
   35CHL1   C25 2581   3.182   5.858   4.793 -0.0882 -0.2109 -0.5936
   35CHL1   H25 2582   3.251   5.778   4.758 -0.4767 -0.9641  0.3134
   35CHL1   C26 2583   3.251   5.926   4.918  0.3881  1.0059  0.2322
   35CHL1  H26A 2584   3.345   5.964   4.872  1.5047 -0.4309  1.2549
   35CHL1  H26B 2585   3.188   6.002   4.968 -0.0495  0.3498  0.6892
   35CHL1  H26C 2586   3.269   5.845   4.991 -0.6611 -1.8327 -2.4112
   35CHL1   C27 2587   3.052   5.773   4.815  0.0207 -0.0198  0.2550
   35CHL1  H27A 2588   3.069   5.709   4.905  2.7787 -0.0144 -0.1746
   35CHL1  H27B 2589   2.962   5.837   4.819 -0.0094  0.1195 -1.7929
   35CHL1  H27C 2590   3.032   5.713   4.724 -3.5981 -0.1069  0.9811
   36CHL1    C3 2591   5.476   1.187   3.731  0.3577  0.4198 -0.1556
   36CHL1    H3 2592   5.509   1.084   3.708  3.9922  1.6412 -1.0457
   36CHL1    O3 2593   5.462   1.263   3.616  0.9270  0.1363 -0.2150
   36CHL1   H3' 2594   5.550   1.286   3.587  1.1372 -2.2996 -1.7920
   36CHL1    C4 2595   5.330   1.171   3.799  0.1731  0.4600 -0.5870
   36CHL1   H4A 2596   5.294   1.271   3.830 -0.4705  0.1716 -0.4029
   36CHL1   H4B 2597   5.252   1.123   3.736 -2.5746  0.5236  2.5019
   36CHL1    C5 2598   5.340   1.077   3.922  0.6697  0.0505 -0.0409
   36CHL1    C6 2599   5.262   0.967   3.942 -0.0755  0.2487 -0.1960
   36CHL1    H6 2600   5.188   0.940   3.865  0.6328  0.0676 -0.8366
   36CHL1    C7 2601   5.261   0.889   4.075  0.4458 -0.2830 -0.1439
   36CHL1   H7A 2602   5.160   0.883   4.120  0.3971  0.3863 -0.1543
   36CHL1   H7B 2603   5.300   0.785   4.063  0.0335 -0.2823 -1.6508
   36CHL1    C8 2604   5.351   0.950   4.192 -0.1525 -0.7223  0.2476
   36CHL1    H8 2605   5.290   1.035   4.231  1.1677 -0.4078  1.7375
   36CHL1   C14 2606   5.380   0.837   4.287 -0.0833 -0.0136  0.6656
   36CHL1   H14 2607   5.445   0.759   4.242  0.0061 -0.6684  1.8698
   36CHL1   C15 2608   5.259   0.760   4.351 -0.3913  0.3083 -0.0001
   36CHL1  H15A 2609   5.172   0.826   4.375 -1.3134 -0.7429 -0.3522
   36CHL1  H15B 2610   5.212   0.682   4.287 -0.6019 -0.8823  1.5465
   36CHL1   C16 2611   5.319   0.692   4.476  0.2775  0.3467 -0.1421
   36CHL1  H16A 2612   5.259   0.707   4.568  1.4936 -0.7012  0.8621
   36CHL1  H16B 2613   5.322   0.582   4.464  0.3605  0.2279  0.8503
   36CHL1   C17 2614   5.463   0.757   4.495  0.3959 -0.2667  0.2574
   36CHL1   H17 2615   5.526   0.675   4.455  3.0259  0.9568  1.6456
   36CHL1   C13 2616   5.464   0.887   4.409 -0.1007  0.1846  0.3567
   36CHL1   C18 2617   5.390   0.997   4.488 -0.0399 -0.0900 -0.1389
   36CHL1  H18A 2618   5.293   0.965   4.532 -1.2262  1.6354 -1.3591
   36CHL1  H18B 2619   5.449   1.043   4.570 -0.4985 -0.7671  0.5939
   36CHL1  H18C 2620   5.357   1.077   4.419  0.8347  0.4154  0.0143
   36CHL1   C12 2621   5.604   0.930   4.355  0.1240  0.3111  0.9642
   36CHL1  H12A 2622   5.678   0.950   4.436 -0.9007 -0.0226  2.0226
   36CHL1  H12B 2623   5.648   0.847   4.296  1.4429  1.5428  0.1369
   36CHL1   C11 2624   5.574   1.050   4.255 -0.4039 -0.7210 -0.7079
   36CHL1  H11A 2625   5.533   1.138   4.309  2.0371  0.4338 -0.6361
   36CHL1  H11B 2626   5.669   1.093   4.220 -1.1822  2.3672  0.6411
   36CHL1    C9 2627   5.479   1.007   4.139  0.0986 -0.1278 -0.5400
   36CHL1    H9 2628   5.532   0.916   4.102  0.9159 -0.2982  0.9722
   36CHL1   C10 2629   5.459   1.110   4.025 -0.4600  0.1843  0.5315
   36CHL1   C19 2630   5.409   1.240   4.100 -0.0305  0.2889  0.7260
   36CHL1  H19A 2631   5.496   1.293   4.146  2.2266  0.9526 -3.8095
   36CHL1  H19B 2632   5.364   1.316   4.034 -0.5697  0.5728  1.4140
   36CHL1  H19C 2633   5.328   1.223   4.174  0.9980 -0.1754  1.7886
   36CHL1    C1 2634   5.590   1.151   3.946  0.3487 -0.6798  0.1013
   36CHL1   H1A 2635   5.653   1.202   4.023  0.0836 -1.2081  0.6756
   36CHL1   H1B 2636   5.641   1.056   3.919  2.0710 -0.6092  2.7409
   36CHL1    C2 2637   5.576   1.249   3.830  0.3341  0.0949 -0.0078
   36CHL1   H2A 2638   5.682   1.251   3.797 -0.2134  0.4497 -1.8442
   36CHL1   H2B 2639   5.535   1.346   3.867 -0.7275  0.3266 -1.6947
   36CHL1   C20 2640   5.508   0.760   4.642  0.3716 -0.0894 -0.2158
   36CHL1   H20 2641   5.430   0.816   4.697  0.2450 -0.3236 -0.1571
   36CHL1   C21 2642   5.640   0.834   4.660 -0.6528 -0.5882  0.4109
   36CHL1  H21A 2643   5.625   0.945   4.660  0.9101 -0.3107 -1.7160
   36CHL1  H21B 2644   5.706   0.816   4.572 -0.2912  0.8464  0.3585
   36CHL1  H21C 2645   5.699   0.804   4.749  0.4438  0.7710  0.1859
   36CHL1   C22 2646   5.525   0.612   4.698 -0.1210  0.3440  0.0630
   36CHL1  H22A 2647   5.437   0.550   4.672 -0.4632  0.4899  0.8547
   36CHL1  H22B 2648   5.611   0.562   4.649 -0.6311 -0.3174 -0.1598
   36CHL1   C23 2649   5.552   0.596   4.853 -0.2993 -0.8077  0.4295
   36CHL1  H23A 2650   5.602   0.681   4.904 -1.0333 -0.5596  0.7352
   36CHL1  H23B 2651   5.446   0.591   4.883 -0.3555  0.6992  0.5603
   36CHL1   C24 2652   5.608   0.464   4.903  0.0546  0.4342 -0.3635
   36CHL1  H24A 2653   5.516   0.402   4.909  1.1637 -1.1252  1.9913
   36CHL1  H24B 2654   5.669   0.412   4.825 -0.2128  0.7033 -0.7585
   36CHL1   C25 2655   5.679   0.461   5.043  0.3374  0.7217  0.4920
   36CHL1   H25 2656   5.768   0.528   5.036  0.9097 -0.0756 -0.0080
   36CHL1   C26 2657   5.592   0.516   5.157  0.8378 -0.8787  0.4241
   36CHL1  H26A 2658   5.644   0.531   5.254 -3.2060  1.3508  2.5103
   36CHL1  H26B 2659   5.546   0.615   5.134  1.6551 -0.1834  1.6771
   36CHL1  H26C 2660   5.504   0.449   5.173 -1.4831  1.4855 -1.4541
   36CHL1   C27 2661   5.731   0.315   5.073  0.1310  0.3817  0.4549
   36CHL1  H27A 2662   5.786   0.279   4.983  0.5485  1.9504  0.0493
   36CHL1  H27B 2663   5.795   0.322   5.164  0.4266  1.3394  0.1880
   36CHL1  H27C 2664   5.649   0.241   5.080  0.9324 -0.7457 -1.1716
   37CHL1    C3 2665   3.261   0.777   3.780 -0.8267  0.7924  0.0639
   37CHL1    H3 2666   3.187   0.859   3.796 -0.9119  0.5483  0.9984
   37CHL1    O3 2667   3.251   0.751   3.642 -0.2704 -0.5913  0.0873
   37CHL1   H3' 2668   3.342   0.746   3.614  0.1028  2.0104  0.5175
   37CHL1    C4 2669   3.403   0.825   3.829  0.3410  0.4118 -0.2530
   37CHL1   H4A 2670   3.487   0.754   3.813 -1.1191 -2.0838  2.2444
   37CHL1   H4B 2671   3.427   0.911   3.763  0.9193  1.1200  0.8508
   37CHL1    C5 2672   3.392   0.850   3.980  0.1769 -0.1161  0.1875
   37CHL1    C6 2673   3.424   0.968   4.033  0.1253 -0.2067  0.3841
   37CHL1    H6 2674   3.451   1.053   3.968 -0.5721 -2.1115 -2.5816
   37CHL1    C7 2675   3.452   0.989   4.179 -0.4282 -0.2594 -0.5432
   37CHL1   H7A 2676   3.553   1.033   4.192 -0.8425  0.7140 -0.5184
   37CHL1   H7B 2677   3.399   1.076   4.223 -0.5133 -1.0066  0.9098
   37CHL1    C8 2678   3.444   0.862   4.264  0.3440 -0.0100  0.4087
   37CHL1    H8 2679   3.544   0.814   4.258  0.3619  0.2386 -2.8487
   37CHL1   C14 2680   3.413   0.905   4.412 -0.2052 -0.1760  0.6207
   37CHL1   H14 2681   3.313   0.953   4.402  0.4758  0.9585 -1.6178
   37CHL1   C15 2682   3.492   1.019   4.476 -0.8061 -0.5035  0.6024
   37CHL1  H15A 2683   3.600   0.996   4.461 -1.0221 -1.6326  0.6773
   37CHL1  H15B 2684   3.456   1.118   4.442  2.6910  1.1872  1.3738
   37CHL1   C16 2685   3.466   0.999   4.633  1.3643 -0.2832 -0.3485
   37CHL1  H16A 2686   3.566   1.013   4.679  0.9368  0.8895  0.2653
   37CHL1  H16B 2687   3.406   1.080   4.679 -0.0907 -1.8936  0.7114
   37CHL1   C17 2688   3.384   0.865   4.641  0.2129 -0.6752  0.5269
   37CHL1   H17 2689   3.277   0.893   4.642  0.1315 -0.7346 -1.6652
   37CHL1   C13 2690   3.407   0.787   4.504  0.2635 -0.6967  0.1320
   37CHL1   C18 2691   3.547   0.720   4.523  0.3715 -0.2295  0.7394
   37CHL1  H18A 2692   3.554   0.621   4.573  0.8653 -0.2705  0.6001
   37CHL1  H18B 2693   3.595   0.686   4.428 -0.8116 -3.1324  1.0655
   37CHL1  H18C 2694   3.612   0.786   4.584 -0.2632  0.0667  1.0991
   37CHL1   C12 2695   3.296   0.690   4.464  0.4756  0.1508 -0.0021
   37CHL1  H12A 2696   3.306   0.600   4.529  1.1396  1.6415  2.0400
   37CHL1  H12B 2697   3.195   0.733   4.481 -0.2181 -1.2048 -0.5102
   37CHL1   C11 2698   3.327   0.651   4.320  0.3055  0.2276 -0.4517
   37CHL1  H11A 2699   3.416   0.585   4.312  0.2698 -0.2838  2.3481
   37CHL1  H11B 2700   3.246   0.584   4.283  0.4567  0.9249 -2.1244
   37CHL1    C9 2701   3.334   0.764   4.222 -0.4436 -0.0521 -0.4544
   37CHL1    H9 2702   3.240   0.822   4.237 -0.2459 -0.1045  1.1391
   37CHL1   C10 2703   3.349   0.728   4.072  0.7810  1.0869 -0.2135
   37CHL1   C19 2704   3.463   0.624   4.062 -0.1890  0.2831 -0.0901
   37CHL1  H19A 2705   3.488   0.603   3.956 -0.3175  0.6105 -0.1879
   37CHL1  H19B 2706   3.553   0.658   4.118  1.1753 -0.9824 -1.4204
   37CHL1  H19C 2707   3.425   0.524   4.090 -1.1801  0.2137 -1.5936
   37CHL1    C1 2708   3.210   0.688   4.008 -0.0019 -0.4624 -0.3646
   37CHL1   H1A 2709   3.179   0.598   4.065  0.3915 -1.4610 -1.6792
   37CHL1   H1B 2710   3.130   0.761   4.033  0.2630 -1.1211  2.9215
   37CHL1    C2 2711   3.216   0.654   3.860 -0.0134  0.7298  0.3496
   37CHL1   H2A 2712   3.119   0.618   3.819  0.9618 -0.2052 -1.2460
   37CHL1   H2B 2713   3.289   0.571   3.850  1.3883  2.0425 -0.9894
   37CHL1   C20 2714   3.415   0.793   4.769  0.1629  0.2521  0.0240
   37CHL1   H20 2715   3.524   0.772   4.766  0.4330  1.5722 -2.3064
   37CHL1   C21 2716   3.341   0.655   4.778  0.0896  0.0916 -0.3018
   37CHL1  H21A 2717   3.231   0.658   4.760  0.0984  1.0653 -0.2513
   37CHL1  H21B 2718   3.357   0.599   4.873 -0.6930 -1.0227 -0.8108
   37CHL1  H21C 2719   3.389   0.588   4.704 -0.2371  0.6933 -1.0655
   37CHL1   C22 2720   3.375   0.877   4.895  0.3178  0.2094 -0.0716
   37CHL1  H22A 2721   3.420   0.978   4.886 -0.1524  0.3890 -0.4802
   37CHL1  H22B 2722   3.265   0.887   4.893  0.1268 -1.6981 -0.9254
   37CHL1   C23 2723   3.436   0.812   5.023 -0.4885  0.6841  0.1217
   37CHL1  H23A 2724   3.404   0.707   5.036  2.3495 -0.3599 -0.7229
   37CHL1  H23B 2725   3.546   0.814   5.009 -0.2524 -2.0473  1.0378
   37CHL1   C24 2726   3.409   0.892   5.151  0.4631  0.1157  0.1403
   37CHL1  H24A 2727   3.450   0.995   5.145 -0.8343  0.5822 -1.2996
   37CHL1  H24B 2728   3.302   0.897   5.180  0.4391 -0.1796  0.1062
   37CHL1   C25 2729   3.468   0.819   5.275 -0.5137  0.1335  0.2199
   37CHL1   H25 2730   3.417   0.721   5.286 -0.3358  0.0558  0.3625
   37CHL1   C26 2731   3.625   0.796   5.268  0.8366 -0.5025 -0.3150
   37CHL1  H26A 2732   3.664   0.896   5.240 -2.3555  0.8317 -0.4487
   37CHL1  H26B 2733   3.665   0.756   5.364  0.4349 -0.7122 -0.2310
   37CHL1  H26C 2734   3.665   0.729   5.189  3.3658 -0.5582  0.9144
   37CHL1   C27 2735   3.440   0.907   5.393  0.0060 -0.1827  0.3990
   37CHL1  H27A 2736   3.471   0.857   5.488  2.6178  0.0921 -0.2357
   37CHL1  H27B 2737   3.510   0.992   5.382  1.6583 -1.6996 -1.7168
   37CHL1  H27C 2738   3.334   0.942   5.391  0.2372  0.4845 -0.7159
   38CHL1    C3 2739   4.661   5.195   3.253  0.6515 -0.6443  0.1760
   38CHL1    H3 2740   4.757   5.148   3.226  0.3959 -1.7859  1.1931
   38CHL1    O3 2741   4.578   5.228   3.137 -0.3686  0.3547 -0.5904
   38CHL1   H3' 2742   4.494   5.262   3.168 -0.4931 -0.2116 -0.2983
   38CHL1    C4 2743   4.577   5.110   3.354  0.6714 -0.2311 -0.2502
   38CHL1   H4A 2744   4.480   5.165   3.362  0.0048 -1.5868  1.5812
   38CHL1   H4B 2745   4.547   5.014   3.307 -3.2859  1.3027 -1.3669
   38CHL1    C5 2746   4.635   5.094   3.492  0.1070  0.1549  0.2709
   38CHL1    C6 2747   4.641   4.968   3.547  0.0028 -0.7621 -0.8025
   38CHL1    H6 2748   4.609   4.877   3.495 -2.1432 -1.1787  1.0584
   38CHL1    C7 2749   4.671   4.953   3.691  0.1846 -0.4042 -0.2025
   38CHL1   H7A 2750   4.591   4.895   3.742  0.1827 -1.1567 -1.0423
   38CHL1   H7B 2751   4.762   4.890   3.700 -1.6621 -3.1202  0.4318
   38CHL1    C8 2752   4.685   5.082   3.773 -0.0959  0.5333  0.7157
   38CHL1    H8 2753   4.586   5.117   3.808 -1.0539  0.2874 -1.5585
   38CHL1   C14 2754   4.764   5.054   3.894 -0.2284  0.1702 -0.2256
   38CHL1   H14 2755   4.860   5.010   3.858 -1.1337 -1.0439 -1.2387
   38CHL1   C15 2756   4.706   4.938   3.984  0.4129  0.2681  0.0112
   38CHL1  H15A 2757   4.596   4.950   3.988  0.2144 -0.5872 -1.7865
   38CHL1  H15B 2758   4.740   4.843   3.937  0.0745  0.8780 -1.5403
   38CHL1   C16 2759   4.780   4.968   4.110 -0.1407 -0.0931  0.3356
   38CHL1  H16A 2760   4.702   4.972   4.188 -0.0554  0.1470  0.4084
   38CHL1  H16B 2761   4.854   4.890   4.138  0.0992  0.2847  0.7714
   38CHL1   C17 2762   4.851   5.105   4.107 -0.2937 -0.6269  0.1607
   38CHL1   H17 2763   4.957   5.090   4.078  0.7815  3.0213  1.7109
   38CHL1   C13 2764   4.794   5.180   3.980  0.8171 -0.1110  0.3634
   38CHL1   C18 2765   4.653   5.240   4.024 -1.0503 -0.0375  0.0138
   38CHL1  H18A 2766   4.673   5.329   4.088 -1.1767  0.5211 -0.7068
   38CHL1  H18B 2767   4.594   5.284   3.940 -1.8197 -1.6718 -0.3439
   38CHL1  H18C 2768   4.592   5.162   4.075 -2.6229  0.9970 -0.1855
   38CHL1   C12 2769   4.880   5.275   3.894  0.2630 -0.2085 -0.3225
   38CHL1  H12A 2770   4.891   5.373   3.944 -0.3527  0.3283 -1.1954
   38CHL1  H12B 2771   4.970   5.219   3.861  0.1916  0.4918 -1.7712
   38CHL1   C11 2772   4.804   5.316   3.769 -0.0445  0.2326  0.4773
   38CHL1  H11A 2773   4.721   5.385   3.798  0.9650  1.0161  1.5836
   38CHL1  H11B 2774   4.874   5.363   3.697 -0.1217 -2.0526 -1.2077
   38CHL1    C9 2775   4.755   5.193   3.688  0.0696  0.0352  0.6047
   38CHL1    H9 2776   4.852   5.147   3.660  0.6475  2.0642 -0.9554
   38CHL1   C10 2777   4.678   5.224   3.553  0.3255  0.3683 -0.0420
   38CHL1   C19 2778   4.556   5.312   3.594  0.5668 -0.5589  0.3962
   38CHL1  H19A 2779   4.488   5.334   3.509 -0.1220  1.0016  1.3104
   38CHL1  H19B 2780   4.504   5.276   3.686 -0.1555 -0.0679  0.1921
   38CHL1  H19C 2781   4.599   5.408   3.628  2.8000 -1.5747  0.5773
   38CHL1    C1 2782   4.758   5.315   3.453 -0.3883  0.7346 -0.7684
   38CHL1   H1A 2783   4.772   5.413   3.504  0.7037  1.3005 -2.0820
   38CHL1   H1B 2784   4.858   5.266   3.444 -0.8767  0.1796 -4.1740
   38CHL1    C2 2785   4.691   5.327   3.319 -0.3458 -0.4555  0.0915
   38CHL1   H2A 2786   4.759   5.384   3.252 -0.8763 -0.2594 -0.2851
   38CHL1   H2B 2787   4.604   5.395   3.320  0.4347  0.5962 -0.7119
   38CHL1   C20 2788   4.865   5.168   4.247  0.0854 -0.5284  0.6606
   38CHL1   H20 2789   4.767   5.203   4.285  0.0304  0.8594 -0.6446
   38CHL1   C21 2790   4.947   5.297   4.232  0.0859  0.3973  0.3704
   38CHL1  H21A 2791   4.951   5.359   4.325  4.0391  1.8738 -0.5928
   38CHL1  H21B 2792   4.900   5.374   4.168  3.2697  2.3330  0.1557
   38CHL1  H21C 2793   5.049   5.267   4.199 -1.1562 -1.5723 -2.0360
   38CHL1   C22 2794   4.946   5.081   4.352  0.8020  0.5760 -0.1002
   38CHL1  H22A 2795   4.913   4.975   4.345  0.6451  0.6275 -0.1478
   38CHL1  H22B 2796   5.057   5.090   4.343  1.2137 -1.6553  1.8469
   38CHL1   C23 2797   4.921   5.132   4.496 -0.5737  1.0166 -0.1324
   38CHL1  H23A 2798   4.986   5.218   4.520  0.2424  0.1644  0.8039
   38CHL1  H23B 2799   4.811   5.146   4.507 -0.3543  2.8505 -0.1093
   38CHL1   C24 2800   4.974   5.030   4.595 -0.6102  0.6529 -0.3815
   38CHL1  H24A 2801   4.899   4.948   4.597  0.4425 -0.3362 -0.3997
   38CHL1  H24B 2802   5.069   4.984   4.563  0.9059  1.3818  2.6659
   38CHL1   C25 2803   4.982   5.085   4.742 -0.3324  0.1800  0.8747
   38CHL1   H25 2804   5.041   5.178   4.753 -0.9379  0.9788 -1.8229
   38CHL1   C26 2805   4.836   5.120   4.778 -0.3730  0.3600 -0.3648
   38CHL1  H26A 2806   4.761   5.042   4.753  0.0099 -0.6973  1.5582
   38CHL1  H26B 2807   4.831   5.148   4.885  0.9176  0.5662 -0.3443
   38CHL1  H26C 2808   4.803   5.214   4.728 -1.0563 -0.0266 -0.6641
   38CHL1   C27 2809   5.032   4.973   4.839  0.8960 -0.0661  0.8663
   38CHL1  H27A 2810   4.956   4.892   4.843 -2.4219  2.6768 -1.0180
   38CHL1  H27B 2811   5.126   4.922   4.808  1.4221  1.1316  0.4451
   38CHL1  H27C 2812   5.056   5.010   4.940  0.7187 -0.5837  1.1028
   39CHL1    C3 2813   5.946   6.016   3.288 -0.0030  0.0525  0.5537
   39CHL1    H3 2814   6.035   6.079   3.307 -0.8365  1.5391 -0.2567
   39CHL1    O3 2815   5.916   6.046   3.148 -0.0366  0.4095  0.4581
   39CHL1   H3' 2816   5.998   6.029   3.101 -0.9752  0.0308 -1.0900
   39CHL1    C4 2817   5.961   5.868   3.308 -0.4042 -0.2728  0.4448
   39CHL1   H4A 2818   5.864   5.816   3.289 -0.7582  0.6473 -0.3454
   39CHL1   H4B 2819   6.041   5.824   3.246  0.1551  0.5979  0.5312
   39CHL1    C5 2820   5.999   5.835   3.450  0.7445 -0.0999  0.2414
   39CHL1    C6 2821   6.114   5.781   3.477 -0.2763  0.4126 -0.8661
   39CHL1    H6 2822   6.195   5.773   3.402  2.2969  4.0718  1.1983
   39CHL1    C7 2823   6.160   5.733   3.610 -0.2894 -0.2772 -0.8360
   39CHL1   H7A 2824   6.194   5.628   3.603 -0.2200 -0.3513  0.3696
   39CHL1   H7B 2825   6.252   5.782   3.648 -0.8860  1.3474 -1.3733
   39CHL1    C8 2826   6.047   5.755   3.717 -0.7779 -0.4262  0.2699
   39CHL1    H8 2827   5.971   5.676   3.696 -1.9715  1.1739 -1.8033
   39CHL1   C14 2828   6.104   5.751   3.856 -0.6725  0.1459 -0.0524
   39CHL1   H14 2829   6.179   5.833   3.857  0.6816 -0.9771 -2.3883
   39CHL1   C15 2830   6.178   5.621   3.891  0.2470 -0.4396  0.2047
   39CHL1  H15A 2831   6.095   5.547   3.895 -0.5469  0.4470  0.5284
   39CHL1  H15B 2832   6.259   5.587   3.823  0.4677  1.2204 -0.3926
   39CHL1   C16 2833   6.216   5.657   4.041 -0.4242 -0.3934 -0.8191
   39CHL1  H16A 2834   6.207   5.562   4.097 -1.5814  1.1016  1.6691
   39CHL1  H16B 2835   6.320   5.696   4.041 -0.2174 -0.9317 -0.8537
   39CHL1   C17 2836   6.117   5.769   4.098 -1.0342  0.3096  0.3498
   39CHL1   H17 2837   6.185   5.856   4.110  0.0438 -0.7830  2.7081
   39CHL1   C13 2838   6.019   5.787   3.975  0.3538  0.7394  0.3039
   39CHL1   C18 2839   5.901   5.690   3.994 -0.8234  0.0483 -0.3796
   39CHL1  H18A 2840   5.821   5.733   4.058  0.0132  0.8694  0.1404
   39CHL1  H18B 2841   5.872   5.658   3.892  1.0426 -2.9442 -0.0864
   39CHL1  H18C 2842   5.940   5.596   4.039 -0.8470  0.6822  1.0191
   39CHL1   C12 2843   5.963   5.925   3.948  0.6277 -0.5564 -0.0436
   39CHL1  H12A 2844   5.896   5.966   4.027  1.7793  2.0753 -0.3528
   39CHL1  H12B 2845   6.047   5.996   3.941 -0.4243  0.7386  0.0751
   39CHL1   C11 2846   5.872   5.922   3.822  0.5762 -0.0597  0.0465
   39CHL1  H11A 2847   5.795   5.843   3.826  1.0744 -0.5773 -0.3381
   39CHL1  H11B 2848   5.833   6.025   3.804  2.6570  0.7413 -0.1817
   39CHL1    C9 2849   5.964   5.884   3.700  0.1593  0.4774  0.0450
   39CHL1    H9 2850   6.029   5.973   3.690 -0.1172  0.7317  0.4984
   39CHL1   C10 2851   5.894   5.883   3.557 -0.4457  0.0594 -0.1825
   39CHL1   C19 2852   5.767   5.795   3.552 -0.5261 -0.1933  0.0238
   39CHL1  H19A 2853   5.731   5.789   3.447  3.3779  0.0139 -1.4838
   39CHL1  H19B 2854   5.781   5.693   3.593 -3.2829 -0.0288  1.6062
   39CHL1  H19C 2855   5.694   5.836   3.625 -0.3701  3.9843 -1.9027
   39CHL1    C1 2856   5.854   6.029   3.523  0.0658  0.2915 -0.3229
   39CHL1   H1A 2857   5.767   6.059   3.586  1.7582  3.4352  0.6868
   39CHL1   H1B 2858   5.938   6.091   3.559  0.8613 -0.7847 -0.2830
   39CHL1    C2 2859   5.828   6.068   3.377  0.0788  0.2377 -0.4704
   39CHL1   H2A 2860   5.806   6.177   3.379  0.9743  0.5134 -2.6648
   39CHL1   H2B 2861   5.732   6.017   3.350 -1.1716  1.7158  0.9702
   39CHL1   C20 2862   6.062   5.735   4.231  0.5858  0.0985 -0.5395
   39CHL1   H20 2863   5.998   5.644   4.235 -1.3871  1.4560  1.4794
   39CHL1   C21 2864   5.971   5.842   4.276  0.5811 -0.5383 -0.2694
   39CHL1  H21A 2865   5.889   5.874   4.209  0.5805  0.6870  0.2875
   39CHL1  H21B 2866   6.038   5.927   4.299 -0.7116  0.8742 -1.5516
   39CHL1  H21C 2867   5.919   5.813   4.370  1.4092  1.4798  0.8844
   39CHL1   C22 2868   6.190   5.712   4.324 -0.0499  0.3539 -0.3832
   39CHL1  H22A 2869   6.238   5.613   4.307 -0.7531  0.0187 -0.4518
   39CHL1  H22B 2870   6.267   5.791   4.327 -0.4316  0.7284 -0.3653
   39CHL1   C23 2871   6.147   5.714   4.473  0.0902 -0.2458 -0.3882
   39CHL1  H23A 2872   6.152   5.819   4.509  1.9914 -0.5167  0.2521
   39CHL1  H23B 2873   6.048   5.663   4.470  0.4399 -0.9899  0.4221
   39CHL1   C24 2874   6.241   5.644   4.580 -0.0138  0.2442  0.4017
   39CHL1  H24A 2875   6.256   5.536   4.562  3.4590  0.2260  2.5172
   39CHL1  H24B 2876   6.342   5.681   4.549 -0.3551  0.1662 -0.8619
   39CHL1   C25 2877   6.194   5.658   4.729  0.4923 -0.2725 -0.3351
   39CHL1   H25 2878   6.088   5.625   4.721  0.3551  0.2492 -0.6784
   39CHL1   C26 2879   6.274   5.560   4.813  0.3166 -0.1987 -0.1724
   39CHL1  H26A 2880   6.248   5.578   4.920  0.9135  2.6383 -0.4285
   39CHL1  H26B 2881   6.256   5.459   4.771 -2.2179 -0.2769  0.9397
   39CHL1  H26C 2882   6.379   5.594   4.811  0.0800  0.6030  0.4524
   39CHL1   C27 2883   6.197   5.799   4.784 -0.1847 -0.7346  0.5468
   39CHL1  H27A 2884   6.297   5.844   4.767  0.1742 -1.8688 -0.5162
   39CHL1  H27B 2885   6.119   5.866   4.741  0.9733 -0.7194 -1.6969
   39CHL1  H27C 2886   6.188   5.812   4.894 -2.3653  0.5554  0.2697
   40CHL1    C3 2887   3.150   3.896   3.118  0.5069 -0.3839 -0.3560
   40CHL1    H3 2888   3.042   3.912   3.134  0.4071 -0.2561 -1.1330
   40CHL1    O3 2889   3.176   3.887   2.977 -0.3919 -0.4266 -0.0522
   40CHL1   H3' 2890   3.268   3.870   2.959  0.2339  1.5625  0.9265
   40CHL1    C4 2891   3.230   4.010   3.180 -0.3824  0.3046  0.3170
   40CHL1   H4A 2892   3.337   4.001   3.151 -0.5904 -0.7196 -0.1658
   40CHL1   H4B 2893   3.191   4.103   3.133 -1.7546  0.4227  1.6367
   40CHL1    C5 2894   3.214   4.016   3.329  0.2524  0.8243 -0.1075
   40CHL1    C6 2895   3.162   4.125   3.390 -0.2951 -0.2764 -0.2931
   40CHL1    H6 2896   3.140   4.216   3.331  2.6241  1.1267  0.5809
   40CHL1    C7 2897   3.135   4.134   3.532  0.0455 -0.6017  0.4876
   40CHL1   H7A 2898   3.175   4.233   3.562  1.4843 -0.1664 -2.4538
   40CHL1   H7B 2899   3.026   4.132   3.554 -0.8170  0.9109 -2.9313
   40CHL1    C8 2900   3.230   4.030   3.607  0.0766  0.4109 -0.4333
   40CHL1    H8 2901   3.330   4.074   3.587 -0.5586  1.7151 -0.8677
   40CHL1   C14 2902   3.196   4.032   3.753  0.1230  0.4383  0.3242
   40CHL1   H14 2903   3.088   4.005   3.755  0.5133 -1.3436 -0.8959
   40CHL1   C15 2904   3.210   4.168   3.831 -1.0108  0.2333  0.5134
   40CHL1  H15A 2905   3.307   4.212   3.800 -2.1699  2.6164  0.1001
   40CHL1  H15B 2906   3.133   4.243   3.804 -0.6215 -0.1398 -1.8270
   40CHL1   C16 2907   3.225   4.128   3.979  0.4971  0.0860 -0.4167
   40CHL1  H16A 2908   3.311   4.179   4.028 -0.0335  1.4788 -0.8900
   40CHL1  H16B 2909   3.140   4.163   4.041  1.6580 -0.2319  1.4390
   40CHL1   C17 2910   3.221   3.970   3.987 -0.1344  0.4437  0.2257
   40CHL1   H17 2911   3.115   3.944   4.007  0.4308 -1.4265  0.9874
   40CHL1   C13 2912   3.264   3.932   3.843  0.2792  0.1003  0.7909
   40CHL1   C18 2913   3.423   3.962   3.837  0.2689  0.4906 -0.4146
   40CHL1  H18A 2914   3.465   4.048   3.893  0.9957  0.1001 -0.3371
   40CHL1  H18B 2915   3.491   3.877   3.862  0.9343  0.3203 -2.5855
   40CHL1  H18C 2916   3.446   3.973   3.729 -0.2513  1.6208 -0.4248
   40CHL1   C12 2917   3.235   3.795   3.785 -0.6786 -0.4315 -0.5375
   40CHL1  H12A 2918   3.316   3.731   3.826  1.0232 -0.0684 -3.0651
   40CHL1  H12B 2919   3.133   3.751   3.795 -1.3649  0.6928 -2.1742
   40CHL1   C11 2920   3.276   3.783   3.635  0.1761  0.0050 -0.1735
   40CHL1  H11A 2921   3.387   3.789   3.631  0.2091 -0.9952 -2.8948
   40CHL1  H11B 2922   3.250   3.678   3.607  1.4411 -0.5905  0.7846
   40CHL1    C9 2923   3.215   3.887   3.545 -0.7307 -0.1236 -0.2548
   40CHL1    H9 2924   3.107   3.861   3.537 -0.1573 -2.1453 -2.8086
   40CHL1   C10 2925   3.253   3.883   3.395  0.1942  0.3445  0.0413
   40CHL1   C19 2926   3.407   3.850   3.379  0.6347  0.4200 -0.4575
   40CHL1  H19A 2927   3.445   3.854   3.275  1.4803  1.6445 -0.1275
   40CHL1  H19B 2928   3.481   3.920   3.425  0.6236 -0.0474  0.2917
   40CHL1  H19C 2929   3.429   3.750   3.422 -0.0024  0.6057  0.3333
   40CHL1    C1 2930   3.182   3.757   3.331  0.1726  1.0981  0.2949
   40CHL1   H1A 2931   3.231   3.670   3.379  0.9604  1.8945  0.9884
   40CHL1   H1B 2932   3.076   3.761   3.363 -0.7939  2.4915 -2.6289
   40CHL1    C2 2933   3.197   3.758   3.173 -0.2466  0.1200  0.1816
   40CHL1   H2A 2934   3.136   3.675   3.132  0.5629 -1.9835  2.9875
   40CHL1   H2B 2935   3.306   3.742   3.158  0.1544  1.6798  1.1780
   40CHL1   C20 2936   3.292   3.914   4.112  0.0683  0.6760  0.3674
   40CHL1   H20 2937   3.399   3.943   4.112  1.2114 -3.0114  0.9139
   40CHL1   C21 2938   3.287   3.762   4.118 -0.1507  0.0580  0.9066
   40CHL1  H21A 2939   3.183   3.725   4.123 -0.3963  0.6825  0.5617
   40CHL1  H21B 2940   3.336   3.715   4.206 -2.2267 -0.8329  1.6399
   40CHL1  H21C 2941   3.326   3.715   4.025  0.1986 -0.3998  1.2833
   40CHL1   C22 2942   3.231   3.970   4.240  0.0641 -0.6875  0.2920
   40CHL1  H22A 2943   3.210   4.079   4.236  0.8619 -0.5673 -2.0397
   40CHL1  H22B 2944   3.133   3.928   4.269  0.4487 -1.2377  0.8097
   40CHL1   C23 2945   3.309   3.942   4.365  0.4230 -0.0334 -0.5460
   40CHL1  H23A 2946   3.261   3.980   4.458  3.5145  1.8213  0.4759
   40CHL1  H23B 2947   3.327   3.833   4.380  3.0334  0.1012 -2.0204
   40CHL1   C24 2948   3.453   3.996   4.368 -0.8193 -0.6779 -0.1869
   40CHL1  H24A 2949   3.498   3.948   4.278 -2.4071 -0.8059 -0.9413
   40CHL1  H24B 2950   3.447   4.105   4.347 -1.9769 -0.8837 -0.9947
   40CHL1   C25 2951   3.542   3.985   4.486 -0.7204  0.4563 -0.3096
   40CHL1   H25 2952   3.552   3.880   4.522 -1.1271  1.1334  1.9649
   40CHL1   C26 2953   3.685   4.044   4.460  1.0607 -0.0710 -0.2763
   40CHL1  H26A 2954   3.750   3.999   4.382  1.1935  0.6803 -0.6045
   40CHL1  H26B 2955   3.669   4.149   4.428 -1.3657  0.0068  0.9335
   40CHL1  H26C 2956   3.730   4.053   4.561 -0.9526 -0.0707  0.6727
   40CHL1   C27 2957   3.488   4.052   4.613 -0.4005 -0.2042 -0.4987
   40CHL1  H27A 2958   3.541   4.008   4.701  0.1713  0.4211 -0.5203
   40CHL1  H27B 2959   3.516   4.159   4.623  2.5243 -1.0093  1.2231
   40CHL1  H27C 2960   3.379   4.034   4.613 -0.6051  0.7024  1.6259
   41CHL1    C3 2961   0.826   1.113   3.539  0.0229  0.4874 -0.3070
   41CHL1    H3 2962   0.904   1.037   3.557  0.9869  1.4120 -0.4659
   41CHL1    O3 2963   0.809   1.145   3.404  1.0894 -0.2917  0.3115
   41CHL1   H3' 2964   0.765   1.230   3.403  0.0215 -0.8269  0.6435
   41CHL1    C4 2965   0.689   1.079   3.592 -0.6215 -0.8463 -0.3619
   41CHL1   H4A 2966   0.624   1.165   3.565  1.9654  0.3006 -3.7440
   41CHL1   H4B 2967   0.647   0.995   3.533 -0.0739 -0.7575 -0.8948
   41CHL1    C5 2968   0.687   1.046   3.736  0.3650 -0.1451  0.1518
   41CHL1    C6 2969   0.648   0.927   3.780  0.1487 -0.2421  0.2241
   41CHL1    H6 2970   0.601   0.852   3.714  0.4323  0.6479 -1.0007
   41CHL1    C7 2971   0.630   0.890   3.928  0.0135 -0.0275  0.1895
   41CHL1   H7A 2972   0.527   0.853   3.946  0.0961 -0.6119 -0.4655
   41CHL1   H7B 2973   0.704   0.816   3.967  0.9648  0.7279 -0.1395
   41CHL1    C8 2974   0.654   1.017   4.019 -0.0732  0.0691 -0.4638
   41CHL1    H8 2975   0.554   1.066   4.021  0.0767  0.3729 -0.4295
   41CHL1   C14 2976   0.679   0.984   4.164 -0.8342  0.2269 -0.7147
   41CHL1   H14 2977   0.775   0.927   4.167 -0.6655  0.4369 -1.7396
   41CHL1   C15 2978   0.575   0.889   4.231  0.6460 -0.4753  0.3761
   41CHL1  H15A 2979   0.466   0.904   4.222  0.4304 -2.0087  0.2216
   41CHL1  H15B 2980   0.594   0.791   4.183 -1.0498 -0.2945 -0.7579
   41CHL1   C16 2981   0.603   0.908   4.375  0.5909 -0.2889  0.4039
   41CHL1  H16A 2982   0.509   0.934   4.427  1.4508  2.2866  0.8224
   41CHL1  H16B 2983   0.639   0.813   4.420 -1.0794 -0.0027  2.5022
   41CHL1   C17 2984   0.711   1.028   4.400 -0.5819 -0.1658 -0.5395
   41CHL1   H17 2985   0.812   0.984   4.410 -1.0542 -1.2871 -0.4730
   41CHL1   C13 2986   0.700   1.097   4.262 -0.2172 -0.7092 -0.3004
   41CHL1   C18 2987   0.573   1.191   4.260  0.6257 -1.0350 -0.3117
   41CHL1  H18A 2988   0.566   1.268   4.340 -0.7100 -0.7605 -0.6698
   41CHL1  H18B 2989   0.560   1.238   4.161  1.7115 -0.5742 -0.2560
   41CHL1  H18C 2990   0.488   1.123   4.282  0.6234 -1.2722 -1.0568
   41CHL1   C12 2991   0.824   1.172   4.217 -0.2585  0.3084 -0.5450
   41CHL1  H12A 2992   0.837   1.260   4.283 -0.6396 -0.2255  0.2617
   41CHL1  H12B 2993   0.910   1.103   4.228 -0.0619  0.7297  0.7268
   41CHL1   C11 2994   0.807   1.219   4.074  0.5526 -0.2363  0.6696
   41CHL1  H11A 2995   0.732   1.301   4.070  0.8805  0.0522  0.3821
   41CHL1  H11B 2996   0.908   1.257   4.047  0.2045 -0.2765 -0.7222
   41CHL1    C9 2997   0.766   1.105   3.967  0.2989 -0.0830 -0.3655
   41CHL1    H9 2998   0.860   1.047   3.965  0.2614 -0.2530  1.3192
   41CHL1   C10 2999   0.738   1.158   3.824  0.0001 -0.4536 -0.6991
   41CHL1   C19 3000   0.641   1.279   3.827 -0.2090  0.5203 -0.2865
   41CHL1  H19A 3001   0.683   1.350   3.900  2.0564 -2.0204  1.0431
   41CHL1  H19B 3002   0.619   1.319   3.725 -3.2972  1.6496  0.7063
   41CHL1  H19C 3003   0.551   1.227   3.866  0.9883 -1.0419  0.5198
   41CHL1    C1 3004   0.875   1.200   3.768 -0.3696  0.0026  0.1254
   41CHL1   H1A 3005   0.907   1.288   3.828  0.6952 -0.9583  1.0193
   41CHL1   H1B 3006   0.945   1.114   3.774  0.8775  0.8942 -0.8292
   41CHL1    C2 3007   0.885   1.234   3.617 -0.1800 -0.8343  0.7724
   41CHL1   H2A 3008   0.991   1.249   3.587 -1.0150 -0.5749 -2.3379
   41CHL1   H2B 3009   0.824   1.325   3.595 -2.6922 -2.3097  1.2670
   41CHL1   C20 3010   0.694   1.110   4.522 -0.2597  0.0963 -0.4448
   41CHL1   H20 3011   0.609   1.180   4.514 -0.5065 -0.1922 -0.3319
   41CHL1   C21 3012   0.826   1.185   4.558 -0.3194  0.7893  0.0368
   41CHL1  H21A 3013   0.828   1.216   4.665  0.3848  0.4708  0.1201
   41CHL1  H21B 3014   0.851   1.270   4.490  0.5891  0.3531 -0.1917
   41CHL1  H21C 3015   0.908   1.114   4.533 -0.4645  0.5106  0.3469
   41CHL1   C22 3016   0.647   1.014   4.645 -0.7183  0.6316  0.6717
   41CHL1  H22A 3017   0.620   1.077   4.733 -1.9869  1.2973 -0.1677
   41CHL1  H22B 3018   0.560   0.950   4.621  1.1441 -1.8310  0.0700
   41CHL1   C23 3019   0.747   0.903   4.681 -0.3482  0.1405 -0.2006
   41CHL1  H23A 3020   0.777   0.850   4.588  1.2627  0.9987 -0.2096
   41CHL1  H23B 3021   0.841   0.938   4.729 -0.3552  0.0074 -0.0904
   41CHL1   C24 3022   0.684   0.788   4.754  0.2309 -0.3923  0.4226
   41CHL1  H24A 3023   0.610   0.735   4.690  0.3260 -0.6564  0.5306
   41CHL1  H24B 3024   0.762   0.714   4.780  2.4138  1.9626  0.9219
   41CHL1   C25 3025   0.618   0.838   4.884  0.8276 -0.3425 -0.0818
   41CHL1   H25 3026   0.541   0.915   4.866  3.0406  2.1258  0.3223
   41CHL1   C26 3027   0.564   0.714   4.949  0.6142 -0.3215 -0.5794
   41CHL1  H26A 3028   0.521   0.737   5.048 -0.4470 -0.8744 -0.8916
   41CHL1  H26B 3029   0.485   0.661   4.891  1.5382 -0.5244 -1.6957
   41CHL1  H26C 3030   0.644   0.640   4.972  0.2480 -0.5370  0.0017
   41CHL1   C27 3031   0.726   0.912   4.977  1.1245 -0.1084 -0.1912
   41CHL1  H27A 3032   0.731   1.019   4.948  1.2629  0.2449  1.1022
   41CHL1  H27B 3033   0.690   0.915   5.082 -1.4781 -0.8926 -0.9834
   41CHL1  H27C 3034   0.822   0.856   4.970  0.9952 -0.3661  0.0943
   42CHL1    C3 3035   2.718   0.747   3.754 -0.1594 -0.1499  0.3257
   42CHL1    H3 3036   2.824   0.778   3.747  0.0441  0.2104  3.5586
   42CHL1    O3 3037   2.664   0.733   3.624  0.6061 -0.4000  0.5251
   42CHL1   H3' 3038   2.582   0.683   3.624 -1.4011  2.5021 -2.1005
   42CHL1    C4 3039   2.708   0.611   3.819 -0.3633 -0.5121  0.0418
   42CHL1   H4A 3040   2.602   0.578   3.810 -0.9576  1.5435 -1.1012
   42CHL1   H4B 3041   2.773   0.544   3.759 -1.4226 -1.7475  0.2198
   42CHL1    C5 3042   2.755   0.618   3.966  1.1273  0.8669  0.4874
   42CHL1    C6 3043   2.864   0.556   4.009 -0.6120 -0.2103 -0.5472
   42CHL1    H6 3044   2.913   0.486   3.940  0.3703  1.4901 -1.6402
   42CHL1    C7 3045   2.903   0.544   4.154 -0.1578 -0.5468  0.7323
   42CHL1   H7A 3046   2.917   0.437   4.182 -0.8302 -0.7222  0.4319
   42CHL1   H7B 3047   2.994   0.604   4.173  0.5227 -1.8434  1.7184
   42CHL1    C8 3048   2.799   0.606   4.253  0.2353 -0.6416 -0.2845
   42CHL1    H8 3049   2.711   0.541   4.272 -1.0807  1.5374  1.5648
   42CHL1   C14 3050   2.861   0.646   4.386 -0.0603 -0.2766 -0.4122
   42CHL1   H14 3051   2.936   0.725   4.362 -0.0702 -0.5699 -1.4425
   42CHL1   C15 3052   2.946   0.538   4.465  0.5983  0.4358  0.2607
   42CHL1  H15A 3053   2.898   0.438   4.465  1.9592 -0.2608 -1.4451
   42CHL1  H15B 3054   3.045   0.527   4.417 -0.3457  0.6119 -1.8763
   42CHL1   C16 3055   2.964   0.608   4.600  1.0951 -0.9357 -0.5386
   42CHL1  H16A 3056   2.940   0.523   4.668  0.5370 -1.0836 -0.9176
   42CHL1  H16B 3057   3.062   0.648   4.632 -0.7085  2.7842  0.8880
   42CHL1   C17 3058   2.863   0.727   4.607  0.3602  0.0471 -0.9946
   42CHL1   H17 3059   2.928   0.813   4.580  0.1507  0.5677  0.1033
   42CHL1   C13 3060   2.767   0.713   4.491  0.0224  0.3496  0.2467
   42CHL1   C18 3061   2.650   0.617   4.538 -0.0729 -0.8929 -0.1608
   42CHL1  H18A 3062   2.594   0.664   4.621 -2.3415 -1.6160 -1.2198
   42CHL1  H18B 3063   2.578   0.590   4.457 -0.1493  0.7834 -0.6952
   42CHL1  H18C 3064   2.704   0.528   4.576  0.9034 -0.9106 -1.5148
   42CHL1   C12 3065   2.711   0.846   4.429 -1.3320 -0.2350 -0.4588
   42CHL1  H12A 3066   2.641   0.900   4.497  1.1017  3.2219 -0.4138
   42CHL1  H12B 3067   2.787   0.925   4.412 -0.5850 -0.9447 -0.4674
   42CHL1   C11 3068   2.642   0.804   4.301  0.4147  0.6147  0.5407
   42CHL1  H11A 3069   2.561   0.732   4.325 -0.4958  1.6835  0.7532
   42CHL1  H11B 3070   2.611   0.900   4.255  1.8463  1.0983  0.5341
   42CHL1    C9 3071   2.742   0.739   4.194  0.2901 -0.4951  0.2934
   42CHL1    H9 3072   2.829   0.808   4.189  1.9703 -2.5098  0.4319
   42CHL1   C10 3073   2.679   0.717   4.053 -0.8019 -0.3570 -0.2161
   42CHL1   C19 3074   2.530   0.664   4.070  0.1868 -0.0046  0.3780
   42CHL1  H19A 3075   2.543   0.575   4.135 -1.2555  0.2418  1.0347
   42CHL1  H19B 3076   2.458   0.732   4.120 -2.4386 -3.0657  1.1365
   42CHL1  H19C 3077   2.482   0.620   3.979  0.2321 -0.7315  0.6954
   42CHL1    C1 3078   2.675   0.857   3.982 -0.0985  0.2507  0.1937
   42CHL1   H1A 3079   2.597   0.912   4.038 -0.6471  0.4039 -0.7028
   42CHL1   H1B 3080   2.777   0.899   3.996 -0.1556 -0.1489  2.1344
   42CHL1    C2 3081   2.634   0.851   3.833  0.4428  0.2732 -0.9458
   42CHL1   H2A 3082   2.644   0.952   3.789  0.3945  0.5162 -0.4060
   42CHL1   H2B 3083   2.531   0.811   3.826  0.5663  0.2665 -3.1470
   42CHL1   C20 3084   2.814   0.758   4.757  0.1854 -0.3018 -0.1578
   42CHL1   H20 3085   2.764   0.664   4.789 -0.0845 -0.3201 -0.6239
   42CHL1   C21 3086   2.712   0.875   4.756 -0.5254 -0.0377 -0.0825
   42CHL1  H21A 3087   2.608   0.847   4.732 -0.0076  0.6050 -3.6361
   42CHL1  H21B 3088   2.746   0.947   4.678 -1.0588 -0.3011 -0.5681
   42CHL1  H21C 3089   2.717   0.924   4.855  2.1948 -1.5156  0.6103
   42CHL1   C22 3090   2.925   0.788   4.850 -0.0649  0.5930 -0.5960
   42CHL1  H22A 3091   3.014   0.725   4.833 -2.6249 -3.2373 -1.2115
   42CHL1  H22B 3092   2.959   0.893   4.849  0.0851  0.5949  1.4533
   42CHL1   C23 3093   2.890   0.751   5.002 -0.0869 -0.1838  0.1991
   42CHL1  H23A 3094   2.807   0.820   5.029  1.6741  2.1194  0.0394
   42CHL1  H23B 3095   2.847   0.648   4.997  0.2003 -0.2685 -0.9475
   42CHL1   C24 3096   3.006   0.765   5.103 -0.1464 -0.5957 -0.5053
   42CHL1  H24A 3097   3.068   0.675   5.086 -1.6273 -1.5425 -1.1237
   42CHL1  H24B 3098   3.068   0.850   5.069  0.1784 -1.0228 -0.9906
   42CHL1   C25 3099   2.966   0.769   5.252 -0.2282  0.0602 -0.2786
   42CHL1   H25 3100   2.902   0.859   5.266  0.2103  0.4653 -0.8473
   42CHL1   C26 3101   2.879   0.649   5.285 -0.1367 -0.3768  0.4697
   42CHL1  H26A 3102   2.848   0.658   5.391  0.6567  2.6666  0.5248
   42CHL1  H26B 3103   2.790   0.654   5.219  0.7985  3.7825 -0.7581
   42CHL1  H26C 3104   2.938   0.554   5.280 -0.3357 -0.6482  2.4203
   42CHL1   C27 3105   3.088   0.770   5.340  0.3420 -0.7442  0.0510
   42CHL1  H27A 3106   3.157   0.688   5.314  0.5147 -1.0531  1.4092
   42CHL1  H27B 3107   3.159   0.854   5.327  2.8428 -2.9370 -1.1762
   42CHL1  H27C 3108   3.072   0.764   5.450  2.0701 -2.7564  0.2546
   43CHL1    C3 3109   5.178   5.428   3.158 -0.1388 -0.3380 -0.6616
   43CHL1    H3 3110   5.118   5.518   3.183 -0.2936 -0.7441  0.5229
   43CHL1    O3 3111   5.176   5.384   3.024  0.0744  0.3275 -0.5124
   43CHL1   H3' 3112   5.250   5.325   3.011 -0.3376  0.2013 -2.6050
   43CHL1    C4 3113   5.327   5.442   3.198 -0.1366 -0.5686  0.6062
   43CHL1   H4A 3114   5.385   5.351   3.175 -1.2582 -1.2823  0.4983
   43CHL1   H4B 3115   5.372   5.514   3.126  1.2235 -2.5593 -0.6216
   43CHL1    C5 3116   5.337   5.484   3.340 -1.0904 -0.3583 -0.3083
   43CHL1    C6 3117   5.413   5.592   3.379 -0.0911  0.0170 -0.1613
   43CHL1    H6 3118   5.458   5.661   3.305  2.1989  0.2581  1.3552
   43CHL1    C7 3119   5.431   5.623   3.524  0.5856  0.1883 -0.0013
   43CHL1   H7A 3120   5.539   5.648   3.526  0.2857  1.9973 -2.4068
   43CHL1   H7B 3121   5.360   5.706   3.547 -0.7088 -0.6664 -0.7455
   43CHL1    C8 3122   5.393   5.516   3.627 -0.1836  0.5508 -0.1284
   43CHL1    H8 3123   5.472   5.438   3.629 -0.7615 -0.0578 -0.7700
   43CHL1   C14 3124   5.381   5.575   3.762  0.4143 -0.2004  0.3341
   43CHL1   H14 3125   5.308   5.659   3.753  1.2763  0.3778 -1.6921
   43CHL1   C15 3126   5.501   5.640   3.826 -0.3410  0.1046 -1.7542
   43CHL1  H15A 3127   5.606   5.609   3.809  0.3820  2.4111 -1.8970
   43CHL1  H15B 3128   5.509   5.746   3.793  1.0745  0.7367  0.4481
   43CHL1   C16 3129   5.471   5.642   3.977  0.2853 -0.4318  0.0258
   43CHL1  H16A 3130   5.552   5.586   4.029  2.4667  2.5555  0.0896
   43CHL1  H16B 3131   5.467   5.742   4.027  1.7066 -0.3999  0.1193
   43CHL1   C17 3132   5.336   5.567   3.988  0.0467 -0.3654  0.0813
   43CHL1   H17 3133   5.255   5.638   3.961 -3.3186 -3.6517  0.7283
   43CHL1   C13 3134   5.327   5.479   3.867 -0.0600  0.6676  0.2749
   43CHL1   C18 3135   5.423   5.351   3.887 -0.0192 -0.1812  0.2470
   43CHL1  H18A 3136   5.521   5.387   3.925  0.9032  1.3738 -3.2679
   43CHL1  H18B 3137   5.379   5.283   3.963 -0.5950  0.9867  0.9988
   43CHL1  H18C 3138   5.447   5.295   3.795  2.1916  0.6592  0.2616
   43CHL1   C12 3139   5.191   5.443   3.826  0.1775 -1.0442 -0.3559
   43CHL1  H12A 3140   5.156   5.376   3.908  1.5821  0.6019  1.7201
   43CHL1  H12B 3141   5.121   5.529   3.825 -1.3657 -2.0937  2.9047
   43CHL1   C11 3142   5.197   5.366   3.697  0.2234  0.1589 -0.1029
   43CHL1  H11A 3143   5.251   5.270   3.713 -1.5002 -1.0356 -1.1492
   43CHL1  H11B 3144   5.097   5.335   3.661 -0.7334  1.4741  1.2920
   43CHL1    C9 3145   5.260   5.453   3.587 -0.3409 -0.3279  0.2616
   43CHL1    H9 3146   5.190   5.540   3.584  0.0695 -0.0090 -2.3995
   43CHL1   C10 3147   5.275   5.384   3.442 -0.6578  0.2058 -0.3374
   43CHL1   C19 3148   5.358   5.256   3.459  0.2603 -0.1716 -0.2616
   43CHL1  H19A 3149   5.351   5.191   3.368  1.2246  0.5408 -0.8708
   43CHL1  H19B 3150   5.465   5.283   3.478  1.0968 -1.1563 -3.0299
   43CHL1  H19C 3151   5.320   5.204   3.549 -1.6924  1.4755 -0.0743
   43CHL1    C1 3152   5.130   5.349   3.396  0.2433  0.3916  0.1201
   43CHL1   H1A 3153   5.095   5.259   3.450  2.8593 -1.0400 -0.4003
   43CHL1   H1B 3154   5.059   5.430   3.422  0.2026  0.3786  0.0503
   43CHL1    C2 3155   5.130   5.313   3.246  0.1305  0.2202 -0.0262
   43CHL1   H2A 3156   5.035   5.276   3.202  0.8596  2.2186 -3.6437
   43CHL1   H2B 3157   5.199   5.229   3.220  0.8315  0.9966 -0.7355
   43CHL1   C20 3158   5.295   5.505   4.123 -0.3031 -0.5170  0.1690
   43CHL1   H20 3159   5.222   5.424   4.099 -0.7053 -1.5842  4.3219
   43CHL1   C21 3160   5.209   5.616   4.191 -0.4418  0.3880  0.7971
   43CHL1  H21A 3161   5.268   5.699   4.236  0.4223 -0.4195  1.1714
   43CHL1  H21B 3162   5.143   5.571   4.269 -3.8618 -0.0725 -2.1112
   43CHL1  H21C 3163   5.138   5.668   4.123  0.1045  1.0778  0.7450
   43CHL1   C22 3164   5.412   5.454   4.210 -0.1263 -0.2628  0.4581
   43CHL1  H22A 3165   5.488   5.405   4.145 -0.4936  0.4028 -0.4863
   43CHL1  H22B 3166   5.457   5.542   4.261  0.6729 -0.0642 -0.5424
   43CHL1   C23 3167   5.376   5.338   4.302 -1.2937 -0.0408 -0.1720
   43CHL1  H23A 3168   5.281   5.358   4.356 -0.0339 -0.1682  2.2272
   43CHL1  H23B 3169   5.375   5.250   4.235  2.4080  1.2630 -2.1956
   43CHL1   C24 3170   5.481   5.315   4.417 -0.1568 -0.2349  0.6046
   43CHL1  H24A 3171   5.576   5.327   4.362 -0.3086 -1.0673  0.1541
   43CHL1  H24B 3172   5.469   5.380   4.507  1.5323  1.0035 -0.0140
   43CHL1   C25 3173   5.477   5.173   4.480 -0.8631  0.2068  0.0288
   43CHL1   H25 3174   5.485   5.100   4.397  0.5406 -0.3077  0.5797
   43CHL1   C26 3175   5.596   5.154   4.569  0.0813 -0.1136  0.0401
   43CHL1  H26A 3176   5.686   5.134   4.506 -0.8838  0.4850 -1.5869
   43CHL1  H26B 3177   5.619   5.248   4.625 -0.7972  1.0365 -1.4617
   43CHL1  H26C 3178   5.582   5.071   4.642  0.3922 -1.1034 -0.9971
   43CHL1   C27 3179   5.338   5.151   4.553  0.0806  0.0518  0.6229
   43CHL1  H27A 3180   5.328   5.044   4.581  0.6273  0.1642  1.2822
   43CHL1  H27B 3181   5.335   5.207   4.649 -0.4832  0.2728  0.4839
   43CHL1  H27C 3182   5.252   5.184   4.491 -0.1268 -1.5207  0.0140
   44CHL1    C3 3183   3.162   1.200   3.626 -0.0462 -0.0679 -0.0706
   44CHL1    H3 3184   3.217   1.104   3.638  0.0807  0.2359  2.4224
   44CHL1    O3 3185   3.143   1.230   3.493 -0.0862  0.8164  0.1565
   44CHL1   H3' 3186   3.125   1.324   3.483  0.4035  0.6753 -3.5030
   44CHL1    C4 3187   3.026   1.184   3.702  0.0423 -0.4023  0.2567
   44CHL1   H4A 3188   2.966   1.273   3.674  0.1840 -0.6167 -0.7559
   44CHL1   H4B 3189   2.965   1.105   3.654 -0.8922  1.4717 -1.7936
   44CHL1    C5 3190   3.038   1.181   3.853  0.4270  0.1923  0.3250
   44CHL1    C6 3191   2.995   1.075   3.923 -0.5487  0.5651  0.1685
   44CHL1    H6 3192   2.941   0.992   3.876  0.9571  0.2075 -0.9881
   44CHL1    C7 3193   3.013   1.067   4.075 -0.0455 -0.0572 -0.2118
   44CHL1   H7A 3194   2.918   1.024   4.114 -0.2862 -1.4855 -2.1815
   44CHL1   H7B 3195   3.092   0.996   4.110  0.1409  0.4879  0.5007
   44CHL1    C8 3196   3.037   1.203   4.146 -0.4798  0.1824  0.1621
   44CHL1    H8 3197   2.943   1.261   4.133  0.1304  1.4703  1.2336
   44CHL1   C14 3198   3.091   1.177   4.290 -0.7048  0.2535 -0.2002
   44CHL1   H14 3199   3.195   1.139   4.289  0.9645  4.2996  1.3880
   44CHL1   C15 3200   3.027   1.071   4.378  0.3906  0.3139 -0.5180
   44CHL1  H15A 3201   2.919   1.086   4.360  0.5718  0.5648 -1.4397
   44CHL1  H15B 3202   3.038   0.963   4.353  2.1024  0.6173 -1.1878
   44CHL1   C16 3203   3.073   1.107   4.523 -0.1685  1.0191  0.6080
   44CHL1  H16A 3204   2.984   1.127   4.586  0.0358  0.6286  1.0252
   44CHL1  H16B 3205   3.137   1.031   4.572  0.4520  1.0157 -0.1809
   44CHL1   C17 3206   3.152   1.243   4.512 -0.1410 -0.3705  0.3459
   44CHL1   H17 3207   3.261   1.221   4.514  0.2502  1.3862  0.1458
   44CHL1   C13 3208   3.106   1.307   4.376  0.0148  0.2152  0.2336
   44CHL1   C18 3209   2.981   1.384   4.385  0.4786  0.0992 -0.5260
   44CHL1  H18A 3210   2.895   1.322   4.419 -0.8481  0.7114 -2.5826
   44CHL1  H18B 3211   2.997   1.474   4.447  0.4547 -0.3564  0.1480
   44CHL1  H18C 3212   2.941   1.411   4.284 -3.1995 -0.2719  0.6698
   44CHL1   C12 3213   3.217   1.375   4.297 -0.1079  0.3205 -0.3309
   44CHL1  H12A 3214   3.240   1.472   4.346 -0.4763  0.5752 -0.6592
   44CHL1  H12B 3215   3.309   1.312   4.300  2.1277  3.4065  0.8553
   44CHL1   C11 3216   3.184   1.406   4.148 -0.1455  0.1202 -1.5557
   44CHL1  H11A 3217   3.097   1.475   4.142 -0.7854 -0.6561 -1.3626
   44CHL1  H11B 3218   3.268   1.450   4.090  1.9621 -2.8545 -0.9641
   44CHL1    C9 3219   3.148   1.276   4.072 -0.7612 -0.3382  0.4594
   44CHL1    H9 3220   3.235   1.208   4.087  0.4488  0.7066 -1.4708
   44CHL1   C10 3221   3.121   1.292   3.923 -0.0227 -0.8451  0.9147
   44CHL1   C19 3222   3.057   1.429   3.892  0.2658 -0.2707  0.0556
   44CHL1  H19A 3223   3.029   1.447   3.786 -1.8145  1.8325  0.8855
   44CHL1  H19B 3224   2.965   1.436   3.953  0.7914 -0.1459  0.8467
   44CHL1  H19C 3225   3.114   1.521   3.917 -1.7191  0.7405  1.0744
   44CHL1    C1 3226   3.255   1.290   3.848 -0.9198  0.4070  0.5967
   44CHL1   H1A 3227   3.317   1.375   3.885 -1.0075 -0.3927  2.7148
   44CHL1   H1B 3228   3.307   1.192   3.854  0.5137  1.0890 -0.2303
   44CHL1    C2 3229   3.250   1.309   3.693 -0.0384  0.0580 -0.1529
   44CHL1   H2A 3230   3.352   1.295   3.654 -0.1578  0.2796 -0.5527
   44CHL1   H2B 3231   3.213   1.410   3.665 -1.1435 -0.8294 -2.0508
   44CHL1   C20 3232   3.131   1.332   4.639  0.0471  0.0571  0.2896
   44CHL1   H20 3233   3.023   1.351   4.655 -0.7693 -4.0042  0.8992
   44CHL1   C21 3234   3.215   1.467   4.625 -0.5406  0.2733  0.0026
   44CHL1  H21A 3235   3.191   1.532   4.712  1.2975 -1.0464  1.5848
   44CHL1  H21B 3236   3.197   1.531   4.536  0.0997  1.4888  0.7313
   44CHL1  H21C 3237   3.325   1.461   4.629 -0.3442  2.7422  0.0118
   44CHL1   C22 3238   3.173   1.258   4.770  0.7996 -0.1400 -0.9418
   44CHL1  H22A 3239   3.123   1.159   4.783  1.1752 -0.0433  1.6173
   44CHL1  H22B 3240   3.284   1.256   4.770  0.8255  0.9213 -0.9538
   44CHL1   C23 3241   3.127   1.337   4.893  0.4463  0.4622 -0.4526
   44CHL1  H23A 3242   3.185   1.432   4.897 -0.5459  1.0319  1.2418
   44CHL1  H23B 3243   3.018   1.358   4.897  0.1458 -1.1676  0.8460
   44CHL1   C24 3244   3.147   1.257   5.025 -0.1900 -0.2839 -0.0094
   44CHL1  H24A 3245   3.053   1.200   5.042 -2.2215  3.0248  0.7383
   44CHL1  H24B 3246   3.231   1.192   4.995  1.1044  1.2861  0.0679
   44CHL1   C25 3247   3.189   1.327   5.158 -0.1238 -0.2228 -0.2642
   44CHL1   H25 3248   3.265   1.407   5.144  0.5201 -0.7266  0.3115
   44CHL1   C26 3249   3.065   1.382   5.228  0.1338 -1.2733  0.1621
   44CHL1  H26A 3250   3.029   1.471   5.171 -1.2918 -2.4723 -0.9201
   44CHL1  H26B 3251   2.981   1.309   5.223 -0.2329 -0.7921 -1.3188
   44CHL1  H26C 3252   3.075   1.399   5.337  0.1540  0.7356 -0.1012
   44CHL1   C27 3253   3.251   1.225   5.240 -0.2266  0.4332  0.4914
   44CHL1  H27A 3254   3.344   1.185   5.193 -2.0372 -1.2452 -1.9007
   44CHL1  H27B 3255   3.281   1.264   5.340 -1.2974 -0.1588  1.0672
   44CHL1  H27C 3256   3.186   1.135   5.245 -0.7666  0.4631 -3.3509
   45CHL1    C3 3257   3.527   6.401   3.123  0.2672  0.6858  0.3624
   45CHL1    H3 3258   3.425   6.363   3.146 -0.3140  1.9639  0.0480
   45CHL1    O3 3259   3.542   6.428   2.984  0.1496 -0.1464  0.1810
   45CHL1   H3' 3260   3.633   6.451   2.968  0.5842 -0.4616  1.9633
   45CHL1    C4 3261   3.553   6.530   3.190 -0.3859 -0.0633 -0.0110
   45CHL1   H4A 3262   3.654   6.562   3.157 -0.5056 -1.8731 -2.3735
   45CHL1   H4B 3263   3.491   6.614   3.152  0.9141  1.8065  1.7805
   45CHL1    C5 3264   3.548   6.524   3.341 -0.1902 -0.2210 -0.2696
   45CHL1    C6 3265   3.460   6.597   3.406 -0.1154  0.3885 -0.8271
   45CHL1    H6 3266   3.385   6.662   3.357  1.1251  1.5331 -1.2923
   45CHL1    C7 3267   3.446   6.584   3.557  0.2589 -0.1659  0.3985
   45CHL1   H7A 3268   3.420   6.673   3.619  0.2071  0.9839 -1.2236
   45CHL1   H7B 3269   3.354   6.522   3.569 -0.2550  0.4179 -0.4051
   45CHL1    C8 3270   3.565   6.511   3.626 -1.0325  0.4802 -0.3879
   45CHL1    H8 3271   3.653   6.578   3.630 -0.9362  0.4905 -1.8932
   45CHL1   C14 3272   3.538   6.475   3.769  0.4711 -0.0675 -0.2784
   45CHL1   H14 3273   3.445   6.415   3.754 -1.1730  2.3657 -0.5073
   45CHL1   C15 3274   3.490   6.594   3.859  0.3111 -0.6589 -0.2760
   45CHL1  H15A 3275   3.567   6.674   3.849  0.3149 -0.4296  1.3832
   45CHL1  H15B 3276   3.387   6.631   3.843  1.0765  0.7476 -2.5321
   45CHL1   C16 3277   3.515   6.534   3.997  0.1287  0.8731 -1.0670
   45CHL1  H16A 3278   3.576   6.610   4.049 -0.4612 -0.0872  1.1134
   45CHL1  H16B 3279   3.423   6.531   4.058  0.7750 -1.0749 -0.0859
   45CHL1   C17 3280   3.577   6.389   3.986 -0.1152 -0.1707 -0.5223
   45CHL1   H17 3281   3.485   6.326   3.991  0.0528 -0.3826  3.8138
   45CHL1   C13 3282   3.638   6.394   3.849 -0.9124  0.4477 -0.2205
   45CHL1   C18 3283   3.772   6.485   3.858 -0.4245  0.3460 -0.6663
   45CHL1  H18A 3284   3.804   6.505   3.753 -2.0089 -0.4544 -1.3394
   45CHL1  H18B 3285   3.757   6.581   3.912  1.2173 -0.0904  0.6379
   45CHL1  H18C 3286   3.850   6.431   3.915 -2.1115 -3.1002 -1.3277
   45CHL1   C12 3287   3.653   6.260   3.770  0.1071  0.9105 -0.0883
   45CHL1  H12A 3288   3.720   6.188   3.822  1.0678  1.2516 -0.8280
   45CHL1  H12B 3289   3.552   6.216   3.765  1.2020 -1.8089 -0.1484
   45CHL1   C11 3290   3.692   6.287   3.626 -0.4941 -0.1342 -0.1347
   45CHL1  H11A 3291   3.792   6.335   3.635 -0.3066 -0.2445 -1.4443
   45CHL1  H11B 3292   3.708   6.201   3.558  4.1076  0.5491 -0.2851
   45CHL1    C9 3293   3.596   6.385   3.552 -0.0928  0.0377 -0.2403
   45CHL1    H9 3294   3.502   6.326   3.553 -2.2898  3.3049  0.0611
   45CHL1   C10 3295   3.630   6.411   3.403  0.2013  0.2746 -0.4117
   45CHL1   C19 3296   3.777   6.464   3.392  0.4130  0.0911 -0.1672
   45CHL1  H19A 3297   3.808   6.493   3.289 -0.2700 -0.8951 -0.6584
   45CHL1  H19B 3298   3.776   6.553   3.460  0.4837  0.3321 -0.4785
   45CHL1  H19C 3299   3.852   6.391   3.431 -1.4821 -0.8726  1.8796
   45CHL1    C1 3300   3.627   6.274   3.316  0.4169 -0.5112  0.8341
   45CHL1   H1A 3301   3.719   6.217   3.342  1.6814 -0.1919 -2.4818
   45CHL1   H1B 3302   3.534   6.221   3.347  0.4252 -1.7277 -1.0453
   45CHL1    C2 3303   3.631   6.297   3.169  0.3377  0.3425 -0.1562
   45CHL1   H2A 3304   3.617   6.207   3.106  0.1833  0.3424 -0.1217
   45CHL1   H2B 3305   3.730   6.340   3.142 -0.4084  2.2163 -0.0733
   45CHL1   C20 3306   3.651   6.345   4.111  0.0191 -0.2547  0.4190
   45CHL1   H20 3307   3.744   6.405   4.121  0.3683 -0.4714 -1.2646
   45CHL1   C21 3308   3.692   6.192   4.089 -0.0928  0.0833  0.7373
   45CHL1  H21A 3309   3.785   6.194   4.028 -1.0466  0.2486 -0.7845
   45CHL1  H21B 3310   3.610   6.148   4.028  1.6784 -1.2328 -0.8119
   45CHL1  H21C 3311   3.711   6.133   4.181 -1.6452 -1.1702  0.3098
   45CHL1   C22 3312   3.571   6.363   4.241  0.0118 -0.6828  0.2166
   45CHL1  H22A 3313   3.527   6.465   4.235  1.7541  0.0337 -1.3817
   45CHL1  H22B 3314   3.494   6.284   4.251  0.2452 -1.1471 -1.3975
   45CHL1   C23 3315   3.655   6.378   4.371 -0.3439  0.3128  0.2088
   45CHL1  H23A 3316   3.724   6.293   4.383 -1.4427 -0.6156  0.1834
   45CHL1  H23B 3317   3.720   6.468   4.373  0.2489 -0.1306  0.9841
   45CHL1   C24 3318   3.565   6.372   4.502  0.4357  0.4687 -0.0368
   45CHL1  H24A 3319   3.485   6.448   4.496  0.0313  0.1462  1.0724
   45CHL1  H24B 3320   3.518   6.271   4.500 -1.2646  1.2435 -1.4214
   45CHL1   C25 3321   3.646   6.377   4.635 -0.2111  0.2169 -0.2373
   45CHL1   H25 3322   3.702   6.281   4.642 -1.4974 -0.5565 -0.0774
   45CHL1   C26 3323   3.739   6.503   4.638 -0.4586 -0.1408 -0.6486
   45CHL1  H26A 3324   3.808   6.499   4.550 -1.0051  0.6933 -1.1303
   45CHL1  H26B 3325   3.684   6.600   4.635  0.2123  0.2375 -1.0201
   45CHL1  H26C 3326   3.806   6.510   4.727 -2.5201 -0.7310  1.0117
   45CHL1   C27 3327   3.551   6.368   4.751  0.3637 -0.2143  0.1521
   45CHL1  H27A 3328   3.482   6.282   4.746 -1.1165  0.6905  2.8250
   45CHL1  H27B 3329   3.607   6.357   4.847 -1.4056 -0.4981  1.2001
   45CHL1  H27C 3330   3.488   6.459   4.764 -2.7881 -2.1260 -0.6801
   46CHL1    C3 3331   5.936   1.033   3.607  0.2341  0.1254  0.1315
   46CHL1    H3 3332   5.836   1.071   3.637  0.0616  0.3579 -0.7237
   46CHL1    O3 3333   5.967   1.081   3.477 -0.0784 -0.0861 -0.0719
   46CHL1   H3' 3334   5.904   1.041   3.417  0.4081 -1.2664  0.1638
   46CHL1    C4 3335   6.050   1.081   3.698 -0.1695  0.1611  0.0364
   46CHL1   H4A 3336   6.142   1.035   3.656 -0.5222 -1.4339  0.9335
   46CHL1   H4B 3337   6.053   1.192   3.700 -0.9464  0.2234 -1.1582
   46CHL1    C5 3338   6.016   1.028   3.835 -0.5188 -0.1365 -0.0418
   46CHL1    C6 3339   6.006   1.117   3.932 -0.3679  0.0960 -0.1946
   46CHL1    H6 3340   6.014   1.223   3.904 -1.3252  0.2352  0.0279
   46CHL1    C7 3341   5.992   1.067   4.075 -0.4109 -0.3066  0.0491
   46CHL1   H7A 3342   6.052   1.134   4.141  0.5524 -2.3121  1.2912
   46CHL1   H7B 3343   5.890   1.086   4.115  0.2891  1.1651  1.2573
   46CHL1    C8 3344   6.026   0.919   4.103  0.6125 -0.2714 -0.8109
   46CHL1    H8 3345   6.135   0.914   4.084  0.4776  0.2068 -1.7904
   46CHL1   C14 3346   5.988   0.884   4.249  0.0141 -0.8208 -0.5460
   46CHL1   H14 3347   5.878   0.897   4.256  0.1772  1.7033 -1.5786
   46CHL1   C15 3348   6.050   0.971   4.348 -0.1580 -0.1569 -0.1294
   46CHL1  H15A 3349   6.161   0.980   4.339 -0.0924 -1.4716 -0.8365
   46CHL1  H15B 3350   6.005   1.071   4.328 -3.7727 -1.2574  1.6225
   46CHL1   C16 3351   6.013   0.900   4.480 -0.8248  0.3486 -0.6389
   46CHL1  H16A 3352   6.104   0.892   4.544 -3.5954 -2.8761  3.4496
   46CHL1  H16B 3353   5.934   0.941   4.546  2.1082  0.5754  3.0675
   46CHL1   C17 3354   5.968   0.754   4.442  0.5493 -0.6835  0.1793
   46CHL1   H17 3355   5.857   0.753   4.442  0.5395 -0.1242  0.1376
   46CHL1   C13 3356   6.010   0.737   4.290 -1.1424  0.7679 -0.6497
   46CHL1   C18 3357   6.161   0.699   4.275 -0.4979  0.7418  0.4463
   46CHL1  H18A 3358   6.189   0.593   4.288 -1.7829  0.2110 -0.8367
   46CHL1  H18B 3359   6.197   0.723   4.173 -1.3813 -0.7484 -0.2475
   46CHL1  H18C 3360   6.216   0.760   4.350 -0.2338  1.1773 -0.0930
   46CHL1   C12 3361   5.926   0.657   4.189  0.1469  0.2195 -0.4337
   46CHL1  H12A 3362   5.933   0.549   4.216  1.7739 -0.1054 -1.9331
   46CHL1  H12B 3363   5.821   0.695   4.192  0.3492  0.9139 -1.5066
   46CHL1   C11 3364   5.965   0.686   4.041  0.3542  0.4214  1.0267
   46CHL1  H11A 3365   6.064   0.639   4.021 -0.9288 -2.0129 -0.0666
   46CHL1  H11B 3366   5.892   0.638   3.973 -0.2001  1.3408  0.9585
   46CHL1    C9 3367   5.955   0.833   4.000 -0.0735 -0.5838 -0.2664
   46CHL1    H9 3368   5.847   0.860   4.003  0.1976  0.4902  1.8350
   46CHL1   C10 3369   6.003   0.870   3.857 -0.1842 -0.7080  0.2635
   46CHL1   C19 3370   6.136   0.796   3.831 -0.9006  0.8358  0.4678
   46CHL1  H19A 3371   6.115   0.687   3.823 -2.9183  1.1627  0.7638
   46CHL1  H19B 3372   6.192   0.829   3.741 -0.4107 -0.8614  0.1225
   46CHL1  H19C 3373   6.201   0.810   3.919  0.4227 -2.2538  0.0921
   46CHL1    C1 3374   5.894   0.829   3.752 -0.3425  0.8326  0.1964
   46CHL1   H1A 3375   5.866   0.722   3.758 -0.0444  0.2880 -4.6471
   46CHL1   H1B 3376   5.805   0.891   3.776 -0.2343  0.7409  0.8653
   46CHL1    C2 3377   5.927   0.878   3.601 -0.3503  0.9506 -0.8910
   46CHL1   H2A 3378   5.842   0.845   3.538  0.1213  2.1893 -2.2168
   46CHL1   H2B 3379   6.020   0.832   3.562  0.0063  0.9307 -0.0411
   46CHL1   C20 3380   6.026   0.649   4.536  0.3084  0.2687 -0.0143
   46CHL1   H20 3381   6.137   0.643   4.529  0.3414 -1.9454  1.6567
   46CHL1   C21 3382   5.981   0.511   4.481  0.6809 -0.1637  0.0937
   46CHL1  H21A 3383   6.038   0.481   4.390  0.8639 -1.0199  0.4757
   46CHL1  H21B 3384   5.874   0.526   4.459  1.2009  0.6086 -2.1501
   46CHL1  H21C 3385   6.007   0.442   4.565  0.2717 -2.3080 -1.4566
   46CHL1   C22 3386   5.981   0.678   4.684 -0.5665  0.1448  0.2074
   46CHL1  H22A 3387   5.988   0.784   4.716 -0.2905  0.1527  0.1206
   46CHL1  H22B 3388   5.873   0.652   4.690 -0.9213  1.5201  0.2886
   46CHL1   C23 3389   6.064   0.602   4.790  0.6005  0.7893 -1.1094
   46CHL1  H23A 3390   6.020   0.501   4.772  0.9742  0.3568  0.3171
   46CHL1  H23B 3391   6.171   0.612   4.763  2.1455 -2.1786  2.9776
   46CHL1   C24 3392   6.026   0.656   4.927  0.5469 -0.9496  0.5985
   46CHL1  H24A 3393   6.069   0.758   4.928  0.6972 -1.0134  1.2708
   46CHL1  H24B 3394   5.916   0.672   4.936  0.4896 -0.9534 -0.0686
   46CHL1   C25 3395   6.071   0.557   5.044  0.0601 -0.5316 -0.5162
   46CHL1   H25 3396   6.018   0.462   5.022 -0.4422  0.0351 -1.8932
   46CHL1   C26 3397   6.223   0.543   5.041 -0.6568  0.0492  0.4132
   46CHL1  H26A 3398   6.273   0.642   5.037 -1.8424  0.7041  1.2008
   46CHL1  H26B 3399   6.246   0.490   5.136  0.2088 -0.6759 -0.1864
   46CHL1  H26C 3400   6.250   0.482   4.952  0.9194  1.0230  0.1883
   46CHL1   C27 3401   6.038   0.624   5.183 -0.2845  0.2501  0.2866
   46CHL1  H27A 3402   6.081   0.727   5.184  1.6616 -0.3702 -3.2840
   46CHL1  H27B 3403   5.927   0.630   5.188 -0.6975 -3.4728 -1.2161
   46CHL1  H27C 3404   6.072   0.561   5.268  1.1007 -2.6250 -2.1873
   47CHL1    C3 3405   4.892   3.554   3.240  0.7115 -0.0381 -0.4562
   47CHL1    H3 3406   4.989   3.586   3.284  0.5216  2.1329 -1.4537
   47CHL1    O3 3407   4.902   3.563   3.096  0.1498 -0.4307 -0.0693
   47CHL1   H3' 3408   4.827   3.514   3.064  0.9541 -1.3425 -0.6216
   47CHL1    C4 3409   4.872   3.408   3.290  0.9817 -0.9471 -0.2073
   47CHL1   H4A 3410   4.770   3.376   3.261  0.3653 -0.2964  1.1705
   47CHL1   H4B 3411   4.939   3.329   3.249  0.2286 -1.2777 -0.8187
   47CHL1    C5 3412   4.876   3.411   3.437 -0.1664  0.5650  0.3715
   47CHL1    C6 3413   4.975   3.339   3.493 -0.4004 -0.1704 -0.5185
   47CHL1    H6 3414   5.047   3.284   3.429  1.3120  1.5440 -0.1645
   47CHL1    C7 3415   5.009   3.334   3.636  0.2056 -0.1030 -0.3431
   47CHL1   H7A 3416   5.036   3.232   3.672 -0.6037  0.1177  0.9823
   47CHL1   H7B 3417   5.100   3.393   3.661 -0.3359  0.1552  1.1575
   47CHL1    C8 3418   4.895   3.398   3.721  0.9223  0.4659  0.5497
   47CHL1    H8 3419   4.811   3.327   3.730  1.1950 -0.2769 -1.9538
   47CHL1   C14 3420   4.951   3.423   3.862 -0.3638 -0.1088 -0.4637
   47CHL1   H14 3421   5.029   3.501   3.849 -0.7400  0.3255 -0.1072
   47CHL1   C15 3422   5.018   3.311   3.939 -0.2381 -0.4901  0.1023
   47CHL1  H15A 3423   4.959   3.219   3.919 -0.8501  0.3304 -2.1486
   47CHL1  H15B 3424   5.119   3.293   3.896 -0.5328 -1.0465 -0.3815
   47CHL1   C16 3425   5.016   3.358   4.085 -0.1570  0.5921 -0.4571
   47CHL1  H16A 3426   4.990   3.274   4.154  0.4088  0.8214  0.0443
   47CHL1  H16B 3427   5.116   3.396   4.116 -0.7285  0.6088  1.5652
   47CHL1   C17 3428   4.930   3.486   4.091  0.6176  0.3002 -0.2881
   47CHL1   H17 3429   5.005   3.567   4.076  0.7787  0.1747 -0.1461
   47CHL1   C13 3430   4.845   3.478   3.962 -0.0840  0.5527 -0.6714
   47CHL1   C18 3431   4.722   3.379   3.974 -0.4776 -0.2761  0.5860
   47CHL1  H18A 3432   4.646   3.425   4.040  0.7930  0.1669  1.8092
   47CHL1  H18B 3433   4.677   3.362   3.874  0.5490 -1.1610  0.2443
   47CHL1  H18C 3434   4.742   3.279   4.020 -2.0948 -1.0272 -0.2756
   47CHL1   C12 3435   4.806   3.618   3.899  0.1412 -0.5362  0.1493
   47CHL1  H12A 3436   4.735   3.685   3.953 -0.5268  0.0401 -1.4045
   47CHL1  H12B 3437   4.904   3.668   3.893  1.3411 -2.7645 -0.1050
   47CHL1   C11 3438   4.746   3.606   3.757 -0.3098 -0.4583  0.0692
   47CHL1  H11A 3439   4.652   3.548   3.757 -1.6963  1.6738 -0.0958
   47CHL1  H11B 3440   4.723   3.706   3.715  1.7669  0.1351  0.2065
   47CHL1    C9 3441   4.840   3.527   3.658 -0.4037 -0.1448 -0.8670
   47CHL1    H9 3442   4.932   3.589   3.654 -1.3856  1.5761  1.1063
   47CHL1   C10 3443   4.783   3.508   3.516  0.5019  0.2742  0.1184
   47CHL1   C19 3444   4.641   3.459   3.517  0.3538  0.3999 -0.4756
   47CHL1  H19A 3445   4.568   3.529   3.563  0.2063 -1.2536  1.9593
   47CHL1  H19B 3446   4.603   3.450   3.413 -0.0649  0.4119 -0.3264
   47CHL1  H19C 3447   4.626   3.356   3.554  0.4402 -0.4760 -2.6839
   47CHL1    C1 3448   4.778   3.650   3.453 -0.2026  0.0646 -0.5231
   47CHL1   H1A 3449   4.700   3.718   3.491 -1.0691 -2.0988  1.8065
   47CHL1   H1B 3450   4.872   3.701   3.484  0.6817 -2.4137  1.1596
   47CHL1    C2 3451   4.782   3.648   3.297  0.8389 -0.3418  0.4192
   47CHL1   H2A 3452   4.795   3.753   3.261  0.8377 -0.7924 -0.9837
   47CHL1   H2B 3453   4.683   3.617   3.256  1.9380 -2.8309 -0.5531
   47CHL1   C20 3454   4.874   3.499   4.226 -0.0067 -0.0995 -0.2996
   47CHL1   H20 3455   4.795   3.423   4.243  0.7021 -1.0296 -1.0887
   47CHL1   C21 3456   4.801   3.633   4.226  0.8173 -0.8641 -0.4907
   47CHL1  H21A 3457   4.741   3.655   4.317  0.6816 -1.4019 -0.4453
   47CHL1  H21B 3458   4.730   3.632   4.140  1.6109 -0.5531 -1.1666
   47CHL1  H21C 3459   4.879   3.708   4.205  0.8701 -0.0501  2.3407
   47CHL1   C22 3460   4.984   3.483   4.342 -0.3459  0.0569  0.4821
   47CHL1  H22A 3461   5.022   3.380   4.352 -0.5770  0.1059  2.1406
   47CHL1  H22B 3462   5.068   3.555   4.333 -0.1450 -0.4011 -2.0411
   47CHL1   C23 3463   4.920   3.519   4.487  0.3325 -0.0366  0.1858
   47CHL1  H23A 3464   5.000   3.512   4.564  1.0773  1.3934 -0.4262
   47CHL1  H23B 3465   4.871   3.619   4.485 -1.7352 -0.9943 -1.5865
   47CHL1   C24 3466   4.807   3.423   4.531  0.9576  0.4835 -0.0392
   47CHL1  H24A 3467   4.725   3.458   4.465  0.5093  0.3369  0.4311
   47CHL1  H24B 3468   4.827   3.318   4.503 -1.1729 -0.4046  1.4619
   47CHL1   C25 3469   4.768   3.428   4.681 -0.1329  0.1775  0.4696
   47CHL1   H25 3470   4.678   3.364   4.694 -0.3443  0.8437  2.6475
   47CHL1   C26 3471   4.867   3.378   4.782 -0.1535 -0.5631  0.1600
   47CHL1  H26A 3472   4.895   3.272   4.764  2.8307  0.0001  0.8445
   47CHL1  H26B 3473   4.956   3.442   4.765 -1.5984  1.1714 -1.2210
   47CHL1  H26C 3474   4.824   3.400   4.882 -1.8814 -2.9004  0.0008
   47CHL1   C27 3475   4.714   3.560   4.718  0.7579  0.4239 -0.4822
   47CHL1  H27A 3476   4.652   3.546   4.809 -0.1006 -2.7821 -1.4271
   47CHL1  H27B 3477   4.795   3.633   4.741 -1.0838  2.0974  0.9862
   47CHL1  H27C 3478   4.649   3.601   4.637 -1.5784  0.4518  1.3141
   48CHL1    C3 3479   2.434   6.385   3.399 -0.8805 -0.0746 -0.2843
   48CHL1    H3 3480   2.369   6.468   3.431 -1.5045 -0.4013 -0.6890
   48CHL1    O3 3481   2.454   6.378   3.258  0.1118 -0.5461 -0.3259
   48CHL1   H3' 3482   2.487   6.291   3.234 -2.1977 -1.3913 -0.8017
   48CHL1    C4 3483   2.579   6.398   3.465 -0.1182 -0.0620  0.3876
   48CHL1   H4A 3484   2.639   6.311   3.429 -1.8311 -0.8211 -0.7437
   48CHL1   H4B 3485   2.642   6.483   3.432  1.2097 -1.0103  0.4092
   48CHL1    C5 3486   2.571   6.401   3.617 -0.3105 -0.2837  0.4814
   48CHL1    C6 3487   2.617   6.506   3.695 -0.5384  0.3560  0.4221
   48CHL1    H6 3488   2.664   6.596   3.653  0.4424 -0.3360  0.0156
   48CHL1    C7 3489   2.636   6.501   3.848  0.1313  0.7823 -0.7352
   48CHL1   H7A 3490   2.741   6.526   3.876  0.3290  1.4036 -1.9515
   48CHL1   H7B 3491   2.568   6.577   3.891 -2.0256 -1.1633 -0.4926
   48CHL1    C8 3492   2.598   6.361   3.911 -0.1536 -0.0806 -0.1108
   48CHL1    H8 3493   2.691   6.302   3.901  0.7592  1.3606 -0.4471
   48CHL1   C14 3494   2.559   6.383   4.057  0.0187  0.8989  0.2297
   48CHL1   H14 3495   2.462   6.439   4.056  0.8713  2.5741  2.6117
   48CHL1   C15 3496   2.644   6.462   4.155  0.1969  0.0355 -0.2757
   48CHL1  H15A 3497   2.753   6.453   4.135  0.3995 -1.2117  1.2120
   48CHL1  H15B 3498   2.627   6.572   4.151  1.5482  0.2467 -0.6261
   48CHL1   C16 3499   2.614   6.404   4.293 -0.2111  0.7756  0.3113
   48CHL1  H16A 3500   2.703   6.354   4.337 -1.4937 -1.8994  0.0616
   48CHL1  H16B 3501   2.586   6.479   4.370 -0.8470 -0.4170  1.2572
   48CHL1   C17 3502   2.498   6.296   4.271 -0.3799 -0.5984  0.6977
   48CHL1   H17 3503   2.414   6.369   4.267  1.1257  1.1757  0.4422
   48CHL1   C13 3504   2.516   6.248   4.128  0.0546  0.5227 -0.0866
   48CHL1   C18 3505   2.641   6.163   4.131 -0.0307  0.7480  0.7669
   48CHL1  H18A 3506   2.740   6.209   4.149  0.3257 -0.4013  1.8939
   48CHL1  H18B 3507   2.638   6.082   4.207 -0.3371  0.3818  0.3808
   48CHL1  H18C 3508   2.653   6.111   4.033  2.3069  2.1611  0.2316
   48CHL1   C12 3509   2.397   6.182   4.058  0.0247  0.3350 -0.5994
   48CHL1  H12A 3510   2.390   6.078   4.097 -2.1528 -0.8448 -3.6582
   48CHL1  H12B 3511   2.310   6.240   4.096 -1.4581 -2.9516  1.4728
   48CHL1   C11 3512   2.429   6.161   3.900 -0.0148 -0.3267 -0.9941
   48CHL1  H11A 3513   2.498   6.075   3.885  0.8716  0.3900 -1.1336
   48CHL1  H11B 3514   2.336   6.133   3.846 -0.2600 -1.4105 -0.0366
   48CHL1    C9 3515   2.486   6.291   3.834 -0.1220  0.3958  0.1931
   48CHL1    H9 3516   2.394   6.354   3.830 -1.0129 -0.8644  0.3516
   48CHL1   C10 3517   2.517   6.273   3.678 -0.1555 -0.6127 -0.0254
   48CHL1   C19 3518   2.605   6.153   3.639 -0.1012  0.4578 -0.1737
   48CHL1  H19A 3519   2.710   6.175   3.670 -0.0409  1.5124 -1.0871
   48CHL1  H19B 3520   2.580   6.061   3.697 -1.2471  1.4100  0.8813
   48CHL1  H19C 3521   2.601   6.128   3.531 -1.9484 -0.0597 -0.0174
   48CHL1    C1 3522   2.373   6.262   3.603  0.9100  0.2980  0.1328
   48CHL1   H1A 3523   2.316   6.168   3.622  0.9575  0.6160  1.9886
   48CHL1   H1B 3524   2.310   6.346   3.638  0.6613  0.2654 -0.2391
   48CHL1    C2 3525   2.371   6.258   3.448 -0.2708 -0.2190  0.3349
   48CHL1   H2A 3526   2.263   6.252   3.424  0.1601  1.7766 -2.5594
   48CHL1   H2B 3527   2.424   6.166   3.415 -4.6080 -2.5290 -0.8898
   48CHL1   C20 3528   2.471   6.204   4.378 -0.6860 -0.8855 -0.3928
   48CHL1   H20 3529   2.556   6.136   4.396  0.7604  1.2983  1.7470
   48CHL1   C21 3530   2.337   6.128   4.379  0.1823 -0.3356  0.0504
   48CHL1  H21A 3531   2.310   6.102   4.274 -0.2129  2.4710 -0.6062
   48CHL1  H21B 3532   2.254   6.191   4.415 -0.4754 -0.7524 -0.6889
   48CHL1  H21C 3533   2.339   6.041   4.448 -1.5347 -0.4405  0.0077
   48CHL1   C22 3534   2.475   6.278   4.520 -0.9254  0.0318 -0.0222
   48CHL1  H22A 3535   2.561   6.348   4.529  0.2904 -1.4313  0.0911
   48CHL1  H22B 3536   2.390   6.349   4.532  0.4393  2.1959 -2.1244
   48CHL1   C23 3537   2.492   6.179   4.641  0.3835 -0.2791  0.4383
   48CHL1  H23A 3538   2.405   6.111   4.640 -0.2062  0.3241  3.1927
   48CHL1  H23B 3539   2.575   6.108   4.623 -0.5348 -1.7711  1.9064
   48CHL1   C24 3540   2.495   6.255   4.769  0.6563  0.5746 -0.1101
   48CHL1  H24A 3541   2.587   6.318   4.766  0.8404  0.3558  0.7550
   48CHL1  H24B 3542   2.405   6.320   4.767  0.5330  0.4487 -2.5983
   48CHL1   C25 3543   2.511   6.151   4.892  0.4431 -0.2158 -0.1311
   48CHL1   H25 3544   2.498   6.228   4.970 -1.0897 -0.0807 -0.4876
   48CHL1   C26 3545   2.398   6.048   4.897  0.1873 -0.3933  0.1004
   48CHL1  H26A 3546   2.414   5.969   4.821 -0.2847 -1.2813  0.9084
   48CHL1  H26B 3547   2.386   6.002   4.997 -0.0619 -0.5966 -0.0220
   48CHL1  H26C 3548   2.299   6.095   4.877 -0.2249 -0.2734  2.2399
   48CHL1   C27 3549   2.649   6.087   4.901  0.3499 -0.5057 -0.3867
   48CHL1  H27A 3550   2.727   6.164   4.920 -1.4833  0.7929  2.4426
   48CHL1  H27B 3551   2.658   6.031   4.997 -0.5194  1.9589  1.2470
   48CHL1  H27C 3552   2.672   6.013   4.821  2.0756 -0.4834  0.0359
   49CHL1    C3 3553   3.020   2.238   3.721  0.5081 -0.1708  0.3147
   49CHL1    H3 3554   3.121   2.285   3.714  0.2689  1.0166  3.1869
   49CHL1    O3 3555   3.007   2.168   3.593 -0.2588 -0.3352 -0.1321
   49CHL1   H3' 3556   3.064   2.219   3.535 -1.0003 -1.3868 -1.8754
   49CHL1    C4 3557   3.019   2.130   3.842  0.3003  0.2109  0.1592
   49CHL1   H4A 3558   2.937   2.059   3.820 -0.2983  1.0877 -0.5386
   49CHL1   H4B 3559   3.102   2.060   3.817 -1.2983 -1.5609 -0.4270
   49CHL1    C5 3560   3.010   2.191   3.980  0.1886 -0.0046 -0.3054
   49CHL1    C6 3561   3.091   2.145   4.076  0.2429  0.7778 -0.1061
   49CHL1    H6 3562   3.147   2.050   4.065  0.8845  1.3027 -1.5883
   49CHL1    C7 3563   3.084   2.192   4.219  0.5417  0.2305  0.0189
   49CHL1   H7A 3564   3.088   2.105   4.288  0.8972  1.7902  2.0762
   49CHL1   H7B 3565   3.178   2.248   4.238 -0.0027  1.4766 -0.8394
   49CHL1    C8 3566   2.962   2.284   4.248 -0.2582  0.0082 -0.0425
   49CHL1    H8 3567   2.878   2.213   4.261 -0.9212  0.8952  0.6039
   49CHL1   C14 3568   2.992   2.351   4.383 -0.0142 -0.9531 -0.0202
   49CHL1   H14 3569   3.090   2.399   4.363 -1.6367  2.1630 -1.2042
   49CHL1   C15 3570   3.021   2.261   4.506  0.4774 -0.1111  0.1872
   49CHL1  H15A 3571   2.947   2.178   4.521  0.5525 -0.1406  0.3960
   49CHL1  H15B 3572   3.120   2.213   4.494  0.5686  0.3592 -0.9997
   49CHL1   C16 3573   3.003   2.355   4.624 -0.1250 -0.5095  0.2530
   49CHL1  H16A 3574   2.916   2.320   4.684  1.0703  0.0907  2.4255
   49CHL1  H16B 3575   3.079   2.353   4.705 -0.0342 -1.8562  0.1489
   49CHL1   C17 3576   2.954   2.497   4.569 -0.4076 -0.1414 -0.5011
   49CHL1   H17 3577   3.044   2.561   4.557 -2.5558  2.9220 -1.5832
   49CHL1   C13 3578   2.891   2.458   4.425 -0.5323 -0.2798  0.2155
   49CHL1   C18 3579   2.753   2.391   4.447 -0.1549  0.1014 -0.3269
   49CHL1  H18A 3580   2.747   2.327   4.538  1.2937  0.1093 -0.2165
   49CHL1  H18B 3581   2.677   2.472   4.459  0.7633  0.7067  1.9107
   49CHL1  H18C 3582   2.720   2.331   4.360 -0.2056 -0.3087 -0.0308
   49CHL1   C12 3583   2.896   2.572   4.316  0.9272  0.3023  0.2711
   49CHL1  H12A 3584   2.829   2.658   4.335  1.6894  1.1547 -0.8021
   49CHL1  H12B 3585   2.995   2.622   4.319  1.1891 -0.0949 -1.1383
   49CHL1   C11 3586   2.861   2.508   4.172 -0.2398 -0.5156  0.5934
   49CHL1  H11A 3587   2.750   2.499   4.167 -0.7697  2.9995  2.5174
   49CHL1  H11B 3588   2.872   2.584   4.092 -1.1755 -0.6226  0.3540
   49CHL1    C9 3589   2.939   2.384   4.138 -0.2309 -0.0498 -0.5396
   49CHL1    H9 3590   3.040   2.431   4.128  0.4077 -0.4775  2.7865
   49CHL1   C10 3591   2.905   2.318   3.999 -0.2189 -0.0679 -0.3462
   49CHL1   C19 3592   2.758   2.276   4.001  0.2921 -0.5042  0.0754
   49CHL1  H19A 3593   2.746   2.212   3.912  0.3698  2.6729 -2.4061
   49CHL1  H19B 3594   2.733   2.212   4.089 -1.2421 -1.4397 -0.9959
   49CHL1  H19C 3595   2.693   2.366   3.995  1.1910  0.1900  0.5075
   49CHL1    C1 3596   2.932   2.408   3.874 -0.6328  0.8937 -0.4407
   49CHL1   H1A 3597   2.851   2.483   3.889 -1.3642 -0.3094  2.2870
   49CHL1   H1B 3598   3.028   2.464   3.876  1.2439 -2.0242 -1.7413
   49CHL1    C2 3599   2.919   2.339   3.740 -0.0997 -0.8490 -0.1690
   49CHL1   H2A 3600   2.935   2.411   3.657  0.8357 -1.3804 -0.4587
   49CHL1   H2B 3601   2.819   2.297   3.714  0.8059 -1.5632 -2.8011
   49CHL1   C20 3602   2.859   2.574   4.668 -0.5083  0.0723 -0.0008
   49CHL1   H20 3603   2.775   2.503   4.682  0.8197 -2.6390 -3.9515
   49CHL1   C21 3604   2.818   2.704   4.596 -0.0966  0.5710 -0.3280
   49CHL1  H21A 3605   2.760   2.775   4.658 -1.3845 -0.9385  0.2926
   49CHL1  H21B 3606   2.746   2.669   4.518  0.0420 -0.2358 -0.1109
   49CHL1  H21C 3607   2.911   2.746   4.552  0.7595 -0.9767 -0.0952
   49CHL1   C22 3608   2.912   2.595   4.811 -0.8759 -0.7907  0.3066
   49CHL1  H22A 3609   2.967   2.505   4.845 -2.7725 -2.0554  0.1720
   49CHL1  H22B 3610   2.987   2.677   4.813 -0.4941 -1.1466  1.2136
   49CHL1   C23 3611   2.805   2.619   4.911 -0.2521 -0.0040  0.1235
   49CHL1  H23A 3612   2.744   2.704   4.872 -0.6263  0.0009  0.6954
   49CHL1  H23B 3613   2.736   2.532   4.913  0.9099 -0.9155  1.3476
   49CHL1   C24 3614   2.845   2.627   5.063  0.3447 -0.3116  0.4085
   49CHL1  H24A 3615   2.893   2.531   5.091 -1.8710 -2.3693 -2.2135
   49CHL1  H24B 3616   2.913   2.714   5.076 -0.1406  0.6200 -2.5278
   49CHL1   C25 3617   2.729   2.666   5.164 -0.4724 -0.2942  0.6620
   49CHL1   H25 3618   2.774   2.683   5.264 -0.7062 -1.0729  0.9007
   49CHL1   C26 3619   2.679   2.808   5.121  0.1752 -0.3169  0.3143
   49CHL1  H26A 3620   2.612   2.811   5.033 -0.1440 -1.6441  0.4872
   49CHL1  H26B 3621   2.625   2.854   5.206 -0.0422 -0.3106  0.1734
   49CHL1  H26C 3622   2.769   2.869   5.098 -0.9361  1.1351 -0.3568
   49CHL1   C27 3623   2.621   2.551   5.159 -0.2384 -0.3693  0.3318
   49CHL1  H27A 3624   2.654   2.459   5.211  1.7129  0.5936  0.9079
   49CHL1  H27B 3625   2.541   2.583   5.229  0.8964  0.5455  1.2478
   49CHL1  H27C 3626   2.591   2.518   5.057  1.3749 -0.4476 -0.1470
   50CHL1    C3 3627   1.079   1.705   3.444 -0.0052 -0.8487 -0.3645
   50CHL1    H3 3628   1.143   1.771   3.506  0.6561 -0.5369 -1.3562
   50CHL1    O3 3629   1.147   1.674   3.325 -0.2526  0.0554  0.4924
   50CHL1   H3' 3630   1.135   1.739   3.255 -0.9617 -0.5510  0.0349
   50CHL1    C4 3631   1.055   1.575   3.518  0.1434 -0.7043  0.3597
   50CHL1   H4A 3632   0.984   1.517   3.454 -0.1625  0.4703 -0.4139
   50CHL1   H4B 3633   1.156   1.533   3.533  0.6956  1.0499  1.8651
   50CHL1    C5 3634   0.983   1.602   3.650 -0.7540  0.3041  0.0749
   50CHL1    C6 3635   1.045   1.560   3.761 -0.5685  0.4881  0.2598
   50CHL1    H6 3636   1.142   1.512   3.744  0.2945  2.6301 -1.4189
   50CHL1    C7 3637   1.006   1.589   3.897  0.2969  0.3047  0.1635
   50CHL1   H7A 3638   1.034   1.504   3.964  1.7139  1.5270  1.1833
   50CHL1   H7B 3639   1.068   1.671   3.939  0.5238 -0.0037  0.4369
   50CHL1    C8 3640   0.860   1.633   3.899  0.0855  0.3367 -0.0990
   50CHL1    H8 3641   0.792   1.548   3.880 -0.7913  0.6815  1.2879
   50CHL1   C14 3642   0.830   1.672   4.046 -0.2396  0.2694  0.3152
   50CHL1   H14 3643   0.899   1.757   4.065 -0.2541 -0.0304  1.8472
   50CHL1   C15 3644   0.847   1.581   4.168 -0.4531  0.2773  0.2493
   50CHL1  H15A 3645   0.832   1.473   4.145  1.4286  0.0947 -0.2937
   50CHL1  H15B 3646   0.953   1.598   4.199 -1.3379  2.5533  2.2977
   50CHL1   C16 3647   0.758   1.642   4.280  0.2259 -0.4928  0.0866
   50CHL1  H16A 3648   0.685   1.568   4.318  0.4272 -0.7730 -0.0719
   50CHL1  H16B 3649   0.825   1.666   4.365 -0.1351 -0.4946  0.3756
   50CHL1   C17 3650   0.676   1.761   4.218 -0.1121  0.8531  0.1211
   50CHL1   H17 3651   0.736   1.850   4.246  1.9136 -0.1494 -0.8633
   50CHL1   C13 3652   0.690   1.734   4.066 -0.0788  0.7099  0.7750
   50CHL1   C18 3653   0.575   1.635   4.019  0.2663  0.0675  0.1091
   50CHL1  H18A 3654   0.576   1.597   3.915  0.1169  2.1080 -0.6777
   50CHL1  H18B 3655   0.574   1.539   4.076 -2.5733  0.9569  1.7459
   50CHL1  H18C 3656   0.476   1.685   4.025  0.6057  0.8365 -0.5484
   50CHL1   C12 3657   0.694   1.864   3.985  0.1888 -0.8675 -0.2423
   50CHL1  H12A 3658   0.599   1.922   3.986  0.6057 -0.1526 -0.7346
   50CHL1  H12B 3659   0.776   1.924   4.030 -1.7887  1.0380  0.9884
   50CHL1   C11 3660   0.724   1.838   3.834 -0.1491  0.5381 -0.5817
   50CHL1  H11A 3661   0.637   1.773   3.809 -1.0877  1.0356  1.2541
   50CHL1  H11B 3662   0.712   1.932   3.776 -0.1110  1.6424  1.1207
   50CHL1    C9 3663   0.850   1.754   3.806  0.2549  0.2042 -0.0443
   50CHL1    H9 3664   0.939   1.816   3.828  0.1927  0.1049  0.5070
   50CHL1   C10 3665   0.866   1.696   3.664  0.0690 -0.0645  0.7608
   50CHL1   C19 3666   0.746   1.614   3.616 -0.6235  0.2783 -0.3289
   50CHL1  H19A 3667   0.730   1.517   3.668  0.6517 -1.2529 -2.5910
   50CHL1  H19B 3668   0.656   1.679   3.612  0.0111  1.1312 -1.4063
   50CHL1  H19C 3669   0.765   1.580   3.512 -3.5824 -3.3478  0.1125
   50CHL1    C1 3670   0.894   1.814   3.568 -0.1042  0.6074  0.5356
   50CHL1   H1A 3671   0.805   1.879   3.554  0.7056  1.7259  0.4448
   50CHL1   H1B 3672   0.977   1.873   3.613 -0.8397  0.2809  2.3904
   50CHL1    C2 3673   0.950   1.783   3.422  0.6037 -0.1687  0.1091
   50CHL1   H2A 3674   0.971   1.874   3.363  0.7110 -1.9788 -2.8270
   50CHL1   H2B 3675   0.877   1.724   3.363 -0.2579  0.0280  0.9544
   50CHL1   C20 3676   0.539   1.784   4.287 -0.0897  0.3798 -0.4770
   50CHL1   H20 3677   0.475   1.696   4.263 -0.8261  1.6261 -3.5671
   50CHL1   C21 3678   0.474   1.901   4.209  0.3591  0.2105 -0.5589
   50CHL1  H21A 3679   0.385   1.934   4.267  0.0330 -0.8991 -0.3947
   50CHL1  H21B 3680   0.428   1.869   4.113 -1.1315  0.0178  0.1815
   50CHL1  H21C 3681   0.546   1.981   4.182  1.6716 -1.0393 -0.8552
   50CHL1   C22 3682   0.552   1.815   4.447 -0.3118 -0.0932  0.0321
   50CHL1  H22A 3683   0.449   1.814   4.489 -0.8657  0.5846 -1.2439
   50CHL1  H22B 3684   0.600   1.729   4.498 -0.1030  1.8662  3.4744
   50CHL1   C23 3685   0.617   1.950   4.478 -0.0081  0.0965 -1.1186
   50CHL1  H23A 3686   0.718   1.960   4.433  0.6908 -0.3946  0.3020
   50CHL1  H23B 3687   0.554   2.028   4.430  0.8220  1.6274  0.2069
   50CHL1   C24 3688   0.624   1.962   4.628 -0.4566  0.4783  0.0835
   50CHL1  H24A 3689   0.660   2.065   4.646  1.8792  0.4297 -3.4641
   50CHL1  H24B 3690   0.521   1.942   4.667 -0.7683 -0.6848 -1.2661
   50CHL1   C25 3691   0.732   1.879   4.701  0.6186 -0.4292 -0.5097
   50CHL1   H25 3692   0.721   1.772   4.671  1.5514 -0.8761  0.6542
   50CHL1   C26 3693   0.871   1.933   4.656  0.6293  0.0778 -0.1775
   50CHL1  H26A 3694   0.898   1.933   4.548  3.0503 -1.0231  0.3654
   50CHL1  H26B 3695   0.865   2.038   4.692  0.0705  0.6143 -1.7527
   50CHL1  H26C 3696   0.942   1.873   4.717 -0.1607  0.3050  0.9934
   50CHL1   C27 3697   0.720   1.890   4.855  0.0559  0.1117 -0.5717
   50CHL1  H27A 3698   0.729   1.997   4.883 -0.7704 -0.0195  0.2337
   50CHL1  H27B 3699   0.621   1.850   4.885  0.1981 -0.2716 -0.6131
   50CHL1  H27C 3700   0.797   1.825   4.900  0.9487  1.7297  0.3212
   51CHL1    C3 3701   3.384   1.685   3.687  0.7705  0.2629  0.3748
   51CHL1    H3 3702   3.382   1.580   3.722  2.9701  0.2896  0.7515
   51CHL1    O3 3703   3.356   1.686   3.547  0.5847  0.4313 -0.3681
   51CHL1   H3' 3704   3.432   1.650   3.502  0.5742 -0.6238  0.4249
   51CHL1    C4 3705   3.286   1.777   3.763  0.9036  0.5634  0.0946
   51CHL1   H4A 3706   3.282   1.878   3.717 -0.5335  2.0288  3.1831
   51CHL1   H4B 3707   3.183   1.742   3.743  0.6583  0.8165  0.9034
   51CHL1    C5 3708   3.322   1.808   3.907 -0.8112  1.2903  0.3619
   51CHL1    C6 3709   3.243   1.773   4.005  0.5056  0.1164  0.0475
   51CHL1    H6 3710   3.144   1.736   3.976  0.0409 -0.6121  2.3565
   51CHL1    C7 3711   3.267   1.811   4.148  0.0557 -0.0570  0.4886
   51CHL1   H7A 3712   3.176   1.842   4.204 -0.9564 -1.5919 -0.2310
   51CHL1   H7B 3713   3.277   1.717   4.206 -1.5289 -0.2726  0.4654
   51CHL1    C8 3714   3.380   1.905   4.171 -0.0961  0.4117  0.1582
   51CHL1    H8 3715   3.362   2.007   4.132 -1.2823 -0.0180 -0.4669
   51CHL1   C14 3716   3.418   1.901   4.319 -0.3573  0.5770  0.0647
   51CHL1   H14 3717   3.451   1.797   4.338 -0.7289  0.7782  1.9938
   51CHL1   C15 3718   3.301   1.921   4.424  0.2011  0.3385  0.2252
   51CHL1  H15A 3719   3.255   2.015   4.388 -1.2266 -0.8804 -1.2504
   51CHL1  H15B 3720   3.236   1.831   4.419 -1.9154  1.6441  2.3966
   51CHL1   C16 3721   3.381   1.929   4.550  0.6063  0.3513 -0.2719
   51CHL1  H16A 3722   3.341   2.012   4.611  0.9385  0.2170  0.1384
   51CHL1  H16B 3723   3.378   1.832   4.604  0.1315  0.2000 -0.5734
   51CHL1   C17 3724   3.535   1.945   4.519  0.4036 -1.1357  0.0800
   51CHL1   H17 3725   3.572   1.840   4.525  0.3198 -1.1848 -0.2333
   51CHL1   C13 3726   3.536   1.979   4.365 -0.3534 -0.3851 -0.0814
   51CHL1   C18 3727   3.503   2.127   4.346 -0.2448 -0.3471  0.3368
   51CHL1  H18A 3728   3.581   2.189   4.394 -1.8301  0.3054  2.2020
   51CHL1  H18B 3729   3.496   2.149   4.238  0.4302 -1.2041  0.1072
   51CHL1  H18C 3730   3.406   2.151   4.396 -0.4459 -0.9888  0.2604
   51CHL1   C12 3731   3.659   1.925   4.287 -0.0280  0.1407  0.2560
   51CHL1  H12A 3732   3.750   1.978   4.322  0.3634 -1.0359  1.0800
   51CHL1  H12B 3733   3.663   1.815   4.305  1.8422 -0.0181 -0.9290
   51CHL1   C11 3734   3.632   1.945   4.132  0.2741  0.0976 -0.2107
   51CHL1  H11A 3735   3.626   2.055   4.115  1.8539  0.5041  1.4719
   51CHL1  H11B 3736   3.723   1.898   4.089  0.3912  1.5974 -1.7134
   51CHL1    C9 3737   3.502   1.868   4.088 -0.4531 -0.2481  0.1104
   51CHL1    H9 3738   3.529   1.762   4.109  2.2758 -0.1200 -2.0930
   51CHL1   C10 3739   3.459   1.869   3.937  0.0097  0.5778  0.4877
   51CHL1   C19 3740   3.463   2.018   3.881 -0.0445  0.7705  0.5116
   51CHL1  H19A 3741   3.560   2.066   3.903  0.5867 -0.2876  0.1049
   51CHL1  H19B 3742   3.461   2.003   3.771 -1.4316 -0.8302  0.7072
   51CHL1  H19C 3743   3.373   2.074   3.914 -0.4179  0.7974 -0.5410
   51CHL1    C1 3744   3.562   1.777   3.856 -0.5966 -0.0983 -0.7511
   51CHL1   H1A 3745   3.662   1.825   3.862 -0.4432 -0.3422 -1.2800
   51CHL1   H1B 3746   3.565   1.680   3.909  1.8246  0.4672  0.3024
   51CHL1    C2 3747   3.518   1.744   3.713 -0.4299 -0.4502  0.1354
   51CHL1   H2A 3748   3.590   1.676   3.663  1.1013  0.9626  0.3527
   51CHL1   H2B 3749   3.520   1.843   3.663  1.8333 -1.3146 -1.6706
   51CHL1   C20 3750   3.622   2.025   4.616  0.8504 -0.3711  0.3250
   51CHL1   H20 3751   3.630   2.132   4.587  2.4022 -0.5798 -0.1259
   51CHL1   C21 3752   3.762   1.953   4.614 -0.4872  0.1619 -0.1336
   51CHL1  H21A 3753   3.832   2.017   4.672 -0.3207  0.4411 -0.6425
   51CHL1  H21B 3754   3.802   1.919   4.517 -0.0338 -0.3765  0.2366
   51CHL1  H21C 3755   3.748   1.856   4.667  0.4233 -1.7999 -3.2460
   51CHL1   C22 3756   3.565   2.044   4.755 -0.7278  0.3088 -0.9349
   51CHL1  H22A 3757   3.471   2.103   4.753 -1.4688 -0.8283 -2.8320
   51CHL1  H22B 3758   3.531   1.950   4.805 -2.1335  1.4272  0.3159
   51CHL1   C23 3759   3.656   2.114   4.861 -0.4252 -0.0342 -0.0295
   51CHL1  H23A 3760   3.750   2.054   4.860  0.5620  1.4456  0.6670
   51CHL1  H23B 3761   3.674   2.220   4.835 -0.2964 -0.0325  0.0648
   51CHL1   C24 3762   3.592   2.093   5.001 -0.3676  0.0314 -0.0222
   51CHL1  H24A 3763   3.492   2.141   4.995  0.7888  2.6055  0.0210
   51CHL1  H24B 3764   3.588   1.983   5.013 -1.1666  0.0937  0.3371
   51CHL1   C25 3765   3.681   2.161   5.117  0.0712  0.5617  0.0343
   51CHL1   H25 3766   3.773   2.103   5.137  0.7826  1.2589 -1.1103
   51CHL1   C26 3767   3.722   2.308   5.094 -0.9575 -0.4844 -0.2994
   51CHL1  H26A 3768   3.784   2.345   5.178 -3.8731  0.6786  1.4719
   51CHL1  H26B 3769   3.784   2.319   5.002  0.9403  1.1926  1.1060
   51CHL1  H26C 3770   3.631   2.371   5.085 -1.1622 -1.0053 -2.6006
   51CHL1   C27 3771   3.598   2.155   5.251  0.1449  0.5589  0.5331
   51CHL1  H27A 3772   3.508   2.218   5.266  1.2248  1.6854  2.6941
   51CHL1  H27B 3773   3.583   2.048   5.279  3.3405 -0.0013  0.4374
   51CHL1  H27C 3774   3.663   2.184   5.335 -0.1002 -0.0444  0.9433
   52CHL1    C3 3775   2.242   3.848   3.424 -0.1013 -0.0630 -0.0190
   52CHL1    H3 3776   2.336   3.811   3.468  0.8106  3.1896  1.0765
   52CHL1    O3 3777   2.238   3.832   3.282  0.8644  0.6159 -0.4071
   52CHL1   H3' 3778   2.168   3.890   3.252 -0.3220 -0.2653  0.5804
   52CHL1    C4 3779   2.117   3.771   3.487 -1.3827 -0.4847 -0.1949
   52CHL1   H4A 3780   2.034   3.834   3.448 -0.4867  0.0409 -1.3110
   52CHL1   H4B 3781   2.106   3.670   3.441  1.5402 -0.0616 -2.0659
   52CHL1    C5 3782   2.124   3.766   3.637  0.2474 -0.7223  0.4577
   52CHL1    C6 3783   2.130   3.651   3.702 -0.7436 -0.1180 -0.0023
   52CHL1    H6 3784   2.124   3.557   3.646  0.4274  0.1884 -0.6732
   52CHL1    C7 3785   2.129   3.651   3.851 -0.8219  0.2013 -0.2127
   52CHL1   H7A 3786   2.053   3.579   3.890 -0.3597 -0.2147 -0.0786
   52CHL1   H7B 3787   2.226   3.606   3.880 -1.7757 -1.6795  0.1952
   52CHL1    C8 3788   2.115   3.781   3.927 -0.0706  0.1624 -0.5645
   52CHL1    H8 3789   2.006   3.799   3.940  0.5888  3.4736  1.4214
   52CHL1   C14 3790   2.172   3.785   4.072 -0.3365 -0.4097  0.2496
   52CHL1   H14 3791   2.282   3.779   4.055 -0.5520 -0.1608 -1.3349
   52CHL1   C15 3792   2.137   3.669   4.175  0.2578  0.0919  0.7417
   52CHL1  H15A 3793   2.032   3.633   4.169  0.2353  0.4269 -2.5843
   52CHL1  H15B 3794   2.206   3.586   4.151  0.1657 -0.0675  1.0302
   52CHL1   C16 3795   2.171   3.739   4.310 -0.0271  0.3372  0.2035
   52CHL1  H16A 3796   2.075   3.750   4.365  0.9908  1.3458  1.8806
   52CHL1  H16B 3797   2.236   3.672   4.369  0.4759 -1.2288 -2.0155
   52CHL1   C17 3798   2.226   3.880   4.273  0.6510  0.3713 -0.1676
   52CHL1   H17 3799   2.335   3.865   4.254  0.9512  0.5854  1.2841
   52CHL1   C13 3800   2.152   3.918   4.142 -0.8019  0.3851 -0.7840
   52CHL1   C18 3801   2.005   3.949   4.163 -0.0546  0.2805 -0.4399
   52CHL1  H18A 3802   1.947   3.863   4.204  0.3316  0.9185  1.5990
   52CHL1  H18B 3803   1.994   4.033   4.236  1.4994 -0.9331  1.2584
   52CHL1  H18C 3804   1.944   3.986   4.078 -2.2647  0.6666  1.1934
   52CHL1   C12 3805   2.214   4.032   4.067  0.2643 -0.9834  0.4131
   52CHL1  H12A 3806   2.197   4.125   4.126 -0.2642 -1.5467  1.1606
   52CHL1  H12B 3807   2.321   4.005   4.068  0.4849 -0.1736  0.0636
   52CHL1   C11 3808   2.158   4.034   3.923 -0.1209 -0.5074 -0.5786
   52CHL1  H11A 3809   2.052   4.066   3.929  0.2459  0.9318 -1.3974
   52CHL1  H11B 3810   2.220   4.113   3.875  0.0474 -0.4915 -0.3412
   52CHL1    C9 3811   2.176   3.903   3.847  0.1072  0.3564 -1.2827
   52CHL1    H9 3812   2.286   3.889   3.842  0.2510  0.5667  0.6759
   52CHL1   C10 3813   2.128   3.909   3.700 -0.5796  0.3528  0.5323
   52CHL1   C19 3814   1.977   3.962   3.703 -0.1435  0.9290  0.3804
   52CHL1  H19A 3815   1.917   3.896   3.769  1.1679  0.6099  1.2804
   52CHL1  H19B 3816   1.972   4.065   3.744  0.1032  0.1890  2.3644
   52CHL1  H19C 3817   1.928   3.964   3.603 -0.6823  0.5231  0.6350
   52CHL1    C1 3818   2.235   4.001   3.618 -0.2602 -0.3536  0.3008
   52CHL1   H1A 3819   2.234   4.106   3.656  0.1815 -1.0687  2.4331
   52CHL1   H1B 3820   2.329   3.965   3.665  1.4498  2.5382 -0.6717
   52CHL1    C2 3821   2.229   4.001   3.461 -0.0573 -0.0555 -0.1371
   52CHL1   H2A 3822   2.313   4.060   3.419 -0.2498  0.4444  0.1754
   52CHL1   H2B 3823   2.130   4.036   3.426 -0.6700 -1.7060 -0.1480
   52CHL1   C20 3824   2.235   3.976   4.396 -0.5913 -0.3767 -0.6073
   52CHL1   H20 3825   2.148   4.045   4.397 -0.0924  0.2699 -0.7731
   52CHL1   C21 3826   2.356   4.070   4.376  0.0108  0.3830  0.1583
   52CHL1  H21A 3827   2.340   4.167   4.428 -1.5600  1.2211 -1.7626
   52CHL1  H21B 3828   2.377   4.093   4.269 -0.7634  0.9660  0.1243
   52CHL1  H21C 3829   2.442   4.013   4.417  0.0617 -1.7755 -2.6459
   52CHL1   C22 3830   2.227   3.906   4.532  0.3684  0.0245  0.2709
   52CHL1  H22A 3831   2.122   3.889   4.561  0.0005  2.9332  0.9381
   52CHL1  H22B 3832   2.280   3.807   4.533 -0.7646 -0.5980 -0.0647
   52CHL1   C23 3833   2.279   3.988   4.646 -0.7263 -0.0383 -0.1168
   52CHL1  H23A 3834   2.387   3.998   4.623 -1.3563 -0.3777 -3.6893
   52CHL1  H23B 3835   2.229   4.087   4.647 -0.2426  0.2069  0.0070
   52CHL1   C24 3836   2.250   3.916   4.775  0.9111  0.2287 -0.4969
   52CHL1  H24A 3837   2.143   3.886   4.773  0.9572  0.0901 -2.9666
   52CHL1  H24B 3838   2.321   3.831   4.779  1.7124  0.8281 -1.5154
   52CHL1   C25 3839   2.266   3.995   4.911 -0.1507 -0.3506 -0.2610
   52CHL1   H25 3840   2.237   3.917   4.986 -1.4318 -1.6553 -2.0143
   52CHL1   C26 3841   2.414   4.037   4.932 -0.2178  0.2272 -0.0397
   52CHL1  H26A 3842   2.476   3.953   4.894 -1.2997  0.0390 -1.4756
   52CHL1  H26B 3843   2.443   4.132   4.881  1.9846  0.1359  0.9083
   52CHL1  H26C 3844   2.436   4.043   5.041  0.6186 -1.3859 -0.0845
   52CHL1   C27 3845   2.167   4.110   4.928 -0.0434  0.4217  0.2041
   52CHL1  H27A 3846   2.176   4.150   5.032 -0.7391  3.2702 -0.7306
   52CHL1  H27B 3847   2.184   4.191   4.854  1.3955 -0.6159 -0.6543
   52CHL1  H27C 3848   2.066   4.064   4.921 -0.5362  1.5622 -0.3818
   53CHL1    C3 3849   3.818   2.214   3.751 -0.3429  0.3952  0.5804
   53CHL1    H3 3850   3.739   2.139   3.775 -0.7211 -0.1174 -1.9752
   53CHL1    O3 3851   3.797   2.260   3.619  0.0159 -0.6966 -0.2439
   53CHL1   H3' 3852   3.823   2.191   3.557  2.2243  1.8211 -2.3723
   53CHL1    C4 3853   3.799   2.332   3.855 -0.3702 -0.2936 -0.2232
   53CHL1   H4A 3854   3.870   2.415   3.834  0.6534  0.0378  3.7058
   53CHL1   H4B 3855   3.694   2.367   3.850  0.5432  2.6572 -0.9726
   53CHL1    C5 3856   3.833   2.292   3.994 -0.0554 -0.0682  0.3555
   53CHL1    C6 3857   3.741   2.312   4.101 -0.9025 -0.4412  0.1063
   53CHL1    H6 3858   3.641   2.357   4.094  0.4438  2.6388 -1.1641
   53CHL1    C7 3859   3.776   2.285   4.244 -0.3556 -0.1302 -0.5294
   53CHL1   H7A 3860   3.724   2.360   4.307  1.2366  0.9983 -0.4926
   53CHL1   H7B 3861   3.754   2.184   4.285  3.5596 -0.9031  0.0258
   53CHL1    C8 3862   3.930   2.277   4.271 -0.4116 -1.0329  0.1728
   53CHL1    H8 3863   3.969   2.376   4.239  2.4785 -3.1529 -3.6993
   53CHL1   C14 3864   3.956   2.232   4.410  1.1258 -0.7721  0.4487
   53CHL1   H14 3865   3.904   2.136   4.427 -1.7838  1.0142  2.5237
   53CHL1   C15 3866   3.898   2.312   4.528 -0.1273  0.1023 -0.1687
   53CHL1  H15A 3867   3.923   2.418   4.504 -1.6532  0.5559  0.1737
   53CHL1  H15B 3868   3.790   2.297   4.547  0.1145 -1.8127 -0.1001
   53CHL1   C16 3869   3.994   2.283   4.649  0.1578  0.0077  0.3797
   53CHL1  H16A 3870   4.049   2.375   4.678 -1.7977  1.0275  1.0897
   53CHL1  H16B 3871   3.944   2.250   4.743  1.5305  0.8833  1.4594
   53CHL1   C17 3872   4.092   2.178   4.596 -0.0638  0.3469  0.1195
   53CHL1   H17 3873   4.040   2.080   4.600  0.2880  0.0947 -0.9129
   53CHL1   C13 3874   4.103   2.210   4.442 -0.1153  0.4103  0.7444
   53CHL1   C18 3875   4.191   2.339   4.415 -0.0754 -0.0374  0.3624
   53CHL1  H18A 3876   4.292   2.321   4.457  0.7889  3.7613  0.2546
   53CHL1  H18B 3877   4.186   2.363   4.307 -0.6133 -0.9275  0.1765
   53CHL1  H18C 3878   4.153   2.423   4.476 -1.2594  1.0986 -1.8267
   53CHL1   C12 3879   4.144   2.091   4.349  0.1956 -1.1473  0.8073
   53CHL1  H12A 3880   4.244   2.046   4.365 -0.5215 -2.9134  0.4986
   53CHL1  H12B 3881   4.070   2.011   4.373 -0.6531 -1.1869 -1.6376
   53CHL1   C11 3882   4.138   2.128   4.200  0.6215  0.3425  0.9117
   53CHL1  H11A 3883   4.217   2.199   4.170  1.8755 -0.3513  2.4451
   53CHL1  H11B 3884   4.156   2.041   4.133  2.2275  0.7931  0.7382
   53CHL1    C9 3885   3.992   2.182   4.162 -0.3124  0.0398 -0.1536
   53CHL1    H9 3886   3.932   2.088   4.170 -0.6534  0.3223  0.6711
   53CHL1   C10 3887   3.979   2.233   4.014  0.4151  0.6920  0.5493
   53CHL1   C19 3888   4.093   2.336   3.975  0.3827  0.0102  0.2798
   53CHL1  H19A 3889   4.193   2.287   3.984  0.3386  0.1970  2.2523
   53CHL1  H19B 3890   4.091   2.360   3.867  1.5554  0.3508  0.3103
   53CHL1  H19C 3891   4.089   2.424   4.043  1.8018 -0.0237  0.4438
   53CHL1    C1 3892   3.989   2.115   3.914 -0.2045 -0.2376 -0.1571
   53CHL1   H1A 3893   4.096   2.086   3.922  0.2392 -0.3556 -4.2519
   53CHL1   H1B 3894   3.919   2.034   3.944  1.4576 -1.1542  1.4536
   53CHL1    C2 3895   3.959   2.154   3.766 -0.3724 -0.7173  0.4981
   53CHL1   H2A 3896   3.957   2.061   3.705 -1.6052 -1.0711  1.0368
   53CHL1   H2B 3897   4.038   2.223   3.730  1.2649 -0.9321  3.3545
   53CHL1   C20 3898   4.219   2.181   4.678 -0.1659 -0.7577 -0.7764
   53CHL1   H20 3899   4.260   2.284   4.680 -2.1694  0.1127  2.1239
   53CHL1   C21 3900   4.324   2.080   4.621 -0.0864  0.3916 -0.0627
   53CHL1  H21A 3901   4.384   2.040   4.706  1.5694  0.1779 -1.2863
   53CHL1  H21B 3902   4.398   2.132   4.557 -1.0124 -0.0185 -1.5088
   53CHL1  H21C 3903   4.283   1.997   4.561 -1.9668 -0.3391  2.0876
   53CHL1   C22 3904   4.199   2.154   4.830 -0.0314  0.4680  0.4716
   53CHL1  H22A 3905   4.109   2.213   4.855  0.4468  1.4583 -0.0686
   53CHL1  H22B 3906   4.167   2.049   4.844 -1.3646  0.6757 -0.7463
   53CHL1   C23 3907   4.317   2.184   4.931  0.0895 -0.1219  0.9143
   53CHL1  H23A 3908   4.413   2.137   4.901  0.1169  0.9199 -0.7978
   53CHL1  H23B 3909   4.336   2.294   4.926  0.0459 -0.0528  1.9680
   53CHL1   C24 3910   4.273   2.141   5.070 -0.1662  0.2705 -1.0797
   53CHL1  H24A 3911   4.163   2.150   5.083 -0.3418 -0.5960 -1.8395
   53CHL1  H24B 3912   4.297   2.033   5.083  0.2566  0.4523 -0.2508
   53CHL1   C25 3913   4.336   2.216   5.186 -0.3685 -0.0114 -0.5935
   53CHL1   H25 3914   4.314   2.160   5.280  1.9747  2.6497  1.7270
   53CHL1   C26 3915   4.492   2.213   5.181  0.0283 -0.0296 -0.4046
   53CHL1  H26A 3916   4.531   2.268   5.093  0.9469 -0.4855 -0.2939
   53CHL1  H26B 3917   4.525   2.268   5.271  1.0702 -1.1246 -0.0939
   53CHL1  H26C 3918   4.529   2.109   5.189  1.4454  0.5156  0.4565
   53CHL1   C27 3919   4.283   2.360   5.199  0.5955  0.1054 -0.0465
   53CHL1  H27A 3920   4.317   2.398   5.298  1.8103  2.1265 -1.1610
   53CHL1  H27B 3921   4.330   2.428   5.124  3.2768  1.1704  2.4016
   53CHL1  H27C 3922   4.173   2.351   5.201  0.5178  0.0774  4.5008
   54CHL1    C3 3923   4.063   1.648   3.624  0.4517  0.2248  0.0680
   54CHL1    H3 3924   4.161   1.605   3.594  0.7609  0.6245  0.4920
   54CHL1    O3 3925   3.988   1.668   3.505  0.0090  0.1170  0.3892
   54CHL1   H3' 3926   4.046   1.724   3.454 -0.6162 -0.2869 -0.7917
   54CHL1    C4 3927   3.985   1.554   3.715 -0.2217  0.1762  0.0357
   54CHL1   H4A 3928   3.883   1.598   3.720  0.5032  1.8175  2.8103
   54CHL1   H4B 3929   3.980   1.454   3.667  0.3384 -0.9674  2.2403
   54CHL1    C5 3930   4.044   1.541   3.851  0.7463  0.3725  0.6478
   54CHL1    C6 3931   4.076   1.418   3.898 -0.1430  0.7856 -0.0905
   54CHL1    H6 3932   4.052   1.327   3.840  0.3324 -0.7017  1.9235
   54CHL1    C7 3933   4.113   1.398   4.045  0.0744  0.1866  0.3273
   54CHL1   H7A 3934   4.055   1.312   4.084  0.9360 -0.4803  0.1675
   54CHL1   H7B 3935   4.219   1.363   4.042 -0.3401 -1.0506 -1.9493
   54CHL1    C8 3936   4.095   1.529   4.128  0.2076 -0.6780  0.5800
   54CHL1    H8 3937   3.985   1.538   4.141  0.1832  3.1300 -1.1402
   54CHL1   C14 3938   4.158   1.510   4.265 -0.1720 -0.1312  0.2291
   54CHL1   H14 3939   4.267   1.494   4.254 -0.5020 -3.1810  0.5721
   54CHL1   C15 3940   4.120   1.386   4.350  0.1981  0.1001 -0.1102
   54CHL1  H15A 3941   4.011   1.367   4.343  0.2725 -1.0191  1.1841
   54CHL1  H15B 3942   4.185   1.302   4.318  0.0677 -0.1082  0.1683
   54CHL1   C16 3943   4.142   1.437   4.495 -0.0294  0.5147 -0.4221
   54CHL1  H16A 3944   4.048   1.434   4.555  1.0189  2.1892  1.4459
   54CHL1  H16B 3945   4.214   1.365   4.540  0.6707 -0.4489 -2.9486
   54CHL1   C17 3946   4.203   1.585   4.484  0.2473  0.6344  0.6904
   54CHL1   H17 3947   4.309   1.568   4.455  0.5067  1.1628  1.3031
   54CHL1   C13 3948   4.151   1.633   4.350  0.0674  0.3568  0.2710
   54CHL1   C18 3949   4.006   1.679   4.378 -0.0503 -0.2177  1.0527
   54CHL1  H18A 3950   4.002   1.779   4.426  0.6077 -0.0751  0.8266
   54CHL1  H18B 3951   3.955   1.705   4.283  0.6757  1.7947  1.1684
   54CHL1  H18C 3952   3.954   1.595   4.427 -1.0983 -1.2195 -1.5685
   54CHL1   C12 3953   4.233   1.741   4.277  0.0003 -0.5479 -0.0745
   54CHL1  H12A 3954   4.223   1.827   4.346  2.2165 -0.2540 -0.0295
   54CHL1  H12B 3955   4.340   1.711   4.266  0.9808  3.1581 -2.0622
   54CHL1   C11 3956   4.175   1.773   4.135 -0.0253 -0.5440  0.0725
   54CHL1  H11A 3957   4.080   1.826   4.154 -0.3002 -0.6453 -0.9436
   54CHL1  H11B 3958   4.245   1.842   4.083  0.2983 -0.3904  0.7013
   54CHL1    C9 3959   4.150   1.648   4.053  0.1269 -0.5710  0.0720
   54CHL1    H9 3960   4.250   1.611   4.019  0.3354 -0.1546  0.2228
   54CHL1   C10 3961   4.071   1.679   3.921 -0.2987 -0.4082  0.7006
   54CHL1   C19 3962   3.936   1.755   3.954  0.5993 -0.3539  0.0147
   54CHL1  H19A 3963   3.869   1.766   3.866 -1.4751  0.1572  1.5904
   54CHL1  H19B 3964   3.876   1.693   4.023  0.2574  0.9200  0.8901
   54CHL1  H19C 3965   3.945   1.855   4.001 -1.4053 -0.1885  0.1358
   54CHL1    C1 3966   4.161   1.777   3.823 -0.0732 -0.1625 -0.0959
   54CHL1   H1A 3967   4.178   1.880   3.861  0.1212  0.3966 -1.6477
   54CHL1   H1B 3968   4.258   1.722   3.823  1.4578  1.9830  4.3620
   54CHL1    C2 3969   4.088   1.782   3.691  0.1207  0.7426  0.7188
   54CHL1   H2A 3970   4.149   1.837   3.615  1.0931 -0.0225  0.9302
   54CHL1   H2B 3971   3.999   1.849   3.682  0.4605  1.3523  1.7560
   54CHL1   C20 3972   4.187   1.687   4.601 -0.7669 -0.0582 -0.8767
   54CHL1   H20 3973   4.142   1.779   4.558 -1.3132 -0.0389 -0.2838
   54CHL1   C21 3974   4.330   1.711   4.645 -0.3640 -0.0856 -0.0688
   54CHL1  H21A 3975   4.384   1.616   4.668  0.8326  0.1265 -1.8441
   54CHL1  H21B 3976   4.351   1.772   4.735 -3.2285 -0.2824  0.8555
   54CHL1  H21C 3977   4.381   1.752   4.556 -0.3861 -0.5575 -0.3033
   54CHL1   C22 3978   4.100   1.648   4.726  0.4807 -1.3123  0.2070
   54CHL1  H22A 3979   3.995   1.631   4.694  0.6478  1.1622 -1.9606
   54CHL1  H22B 3980   4.148   1.556   4.767  1.6334 -0.1383  1.6243
   54CHL1   C23 3981   4.101   1.754   4.831 -0.5435 -0.0575 -0.1290
   54CHL1  H23A 3982   4.205   1.749   4.872 -0.1820  0.2645 -0.9921
   54CHL1  H23B 3983   4.080   1.852   4.784  1.6598  0.3925 -0.2913
   54CHL1   C24 3984   4.013   1.715   4.950 -0.1707  0.3911  0.3997
   54CHL1  H24A 3985   3.906   1.710   4.919  0.0542  1.1444 -0.5420
   54CHL1  H24B 3986   4.038   1.609   4.973  0.5192 -0.4936 -3.6817
   54CHL1   C25 3987   4.031   1.806   5.072 -0.4727  0.6811  0.1323
   54CHL1   H25 3988   4.035   1.911   5.036  1.5154  0.2707 -0.9968
   54CHL1   C26 3989   3.905   1.794   5.161  0.5012  0.1134 -0.6771
   54CHL1  H26A 3990   3.815   1.828   5.106  0.3073  3.4269  1.3764
   54CHL1  H26B 3991   3.879   1.693   5.198 -2.7323  1.4012  0.9630
   54CHL1  H26C 3992   3.916   1.859   5.251 -0.5900 -0.6353  0.0138
   54CHL1   C27 3993   4.162   1.772   5.147 -0.9051 -0.3963 -0.2529
   54CHL1  H27A 3994   4.187   1.667   5.175 -0.0734 -0.0528  0.3462
   54CHL1  H27B 3995   4.252   1.809   5.093  0.3500 -0.4841  1.6773
   54CHL1  H27C 3996   4.168   1.832   5.240 -1.2075  1.1532 -1.2043
   55CHL1    C3 3997   0.773   2.756   3.199 -0.1917 -0.1301  0.1917
   55CHL1    H3 3998   0.667   2.779   3.176 -0.0545 -0.1830 -0.5096
   55CHL1    O3 3999   0.844   2.748   3.080 -0.8461  0.4181  0.0757
   55CHL1   H3' 4000   0.879   2.836   3.072  1.4842 -0.5282 -0.9864
   55CHL1    C4 4001   0.847   2.864   3.289  0.4017  0.3345  0.5507
   55CHL1   H4A 4002   0.955   2.838   3.288  0.0065 -1.6681 -1.7386
   55CHL1   H4B 4003   0.841   2.962   3.237  3.4188  0.8197  0.9930
   55CHL1    C5 4004   0.804   2.874   3.431  0.4618 -0.0013 -0.9065
   55CHL1    C6 4005   0.763   2.986   3.484  0.7017  0.0737 -0.4713
   55CHL1    H6 4006   0.739   3.075   3.424 -0.3157  1.7292  2.2054
   55CHL1    C7 4007   0.748   3.017   3.632 -0.0300 -0.0719 -0.2185
   55CHL1   H7A 4008   0.808   3.108   3.654  1.2623 -1.2570  1.4054
   55CHL1   H7B 4009   0.641   3.036   3.655  0.4258  0.3345  1.7865
   55CHL1    C8 4010   0.783   2.886   3.718 -0.6703 -0.3092  0.6574
   55CHL1    H8 4011   0.892   2.899   3.735 -0.4770  1.5243 -1.4634
   55CHL1   C14 4012   0.715   2.883   3.850  1.0170 -0.0960  0.0979
   55CHL1   H14 4013   0.609   2.867   3.823  1.4932  0.2219 -2.1307
   55CHL1   C15 4014   0.704   3.016   3.924 -0.1660 -0.7117 -0.3406
   55CHL1  H15A 4015   0.798   3.074   3.911 -0.0583 -0.8467 -0.1809
   55CHL1  H15B 4016   0.619   3.083   3.902 -1.1690 -1.3889  1.2349
   55CHL1   C16 4017   0.679   2.977   4.071 -0.5330  0.0449  0.2554
   55CHL1  H16A 4018   0.757   3.039   4.120  0.7851 -0.4635 -1.1142
   55CHL1  H16B 4019   0.577   3.000   4.110 -0.3088  0.7766  0.4315
   55CHL1   C17 4020   0.694   2.821   4.080 -0.2163  0.4355  0.3878
   55CHL1   H17 4021   0.596   2.770   4.066 -1.1361  1.2787  3.1089
   55CHL1   C13 4022   0.773   2.784   3.951  0.4879  0.3655  0.4338
   55CHL1   C18 4023   0.924   2.796   3.978  0.4805  0.7153 -0.2791
   55CHL1  H18A 4024   0.950   2.902   3.999 -0.2503  0.2347  4.0312
   55CHL1  H18B 4025   0.944   2.732   4.067  0.8210  0.2821 -0.6643
   55CHL1  H18C 4026   0.985   2.759   3.893  1.5795 -1.6135  1.4062
   55CHL1   C12 4027   0.747   2.641   3.884  0.3714 -0.5048 -0.1227
   55CHL1  H12A 4028   0.800   2.565   3.946  4.5296  0.3511 -2.2456
   55CHL1  H12B 4029   0.638   2.625   3.881  0.0495  1.6020 -0.9705
   55CHL1   C11 4030   0.804   2.629   3.739  0.2135 -0.2396 -0.2297
   55CHL1  H11A 4031   0.914   2.611   3.741  0.3616  0.6499 -0.2983
   55CHL1  H11B 4032   0.768   2.535   3.692  1.6624 -0.5116 -0.8615
   55CHL1    C9 4033   0.767   2.750   3.644 -0.5924 -0.2922 -0.2693
   55CHL1    H9 4034   0.659   2.745   3.621 -0.4762 -1.2407 -0.6544
   55CHL1   C10 4035   0.822   2.739   3.495  0.8230 -1.4545 -0.4042
   55CHL1   C19 4036   0.976   2.700   3.503  0.3787 -0.8016  0.2882
   55CHL1  H19A 4037   0.999   2.608   3.561 -1.0619  0.0715  2.3399
   55CHL1  H19B 4038   1.032   2.684   3.408  0.6111 -2.1389  0.6309
   55CHL1  H19C 4039   1.033   2.777   3.558 -0.7623  0.2928 -0.0172
   55CHL1    C1 4040   0.748   2.632   3.409  0.0373  0.6100  0.3087
   55CHL1   H1A 4041   0.746   2.537   3.467 -0.9270  0.2194 -0.3325
   55CHL1   H1B 4042   0.640   2.659   3.411  0.5050  2.7959 -1.0816
   55CHL1    C2 4043   0.790   2.619   3.263 -0.0819  0.2779  0.2503
   55CHL1   H2A 4044   0.721   2.545   3.217 -1.4498  0.8116  1.3458
   55CHL1   H2B 4045   0.896   2.590   3.246  0.4355  0.9038  2.1182
   55CHL1   C20 4046   0.736   2.777   4.225  0.3303 -0.2248  0.6561
   55CHL1   H20 4047   0.841   2.802   4.250  0.7723 -2.4565  1.3088
   55CHL1   C21 4048   0.729   2.619   4.227 -0.5089 -0.0998  0.9833
   55CHL1  H21A 4049   0.752   2.600   4.334  2.0174  1.7538  0.8560
   55CHL1  H21B 4050   0.802   2.568   4.161 -1.5827  1.4599 -1.5399
   55CHL1  H21C 4051   0.626   2.578   4.218 -0.5562  0.1029  0.5962
   55CHL1   C22 4052   0.637   2.827   4.334 -0.1828 -0.5479 -0.0707
   55CHL1  H22A 4053   0.612   2.935   4.328 -2.5377 -0.9813  0.7552
   55CHL1  H22B 4054   0.538   2.777   4.328  0.0269 -1.0063  0.2737
   55CHL1   C23 4055   0.687   2.804   4.480  0.0109 -1.0289  0.4949
   55CHL1  H23A 4056   0.699   2.695   4.501 -1.0415 -1.0965  0.7801
   55CHL1  H23B 4057   0.790   2.842   4.497  0.2430 -2.0641  1.6026
   55CHL1   C24 4058   0.596   2.869   4.582  0.2455  0.0990  0.0153
   55CHL1  H24A 4059   0.584   2.978   4.564  0.6964  0.4253  1.5315
   55CHL1  H24B 4060   0.495   2.823   4.580  0.5065 -0.6207  1.6551
   55CHL1   C25 4061   0.644   2.852   4.728  0.3390  0.7220  0.5047
   55CHL1   H25 4062   0.556   2.875   4.792  0.2085 -3.2969  2.0948
   55CHL1   C26 4063   0.692   2.711   4.762  0.9479 -0.4508  1.1577
   55CHL1  H26A 4064   0.612   2.638   4.737 -0.9874  1.5532  1.1630
   55CHL1  H26B 4065   0.778   2.692   4.694  0.9074 -1.1406  1.2853
   55CHL1  H26C 4066   0.722   2.712   4.869 -0.7212  0.8122  1.6624
   55CHL1   C27 4067   0.743   2.955   4.760  0.1775 -0.1130  0.0064
   55CHL1  H27A 4068   0.828   2.944   4.690  0.4415 -1.3420  0.4972
   55CHL1  H27B 4069   0.698   3.054   4.740 -1.8334 -1.2019 -1.1538
   55CHL1  H27C 4070   0.782   2.957   4.864 -0.6651  0.9382  0.3171
   56CHL1    C3 4071   1.434   2.506   3.570 -0.8765 -0.2625 -0.3200
   56CHL1    H3 4072   1.351   2.436   3.546 -0.5957 -0.7177  0.0155
   56CHL1    O3 4073   1.479   2.563   3.447 -0.3223 -0.9132  0.0878
   56CHL1   H3' 4074   1.567   2.597   3.464 -0.7061 -0.6386  1.7127
   56CHL1    C4 4075   1.390   2.619   3.659  0.2331 -0.0190  0.0313
   56CHL1   H4A 4076   1.464   2.702   3.660 -1.6146  1.7114 -0.1796
   56CHL1   H4B 4077   1.313   2.680   3.607 -0.6272  2.2274  3.6141
   56CHL1    C5 4078   1.356   2.575   3.794 -0.0087  0.2812 -0.3997
   56CHL1    C6 4079   1.238   2.601   3.853  0.7668 -0.5304 -0.4555
   56CHL1    H6 4080   1.168   2.657   3.791  0.4264 -0.3083  0.1266
   56CHL1    C7 4081   1.206   2.558   3.992 -0.1220  0.2775 -0.9814
   56CHL1   H7A 4082   1.155   2.636   4.052 -2.1314 -1.0649 -0.8646
   56CHL1   H7B 4083   1.136   2.473   3.983  0.3288 -0.3364  0.8216
   56CHL1    C8 4084   1.325   2.508   4.079 -0.4443  0.0864  0.4034
   56CHL1    H8 4085   1.378   2.599   4.115  1.2581  0.0704 -1.7980
   56CHL1   C14 4086   1.272   2.422   4.192  0.4231  0.8688 -0.3913
   56CHL1   H14 4087   1.223   2.335   4.142 -1.6014 -0.3119  3.2521
   56CHL1   C15 4088   1.158   2.478   4.278  0.5277 -0.0523 -0.3191
   56CHL1  H15A 4089   1.179   2.583   4.306 -0.6344  0.5415 -1.5374
   56CHL1  H15B 4090   1.060   2.478   4.226 -0.3290  1.9023  1.1882
   56CHL1   C16 4091   1.158   2.370   4.389 -0.3070  1.2535  0.2689
   56CHL1  H16A 4092   1.155   2.426   4.485  3.0220  2.3829 -0.1535
   56CHL1  H16B 4093   1.081   2.291   4.378 -0.3515  1.5912 -2.4526
   56CHL1   C17 4094   1.289   2.287   4.384 -0.5667 -0.6262  0.8621
   56CHL1   H17 4095   1.261   2.196   4.328  0.5206 -0.0937 -0.6048
   56CHL1   C13 4096   1.383   2.364   4.290  0.3453 -0.3911  0.1413
   56CHL1   C18 4097   1.448   2.488   4.366 -0.5691 -0.4707 -0.6783
   56CHL1  H18A 4098   1.490   2.561   4.294  1.1077 -1.6523 -0.9681
   56CHL1  H18B 4099   1.375   2.538   4.432  1.4526 -1.9728  2.9622
   56CHL1  H18C 4100   1.531   2.456   4.433  0.0924 -0.1033 -1.3133
   56CHL1   C12 4101   1.487   2.287   4.215  0.0622  0.0001 -0.2299
   56CHL1  H12A 4102   1.579   2.277   4.276  0.3295 -1.0376 -0.7987
   56CHL1  H12B 4103   1.445   2.186   4.195 -0.8428  0.4940 -0.9513
   56CHL1   C11 4104   1.534   2.367   4.090 -0.8464 -0.2481  0.2678
   56CHL1  H11A 4105   1.598   2.448   4.131  2.2191 -2.2949 -0.1348
   56CHL1  H11B 4106   1.607   2.307   4.032  0.7786  1.7821  0.0865
   56CHL1    C9 4107   1.418   2.419   3.999 -0.0057 -0.0107 -0.1018
   56CHL1    H9 4108   1.359   2.330   3.966  0.5475 -0.3801 -0.0957
   56CHL1   C10 4109   1.462   2.485   3.867 -0.1079 -0.1142 -0.0422
   56CHL1   C19 4110   1.582   2.576   3.902 -0.0883  0.8585  0.3378
   56CHL1  H19A 4111   1.597   2.633   3.808 -1.6810 -0.2442 -0.6449
   56CHL1  H19B 4112   1.558   2.645   3.985  0.7740  0.1658  1.2054
   56CHL1  H19C 4113   1.668   2.507   3.922 -1.0061 -0.3971  0.0997
   56CHL1    C1 4114   1.504   2.371   3.771  0.2477 -0.3493  0.5831
   56CHL1   H1A 4115   1.582   2.312   3.823  1.0038  1.0207  1.0436
   56CHL1   H1B 4116   1.419   2.301   3.757 -1.2310  1.4907 -0.0830
   56CHL1    C2 4117   1.552   2.424   3.634  0.2152 -0.2852 -0.4354
   56CHL1   H2A 4118   1.591   2.337   3.577 -0.9193 -1.0561 -0.0590
   56CHL1   H2B 4119   1.638   2.496   3.639 -0.8998  1.0179  1.4064
   56CHL1   C20 4120   1.345   2.236   4.516 -1.0156 -0.1223  0.0330
   56CHL1   H20 4121   1.386   2.323   4.571 -0.1682 -0.1746 -0.5103
   56CHL1   C21 4122   1.461   2.134   4.494 -0.9424  1.3348 -0.1356
   56CHL1  H21A 4123   1.560   2.183   4.486 -0.0619 -0.4385 -0.5877
   56CHL1  H21B 4124   1.451   2.064   4.408 -1.6828  0.5443  0.5715
   56CHL1  H21C 4125   1.478   2.077   4.588 -0.0154  2.3592  0.3431
   56CHL1   C22 4126   1.238   2.177   4.613 -0.0210 -0.8398  0.3653
   56CHL1  H22A 4127   1.144   2.231   4.589  0.6604 -0.2758 -1.1173
   56CHL1  H22B 4128   1.225   2.075   4.572 -1.2259 -0.1865 -0.9570
   56CHL1   C23 4129   1.266   2.179   4.766 -0.1425 -0.2928  0.3374
   56CHL1  H23A 4130   1.362   2.124   4.777 -0.7358 -1.3759  0.1737
   56CHL1  H23B 4131   1.286   2.284   4.798 -0.6042  0.0455 -0.4751
   56CHL1   C24 4132   1.153   2.133   4.859  0.1172  0.4955  0.1859
   56CHL1  H24A 4133   1.062   2.191   4.832  0.4599 -0.3298 -3.2351
   56CHL1  H24B 4134   1.137   2.024   4.841  1.7273  0.6196 -2.5761
   56CHL1   C25 4135   1.172   2.135   5.019  0.7406 -0.1556 -0.0243
   56CHL1   H25 4136   1.190   2.239   5.054 -0.8729 -0.0636  0.5891
   56CHL1   C26 4137   1.050   2.076   5.092  0.2337  0.4767 -0.6593
   56CHL1  H26A 4138   1.012   1.979   5.054  0.9225 -0.1225  0.1394
   56CHL1  H26B 4139   1.072   2.066   5.201  1.3091 -0.4236 -0.9325
   56CHL1  H26C 4140   0.972   2.154   5.080  0.5150  0.8611 -0.0734
   56CHL1   C27 4141   1.290   2.043   5.068 -0.0541  0.4007  0.0923
   56CHL1  H27A 4142   1.390   2.080   5.038  0.1653 -0.1768  0.0958
   56CHL1  H27B 4143   1.295   2.029   5.178 -1.5565 -1.0107  0.0163
   56CHL1  H27C 4144   1.279   1.938   5.031  0.5043 -0.0492  1.1497
   57SAPC     N 4145   5.427   4.727   7.650  0.0469 -0.2709 -0.5643
   57SAPC   C12 4146   5.293   4.660   7.628 -0.0371 -0.3855  0.0634
   57SAPC  H12A 4147   5.286   4.586   7.706  0.7890 -0.2831  0.2418
   57SAPC  H12B 4148   5.299   4.610   7.532 -1.3550  0.8371 -0.7023
   57SAPC   C13 4149   5.467   4.811   7.535 -0.2006 -0.6726  0.0854
   57SAPC  H13A 4150   5.556   4.872   7.546 -0.4699  0.2022 -2.0990
   57SAPC  H13B 4151   5.494   4.752   7.449  1.6044  1.1252 -0.6762
   57SAPC  H13C 4152   5.384   4.875   7.510 -0.7859 -0.9408  1.2551
   57SAPC   C14 4153   5.422   4.817   7.768 -0.1021  0.6622 -0.1460
   57SAPC  H14A 4154   5.348   4.894   7.754  1.0027  1.8773  0.3976
   57SAPC  H14B 4155   5.404   4.758   7.857  1.6151  1.2736  0.6500
   57SAPC  H14C 4156   5.514   4.867   7.796 -0.3277  0.4814  0.9582
   57SAPC   C15 4157   5.535   4.625   7.671 -0.2216 -0.0947  0.1109
   57SAPC  H15A 4158   5.535   4.565   7.581 -0.4853  2.1711 -1.4706
   57SAPC  H15B 4159   5.627   4.679   7.688 -0.4569 -0.1197  1.5914
   57SAPC  H15C 4160   5.518   4.559   7.756  1.4241 -1.1080 -0.3047
   57SAPC   C11 4161   5.161   4.741   7.633  0.1959  0.1884 -0.1838
   57SAPC  H11A 4162   5.154   4.819   7.712 -1.3864 -1.2297  1.1627
   57SAPC  H11B 4163   5.074   4.673   7.647 -0.3898  0.2802 -2.8494
   57SAPC     P 4164   5.023   4.812   7.428 -0.2095 -0.0510 -0.4541
   57SAPC   O13 4165   4.909   4.778   7.513  0.5497  0.2767  0.2794
   57SAPC   O14 4166   5.020   4.948   7.359 -0.0026 -0.2861  0.1866
   57SAPC   O12 4167   5.153   4.810   7.510  0.1589  0.1233 -0.0811
   57SAPC   O11 4168   5.028   4.699   7.321 -0.5929 -0.0113  0.3171
   57SAPC    C1 4169   5.142   4.676   7.236 -0.1989 -0.5268  0.1143
   57SAPC    HA 4170   5.239   4.711   7.277  0.5390 -2.7440  0.4161
   57SAPC    HB 4171   5.152   4.569   7.207  0.4265 -0.3633 -0.2896
   57SAPC    C2 4172   5.130   4.738   7.094 -0.1090 -0.0094  0.0322
   57SAPC    HS 4173   5.120   4.849   7.099  1.5975  0.1656  0.1050
   57SAPC   O21 4174   5.019   4.674   7.022 -0.4356 -0.1241 -0.5782
   57SAPC   C21 4175   4.922   4.754   6.980 -0.2485 -0.1838  0.1141
   57SAPC   O22 4176   4.903   4.871   7.010  0.4370  0.3504  0.9437
   57SAPC   C22 4177   4.830   4.674   6.886  0.1546  0.3891 -0.9000
   57SAPC   H2R 4178   4.896   4.650   6.800  0.2830 -1.0771 -0.4310
   57SAPC   H2S 4179   4.790   4.587   6.942 -0.0379  1.0615  0.0158
   57SAPC    C3 4180   5.257   4.729   7.013 -0.5219  0.4503 -0.6840
   57SAPC    HX 4181   5.288   4.623   7.004  0.9974  0.9384 -1.6481
   57SAPC    HY 4182   5.335   4.776   7.077  0.2714 -1.7281  0.0458
   57SAPC   O31 4183   5.240   4.795   6.888  0.2464  0.1123  0.7332
   57SAPC   C31 4184   5.314   4.754   6.787  0.2026  0.3014 -0.1644
   57SAPC   O32 4185   5.393   4.662   6.795  0.2822  0.6379  0.6729
   57SAPC   C32 4186   5.295   4.837   6.665  0.4928  0.3926  0.0055
   57SAPC   H2X 4187   5.387   4.897   6.647 -1.1793  2.6655 -1.5601
   57SAPC   H2Y 4188   5.218   4.915   6.681  2.1813  1.8366  1.6439
   57SAPC   C23 4189   4.704   4.747   6.834 -0.3763  0.1171  0.5030
   57SAPC   H3R 4190   4.718   4.854   6.809 -3.5512  0.1517 -1.6408
   57SAPC   H3S 4191   4.636   4.739   6.922 -0.0154 -1.5417  0.6712
   57SAPC   C24 4192   4.641   4.679   6.711  0.1223 -0.5214 -0.1903
   57SAPC   H4R 4193   4.544   4.727   6.688 -1.2262 -2.6162  0.8162
   57SAPC   H4S 4194   4.620   4.573   6.738  0.7675 -0.6451 -0.1508
   57SAPC   C25 4195   4.724   4.678   6.583 -0.0985  0.1650 -0.6223
   57SAPC   H5R 4196   4.790   4.593   6.562 -1.4453 -0.6234 -1.8344
   57SAPC   C26 4197   4.705   4.773   6.484 -0.8657  0.7064 -0.5217
   57SAPC   H6R 4198   4.778   4.770   6.402 -1.8042  0.5740 -1.3615
   57SAPC   C27 4199   4.610   4.889   6.487  0.2515 -0.6481  0.0555
   57SAPC   H7R 4200   4.524   4.878   6.557 -0.6122 -0.8589 -1.0007
   57SAPC   H7S 4201   4.551   4.890   6.393  0.4892  0.0443 -0.0845
   57SAPC   C28 4202   4.676   5.017   6.509 -0.5722 -1.2155 -0.0139
   57SAPC   H8R 4203   4.694   5.042   6.615 -0.7153  1.7496 -0.5941
   57SAPC   C29 4204   4.733   5.096   6.420  0.5335  0.4101 -0.0141
   57SAPC   H9R 4205   4.777   5.189   6.462  2.3114 -0.0909 -0.6594
   57SAPC  C210 4206   4.741   5.083   6.278 -0.2382 -0.6264  0.4910
   57SAPC  H10R 4207   4.766   5.183   6.236 -1.3024 -0.0914  1.0867
   57SAPC  H10S 4208   4.644   5.050   6.235  0.0254 -0.7998  0.0265
   57SAPC  C211 4209   4.849   4.998   6.224  0.3025  0.2675 -0.8297
   57SAPC  H11R 4210   4.923   4.967   6.298  0.3475  3.7802  0.7822
   57SAPC  C212 4211   4.841   4.935   6.107  0.1734  0.2811  0.1926
   57SAPC  H12R 4212   4.925   4.871   6.076  1.2474  0.2226  2.9616
   57SAPC  C213 4213   4.745   4.959   5.994  0.2457  0.0252 -0.1209
   57SAPC  H13R 4214   4.720   5.068   5.993 -0.2760 -0.0929 -0.1195
   57SAPC  H13S 4215   4.651   4.915   6.033  0.6805  0.8523  1.9498
   57SAPC  C214 4216   4.789   4.902   5.865 -0.5263 -0.5549  0.4766
   57SAPC  H14R 4217   4.843   4.975   5.803 -0.0246 -0.9847  0.3992
   57SAPC  C215 4218   4.772   4.779   5.820 -0.2635  0.1379 -1.0108
   57SAPC  H15R 4219   4.817   4.753   5.723  1.7776  1.6473 -0.5467
   57SAPC  C216 4220   4.700   4.664   5.883  1.1054  0.1592 -0.0054
   57SAPC  H16R 4221   4.606   4.634   5.831  1.4532  1.3692 -1.4170
   57SAPC  H16S 4222   4.659   4.679   5.985 -1.2429 -3.0970 -0.2911
   57SAPC  C217 4223   4.780   4.531   5.896  0.5851 -0.1189 -0.4978
   57SAPC  H17R 4224   4.838   4.513   5.803  1.3104 -0.8574  0.0808
   57SAPC  H17S 4225   4.711   4.450   5.927  0.9040 -0.3062 -0.2660
   57SAPC  C218 4226   4.888   4.534   6.009  0.2841 -0.3674  0.6772
   57SAPC  H18R 4227   4.953   4.625   6.007  0.2510 -0.3457  0.5898
   57SAPC  H18S 4228   4.953   4.446   5.992  2.1545  0.8989  0.9860
   57SAPC  C219 4229   4.831   4.538   6.153  0.1680  0.6886 -0.9495
   57SAPC  H19R 4230   4.778   4.442   6.172  0.5581  0.3902 -1.3717
   57SAPC  H19S 4231   4.759   4.621   6.169  0.3204  0.4405  1.2598
   57SAPC  C220 4232   4.943   4.556   6.250 -0.7302 -0.3793 -0.1520
   57SAPC  H20R 4233   4.920   4.530   6.356 -1.7004 -1.7461 -0.6736
   57SAPC  H20S 4234   4.979   4.662   6.250  1.4892 -1.0760  0.8835
   57SAPC  H20T 4235   5.029   4.494   6.217 -0.2144  0.6127 -0.7534
   57SAPC   C33 4236   5.256   4.748   6.549 -0.1400  0.5163 -0.3055
   57SAPC   H3X 4237   5.162   4.692   6.568  1.2154 -1.7359  0.1411
   57SAPC   H3Y 4238   5.337   4.673   6.532 -0.9093 -0.3893 -0.0712
   57SAPC   C34 4239   5.229   4.830   6.423  0.1184 -0.5489  0.0508
   57SAPC   H4X 4240   5.298   4.917   6.417  0.1567 -0.5111  0.9111
   57SAPC   H4Y 4241   5.129   4.876   6.412 -0.4611 -2.0508 -1.3563
   57SAPC   C35 4242   5.252   4.741   6.299 -0.1263  0.3300  0.2743
   57SAPC   H5X 4243   5.208   4.640   6.308  1.3369 -0.3744 -0.0881
   57SAPC   H5Y 4244   5.358   4.709   6.290  0.3225  2.1690 -2.1449
   57SAPC   C36 4245   5.217   4.812   6.169  0.6047  0.3557  0.2881
   57SAPC   H6X 4246   5.262   4.914   6.178 -0.2225  0.9517 -1.8614
   57SAPC   H6Y 4247   5.108   4.823   6.154  0.2931 -3.0294 -0.7018
   57SAPC   C37 4248   5.282   4.735   6.052 -0.0315 -0.5530 -0.3563
   57SAPC   H7X 4249   5.282   4.625   6.068  1.3004 -0.1239  3.8004
   57SAPC   H7Y 4250   5.390   4.759   6.066 -0.7133  1.8288  1.8614
   57SAPC   C38 4251   5.227   4.790   5.918 -0.0039  0.4107  0.0341
   57SAPC   H8X 4252   5.207   4.899   5.926 -1.3973  0.1230  0.6535
   57SAPC   H8Y 4253   5.124   4.753   5.904  0.2030 -0.9940  1.8865
   57SAPC   C39 4254   5.315   4.756   5.796  0.2860  0.0779  0.0466
   57SAPC   H9X 4255   5.339   4.650   5.815  2.1320  0.5657  0.6592
   57SAPC   H9Y 4256   5.411   4.813   5.797 -0.4671  1.4171 -0.9977
   57SAPC  C310 4257   5.245   4.780   5.667 -0.7431  0.2049  0.1445
   57SAPC  H10X 4258   5.180   4.870   5.673  2.2774  2.6275 -0.7834
   57SAPC  H10Y 4259   5.188   4.687   5.648  2.1141 -1.7039  0.3212
   57SAPC  C311 4260   5.337   4.798   5.545 -0.0667  0.3545  0.2944
   57SAPC  H11X 4261   5.273   4.797   5.455  1.4783 -0.1042 -0.8351
   57SAPC  H11Y 4262   5.411   4.717   5.526 -1.6175 -0.6522 -1.8752
   57SAPC  C312 4263   5.395   4.938   5.535 -0.1323  0.4102 -1.1496
   57SAPC  H12X 4264   5.457   4.953   5.626 -2.0718  1.0290  0.1366
   57SAPC  H12Y 4265   5.320   5.019   5.547 -1.2136 -0.7395  0.1674
   57SAPC  C313 4266   5.473   4.963   5.406 -0.1660 -0.5751 -0.2105
   57SAPC  H13X 4267   5.515   4.867   5.367 -0.8836 -0.0735 -2.3424
   57SAPC  H13Y 4268   5.557   5.033   5.424 -1.5208  1.1207 -0.2966
   57SAPC  C314 4269   5.396   5.034   5.293  0.1241  0.1306  0.9458
   57SAPC  H14X 4270   5.335   5.112   5.344 -0.7304  1.0145 -1.3140
   57SAPC  H14Y 4271   5.325   4.963   5.247  1.2203 -1.3728  1.4627
   57SAPC  C315 4272   5.481   5.096   5.175  0.3830 -0.4321 -0.4007
   57SAPC  H15X 4273   5.517   5.012   5.112  1.3607 -0.0197 -0.3992
   57SAPC  H15Y 4274   5.561   5.158   5.219  0.1602  1.8352 -2.9411
   57SAPC  C316 4275   5.402   5.190   5.079 -0.2928 -0.6985 -0.1218
   57SAPC  H16X 4276   5.329   5.249   5.138  1.5227 -0.4699  2.0341
   57SAPC  H16Y 4277   5.347   5.140   4.996  0.7130 -0.3163 -1.0275
   57SAPC  C317 4278   5.498   5.286   5.004 -0.1041  0.4443  0.3335
   57SAPC  H17X 4279   5.578   5.217   4.969 -0.5301  0.3170 -0.4361
   57SAPC  H17Y 4280   5.548   5.365   5.064  1.2180 -0.4449  0.4419
   57SAPC  C318 4281   5.439   5.356   4.881  0.3471 -0.3888 -0.1908
   57SAPC  H18X 4282   5.512   5.401   4.809 -0.9096  0.2739 -1.0885
   57SAPC  H18Y 4283   5.364   5.434   4.903  3.8833  2.7896  1.6900
   57SAPC  H18Z 4284   5.379   5.282   4.823  0.7001 -0.2809 -0.7102
   58SAPC     N 4285   2.019   5.889   7.472  0.3299  0.4898  0.1796
   58SAPC   C12 4286   1.955   5.909   7.331  0.4323 -0.2063 -0.3332
   58SAPC  H12A 4287   1.929   6.014   7.325  1.0798  0.1229  1.7064
   58SAPC  H12B 4288   1.860   5.858   7.322  0.9403 -1.1380 -0.4232
   58SAPC   C13 4289   2.139   5.972   7.494  0.2498  0.4655  0.0078
   58SAPC  H13A 4290   2.232   5.946   7.446  1.8943  0.2575  3.0540
   58SAPC  H13B 4291   2.112   6.075   7.476  0.0254  0.5425  0.7625
   58SAPC  H13C 4292   2.158   5.967   7.600 -0.7741  2.8637  0.3933
   58SAPC   C14 4293   1.924   5.908   7.583 -0.3739  0.1340 -0.3471
   58SAPC  H14A 4294   1.882   6.008   7.581 -0.0966  0.2823  0.6424
   58SAPC  H14B 4295   1.833   5.851   7.577 -0.8548  0.9935 -1.8716
   58SAPC  H14C 4296   1.964   5.882   7.680  1.0122  1.2579 -0.5847
   58SAPC   C15 4297   2.070   5.750   7.488 -0.6357 -0.1549  0.1392
   58SAPC  H15A 4298   2.126   5.744   7.580 -1.2779  0.6706  0.6010
   58SAPC  H15B 4299   1.985   5.684   7.489 -2.5812  2.1706  2.2893
   58SAPC  H15C 4300   2.132   5.727   7.403 -1.8360  2.1612 -1.4754
   58SAPC   C11 4301   2.035   5.872   7.211  0.5617  0.0748 -0.1731
   58SAPC  H11A 4302   2.141   5.900   7.230  1.0715 -1.3369 -0.7569
   58SAPC  H11B 4303   2.000   5.936   7.128  0.3967  0.8823  0.5077
   58SAPC     P 4304   1.892   5.672   7.107  0.0679 -0.3380 -0.3837
   58SAPC   O13 4305   1.902   5.529   7.072  0.6045  0.3549  0.9241
   58SAPC   O14 4306   1.769   5.711   7.186  0.0756  0.4725 -0.9904
   58SAPC   O12 4307   2.019   5.730   7.185 -0.1394  0.0743  0.3036
   58SAPC   O11 4308   1.895   5.747   6.962  0.2000  0.2879 -0.3667
   58SAPC    C1 4309   2.015   5.747   6.881 -0.4099  0.3030 -0.2243
   58SAPC    HA 4310   2.072   5.839   6.906 -0.4997  0.2384  0.2331
   58SAPC    HB 4311   2.077   5.657   6.900 -0.2768  0.0471 -1.7547
   58SAPC    C2 4312   1.984   5.735   6.730 -0.0591  0.0835  0.6569
   58SAPC    HS 4313   1.916   5.822   6.715  0.3737  0.5054  1.1093
   58SAPC   O21 4314   1.930   5.603   6.720  0.1167 -0.2267 -0.1105
   58SAPC   C21 4315   1.794   5.582   6.710 -0.0297  0.7112  0.5663
   58SAPC   O22 4316   1.705   5.662   6.697  0.0574  0.4678  0.2972
   58SAPC   C22 4317   1.779   5.433   6.723  0.9046  0.6446 -0.6390
   58SAPC   H2R 4318   1.791   5.371   6.631  1.1914 -0.6021  0.2119
   58SAPC   H2S 4319   1.855   5.405   6.799 -0.2202  0.5671  0.4896
   58SAPC    C3 4320   2.113   5.747   6.640 -0.8207  0.5174 -0.6244
   58SAPC    HX 4321   2.160   5.652   6.672 -2.0630  0.3855  0.9506
   58SAPC    HY 4322   2.162   5.837   6.685 -0.0013 -1.1417  2.0219
   58SAPC   O31 4323   2.079   5.761   6.500  0.0375  0.7121  0.3458
   58SAPC   C31 4324   2.034   5.654   6.441 -0.3137  0.0870 -0.1775
   58SAPC   O32 4325   2.032   5.542   6.487  0.3998  0.4685 -0.4988
   58SAPC   C32 4326   2.006   5.700   6.295  0.3407  0.5502  0.1745
   58SAPC   H2X 4327   1.962   5.614   6.239  1.6155  0.5766 -0.9039
   58SAPC   H2Y 4328   2.100   5.736   6.248  1.0093 -1.5373 -0.2069
   58SAPC   C23 4329   1.639   5.389   6.795 -0.0079  0.0370 -0.0021
   58SAPC   H3R 4330   1.628   5.459   6.880 -0.2628 -0.8138  0.6774
   58SAPC   H3S 4331   1.655   5.292   6.848 -1.4212  0.2889  0.9159
   58SAPC   C24 4332   1.510   5.377   6.714 -0.0860  0.5715  0.6337
   58SAPC   H4R 4333   1.481   5.478   6.679  1.2405  0.8306  0.2403
   58SAPC   H4S 4334   1.428   5.350   6.785 -0.5742  0.0166 -0.1194
   58SAPC   C25 4335   1.511   5.279   6.605  0.2310 -0.2797 -0.2145
   58SAPC   H5R 4336   1.454   5.186   6.620 -1.6030  0.3587 -2.5282
   58SAPC   C26 4337   1.539   5.313   6.477 -0.1545  0.0190  0.1307
   58SAPC   H6R 4338   1.546   5.230   6.405  1.6179  0.0124  0.2772
   58SAPC   C27 4339   1.582   5.449   6.428 -0.2328  0.3655  0.3087
   58SAPC   H7R 4340   1.612   5.521   6.507 -2.1468 -0.4499  1.8402
   58SAPC   H7S 4341   1.490   5.493   6.384 -0.3440  0.7835  0.9547
   58SAPC   C28 4342   1.705   5.454   6.347  0.7553 -0.3253 -0.0775
   58SAPC   H8R 4343   1.795   5.443   6.408  0.8499 -1.1024 -0.3459
   58SAPC   C29 4344   1.711   5.471   6.214  0.0168  0.3530 -0.1291
   58SAPC   H9R 4345   1.811   5.471   6.169  0.9833 -0.9454  1.8842
   58SAPC  C210 4346   1.597   5.492   6.114  0.5389  0.6690  0.1670
   58SAPC  H10R 4347   1.500   5.475   6.167  0.0162  0.2334 -0.9055
   58SAPC  H10S 4348   1.591   5.403   6.048 -1.3876  0.3112  0.7493
   58SAPC  C211 4349   1.600   5.625   6.044 -0.6698  0.1114 -0.2514
   58SAPC  H11R 4350   1.579   5.707   6.114 -1.7775  0.1555 -0.6189
   58SAPC  C212 4351   1.624   5.654   5.913  0.5465 -0.7440 -0.1910
   58SAPC  H12R 4352   1.645   5.757   5.881  0.5014 -0.1247  1.6542
   58SAPC  C213 4353   1.648   5.550   5.800  0.4908 -0.0066 -0.2744
   58SAPC  H13R 4354   1.670   5.449   5.840  2.1253 -0.0962 -1.3332
   58SAPC  H13S 4355   1.739   5.571   5.740  1.1508  1.5983  1.2079
   58SAPC  C214 4356   1.522   5.535   5.710 -0.5612  0.3713 -0.4674
   58SAPC  H14R 4357   1.444   5.474   5.758  1.3635 -0.6435  1.5626
   58SAPC  C215 4358   1.507   5.580   5.589  0.1758  0.4264 -0.1533
   58SAPC  H15R 4359   1.407   5.569   5.545  0.1077  0.4900 -0.0138
   58SAPC  C216 4360   1.614   5.658   5.508 -0.1832  0.0756 -0.6360
   58SAPC  H16R 4361   1.713   5.608   5.509  0.6542  1.6595  0.2508
   58SAPC  H16S 4362   1.639   5.756   5.556  2.8363  0.3429 -2.5135
   58SAPC  C217 4363   1.575   5.677   5.366  0.0855 -0.1078  0.5914
   58SAPC  H17R 4364   1.475   5.724   5.363  0.4828  0.8479  1.5100
   58SAPC  H17S 4365   1.577   5.583   5.307 -2.4249 -0.5944  1.1804
   58SAPC  C218 4366   1.665   5.777   5.292 -0.3660  0.2244 -0.6484
   58SAPC  H18R 4367   1.772   5.763   5.319 -0.1977  2.5417  0.0944
   58SAPC  H18S 4368   1.644   5.881   5.324 -0.8338  0.2280 -0.9654
   58SAPC  C219 4369   1.670   5.769   5.138 -0.0054  0.2466  0.4385
   58SAPC  H19R 4370   1.721   5.678   5.103  0.6938 -0.6196  3.4155
   58SAPC  H19S 4371   1.725   5.859   5.102 -1.2334  0.3591 -1.2695
   58SAPC  C220 4372   1.533   5.765   5.071  0.2871  0.1512  0.4672
   58SAPC  H20R 4373   1.461   5.844   5.103 -1.7748 -1.0966 -0.8348
   58SAPC  H20S 4374   1.482   5.669   5.092 -1.1406  0.8142  0.1705
   58SAPC  H20T 4375   1.541   5.775   4.961 -1.7783  2.0957  0.4014
   58SAPC   C33 4376   1.919   5.827   6.291  0.1304 -0.1191  1.4140
   58SAPC   H3X 4377   1.975   5.912   6.335  0.4935  1.2526 -1.4191
   58SAPC   H3Y 4378   1.817   5.813   6.334 -1.4011  2.3116 -1.0851
   58SAPC   C34 4379   1.880   5.859   6.140 -0.2686  0.0984 -0.8249
   58SAPC   H4X 4380   1.800   5.935   6.132 -0.6942 -0.3995 -1.4055
   58SAPC   H4Y 4381   1.838   5.772   6.085  2.6941 -0.8269 -1.8609
   58SAPC   C35 4382   1.987   5.921   6.047 -0.8677  0.5815 -0.3263
   58SAPC   H5X 4383   2.068   5.849   6.023 -1.8155 -0.9862  0.9997
   58SAPC   H5Y 4384   2.026   6.012   6.098 -0.7182 -0.5513  1.6888
   58SAPC   C36 4385   1.948   5.954   5.903  0.0435 -1.0636  0.1219
   58SAPC   H6X 4386   1.853   6.011   5.896 -1.1012 -2.6513  1.8824
   58SAPC   H6Y 4387   1.920   5.861   5.848  1.3977 -1.8572  0.7064
   58SAPC   C37 4388   2.057   6.027   5.829  0.7946 -0.3461  0.1667
   58SAPC   H7X 4389   2.153   5.974   5.846  0.3598 -0.9431  0.7753
   58SAPC   H7Y 4390   2.064   6.124   5.882  1.5416 -0.1363 -0.2952
   58SAPC   C38 4391   2.023   6.048   5.678 -0.4528  0.4853  0.0510
   58SAPC   H8X 4392   2.063   6.145   5.641  2.6286  0.2366  2.2655
   58SAPC   H8Y 4393   1.913   6.057   5.664 -0.7362  0.8138  2.2054
   58SAPC   C39 4394   2.085   5.942   5.585 -0.3571 -0.0747  0.6191
   58SAPC   H9X 4395   2.187   5.911   5.617  1.2077  2.3663 -1.5731
   58SAPC   H9Y 4396   2.084   5.996   5.487 -0.9352  2.4647  1.9364
   58SAPC  C310 4397   1.986   5.827   5.577  0.1729  0.1048  0.0405
   58SAPC  H10X 4398   1.878   5.844   5.557  0.1554  0.0331  0.0727
   58SAPC  H10Y 4399   1.982   5.782   5.679 -1.5447 -2.6740 -1.1307
   58SAPC  C311 4400   2.018   5.716   5.482 -0.5397  0.4027  0.1411
   58SAPC  H11X 4401   2.020   5.764   5.382  1.0595 -0.6922 -0.3982
   58SAPC  H11Y 4402   1.934   5.644   5.477  0.7911 -1.1446 -1.8174
   58SAPC  C312 4403   2.155   5.636   5.490 -1.1700 -0.4625  0.1136
   58SAPC  H12X 4404   2.159   5.580   5.586  0.3221 -0.8889 -0.1645
   58SAPC  H12Y 4405   2.236   5.711   5.499 -1.6098 -0.1303  1.6431
   58SAPC  C313 4406   2.165   5.538   5.368 -0.4858 -0.5809  0.0692
   58SAPC  H13X 4407   2.126   5.590   5.277 -1.4332  0.1965  0.9017
   58SAPC  H13Y 4408   2.093   5.456   5.389 -0.1048 -0.6078  1.3383
   58SAPC  C314 4409   2.309   5.485   5.342 -0.4672 -0.9548 -0.6998
   58SAPC  H14X 4410   2.305   5.396   5.275  1.4028 -2.6535  1.2333
   58SAPC  H14Y 4411   2.343   5.444   5.440  1.5130  2.6648  0.2974
   58SAPC  C315 4412   2.412   5.583   5.282 -0.5960 -0.0935  0.6367
   58SAPC  H15X 4413   2.433   5.665   5.354  1.5152 -0.5904  0.6653
   58SAPC  H15Y 4414   2.373   5.612   5.183 -1.9276  0.8284  1.4007
   58SAPC  C316 4415   2.540   5.505   5.253 -0.0013  0.7481 -0.3323
   58SAPC  H16X 4416   2.530   5.403   5.209  1.8584  0.8338 -1.0227
   58SAPC  H16Y 4417   2.592   5.486   5.349  0.0641  0.8521 -0.3477
   58SAPC  C317 4418   2.625   5.585   5.156 -0.3225 -0.4698  0.3800
   58SAPC  H17X 4419   2.727   5.541   5.162 -0.7746 -1.5035  0.6869
   58SAPC  H17Y 4420   2.628   5.692   5.183  0.1615  0.2369 -2.1971
   58SAPC  C318 4421   2.579   5.553   5.006 -0.2088  0.7583  0.0715
   58SAPC  H18X 4422   2.470   5.564   4.989 -0.2092  2.7542  1.0049
   58SAPC  H18Y 4423   2.618   5.455   4.973 -0.0611  1.0962 -0.7990
   58SAPC  H18Z 4424   2.631   5.630   4.944  1.3105 -0.5999 -0.3904
   59SAPC     N 4425   0.480   1.254   7.777  0.8080 -0.7351 -0.3259
   59SAPC   C12 4426   0.576   1.145   7.789 -0.0501  0.3020 -0.5244
   59SAPC  H12A 4427   0.560   1.100   7.886  0.3449 -1.1490 -1.1003
   59SAPC  H12B 4428   0.675   1.186   7.800 -0.3304  0.8175  0.1392
   59SAPC   C13 4429   0.346   1.208   7.820 -0.0002 -0.3837  0.2452
   59SAPC  H13A 4430   0.325   1.117   7.765 -0.5270  0.2753 -0.6737
   59SAPC  H13B 4431   0.339   1.187   7.925 -1.1152  1.4727  0.5757
   59SAPC  H13C 4432   0.278   1.288   7.798  1.0068  1.1521  2.4675
   59SAPC   C14 4433   0.526   1.371   7.864  0.1914 -0.6530 -0.2507
   59SAPC  H14A 4434   0.448   1.437   7.898  2.4623  1.7986  0.4772
   59SAPC  H14B 4435   0.573   1.334   7.954  0.4184  1.7933  0.7102
   59SAPC  H14C 4436   0.595   1.440   7.819  0.8905 -0.1998  1.4316
   59SAPC   C15 4437   0.489   1.310   7.633 -0.3974  0.2310 -0.5061
   59SAPC  H15A 4438   0.591   1.342   7.618  0.1898 -2.2064 -2.2267
   59SAPC  H15B 4439   0.465   1.231   7.564  1.7455 -1.0238  0.0699
   59SAPC  H15C 4440   0.420   1.392   7.619  0.0822  1.0465  1.4707
   59SAPC   C11 4441   0.571   1.030   7.682  0.3231 -0.5713 -0.3253
   59SAPC  H11A 4442   0.464   1.003   7.668  0.1624 -0.3264  0.3772
   59SAPC  H11B 4443   0.626   0.943   7.722 -2.0564 -1.0553  2.1944
   59SAPC     P 4444   0.782   1.115   7.534  0.2871  0.1288  0.3355
   59SAPC   O13 4445   0.816   1.215   7.629  0.0155 -0.5619  0.2676
   59SAPC   O14 4446   0.863   0.989   7.543  0.0515  1.0224 -0.0425
   59SAPC   O12 4447   0.629   1.077   7.564  0.3312 -0.0054 -0.0621
   59SAPC   O11 4448   0.779   1.168   7.390  0.4098 -0.7956 -0.4472
   59SAPC    C1 4449   0.680   1.233   7.311  0.3198  0.3926 -0.2437
   59SAPC    HA 4450   0.578   1.196   7.333 -0.0847  1.1544 -0.7952
   59SAPC    HB 4451   0.690   1.341   7.333 -0.8921 -0.2787  4.8531
   59SAPC    C2 4452   0.706   1.213   7.164  0.1215  0.1404 -0.1268
   59SAPC    HS 4453   0.804   1.251   7.129 -0.2926  1.5108  0.1417
   59SAPC   O21 4454   0.601   1.284   7.093 -0.3792 -0.5308  0.2039
   59SAPC   C21 4455   0.616   1.414   7.058  0.2015  0.6201 -0.8467
   59SAPC   O22 4456   0.716   1.479   7.073  0.0096  0.0949 -0.4962
   59SAPC   C22 4457   0.490   1.446   6.978  0.4310  0.1892 -0.2554
   59SAPC   H2R 4458   0.452   1.361   6.917 -2.1948  0.3436  1.0216
   59SAPC   H2S 4459   0.409   1.452   7.054  0.4135 -0.7339 -0.1795
   59SAPC    C3 4460   0.709   1.064   7.131 -0.1395  0.4707  0.3376
   59SAPC    HX 4461   0.608   1.035   7.168  0.0383  1.3561  1.6014
   59SAPC    HY 4462   0.766   1.003   7.205  1.2551  0.8881 -0.3638
   59SAPC   O31 4463   0.722   1.034   6.992  0.3642  0.4595  0.0764
   59SAPC   C31 4464   0.845   1.011   6.959  0.0109  0.4140 -0.5865
   59SAPC   O32 4465   0.942   1.031   7.030  0.0614  0.1443 -0.1034
   59SAPC   C32 4466   0.864   0.952   6.816  0.0812  0.6599  0.0113
   59SAPC   H2X 4467   0.843   1.036   6.746  0.4777 -0.8296 -1.9904
   59SAPC   H2Y 4468   0.790   0.869   6.809  0.7224  0.1956 -1.7769
   59SAPC   C23 4469   0.479   1.579   6.909 -0.1834  0.1316  0.3528
   59SAPC   H3R 4470   0.487   1.660   6.985  1.0276 -0.0322  0.4151
   59SAPC   H3S 4471   0.379   1.593   6.862 -0.8049 -0.4594  1.4749
   59SAPC   C24 4472   0.591   1.603   6.806  0.1698 -0.5936 -0.3558
   59SAPC   H4R 4473   0.691   1.600   6.855 -0.6546 -1.0254  1.3685
   59SAPC   H4S 4474   0.574   1.711   6.789  0.4239 -0.1997  1.6566
   59SAPC   C25 4475   0.581   1.514   6.686  0.7083 -0.5075  0.4768
   59SAPC   H5R 4476   0.570   1.406   6.706  2.2109 -0.9645 -0.9130
   59SAPC   C26 4477   0.572   1.550   6.554 -0.4983 -0.1861  0.3873
   59SAPC   H6R 4478   0.567   1.469   6.480  1.5319  2.0117 -2.3739
   59SAPC   C27 4479   0.570   1.691   6.510 -0.0327 -0.4564  0.7561
   59SAPC   H7R 4480   0.592   1.764   6.591 -0.4397  2.2128 -1.3650
   59SAPC   H7S 4481   0.467   1.722   6.480  0.2962 -0.3297 -0.3053
   59SAPC   C28 4482   0.664   1.707   6.394 -0.3292  0.3534 -0.4573
   59SAPC   H8R 4483   0.761   1.746   6.430 -0.5724  0.3758  0.1810
   59SAPC   C29 4484   0.644   1.682   6.264  0.1430  0.3275  0.3038
   59SAPC   H9R 4485   0.727   1.695   6.193 -1.0630  0.1345 -1.1928
   59SAPC  C210 4486   0.518   1.614   6.220  0.3017  0.5390  0.2978
   59SAPC  H10R 4487   0.455   1.570   6.301 -1.3905  0.2995 -1.0930
   59SAPC  H10S 4488   0.526   1.522   6.158 -1.4872 -1.4636  2.7837
   59SAPC  C211 4489   0.431   1.711   6.152 -0.6645 -0.2119  0.0015
   59SAPC  H11R 4490   0.388   1.793   6.212 -0.7262  1.5570 -2.3152
   59SAPC  C212 4491   0.404   1.698   6.025 -0.3858  0.0447  0.6376
   59SAPC  H12R 4492   0.349   1.781   5.980  1.0510  0.9035  0.4265
   59SAPC  C213 4493   0.440   1.582   5.929 -0.0330  0.0629 -0.1482
   59SAPC  H13R 4494   0.405   1.488   5.977  0.0374  0.0550 -0.1119
   59SAPC  H13S 4495   0.550   1.576   5.913  0.1858  0.2080  1.1314
   59SAPC  C214 4496   0.370   1.572   5.798  0.1017 -1.8256  0.1704
   59SAPC  H14R 4497   0.264   1.600   5.797 -0.1309 -2.5979 -1.6216
   59SAPC  C215 4498   0.432   1.541   5.682 -0.1474 -0.1110  0.4048
   59SAPC  H15R 4499   0.378   1.545   5.587 -0.0163 -0.5976  0.3089
   59SAPC  C216 4500   0.584   1.527   5.661 -0.2677  0.7612  0.0882
   59SAPC  H16R 4501   0.630   1.427   5.677 -0.0496  0.7490 -0.6027
   59SAPC  H16S 4502   0.640   1.598   5.725 -0.0936  0.6808  0.0239
   59SAPC  C217 4503   0.601   1.578   5.518 -0.3964  0.5652 -0.3587
   59SAPC  H17R 4504   0.555   1.678   5.505 -1.5008  0.2359  0.8678
   59SAPC  H17S 4505   0.557   1.509   5.442 -0.6956  0.6881 -0.2943
   59SAPC  C218 4506   0.747   1.576   5.465 -0.1287  0.5792  0.0733
   59SAPC  H18R 4507   0.805   1.483   5.483 -0.1324  0.3645 -1.0013
   59SAPC  H18S 4508   0.816   1.650   5.509 -0.3340  0.7440  0.1217
   59SAPC  C219 4509   0.741   1.605   5.315 -0.5381  0.9686 -0.3481
   59SAPC  H19R 4510   0.651   1.559   5.270 -2.4136  2.4104  1.6752
   59SAPC  H19S 4511   0.826   1.547   5.273 -0.9220 -1.2601  1.7130
   59SAPC  C220 4512   0.739   1.754   5.275  0.0681  0.2305  0.2180
   59SAPC  H20R 4513   0.638   1.800   5.283  0.7846  1.4624  4.2334
   59SAPC  H20S 4514   0.756   1.761   5.165 -3.4917  0.3837 -0.4336
   59SAPC  H20T 4515   0.824   1.812   5.315 -0.7191 -0.0139  2.3516
   59SAPC   C33 4516   1.000   0.893   6.777  0.1028 -0.2561  0.4393
   59SAPC   H3X 4517   1.007   0.790   6.819 -1.4895  1.0098  4.1893
   59SAPC   H3Y 4518   1.086   0.950   6.819  0.6867 -0.0696 -0.9715
   59SAPC   C34 4519   1.019   0.910   6.630 -0.1057 -0.0738  0.0679
   59SAPC   H4X 4520   1.028   1.019   6.609  0.3267 -0.4393 -1.8676
   59SAPC   H4Y 4521   0.923   0.891   6.577 -0.0461  1.1809 -0.5389
   59SAPC   C35 4522   1.150   0.839   6.568 -0.3972  0.1286  0.3564
   59SAPC   H5X 4523   1.126   0.732   6.548 -3.9695  0.2649  2.9932
   59SAPC   H5Y 4524   1.234   0.860   6.639 -1.0780  2.2123  0.5982
   59SAPC   C36 4525   1.186   0.899   6.430  0.0570 -0.3070  0.1402
   59SAPC   H6X 4526   1.291   0.874   6.404 -0.3034 -3.2124  1.0946
   59SAPC   H6Y 4527   1.177   1.009   6.432  2.1011 -0.0841  2.4677
   59SAPC   C37 4528   1.106   0.824   6.321 -0.2425  0.7215  0.0941
   59SAPC   H7X 4529   1.000   0.820   6.353 -0.2185 -0.9632  0.0183
   59SAPC   H7Y 4530   1.149   0.723   6.311  1.1549  1.2941  0.0435
   59SAPC   C38 4531   1.119   0.901   6.189 -0.0876 -0.0556 -0.2976
   59SAPC   H8X 4532   1.227   0.898   6.163 -0.0819  3.2800 -1.1261
   59SAPC   H8Y 4533   1.097   1.008   6.208 -0.7070 -0.2825  0.2826
   59SAPC   C39 4534   1.048   0.841   6.065  0.3424  0.0307  0.5356
   59SAPC   H9X 4535   0.942   0.835   6.098  0.5305 -2.1823  0.8752
   59SAPC   H9Y 4536   1.085   0.738   6.045 -0.2851 -0.2410  0.7550
   59SAPC  C310 4537   1.072   0.919   5.937  0.4704  0.7941  0.3390
   59SAPC  H10X 4538   1.157   0.867   5.887 -1.5929  0.0132 -2.6560
   59SAPC  H10Y 4539   1.097   1.025   5.959  0.8157  1.1863 -1.7467
   59SAPC  C311 4540   0.960   0.923   5.835  0.5993 -0.1486 -0.1913
   59SAPC  H11X 4541   0.876   0.993   5.859  1.3902  0.4062  1.0343
   59SAPC  H11Y 4542   0.912   0.825   5.851 -0.5651  0.5608  0.8614
   59SAPC  C312 4543   1.011   0.958   5.692 -0.2115 -0.3673 -0.5904
   59SAPC  H12X 4544   0.922   0.970   5.627 -1.3226 -1.8175  0.5839
   59SAPC  H12Y 4545   1.075   0.878   5.649  1.2608  0.5188 -0.1078
   59SAPC  C313 4546   1.090   1.094   5.677 -0.6491  0.2467 -0.3564
   59SAPC  H13X 4547   1.145   1.100   5.581 -2.3528 -1.0306 -1.4832
   59SAPC  H13Y 4548   1.171   1.072   5.750  0.2959  0.3801 -1.3462
   59SAPC  C314 4549   1.002   1.213   5.700 -0.3612 -0.2010  0.7335
   59SAPC  H14X 4550   0.924   1.201   5.779 -0.5914  3.1059  1.1510
   59SAPC  H14Y 4551   0.957   1.228   5.599 -0.8820 -0.8727  0.8592
   59SAPC  C315 4552   1.083   1.347   5.714 -0.3285  0.1916 -0.1707
   59SAPC  H15X 4553   1.148   1.320   5.800  0.5496 -0.3150 -0.9883
   59SAPC  H15Y 4554   1.009   1.424   5.743 -0.4425 -0.1712  0.5346
   59SAPC  C316 4555   1.168   1.377   5.594 -0.2024  0.2061  0.6298
   59SAPC  H16X 4556   1.096   1.368   5.510  0.3027 -1.1799  0.3216
   59SAPC  H16Y 4557   1.246   1.299   5.579 -0.6729 -0.1455 -0.0673
   59SAPC  C317 4558   1.226   1.514   5.600 -0.4199 -0.7825 -0.2254
   59SAPC  H17X 4559   1.275   1.513   5.700  1.1140 -2.9657 -0.9107
   59SAPC  H17Y 4560   1.144   1.588   5.592  0.1071  0.0855  1.6956
   59SAPC  C318 4561   1.328   1.539   5.485 -0.3895  0.0221 -0.5407
   59SAPC  H18X 4562   1.403   1.618   5.508 -0.3974 -0.4008  1.0129
   59SAPC  H18Y 4563   1.282   1.569   5.388 -0.2256  2.6074  0.1046
   59SAPC  H18Z 4564   1.381   1.443   5.466  0.7953  0.0570  2.1330
   60SAPC     N 4565   1.691   3.236   7.988  0.4514  0.4527 -0.2109
   60SAPC   C12 4566   1.721   3.133   7.884 -0.1405  0.4739  0.3307
   60SAPC  H12A 4567   1.696   3.038   7.929 -0.9185  0.7298  0.4526
   60SAPC  H12B 4568   1.824   3.153   7.857  0.3290 -0.5528  1.3061
   60SAPC   C13 4569   1.727   3.368   7.931 -0.4067 -1.1585  0.3559
   60SAPC  H13A 4570   1.833   3.383   7.923 -0.1680 -2.0200  1.5697
   60SAPC  H13B 4571   1.684   3.392   7.835 -0.4485  1.0227  0.8586
   60SAPC  H13C 4572   1.708   3.446   8.004  0.4139 -0.0157 -0.6033
   60SAPC   C14 4573   1.543   3.241   8.024  0.3633  0.0581 -0.6362
   60SAPC  H14A 4574   1.517   3.323   8.089  0.9148 -1.0515  1.0357
   60SAPC  H14B 4575   1.489   3.259   7.932 -0.1781  1.0813 -0.1314
   60SAPC  H14C 4576   1.516   3.142   8.058  0.2277 -0.7893 -3.0188
   60SAPC   C15 4577   1.787   3.207   8.100  1.0583  0.7865 -0.6245
   60SAPC  H15A 4578   1.798   3.297   8.159  0.6878  0.8039 -0.5774
   60SAPC  H15B 4579   1.745   3.128   8.161  1.0983 -0.7447 -2.4786
   60SAPC  H15C 4580   1.886   3.176   8.071  0.6700 -0.6117 -0.5069
   60SAPC   C11 4581   1.625   3.139   7.760  0.0426  0.7157 -0.9101
   60SAPC  H11A 4582   1.525   3.139   7.809 -0.0452 -0.3874 -1.0614
   60SAPC  H11B 4583   1.638   3.042   7.707  4.0196  0.8253 -0.4549
   60SAPC     P 4584   1.766   3.263   7.584 -0.2561  0.2025 -0.3070
   60SAPC   O13 4585   1.789   3.404   7.546 -0.5961  0.2171  0.5747
   60SAPC   O14 4586   1.880   3.195   7.655  0.4743  0.2740  0.1592
   60SAPC   O12 4587   1.637   3.253   7.677  0.0766 -0.6014 -0.3856
   60SAPC   O11 4588   1.734   3.175   7.463  0.7238  0.0053  0.2933
   60SAPC    C1 4589   1.624   3.179   7.378  0.5058  0.1166 -0.1272
   60SAPC    HA 4590   1.565   3.272   7.394  0.6109  0.0711  0.5459
   60SAPC    HB 4591   1.653   3.176   7.271 -0.5668 -1.9282 -0.4168
   60SAPC    C2 4592   1.536   3.057   7.405  0.0425  0.3869 -0.2591
   60SAPC    HS 4593   1.485   3.067   7.503 -1.6742 -0.6762 -0.9907
   60SAPC   O21 4594   1.613   2.934   7.385  0.5397 -0.0396 -0.2902
   60SAPC   C21 4595   1.583   2.832   7.462 -0.6250  0.6626  0.3447
   60SAPC   O22 4596   1.503   2.832   7.554 -0.6929 -0.4749 -0.2106
   60SAPC   C22 4597   1.677   2.724   7.424 -0.0640 -0.6538 -0.2883
   60SAPC   H2R 4598   1.772   2.777   7.403  0.4747 -0.7536  1.7110
   60SAPC   H2S 4599   1.704   2.655   7.507 -0.4220 -0.9357 -0.4051
   60SAPC    C3 4600   1.418   3.043   7.290 -0.5142 -0.0715 -1.2994
   60SAPC    HX 4601   1.366   3.141   7.290 -1.4739 -0.5704 -2.0010
   60SAPC    HY 4602   1.337   2.972   7.318  0.3956 -0.5411  0.3174
   60SAPC   O31 4603   1.457   3.008   7.157  0.1188 -0.2605  0.0850
   60SAPC   C31 4604   1.378   3.045   7.062 -0.2426 -1.2594  0.3984
   60SAPC   O32 4605   1.263   3.090   7.066 -0.5863  0.0972 -0.1038
   60SAPC   C32 4606   1.466   3.042   6.937  0.1198  0.0670  0.4484
   60SAPC   H2X 4607   1.502   2.937   6.943 -0.6530 -0.2062  0.4246
   60SAPC   H2Y 4608   1.539   3.126   6.939 -0.9661  1.0544  3.4553
   60SAPC   C23 4609   1.617   2.646   7.304  0.1030 -0.1696  0.2954
   60SAPC   H3R 4610   1.574   2.708   7.222 -1.3310  0.0326  1.1744
   60SAPC   H3S 4611   1.534   2.589   7.350 -2.0634  2.5490  0.0117
   60SAPC   C24 4612   1.705   2.535   7.241  0.1627  0.1728  0.1422
   60SAPC   H4R 4613   1.631   2.478   7.181 -1.3331 -0.0292  2.0566
   60SAPC   H4S 4614   1.756   2.457   7.302  1.8647  1.3171  0.2699
   60SAPC   C25 4615   1.807   2.602   7.149 -0.3607 -0.6972  0.0035
   60SAPC   H5R 4616   1.898   2.625   7.205  0.4979 -1.1115 -1.1771
   60SAPC   C26 4617   1.795   2.618   7.013 -0.1251  0.0121  0.4665
   60SAPC   H6R 4618   1.870   2.674   6.955  0.5268 -0.3313  0.9712
   60SAPC   C27 4619   1.694   2.556   6.920 -0.0530  0.0109 -0.0731
   60SAPC   H7R 4620   1.674   2.451   6.949 -1.6185  0.2390 -0.2835
   60SAPC   H7S 4621   1.745   2.543   6.822 -2.9081  1.0679 -1.8222
   60SAPC   C28 4622   1.559   2.616   6.890 -0.4681 -0.2938 -0.4071
   60SAPC   H8R 4623   1.492   2.626   6.977 -0.8396 -0.6937 -0.6452
   60SAPC   C29 4624   1.517   2.667   6.771 -0.0039  0.0068  0.1594
   60SAPC   H9R 4625   1.425   2.727   6.765  1.2879  2.0752 -0.1138
   60SAPC  C210 4626   1.589   2.657   6.640  0.4207 -0.2513 -0.3435
   60SAPC  H10R 4627   1.526   2.693   6.556 -0.4348 -0.6202  0.1297
   60SAPC  H10S 4628   1.603   2.550   6.612 -0.0185 -0.4919  0.3326
   60SAPC  C211 4629   1.719   2.729   6.623  0.2729 -0.6129  0.0721
   60SAPC  H11R 4630   1.756   2.789   6.708 -1.1855  0.2678  0.1101
   60SAPC  C212 4631   1.794   2.728   6.513  0.2063 -0.1550 -0.5540
   60SAPC  H12R 4632   1.885   2.789   6.510 -1.5865  2.6265 -1.7397
   60SAPC  C213 4633   1.749   2.657   6.387  0.0522 -0.3310  0.2516
   60SAPC  H13R 4634   1.638   2.660   6.387  0.0703  1.0136 -0.2894
   60SAPC  H13S 4635   1.774   2.549   6.398  1.6220 -0.0270 -0.0511
   60SAPC  C214 4636   1.820   2.697   6.258  0.7163 -0.4844 -0.8414
   60SAPC  H14R 4637   1.928   2.709   6.273  0.3119 -0.8635  4.5109
   60SAPC  C215 4638   1.763   2.677   6.137 -0.3122 -0.5454  0.2800
   60SAPC  H15R 4639   1.823   2.702   6.048  0.0711  0.7735  0.8743
   60SAPC  C216 4640   1.629   2.623   6.107 -0.0316  0.0589  0.8130
   60SAPC  H16R 4641   1.599   2.649   6.004 -1.6569 -0.2125  1.1956
   60SAPC  H16S 4642   1.552   2.671   6.171 -1.5088  0.3894 -1.1477
   60SAPC  C217 4643   1.617   2.476   6.137  0.4482 -0.2595  0.3125
   60SAPC  H17R 4644   1.525   2.440   6.086 -0.1569 -0.4362  1.4796
   60SAPC  H17S 4645   1.590   2.459   6.244  1.7219 -0.4969  0.6227
   60SAPC  C218 4646   1.734   2.378   6.095 -0.3057 -0.1090 -0.2723
   60SAPC  H18R 4647   1.835   2.415   6.122 -1.0788 -0.0064  2.7437
   60SAPC  H18S 4648   1.738   2.374   5.984  0.0969 -1.1206 -0.2314
   60SAPC  C219 4649   1.718   2.227   6.146 -0.2822 -0.0260  0.3445
   60SAPC  H19R 4650   1.790   2.158   6.096 -1.1135  1.0379 -2.5688
   60SAPC  H19S 4651   1.627   2.177   6.107  0.0249 -0.7403  0.5225
   60SAPC  C220 4652   1.731   2.226   6.299 -0.1740 -0.9358  0.1166
   60SAPC  H20R 4653   1.713   2.127   6.346  1.6644 -0.0608  2.9319
   60SAPC  H20S 4654   1.648   2.282   6.348 -0.9558 -0.2108 -1.9254
   60SAPC  H20T 4655   1.831   2.259   6.335 -0.3088 -1.7807  1.3023
   60SAPC   C33 4656   1.389   3.044   6.803  0.0092 -0.0307  0.1948
   60SAPC   H3X 4657   1.324   3.133   6.810  0.3980  0.3099 -0.4579
   60SAPC   H3Y 4658   1.314   2.963   6.804 -1.3992  1.2446  0.4361
   60SAPC   C34 4659   1.472   3.040   6.675  0.3442  0.6642  0.4866
   60SAPC   H4X 4660   1.509   2.938   6.650 -0.7851  0.8843 -2.4980
   60SAPC   H4Y 4661   1.557   3.112   6.683  0.1362  1.2325 -1.7445
   60SAPC   C35 4662   1.402   3.099   6.547  0.3454  0.7170 -0.4469
   60SAPC   H5X 4663   1.379   3.200   6.586 -1.4811 -0.3560  1.4917
   60SAPC   H5Y 4664   1.302   3.056   6.525  0.5825 -0.6413  0.9117
   60SAPC   C36 4665   1.499   3.111   6.424 -0.1000  0.1573 -0.3381
   60SAPC   H6X 4666   1.544   3.021   6.377 -0.7766 -0.0180 -0.6630
   60SAPC   H6Y 4667   1.582   3.161   6.478 -1.5838  0.4943  1.7324
   60SAPC   C37 4668   1.436   3.203   6.326  0.3206 -0.3143  0.1589
   60SAPC   H7X 4669   1.505   3.239   6.247  0.0063 -1.8307 -0.8418
   60SAPC   H7Y 4670   1.379   3.288   6.369 -0.1003 -0.4167 -0.1896
   60SAPC   C38 4671   1.329   3.135   6.236 -0.0712 -0.1616 -0.2756
   60SAPC   H8X 4672   1.229   3.153   6.280  0.1283  0.6210 -0.1319
   60SAPC   H8Y 4673   1.353   3.027   6.246  0.0034 -0.2771 -1.5273
   60SAPC   C39 4674   1.333   3.170   6.089 -0.4053 -0.4014 -0.5866
   60SAPC   H9X 4675   1.330   3.280   6.078  1.3177 -0.4991 -2.7485
   60SAPC   H9Y 4676   1.232   3.144   6.053 -0.4514 -0.4073 -0.4541
   60SAPC  C310 4677   1.446   3.097   6.029 -0.1197 -0.1033  0.1747
   60SAPC  H10X 4678   1.460   2.992   6.063  0.8701 -0.4916 -1.3554
   60SAPC  H10Y 4679   1.540   3.151   6.056 -1.1746  1.3148  1.1566
   60SAPC  C311 4680   1.429   3.080   5.876 -0.3418 -0.1095 -0.3569
   60SAPC  H11X 4681   1.435   3.177   5.822 -2.7369  0.1284 -0.3168
   60SAPC  H11Y 4682   1.325   3.045   5.856 -1.3343  1.1773  2.1342
   60SAPC  C312 4683   1.542   2.980   5.825 -0.3333 -0.2524  0.5784
   60SAPC  H12X 4684   1.502   2.876   5.817 -0.8875  0.0550 -1.0283
   60SAPC  H12Y 4685   1.622   2.996   5.900  0.2110  2.3043 -0.4431
   60SAPC  C313 4686   1.599   3.014   5.684 -0.0964 -0.1359  0.3498
   60SAPC  H13X 4687   1.685   2.948   5.656 -0.5748 -0.7280  0.2551
   60SAPC  H13Y 4688   1.632   3.120   5.678  2.1181 -0.6991  1.5999
   60SAPC  C314 4689   1.488   3.007   5.577 -0.0801  0.9738  0.2711
   60SAPC  H14X 4690   1.397   3.063   5.610 -1.9846 -1.8376  0.1150
   60SAPC  H14Y 4691   1.446   2.905   5.571 -1.8036  1.7416 -2.0437
   60SAPC  C315 4692   1.540   3.054   5.439  0.8003 -0.4671  0.1479
   60SAPC  H15X 4693   1.647   3.028   5.427  0.5642 -1.0422 -0.9336
   60SAPC  H15Y 4694   1.526   3.164   5.432 -1.2452 -0.7270 -0.5805
   60SAPC  C316 4695   1.469   3.003   5.310 -0.3246  0.4769 -0.2598
   60SAPC  H16X 4696   1.359   3.001   5.328 -0.2145  2.6743  0.9452
   60SAPC  H16Y 4697   1.502   2.902   5.279 -0.3349  0.5085 -0.3780
   60SAPC  C317 4698   1.486   3.093   5.186 -0.4522  0.4186  0.0669
   60SAPC  H17X 4699   1.590   3.081   5.150  0.0245  0.1101  1.4667
   60SAPC  H17Y 4700   1.480   3.200   5.217 -2.8227  0.7831 -1.4586
   60SAPC  C318 4701   1.390   3.075   5.069 -0.4026 -0.4242  0.1423
   60SAPC  H18X 4702   1.373   2.967   5.047 -1.2203 -0.3495  0.3789
   60SAPC  H18Y 4703   1.439   3.113   4.977 -1.0885 -1.4477 -0.6668
   60SAPC  H18Z 4704   1.291   3.120   5.089 -0.8115 -1.2609  0.0325
   61SAPC     N 4705   4.479   0.261   7.622  0.3439  0.4155 -0.2146
   61SAPC   C12 4706   4.588   0.350   7.576  0.1588 -0.0734 -0.2175
   61SAPC  H12A 4707   4.620   0.407   7.662 -0.8261 -0.5693  0.4905
   61SAPC  H12B 4708   4.552   0.419   7.501 -2.1714 -1.3700 -0.3971
   61SAPC   C13 4709   4.507   0.186   7.747  0.3440  0.4468  0.2377
   61SAPC  H13A 4710   4.417   0.137   7.780 -0.3368  1.5627  0.1032
   61SAPC  H13B 4711   4.590   0.119   7.734  0.2356  0.1760  0.9007
   61SAPC  H13C 4712   4.535   0.250   7.830  1.5083 -0.0781  0.2759
   61SAPC   C14 4713   4.355   0.332   7.644 -0.3066 -0.7971 -0.7614
   61SAPC  H14A 4714   4.368   0.417   7.708 -1.2642 -0.8108 -0.5297
   61SAPC  H14B 4715   4.320   0.369   7.549  0.9921 -1.6550 -1.6160
   61SAPC  H14C 4716   4.274   0.275   7.688 -0.8226 -0.8349 -1.7276
   61SAPC   C15 4717   4.459   0.139   7.532  0.6225 -0.3406  0.0006
   61SAPC  H15A 4718   4.406   0.168   7.442  1.5181  2.7523  0.3565
   61SAPC  H15B 4719   4.548   0.087   7.502  0.7085  0.0625 -0.4584
   61SAPC  H15C 4720   4.402   0.065   7.585 -0.0278  0.1821  0.0472
   61SAPC   C11 4721   4.704   0.278   7.507 -0.3800  0.1365 -1.0533
   61SAPC  H11A 4722   4.772   0.361   7.481 -0.6253  1.0618  1.0301
   61SAPC  H11B 4723   4.668   0.237   7.410  0.5130  2.1931 -2.2936
   61SAPC     P 4724   4.879   0.201   7.683 -0.0567  0.0195 -0.1856
   61SAPC   O13 4725   4.847   0.321   7.767 -0.4455  0.4421 -0.3088
   61SAPC   O14 4726   4.899   0.078   7.763  0.1264  0.5065  0.0500
   61SAPC   O12 4727   4.760   0.176   7.587 -0.5970  0.2557  0.1942
   61SAPC   O11 4728   5.000   0.231   7.590 -0.8425  0.0256  0.1435
   61SAPC    C1 4729   5.034   0.146   7.477 -0.1396  0.7290 -0.2180
   61SAPC    HA 4730   4.997   0.042   7.482  0.1798  0.6458  0.6437
   61SAPC    HB 4731   4.998   0.183   7.378  0.1544 -0.7252 -0.8995
   61SAPC    C2 4732   5.192   0.136   7.462  0.0020 -0.1126 -0.0226
   61SAPC    HS 4733   5.240   0.107   7.558  2.8537  1.3256 -0.9210
   61SAPC   O21 4734   5.231   0.269   7.433 -0.0315 -0.5537  0.2897
   61SAPC   C21 4735   5.361   0.294   7.415  0.1020 -0.9232 -0.2397
   61SAPC   O22 4736   5.451   0.220   7.418 -0.3817  0.4334 -0.2485
   61SAPC   C22 4737   5.370   0.446   7.382 -0.2171  0.3801 -0.2297
   61SAPC   H2R 4738   5.269   0.472   7.344 -1.1885 -1.7233  0.7575
   61SAPC   H2S 4739   5.392   0.513   7.468 -1.1334  0.5406 -0.1193
   61SAPC    C3 4740   5.222   0.033   7.346  0.3645 -0.0789  0.5631
   61SAPC    HX 4741   5.180  -0.065   7.378 -0.7728  0.1118 -0.3026
   61SAPC    HY 4742   5.329   0.012   7.323  0.0178  0.0082 -1.2734
   61SAPC   O31 4743   5.160   0.062   7.214 -0.3010  0.2945  0.4415
   61SAPC   C31 4744   5.242   0.115   7.120 -0.0035 -0.3682 -0.4381
   61SAPC   O32 4745   5.354   0.165   7.141  0.4608  0.8757  0.1212
   61SAPC   C32 4746   5.170   0.094   6.989 -0.2439  0.6935  0.2716
   61SAPC   H2X 4747   5.076   0.153   6.981  0.1672  1.2591 -0.4604
   61SAPC   H2Y 4748   5.146  -0.014   6.986 -0.7125  0.7572  1.2775
   61SAPC   C23 4749   5.474   0.475   7.262  0.3096 -0.6901 -0.2770
   61SAPC   H3R 4750   5.466   0.398   7.182  1.4768  1.6881 -2.8583
   61SAPC   H3S 4751   5.575   0.488   7.306  0.0212  0.2768  0.1221
   61SAPC   C24 4752   5.442   0.610   7.201 -0.0378  0.0164  0.2696
   61SAPC   H4R 4753   5.452   0.685   7.282  0.5774 -1.0561  1.2222
   61SAPC   H4S 4754   5.336   0.615   7.169 -0.4656  0.5582  1.6808
   61SAPC   C25 4755   5.531   0.651   7.087 -0.1602  0.3275 -0.2157
   61SAPC   H5R 4756   5.596   0.737   7.112 -1.7088  1.0591  1.5260
   61SAPC   C26 4757   5.546   0.591   6.968 -0.5896  0.5336  0.2399
   61SAPC   H6R 4758   5.616   0.641   6.899  0.9476 -1.7769  0.0041
   61SAPC   C27 4759   5.475   0.467   6.907 -0.7351  0.1220 -0.4468
   61SAPC   H7R 4760   5.460   0.475   6.797 -0.2157  1.1449 -0.4562
   61SAPC   H7S 4761   5.375   0.448   6.952 -0.9975 -1.1639 -1.5180
   61SAPC   C28 4762   5.561   0.340   6.922  0.2959  0.9830 -0.0915
   61SAPC   H8R 4763   5.570   0.308   7.026 -0.1561  1.9634  0.2609
   61SAPC   C29 4764   5.636   0.292   6.824  0.1226  0.9350 -0.4415
   61SAPC   H9R 4765   5.692   0.199   6.843 -0.1917  0.8900  0.2944
   61SAPC  C210 4766   5.661   0.346   6.686 -0.3663 -0.3228  0.5169
   61SAPC  H10R 4767   5.623   0.451   6.680 -2.5134 -1.1094 -0.4456
   61SAPC  H10S 4768   5.605   0.299   6.603 -1.9293  0.3251  1.1597
   61SAPC  C211 4769   5.806   0.343   6.658  0.2259  1.0120  0.9829
   61SAPC  H11R 4770   5.878   0.327   6.740  1.3115  0.0483 -0.1220
   61SAPC  C212 4771   5.868   0.373   6.543  0.0574 -0.8190 -0.2838
   61SAPC  H12R 4772   5.977   0.369   6.534  0.0313  0.2208 -1.3213
   61SAPC  C213 4773   5.799   0.421   6.422 -0.3313  0.3884  0.0433
   61SAPC  H13R 4774   5.726   0.337   6.416 -0.1448  0.2030  0.3397
   61SAPC  H13S 4775   5.868   0.404   6.338 -0.4192 -0.4687  0.1365
   61SAPC  C214 4776   5.732   0.553   6.419 -0.4108 -0.6075  0.6277
   61SAPC  H14R 4777   5.686   0.569   6.518  0.7367 -1.8715  1.4131
   61SAPC  C215 4778   5.735   0.632   6.312 -0.5446 -0.0309 -0.8822
   61SAPC  H15R 4779   5.673   0.722   6.321  2.4496  2.0552  0.4814
   61SAPC  C216 4780   5.790   0.606   6.180 -0.1172 -0.1789  0.1965
   61SAPC  H16R 4781   5.722   0.532   6.134 -1.0140  1.9601 -2.1390
   61SAPC  H16S 4782   5.884   0.547   6.178 -0.1388 -0.4450  3.0288
   61SAPC  C217 4783   5.804   0.727   6.087  0.4181 -0.2308  0.3906
   61SAPC  H17R 4784   5.869   0.806   6.132 -1.3322  0.8448  1.1413
   61SAPC  H17S 4785   5.706   0.777   6.079 -0.0383 -1.0323  0.8086
   61SAPC  C218 4786   5.848   0.689   5.946  0.3790 -0.2543 -0.1314
   61SAPC  H18R 4787   5.835   0.784   5.891  0.4310 -0.2686 -0.1684
   61SAPC  H18S 4788   5.769   0.620   5.907  0.6016 -0.5279 -0.1004
   61SAPC  C219 4789   5.995   0.650   5.930  0.3639  0.0499 -0.1905
   61SAPC  H19R 4790   6.022   0.637   5.823 -0.3539 -0.8521 -0.2708
   61SAPC  H19S 4791   6.020   0.556   5.984 -1.7525  0.1099  0.9991
   61SAPC  C220 4792   6.087   0.759   5.989  0.0532  0.1288 -0.2676
   61SAPC  H20R 4793   6.052   0.848   5.933  1.0691 -0.7981 -2.5144
   61SAPC  H20S 4794   6.193   0.727   5.973  0.0698 -0.1941  0.4356
   61SAPC  H20T 4795   6.078   0.771   6.099 -1.3704 -2.2551 -0.0605
   61SAPC   C33 4796   5.252   0.143   6.876 -0.4629 -0.0323 -0.4467
   61SAPC   H3X 4797   5.346   0.084   6.874 -0.4362 -0.0294  0.5440
   61SAPC   H3Y 4798   5.281   0.249   6.888  0.3520 -0.2913 -0.0615
   61SAPC   C34 4799   5.189   0.134   6.738 -1.0004 -0.0600  0.0250
   61SAPC   H4X 4800   5.093   0.190   6.729 -1.7694 -1.4584 -0.8838
   61SAPC   H4Y 4801   5.158   0.034   6.702  2.5951 -0.8121 -1.4153
   61SAPC   C35 4802   5.279   0.198   6.621 -0.5383  0.1013 -0.3551
   61SAPC   H5X 4803   5.385   0.165   6.623 -0.3688  0.6349 -0.2823
   61SAPC   H5Y 4804   5.290   0.307   6.641 -0.7694 -0.1291  1.1558
   61SAPC   C36 4805   5.226   0.170   6.472 -0.0019  0.9645  0.5710
   61SAPC   H6X 4806   5.126   0.219   6.471  0.4093  1.8928  2.1960
   61SAPC   H6Y 4807   5.203   0.064   6.447  0.5848  1.4302 -2.3575
   61SAPC   C37 4808   5.317   0.220   6.364 -0.1067 -0.4234  0.2549
   61SAPC   H7X 4809   5.301   0.170   6.267  4.3017  1.0537 -1.5017
   61SAPC   H7Y 4810   5.421   0.191   6.389  0.4184  0.6152 -0.6223
   61SAPC   C38 4811   5.306   0.378   6.343  0.7280 -0.2578 -0.3566
   61SAPC   H8X 4812   5.311   0.423   6.444 -2.7472  0.5417 -0.4163
   61SAPC   H8Y 4813   5.204   0.395   6.303  0.1254 -0.8419  0.9017
   61SAPC   C39 4814   5.407   0.415   6.241 -0.2537 -0.4024  0.5710
   61SAPC   H9X 4815   5.377   0.369   6.144 -0.6762  0.2789  0.3670
   61SAPC   H9Y 4816   5.505   0.374   6.272  0.3317 -0.3872 -1.1212
   61SAPC  C310 4817   5.423   0.562   6.220 -0.4623 -0.0860 -0.3598
   61SAPC  H10X 4818   5.518   0.583   6.168  0.7023 -4.9592 -0.7126
   61SAPC  H10Y 4819   5.415   0.612   6.318  0.3089  2.3965 -1.4859
   61SAPC  C311 4820   5.308   0.620   6.143  0.3774 -0.1645  0.7177
   61SAPC  H11X 4821   5.299   0.726   6.176 -2.7846 -0.2019  0.2338
   61SAPC  H11Y 4822   5.213   0.579   6.181  1.7763 -2.0164  2.4271
   61SAPC  C312 4823   5.337   0.619   5.984  1.2275  0.0763 -0.4637
   61SAPC  H12X 4824   5.359   0.516   5.948 -0.9283  0.2993 -2.7262
   61SAPC  H12Y 4825   5.420   0.686   5.956  1.5813 -0.7260 -1.3950
   61SAPC  C313 4826   5.203   0.647   5.908  0.0565 -0.0123  0.4241
   61SAPC  H13X 4827   5.160   0.727   5.972 -1.4560  1.2789 -2.0532
   61SAPC  H13Y 4828   5.139   0.557   5.914 -0.6015  0.4299  0.1475
   61SAPC  C314 4829   5.235   0.682   5.765 -0.5280 -0.6697  0.1244
   61SAPC  H14X 4830   5.303   0.769   5.753 -1.7853  0.2040 -0.9917
   61SAPC  H14Y 4831   5.141   0.717   5.716 -0.5592 -1.0063 -0.0606
   61SAPC  C315 4832   5.288   0.563   5.688  0.3912  0.2027 -0.0625
   61SAPC  H15X 4833   5.210   0.484   5.692 -0.9316  1.4285 -0.7500
   61SAPC  H15Y 4834   5.379   0.520   5.735  0.3013  0.0099 -0.0630
   61SAPC  C316 4835   5.340   0.603   5.548 -0.3843  0.1067  0.2890
   61SAPC  H16X 4836   5.253   0.624   5.482 -0.4197  0.8428  0.5667
   61SAPC  H16Y 4837   5.391   0.509   5.515 -2.0993 -1.0549  0.8179
   61SAPC  C317 4838   5.445   0.711   5.546 -0.3499 -0.6872  0.1639
   61SAPC  H17X 4839   5.400   0.812   5.550  0.8174 -0.1283 -0.2865
   61SAPC  H17Y 4840   5.497   0.713   5.447 -0.4449  0.4852  0.1267
   61SAPC  C318 4841   5.550   0.693   5.655  0.9706 -0.1977  0.1811
   61SAPC  H18X 4842   5.512   0.710   5.758  1.3762  0.4044  0.2341
   61SAPC  H18Y 4843   5.633   0.764   5.638  0.4877  0.5369  0.8484
   61SAPC  H18Z 4844   5.595   0.591   5.650  0.8286 -0.2069 -1.2370
   62SAPC     N 4845   1.485   6.398   7.222 -0.0098 -0.4181  0.3737
   62SAPC   C12 4846   1.533   6.544   7.247  0.7583 -0.3733 -0.6541
   62SAPC  H12A 4847   1.476   6.613   7.185 -1.0159 -2.0875 -1.0299
   62SAPC  H12B 4848   1.638   6.554   7.224  0.4524 -0.0320 -2.0101
   62SAPC   C13 4849   1.574   6.301   7.276 -0.2903 -0.4095  0.1939
   62SAPC  H13A 4850   1.583   6.317   7.383 -0.8082  0.0743  0.1724
   62SAPC  H13B 4851   1.546   6.197   7.267  1.1943 -0.9262  1.0855
   62SAPC  H13C 4852   1.668   6.293   7.224  0.3547  0.5672  1.1668
   62SAPC   C14 4853   1.343   6.366   7.269 -0.0557  0.3075 -1.0225
   62SAPC  H14A 4854   1.270   6.430   7.221 -1.8645 -0.8499  0.0730
   62SAPC  H14B 4855   1.328   6.263   7.242  1.8994  0.3941 -2.6662
   62SAPC  H14C 4856   1.354   6.380   7.375  1.2383 -2.7803 -0.6663
   62SAPC   C15 4857   1.495   6.400   7.068  0.3654 -1.0356 -0.2747
   62SAPC  H15A 4858   1.433   6.480   7.029  2.0703  0.9473  0.8816
   62SAPC  H15B 4859   1.596   6.424   7.041  1.3140  0.1796  3.7178
   62SAPC  H15C 4860   1.457   6.311   7.018  2.4549 -1.5040 -1.1264
   62SAPC   C11 4861   1.515   6.594   7.385  0.1721  0.3459  0.4200
   62SAPC  H11A 4862   1.546   6.700   7.382 -1.6636  0.9363  0.8529
   62SAPC  H11B 4863   1.575   6.523   7.445 -1.3486 -1.4595 -0.0558
   62SAPC     P 4864   1.312   6.690   7.519 -0.0312 -0.2567  0.0954
   62SAPC   O13 4865   1.175   6.654   7.550 -0.7141 -0.2479  0.4033
   62SAPC   O14 4866   1.406   6.723   7.631 -0.1284 -0.2710  0.4058
   62SAPC   O12 4867   1.381   6.579   7.435  0.2191 -0.8133 -0.2202
   62SAPC   O11 4868   1.311   6.810   7.419  0.8336 -0.0178  0.2805
   62SAPC    C1 4869   1.216   6.829   7.316 -0.7114 -0.3030 -0.7393
   62SAPC    HA 4870   1.117   6.784   7.341 -0.3724  0.7846  3.1108
   62SAPC    HB 4871   1.200   6.938   7.302  2.1101  0.6850  2.4618
   62SAPC    C2 4872   1.271   6.784   7.187 -0.2855 -0.0743  0.0152
   62SAPC    HS 4873   1.318   6.684   7.199  1.8586  0.5319 -2.4674
   62SAPC   O21 4874   1.369   6.877   7.147  0.2848 -0.0978  0.3585
   62SAPC   C21 4875   1.443   6.833   7.042  0.3115 -0.6312  0.2731
   62SAPC   O22 4876   1.442   6.714   7.011  0.1040  0.1191 -0.5331
   62SAPC   C22 4877   1.511   6.956   6.983 -0.5392 -0.0113 -0.2051
   62SAPC   H2R 4878   1.459   7.045   7.025  0.0760 -0.4823  1.6506
   62SAPC   H2S 4879   1.620   6.958   7.004 -0.4644  2.0539 -0.6513
   62SAPC    C3 4880   1.162   6.758   7.076 -0.2974  0.2458 -0.0501
   62SAPC    HX 4881   1.099   6.679   7.122  0.2942  0.2785  0.8332
   62SAPC    HY 4882   1.206   6.722   6.981  1.9170  1.0851  0.5894
   62SAPC   O31 4883   1.085   6.874   7.050 -0.3034 -0.0281  0.2331
   62SAPC   C31 4884   0.990   6.869   6.972 -0.0486 -0.2106 -0.5329
   62SAPC   O32 4885   0.942   6.773   6.912  0.0953 -0.4264  0.1381
   62SAPC   C32 4886   0.958   7.017   6.924  0.1771 -0.3099 -0.1830
   62SAPC   H2X 4887   0.900   7.064   7.006 -0.1916  1.8385 -1.5914
   62SAPC   H2Y 4888   0.892   7.018   6.834  0.7455  1.6308 -0.6263
   62SAPC   C23 4889   1.500   6.958   6.829 -0.3007 -0.1451  0.2102
   62SAPC   H3R 4890   1.394   6.966   6.798 -0.8395  0.6918  2.1125
   62SAPC   H3S 4891   1.540   6.866   6.781 -2.9547 -1.2732 -0.0402
   62SAPC   C24 4892   1.570   7.081   6.768 -0.7349 -0.7150  0.3743
   62SAPC   H4R 4893   1.583   7.053   6.661 -1.4555 -0.2833  0.1712
   62SAPC   H4S 4894   1.670   7.095   6.814 -1.2107 -0.0190  1.2153
   62SAPC   C25 4895   1.495   7.215   6.788  0.6348  0.4334  0.4886
   62SAPC   H5R 4896   1.501   7.255   6.890  0.6576 -0.3550  0.8045
   62SAPC   C26 4897   1.443   7.282   6.686  0.2121 -0.1244  0.0236
   62SAPC   H6R 4898   1.389   7.378   6.695 -1.1525 -0.6047 -2.1829
   62SAPC   C27 4899   1.446   7.239   6.542  0.3852 -0.6264  0.2760
   62SAPC   H7R 4900   1.353   7.279   6.495 -0.5636 -0.9311  1.8021
   62SAPC   H7S 4901   1.435   7.129   6.533  0.2402 -0.6098  0.2489
   62SAPC   C28 4902   1.569   7.278   6.453 -0.0606  0.0931 -1.0905
   62SAPC   H8R 4903   1.647   7.330   6.510  0.8362 -1.0321 -1.2683
   62SAPC   C29 4904   1.593   7.244   6.324  0.3353  0.3601  0.5453
   62SAPC   H9R 4905   1.687   7.274   6.277  0.5770 -0.4182  0.5154
   62SAPC  C210 4906   1.506   7.173   6.222 -0.6473 -0.4824 -0.0884
   62SAPC  H10R 4907   1.453   7.091   6.276 -0.9610  0.9035  1.8218
   62SAPC  H10S 4908   1.565   7.125   6.142 -0.7277  0.4246 -0.7152
   62SAPC  C211 4909   1.403   7.271   6.165 -0.3355  0.1086  0.2895
   62SAPC  H11R 4910   1.324   7.298   6.237  0.6595 -1.0093  1.8780
   62SAPC  C212 4911   1.403   7.329   6.042 -0.6380 -0.1180 -0.6813
   62SAPC  H12R 4912   1.327   7.406   6.019  0.9790  1.4176 -1.0352
   62SAPC  C213 4913   1.494   7.298   5.932 -0.0672 -1.2114  0.6964
   62SAPC  H13R 4914   1.431   7.253   5.852 -1.3973 -2.5028  2.3874
   62SAPC  H13S 4915   1.563   7.213   5.955 -0.9240 -1.8855  0.8476
   62SAPC  C214 4916   1.578   7.418   5.887 -0.1351  0.4313 -0.6831
   62SAPC  H14R 4917   1.620   7.475   5.972 -3.4445 -1.3959  2.4229
   62SAPC  C215 4918   1.601   7.466   5.760  0.2248  0.4611 -0.6020
   62SAPC  H15R 4919   1.673   7.549   5.756 -0.1351  0.8111 -0.0542
   62SAPC  C216 4920   1.557   7.402   5.633  0.1990  0.4763 -0.3851
   62SAPC  H16R 4921   1.517   7.299   5.645  1.2586 -0.0234 -0.9813
   62SAPC  H16S 4922   1.631   7.396   5.551  0.3833 -1.6320 -0.1103
   62SAPC  C217 4923   1.435   7.474   5.565 -0.0945 -0.1512 -0.4851
   62SAPC  H17R 4924   1.351   7.477   5.637  0.2728 -1.6098  0.0523
   62SAPC  H17S 4925   1.396   7.414   5.479 -0.5719 -2.4740  1.2534
   62SAPC  C218 4926   1.462   7.613   5.503 -0.2660 -1.0255 -0.8681
   62SAPC  H18R 4927   1.570   7.609   5.479  0.4710 -0.9158  1.9915
   62SAPC  H18S 4928   1.448   7.686   5.587 -0.0882 -0.8012 -1.0336
   62SAPC  C219 4929   1.388   7.666   5.381 -0.2305 -0.2136 -0.3886
   62SAPC  H19R 4930   1.277   7.668   5.388 -0.3783 -1.6489 -1.6879
   62SAPC  H19S 4931   1.405   7.584   5.307 -0.4480 -0.5178 -0.1045
   62SAPC  C220 4932   1.426   7.806   5.328  0.0052  0.4705 -0.2602
   62SAPC  H20R 4933   1.387   7.892   5.386 -0.6976  1.3216 -1.9227
   62SAPC  H20S 4934   1.392   7.812   5.222  0.7325  1.7903 -0.4449
   62SAPC  H20T 4935   1.537   7.811   5.321 -0.0070  1.3720  0.0334
   62SAPC   C33 4936   1.088   7.094   6.888 -0.0988  0.4110 -0.6960
   62SAPC   H3X 4937   1.168   7.076   6.962 -1.7283  1.1341  1.3312
   62SAPC   H3Y 4938   1.070   7.203   6.876  1.7231  1.0585  1.5662
   62SAPC   C34 4939   1.145   7.065   6.742  0.0008 -0.7627 -0.1948
   62SAPC   H4X 4940   1.161   6.956   6.731  1.7952 -0.4346 -1.1854
   62SAPC   H4Y 4941   1.247   7.109   6.744 -0.9686  1.6850  0.2150
   62SAPC   C35 4942   1.069   7.133   6.626  0.0537 -0.8589  0.3752
   62SAPC   H5X 4943   1.099   7.239   6.634 -1.7079 -0.3144  0.3777
   62SAPC   H5Y 4944   0.961   7.138   6.652 -0.1396  1.7552 -0.6882
   62SAPC   C36 4945   1.102   7.070   6.486 -0.0433 -0.3265  0.3423
   62SAPC   H6X 4946   1.075   6.962   6.485  0.3535 -0.4419  1.0297
   62SAPC   H6Y 4947   1.212   7.083   6.473 -0.2910 -0.2416 -1.9329
   62SAPC   C37 4948   1.020   7.131   6.371 -0.3498 -0.1573  0.4506
   62SAPC   H7X 4949   1.048   7.238   6.373  0.0885 -0.2810  1.3786
   62SAPC   H7Y 4950   0.911   7.110   6.384 -0.2898 -0.7640  0.0196
   62SAPC   C38 4951   1.059   7.056   6.238  0.0561 -0.9217 -0.1617
   62SAPC   H8X 4952   0.998   6.964   6.234 -0.0316 -0.8463 -0.6613
   62SAPC   H8Y 4953   1.165   7.028   6.220  0.0285 -0.1436 -1.7878
   62SAPC   C39 4954   1.020   7.126   6.106  0.0614  0.1163  0.2433
   62SAPC   H9X 4955   1.065   7.227   6.095 -0.8862  0.4937 -0.2995
   62SAPC   H9Y 4956   0.909   7.134   6.106  0.1047  0.8993 -0.2227
   62SAPC  C310 4957   1.048   7.042   5.982  0.6345 -0.6086  0.1838
   62SAPC  H10X 4958   1.003   6.940   5.985  0.3954 -0.4788  2.2347
   62SAPC  H10Y 4959   1.155   7.010   5.981  0.9737  0.2843  2.2862
   62SAPC  C311 4960   0.989   7.115   5.860  0.3344 -0.6880  0.4776
   62SAPC  H11X 4961   1.015   7.223   5.866 -2.1675  0.2429 -2.9250
   62SAPC  H11Y 4962   0.879   7.108   5.852  0.4573 -1.0431 -1.2624
   62SAPC  C312 4963   1.061   7.071   5.731  0.6699  0.5187 -0.6055
   62SAPC  H12X 4964   1.165   7.040   5.752 -0.4301 -2.5956  0.7905
   62SAPC  H12Y 4965   1.071   7.154   5.657  1.1117  1.4200  0.4354
   62SAPC  C313 4966   1.001   6.945   5.667 -0.9183 -0.0411 -0.5375
   62SAPC  H13X 4967   0.901   6.981   5.633 -0.2845  2.2470 -0.1415
   62SAPC  H13Y 4968   0.987   6.868   5.746 -3.5444  1.2139  0.3615
   62SAPC  C314 4969   1.090   6.896   5.551 -0.1649  0.5552  0.0776
   62SAPC  H14X 4970   1.194   6.871   5.581  0.0253 -0.7246 -1.4713
   62SAPC  H14Y 4971   1.091   6.978   5.476 -2.1073  2.1582  1.6881
   62SAPC  C315 4972   1.039   6.752   5.502  0.2743  0.6401 -0.4149
   62SAPC  H15X 4973   0.939   6.751   5.452 -0.2909 -0.4422  0.6798
   62SAPC  H15Y 4974   1.038   6.685   5.591 -0.3065 -1.6304 -2.0644
   62SAPC  C316 4975   1.139   6.690   5.396 -0.2528  0.3879 -0.0426
   62SAPC  H16X 4976   1.107   6.587   5.370 -2.4538  0.4597  2.0475
   62SAPC  H16Y 4977   1.242   6.671   5.433  0.4440 -1.5776 -2.6762
   62SAPC  C317 4978   1.148   6.776   5.274  0.1639  0.1450 -0.3319
   62SAPC  H17X 4979   1.191   6.873   5.306 -1.8810  1.0930 -0.2918
   62SAPC  H17Y 4980   1.043   6.799   5.245 -0.2956 -0.7547  0.5716
   62SAPC  C318 4981   1.225   6.729   5.149 -0.5515  0.2057 -0.0544
   62SAPC  H18X 4982   1.246   6.801   5.067 -1.8187  1.2057  0.4646
   62SAPC  H18Y 4983   1.176   6.641   5.101  0.6858 -0.7111  0.3137
   62SAPC  H18Z 4984   1.321   6.697   5.194 -0.8402  0.3329  0.6629
   63SAPC     N 4985   1.973   4.170   7.194  0.9421  0.0772  0.0000
   63SAPC   C12 4986   1.922   4.254   7.311 -0.0227  0.4196  0.2530
   63SAPC  H12A 4987   1.977   4.346   7.308  0.9461 -0.1695 -1.0641
   63SAPC  H12B 4988   1.949   4.221   7.410 -2.3626  3.4942  2.1040
   63SAPC   C13 4989   2.119   4.145   7.200 -0.1298  0.2399  0.2993
   63SAPC  H13A 4990   2.146   4.073   7.125  2.5292 -0.9713  2.2401
   63SAPC  H13B 4991   2.180   4.234   7.191  0.5887 -0.2561  0.1783
   63SAPC  H13C 4992   2.138   4.101   7.297  1.1032  0.0801  0.0011
   63SAPC   C14 4993   1.902   4.039   7.185 -0.4911  0.1042  0.3850
   63SAPC  H14A 4994   1.938   3.980   7.103  0.6675 -0.0420  0.9736
   63SAPC  H14B 4995   1.929   3.983   7.274  1.1541  0.0833 -0.0863
   63SAPC  H14C 4996   1.795   4.053   7.184 -0.5291  0.8360  3.4973
   63SAPC   C15 4997   1.939   4.241   7.069  0.0494  0.1166  0.7820
   63SAPC  H15A 4998   1.964   4.193   6.975 -0.0913  1.6637 -0.0831
   63SAPC  H15B 4999   1.836   4.272   7.064  0.4337  1.2172 -1.8482
   63SAPC  H15C 5000   2.000   4.329   7.059 -0.1951  0.2808  0.7311
   63SAPC   C11 5001   1.772   4.294   7.322  0.2087  0.5472 -0.4753
   63SAPC  H11A 5002   1.738   4.332   7.224  0.7621 -0.4112 -1.0590
   63SAPC  H11B 5003   1.776   4.375   7.398  2.1382 -1.6827  2.0040
   63SAPC     P 5004   1.538   4.207   7.382 -0.3581 -0.0564  0.2236
   63SAPC   O13 5005   1.508   4.118   7.493 -0.2104 -0.3219  0.6532
   63SAPC   O14 5006   1.499   4.349   7.396  0.2865 -0.3600  0.1427
   63SAPC   O12 5007   1.695   4.182   7.357 -0.2267 -0.0234  0.7822
   63SAPC   O11 5008   1.471   4.140   7.254  0.8059  0.3620 -0.9133
   63SAPC    C1 5009   1.491   4.194   7.123 -0.0281 -0.4622 -0.2937
   63SAPC    HA 5010   1.390   4.210   7.081 -0.4507 -0.5804  0.6694
   63SAPC    HB 5011   1.543   4.292   7.111 -1.0521  0.7072  3.4014
   63SAPC    C2 5012   1.542   4.086   7.025 -0.0449  0.2802 -0.2323
   63SAPC    HS 5013   1.653   4.081   7.031 -0.1336 -1.9356  0.1945
   63SAPC   O21 5014   1.505   4.128   6.891 -0.2689 -0.2920 -0.7505
   63SAPC   C21 5015   1.595   4.207   6.837  0.3708 -0.0824  0.1920
   63SAPC   O22 5016   1.694   4.259   6.884 -0.0907 -0.3416  0.5889
   63SAPC   C22 5017   1.551   4.226   6.688  0.0224 -0.5862 -0.2603
   63SAPC   H2R 5018   1.441   4.210   6.677 -0.2218 -0.1798  1.3305
   63SAPC   H2S 5019   1.571   4.329   6.651 -1.9190  0.2091  0.7076
   63SAPC    C3 5020   1.481   3.944   7.056 -0.0618  0.4402  0.3457
   63SAPC    HX 5021   1.376   3.956   7.021  0.1090 -0.1261 -0.4015
   63SAPC    HY 5022   1.469   3.918   7.163 -0.4831  0.4100  0.2908
   63SAPC   O31 5023   1.563   3.854   6.978 -0.3578 -1.1306  0.5380
   63SAPC   C31 5024   1.518   3.729   6.996 -0.1752 -0.4861  0.2780
   63SAPC   O32 5025   1.438   3.685   7.075 -0.3761  0.0925 -0.5530
   63SAPC   C32 5026   1.583   3.635   6.900  0.5491  0.1295  0.2153
   63SAPC   H2X 5027   1.660   3.572   6.949  1.5774  2.7938  2.2631
   63SAPC   H2Y 5028   1.640   3.685   6.819  1.5071 -2.8484 -1.0928
   63SAPC   C23 5029   1.631   4.131   6.592 -0.0483 -0.0232  0.5100
   63SAPC   H3R 5030   1.611   4.027   6.624 -1.2209 -0.6913 -2.1355
   63SAPC   H3S 5031   1.740   4.147   6.608 -0.1612  1.9860 -0.3915
   63SAPC   C24 5032   1.581   4.145   6.444  0.0659 -0.6962 -0.4547
   63SAPC   H4R 5033   1.662   4.116   6.374  0.9142 -2.5099  1.1612
   63SAPC   H4S 5034   1.568   4.255   6.437  3.1915 -0.1729  0.6293
   63SAPC   C25 5035   1.450   4.073   6.421 -0.3746 -0.9844 -0.4189
   63SAPC   H5R 5036   1.378   4.066   6.504 -0.7098 -0.4716 -0.6601
   63SAPC   C26 5037   1.397   4.040   6.294 -0.3605 -0.1808  0.0798
   63SAPC   H6R 5038   1.297   3.993   6.290 -0.8340  0.7489  0.4574
   63SAPC   C27 5039   1.456   4.053   6.160 -0.1615 -0.2809  0.0050
   63SAPC   H7R 5040   1.564   4.026   6.167 -0.0376  0.3023  0.4146
   63SAPC   H7S 5041   1.448   4.160   6.131 -1.3060 -1.0389 -2.7493
   63SAPC   C28 5042   1.393   3.975   6.047 -0.3005  0.5711 -1.1044
   63SAPC   H8R 5043   1.296   3.929   6.070 -0.9368  2.3389 -0.0755
   63SAPC   C29 5044   1.442   3.984   5.922 -0.0602 -0.3393 -0.1072
   63SAPC   H9R 5045   1.391   3.928   5.843  1.1779 -1.4311 -0.1582
   63SAPC  C210 5046   1.576   4.040   5.882 -0.2993 -0.1436 -0.2474
   63SAPC  H10R 5047   1.639   4.061   5.971  2.1316 -0.7575 -1.7146
   63SAPC  H10S 5048   1.558   4.140   5.837  1.0667  1.6616  2.8873
   63SAPC  C211 5049   1.653   3.945   5.795 -0.0857 -0.7394 -0.8660
   63SAPC  H11R 5050   1.725   3.880   5.848  0.6301 -1.1336 -2.2568
   63SAPC  C212 5051   1.651   3.935   5.661 -0.2453  0.5351  0.8102
   63SAPC  H12R 5052   1.717   3.868   5.604 -1.1361  1.3171 -1.2334
   63SAPC  C213 5053   1.556   4.012   5.578 -0.2830  0.0854 -0.0058
   63SAPC  H13R 5054   1.593   4.117   5.573  0.8824 -0.2800  0.5263
   63SAPC  H13S 5055   1.457   4.027   5.627  0.1875  1.6551  0.5181
   63SAPC  C214 5056   1.526   3.943   5.446  0.1438  0.1440  0.2386
   63SAPC  H14R 5057   1.439   3.876   5.443  0.5070 -0.3088 -0.4728
   63SAPC  C215 5058   1.605   3.945   5.341  0.7144  0.0789  0.0037
   63SAPC  H15R 5059   1.574   3.883   5.255  0.6630  0.7081 -0.4335
   63SAPC  C216 5060   1.737   4.025   5.333 -0.0343 -0.5249  0.4929
   63SAPC  H16R 5061   1.817   3.951   5.313 -0.1136 -0.1532 -1.4450
   63SAPC  H16S 5062   1.759   4.077   5.429  1.5014  0.5022 -0.3731
   63SAPC  C217 5063   1.741   4.134   5.223 -0.8353  0.1888 -0.0060
   63SAPC  H17R 5064   1.833   4.196   5.231  0.0534 -1.1695  0.7557
   63SAPC  H17S 5065   1.657   4.203   5.244  0.2726  1.2956  0.9429
   63SAPC  C218 5066   1.744   4.069   5.086  0.5865  0.8206 -0.4935
   63SAPC  H18R 5067   1.645   4.021   5.077 -0.4660  3.1838 -2.6838
   63SAPC  H18S 5068   1.827   3.995   5.085  1.1173  1.4057 -1.8663
   63SAPC  C219 5069   1.768   4.167   4.977 -0.2942 -0.5939  0.3083
   63SAPC  H19R 5070   1.866   4.217   4.997 -0.2124  0.4004 -2.2525
   63SAPC  H19S 5071   1.700   4.255   4.980 -1.7728 -1.6602 -0.7349
   63SAPC  C220 5072   1.765   4.091   4.840 -0.5526 -0.1600 -0.0162
   63SAPC  H20R 5073   1.793   4.157   4.756 -0.8854 -2.0121 -1.6574
   63SAPC  H20S 5074   1.669   4.035   4.837 -0.3677 -0.4765 -0.0956
   63SAPC  H20T 5075   1.842   4.012   4.844 -1.3243 -0.9161  0.2812
   63SAPC   C33 5076   1.472   3.548   6.836 -0.2716  0.2365  0.3376
   63SAPC   H3X 5077   1.380   3.610   6.823  1.8264  3.2124 -1.4087
   63SAPC   H3Y 5078   1.444   3.461   6.899 -1.7702  1.5465  1.6074
   63SAPC   C34 5079   1.513   3.512   6.696  0.0931  0.4597  0.3091
   63SAPC   H4X 5080   1.453   3.428   6.655 -1.8818  1.2654  1.4138
   63SAPC   H4Y 5081   1.618   3.478   6.707  0.3847  0.7910 -1.3156
   63SAPC   C35 5082   1.511   3.631   6.596  0.1915  0.0030 -0.5355
   63SAPC   H5X 5083   1.574   3.712   6.638 -1.2513  2.1302 -2.2535
   63SAPC   H5Y 5084   1.405   3.666   6.593 -0.5917 -1.9137  1.7308
   63SAPC   C36 5085   1.558   3.596   6.456 -0.2860 -0.5579  0.1832
   63SAPC   H6X 5086   1.489   3.523   6.408  0.8430 -0.5453 -1.5236
   63SAPC   H6Y 5087   1.664   3.563   6.459  0.6639  2.2631  1.1466
   63SAPC   C37 5088   1.552   3.722   6.362 -0.1835  0.3261 -0.8807
   63SAPC   H7X 5089   1.598   3.808   6.414 -2.8617  0.7141  1.0395
   63SAPC   H7Y 5090   1.444   3.739   6.340 -0.1629 -0.7567 -1.9499
   63SAPC   C38 5091   1.639   3.692   6.229  0.1296 -0.1155  0.0609
   63SAPC   H8X 5092   1.737   3.653   6.262  1.3544  2.4008 -0.3758
   63SAPC   H8Y 5093   1.661   3.785   6.173  0.2085 -0.2158 -0.0765
   63SAPC   C39 5094   1.568   3.581   6.143 -0.0489 -0.2402 -0.2500
   63SAPC   H9X 5095   1.466   3.620   6.124 -0.1234 -0.1100  0.3806
   63SAPC   H9Y 5096   1.569   3.485   6.199  2.4656  0.8917  1.8904
   63SAPC  C310 5097   1.643   3.573   6.008  0.6992  0.3585 -0.0700
   63SAPC  H10X 5098   1.752   3.551   6.017  0.5975 -0.6908 -1.1021
   63SAPC  H10Y 5099   1.653   3.675   5.966 -0.2142 -0.6939 -3.1407
   63SAPC  C311 5100   1.575   3.466   5.920 -0.4863  0.0907  0.1422
   63SAPC  H11X 5101   1.478   3.518   5.906 -0.4516 -0.4748 -2.8868
   63SAPC  H11Y 5102   1.569   3.368   5.972  0.3523  0.4775  1.0077
   63SAPC  C312 5103   1.647   3.445   5.786  0.1611  0.2376  0.4650
   63SAPC  H12X 5104   1.601   3.362   5.729 -0.1471  0.1373  0.8566
   63SAPC  H12Y 5105   1.754   3.421   5.803  0.5168  1.4067 -0.0148
   63SAPC  C313 5106   1.635   3.573   5.702 -0.2919 -1.0006  0.7350
   63SAPC  H13X 5107   1.683   3.651   5.766  1.0698 -0.8835 -0.4075
   63SAPC  H13Y 5108   1.525   3.588   5.689  0.1317  1.4645 -0.6027
   63SAPC  C314 5109   1.688   3.567   5.556 -0.0456 -0.4355  0.3871
   63SAPC  H14X 5110   1.798   3.561   5.564  0.3459  3.2098 -0.5269
   63SAPC  H14Y 5111   1.663   3.665   5.510  0.0511 -0.1011  1.0409
   63SAPC  C315 5112   1.630   3.456   5.473 -0.5506  0.3878  0.4579
   63SAPC  H15X 5113   1.520   3.464   5.487 -0.4987  2.6566 -0.0406
   63SAPC  H15Y 5114   1.672   3.358   5.506 -1.4953  0.0105  0.5860
   63SAPC  C316 5115   1.660   3.479   5.323  0.4219  0.4677 -0.2502
   63SAPC  H16X 5116   1.622   3.577   5.287  0.2114 -0.2367 -2.1058
   63SAPC  H16Y 5117   1.587   3.410   5.275 -0.3820 -0.1273  1.7350
   63SAPC  C317 5118   1.808   3.469   5.288  0.3697 -0.0835  0.3695
   63SAPC  H17X 5119   1.857   3.568   5.303  1.1499 -0.5666  1.1159
   63SAPC  H17Y 5120   1.812   3.458   5.177 -0.0308 -4.5661  0.6263
   63SAPC  C318 5121   1.901   3.365   5.351  0.2571  0.0037 -0.0701
   63SAPC  H18X 5122   2.000   3.353   5.302  0.6326 -0.6497  0.8275
   63SAPC  H18Y 5123   1.837   3.275   5.338 -3.2084  2.3494 -0.7189
   63SAPC  H18Z 5124   1.907   3.363   5.462 -0.8794 -1.0841 -0.0047
   64SAPC     N 5125   0.663   4.552   7.168 -0.4870  0.7388  0.3259
   64SAPC   C12 5126   0.693   4.569   7.020 -0.8415  0.3748  0.2480
   64SAPC  H12A 5127   0.609   4.605   6.963 -1.0928  0.7626  0.8624
   64SAPC  H12B 5128   0.731   4.475   6.982  0.0052 -0.2113  2.3788
   64SAPC   C13 5129   0.558   4.449   7.179  0.0858 -0.4681 -0.0048
   64SAPC  H13A 5130   0.559   4.418   7.283 -1.6742  3.4940  1.4189
   64SAPC  H13B 5131   0.464   4.488   7.144 -0.5845  0.9320  3.0390
   64SAPC  H13C 5132   0.581   4.363   7.118  0.9022  0.1220 -0.5399
   64SAPC   C14 5133   0.786   4.508   7.255 -0.2903 -0.5179  0.2050
   64SAPC  H14A 5134   0.758   4.481   7.356 -0.1828  1.4455  0.8168
   64SAPC  H14B 5135   0.832   4.421   7.212 -0.1479  0.6916 -2.2837
   64SAPC  H14C 5136   0.862   4.585   7.254  1.2301 -1.9882  0.3547
   64SAPC   C15 5137   0.607   4.681   7.227 -0.2657  0.6962  0.3819
   64SAPC  H15A 5138   0.600   4.650   7.331  1.8678 -0.0895  0.3444
   64SAPC  H15B 5139   0.684   4.756   7.220  2.6918 -2.0304  1.1536
   64SAPC  H15C 5140   0.517   4.709   7.175 -0.7101 -2.3030 -0.6829
   64SAPC   C11 5141   0.817   4.663   6.992  0.2945 -0.0371  0.0068
   64SAPC  H11A 5142   0.895   4.641   7.068 -0.5461 -1.3082  0.5324
   64SAPC  H11B 5143   0.786   4.766   7.019 -3.3300 -0.5305 -1.5984
   64SAPC     P 5144   0.770   4.728   6.745 -0.5774  0.0691  0.0984
   64SAPC   O13 5145   0.788   4.874   6.764  0.3184 -0.5814  0.3853
   64SAPC   O14 5146   0.816   4.667   6.619 -0.4155  0.3612 -0.0470
   64SAPC   O12 5147   0.863   4.660   6.858  0.0056  0.1941 -0.1706
   64SAPC   O11 5148   0.623   4.682   6.790  0.4659 -0.0468  0.5058
   64SAPC    C1 5149   0.571   4.554   6.748  0.4523 -0.2069  0.1068
   64SAPC    HA 5150   0.651   4.483   6.716 -0.6324 -0.7258 -1.5772
   64SAPC    HB 5151   0.518   4.512   6.836 -1.3008  2.7951  0.6167
   64SAPC    C2 5152   0.452   4.559   6.645 -0.0378  0.1770  0.1180
   64SAPC    HS 5153   0.392   4.469   6.670  1.4960 -0.4306  1.8460
   64SAPC   O21 5154   0.501   4.557   6.507  0.1170  0.6093  0.2906
   64SAPC   C21 5155   0.549   4.445   6.466  0.4443  0.4535  0.0991
   64SAPC   O22 5156   0.559   4.340   6.532 -0.6076 -0.4832 -0.3144
   64SAPC   C22 5157   0.583   4.461   6.324 -0.2478  0.6908  0.1452
   64SAPC   H2R 5158   0.655   4.545   6.308 -0.9658  1.2862 -0.0317
   64SAPC   H2S 5159   0.638   4.367   6.304  0.0324  0.6514  1.0540
   64SAPC    C3 5160   0.366   4.695   6.669 -1.2080  0.4629 -0.3280
   64SAPC    HX 5161   0.430   4.781   6.642  1.3993 -0.9823  0.8895
   64SAPC    HY 5162   0.346   4.699   6.778 -0.1750 -1.4059 -0.0276
   64SAPC   O31 5163   0.241   4.699   6.598 -1.0548  0.0509 -0.1537
   64SAPC   C31 5164   0.145   4.605   6.627  0.0920 -0.0091 -0.0173
   64SAPC   O32 5165   0.153   4.524   6.716  0.5272 -0.0369  0.7090
   64SAPC   C32 5166   0.034   4.601   6.522 -0.2721  0.5923 -0.3331
   64SAPC   H2X 5167   0.079   4.593   6.421 -0.1400  0.4996 -0.2675
   64SAPC   H2Y 5168  -0.039   4.683   6.541  0.4633  1.3931 -0.9213
   64SAPC   C23 5169   0.459   4.475   6.233  0.1079  0.7386 -0.7550
   64SAPC   H3R 5170   0.387   4.554   6.263 -0.5989  0.1577 -0.8744
   64SAPC   H3S 5171   0.392   4.387   6.224  0.1236  0.8097 -1.6884
   64SAPC   C24 5172   0.491   4.495   6.084 -0.5924 -0.4261  0.7761
   64SAPC   H4R 5173   0.572   4.570   6.069 -1.1833 -0.0083 -0.4682
   64SAPC   H4S 5174   0.403   4.536   6.030 -1.2378 -2.1175  0.4781
   64SAPC   C25 5175   0.522   4.365   6.015 -0.6729  0.2898  0.4514
   64SAPC   H5R 5176   0.486   4.277   6.070 -1.6373  2.2162  3.1416
   64SAPC   C26 5177   0.581   4.349   5.886  0.3572 -0.8217  0.1963
   64SAPC   H6R 5178   0.581   4.245   5.848 -4.1175 -1.2647  0.8070
   64SAPC   C27 5179   0.629   4.456   5.784  0.3954 -0.1145 -0.3841
   64SAPC   H7R 5180   0.697   4.525   5.838 -0.3662 -1.2202  2.1161
   64SAPC   H7S 5181   0.537   4.510   5.752  1.5417  0.8103 -2.3334
   64SAPC   C28 5182   0.688   4.398   5.658 -0.8907  0.1532 -0.3992
   64SAPC   H8R 5183   0.724   4.296   5.680 -1.2894  0.5784  2.7485
   64SAPC   C29 5184   0.702   4.453   5.537 -0.0476  0.2844  0.4070
   64SAPC   H9R 5185   0.756   4.398   5.459  1.4882  1.1476  0.8156
   64SAPC  C210 5186   0.642   4.582   5.475  0.0900 -0.6388  0.3972
   64SAPC  H10R 5187   0.583   4.635   5.552 -0.7716 -2.5903  1.1229
   64SAPC  H10S 5188   0.566   4.546   5.403  2.3329 -1.6020 -1.6396
   64SAPC  C211 5189   0.735   4.683   5.412  0.0781  0.9034 -0.5965
   64SAPC  H11R 5190   0.812   4.714   5.484  0.6185 -0.6452 -0.4680
   64SAPC  C212 5191   0.757   4.724   5.283  0.7024  0.2948  0.2308
   64SAPC  H12R 5192   0.821   4.810   5.261  1.3143 -0.8832 -3.2387
   64SAPC  C213 5193   0.677   4.681   5.159 -0.3524  0.7993 -0.2102
   64SAPC  H13R 5194   0.624   4.765   5.110 -0.7472  0.4810 -0.3361
   64SAPC  H13S 5195   0.597   4.617   5.202  0.6608  0.8566  1.8589
   64SAPC  C214 5196   0.745   4.599   5.053  0.0816 -0.6956 -0.0960
   64SAPC  H14R 5197   0.713   4.495   5.047  2.8336 -1.9651  3.4827
   64SAPC  C215 5198   0.831   4.643   4.961 -1.1192 -0.7932  0.1331
   64SAPC  H15R 5199   0.875   4.564   4.897  0.5008 -0.2332  0.5290
   64SAPC  C216 5200   0.894   4.782   4.953 -0.1962 -0.9592 -0.2600
   64SAPC  H16R 5201   0.828   4.858   5.000 -1.2468 -1.7513 -0.4163
   64SAPC  H16S 5202   0.869   4.819   4.852 -0.6114  1.3510  0.6288
   64SAPC  C217 5203   1.044   4.800   4.994 -0.3351  0.9055 -0.3249
   64SAPC  H17R 5204   1.108   4.734   4.932 -0.2176 -1.8818  2.5156
   64SAPC  H17S 5205   1.053   4.761   5.098 -1.5088  0.0280 -0.5405
   64SAPC  C218 5206   1.077   4.949   4.981 -0.3565 -0.4688 -0.4747
   64SAPC  H18R 5207   1.012   5.004   5.053  1.1446  0.3863  0.2697
   64SAPC  H18S 5208   1.059   4.991   4.880 -0.9852  0.7045  0.1043
   64SAPC  C219 5209   1.226   4.978   5.037  0.3585  0.3864  0.1717
   64SAPC  H19R 5210   1.221   4.953   5.146  1.9185  3.5422  1.0665
   64SAPC  H19S 5211   1.246   5.087   5.032 -2.4159  0.9412 -0.5379
   64SAPC  C220 5212   1.335   4.895   4.973  0.1488 -0.2345 -0.1779
   64SAPC  H20R 5213   1.330   4.788   5.003 -1.7154  0.0303  0.6332
   64SAPC  H20S 5214   1.438   4.934   4.982  0.0043  0.0953  0.0995
   64SAPC  H20T 5215   1.315   4.902   4.864 -1.9131  1.0910  0.2355
   64SAPC   C33 5216  -0.043   4.469   6.543 -0.4293 -0.3099  0.0618
   64SAPC   H3X 5217  -0.063   4.465   6.652  0.4114 -0.5429  0.2157
   64SAPC   H3Y 5218   0.034   4.391   6.525 -0.5013  0.0150 -1.8627
   64SAPC   C34 5219  -0.171   4.461   6.455  0.0984 -0.0951  0.2918
   64SAPC   H4X 5220  -0.227   4.545   6.501  2.5499  1.5961  0.3625
   64SAPC   H4Y 5221  -0.209   4.359   6.478  0.1731 -0.6707 -1.9403
   64SAPC   C35 5222  -0.158   4.484   6.308  0.1743 -0.2572  0.2806
   64SAPC   H5X 5223  -0.121   4.589   6.300  1.1990 -0.6031  0.3199
   64SAPC   H5Y 5224  -0.258   4.467   6.264 -0.3210  0.2584  1.1711
   64SAPC   C36 5225  -0.049   4.391   6.246  0.6510 -0.6831 -0.1579
   64SAPC   H6X 5226  -0.054   4.289   6.289 -1.3602  0.0730  1.5774
   64SAPC   H6Y 5227   0.053   4.433   6.261  2.3443 -3.6830 -2.2249
   64SAPC   C37 5228  -0.074   4.367   6.090  0.0994 -0.0229 -0.5189
   64SAPC   H7X 5229  -0.045   4.463   6.043 -1.1720  0.6627  0.0510
   64SAPC   H7Y 5230  -0.180   4.364   6.056 -0.4232  3.5614  0.3110
   64SAPC   C38 5231   0.024   4.264   6.033 -0.0090 -0.2032  0.5231
   64SAPC   H8X 5232  -0.038   4.174   6.015  0.4627  0.0199 -2.8763
   64SAPC   H8Y 5233   0.101   4.244   6.111  0.5425  1.0497  0.3262
   64SAPC   C39 5234   0.092   4.307   5.903 -0.6695  0.4571  0.2775
   64SAPC   H9X 5235   0.168   4.229   5.879 -0.3690  1.1738 -1.3040
   64SAPC   H9Y 5236   0.148   4.403   5.907 -0.1278  0.1356  0.5107
   64SAPC  C310 5237   0.005   4.300   5.769  0.1613  0.4042  0.0244
   64SAPC  H10X 5238  -0.020   4.407   5.752 -1.5651  0.0286 -0.0077
   64SAPC  H10Y 5239  -0.089   4.250   5.800  0.3172 -0.9226 -1.5365
   64SAPC  C311 5240   0.071   4.236   5.652  0.6139 -0.3793  0.7267
   64SAPC  H11X 5241   0.005   4.250   5.563  1.1532  0.4777  0.4499
   64SAPC  H11Y 5242   0.080   4.126   5.663 -2.5195 -0.5776  2.6013
   64SAPC  C312 5243   0.211   4.301   5.625 -0.1035  0.4374  0.0362
   64SAPC  H12X 5244   0.284   4.271   5.703 -0.6980 -1.2010  0.0082
   64SAPC  H12Y 5245   0.198   4.411   5.612  2.8866  0.7480 -0.9792
   64SAPC  C313 5246   0.264   4.252   5.488  0.1425 -0.4736  0.8876
   64SAPC  H13X 5247   0.190   4.276   5.409  0.4574  2.0471  1.2892
   64SAPC  H13Y 5248   0.274   4.141   5.482 -0.9616 -0.5294 -0.1466
   64SAPC  C314 5249   0.404   4.313   5.456  0.5735 -0.2132  0.4340
   64SAPC  H14X 5250   0.477   4.248   5.509 -1.4730 -2.1059  1.0629
   64SAPC  H14Y 5251   0.409   4.414   5.502 -1.9489  0.8880 -1.4609
   64SAPC  C315 5252   0.437   4.340   5.309  0.7775  0.1815  0.9571
   64SAPC  H15X 5253   0.547   4.340   5.292  0.7115  0.4089  0.5004
   64SAPC  H15Y 5254   0.400   4.440   5.277 -2.4885 -1.2614 -0.3095
   64SAPC  C316 5255   0.402   4.221   5.223  0.4730  0.2641  0.4926
   64SAPC  H16X 5256   0.292   4.223   5.214  0.5960  0.8804 -1.1274
   64SAPC  H16Y 5257   0.439   4.128   5.272  3.8128  1.7552  1.0743
   64SAPC  C317 5258   0.453   4.218   5.071  0.2876  0.3299 -0.1094
   64SAPC  H17X 5259   0.386   4.157   5.007  0.9786  0.4799 -1.0025
   64SAPC  H17Y 5260   0.555   4.173   5.062  0.4442  0.3711  1.2577
   64SAPC  C318 5261   0.437   4.355   4.998 -0.3260 -0.4253 -0.8447
   64SAPC  H18X 5262   0.482   4.351   4.896  0.2705 -0.6146 -0.5757
   64SAPC  H18Y 5263   0.478   4.441   5.055 -3.0602  0.7471 -0.4821
   64SAPC  H18Z 5264   0.331   4.388   4.999 -0.6463 -1.3580 -1.7144
   65SAPC     N 5265   5.231   1.890   2.611  0.2611  0.1600 -0.5674
   65SAPC   C12 5266   5.139   1.956   2.721  0.3145  0.1960  0.8439
   65SAPC  H12A 5267   5.124   1.876   2.792  2.3776  1.2585  2.6182
   65SAPC  H12B 5268   5.040   1.972   2.682 -0.1614  0.2797  2.0293
   65SAPC   C13 5269   5.168   1.769   2.568 -0.2383 -0.2884  0.6952
   65SAPC  H13A 5270   5.230   1.717   2.497  0.0212 -0.5503  1.1076
   65SAPC  H13B 5271   5.152   1.698   2.648  0.3122 -0.8822  0.2885
   65SAPC  H13C 5272   5.072   1.775   2.519  0.1198  2.1713  0.1569
   65SAPC   C14 5273   5.242   1.988   2.497  0.2942  0.5769 -0.5600
   65SAPC  H14A 5274   5.148   2.002   2.445 -0.0901  1.2028  0.2804
   65SAPC  H14B 5275   5.270   2.087   2.530 -3.3004  1.5551 -0.0030
   65SAPC  H14C 5276   5.316   1.947   2.429  3.5520 -0.6628  3.3702
   65SAPC   C15 5277   5.371   1.860   2.669  0.1690 -0.2590  0.0641
   65SAPC  H15A 5278   5.423   1.948   2.703 -0.5883 -0.0039  0.5991
   65SAPC  H15B 5279   5.373   1.790   2.751  1.6025 -0.1717  0.1191
   65SAPC  H15C 5280   5.439   1.821   2.595 -0.3065 -0.3217 -0.3479
   65SAPC   C11 5281   5.189   2.079   2.795  0.1133  0.4277  0.4024
   65SAPC  H11A 5282   5.290   2.055   2.836 -0.2924 -3.7295 -0.5971
   65SAPC  H11B 5283   5.131   2.100   2.887  1.1341  0.7804  0.9800
   65SAPC     P 5284   5.055   2.260   2.655  0.2007 -0.0623  0.0459
   65SAPC   O13 5285   5.076   2.309   2.517 -0.8606  0.5087  0.0032
   65SAPC   O14 5286   4.937   2.171   2.676  0.0042 -0.5077 -0.6548
   65SAPC   O12 5287   5.190   2.194   2.712 -0.5752  0.2987 -0.2763
   65SAPC   O11 5288   5.031   2.389   2.744  0.2335 -0.0147  0.3986
   65SAPC    C1 5289   5.147   2.476   2.765 -0.7681 -0.5559 -0.3874
   65SAPC    HA 5290   5.248   2.436   2.742 -1.4132 -2.7822  0.4838
   65SAPC    HB 5291   5.132   2.568   2.704  1.4320 -0.9282 -1.6156
   65SAPC    C2 5292   5.138   2.516   2.917  0.0530 -0.6112  0.2303
   65SAPC    HS 5293   5.224   2.585   2.931  0.7774 -1.2453 -0.9701
   65SAPC   O21 5294   5.143   2.410   3.014 -0.1776 -0.0280  0.0495
   65SAPC   C21 5295   5.269   2.370   3.038  0.2428  0.0981 -0.5492
   65SAPC   O22 5296   5.368   2.426   2.992  0.2935  0.2893  0.4178
   65SAPC   C22 5297   5.275   2.253   3.128 -0.2392  0.7681 -0.1607
   65SAPC   H2R 5298   5.174   2.241   3.173 -0.4220  0.5224 -0.6340
   65SAPC   H2S 5299   5.296   2.166   3.063  0.5244  1.6512 -1.1220
   65SAPC    C3 5300   5.002   2.597   2.938  0.1099 -0.4417 -0.7698
   65SAPC    HX 5301   4.997   2.613   3.048 -2.5993 -0.7181 -0.7786
   65SAPC    HY 5302   4.911   2.539   2.912  0.9563 -1.8590 -0.6542
   65SAPC   O31 5303   5.011   2.731   2.875  0.0752  0.6683 -0.3632
   65SAPC   C31 5304   4.903   2.808   2.901 -0.5607 -0.3996  0.1803
   65SAPC   O32 5305   4.805   2.781   2.962  0.5051  0.0817  0.5843
   65SAPC   C32 5306   4.928   2.951   2.839  0.4457  0.0342 -0.7750
   65SAPC   H2X 5307   4.838   2.998   2.883  1.3958  0.6882  0.5122
   65SAPC   H2Y 5308   4.929   2.941   2.728 -1.2986  2.5569 -1.0730
   65SAPC   C23 5309   5.383   2.262   3.236  0.4749  0.3128 -1.0371
   65SAPC   H3R 5310   5.488   2.267   3.203  0.8208 -2.2520 -0.5600
   65SAPC   H3S 5311   5.374   2.175   3.305  0.8783  0.6804 -0.5192
   65SAPC   C24 5312   5.355   2.389   3.326  0.3380 -0.9949 -0.2024
   65SAPC   H4R 5313   5.366   2.485   3.273  0.4428 -1.2995 -0.7398
   65SAPC   H4S 5314   5.435   2.402   3.402  0.4789  1.9008 -0.7475
   65SAPC   C25 5315   5.212   2.376   3.380  0.1745 -0.3792  0.3655
   65SAPC   H5R 5316   5.125   2.390   3.314 -0.8072  0.8528  1.8393
   65SAPC   C26 5317   5.178   2.361   3.511 -0.2607 -0.0864 -0.1110
   65SAPC   H6R 5318   5.075   2.355   3.548 -1.1491 -0.9184 -2.5080
   65SAPC   C27 5319   5.281   2.347   3.626 -0.2179  0.0762  0.5114
   65SAPC   H7R 5320   5.386   2.355   3.591 -0.1797 -0.1059  0.5809
   65SAPC   H7S 5321   5.270   2.237   3.638 -0.8089 -0.0418 -0.9172
   65SAPC   C28 5322   5.249   2.429   3.748  0.1693 -0.1153 -0.1818
   65SAPC   H8R 5323   5.211   2.530   3.723  1.5881  0.6569  0.6099
   65SAPC   C29 5324   5.264   2.388   3.874  0.2395  0.0737  0.1643
   65SAPC   H9R 5325   5.247   2.461   3.954  2.5003 -0.3235  1.0689
   65SAPC  C210 5326   5.315   2.252   3.923  0.4552 -1.1893  0.5112
   65SAPC  H10R 5327   5.315   2.196   3.827  0.4502 -0.8277  0.2995
   65SAPC  H10S 5328   5.246   2.203   3.996  0.5448  0.5236  1.7983
   65SAPC  C211 5329   5.453   2.245   3.982 -0.3826  0.6514  0.2978
   65SAPC  H11R 5330   5.529   2.198   3.918 -1.0542  2.3273 -1.8452
   65SAPC  C212 5331   5.481   2.264   4.112  0.6928  0.2747 -1.4341
   65SAPC  H12R 5332   5.582   2.244   4.151 -0.5095 -3.3102  0.2974
   65SAPC  C213 5333   5.382   2.305   4.228 -0.6102 -0.1949 -0.7026
   65SAPC  H13R 5334   5.388   2.231   4.310 -0.1016  0.3785 -0.2099
   65SAPC  H13S 5335   5.276   2.297   4.195 -0.2008 -0.6226 -1.9465
   65SAPC  C214 5336   5.400   2.446   4.277 -0.5603  0.1318  0.6373
   65SAPC  H14R 5337   5.367   2.528   4.211 -1.5712 -1.1879 -0.5453
   65SAPC  C215 5338   5.455   2.481   4.389 -0.0787  0.1713 -0.3642
   65SAPC  H15R 5339   5.463   2.586   4.420 -1.6637 -0.2223  1.6114
   65SAPC  C216 5340   5.513   2.388   4.500  0.8272  0.0970 -0.1781
   65SAPC  H16R 5341   5.623   2.400   4.489  0.8441  0.0406 -0.0681
   65SAPC  H16S 5342   5.496   2.278   4.498  0.8012  0.1098 -0.9863
   65SAPC  C217 5343   5.490   2.428   4.644  0.2213  0.3161 -0.2166
   65SAPC  H17R 5344   5.549   2.354   4.701  0.3688  1.3238  0.9841
   65SAPC  H17S 5345   5.383   2.413   4.671 -0.0311  1.4475 -0.5155
   65SAPC  C218 5346   5.539   2.571   4.681 -0.3321 -0.2442  0.2721
   65SAPC  H18R 5347   5.486   2.654   4.630  1.0102  1.1547  1.0773
   65SAPC  H18S 5348   5.645   2.578   4.649  0.4914 -1.4941  2.4682
   65SAPC  C219 5349   5.549   2.599   4.833  0.7576 -0.1668  0.8777
   65SAPC  H19R 5350   5.602   2.696   4.841 -0.6125  0.7079 -0.1478
   65SAPC  H19S 5351   5.610   2.517   4.876 -0.4799 -0.8814  1.3382
   65SAPC  C220 5352   5.419   2.621   4.893  0.3642  0.1189 -0.4368
   65SAPC  H20R 5353   5.440   2.654   4.997  0.5976 -0.6546 -0.2264
   65SAPC  H20S 5354   5.353   2.531   4.889 -0.9331  0.9273  1.4150
   65SAPC  H20T 5355   5.357   2.696   4.839 -0.1737 -1.1875 -1.6933
   65SAPC   C33 5356   5.064   3.023   2.872  0.2622 -0.6627  1.0479
   65SAPC   H3X 5357   5.061   3.108   2.801  0.8156 -0.0956  1.6904
   65SAPC   H3Y 5358   5.150   2.959   2.841  1.2931  1.6712 -1.3148
   65SAPC   C34 5359   5.096   3.080   3.008  0.1091  0.0890 -0.5313
   65SAPC   H4X 5360   5.014   3.138   3.054  0.6894 -0.2554  0.9947
   65SAPC   H4Y 5361   5.187   3.143   2.998  0.5355 -0.4421 -0.0675
   65SAPC   C35 5362   5.119   2.975   3.119 -0.0308  0.2264  0.2426
   65SAPC   H5X 5363   5.220   2.930   3.113  0.1696  0.6431  0.4202
   65SAPC   H5Y 5364   5.048   2.891   3.113 -0.0898  0.1981  1.2521
   65SAPC   C36 5365   5.110   3.037   3.262 -0.2545  0.4810 -0.8322
   65SAPC   H6X 5366   5.025   3.107   3.279 -1.9674 -2.1969  3.1009
   65SAPC   H6Y 5367   5.201   3.100   3.271  0.5462 -0.8319  0.7979
   65SAPC   C37 5368   5.111   2.926   3.370  0.8150 -0.7003  0.0216
   65SAPC   H7X 5369   5.183   2.844   3.345  1.6479 -0.4687  1.5263
   65SAPC   H7Y 5370   5.016   2.869   3.365  1.3733 -1.8549  1.6571
   65SAPC   C38 5371   5.129   2.987   3.513 -0.1440  0.8864  0.1862
   65SAPC   H8X 5372   5.056   3.070   3.522 -2.7025 -1.2930  0.8457
   65SAPC   H8Y 5373   5.225   3.042   3.521 -1.4443  3.2216  0.5728
   65SAPC   C39 5374   5.099   2.893   3.626 -0.1931  0.2055  0.5640
   65SAPC   H9X 5375   5.154   2.803   3.591  1.4896  1.8979 -1.4067
   65SAPC   H9Y 5376   4.991   2.868   3.629  0.1240 -2.5325 -3.1886
   65SAPC  C310 5377   5.169   2.941   3.757 -0.6894  0.3003  0.5316
   65SAPC  H10X 5378   5.128   3.042   3.781 -2.2113 -0.1081 -0.2309
   65SAPC  H10Y 5379   5.277   2.953   3.735 -0.5456 -0.8033  0.5989
   65SAPC  C311 5380   5.147   2.860   3.885 -0.6316  1.2405 -0.0543
   65SAPC  H11X 5381   5.203   2.764   3.889 -1.6376  0.6590  3.5908
   65SAPC  H11Y 5382   5.040   2.832   3.886 -1.0128  2.4942 -1.3322
   65SAPC  C312 5383   5.205   2.931   4.008  0.0344 -0.5825 -0.1230
   65SAPC  H12X 5384   5.163   3.032   4.025 -1.1166 -0.9542 -0.6130
   65SAPC  H12Y 5385   5.312   2.953   3.993 -0.0685 -1.1289 -1.9742
   65SAPC  C313 5386   5.177   2.857   4.137 -0.5853 -0.5458 -0.5982
   65SAPC  H13X 5387   5.214   2.752   4.134 -1.7970 -0.9964 -0.0926
   65SAPC  H13Y 5388   5.070   2.857   4.166 -0.6291 -0.2595 -0.7552
   65SAPC  C314 5389   5.243   2.933   4.253 -0.5119  0.1600  0.3108
   65SAPC  H14X 5390   5.193   3.029   4.276 -1.1032 -0.6060  2.3942
   65SAPC  H14Y 5391   5.348   2.949   4.221 -0.1258 -0.6015  1.1604
   65SAPC  C315 5392   5.244   2.856   4.384  0.0684  0.1966 -0.4499
   65SAPC  H15X 5393   5.284   2.757   4.354  0.1102 -0.7950  2.4856
   65SAPC  H15Y 5394   5.140   2.842   4.421 -0.2099 -0.1332 -1.3367
   65SAPC  C316 5395   5.339   2.920   4.485 -0.3044  0.9075  0.4014
   65SAPC  H16X 5396   5.430   2.952   4.430 -0.3395  3.4010  1.6280
   65SAPC  H16Y 5397   5.363   2.837   4.555  0.4078 -0.0899 -0.9962
   65SAPC  C317 5398   5.285   3.034   4.562  0.0694 -0.6043 -0.1958
   65SAPC  H17X 5399   5.174   3.036   4.575  0.0481  3.3446  0.2426
   65SAPC  H17Y 5400   5.313   3.132   4.518 -4.1926  2.1262  2.3934
   65SAPC  C318 5401   5.333   3.038   4.713  0.8532 -0.0903  0.8354
   65SAPC  H18X 5402   5.434   2.990   4.717  2.0409  2.3012  1.5467
   65SAPC  H18Y 5403   5.269   2.965   4.766 -0.6563 -2.6221 -3.8789
   65SAPC  H18Z 5404   5.343   3.137   4.761  0.8085 -0.7336  2.2031
   66SAPC     N 5405   0.489   3.278   2.163  0.4384 -0.2450  0.6135
   66SAPC   C12 5406   0.432   3.209   2.282 -0.5506 -0.4893 -0.4238
   66SAPC  H12A 5407   0.502   3.147   2.336 -0.9676 -0.8730 -0.3137
   66SAPC  H12B 5408   0.363   3.141   2.234 -0.2287  1.4966 -4.0984
   66SAPC   C13 5409   0.530   3.183   2.058 -0.6971  0.3992 -0.0427
   66SAPC  H13A 5410   0.610   3.120   2.094 -1.7961 -0.6318  0.6550
   66SAPC  H13B 5411   0.453   3.121   2.014 -0.3419 -0.6147  0.7240
   66SAPC  H13C 5412   0.588   3.241   1.987  0.1524 -1.4277 -0.9046
   66SAPC   C14 5413   0.388   3.376   2.111  0.5898  0.1726 -0.5341
   66SAPC  H14A 5414   0.365   3.437   2.196 -0.1159 -1.7914  0.7458
   66SAPC  H14B 5415   0.438   3.443   2.042  0.0900 -0.2013 -1.2696
   66SAPC  H14C 5416   0.295   3.340   2.070 -0.5729 -0.4640  2.4655
   66SAPC   C15 5417   0.609   3.362   2.195 -0.0075 -0.1028  0.3117
   66SAPC  H15A 5418   0.687   3.293   2.226 -0.0352 -0.8916 -1.2840
   66SAPC  H15B 5419   0.653   3.401   2.104  0.5764  0.0947  0.6712
   66SAPC  H15C 5420   0.594   3.440   2.269  0.4958  1.1050 -0.8142
   66SAPC   C11 5421   0.364   3.308   2.385 -0.4760  0.7867 -0.5900
   66SAPC  H11A 5422   0.433   3.395   2.387  0.4708  0.2047 -3.2546
   66SAPC  H11B 5423   0.364   3.251   2.480 -0.7444 -0.7769 -1.4832
   66SAPC     P 5424   0.137   3.435   2.414 -0.3012 -0.0565 -0.1078
   66SAPC   O13 5425   0.185   3.575   2.384  0.2746 -0.7489  0.3715
   66SAPC   O14 5426  -0.007   3.410   2.391 -0.3928 -0.1336  0.2373
   66SAPC   O12 5427   0.228   3.328   2.338 -0.4188  0.2197 -0.0506
   66SAPC   O11 5428   0.175   3.407   2.565  0.2611 -0.6800 -0.5092
   66SAPC    C1 5429   0.125   3.287   2.627  0.1743 -0.8790 -0.1408
   66SAPC    HA 5430   0.047   3.237   2.566  0.1837 -0.8079 -0.2117
   66SAPC    HB 5431   0.209   3.216   2.641 -0.4280 -1.6918 -0.5617
   66SAPC    C2 5432   0.066   3.330   2.769 -0.4040  0.6457 -0.0303
   66SAPC    HS 5433  -0.036   3.362   2.739 -0.1228  2.0471  0.4047
   66SAPC   O21 5434   0.153   3.435   2.819 -0.6441  0.0261 -0.2515
   66SAPC   C21 5435   0.106   3.553   2.805 -0.1301 -0.1888 -0.2825
   66SAPC   O22 5436  -0.002   3.586   2.767 -0.1005 -0.6152  0.0399
   66SAPC   C22 5437   0.203   3.666   2.862 -1.2335  0.3917 -0.2105
   66SAPC   H2R 5438   0.304   3.620   2.858 -0.9417  1.0120 -0.1422
   66SAPC   H2S 5439   0.193   3.751   2.792 -0.3990 -0.3440 -1.2647
   66SAPC    C3 5440   0.055   3.206   2.867 -0.2031  0.2185 -0.0008
   66SAPC    HX 5441   0.147   3.144   2.869  0.7739  1.6237 -0.3230
   66SAPC    HY 5442  -0.031   3.140   2.840 -0.7503  1.9576 -2.9342
   66SAPC   O31 5443   0.020   3.244   3.002  0.2609 -0.4117 -0.1252
   66SAPC   C31 5444   0.125   3.260   3.081  0.3273 -0.2899  0.1649
   66SAPC   O32 5445   0.235   3.215   3.061  0.0392 -0.2019 -0.1852
   66SAPC   C32 5446   0.087   3.340   3.207  0.8538  0.1569  0.4707
   66SAPC   H2X 5447   0.006   3.276   3.249 -1.1379  0.9404 -1.8878
   66SAPC   H2Y 5448   0.036   3.434   3.175  0.9190  1.0460  2.7572
   66SAPC   C23 5449   0.166   3.694   3.012  0.6559  0.3240  0.1810
   66SAPC   H3R 5450   0.144   3.603   3.071 -2.6012  0.8877  0.0535
   66SAPC   H3S 5451   0.068   3.747   3.020 -0.2849 -0.5919 -3.4260
   66SAPC   C24 5452   0.274   3.782   3.082 -0.1704  0.0719  0.1065
   66SAPC   H4R 5453   0.238   3.837   3.172  0.6445  2.3083 -0.8552
   66SAPC   H4S 5454   0.284   3.868   3.013 -4.2365  0.4850 -0.2183
   66SAPC   C25 5455   0.399   3.705   3.113  0.5139  0.5548 -1.0562
   66SAPC   H5R 5456   0.404   3.618   3.046 -3.2216 -0.3415 -0.3751
   66SAPC   C26 5457   0.482   3.717   3.215 -0.1134  0.8067  0.7833
   66SAPC   H6R 5458   0.561   3.641   3.219 -2.7579 -2.3925 -1.6472
   66SAPC   C27 5459   0.494   3.814   3.322  0.5378  0.2515 -0.5662
   66SAPC   H7R 5460   0.579   3.770   3.380  0.5609  1.4384  0.3389
   66SAPC   H7S 5461   0.404   3.812   3.386  0.2223 -0.9721 -1.0218
   66SAPC   C28 5462   0.545   3.954   3.296 -0.6264 -0.0106  0.6640
   66SAPC   H8R 5463   0.543   3.994   3.193 -1.6220  2.5175  1.5887
   66SAPC   C29 5464   0.578   4.051   3.384  0.4295 -0.1913 -0.0627
   66SAPC   H9R 5465   0.610   4.151   3.353  1.1317 -0.2104  0.5796
   66SAPC  C210 5466   0.586   4.033   3.540 -0.0500 -0.3454  0.6315
   66SAPC  H10R 5467   0.596   4.135   3.583  2.1910  0.1747 -0.9601
   66SAPC  H10S 5468   0.674   3.976   3.576 -0.2427  0.8735  3.2060
   66SAPC  C211 5469   0.458   3.979   3.598 -0.0435 -1.1444 -0.4182
   66SAPC  H11R 5470   0.370   3.982   3.532 -0.7254 -2.0748  0.4197
   66SAPC  C212 5471   0.437   3.930   3.721 -0.2526  0.0862  0.1725
   66SAPC  H12R 5472   0.339   3.882   3.726 -0.2286 -0.0752 -0.7710
   66SAPC  C213 5473   0.529   3.936   3.836 -0.2747 -0.1064  0.4097
   66SAPC  H13R 5474   0.502   4.007   3.917  1.5256 -0.2218  1.1590
   66SAPC  H13S 5475   0.620   3.985   3.794 -0.2358  1.1577  1.8654
   66SAPC  C214 5476   0.564   3.804   3.899 -0.1049  0.0762 -0.1337
   66SAPC  H14R 5477   0.658   3.764   3.858  0.2299 -0.0283  0.7270
   66SAPC  C215 5478   0.495   3.734   3.990 -0.4106 -0.2274  0.1621
   66SAPC  H15R 5479   0.534   3.636   4.021  1.0127  0.4777  0.6763
   66SAPC  C216 5480   0.374   3.790   4.061 -0.0257  0.9503  0.3314
   66SAPC  H16R 5481   0.295   3.807   3.985 -1.2125 -0.0986  1.2857
   66SAPC  H16S 5482   0.393   3.894   4.095  0.6937  0.8106  0.3823
   66SAPC  C217 5483   0.331   3.698   4.176  0.1220  0.1741  0.0177
   66SAPC  H17R 5484   0.411   3.694   4.253 -1.0449 -0.2339  1.2572
   66SAPC  H17S 5485   0.317   3.593   4.142  1.8816  0.4197 -1.6320
   66SAPC  C218 5486   0.204   3.754   4.238  0.5160  0.5507 -0.1900
   66SAPC  H18R 5487   0.122   3.767   4.164  0.5368  0.3328 -0.2502
   66SAPC  H18S 5488   0.224   3.853   4.285  0.7556 -0.7380  2.6559
   66SAPC  C219 5489   0.148   3.669   4.358  0.3482 -0.5020  0.5438
   66SAPC  H19R 5490   0.222   3.652   4.439  1.2597 -0.0858 -0.1890
   66SAPC  H19S 5491   0.125   3.577   4.300  0.1847  0.5963 -1.2130
   66SAPC  C220 5492   0.007   3.709   4.418 -0.2463  0.1118 -0.1980
   66SAPC  H20R 5493  -0.011   3.817   4.435 -3.8923 -0.4638  0.6000
   66SAPC  H20S 5494   0.002   3.647   4.511  3.5414 -3.0597 -1.8552
   66SAPC  H20T 5495  -0.065   3.684   4.337 -1.6400  0.4527  0.8814
   66SAPC   C33 5496   0.202   3.364   3.304  0.6134  1.0853  0.3114
   66SAPC   H3X 5497   0.277   3.413   3.238 -1.1439  1.8025 -1.2598
   66SAPC   H3Y 5498   0.245   3.275   3.354 -1.2682  1.6938  3.2723
   66SAPC   C34 5499   0.161   3.465   3.409  0.0103  0.1936 -0.0359
   66SAPC   H4X 5500   0.064   3.449   3.459  1.1113 -2.3049  1.5200
   66SAPC   H4Y 5501   0.168   3.567   3.366 -1.4995  0.2919 -0.0688
   66SAPC   C35 5502   0.263   3.468   3.528  0.1053  0.1104 -0.3232
   66SAPC   H5X 5503   0.367   3.491   3.494  0.8487 -0.8302  1.2039
   66SAPC   H5Y 5504   0.265   3.366   3.573  0.6101  0.3777  0.2729
   66SAPC   C36 5505   0.200   3.560   3.641  0.1780  0.2118  0.6478
   66SAPC   H6X 5506   0.188   3.661   3.595  0.6732 -1.2424 -3.0116
   66SAPC   H6Y 5507   0.277   3.582   3.717 -0.1053 -1.5658  1.4946
   66SAPC   C37 5508   0.072   3.515   3.704  0.6970  0.1614  0.0407
   66SAPC   H7X 5509   0.083   3.405   3.718  0.0840  0.3765  3.0252
   66SAPC   H7Y 5510  -0.015   3.530   3.637 -0.6739  2.6326  2.1650
   66SAPC   C38 5511   0.034   3.581   3.835 -0.4574  0.2244 -0.2386
   66SAPC   H8X 5512   0.005   3.685   3.810  0.1894  0.3295 -0.5756
   66SAPC   H8Y 5513   0.111   3.576   3.915 -3.0194  1.2025  2.4253
   66SAPC   C39 5514  -0.087   3.508   3.898 -0.4874  0.0181 -0.2134
   66SAPC   H9X 5515  -0.049   3.404   3.909  0.6903  0.5776  1.4755
   66SAPC   H9Y 5516  -0.165   3.503   3.820 -1.4647 -2.2787  0.8139
   66SAPC  C310 5517  -0.137   3.577   4.021 -0.6775 -0.1909  0.0300
   66SAPC  H10X 5518  -0.203   3.660   3.988  1.8769  1.2516 -1.8058
   66SAPC  H10Y 5519  -0.057   3.628   4.079  1.0482  0.2379 -2.5496
   66SAPC  C311 5520  -0.223   3.486   4.119 -0.1341  0.5308  0.2003
   66SAPC  H11X 5521  -0.307   3.443   4.061  0.3690 -0.9043  0.4948
   66SAPC  H11Y 5522  -0.275   3.551   4.192 -3.0178 -1.4665  0.0817
   66SAPC  C312 5523  -0.128   3.379   4.171 -0.2646  0.1485 -0.2493
   66SAPC  H12X 5524  -0.060   3.439   4.235 -1.6179  2.9040 -1.2417
   66SAPC  H12Y 5525  -0.071   3.324   4.093  1.7675  1.7779 -0.0024
   66SAPC  C313 5526  -0.201   3.276   4.255  0.0362  0.8623 -0.4334
   66SAPC  H13X 5527  -0.150   3.179   4.235  1.2117  1.0709  1.3369
   66SAPC  H13Y 5528  -0.310   3.275   4.236 -0.1120  0.2583  0.4303
   66SAPC  C314 5529  -0.192   3.274   4.412 -0.4754  0.2943 -0.0837
   66SAPC  H14X 5530  -0.085   3.266   4.443 -0.7645 -1.0683  0.6520
   66SAPC  H14Y 5531  -0.230   3.176   4.446  0.5919 -0.6297 -1.4432
   66SAPC  C315 5532  -0.254   3.379   4.496  0.1702 -0.2780 -0.1080
   66SAPC  H15X 5533  -0.213   3.474   4.454 -0.3541 -0.9523 -2.2724
   66SAPC  H15Y 5534  -0.230   3.378   4.604  0.3328  0.1009 -0.1405
   66SAPC  C316 5535  -0.407   3.387   4.488  0.6939 -0.0129  0.7915
   66SAPC  H16X 5536  -0.456   3.296   4.530 -2.0592  1.6878  1.5166
   66SAPC  H16Y 5537  -0.441   3.387   4.382 -0.3169  0.5523  1.1026
   66SAPC  C317 5538  -0.465   3.510   4.562  0.1891 -0.6101  0.7311
   66SAPC  H17X 5539  -0.427   3.505   4.667  2.3450 -2.9651 -0.0782
   66SAPC  H17Y 5540  -0.576   3.509   4.561  0.1791 -1.4964 -1.0970
   66SAPC  C318 5541  -0.418   3.650   4.508  0.2812  0.0800 -0.3490
   66SAPC  H18X 5542  -0.472   3.664   4.412  1.6225  0.1272 -1.1337
   66SAPC  H18Y 5543  -0.308   3.654   4.487  0.7502  1.1139  2.0713
   66SAPC  H18Z 5544  -0.453   3.732   4.574  0.6537  0.1365 -0.2147
   67SAPC     N 5545   6.477   4.386   2.111  0.2427 -0.6512 -0.1623
   67SAPC   C12 5546   6.482   4.383   2.259  0.5904  0.1597  0.0302
   67SAPC  H12A 5547   6.452   4.483   2.289  0.5621  1.0518 -2.6392
   67SAPC  H12B 5548   6.584   4.368   2.290  0.7093  0.3031 -0.2753
   67SAPC   C13 5549   6.557   4.506   2.055  0.2286  0.3721  0.0545
   67SAPC  H13A 5550   6.529   4.501   1.951  0.2371  0.3377  0.0539
   67SAPC  H13B 5551   6.515   4.597   2.094 -1.3016  0.1314 -0.9573
   67SAPC  H13C 5552   6.664   4.497   2.069  0.0845 -1.6673  0.1941
   67SAPC   C14 5553   6.533   4.262   2.044  0.6233 -0.0634  0.1067
   67SAPC  H14A 5554   6.502   4.172   2.095  1.1138 -0.2458  0.0917
   67SAPC  H14B 5555   6.503   4.268   1.940  1.7578  0.7222 -0.1942
   67SAPC  H14C 5556   6.641   4.271   2.052  0.4576  1.1239  1.2625
   67SAPC   C15 5557   6.337   4.401   2.066 -0.2740 -0.2038 -0.0828
   67SAPC  H15A 5558   6.286   4.480   2.119 -0.3648 -0.2311 -0.1284
   67SAPC  H15B 5559   6.339   4.411   1.959  0.4337  0.2512 -0.0296
   67SAPC  H15C 5560   6.282   4.316   2.105 -0.9010  0.1564 -0.1691
   67SAPC   C11 5561   6.404   4.275   2.336  0.1067  0.0919 -0.5057
   67SAPC  H11A 5562   6.418   4.283   2.446 -1.4906 -0.8677 -0.2004
   67SAPC  H11B 5563   6.449   4.180   2.300 -0.2912 -0.7774  1.1593
   67SAPC     P 5564   6.160   4.362   2.379  0.2071 -0.2353  0.1621
   67SAPC   O13 5565   6.188   4.501   2.333 -0.4154 -0.4461  0.6697
   67SAPC   O14 5566   6.025   4.308   2.351  0.3662  0.7272 -0.3956
   67SAPC   O12 5567   6.265   4.264   2.307  0.5028  0.0371  0.3484
   67SAPC   O11 5568   6.199   4.352   2.528  0.5467  0.4179  0.4514
   67SAPC    C1 5569   6.203   4.214   2.591 -0.0165  0.3278  0.8609
   67SAPC    HA 5570   6.113   4.152   2.572  0.9722 -0.7292 -0.5875
   67SAPC    HB 5571   6.274   4.145   2.541 -0.7947 -0.3120  0.6143
   67SAPC    C2 5572   6.234   4.226   2.747 -0.1946 -0.0578  0.0549
   67SAPC    HS 5573   6.274   4.130   2.785  0.0344 -1.0439 -2.4765
   67SAPC   O21 5574   6.124   4.262   2.824  0.2366  0.5101  0.2010
   67SAPC   C21 5575   6.036   4.172   2.860  0.1949 -0.2773 -0.0239
   67SAPC   O22 5576   6.040   4.055   2.826 -0.5923 -0.5763  0.1859
   67SAPC   C22 5577   5.921   4.234   2.932  0.0762 -0.5736 -0.2618
   67SAPC   H2R 5578   5.946   4.271   3.033 -0.4936  0.5942 -0.5247
   67SAPC   H2S 5579   5.892   4.319   2.867  1.2849  0.8876  1.0515
   67SAPC    C3 5580   6.343   4.334   2.775  0.2927  0.8415  0.5691
   67SAPC    HX 5581   6.288   4.429   2.759 -2.0142 -0.5366 -0.1353
   67SAPC    HY 5582   6.425   4.334   2.700  2.1393  2.3330  2.4438
   67SAPC   O31 5583   6.412   4.312   2.898 -0.0707  0.0157 -0.0135
   67SAPC   C31 5584   6.366   4.393   2.996 -0.4410 -0.0404 -1.0760
   67SAPC   O32 5585   6.271   4.466   2.992  0.1151 -0.0650  0.5746
   67SAPC   C32 5586   6.452   4.380   3.120  0.1435 -0.3043 -0.2404
   67SAPC   H2X 5587   6.555   4.421   3.107  0.2760 -0.4621  0.3195
   67SAPC   H2Y 5588   6.462   4.273   3.147  0.2148  0.0047  1.0414
   67SAPC   C23 5589   5.809   4.136   2.960  0.1066  0.7970  0.4926
   67SAPC   H3R 5590   5.846   4.044   3.011 -2.9592  0.7551  2.9538
   67SAPC   H3S 5591   5.767   4.091   2.867  2.7933 -0.9318 -0.0068
   67SAPC   C24 5592   5.698   4.183   3.054  0.8594  0.0079  0.6242
   67SAPC   H4R 5593   5.637   4.270   3.023 -0.3067 -0.4292  1.5995
   67SAPC   H4S 5594   5.744   4.220   3.148  0.1168  2.5775  0.0525
   67SAPC   C25 5595   5.595   4.073   3.073  1.0546  0.7050 -0.0519
   67SAPC   H5R 5596   5.515   4.062   2.998  0.9244 -2.6974  0.4174
   67SAPC   C26 5597   5.595   3.981   3.167  0.4302  0.7271 -0.2949
   67SAPC   H6R 5598   5.518   3.903   3.161  2.4831 -1.4898  0.6598
   67SAPC   C27 5599   5.687   3.980   3.284  0.0721 -0.1829 -0.4836
   67SAPC   H7R 5600   5.749   4.072   3.284  0.3092 -0.3434 -0.1743
   67SAPC   H7S 5601   5.761   3.898   3.281  0.5378  0.2246 -0.1645
   67SAPC   C28 5602   5.603   3.980   3.406  0.6194 -0.1158 -0.2464
   67SAPC   H8R 5603   5.524   4.056   3.416 -0.2438 -1.0731  0.4593
   67SAPC   C29 5604   5.629   3.902   3.519  0.2126 -0.1138 -0.9731
   67SAPC   H9R 5605   5.559   3.922   3.601 -0.5955 -2.6576 -0.9563
   67SAPC  C210 5606   5.738   3.800   3.549 -0.6068  0.2811 -0.3121
   67SAPC  H10R 5607   5.808   3.797   3.462 -0.5365 -0.3163 -0.2400
   67SAPC  H10S 5608   5.691   3.701   3.562 -0.2086 -0.2124 -2.3026
   67SAPC  C211 5609   5.811   3.854   3.673  0.3990  0.2115  0.8950
   67SAPC  H11R 5610   5.865   3.946   3.649  0.4703 -0.3934 -1.4459
   67SAPC  C212 5611   5.814   3.812   3.802 -0.0574 -0.0059 -0.0283
   67SAPC  H12R 5612   5.880   3.868   3.869 -0.7231  0.3787  0.3135
   67SAPC  C213 5613   5.738   3.691   3.851 -0.6157 -0.0506 -0.1414
   67SAPC  H13R 5614   5.811   3.617   3.892  0.0611 -0.0044 -1.2031
   67SAPC  H13S 5615   5.696   3.634   3.765 -1.4007  0.2329  0.0453
   67SAPC  C214 5616   5.637   3.728   3.947  1.1602  0.0506  0.1103
   67SAPC  H14R 5617   5.565   3.804   3.914 -1.5969 -1.6366  1.7835
   67SAPC  C215 5618   5.631   3.684   4.075 -0.4286 -0.6400 -0.3466
   67SAPC  H15R 5619   5.545   3.719   4.135 -1.0934  0.1662 -1.7205
   67SAPC  C216 5620   5.734   3.582   4.135 -0.3926  0.6364 -0.4007
   67SAPC  H16R 5621   5.740   3.491   4.072 -0.1539 -0.2672  0.8979
   67SAPC  H16S 5622   5.687   3.539   4.226 -2.8819 -1.6855 -2.5745
   67SAPC  C217 5623   5.878   3.638   4.153 -0.4795  0.8971  0.1952
   67SAPC  H17R 5624   5.872   3.708   4.239 -0.5806 -0.9404  1.7529
   67SAPC  H17S 5625   5.905   3.697   4.063  2.9992  0.6868  0.9451
   67SAPC  C218 5626   5.987   3.531   4.192  0.6536 -0.0843 -0.4545
   67SAPC  H18R 5627   5.941   3.485   4.282 -1.3997  2.6735  0.0470
   67SAPC  H18S 5628   6.062   3.596   4.240  0.3791 -0.3838  0.3989
   67SAPC  C219 5629   6.050   3.441   4.090 -0.1174 -0.7439 -0.2654
   67SAPC  H19R 5630   5.976   3.359   4.077 -2.5473  1.1509  0.8720
   67SAPC  H19S 5631   6.145   3.394   4.126 -0.5306 -1.2763  0.1497
   67SAPC  C220 5632   6.080   3.507   3.952  0.4118 -0.3329  0.5025
   67SAPC  H20R 5633   5.987   3.502   3.892 -0.4446 -1.9462  1.8861
   67SAPC  H20S 5634   6.168   3.455   3.907 -0.1025 -0.0963 -0.8436
   67SAPC  H20T 5635   6.115   3.612   3.961 -4.3409  1.4120  1.2167
   67SAPC   C33 5636   6.387   4.452   3.245 -0.4622 -0.6325  0.7181
   67SAPC   H3X 5637   6.282   4.416   3.256 -0.8249  0.1312 -0.1180
   67SAPC   H3Y 5638   6.394   4.560   3.223 -4.8779  0.2840  2.6123
   67SAPC   C34 5639   6.481   4.417   3.365 -0.7924  0.4496 -1.2896
   67SAPC   H4X 5640   6.581   4.457   3.341 -0.5411  0.0596 -0.9003
   67SAPC   H4Y 5641   6.475   4.307   3.379  0.8277  0.5359  0.4779
   67SAPC   C35 5642   6.440   4.492   3.492 -0.3678 -0.3173  0.3457
   67SAPC   H5X 5643   6.330   4.479   3.504 -0.3207 -0.1576  0.9664
   67SAPC   H5Y 5644   6.452   4.602   3.483 -0.6235 -0.3721 -0.8175
   67SAPC   C36 5645   6.528   4.433   3.611  0.1490  0.4002  0.1848
   67SAPC   H6X 5646   6.631   4.453   3.575  0.7180 -0.9076  1.0215
   67SAPC   H6Y 5647   6.515   4.323   3.614 -1.1900  0.5384 -0.1766
   67SAPC   C37 5648   6.490   4.501   3.743 -0.8166 -0.1144  0.5882
   67SAPC   H7X 5649   6.446   4.600   3.719 -1.0596 -0.1916  0.7091
   67SAPC   H7Y 5650   6.591   4.513   3.787 -0.1306  1.2259 -1.2005
   67SAPC   C38 5651   6.390   4.417   3.830  0.4159 -0.3525 -0.0242
   67SAPC   H8X 5652   6.418   4.310   3.838 -1.4054 -0.7881  1.4119
   67SAPC   H8Y 5653   6.287   4.429   3.790 -0.2110 -1.3889  1.1829
   67SAPC   C39 5654   6.393   4.466   3.980  0.2164 -0.0689  0.1058
   67SAPC   H9X 5655   6.366   4.573   3.987  0.3442  0.0046 -0.4700
   67SAPC   H9Y 5656   6.497   4.453   4.018 -0.5443 -0.1211  2.3196
   67SAPC  C310 5657   6.299   4.368   4.067  0.1911  0.1654  0.2948
   67SAPC  H10X 5658   6.327   4.262   4.047  0.6799  0.6842 -2.0713
   67SAPC  H10Y 5659   6.199   4.382   4.023 -0.6815 -0.0446  2.1255
   67SAPC  C311 5660   6.300   4.398   4.219  0.0073 -0.7187 -0.1919
   67SAPC  H11X 5661   6.289   4.509   4.217 -0.1872 -0.7438 -0.8315
   67SAPC  H11Y 5662   6.400   4.372   4.259  2.0803  1.1300 -3.6740
   67SAPC  C312 5663   6.175   4.343   4.290 -0.4871  0.0067 -0.3069
   67SAPC  H12X 5664   6.187   4.235   4.312 -2.7847 -0.2926 -0.3312
   67SAPC  H12Y 5665   6.088   4.354   4.222  0.2494  2.3524 -0.9794
   67SAPC  C313 5666   6.144   4.422   4.413 -0.5737  0.2012 -0.1767
   67SAPC  H13X 5667   6.170   4.528   4.394 -0.3284 -0.0688 -1.4150
   67SAPC  H13Y 5668   6.215   4.396   4.495  1.2879 -1.1114 -2.1123
   67SAPC  C314 5669   6.006   4.409   4.466 -0.4896 -0.2429 -0.4473
   67SAPC  H14X 5670   5.990   4.300   4.479 -0.3523  0.0540  2.9262
   67SAPC  H14Y 5671   5.920   4.438   4.401 -2.3173 -2.3556  0.9191
   67SAPC  C315 5672   5.979   4.468   4.611 -0.2084 -0.0197  0.6152
   67SAPC  H15X 5673   5.978   4.579   4.606 -0.9149 -0.0466 -0.2427
   67SAPC  H15Y 5674   6.056   4.435   4.684 -0.6085  1.2850  1.6700
   67SAPC  C316 5675   5.843   4.425   4.665 -0.0958  0.3966 -0.5245
   67SAPC  H16X 5676   5.756   4.467   4.609  0.7342  2.7257 -0.1757
   67SAPC  H16Y 5677   5.845   4.482   4.760 -1.0904  1.6059 -1.1980
   67SAPC  C317 5678   5.833   4.275   4.701  0.0635 -0.0956  0.0349
   67SAPC  H17X 5679   5.929   4.231   4.736 -0.7689 -1.5228  0.6117
   67SAPC  H17Y 5680   5.802   4.220   4.609 -0.6482 -0.0665  0.2500
   67SAPC  C318 5681   5.733   4.240   4.808 -0.0698  0.0947 -0.4755
   67SAPC  H18X 5682   5.633   4.278   4.776 -0.3246  0.0235  0.2260
   67SAPC  H18Y 5683   5.758   4.291   4.903 -3.3339 -0.1475  0.6410
   67SAPC  H18Z 5684   5.721   4.132   4.835  2.9300 -0.6192 -1.5982
   68SAPC     N 5685   1.044   4.911   2.205 -0.1049  0.7145  0.2446
   68SAPC   C12 5686   0.971   4.865   2.334 -0.5120 -0.0376  0.0990
   68SAPC  H12A 5687   0.868   4.864   2.302 -1.2345 -1.2818  2.2406
   68SAPC  H12B 5688   0.975   4.936   2.416 -3.4472 -1.7397  1.9261
   68SAPC   C13 5689   0.969   5.029   2.162  0.0368 -0.5309 -0.2731
   68SAPC  H13A 5690   1.042   5.101   2.127  1.1532 -1.0569  0.9124
   68SAPC  H13B 5691   0.895   5.022   2.083 -0.2647 -1.7140  0.0919
   68SAPC  H13C 5692   0.919   5.085   2.239  0.0667 -1.4870  0.4594
   68SAPC   C14 5693   1.185   4.941   2.231  0.0037 -0.3404 -0.2631
   68SAPC  H14A 5694   1.228   4.990   2.145 -0.1570 -0.1364 -0.2269
   68SAPC  H14B 5695   1.188   5.011   2.313 -0.4934 -1.5809  0.8498
   68SAPC  H14C 5696   1.248   4.856   2.257  0.3629  0.9575  3.8588
   68SAPC   C15 5697   1.038   4.797   2.103  0.3637  0.2146  0.0361
   68SAPC  H15A 5698   0.937   4.773   2.075  0.2767 -0.3831  0.8290
   68SAPC  H15B 5699   1.095   4.830   2.017  0.9082  4.4884  1.7654
   68SAPC  H15C 5700   1.091   4.718   2.154 -0.3052 -0.2832 -0.0396
   68SAPC   C11 5701   1.010   4.723   2.397 -0.3794  0.5316  0.1140
   68SAPC  H11A 5702   0.979   4.651   2.319  3.4354  0.9601 -2.0668
   68SAPC  H11B 5703   0.962   4.707   2.496  0.4604 -3.3003  0.0673
   68SAPC     P 5704   1.210   4.583   2.478  0.0199 -0.0075  0.1376
   68SAPC   O13 5705   1.141   4.461   2.419 -0.4364  0.3229 -0.2745
   68SAPC   O14 5706   1.357   4.600   2.458 -0.9573  0.9065 -0.2650
   68SAPC   O12 5707   1.152   4.706   2.413  0.6449 -0.6440  0.3689
   68SAPC   O11 5708   1.172   4.597   2.631 -0.1236 -0.2533 -0.0277
   68SAPC    C1 5709   1.155   4.729   2.690  0.5163  0.2341  0.5372
   68SAPC    HA 5710   1.239   4.801   2.673  0.4616 -0.3362 -2.8286
   68SAPC    HB 5711   1.063   4.780   2.653 -0.0140 -0.8170  0.3615
   68SAPC    C2 5712   1.139   4.716   2.848 -0.6831 -1.0795  0.5085
   68SAPC    HS 5713   1.112   4.815   2.889  0.1430 -0.3839 -0.5615
   68SAPC   O21 5714   1.269   4.670   2.895 -0.3336 -0.0803 -1.0507
   68SAPC   C21 5715   1.349   4.772   2.947 -0.0899 -0.3578 -0.5752
   68SAPC   O22 5716   1.330   4.887   2.929 -0.2695 -0.5227  0.0413
   68SAPC   C22 5717   1.463   4.720   3.030  0.5345  0.1330 -0.1277
   68SAPC   H2R 5718   1.460   4.609   3.021 -0.3760  0.1039  0.5013
   68SAPC   H2S 5719   1.555   4.750   2.976 -0.8412  0.0069 -2.7028
   68SAPC    C3 5720   1.022   4.618   2.884 -0.5857  0.1587  0.7275
   68SAPC    HX 5721   1.067   4.518   2.867 -1.4379 -0.4369  1.8206
   68SAPC    HY 5722   0.941   4.639   2.812  0.9234  2.2261 -0.4610
   68SAPC   O31 5723   0.973   4.638   3.018  0.1717 -0.1265  0.1527
   68SAPC   C31 5724   0.921   4.530   3.080  0.4315 -0.1573  0.5075
   68SAPC   O32 5725   0.879   4.428   3.034 -0.3319  0.7802  0.2021
   68SAPC   C32 5726   0.910   4.568   3.229  0.2557  0.1259  0.0645
   68SAPC   H2X 5727   0.844   4.654   3.249  0.5346  0.5540 -0.8075
   68SAPC   H2Y 5728   1.013   4.605   3.249  0.9550 -2.6564  2.2121
   68SAPC   C23 5729   1.456   4.766   3.173  0.8088  0.2251 -0.0482
   68SAPC   H3R 5730   1.437   4.875   3.178  0.1967  0.2168 -1.6756
   68SAPC   H3S 5731   1.551   4.740   3.225  1.3070  0.3864 -0.8698
   68SAPC   C24 5732   1.338   4.699   3.247 -0.3673  0.8909 -1.0593
   68SAPC   H4R 5733   1.246   4.708   3.186 -1.3590  0.0884  0.2693
   68SAPC   H4S 5734   1.312   4.753   3.341 -0.8422  1.4161 -1.4849
   68SAPC   C25 5735   1.375   4.556   3.265 -0.4163  1.1095 -0.1493
   68SAPC   H5R 5736   1.417   4.505   3.177 -0.9489  2.4481 -1.2026
   68SAPC   C26 5737   1.340   4.482   3.377  0.6449 -0.4609  0.5215
   68SAPC   H6R 5738   1.398   4.389   3.372  0.6527 -0.4781  0.9143
   68SAPC   C27 5739   1.270   4.524   3.502 -0.1405 -0.0839  0.6224
   68SAPC   H7R 5740   1.189   4.599   3.485 -0.1798  0.0200  1.2550
   68SAPC   H7S 5741   1.348   4.572   3.564 -0.1660  1.7170 -0.6651
   68SAPC   C28 5742   1.204   4.414   3.578  0.3336  0.4294 -0.3081
   68SAPC   H8R 5743   1.149   4.343   3.516 -0.7250  0.7838  0.1956
   68SAPC   C29 5744   1.185   4.397   3.709 -0.2059  0.0554  0.0306
   68SAPC   H9R 5745   1.128   4.312   3.749 -0.1594  0.3139  0.6532
   68SAPC  C210 5746   1.247   4.483   3.823 -1.2489  0.3031 -0.1122
   68SAPC  H10R 5747   1.213   4.588   3.806  1.9096  1.1061 -2.3021
   68SAPC  H10S 5748   1.357   4.491   3.811 -1.3594  0.2241 -1.4067
   68SAPC  C211 5749   1.204   4.442   3.962 -0.2209  0.6526 -1.2081
   68SAPC  H11R 5750   1.097   4.457   3.986 -1.0796 -2.0797 -2.8564
   68SAPC  C212 5751   1.280   4.381   4.055  0.4143  0.1286 -0.3338
   68SAPC  H12R 5752   1.226   4.348   4.145 -1.0556  0.2032 -1.1568
   68SAPC  C213 5753   1.419   4.331   4.045  0.1157  0.1347  0.7037
   68SAPC  H13R 5754   1.465   4.357   3.947  1.5627  1.6141  1.7198
   68SAPC  H13S 5755   1.414   4.220   4.053  0.3949 -0.0927 -1.5820
   68SAPC  C214 5756   1.499   4.386   4.163 -0.2744  0.3756 -0.6053
   68SAPC  H14R 5757   1.448   4.453   4.233 -0.7479 -1.3124  0.7072
   68SAPC  C215 5758   1.628   4.376   4.176 -0.5849 -0.5741  0.9004
   68SAPC  H15R 5759   1.683   4.415   4.262  1.6183  0.4059 -0.8496
   68SAPC  C216 5760   1.719   4.287   4.088  0.5335  0.1374 -0.5134
   68SAPC  H16R 5761   1.665   4.204   4.038  0.8002  0.2730 -1.0349
   68SAPC  H16S 5762   1.798   4.245   4.154 -1.0049 -3.4600 -0.7384
   68SAPC  C217 5763   1.778   4.387   3.983  0.6487  0.4920  0.8402
   68SAPC  H17R 5764   1.832   4.464   4.042  0.0200  3.1791 -1.8961
   68SAPC  H17S 5765   1.693   4.437   3.931  0.6137  0.7747  1.1672
   68SAPC  C218 5766   1.873   4.326   3.876  0.1634  0.6127  0.4467
   68SAPC  H18R 5767   1.833   4.242   3.815  3.5361 -0.5924 -0.3173
   68SAPC  H18S 5768   1.961   4.280   3.926 -0.0468  0.6903  0.8974
   68SAPC  C219 5769   1.920   4.437   3.788 -0.3204  0.6694 -0.1060
   68SAPC  H19R 5770   1.980   4.505   3.852 -0.2200 -0.6675  1.2736
   68SAPC  H19S 5771   1.828   4.493   3.759  0.1661  1.4470 -0.1867
   68SAPC  C220 5772   1.999   4.389   3.662 -0.5190  0.1232  0.0105
   68SAPC  H20R 5773   2.070   4.311   3.697 -0.4426 -0.2373 -0.9208
   68SAPC  H20S 5774   2.057   4.468   3.611  0.4862 -0.0051  0.9301
   68SAPC  H20T 5775   1.915   4.362   3.594 -1.8433  3.2669  0.2117
   68SAPC   C33 5776   0.873   4.449   3.313  0.6713 -0.2778 -0.0266
   68SAPC   H3X 5777   0.944   4.363   3.308  0.0736 -0.9535  2.1069
   68SAPC   H3Y 5778   0.777   4.402   3.281  0.4500 -0.9942  1.5763
   68SAPC   C34 5779   0.872   4.491   3.461 -0.1287  0.0131  0.5054
   68SAPC   H4X 5780   0.793   4.569   3.463  0.9623  1.1689 -0.2039
   68SAPC   H4Y 5781   0.969   4.537   3.492 -0.1474  0.2530  0.2069
   68SAPC   C35 5782   0.859   4.382   3.567  0.4464  0.1697 -0.0288
   68SAPC   H5X 5783   0.948   4.316   3.574  1.3511  1.4363  0.7925
   68SAPC   H5Y 5784   0.779   4.315   3.527 -0.3335  0.6680  0.6642
   68SAPC   C36 5785   0.817   4.443   3.698  0.1878 -0.0472 -0.2392
   68SAPC   H6X 5786   0.719   4.493   3.690  1.2116  2.0618 -0.1234
   68SAPC   H6Y 5787   0.888   4.520   3.735 -0.0954  0.7835 -1.3806
   68SAPC   C37 5788   0.807   4.335   3.803  0.5832 -0.0246 -0.3803
   68SAPC   H7X 5789   0.906   4.285   3.806 -0.8355 -2.9656  1.1804
   68SAPC   H7Y 5790   0.731   4.260   3.773  0.4114 -0.5963  1.3818
   68SAPC   C38 5791   0.773   4.388   3.946 -0.1699 -0.4606  0.5499
   68SAPC   H8X 5792   0.697   4.466   3.924  0.8091  0.4711  0.3792
   68SAPC   H8Y 5793   0.859   4.442   3.992 -0.6590  2.0217 -1.1996
   68SAPC   C39 5794   0.716   4.280   4.043 -0.4081  0.1252 -0.0783
   68SAPC   H9X 5795   0.793   4.200   4.052 -2.5236 -2.1221 -0.8356
   68SAPC   H9Y 5796   0.640   4.236   3.974 -0.6718  0.2582  0.1287
   68SAPC  C310 5797   0.675   4.329   4.175 -0.2466 -0.8216 -0.8223
   68SAPC  H10X 5798   0.615   4.421   4.157  0.2472 -0.0592  1.1408
   68SAPC  H10Y 5799   0.769   4.363   4.224 -0.8392 -2.2968  1.4394
   68SAPC  C311 5800   0.594   4.234   4.263 -0.4957 -0.4993 -0.0920
   68SAPC  H11X 5801   0.614   4.258   4.370  0.7950  0.0724 -0.4447
   68SAPC  H11Y 5802   0.645   4.135   4.256 -1.4997 -0.9762 -0.7930
   68SAPC  C312 5803   0.457   4.197   4.217  0.5612 -0.5530 -0.4259
   68SAPC  H12X 5804   0.446   4.160   4.113 -1.5963  1.1950 -0.9215
   68SAPC  H12Y 5805   0.406   4.296   4.219  0.4184 -0.4966 -3.2740
   68SAPC  C313 5806   0.381   4.094   4.307 -0.2794 -0.3821 -0.2037
   68SAPC  H13X 5807   0.431   3.996   4.296  0.7894  0.1277 -0.0650
   68SAPC  H13Y 5808   0.279   4.078   4.265  0.4016  0.2856 -2.2528
   68SAPC  C314 5809   0.368   4.126   4.456 -0.3381 -0.3932 -0.0427
   68SAPC  H14X 5810   0.323   4.226   4.476  1.6179  1.1443 -2.6495
   68SAPC  H14Y 5811   0.469   4.126   4.504  0.1755  0.3467 -1.0755
   68SAPC  C315 5812   0.295   4.010   4.534 -0.3412 -0.0391 -0.7832
   68SAPC  H15X 5813   0.335   3.909   4.514  0.9397 -0.3660  2.7802
   68SAPC  H15Y 5814   0.190   4.003   4.498 -0.9646  1.1413  0.7188
   68SAPC  C316 5815   0.292   4.054   4.673 -0.2141  0.3580  0.4409
   68SAPC  H16X 5816   0.248   4.155   4.690  4.0573  2.2983  1.3969
   68SAPC  H16Y 5817   0.400   4.066   4.695 -0.1950  1.9938 -0.3831
   68SAPC  C317 5818   0.223   3.957   4.767 -0.2229  0.0949 -0.4838
   68SAPC  H17X 5819   0.112   3.964   4.757 -0.5440 -2.6202  0.3568
   68SAPC  H17Y 5820   0.238   3.987   4.873  0.2690  2.6463 -1.1988
   68SAPC  C318 5821   0.274   3.821   4.744 -0.2255 -0.2790  0.4225
   68SAPC  H18X 5822   0.385   3.821   4.751 -0.1289  2.1891 -0.1357
   68SAPC  H18Y 5823   0.251   3.778   4.644  0.9137  0.6038 -0.2512
   68SAPC  H18Z 5824   0.244   3.748   4.822  2.1995 -2.1934 -0.3475
   69SAPC     N 5825   5.569   6.547   2.712  0.3673 -0.3049 -0.5638
   69SAPC   C12 5826   5.637   6.457   2.815  0.1949 -0.3502 -1.5283
   69SAPC  H12A 5827   5.667   6.360   2.777  2.9824 -0.3985  0.5100
   69SAPC  H12B 5828   5.565   6.431   2.891  0.2892  2.8599 -0.1786
   69SAPC   C13 5829   5.457   6.473   2.644  0.5445 -0.0168  0.0326
   69SAPC  H13A 5830   5.395   6.535   2.580  2.8545 -0.4257 -2.8050
   69SAPC  H13B 5831   5.482   6.385   2.587  0.8334  1.3772 -2.1112
   69SAPC  H13C 5832   5.391   6.439   2.723  0.4239  1.1732  0.4640
   69SAPC   C14 5833   5.521   6.672   2.770  0.1860 -0.7259 -0.3847
   69SAPC  H14A 5834   5.481   6.734   2.691  1.2415 -4.3319 -4.1486
   69SAPC  H14B 5835   5.436   6.653   2.833  0.2091  1.1380  0.2607
   69SAPC  H14C 5836   5.595   6.736   2.818 -0.6489 -0.1161  0.1143
   69SAPC   C15 5837   5.662   6.579   2.604 -0.0479 -0.3339  0.5200
   69SAPC  H15A 5838   5.608   6.631   2.526  2.0274 -0.5082 -1.1181
   69SAPC  H15B 5839   5.737   6.647   2.640  0.3685 -1.1797  1.3051
   69SAPC  H15C 5840   5.708   6.494   2.555 -0.2499 -0.6144  0.8095
   69SAPC   C11 5841   5.766   6.505   2.888 -0.0857  0.4922 -0.0877
   69SAPC  H11A 5842   5.794   6.433   2.967  0.4000  0.3092 -0.4227
   69SAPC  H11B 5843   5.739   6.603   2.932 -1.7631  0.2693 -0.5137
   69SAPC     P 5844   6.009   6.592   2.816 -0.2617  0.4188 -0.5224
   69SAPC   O13 5845   6.115   6.531   2.739  0.3083 -0.1459 -0.0865
   69SAPC   O14 5846   5.980   6.730   2.782 -0.0596 -0.1563 -0.6854
   69SAPC   O12 5847   5.880   6.503   2.798 -0.0819  0.3470 -0.1023
   69SAPC   O11 5848   6.057   6.575   2.968  0.1178  0.3053 -0.4621
   69SAPC    C1 5849   6.109   6.450   3.020 -0.0107 -0.4298 -0.0469
   69SAPC    HA 5850   6.048   6.409   3.104 -0.7107  1.5607  0.4716
   69SAPC    HB 5851   6.115   6.365   2.949  0.7772 -0.1702 -0.2950
   69SAPC    C2 5852   6.250   6.490   3.072 -0.2603 -1.2746 -0.2485
   69SAPC    HS 5853   6.318   6.524   2.991  1.1595 -4.4551 -0.5147
   69SAPC   O21 5854   6.311   6.387   3.147  0.3568  0.1142  0.1693
   69SAPC   C21 5855   6.333   6.268   3.095 -0.0707  0.0609  0.6286
   69SAPC   O22 5856   6.292   6.216   2.990  0.3757 -0.2555 -0.0513
   69SAPC   C22 5857   6.425   6.193   3.199 -0.0631  0.2985  1.0553
   69SAPC   H2R 5858   6.527   6.193   3.157 -1.0724  1.2339 -1.5851
   69SAPC   H2S 5859   6.442   6.266   3.282 -0.5340 -0.6646  2.0218
   69SAPC    C3 5860   6.241   6.628   3.163  0.1363  0.7689  0.4454
   69SAPC    HX 5861   6.155   6.611   3.231  0.4198  1.1898  0.9217
   69SAPC    HY 5862   6.221   6.707   3.088  0.3522  0.3253 -0.0828
   69SAPC   O31 5863   6.366   6.658   3.228 -0.2615 -0.1084 -0.0039
   69SAPC   C31 5864   6.358   6.771   3.295  1.2934 -0.1334 -0.3929
   69SAPC   O32 5865   6.260   6.847   3.306  0.4977  0.2294  0.6747
   69SAPC   C32 5866   6.493   6.778   3.368  0.0195  0.3823 -0.4156
   69SAPC   H2X 5867   6.557   6.853   3.317  1.4185  0.1896  0.9957
   69SAPC   H2Y 5868   6.536   6.676   3.359 -1.6068 -0.4349  0.6278
   69SAPC   C23 5869   6.381   6.049   3.228  0.0778 -0.4384 -0.1414
   69SAPC   H3R 5870   6.297   6.026   3.159  0.9756 -0.3168 -1.3052
   69SAPC   H3S 5871   6.340   6.045   3.332  1.6481  1.4211  0.6147
   69SAPC   C24 5872   6.491   5.946   3.199  0.0505  0.1175  0.4091
   69SAPC   H4R 5873   6.512   5.975   3.093 -0.2927  4.7136  1.3811
   69SAPC   H4S 5874   6.461   5.839   3.204 -0.4619  0.1288 -1.4249
   69SAPC   C25 5875   6.619   5.971   3.279  0.8712  1.0297  0.2834
   69SAPC   H5R 5876   6.693   6.031   3.225 -0.1274  1.9965 -0.0267
   69SAPC   C26 5877   6.635   5.947   3.411 -0.0250  0.4164  0.0996
   69SAPC   H6R 5878   6.736   5.950   3.456  0.6259 -1.7532 -1.0458
   69SAPC   C27 5879   6.537   5.877   3.503 -0.0717 -0.2290  0.2079
   69SAPC   H7R 5880   6.594   5.810   3.572 -1.3323 -0.1605  1.3629
   69SAPC   H7S 5881   6.454   5.819   3.458 -1.8837  1.7362  0.8834
   69SAPC   C28 5882   6.470   5.998   3.578 -0.9127  0.1200 -0.3223
   69SAPC   H8R 5883   6.437   6.087   3.523  1.9428  1.6867  0.2872
   69SAPC   C29 5884   6.462   6.011   3.709  0.4191 -0.0306  0.1910
   69SAPC   H9R 5885   6.425   6.104   3.754 -0.5521 -0.5035  0.4044
   69SAPC  C210 5886   6.500   5.902   3.811 -0.7569  0.2960  0.0127
   69SAPC  H10R 5887   6.509   5.798   3.773  0.9832 -1.0527  3.6361
   69SAPC  H10S 5888   6.408   5.902   3.874 -1.2252 -1.3425 -0.6271
   69SAPC  C211 5889   6.618   5.907   3.910 -0.8498  0.2556  0.7843
   69SAPC  H11R 5890   6.691   5.832   3.876 -1.3646 -0.2728  0.8390
   69SAPC  C212 5891   6.638   5.995   4.009  0.5438 -0.1206 -0.4287
   69SAPC  H12R 5892   6.727   5.977   4.071 -0.5044 -1.2279  0.8171
   69SAPC  C213 5893   6.551   6.116   4.053 -0.2287  0.2114  0.3112
   69SAPC  H13R 5894   6.465   6.119   3.982 -0.4989  0.9447  0.6532
   69SAPC  H13S 5895   6.610   6.206   4.024  0.0623  0.1306  0.6434
   69SAPC  C214 5896   6.498   6.145   4.193  0.0490 -0.7402 -0.6803
   69SAPC  H14R 5897   6.580   6.156   4.266 -0.3149 -0.3085 -0.3266
   69SAPC  C215 5898   6.369   6.175   4.226  0.1142 -0.5666  0.8849
   69SAPC  H15R 5899   6.337   6.205   4.327 -0.9708  2.3387 -0.2029
   69SAPC  C216 5900   6.263   6.155   4.121  0.2836  0.2459 -0.1595
   69SAPC  H16R 5901   6.164   6.123   4.161 -0.4877  1.6834 -0.8141
   69SAPC  H16S 5902   6.279   6.078   4.043 -0.6079  0.4521 -0.5700
   69SAPC  C217 5903   6.241   6.295   4.057 -0.0572 -0.2603  0.4255
   69SAPC  H17R 5904   6.339   6.332   4.021 -0.2979 -0.7101 -0.7586
   69SAPC  H17S 5905   6.201   6.362   4.135 -0.9065 -0.0740 -0.1608
   69SAPC  C218 5906   6.147   6.293   3.936  0.4947  0.2345  0.0001
   69SAPC  H18R 5907   6.124   6.401   3.924 -0.5105  0.2373  1.7311
   69SAPC  H18S 5908   6.050   6.248   3.963  0.2387  0.2577 -0.8640
   69SAPC  C219 5909   6.201   6.236   3.799  0.0011  0.9591 -0.3303
   69SAPC  H19R 5910   6.204   6.125   3.803 -0.5639  0.8798 -1.6129
   69SAPC  H19S 5911   6.300   6.282   3.777  0.2586  0.3246 -0.5339
   69SAPC  C220 5912   6.115   6.261   3.680 -0.3023 -0.1058  0.2326
   69SAPC  H20R 5913   6.007   6.252   3.705 -0.4528  0.6645 -0.1309
   69SAPC  H20S 5914   6.150   6.199   3.594  3.3349  0.9455  0.7876
   69SAPC  H20T 5915   6.143   6.363   3.645  1.9289 -0.5103  0.6581
   69SAPC   C33 5916   6.475   6.839   3.504 -0.4127  0.2549  0.3405
   69SAPC   H3X 5917   6.428   6.940   3.499  0.6918  0.9137  2.4467
   69SAPC   H3Y 5918   6.574   6.864   3.547  0.1664  0.8469 -1.2446
   69SAPC   C34 5919   6.393   6.746   3.600 -1.5060 -0.0678  0.7086
   69SAPC   H4X 5920   6.439   6.645   3.596 -1.1207  0.0981  0.9095
   69SAPC   H4Y 5921   6.291   6.727   3.561  0.1192 -1.2545 -3.5869
   69SAPC   C35 5922   6.405   6.798   3.743  0.1890 -0.2247 -0.0585
   69SAPC   H5X 5923   6.343   6.889   3.754 -1.2144 -0.9676 -1.3815
   69SAPC   H5Y 5924   6.510   6.826   3.769 -0.4394 -0.6352  3.4642
   69SAPC   C36 5925   6.355   6.702   3.854  0.8743 -0.1518  0.5500
   69SAPC   H6X 5926   6.393   6.602   3.826 -0.2406  0.2770 -3.0458
   69SAPC   H6Y 5927   6.244   6.702   3.846  0.8394 -3.3908 -0.4019
   69SAPC   C37 5928   6.408   6.751   3.991  0.4073 -0.1018 -0.1262
   69SAPC   H7X 5929   6.367   6.852   4.007 -1.4306 -0.8093 -0.1487
   69SAPC   H7Y 5930   6.519   6.749   3.994  0.3899 -0.3494  0.7752
   69SAPC   C38 5931   6.369   6.652   4.102 -0.0463 -0.3084  0.1267
   69SAPC   H8X 5932   6.416   6.561   4.060 -1.5766 -1.1568  0.1748
   69SAPC   H8Y 5933   6.259   6.637   4.097 -0.2018  0.4428  0.9196
   69SAPC   C39 5934   6.418   6.679   4.244  0.4548 -0.2811  0.1587
   69SAPC   H9X 5935   6.378   6.775   4.282  1.4479 -0.3038  1.3617
   69SAPC   H9Y 5936   6.528   6.674   4.231  0.4285  0.1119 -0.2122
   69SAPC  C310 5937   6.378   6.571   4.347  0.0751 -0.9077  0.1791
   69SAPC  H10X 5938   6.399   6.468   4.310  0.2839 -1.7491  2.4844
   69SAPC  H10Y 5939   6.269   6.582   4.362  0.2556  1.5122 -0.0242
   69SAPC  C311 5940   6.451   6.593   4.483 -0.3127 -0.0199 -0.6680
   69SAPC  H11X 5941   6.442   6.698   4.516  2.2281 -0.1199  0.5813
   69SAPC  H11Y 5942   6.554   6.571   4.449 -1.2958 -1.5185 -2.8803
   69SAPC  C312 5943   6.394   6.502   4.593 -0.6685  0.0151  0.1741
   69SAPC  H12X 5944   6.387   6.400   4.550 -0.7614  1.0351 -2.4004
   69SAPC  H12Y 5945   6.290   6.539   4.600 -0.2403  1.5706 -1.0498
   69SAPC  C313 5946   6.461   6.516   4.737  0.0838  0.2320 -0.7484
   69SAPC  H13X 5947   6.569   6.536   4.721 -0.0154  0.4493 -1.1491
   69SAPC  H13Y 5948   6.451   6.419   4.791  3.5744 -1.9298 -3.5368
   69SAPC  C314 5949   6.418   6.635   4.823 -0.1039  0.4086  0.1873
   69SAPC  H14X 5950   6.321   6.617   4.874 -0.5014 -1.5106 -1.1751
   69SAPC  H14Y 5951   6.410   6.725   4.759 -2.1506 -0.2587 -0.5595
   69SAPC  C315 5952   6.518   6.664   4.936 -0.4594 -0.7694 -0.7645
   69SAPC  H15X 5953   6.615   6.683   4.885 -1.1422 -0.3213 -1.9394
   69SAPC  H15Y 5954   6.523   6.575   5.002  1.0693  1.6621  2.6941
   69SAPC  C316 5955   6.468   6.771   5.029 -0.7740  0.9596  0.3498
   69SAPC  H16X 5956   6.358   6.772   5.047 -0.8183 -2.7273  1.2020
   69SAPC  H16Y 5957   6.492   6.867   4.979  1.7188  0.6360  0.8266
   69SAPC  C317 5958   6.557   6.773   5.154 -0.4567  0.7776  0.2843
   69SAPC  H17X 5959   6.663   6.787   5.128 -0.3395 -0.0734  0.2832
   69SAPC  H17Y 5960   6.550   6.690   5.228 -0.1046 -0.1154 -0.6628
   69SAPC  C318 5961   6.527   6.902   5.233 -0.4006 -0.5457  0.5668
   69SAPC  H18X 5962   6.533   6.987   5.161 -2.1422 -1.6917 -1.0360
   69SAPC  H18Y 5963   6.598   6.919   5.317 -1.0895  1.4750  0.7892
   69SAPC  H18Z 5964   6.421   6.904   5.264 -1.1621  3.3756 -1.6579
   70SAPC     N 5965   1.626   6.331   2.466 -0.0351 -0.6418 -0.3146
   70SAPC   C12 5966   1.646   6.327   2.618  0.6632 -0.1259 -0.1856
   70SAPC  H12A 5967   1.744   6.284   2.630  0.5952  0.0192  1.0442
   70SAPC  H12B 5968   1.583   6.248   2.656  1.4399 -0.9185 -0.5027
   70SAPC   C13 5969   1.629   6.198   2.408 -0.5279  0.1210  0.6504
   70SAPC  H13A 5970   1.551   6.137   2.449  1.9929 -2.1923  2.3573
   70SAPC  H13B 5971   1.628   6.184   2.300 -1.5791 -1.1507  0.8031
   70SAPC  H13C 5972   1.717   6.153   2.451  0.4079  1.1933 -0.0614
   70SAPC   C14 5973   1.490   6.391   2.441  0.0763  0.4583  0.7541
   70SAPC  H14A 5974   1.486   6.485   2.493 -2.1764  1.3095 -0.7707
   70SAPC  H14B 5975   1.498   6.423   2.338  1.5516  1.3616  1.1180
   70SAPC  H14C 5976   1.401   6.330   2.451  0.5441  0.0361  2.7618
   70SAPC   C15 5977   1.734   6.414   2.394 -0.0606 -0.1822  0.1204
   70SAPC  H15A 5978   1.733   6.514   2.433 -0.7063 -0.4858  0.9128
   70SAPC  H15B 5979   1.831   6.371   2.416  0.7837  1.8745  0.5905
   70SAPC  H15C 5980   1.724   6.410   2.287 -1.5090 -1.9198  0.2758
   70SAPC   C11 5981   1.618   6.457   2.693  0.2648 -0.1676 -0.4250
   70SAPC  H11A 5982   1.630   6.442   2.802 -1.6636  3.4337  0.4670
   70SAPC  H11B 5983   1.511   6.485   2.680  1.2877  3.9338 -1.3836
   70SAPC     P 5984   1.676   6.701   2.685 -0.1550 -0.1190  0.3579
   70SAPC   O13 5985   1.751   6.799   2.600  0.3884 -0.1257 -0.2008
   70SAPC   O14 5986   1.532   6.720   2.688 -0.4858  0.3950 -0.6355
   70SAPC   O12 5987   1.709   6.555   2.645  0.1115  0.6114  0.4647
   70SAPC   O11 5988   1.736   6.713   2.829  0.2318 -0.1756  0.1238
   70SAPC    C1 5989   1.870   6.669   2.868  0.1333 -0.5340  0.1996
   70SAPC    HA 5990   1.939   6.682   2.782 -0.5336 -0.2326 -0.2980
   70SAPC    HB 5991   1.904   6.734   2.952 -1.4667  1.7473 -0.8180
   70SAPC    C2 5992   1.882   6.521   2.913 -0.2049  0.3903 -0.1959
   70SAPC    HS 5993   1.839   6.459   2.831 -1.4476  0.2936  0.5159
   70SAPC   O21 5994   1.810   6.501   3.039  0.0156 -0.1611  0.1667
   70SAPC   C21 5995   1.747   6.390   3.042  0.0912  0.6883 -0.8000
   70SAPC   O22 5996   1.745   6.299   2.961  0.1452 -0.3499 -0.0454
   70SAPC   C22 5997   1.673   6.375   3.175  0.0342  0.5013 -0.3137
   70SAPC   H2R 5998   1.568   6.410   3.162 -0.1567  0.5189  1.1106
   70SAPC   H2S 5999   1.668   6.274   3.221 -2.7939 -0.0662 -1.6794
   70SAPC    C3 6000   2.026   6.474   2.932 -0.8032 -0.6767  0.3446
   70SAPC    HX 6001   2.081   6.506   2.841 -1.0263 -1.2126  0.0074
   70SAPC    HY 6002   2.028   6.363   2.945  0.0703 -0.7129 -0.0163
   70SAPC   O31 6003   2.068   6.536   3.053  0.3937 -0.3752  0.2786
   70SAPC   C31 6004   2.183   6.602   3.041 -1.0684 -0.0871 -0.0388
   70SAPC   O32 6005   2.233   6.649   2.943 -0.1899 -0.0765  1.0860
   70SAPC   C32 6006   2.243   6.630   3.184 -0.3128  0.4861 -0.0160
   70SAPC   H2X 6007   2.350   6.656   3.177  0.3032 -1.3731  1.6693
   70SAPC   H2Y 6008   2.244   6.531   3.234  1.0176  1.1852  1.4125
   70SAPC   C23 6009   1.736   6.464   3.296  0.5357 -0.1332 -0.2150
   70SAPC   H3R 6010   1.732   6.570   3.263  0.3402 -0.6544 -1.9469
   70SAPC   H3S 6011   1.838   6.422   3.315 -0.2293 -1.8115  0.3958
   70SAPC   C24 6012   1.638   6.452   3.419 -0.5261  0.1432 -0.1006
   70SAPC   H4R 6013   1.620   6.346   3.448 -0.5775  0.0239 -0.5535
   70SAPC   H4S 6014   1.542   6.502   3.397 -1.1001 -1.1823 -0.6959
   70SAPC   C25 6015   1.694   6.530   3.531 -0.4115  0.0648 -0.3054
   70SAPC   H5R 6016   1.692   6.639   3.513 -3.4621  0.0652 -0.5634
   70SAPC   C26 6017   1.731   6.489   3.645 -0.4119 -0.1899  0.2412
   70SAPC   H6R 6018   1.774   6.559   3.718  0.5588 -0.9276  0.3995
   70SAPC   C27 6019   1.727   6.346   3.684 -0.0434 -0.3551  0.5705
   70SAPC   H7R 6020   1.735   6.270   3.604  2.1698  0.9117 -0.5025
   70SAPC   H7S 6021   1.629   6.330   3.733 -0.5797 -1.8197 -0.9121
   70SAPC   C28 6022   1.829   6.305   3.786 -0.4358  0.6064 -1.1202
   70SAPC   H8R 6023   1.900   6.230   3.749 -0.8320  0.3226 -1.3204
   70SAPC   C29 6024   1.832   6.331   3.916  0.5379 -0.2632 -0.5931
   70SAPC   H9R 6025   1.902   6.269   3.974 -0.7629 -0.6071  0.6677
   70SAPC  C210 6026   1.720   6.408   3.993 -0.0368 -0.2312  0.2290
   70SAPC  H10R 6027   1.627   6.412   3.933  0.2859 -1.1433 -0.3495
   70SAPC  H10S 6028   1.755   6.512   4.006  2.0283 -1.0074  1.4141
   70SAPC  C211 6029   1.688   6.355   4.126  0.7429 -0.5639  0.0249
   70SAPC  H11R 6030   1.619   6.270   4.117 -1.1090  0.8579  0.2933
   70SAPC  C212 6031   1.744   6.379   4.249 -0.2943 -0.8378 -0.6281
   70SAPC  H12R 6032   1.695   6.338   4.339  0.6228  0.1545  0.3538
   70SAPC  C213 6033   1.844   6.485   4.294 -0.1273  0.6604  0.0842
   70SAPC  H13R 6034   1.815   6.522   4.394 -0.8573 -1.8621  0.9035
   70SAPC  H13S 6035   1.858   6.570   4.224 -3.4697 -0.4009 -2.0798
   70SAPC  C214 6036   1.987   6.433   4.317 -0.0773 -0.0687 -0.4027
   70SAPC  H14R 6037   2.051   6.415   4.229  2.5846 -0.9296  1.5764
   70SAPC  C215 6038   2.053   6.409   4.434  0.1610 -0.4091  0.0970
   70SAPC  H15R 6039   2.157   6.374   4.426  0.0805 -0.9898  1.3402
   70SAPC  C216 6040   1.993   6.413   4.572  0.3787 -0.4139  0.3622
   70SAPC  H16R 6041   1.883   6.400   4.574  0.0137  1.2944 -2.6784
   70SAPC  H16S 6042   2.003   6.516   4.614 -3.1485  0.0678  0.3294
   70SAPC  C217 6043   2.050   6.318   4.678  0.4131  0.0314  0.2229
   70SAPC  H17R 6044   2.158   6.345   4.688  0.7119 -0.3814 -1.5640
   70SAPC  H17S 6045   2.052   6.210   4.654 -1.3732  0.4873 -2.3668
   70SAPC  C218 6046   1.967   6.323   4.811 -1.0707 -0.1110 -0.7143
   70SAPC  H18R 6047   1.875   6.262   4.801 -0.1790 -1.3899 -1.4851
   70SAPC  H18S 6048   1.938   6.429   4.827  1.8873  0.8891 -1.2852
   70SAPC  C219 6049   2.063   6.285   4.925  0.4604 -0.0967  0.8969
   70SAPC  H19R 6050   2.136   6.368   4.933  1.2349 -0.0273 -4.0805
   70SAPC  H19S 6051   2.110   6.194   4.883 -0.5708 -0.1142 -0.2544
   70SAPC  C220 6052   2.001   6.270   5.074  0.4145  0.0457  0.3632
   70SAPC  H20R 6053   2.085   6.287   5.144 -0.3126  0.6590  1.0970
   70SAPC  H20S 6054   1.956   6.169   5.085  1.0075 -0.3153 -0.3747
   70SAPC  H20T 6055   1.918   6.343   5.086  0.1155  0.3390 -2.6732
   70SAPC   C33 6056   2.154   6.729   3.257  0.9268  0.0348  0.0226
   70SAPC   H3X 6057   2.094   6.781   3.180 -0.7201 -3.2124 -1.0917
   70SAPC   H3Y 6058   2.211   6.803   3.317  0.1757  0.7785 -0.1745
   70SAPC   C34 6059   2.035   6.674   3.333  0.0926 -0.5786  0.2380
   70SAPC   H4X 6060   1.982   6.604   3.263  1.4989 -3.1171  1.5757
   70SAPC   H4Y 6061   1.966   6.760   3.347  1.0090 -0.0505  1.6616
   70SAPC   C35 6062   2.070   6.595   3.466  0.3028  0.0395 -0.0990
   70SAPC   H5X 6063   2.161   6.537   3.440  0.0326  0.7876 -3.0660
   70SAPC   H5Y 6064   1.997   6.515   3.487 -0.4840  0.5039 -1.0173
   70SAPC   C36 6065   2.094   6.685   3.593  0.0889  0.7606  0.3266
   70SAPC   H6X 6066   1.994   6.719   3.626  0.5883  1.7968  0.8364
   70SAPC   H6Y 6067   2.155   6.775   3.568  0.8058 -0.0205 -0.8311
   70SAPC   C37 6068   2.169   6.622   3.712 -0.6022  1.1246  1.1299
   70SAPC   H7X 6069   2.132   6.518   3.721 -1.6881  1.5445  1.8651
   70SAPC   H7Y 6070   2.276   6.609   3.687 -1.1641 -1.0951 -0.3915
   70SAPC   C38 6071   2.158   6.694   3.844  0.4943 -0.3623  0.1885
   70SAPC   H8X 6072   2.049   6.707   3.864  0.9068  0.8770  1.8184
   70SAPC   H8Y 6073   2.207   6.793   3.834  1.7256 -0.9712 -0.0587
   70SAPC   C39 6074   2.221   6.611   3.962  0.4513  0.3404 -0.0157
   70SAPC   H9X 6075   2.326   6.585   3.938 -0.0253 -1.0936 -0.6395
   70SAPC   H9Y 6076   2.173   6.511   3.959  0.4313  0.2561  1.7614
   70SAPC  C310 6077   2.218   6.684   4.090  0.7249 -0.3952 -0.2915
   70SAPC  H10X 6078   2.108   6.695   4.104  1.0063  0.4893  1.3590
   70SAPC  H10Y 6079   2.265   6.784   4.080  1.9025 -0.8814  0.1953
   70SAPC  C311 6080   2.293   6.627   4.207 -0.2328 -0.0430  0.1845
   70SAPC  H11X 6081   2.403   6.625   4.188 -0.0091 -1.0298  1.5162
   70SAPC  H11Y 6082   2.248   6.529   4.231  0.3764 -0.2520  0.4708
   70SAPC  C312 6083   2.268   6.713   4.329  1.1313 -0.6037  0.2988
   70SAPC  H12X 6084   2.160   6.731   4.348  0.5519 -3.1536 -0.2938
   70SAPC  H12Y 6085   2.319   6.810   4.311 -0.7119  0.3942  0.2167
   70SAPC  C313 6086   2.327   6.651   4.455  0.2533 -0.4481 -1.1170
   70SAPC  H13X 6087   2.436   6.661   4.439  0.1014  0.0262 -1.9201
   70SAPC  H13Y 6088   2.304   6.544   4.473  0.6926 -0.4286 -0.3780
   70SAPC  C314 6089   2.289   6.723   4.590 -0.0824  0.5636 -0.1331
   70SAPC  H14X 6090   2.178   6.727   4.591 -0.2693 -2.4038 -0.8124
   70SAPC  H14Y 6091   2.330   6.826   4.578  2.9940 -0.7471 -1.8665
   70SAPC  C315 6092   2.346   6.656   4.717 -0.1015  0.2187 -0.0758
   70SAPC  H15X 6093   2.456   6.649   4.708 -0.2159 -0.7478 -0.8748
   70SAPC  H15Y 6094   2.310   6.550   4.719  0.2918  0.0771 -0.5224
   70SAPC  C316 6095   2.313   6.722   4.856 -0.8374  0.5086 -0.4115
   70SAPC  H16X 6096   2.330   6.832   4.848 -0.3578  0.5197  0.6386
   70SAPC  H16Y 6097   2.381   6.690   4.938 -0.8773  0.3877 -0.4257
   70SAPC  C317 6098   2.173   6.694   4.911 -0.1487 -0.3024 -0.0778
   70SAPC  H17X 6099   2.148   6.586   4.908 -0.7204 -0.1662 -0.2341
   70SAPC  H17Y 6100   2.104   6.749   4.844  1.0906 -0.4346 -1.5087
   70SAPC  C318 6101   2.159   6.739   5.055 -1.0754  0.8522 -0.6261
   70SAPC  H18X 6102   2.185   6.846   5.061  1.0119  0.3123  0.9399
   70SAPC  H18Y 6103   2.234   6.688   5.119 -3.3004 -0.3602  1.1580
   70SAPC  H18Z 6104   2.059   6.720   5.099 -0.3670 -1.1540  0.2280
   71SAPC     N 6105   1.092   3.669   2.652 -0.7453  0.2033  0.2097
   71SAPC   C12 6106   1.070   3.567   2.760 -0.0182 -0.5179 -0.2526
   71SAPC  H12A 6107   1.013   3.485   2.720 -1.0973  0.6467 -1.1873
   71SAPC  H12B 6108   1.018   3.618   2.840  0.5797 -1.0223  0.4637
   71SAPC   C13 6109   1.150   3.602   2.534  0.1596 -0.1386  0.7857
   71SAPC  H13A 6110   1.074   3.546   2.481 -0.9754  0.4454  1.7653
   71SAPC  H13B 6111   1.188   3.669   2.458 -0.0357 -0.2873  0.5539
   71SAPC  H13C 6112   1.231   3.533   2.551 -1.5149 -2.3767  0.2566
   71SAPC   C14 6113   0.961   3.731   2.605 -0.2369 -1.1637  0.4089
   71SAPC  H14A 6114   0.894   3.762   2.685 -4.2888 -0.5359 -2.8929
   71SAPC  H14B 6115   0.990   3.811   2.539  0.6574 -0.6189  1.4314
   71SAPC  H14C 6116   0.908   3.660   2.544  0.8313 -1.0964 -0.6200
   71SAPC   C15 6117   1.193   3.777   2.690  0.3156  0.3002 -0.2816
   71SAPC  H15A 6118   1.200   3.844   2.606  2.5345 -1.6134 -1.7948
   71SAPC  H15B 6119   1.160   3.812   2.786  1.1923 -3.4357  1.5719
   71SAPC  H15C 6120   1.293   3.740   2.711 -0.1841  0.2563  2.2929
   71SAPC   C11 6121   1.197   3.511   2.824 -0.1195 -0.5650  0.0147
   71SAPC  H11A 6122   1.178   3.421   2.886  0.0630 -1.0668 -0.6624
   71SAPC  H11B 6123   1.238   3.591   2.890  0.0269 -1.4143  0.9703
   71SAPC     P 6124   1.448   3.484   2.749 -0.0689  0.0011  0.0240
   71SAPC   O13 6125   1.522   3.370   2.684  0.5380  0.3735  0.1889
   71SAPC   O14 6126   1.473   3.624   2.708 -0.5900  0.4344 -0.0584
   71SAPC   O12 6127   1.293   3.464   2.726 -0.4505 -0.5748 -0.4149
   71SAPC   O11 6128   1.458   3.483   2.913  0.6444  0.6723 -0.1099
   71SAPC    C1 6129   1.464   3.356   2.978  0.2307 -0.5880  0.5373
   71SAPC    HA 6130   1.364   3.318   3.009 -1.0707  0.9790 -1.5022
   71SAPC    HB 6131   1.512   3.280   2.913 -0.1971 -0.4173  0.0146
   71SAPC    C2 6132   1.547   3.341   3.109  0.1264 -0.0331  0.5388
   71SAPC    HS 6133   1.552   3.233   3.133  0.4467 -0.2881 -0.6283
   71SAPC   O21 6134   1.499   3.422   3.217 -0.2043  0.1844  0.0245
   71SAPC   C21 6135   1.382   3.379   3.266  0.5780 -0.9093  0.4726
   71SAPC   O22 6136   1.327   3.281   3.225  0.2901  0.4263 -0.3169
   71SAPC   C22 6137   1.323   3.485   3.360  0.2453  0.0665 -0.6728
   71SAPC   H2R 6138   1.392   3.572   3.362  0.8338 -0.3731 -1.3591
   71SAPC   H2S 6139   1.231   3.525   3.312  0.3624  2.9733  1.2615
   71SAPC    C3 6140   1.688   3.393   3.074  0.0629 -1.3833 -0.1013
   71SAPC    HX 6141   1.674   3.495   3.033  1.9657 -1.3933 -0.8984
   71SAPC    HY 6142   1.738   3.337   2.991 -0.3944 -1.3658 -0.3892
   71SAPC   O31 6143   1.770   3.397   3.188 -0.7265 -0.4252 -0.2228
   71SAPC   C31 6144   1.801   3.281   3.238  1.0639 -0.4134 -0.0920
   71SAPC   O32 6145   1.773   3.172   3.194 -0.1219 -0.1142  0.1739
   71SAPC   C32 6146   1.879   3.296   3.369 -0.7952  0.3541 -0.0005
   71SAPC   H2X 6147   1.840   3.383   3.426 -0.1992 -0.3466  1.5321
   71SAPC   H2Y 6148   1.984   3.318   3.340 -0.7111  1.4014  1.0165
   71SAPC   C23 6149   1.286   3.416   3.490  0.5636 -0.6489 -0.4493
   71SAPC   H3R 6150   1.375   3.365   3.533  0.1733 -1.7806 -0.9392
   71SAPC   H3S 6151   1.211   3.335   3.477 -1.8170  1.3386  0.2387
   71SAPC   C24 6152   1.248   3.521   3.593  0.4180  0.3065  0.3477
   71SAPC   H4R 6153   1.164   3.487   3.657  0.0285  1.7739  0.6487
   71SAPC   H4S 6154   1.197   3.599   3.532  0.8486 -0.4280 -1.0013
   71SAPC   C25 6155   1.353   3.591   3.675 -0.3811  1.0156  0.1132
   71SAPC   H5R 6156   1.413   3.661   3.615  2.9067 -1.3598  0.3789
   71SAPC   C26 6157   1.374   3.593   3.809 -0.6766 -0.0254  0.3296
   71SAPC   H6R 6158   1.444   3.666   3.852  0.8635 -1.9076  1.1857
   71SAPC   C27 6159   1.295   3.509   3.909 -0.7187 -0.0284 -0.9177
   71SAPC   H7R 6160   1.360   3.434   3.959  0.4263  2.1885  1.1557
   71SAPC   H7S 6161   1.213   3.449   3.864 -0.7635 -1.1489  0.5821
   71SAPC   C28 6162   1.228   3.607   4.009  0.0156  0.0893  1.0252
   71SAPC   H8R 6163   1.145   3.660   3.959  0.8179  1.0084  0.6233
   71SAPC   C29 6164   1.253   3.634   4.134  0.4723  1.0851 -0.1800
   71SAPC   H9R 6165   1.176   3.691   4.188  0.7067 -0.8435  2.3750
   71SAPC  C210 6166   1.370   3.570   4.213  0.5813  0.4175 -0.4285
   71SAPC  H10R 6167   1.400   3.650   4.283 -2.8807  0.1686  1.5953
   71SAPC  H10S 6168   1.457   3.543   4.150  0.8892 -0.7920  0.4676
   71SAPC  C211 6169   1.333   3.439   4.279 -0.1180 -0.2647  0.5953
   71SAPC  H11R 6170   1.291   3.362   4.212  0.9716 -0.6454  0.3330
   71SAPC  C212 6171   1.331   3.404   4.409 -0.3708 -0.4342  0.5084
   71SAPC  H12R 6172   1.286   3.308   4.440 -0.8180 -1.0955 -1.9780
   71SAPC  C213 6173   1.377   3.502   4.515 -0.2774  0.0337 -0.2420
   71SAPC  H13R 6174   1.324   3.599   4.506 -0.6850 -0.2135 -0.5473
   71SAPC  H13S 6175   1.484   3.524   4.499  0.4159 -1.3647  1.8963
   71SAPC  C214 6176   1.356   3.447   4.657  0.8577 -0.2024 -0.5367
   71SAPC  H14R 6177   1.295   3.505   4.729 -0.3894  0.8171 -2.3318
   71SAPC  C215 6178   1.422   3.341   4.708 -0.0013  0.3191 -0.2890
   71SAPC  H15R 6179   1.404   3.312   4.812  0.6694 -1.0939 -0.5372
   71SAPC  C216 6180   1.528   3.258   4.650 -0.3321  0.2956 -0.6171
   71SAPC  H16R 6181   1.581   3.328   4.581 -4.6600  1.0922 -3.5539
   71SAPC  H16S 6182   1.486   3.175   4.589  2.6845 -3.7523  2.2585
   71SAPC  C217 6183   1.633   3.186   4.746 -0.1229  0.3145  0.0616
   71SAPC  H17R 6184   1.672   3.106   4.680 -0.8167 -0.7790  0.9495
   71SAPC  H17S 6185   1.566   3.137   4.820  2.0638 -0.2903  1.7265
   71SAPC  C218 6186   1.752   3.272   4.805 -0.2562  0.4320 -0.6311
   71SAPC  H18R 6187   1.717   3.377   4.798  1.2506  0.9709 -0.3958
   71SAPC  H18S 6188   1.830   3.271   4.726 -1.4053  1.0671 -1.8232
   71SAPC  C219 6189   1.824   3.239   4.933 -0.2942 -0.3167  0.2054
   71SAPC  H19R 6190   1.876   3.141   4.928 -2.2001 -1.5200  2.1895
   71SAPC  H19S 6191   1.746   3.236   5.012 -1.6311 -1.7504 -1.0950
   71SAPC  C220 6192   1.940   3.337   4.964 -0.0828 -0.2097 -0.2488
   71SAPC  H20R 6193   2.025   3.318   4.895 -0.7854  0.9834 -1.4774
   71SAPC  H20S 6194   1.973   3.329   5.070  1.4428 -0.4391 -0.7107
   71SAPC  H20T 6195   1.908   3.442   4.955  1.0199  0.4349  2.3572
   71SAPC   C33 6196   1.869   3.164   3.458 -0.2285 -0.4566  0.4047
   71SAPC   H3X 6197   1.964   3.161   3.514  0.7286 -0.5406 -1.1512
   71SAPC   H3Y 6198   1.848   3.076   3.394 -1.5730 -0.4701  0.8375
   71SAPC   C34 6199   1.742   3.168   3.548 -0.0592  0.6851 -0.5678
   71SAPC   H4X 6200   1.649   3.150   3.489 -0.7274  5.8999 -1.5875
   71SAPC   H4Y 6201   1.714   3.262   3.600 -1.8130 -0.0934 -0.0129
   71SAPC   C35 6202   1.746   3.065   3.658 -0.1687 -0.2248 -0.4511
   71SAPC   H5X 6203   1.805   3.101   3.745 -2.3673  0.0459  0.9829
   71SAPC   H5Y 6204   1.791   2.968   3.627 -0.8515 -0.8179  0.3743
   71SAPC   C36 6205   1.615   3.036   3.723  0.2922 -0.1250  0.3782
   71SAPC   H6X 6206   1.547   2.983   3.653 -2.9891  3.9581  0.1096
   71SAPC   H6Y 6207   1.561   3.125   3.762  1.5545 -0.4142  2.9879
   71SAPC   C37 6208   1.624   2.931   3.841 -0.3372 -0.0053  0.6638
   71SAPC   H7X 6209   1.688   2.851   3.798 -1.5676 -0.5017 -0.3131
   71SAPC   H7Y 6210   1.529   2.884   3.873  0.5353 -2.6554 -0.3888
   71SAPC   C38 6211   1.699   2.994   3.957 -0.6546 -0.4859  0.4148
   71SAPC   H8X 6212   1.667   3.101   3.955 -0.5136 -0.4197 -1.9619
   71SAPC   H8Y 6213   1.808   2.994   3.933  0.2313 -0.8789  3.9247
   71SAPC   C39 6214   1.686   2.932   4.090 -0.3322 -0.0568  0.9969
   71SAPC   H9X 6215   1.714   2.827   4.068  0.1143  0.1697  0.4646
   71SAPC   H9Y 6216   1.579   2.929   4.120 -1.3315 -0.4968 -2.2106
   71SAPC  C310 6217   1.774   2.984   4.190  0.0239 -0.1645  0.0384
   71SAPC  H10X 6218   1.773   3.095   4.184 -0.1067  0.0135  2.6063
   71SAPC  H10Y 6219   1.879   2.949   4.179 -0.3385 -0.5985 -2.8851
   71SAPC  C311 6220   1.732   2.934   4.334  0.5396  0.1078  0.3586
   71SAPC  H11X 6221   1.715   2.825   4.320 -0.9443  0.5067 -1.2391
   71SAPC  H11Y 6222   1.637   2.981   4.369  1.1813  0.8038  1.2186
   71SAPC  C312 6223   1.834   2.954   4.438  0.2754  0.0445 -0.0048
   71SAPC  H12X 6224   1.841   3.063   4.456  2.9687  0.5736 -3.3135
   71SAPC  H12Y 6225   1.934   2.931   4.397 -0.3317  0.0659 -1.5856
   71SAPC  C313 6226   1.823   2.861   4.564 -0.2964  0.0201 -1.1913
   71SAPC  H13X 6227   1.860   2.760   4.537 -1.7842 -1.1257  0.8142
   71SAPC  H13Y 6228   1.716   2.861   4.595  0.4244 -0.0336  1.5422
   71SAPC  C314 6229   1.906   2.927   4.676 -0.0957  0.2146  0.6323
   71SAPC  H14X 6230   1.867   3.029   4.694  2.2755  1.4327 -0.7230
   71SAPC  H14Y 6231   2.010   2.944   4.642 -0.1025 -2.1459 -0.8357
   71SAPC  C315 6232   1.914   2.852   4.807 -0.1073 -0.3296  0.1066
   71SAPC  H15X 6233   1.979   2.901   4.883 -1.1079 -0.9300  1.3975
   71SAPC  H15Y 6234   1.945   2.748   4.784  1.0637  0.2217 -0.9141
   71SAPC  C316 6235   1.783   2.833   4.882 -0.3031  0.0314  0.1981
   71SAPC  H16X 6236   1.716   2.762   4.829 -0.5372 -0.3346  0.9835
   71SAPC  H16Y 6237   1.725   2.927   4.869  1.3684  1.1358  0.2965
   71SAPC  C317 6238   1.801   2.788   5.031 -0.0318  0.5341  0.6011
   71SAPC  H17X 6239   1.805   2.868   5.108  3.1842  0.3522  0.7551
   71SAPC  H17Y 6240   1.900   2.737   5.037  0.6675  0.9545 -3.9061
   71SAPC  C318 6241   1.691   2.690   5.072 -0.5954  0.5858 -0.6953
   71SAPC  H18X 6242   1.715   2.591   5.027  2.5637  0.2660  1.4323
   71SAPC  H18Y 6243   1.590   2.724   5.041 -1.3144  0.4106  1.3409
   71SAPC  H18Z 6244   1.693   2.671   5.181  0.1581 -0.7720 -0.9195
   72SAPC     N 6245   6.600   1.768   2.626 -0.4807 -0.7253  0.1039
   72SAPC   C12 6246   6.564   1.820   2.768  0.1024  0.4850  0.9536
   72SAPC  H12A 6247   6.635   1.774   2.836  1.2033  0.2490 -0.2971
   72SAPC  H12B 6248   6.468   1.778   2.792 -1.0772  0.8110 -2.5476
   72SAPC   C13 6249   6.614   1.620   2.623 -0.2248 -0.1992 -0.1843
   72SAPC  H13A 6250   6.522   1.579   2.660  0.5252 -0.0707  1.9907
   72SAPC  H13B 6251   6.633   1.588   2.522 -0.3769  2.1434 -1.0298
   72SAPC  H13C 6252   6.689   1.581   2.692 -0.3381 -0.2741 -0.1033
   72SAPC   C14 6253   6.502   1.812   2.523  0.3993  0.2955  0.3223
   72SAPC  H14A 6254   6.477   1.917   2.525  3.0564  1.0300 -0.8749
   72SAPC  H14B 6255   6.534   1.792   2.422 -1.5131  4.8652 -1.4732
   72SAPC  H14C 6256   6.417   1.745   2.527  1.5883 -1.2574  0.5083
   72SAPC   C15 6257   6.728   1.825   2.584 -0.0874  0.4405  0.5636
   72SAPC  H15A 6258   6.707   1.929   2.564  1.2132  0.9790  1.8117
   72SAPC  H15B 6259   6.801   1.822   2.663 -1.1462 -0.7177  1.5339
   72SAPC  H15C 6260   6.779   1.775   2.502 -1.4560 -1.3066  0.7193
   72SAPC   C11 6261   6.554   1.969   2.806 -0.0457  0.2251 -0.2618
   72SAPC  H11A 6262   6.653   2.009   2.775  0.9630 -3.0999 -1.8508
   72SAPC  H11B 6263   6.540   1.975   2.916  0.7767  0.3379 -0.1526
   72SAPC     P 6264   6.305   2.032   2.796  0.3877  0.1746  0.2381
   72SAPC   O13 6265   6.210   2.092   2.701 -0.4534  0.0764 -0.1757
   72SAPC   O14 6266   6.264   1.906   2.850  0.1966  0.3267  0.1146
   72SAPC   O12 6267   6.448   2.028   2.731 -0.4549  0.1705  0.5318
   72SAPC   O11 6268   6.333   2.137   2.910  0.2234 -0.4721  0.0719
   72SAPC    C1 6269   6.359   2.273   2.896  0.6423 -0.5905 -0.3043
   72SAPC    HA 6270   6.386   2.296   2.790  0.2964  0.2283 -0.2269
   72SAPC    HB 6271   6.264   2.327   2.914  0.4187 -1.0487 -0.1091
   72SAPC    C2 6272   6.461   2.327   2.994  0.0499  0.2127 -1.1743
   72SAPC    HS 6273   6.527   2.240   3.015  0.0590  0.8038  1.7774
   72SAPC   O21 6274   6.393   2.360   3.120 -0.4449 -0.2945 -0.0371
   72SAPC   C21 6275   6.472   2.363   3.227 -0.2109  0.0200  0.8581
   72SAPC   O22 6276   6.592   2.346   3.226  0.0942  0.0201  0.2538
   72SAPC   C22 6277   6.390   2.402   3.345 -0.4252  0.2695 -0.3863
   72SAPC   H2R 6278   6.348   2.502   3.321 -1.6690 -0.1611 -0.0223
   72SAPC   H2S 6279   6.306   2.332   3.358 -1.3989  1.5693  0.5407
   72SAPC    C3 6280   6.536   2.447   2.936 -0.2105  0.2267 -0.5679
   72SAPC    HX 6281   6.541   2.427   2.827  2.2300 -0.1401 -0.4420
   72SAPC    HY 6282   6.640   2.453   2.974  0.1797 -2.1519 -1.1390
   72SAPC   O31 6283   6.461   2.572   2.954  0.1628  0.1878 -0.5816
   72SAPC   C31 6284   6.527   2.677   2.911 -0.3913  0.3468  0.4703
   72SAPC   O32 6285   6.639   2.687   2.856  0.2719  0.3810  0.2084
   72SAPC   C32 6286   6.437   2.794   2.932 -0.0611  0.2528  0.0353
   72SAPC   H2X 6287   6.373   2.770   3.020  0.7881 -3.1593 -0.1191
   72SAPC   H2Y 6288   6.376   2.783   2.839  0.8333 -0.3025 -0.5033
   72SAPC   C23 6289   6.472   2.426   3.476  0.2721 -0.0702  0.8476
   72SAPC   H3R 6290   6.558   2.495   3.462 -0.5364  0.6398 -0.9880
   72SAPC   H3S 6291   6.514   2.331   3.515 -0.5845 -0.3260  1.1690
   72SAPC   C24 6292   6.383   2.481   3.589 -0.2008 -0.2274  0.4580
   72SAPC   H4R 6293   6.316   2.402   3.629  1.2921 -2.0846 -0.5430
   72SAPC   H4S 6294   6.314   2.561   3.552 -1.0665 -0.9857  0.3881
   72SAPC   C25 6295   6.462   2.542   3.703  0.3466  0.6087 -0.9976
   72SAPC   H5R 6296   6.450   2.652   3.703  0.6559  0.6455 -0.6153
   72SAPC   C26 6297   6.500   2.482   3.818 -0.1927  0.2181  0.4521
   72SAPC   H6R 6298   6.553   2.540   3.895 -2.0744  1.9347  0.5417
   72SAPC   C27 6299   6.474   2.341   3.858 -0.4510  0.6715 -0.6286
   72SAPC   H7R 6300   6.429   2.277   3.779 -0.1690 -0.1582 -0.1310
   72SAPC   H7S 6301   6.401   2.352   3.941 -0.8818 -3.2550 -0.3198
   72SAPC   C28 6302   6.598   2.272   3.920  0.5514  0.4063 -0.4497
   72SAPC   H8R 6303   6.662   2.224   3.844  2.3805  4.0368 -1.4588
   72SAPC   C29 6304   6.622   2.271   4.052  0.2676 -0.1435  0.1962
   72SAPC   H9R 6305   6.714   2.214   4.072 -0.4925 -1.8628 -0.9758
   72SAPC  C210 6306   6.538   2.320   4.163 -0.6395  0.1349 -0.2387
   72SAPC  H10R 6307   6.457   2.246   4.179  0.3286 -0.8752  0.0745
   72SAPC  H10S 6308   6.484   2.408   4.122 -0.7605 -0.6514 -1.8518
   72SAPC  C211 6309   6.613   2.353   4.287  0.8125 -0.4874 -0.1733
   72SAPC  H11R 6310   6.702   2.416   4.273  0.9198 -0.7161 -0.5203
   72SAPC  C212 6311   6.573   2.333   4.416 -0.1638  0.6520  0.6581
   72SAPC  H12R 6312   6.637   2.355   4.503 -1.1008 -1.9874  2.1400
   72SAPC  C213 6313   6.445   2.273   4.469  0.2445  0.1979  0.5240
   72SAPC  H13R 6314   6.369   2.286   4.389  1.0459 -3.9138 -1.1861
   72SAPC  H13S 6315   6.409   2.344   4.546 -0.9488  0.6231 -0.3943
   72SAPC  C214 6316   6.457   2.131   4.519  0.3059 -0.3694 -0.5763
   72SAPC  H14R 6317   6.442   2.051   4.445 -1.9681 -0.3792 -0.1929
   72SAPC  C215 6318   6.499   2.100   4.643  1.4160 -0.4270 -0.3428
   72SAPC  H15R 6319   6.515   1.992   4.652  0.5739 -0.5436 -0.2243
   72SAPC  C216 6320   6.556   2.200   4.747 -0.0068  0.1199  0.0183
   72SAPC  H16R 6321   6.540   2.305   4.716 -1.2214 -0.1467 -0.3159
   72SAPC  H16S 6322   6.665   2.176   4.743 -0.2946 -1.0758 -1.5648
   72SAPC  C217 6323   6.484   2.174   4.881  0.1447  0.1059  0.0334
   72SAPC  H17R 6324   6.421   2.082   4.885  1.0555 -0.5016  0.9884
   72SAPC  H17S 6325   6.425   2.265   4.903 -0.4624 -0.6849  1.9180
   72SAPC  C218 6326   6.574   2.160   5.011 -0.1499  0.1764  0.4766
   72SAPC  H18R 6327   6.616   2.262   5.029 -2.4952  1.6071 -1.5049
   72SAPC  H18S 6328   6.661   2.092   4.995 -0.4144  0.0515 -0.4871
   72SAPC  C219 6329   6.512   2.097   5.134  0.1875 -0.1884 -0.3019
   72SAPC  H19R 6330   6.448   2.008   5.115 -0.9496  0.5749 -0.1541
   72SAPC  H19S 6331   6.450   2.175   5.184  0.3545  0.4063 -1.0022
   72SAPC  C220 6332   6.613   2.054   5.236 -0.1580 -0.1764  0.2635
   72SAPC  H20R 6333   6.567   2.004   5.324  1.3839 -2.0646  0.0614
   72SAPC  H20S 6334   6.670   2.143   5.271 -0.0693 -0.2776  0.3781
   72SAPC  H20T 6335   6.677   1.971   5.198  0.0008  0.3560 -0.6801
   72SAPC   C33 6336   6.494   2.932   2.951 -0.5746 -0.0598 -0.5229
   72SAPC   H3X 6337   6.414   2.995   2.905 -0.7729 -0.5603 -0.8671
   72SAPC   H3Y 6338   6.588   2.937   2.893 -0.8665 -0.7780 -1.0728
   72SAPC   C34 6339   6.509   2.980   3.100  0.4182 -0.2301  0.4319
   72SAPC   H4X 6340   6.414   2.985   3.157 -0.8545 -2.3184 -1.3550
   72SAPC   H4Y 6341   6.556   3.081   3.097  0.5515 -0.2861  0.6084
   72SAPC   C35 6342   6.611   2.893   3.170 -0.0463 -0.0729 -1.0381
   72SAPC   H5X 6343   6.692   2.892   3.094  0.4338  1.1915 -0.5711
   72SAPC   H5Y 6344   6.582   2.790   3.199  0.0132 -0.0526 -0.9079
   72SAPC   C36 6345   6.671   2.963   3.294  0.0442  0.4701 -0.0773
   72SAPC   H6X 6346   6.697   3.065   3.259  0.4096  0.0973 -0.9208
   72SAPC   H6Y 6347   6.757   2.901   3.326 -1.7521 -2.7129 -0.9501
   72SAPC   C37 6348   6.581   2.955   3.417  0.1389  0.4546  0.0104
   72SAPC   H7X 6349   6.560   2.850   3.449  1.1505  0.2613  0.0825
   72SAPC   H7Y 6350   6.487   2.997   3.375  0.2829  0.0454 -0.7344
   72SAPC   C38 6351   6.629   3.049   3.522 -0.4402 -0.2399 -0.4728
   72SAPC   H8X 6352   6.680   3.137   3.477  0.1782 -0.6100 -0.5085
   72SAPC   H8Y 6353   6.715   2.997   3.569 -0.1278 -0.2760 -1.0697
   72SAPC   C39 6354   6.528   3.065   3.635 -0.7853 -0.1596  0.0123
   72SAPC   H9X 6355   6.513   2.958   3.663 -0.4311 -0.7406 -1.8773
   72SAPC   H9Y 6356   6.437   3.111   3.590  0.0715 -0.7630 -2.5216
   72SAPC  C310 6357   6.573   3.151   3.754 -0.0801 -0.4218 -0.2606
   72SAPC  H10X 6358   6.579   3.257   3.721  0.5470 -1.1856 -2.8097
   72SAPC  H10Y 6359   6.674   3.111   3.777 -0.7913 -1.6615  0.8262
   72SAPC  C311 6360   6.480   3.127   3.877 -0.2961 -0.4795  0.2129
   72SAPC  H11X 6361   6.377   3.160   3.851  0.1214 -0.1263 -1.0733
   72SAPC  H11Y 6362   6.513   3.190   3.963 -0.8840  1.6687 -1.0661
   72SAPC  C312 6363   6.474   2.983   3.931 -0.0345 -0.7208  0.4121
   72SAPC  H12X 6364   6.462   2.905   3.853 -0.7935  0.5100 -0.7511
   72SAPC  H12Y 6365   6.389   2.964   4.000  1.2396 -1.4313  1.8668
   72SAPC  C313 6366   6.597   2.932   4.012 -0.2038  0.8405  0.0999
   72SAPC  H13X 6367   6.617   3.007   4.091 -1.2298  0.6774  0.5313
   72SAPC  H13Y 6368   6.693   2.918   3.957  0.6886  2.6936  1.1142
   72SAPC  C314 6369   6.551   2.810   4.081 -0.6506  0.0726 -0.0107
   72SAPC  H14X 6370   6.512   2.730   4.015  1.2365  0.5958 -1.8646
   72SAPC  H14Y 6371   6.482   2.825   4.167 -1.5822  0.4091 -0.8100
   72SAPC  C315 6372   6.678   2.746   4.148 -0.1454 -0.1432  0.4252
   72SAPC  H15X 6373   6.762   2.750   4.076 -2.5737  0.3533 -2.5842
   72SAPC  H15Y 6374   6.667   2.637   4.166  2.8420 -0.7738 -0.9292
   72SAPC  C316 6375   6.699   2.797   4.285  0.1743  0.3810 -0.9053
   72SAPC  H16X 6376   6.610   2.781   4.350  1.0560  0.5090  0.3704
   72SAPC  H16Y 6377   6.705   2.907   4.271  0.3632  0.6086  0.7389
   72SAPC  C317 6378   6.831   2.749   4.344 -0.6483  0.6889  0.1418
   72SAPC  H17X 6379   6.905   2.762   4.263 -0.3271  0.3881  0.3840
   72SAPC  H17Y 6380   6.831   2.640   4.366  1.6911  0.1420 -2.1528
   72SAPC  C318 6381   6.865   2.832   4.469  0.2631  0.2850 -0.4148
   72SAPC  H18X 6382   6.949   2.795   4.531 -0.4701 -0.2713  0.2715
   72SAPC  H18Y 6383   6.774   2.840   4.532  2.7232  2.4395  3.1746
   72SAPC  H18Z 6384   6.890   2.938   4.449 -2.5385  1.2967  0.9966
   73SLPC     N 6385   5.033   6.216   7.739  0.0878  0.0890  0.2025
   73SLPC   C13 6386   4.939   6.260   7.841 -0.9123 -0.4705  0.2615
   73SLPC  H13A 6387   4.988   6.310   7.924  2.3611  0.4698 -2.0494
   73SLPC  H13B 6388   4.864   6.328   7.806 -2.3127 -1.3131  1.5116
   73SLPC  H13C 6389   4.890   6.181   7.895  1.6427 -1.5188  1.2278
   73SLPC   C14 6390   4.974   6.122   7.641  0.4119 -0.2703 -0.1686
   73SLPC  H14A 6391   4.896   6.177   7.590  0.4197  0.0525  0.1633
   73SLPC  H14B 6392   5.042   6.073   7.572 -0.2313  0.0724 -1.0556
   73SLPC  H14C 6393   4.927   6.039   7.690 -1.4167  1.6917  1.6003
   73SLPC   C15 6394   5.143   6.149   7.813  0.1325  0.4311 -0.7070
   73SLPC  H15A 6395   5.224   6.114   7.750  1.0233 -0.7438  1.0309
   73SLPC  H15B 6396   5.189   6.199   7.897 -0.5628 -0.3534  0.1609
   73SLPC  H15C 6397   5.105   6.057   7.854 -0.9188  0.9876 -0.3827
   73SLPC   C12 6398   5.095   6.337   7.668  0.5518 -0.3354  0.2011
   73SLPC  H12A 6399   5.176   6.300   7.607 -0.4960 -2.9610  0.2519
   73SLPC  H12B 6400   5.132   6.396   7.750 -1.1981 -1.1396  1.6420
   73SLPC   C11 6401   5.007   6.424   7.575  0.4049 -0.3570  0.0756
   73SLPC  H11A 6402   5.076   6.504   7.543  2.0582 -0.8698  2.1773
   73SLPC  H11B 6403   4.929   6.481   7.630  0.2974 -1.0062  0.6140
   73SLPC     P 6404   5.036   6.302   7.349 -0.2199 -0.1517  0.2116
   73SLPC   O13 6405   5.168   6.266   7.404 -0.1941 -0.7553  0.1676
   73SLPC   O14 6406   4.960   6.194   7.289 -0.4085 -0.2402 -0.3252
   73SLPC   O12 6407   4.946   6.342   7.471  0.0795 -0.1687  0.0953
   73SLPC   O11 6408   5.061   6.422   7.250 -0.0555 -0.1746  0.3584
   73SLPC    C1 6409   4.959   6.496   7.188  0.7068 -0.4430 -0.1772
   73SLPC    HA 6410   4.866   6.486   7.248  1.7708  2.8092  2.3210
   73SLPC    HB 6411   4.987   6.604   7.190 -0.9019  0.0132  2.2928
   73SLPC    C2 6412   4.936   6.446   7.040  0.5197 -0.6672 -0.7605
   73SLPC    HS 6413   4.891   6.344   7.043  1.6708 -1.1817 -0.8043
   73SLPC   O21 6414   5.061   6.443   6.984 -0.0511 -0.6359 -0.2145
   73SLPC   C21 6415   5.074   6.368   6.874 -0.9234  0.2717 -0.0523
   73SLPC   O22 6416   5.009   6.267   6.856  0.6002 -0.8134 -0.6762
   73SLPC   C22 6417   5.197   6.410   6.795 -0.0111 -0.1058  0.3631
   73SLPC   H2R 6418   5.247   6.501   6.836 -0.3318  0.0699  0.3659
   73SLPC   H2S 6419   5.273   6.329   6.805  0.0874 -0.2815 -1.4624
   73SLPC    C3 6420   4.836   6.546   6.965 -0.6999 -0.1637  0.0856
   73SLPC    HX 6421   4.894   6.640   6.954 -1.2719  0.0885 -0.9967
   73SLPC    HY 6422   4.744   6.552   7.028 -1.5127 -1.4580 -0.9103
   73SLPC   O31 6423   4.800   6.496   6.838  0.1999  0.8800  0.4523
   73SLPC   C31 6424   4.746   6.587   6.758  0.1244 -0.8524  0.7016
   73SLPC   O32 6425   4.725   6.704   6.785 -0.0207 -0.0171 -0.2529
   73SLPC   C32 6426   4.699   6.530   6.622  0.1786  0.0081  0.2743
   73SLPC   H2X 6427   4.606   6.472   6.644  0.1986  0.1800  0.8322
   73SLPC   H2Y 6428   4.781   6.461   6.593 -0.1835 -0.8943  1.2935
   73SLPC   C23 6429   5.173   6.429   6.646  0.3663  0.3020 -0.0825
   73SLPC   H3R 6430   5.259   6.474   6.593  0.9506 -1.2321 -0.4988
   73SLPC   H3S 6431   5.086   6.495   6.627 -1.6247 -2.7008 -2.4145
   73SLPC   C24 6432   5.156   6.297   6.575 -0.1051 -0.2047  0.4906
   73SLPC   H4R 6433   5.047   6.278   6.566 -0.2944 -0.2015  2.3760
   73SLPC   H4S 6434   5.198   6.215   6.636 -1.2940  0.2687  2.0014
   73SLPC   C25 6435   5.195   6.314   6.429  0.3677  0.0204 -0.1053
   73SLPC   H5R 6436   5.161   6.223   6.375 -1.2078  1.2917 -1.3992
   73SLPC   H5S 6437   5.305   6.326   6.417  0.5608  0.3886  1.7708
   73SLPC   C26 6438   5.110   6.425   6.359 -0.0051 -0.7076  0.1930
   73SLPC   H6R 6439   5.136   6.527   6.395 -0.1997  0.5071 -2.7441
   73SLPC   H6S 6440   5.002   6.416   6.381  0.0395  0.2645  0.8819
   73SLPC   C27 6441   5.135   6.424   6.210 -0.3150 -0.4755  0.2159
   73SLPC   H7R 6442   5.245   6.418   6.203 -0.0734 -0.5916  2.9012
   73SLPC   H7S 6443   5.114   6.523   6.166 -2.7932 -0.0272  2.1644
   73SLPC   C28 6444   5.079   6.303   6.123 -0.6901  0.3861 -0.1573
   73SLPC   H8R 6445   5.122   6.212   6.171 -0.7141  1.3513  1.7938
   73SLPC   H8S 6446   5.129   6.315   6.025  0.0389  1.4330  0.3150
   73SLPC   C29 6447   4.931   6.293   6.113  0.0424 -0.6325  0.7812
   73SLPC   H9R 6448   4.879   6.286   6.209  0.6371 -0.2937  1.1305
   73SLPC  C210 6449   4.860   6.313   5.997  0.9115 -0.3670  0.0508
   73SLPC  H10R 6450   4.751   6.321   6.004  1.0190  0.5804  0.9984
   73SLPC  C211 6451   4.908   6.337   5.853 -0.1121 -0.2311 -0.2232
   73SLPC  H11R 6452   4.862   6.259   5.789  1.8792 -1.4182 -0.2833
   73SLPC  H11S 6453   5.016   6.314   5.848  0.0573 -0.1989  2.2571
   73SLPC  C212 6454   4.907   6.483   5.814  0.0581  0.3281  0.0121
   73SLPC  H12R 6455   4.850   6.549   5.881 -0.2642 -0.8522  0.9448
   73SLPC  C213 6456   4.953   6.522   5.694  0.4488 -0.3142 -0.4292
   73SLPC  H13R 6457   4.943   6.630   5.677 -2.2860 -0.5402 -0.7718
   73SLPC  C214 6458   5.026   6.447   5.592 -0.2394  0.8236 -0.3786
   73SLPC  H14R 6459   5.014   6.342   5.626  0.7034  1.7183  3.0473
   73SLPC  H14S 6460   5.134   6.474   5.597  0.1781 -0.3501 -2.0956
   73SLPC  C215 6461   4.982   6.445   5.446 -0.7368 -0.0468 -0.0480
   73SLPC  H15R 6462   4.882   6.398   5.436  0.0691 -1.9144  0.1291
   73SLPC  H15S 6463   5.057   6.383   5.390  0.3182  0.2896  0.9509
   73SLPC  C216 6464   4.968   6.581   5.373 -0.0231 -0.3015 -0.7593
   73SLPC  H16R 6465   5.071   6.608   5.340  0.1902  0.9718  0.8225
   73SLPC  H16S 6466   4.940   6.658   5.447  2.1174 -0.8884  0.7566
   73SLPC  C217 6467   4.867   6.556   5.257 -0.0753  0.5268  0.2631
   73SLPC  H17R 6468   4.771   6.538   5.311  0.9112  0.5510  2.1053
   73SLPC  H17S 6469   4.898   6.468   5.196  1.6753  2.6353 -2.1101
   73SLPC  C218 6470   4.836   6.674   5.168  0.8623  0.0478  0.1828
   73SLPC  H18R 6471   4.913   6.693   5.091 -2.0286  0.7346 -2.8028
   73SLPC  H18S 6472   4.786   6.758   5.221  0.7405  0.1374 -0.0693
   73SLPC  H18T 6473   4.755   6.636   5.102  0.7166  1.3024 -0.4010
   73SLPC   C33 6474   4.673   6.626   6.504 -0.7143 -0.0968 -0.5494
   73SLPC   H3X 6475   4.609   6.713   6.530  0.5909  0.5785  0.4962
   73SLPC   H3Y 6476   4.626   6.569   6.421  1.7667  1.5411 -3.2572
   73SLPC   C34 6477   4.805   6.665   6.431 -0.0296  0.2442  0.4899
   73SLPC   H4X 6478   4.849   6.571   6.390  0.2058  0.3181  0.5718
   73SLPC   H4Y 6479   4.878   6.721   6.494 -1.8260  1.4782  1.5954
   73SLPC   C35 6480   4.780   6.754   6.303  0.3636 -0.3887 -0.3395
   73SLPC   H5X 6481   4.704   6.835   6.314 -2.1739 -2.5125 -1.0678
   73SLPC   H5Y 6482   4.726   6.685   6.235 -2.1172  0.7573  0.3574
   73SLPC   C36 6483   4.911   6.797   6.240  0.1864 -0.2298 -0.3213
   73SLPC   H6X 6484   4.989   6.718   6.248 -0.2911 -0.6396  0.3802
   73SLPC   H6Y 6485   4.945   6.887   6.295 -0.0497  0.0718 -0.6657
   73SLPC   C37 6486   4.902   6.824   6.096 -0.3325  0.2984  0.5311
   73SLPC   H7X 6487   4.821   6.895   6.069  1.9542  3.0264  0.4180
   73SLPC   H7Y 6488   4.873   6.730   6.045 -1.0434 -0.3162  1.9989
   73SLPC   C38 6489   5.027   6.884   6.037 -0.1503  0.4212 -0.2646
   73SLPC   H8X 6490   5.114   6.817   6.054 -0.3708 -0.4138 -2.1185
   73SLPC   H8Y 6491   5.053   6.989   6.064 -2.9060  0.8847  0.8607
   73SLPC   C39 6492   5.009   6.896   5.883 -0.3119  0.0911 -0.0630
   73SLPC   H9X 6493   4.917   6.956   5.863 -1.0966 -1.4135 -1.2562
   73SLPC   H9Y 6494   4.981   6.798   5.838  0.9962 -0.1406 -0.4157
   73SLPC  C310 6495   5.128   6.943   5.798 -0.7537  0.1140  0.0320
   73SLPC  H10X 6496   5.143   7.048   5.833  0.4954 -0.8075  2.4972
   73SLPC  H10Y 6497   5.105   6.935   5.689 -0.8418 -2.5618  0.1773
   73SLPC  C311 6498   5.257   6.862   5.823  0.2893 -0.4459  0.6148
   73SLPC  H11X 6499   5.250   6.753   5.806  0.3276 -0.2507 -0.7093
   73SLPC  H11Y 6500   5.289   6.874   5.929  0.5924  0.6344  0.4118
   73SLPC  C312 6501   5.375   6.898   5.727 -0.4356 -0.7240  0.0678
   73SLPC  H12X 6502   5.469   6.859   5.772 -0.5912 -2.8373 -1.2822
   73SLPC  H12Y 6503   5.388   7.008   5.729  1.3570 -0.9095 -0.1696
   73SLPC  C313 6504   5.343   6.850   5.587  0.4499  0.3777  0.1834
   73SLPC  H13X 6505   5.243   6.886   5.554  0.2987 -0.7962 -0.7094
   73SLPC  H13Y 6506   5.315   6.743   5.597 -1.8864  0.5466 -2.9850
   73SLPC  C314 6507   5.450   6.881   5.474 -0.7068 -0.5907 -0.1037
   73SLPC  H14X 6508   5.544   6.827   5.498 -0.9127 -0.0483  2.1451
   73SLPC  H14Y 6509   5.468   6.990   5.478  0.2015 -0.7714  2.8666
   73SLPC  C315 6510   5.391   6.854   5.334  0.9973  0.3681  0.0421
   73SLPC  H15X 6511   5.465   6.885   5.257  2.9394 -1.7343  0.9678
   73SLPC  H15Y 6512   5.295   6.910   5.329  0.3812 -0.4036  2.1832
   73SLPC  C316 6513   5.356   6.712   5.298 -0.1178  0.7365  0.0063
   73SLPC  H16X 6514   5.274   6.678   5.365 -0.0283  2.8573  1.2769
   73SLPC  H16Y 6515   5.446   6.649   5.313 -0.7740 -0.5749 -1.2277
   73SLPC  C317 6516   5.317   6.695   5.151 -0.0712 -0.6456 -0.1288
   73SLPC  H17X 6517   5.394   6.737   5.084 -0.3140 -1.0470 -0.6596
   73SLPC  H17Y 6518   5.225   6.754   5.130  0.8602  0.1192 -2.3333
   73SLPC  C318 6519   5.300   6.553   5.119 -0.8128  0.1703 -0.8903
   73SLPC  H18X 6520   5.315   6.518   5.015 -1.1771 -1.1753 -0.5123
   73SLPC  H18Y 6521   5.200   6.523   5.159 -0.4380 -0.8578 -0.7035
   73SLPC  H18Z 6522   5.372   6.493   5.179 -0.2318  2.2643  0.6172
   74SLPC     N 6523   1.745   0.162   7.941 -1.3460  0.1441 -1.1789
   74SLPC   C13 6524   1.717   0.090   8.072  0.1276 -0.1782  1.0211
   74SLPC  H13A 6525   1.774   0.139   8.150  4.0015 -0.8065 -1.1915
   74SLPC  H13B 6526   1.613   0.109   8.094 -0.8151  0.0064 -2.9408
   74SLPC  H13C 6527   1.752  -0.011   8.084 -3.3165 -1.5377  0.6769
   74SLPC   C14 6528   1.737   0.313   7.964 -0.1648 -0.5656 -0.1284
   74SLPC  H14A 6529   1.809   0.361   7.900 -1.5326 -0.5281 -1.7236
   74SLPC  H14B 6530   1.636   0.347   7.946 -0.3163 -0.0068  1.6372
   74SLPC  H14C 6531   1.765   0.332   8.066  2.1885  0.6953 -0.9328
   74SLPC   C15 6532   1.639   0.117   7.852 -0.4225  0.4704  0.0966
   74SLPC  H15A 6533   1.546   0.123   7.906 -1.7996 -1.0460 -1.9610
   74SLPC  H15B 6534   1.653   0.165   7.757 -1.4624  0.9998  0.2016
   74SLPC  H15C 6535   1.651   0.010   7.842 -0.3465  0.5851 -1.3070
   74SLPC   C12 6536   1.889   0.121   7.901  0.5181 -0.1261  0.1029
   74SLPC  H12A 6537   1.888   0.016   7.877  1.2642  0.5857 -3.6424
   74SLPC  H12B 6538   1.946   0.117   7.993 -2.2550 -2.3636  1.8766
   74SLPC   C11 6539   1.965   0.198   7.788  0.5424  0.5325 -0.2993
   74SLPC  H11A 6540   1.914   0.171   7.693  1.4762 -0.6251 -0.4910
   74SLPC  H11B 6541   2.067   0.156   7.780 -0.1960 -1.4117 -0.0518
   74SLPC     P 6542   2.103   0.402   7.846  0.5276 -0.6072 -0.2495
   74SLPC   O13 6543   2.091   0.546   7.871  0.2309  0.3034 -0.3545
   74SLPC   O14 6544   2.169   0.322   7.955  0.0493  0.1946  0.1619
   74SLPC   O12 6545   1.962   0.340   7.807 -0.3657 -0.5262 -0.8280
   74SLPC   O11 6546   2.177   0.371   7.706  0.5200  0.5016 -0.1224
   74SLPC    C1 6547   2.123   0.443   7.592  0.2465 -0.5220 -0.3062
   74SLPC    HA 6548   2.019   0.407   7.574  0.7990 -2.1034 -0.5631
   74SLPC    HB 6549   2.135   0.552   7.604  2.6288 -0.8399  0.7302
   74SLPC    C2 6550   2.205   0.409   7.467  0.0474  0.0207 -0.4962
   74SLPC    HS 6551   2.227   0.301   7.458  1.6503  0.2346  0.4750
   74SLPC   O21 6552   2.324   0.488   7.471  0.6047 -0.0643  0.3166
   74SLPC   C21 6553   2.425   0.444   7.390 -0.3391 -0.0736 -0.4147
   74SLPC   O22 6554   2.421   0.336   7.331 -0.7705 -0.1576  0.2485
   74SLPC   C22 6555   2.540   0.529   7.409  0.4685  0.0619  0.3531
   74SLPC   H2R 6556   2.560   0.560   7.514  1.3615  0.8058 -0.0202
   74SLPC   H2S 6557   2.631   0.472   7.381 -0.0641 -0.5673 -0.1248
   74SLPC    C3 6558   2.111   0.454   7.348 -0.2491  0.2525  0.5887
   74SLPC    HX 6559   2.078   0.558   7.366  0.0747  0.5263 -0.3522
   74SLPC    HY 6560   2.022   0.388   7.342 -0.8071  1.0690 -0.2322
   74SLPC   O31 6561   2.187   0.456   7.226  0.0249 -0.4832  1.1808
   74SLPC   C31 6562   2.183   0.356   7.141  0.1280  0.1477  0.1582
   74SLPC   O32 6563   2.121   0.253   7.159  0.1462  0.0972  0.1138
   74SLPC   C32 6564   2.244   0.389   7.003  0.0932 -0.4065 -0.0865
   74SLPC   H2X 6565   2.267   0.290   6.957 -0.5836 -1.8029  2.4190
   74SLPC   H2Y 6566   2.340   0.444   7.014  0.2776  0.1461 -3.4718
   74SLPC   C23 6567   2.546   0.650   7.313  0.1952  0.0674 -0.1756
   74SLPC   H3R 6568   2.552   0.617   7.208 -0.5075 -1.5300  0.2597
   74SLPC   H3S 6569   2.639   0.703   7.344 -0.2535  0.5088  0.4399
   74SLPC   C24 6570   2.423   0.746   7.326 -0.7876  0.2980 -0.6452
   74SLPC   H4R 6571   2.388   0.775   7.428 -0.0434 -0.8190 -0.0541
   74SLPC   H4S 6572   2.335   0.684   7.296 -0.2812 -3.1162  3.8113
   74SLPC   C25 6573   2.436   0.874   7.250  0.0512  0.3169  0.0882
   74SLPC   H5R 6574   2.535   0.916   7.279 -0.2543  0.7352  0.5315
   74SLPC   H5S 6575   2.357   0.951   7.258  0.3676  0.8637 -1.7011
   74SLPC   C26 6576   2.446   0.855   7.094 -0.5241 -0.2196  0.0873
   74SLPC   H6R 6577   2.525   0.782   7.067 -0.6392 -0.5293  0.5822
   74SLPC   H6S 6578   2.465   0.957   7.053 -2.3588  0.2703  0.3314
   74SLPC   C27 6579   2.315   0.795   7.028 -0.0587 -0.4959 -0.5187
   74SLPC   H7R 6580   2.231   0.828   7.094  0.5153  0.4562 -0.2346
   74SLPC   H7S 6581   2.322   0.684   7.030  1.6399 -0.4769 -2.2809
   74SLPC   C28 6582   2.298   0.843   6.879 -0.2888  1.4110 -0.8264
   74SLPC   H8R 6583   2.207   0.798   6.833 -0.9099  1.7352  0.0495
   74SLPC   H8S 6584   2.381   0.799   6.820 -0.7411 -1.3315  0.4345
   74SLPC   C29 6585   2.293   0.988   6.860 -0.0365 -0.0881  0.4905
   74SLPC   H9R 6586   2.210   1.042   6.907 -0.5738  0.9066 -1.5309
   74SLPC  C210 6587   2.381   1.068   6.796 -0.2544  0.2375 -0.0712
   74SLPC  H10R 6588   2.368   1.177   6.793  0.4114  0.3201 -2.3247
   74SLPC  C211 6589   2.502   1.021   6.721 -0.4400 -0.1460  0.2347
   74SLPC  H11R 6590   2.569   0.959   6.784  0.3956 -0.0735 -0.5696
   74SLPC  H11S 6591   2.554   1.115   6.693 -0.6900 -0.7588 -2.6107
   74SLPC  C212 6592   2.475   0.933   6.591  0.3938 -0.2661 -0.3230
   74SLPC  H12R 6593   2.405   0.853   6.619 -0.9291  0.6180 -0.9959
   74SLPC  C213 6594   2.492   0.975   6.465 -0.6346  0.4002  0.3902
   74SLPC  H13R 6595   2.456   0.911   6.383 -0.8608  0.3255  0.5462
   74SLPC  C214 6596   2.522   1.115   6.417 -0.5789 -0.1278 -0.2586
   74SLPC  H14R 6597   2.582   1.163   6.498 -2.9702  0.6507  1.1666
   74SLPC  H14S 6598   2.427   1.172   6.405 -0.5026  0.0714  0.0763
   74SLPC  C215 6599   2.601   1.123   6.280  0.2160  0.3878 -0.6318
   74SLPC  H15R 6600   2.687   1.052   6.288 -1.3993 -1.4274  3.4690
   74SLPC  H15S 6601   2.628   1.231   6.274 -0.3064  0.4539 -1.9444
   74SLPC  C216 6602   2.518   1.091   6.153 -0.3439 -0.4214  1.0288
   74SLPC  H16R 6603   2.412   1.123   6.160 -0.3135 -0.4883  2.0604
   74SLPC  H16S 6604   2.525   0.980   6.141 -2.3371 -0.6291  1.3202
   74SLPC  C217 6605   2.576   1.176   6.037  0.0716 -0.0614  0.4970
   74SLPC  H17R 6606   2.687   1.170   6.039  0.1243 -0.2104 -1.5133
   74SLPC  H17S 6607   2.557   1.285   6.051  1.3249  0.2843 -0.3434
   74SLPC  C218 6608   2.523   1.136   5.908 -0.3835  0.3669  0.7581
   74SLPC  H18R 6609   2.548   1.030   5.886 -0.0540  0.7533 -0.8743
   74SLPC  H18S 6610   2.562   1.201   5.826 -0.4302  1.7496  1.8068
   74SLPC  H18T 6611   2.415   1.155   5.893  0.2206  3.0544 -0.9159
   74SLPC   C33 6612   2.151   0.483   6.920 -0.8894  0.1997  0.0293
   74SLPC   H3X 6613   2.205   0.534   6.837 -0.5812  2.0900  1.3394
   74SLPC   H3Y 6614   2.100   0.560   6.981 -1.3454  0.4202 -0.6221
   74SLPC   C34 6615   2.035   0.414   6.847 -0.2674 -0.0521  0.6550
   74SLPC   H4X 6616   1.979   0.501   6.806  1.5943  0.3560 -1.1539
   74SLPC   H4Y 6617   1.978   0.357   6.923 -0.9314 -0.3021 -0.0212
   74SLPC   C35 6618   2.077   0.324   6.725 -0.0531 -0.4269 -0.8040
   74SLPC   H5X 6619   2.117   0.231   6.770  1.0367  1.1314  1.6453
   74SLPC   H5Y 6620   2.166   0.371   6.677  0.7865 -0.4050  0.7293
   74SLPC   C36 6621   1.976   0.326   6.615  0.5319 -0.7849  0.8554
   74SLPC   H6X 6622   1.952   0.431   6.587  0.0042 -1.7982 -3.2430
   74SLPC   H6Y 6623   1.878   0.284   6.645 -0.0711  0.8612  1.2478
   74SLPC   C37 6624   2.014   0.260   6.480  0.3166  0.0319 -0.1024
   74SLPC   H7X 6625   2.017   0.151   6.500  0.4779  0.5505  3.1136
   74SLPC   H7Y 6626   2.117   0.284   6.445  0.3510  0.7394  0.4591
   74SLPC   C38 6627   1.916   0.305   6.364 -0.2089  0.3794  0.3830
   74SLPC   H8X 6628   1.879   0.410   6.363 -1.1021  0.0880 -1.1813
   74SLPC   H8Y 6629   1.821   0.248   6.378 -0.7837  0.1930 -3.2756
   74SLPC   C39 6630   1.968   0.276   6.223 -0.2784 -0.2592 -0.4952
   74SLPC   H9X 6631   1.973   0.166   6.209  0.9335 -0.1707 -0.8852
   74SLPC   H9Y 6632   2.071   0.316   6.212 -0.2053 -0.7791 -1.9146
   74SLPC  C310 6633   1.866   0.350   6.127  0.1735 -0.5594  0.0332
   74SLPC  H10X 6634   1.886   0.459   6.136 -0.8372 -0.2098 -1.6098
   74SLPC  H10Y 6635   1.766   0.332   6.170 -1.4181  0.7433 -2.8393
   74SLPC  C311 6636   1.891   0.310   5.982  0.4593  0.0461  0.5435
   74SLPC  H11X 6637   1.881   0.204   5.953  0.3916  0.9365 -3.0778
   74SLPC  H11Y 6638   1.999   0.323   5.961 -0.1180  1.0407 -2.1233
   74SLPC  C312 6639   1.835   0.389   5.856 -0.4474  0.3729  0.5355
   74SLPC  H12X 6640   1.877   0.491   5.859 -1.5066  0.8542 -0.1320
   74SLPC  H12Y 6641   1.724   0.401   5.858 -0.4949 -0.0283  2.0768
   74SLPC  C313 6642   1.863   0.335   5.712 -0.1957 -0.5328 -0.0157
   74SLPC  H13X 6643   1.851   0.225   5.717 -0.5423 -0.5237 -0.5454
   74SLPC  H13Y 6644   1.968   0.351   5.679 -1.0421 -0.9326 -3.2812
   74SLPC  C314 6645   1.765   0.398   5.609 -0.3135  0.6130  0.7771
   74SLPC  H14X 6646   1.777   0.508   5.599  1.2973  0.4619  0.8323
   74SLPC  H14Y 6647   1.663   0.375   5.646 -0.5220 -0.6000 -0.4515
   74SLPC  C315 6648   1.776   0.343   5.465 -0.2957  0.6594  0.1492
   74SLPC  H15X 6649   1.866   0.391   5.421  0.6047 -0.0381  1.1853
   74SLPC  H15Y 6650   1.690   0.386   5.409 -1.2408  0.8451  1.6965
   74SLPC  C316 6651   1.767   0.185   5.462  0.1041 -0.9644  0.1432
   74SLPC  H16X 6652   1.668   0.152   5.501 -0.0097  0.2039  0.8708
   74SLPC  H16Y 6653   1.842   0.145   5.533  0.7323 -1.0566 -0.5598
   74SLPC  C317 6654   1.772   0.121   5.323 -0.0755 -0.0997  0.2373
   74SLPC  H17X 6655   1.768   0.010   5.322 -0.1620 -0.0952 -0.1948
   74SLPC  H17Y 6656   1.866   0.149   5.271  0.3861  1.2557  1.7116
   74SLPC  C318 6657   1.657   0.163   5.241 -0.1155 -0.0103 -0.2856
   74SLPC  H18X 6658   1.635   0.094   5.158  0.3257  0.4248 -0.7723
   74SLPC  H18Y 6659   1.662   0.269   5.210  2.1576  0.2614  0.7663
   74SLPC  H18Z 6660   1.563   0.152   5.299  0.4392 -0.9611  0.4595
   75SLPC     N 6661   3.521   6.319   7.890  0.4199  0.4780 -0.1708
   75SLPC   C13 6662   3.398   6.333   7.978 -0.3286 -0.1829 -0.3905
   75SLPC  H13A 6663   3.424   6.353   8.081  0.1108 -1.8704 -0.1464
   75SLPC  H13B 6664   3.330   6.409   7.943 -0.7186  0.1903  1.0970
   75SLPC  H13C 6665   3.346   6.239   7.967  0.1942 -0.3422 -1.6263
   75SLPC   C14 6666   3.596   6.192   7.913  1.0221  0.1847  0.2201
   75SLPC  H14A 6667   3.552   6.096   7.888  0.6268  0.4366 -0.0659
   75SLPC  H14B 6668   3.686   6.176   7.855  0.4580  0.4917 -0.7642
   75SLPC  H14C 6669   3.622   6.178   8.017  0.8065 -2.7524 -0.0427
   75SLPC   C15 6670   3.606   6.436   7.914 -0.4624 -0.2453 -0.2851
   75SLPC  H15A 6671   3.655   6.417   8.008 -1.4392  1.0832  0.5292
   75SLPC  H15B 6672   3.676   6.450   7.834 -1.2651  1.2468 -0.7660
   75SLPC  H15C 6673   3.543   6.524   7.910 -0.7847 -0.5036 -1.1934
   75SLPC   C12 6674   3.465   6.297   7.750  0.5079 -0.3647  0.1505
   75SLPC  H12A 6675   3.378   6.234   7.747  0.7998 -0.8057  0.8888
   75SLPC  H12B 6676   3.550   6.261   7.694  1.3446  0.9853  0.4888
   75SLPC   C11 6677   3.426   6.432   7.679 -0.0779  0.5408  0.3947
   75SLPC  H11A 6678   3.432   6.401   7.572 -1.4164  0.8271  0.2224
   75SLPC  H11B 6679   3.506   6.508   7.697  1.1111 -0.0300 -1.9795
   75SLPC     P 6680   3.171   6.390   7.638  0.0024  0.2295  0.3565
   75SLPC   O13 6681   3.174   6.252   7.688 -0.5350  0.5890 -0.0371
   75SLPC   O14 6682   3.042   6.457   7.657  0.2958 -0.0873  0.2789
   75SLPC   O12 6683   3.286   6.470   7.702 -0.6464 -0.1810  0.8032
   75SLPC   O11 6684   3.208   6.401   7.485 -0.0047 -0.2987 -1.2158
   75SLPC    C1 6685   3.208   6.534   7.430 -0.9297  0.3398 -0.8177
   75SLPC    HA 6686   3.117   6.595   7.449 -1.7224 -1.0079 -0.2018
   75SLPC    HB 6687   3.298   6.590   7.463  0.1432 -2.2138  0.9264
   75SLPC    C2 6688   3.208   6.528   7.272 -0.0310 -0.5163 -0.2399
   75SLPC    HS 6689   3.213   6.630   7.228 -2.8256 -0.0063  0.4663
   75SLPC   O21 6690   3.087   6.465   7.226  0.4200 -0.5384  0.4218
   75SLPC   C21 6691   2.985   6.550   7.187 -0.6062  0.1518 -0.1855
   75SLPC   O22 6692   2.984   6.668   7.217  0.1164 -0.6289  0.1840
   75SLPC   C22 6693   2.884   6.480   7.086 -0.2274  0.3586  0.1103
   75SLPC   H2R 6694   2.934   6.386   7.054  1.4817  1.8555 -1.9681
   75SLPC   H2S 6695   2.791   6.450   7.139 -0.1780 -2.6880 -1.3167
   75SLPC    C3 6696   3.331   6.450   7.222  0.2323 -0.6544  0.9287
   75SLPC    HX 6697   3.340   6.346   7.260  2.4859 -0.8866 -0.0734
   75SLPC    HY 6698   3.423   6.492   7.267  0.3403 -0.5945  0.6582
   75SLPC   O31 6699   3.349   6.461   7.080 -0.0648  0.3440 -0.4218
   75SLPC   C31 6700   3.331   6.356   7.006  0.5627  1.0110 -0.3813
   75SLPC   O32 6701   3.296   6.240   7.041 -0.4774 -0.3111 -0.3559
   75SLPC   C32 6702   3.342   6.402   6.862 -0.5300  0.2003  0.0274
   75SLPC   H2X 6703   3.447   6.415   6.827 -0.7911 -2.7643 -2.3392
   75SLPC   H2Y 6704   3.289   6.500   6.858  1.8588  1.5581 -0.7899
   75SLPC   C23 6705   2.856   6.576   6.969 -0.0540  0.5263 -0.2594
   75SLPC   H3R 6706   2.818   6.675   7.000 -0.7155  0.6983 -1.5315
   75SLPC   H3S 6707   2.769   6.542   6.907 -1.0261  2.8647 -0.2772
   75SLPC   C24 6708   2.978   6.600   6.877  0.4257 -0.6630 -0.0193
   75SLPC   H4R 6709   2.992   6.494   6.846 -1.1569 -0.4054 -1.7921
   75SLPC   H4S 6710   3.063   6.632   6.941 -1.5954 -1.3181  3.2119
   75SLPC   C25 6711   2.945   6.700   6.774  0.2585 -0.0215 -0.1095
   75SLPC   H5R 6712   2.951   6.804   6.814 -1.7010 -0.4355  1.4371
   75SLPC   H5S 6713   2.843   6.678   6.734  2.0441 -2.7164 -3.8166
   75SLPC   C26 6714   3.039   6.686   6.664 -0.9226  0.0173  0.7553
   75SLPC   H6R 6715   3.011   6.590   6.615 -0.5688  1.3672 -2.3232
   75SLPC   H6S 6716   3.142   6.668   6.701  0.6916  3.6425 -1.3807
   75SLPC   C27 6717   3.021   6.795   6.548  0.6220  0.5144  0.3631
   75SLPC   H7R 6718   3.063   6.884   6.598 -0.4367 -0.1519  2.5435
   75SLPC   H7S 6719   2.912   6.815   6.540  0.8540  1.7849  0.1614
   75SLPC   C28 6720   3.074   6.745   6.411  0.4236  0.2390 -0.1996
   75SLPC   H8R 6721   3.183   6.734   6.427  0.1439 -1.2749  0.8895
   75SLPC   H8S 6722   3.060   6.822   6.332  0.8252  0.8433  0.3005
   75SLPC   C29 6723   3.027   6.616   6.357 -0.2718  0.4570 -0.0856
   75SLPC   H9R 6724   3.006   6.529   6.421 -0.4203 -0.3353 -1.1851
   75SLPC  C210 6725   2.995   6.601   6.220 -0.3080 -0.8514 -0.1508
   75SLPC  H10R 6726   2.971   6.497   6.191  1.1876 -1.2315 -0.0748
   75SLPC  C211 6727   2.998   6.704   6.106  0.7496 -0.1905  0.4256
   75SLPC  H11R 6728   3.082   6.768   6.141  1.0686 -0.6662  0.5378
   75SLPC  H11S 6729   2.910   6.772   6.108  1.8960  1.4461 -1.0041
   75SLPC  C212 6730   3.020   6.659   5.961  0.9300 -0.1988 -0.2617
   75SLPC  H12R 6731   3.015   6.550   5.946  1.1854 -0.3489  0.7092
   75SLPC  C213 6732   3.036   6.747   5.857  0.2131 -0.0866 -0.2076
   75SLPC  H13R 6733   3.057   6.710   5.755  0.1361 -0.8240  0.0413
   75SLPC  C214 6734   3.047   6.893   5.881 -0.2690  0.4553  0.3163
   75SLPC  H14R 6735   3.087   6.917   5.982  0.4064 -0.2078  0.2192
   75SLPC  H14S 6736   2.949   6.942   5.867 -0.1875  0.2237 -1.2406
   75SLPC  C215 6737   3.157   6.951   5.795 -0.3655  0.3695 -0.4983
   75SLPC  H15R 6738   3.243   6.882   5.781 -1.2410 -0.5715 -1.5093
   75SLPC  H15S 6739   3.187   7.049   5.837 -2.3898  0.7114  0.2961
   75SLPC  C216 6740   3.091   6.982   5.663  0.1955  0.0410 -0.1507
   75SLPC  H16R 6741   2.994   7.034   5.654  0.6623  1.3208  1.5424
   75SLPC  H16S 6742   3.073   6.891   5.602  1.2753  0.5625 -1.2716
   75SLPC  C217 6743   3.192   7.063   5.570  0.2998  0.2525  0.5913
   75SLPC  H17R 6744   3.291   7.011   5.564  1.3163  2.1507  0.3656
   75SLPC  H17S 6745   3.211   7.159   5.623  1.4848 -1.3177  3.2478
   75SLPC  C218 6746   3.150   7.072   5.424  0.4611 -0.2348  0.5288
   75SLPC  H18R 6747   3.189   7.165   5.378  0.2881 -0.2416  0.3668
   75SLPC  H18S 6748   3.040   7.074   5.410  0.4662 -2.1835 -0.1642
   75SLPC  H18T 6749   3.191   6.985   5.367  1.4771  2.3340 -3.0326
   75SLPC   C33 6750   3.272   6.309   6.754 -0.3965 -0.0698 -0.3397
   75SLPC   H3X 6751   3.162   6.311   6.767 -0.2772  0.5966  0.7043
   75SLPC   H3Y 6752   3.307   6.204   6.762 -0.8099 -0.3080 -1.4852
   75SLPC   C34 6753   3.315   6.363   6.616  0.8673 -0.2697 -0.2183
   75SLPC   H4X 6754   3.424   6.380   6.613  0.6504  1.2606 -0.0996
   75SLPC   H4Y 6755   3.269   6.461   6.590  2.1888  0.2693 -0.5610
   75SLPC   C35 6756   3.286   6.264   6.504 -0.2196  0.0093  0.0138
   75SLPC   H5X 6757   3.187   6.215   6.520 -0.0027 -0.1809  0.8134
   75SLPC   H5Y 6758   3.365   6.186   6.516 -0.0821  0.2245  0.5468
   75SLPC   C36 6759   3.306   6.323   6.359 -0.4009  0.2448 -0.0928
   75SLPC   H6X 6760   3.389   6.397   6.361 -0.3023  0.1765 -1.1995
   75SLPC   H6Y 6761   3.208   6.370   6.338 -1.3017 -0.8033  1.5458
   75SLPC   C37 6762   3.318   6.214   6.243  0.4126  0.1359  0.5703
   75SLPC   H7X 6763   3.216   6.175   6.227  0.1645  0.3011  1.6296
   75SLPC   H7Y 6764   3.387   6.133   6.275  0.8832  0.3548  0.1221
   75SLPC   C38 6765   3.362   6.257   6.102  0.4646  0.0897 -0.6894
   75SLPC   H8X 6766   3.347   6.171   6.032  1.8330 -0.6614 -0.1091
   75SLPC   H8Y 6767   3.463   6.303   6.103 -0.3208  1.9784 -2.0350
   75SLPC   C39 6768   3.267   6.376   6.058 -0.1461 -0.1419 -0.5663
   75SLPC   H9X 6769   3.244   6.454   6.134  1.2289 -0.4524  0.2098
   75SLPC   H9Y 6770   3.168   6.340   6.025  0.1994 -1.2026 -0.4704
   75SLPC  C310 6771   3.317   6.458   5.932  0.7872 -0.2388 -0.1030
   75SLPC  H10X 6772   3.428   6.468   5.941  0.6293 -0.2653  3.2930
   75SLPC  H10Y 6773   3.276   6.560   5.949 -0.7898 -0.8565 -0.0848
   75SLPC  C311 6774   3.264   6.407   5.803 -0.1114 -0.7166  0.0223
   75SLPC  H11X 6775   3.244   6.486   5.727 -0.3557 -0.9016 -0.1049
   75SLPC  H11Y 6776   3.173   6.346   5.817 -0.6405  0.4918  2.3768
   75SLPC  C312 6777   3.363   6.305   5.746 -0.3928 -0.0445 -0.6138
   75SLPC  H12X 6778   3.375   6.217   5.812 -3.2160 -0.4014 -0.4675
   75SLPC  H12Y 6779   3.463   6.354   5.747 -1.0631  1.3578 -0.0656
   75SLPC  C313 6780   3.336   6.268   5.604 -0.1420  0.2574  0.1891
   75SLPC  H13X 6781   3.352   6.363   5.548  0.4427  1.9735  3.0681
   75SLPC  H13Y 6782   3.233   6.231   5.581 -0.0537 -0.3851  0.8081
   75SLPC  C314 6783   3.426   6.169   5.523  0.3550 -0.4169 -0.3719
   75SLPC  H14X 6784   3.411   6.068   5.566 -0.9990  0.2133  0.7212
   75SLPC  H14Y 6785   3.529   6.211   5.532  0.1305  1.0380 -3.2947
   75SLPC  C315 6786   3.397   6.166   5.375 -0.3823  0.0467  0.1782
   75SLPC  H15X 6787   3.291   6.136   5.362 -0.3956  0.3580 -0.4238
   75SLPC  H15Y 6788   3.465   6.085   5.339  0.7200  1.4178 -0.9416
   75SLPC  C316 6789   3.435   6.293   5.302  0.0026 -0.3530  0.2573
   75SLPC  H16X 6790   3.529   6.341   5.338 -1.1297  1.7186  0.5580
   75SLPC  H16Y 6791   3.355   6.369   5.312 -0.7093 -0.5442 -2.8088
   75SLPC  C317 6792   3.461   6.286   5.147 -0.7656  0.5758  0.1881
   75SLPC  H17X 6793   3.548   6.219   5.130 -1.1633 -0.3064  1.4814
   75SLPC  H17Y 6794   3.484   6.386   5.104 -1.6517  0.6029 -0.2400
   75SLPC  C318 6795   3.337   6.236   5.069 -0.7244  0.5914 -0.1507
   75SLPC  H18X 6796   3.359   6.227   4.960 -0.2916 -0.2110 -0.0041
   75SLPC  H18Y 6797   3.249   6.303   5.074  0.5895  2.4358 -0.7982
   75SLPC  H18Z 6798   3.312   6.137   5.114  0.4504  0.9662  1.4109
   76SLPC     N 6799   4.223   5.650   7.563  0.2078  0.4843  0.2330
   76SLPC   C13 6800   4.178   5.547   7.460 -0.1022 -0.1768 -0.0235
   76SLPC  H13A 6801   4.086   5.513   7.505 -0.1492 -2.3199 -1.5417
   76SLPC  H13B 6802   4.184   5.599   7.365 -0.4337 -1.2232 -0.6391
   76SLPC  H13C 6803   4.253   5.469   7.450  0.3823  0.4531 -1.5800
   76SLPC   C14 6804   4.337   5.719   7.508 -0.1152 -0.0646  0.2978
   76SLPC  H14A 6805   4.371   5.795   7.576  0.8145 -0.8266  0.6995
   76SLPC  H14B 6806   4.414   5.646   7.488 -2.0816 -2.8145  1.9927
   76SLPC  H14C 6807   4.311   5.766   7.414  0.7590 -2.0480 -1.0036
   76SLPC   C15 6808   4.273   5.585   7.692 -0.4960  0.7449  1.0345
   76SLPC  H15A 6809   4.370   5.538   7.682 -0.1481  1.3613  1.4876
   76SLPC  H15B 6810   4.275   5.659   7.770 -1.5316  2.4649 -0.4755
   76SLPC  H15C 6811   4.206   5.508   7.726  0.4343  0.2415  1.7888
   76SLPC   C12 6812   4.111   5.748   7.591  0.5386 -0.0048 -0.2055
   76SLPC  H12A 6813   4.043   5.698   7.657  1.6855 -0.9809  0.2749
   76SLPC  H12B 6814   4.061   5.768   7.497  0.2483  0.2804  0.0078
   76SLPC   C11 6815   4.144   5.893   7.635 -0.7540  0.1673  0.3983
   76SLPC  H11A 6816   4.205   5.900   7.727  0.7767 -1.1827 -0.4655
   76SLPC  H11B 6817   4.042   5.936   7.649 -0.7550  0.4515 -0.4487
   76SLPC     P 6818   4.145   6.022   7.400  0.0773  0.0823  0.0914
   76SLPC   O13 6819   4.143   5.911   7.298 -0.0778  0.0222 -1.0436
   76SLPC   O14 6820   4.022   6.092   7.445  0.0632  0.9992  0.4260
   76SLPC   O12 6821   4.210   5.968   7.528 -0.4984  0.2089  0.3846
   76SLPC   O11 6822   4.256   6.137   7.364  0.9168 -0.6398  0.6482
   76SLPC    C1 6823   4.393   6.099   7.335  0.3625  0.2487  1.0603
   76SLPC    HA 6824   4.460   6.139   7.414  1.3901 -0.6218  0.6367
   76SLPC    HB 6825   4.401   5.989   7.327 -0.4343  0.3049 -1.0821
   76SLPC    C2 6826   4.434   6.162   7.198  0.1190 -0.1042 -0.3975
   76SLPC    HS 6827   4.404   6.267   7.180  3.1663  0.7365 -1.1308
   76SLPC   O21 6828   4.376   6.077   7.095  0.2168 -0.4669 -0.8656
   76SLPC   C21 6829   4.257   6.117   7.057  0.3152 -0.5045  0.2367
   76SLPC   O22 6830   4.209   6.227   7.072  0.3635 -0.3333  0.6273
   76SLPC   C22 6831   4.184   6.006   6.981 -0.0557  0.3854  0.4074
   76SLPC   H2R 6832   4.259   5.924   6.970 -0.8014 -0.4711  1.4222
   76SLPC   H2S 6833   4.102   5.970   7.047 -0.4573  0.7509  0.1148
   76SLPC    C3 6834   4.586   6.167   7.185 -0.8034 -0.3002 -0.0422
   76SLPC    HX 6835   4.617   6.063   7.207 -0.0908  0.0512  0.6829
   76SLPC    HY 6836   4.636   6.225   7.266 -1.3288 -1.9829  1.5625
   76SLPC   O31 6837   4.624   6.212   7.050  0.1234  0.0438  0.0096
   76SLPC   C31 6838   4.641   6.112   6.960  0.8810  0.0323  0.8335
   76SLPC   O32 6839   4.629   5.993   6.981 -0.4725  0.2729  0.1120
   76SLPC   C32 6840   4.682   6.175   6.829  0.3278 -0.0286  0.2560
   76SLPC   H2X 6841   4.761   6.252   6.844 -1.6454  1.7892  1.9567
   76SLPC   H2Y 6842   4.588   6.223   6.794 -0.6155  1.1696  3.9028
   76SLPC   C23 6843   4.127   6.036   6.842 -0.0622  0.0103 -0.0866
   76SLPC   H3R 6844   4.049   6.116   6.844  0.5983  0.6774 -0.3368
   76SLPC   H3S 6845   4.080   5.939   6.818  0.9187 -0.5836  0.3468
   76SLPC   C24 6846   4.246   6.077   6.752 -0.2454 -0.3970 -0.8121
   76SLPC   H4R 6847   4.330   6.012   6.783  0.0765 -0.0743 -0.9975
   76SLPC   H4S 6848   4.281   6.182   6.757 -1.3788 -0.0180 -0.4078
   76SLPC   C25 6849   4.225   6.040   6.609 -0.3902 -0.0814 -0.9455
   76SLPC   H5R 6850   4.178   5.941   6.592  1.2085 -0.7152 -1.8752
   76SLPC   H5S 6851   4.330   6.037   6.573  0.7975 -0.2077  2.2068
   76SLPC   C26 6852   4.139   6.148   6.541  0.1371  0.3330  0.3083
   76SLPC   H6R 6853   4.182   6.164   6.440  1.3514  1.4428  0.9615
   76SLPC   H6S 6854   4.131   6.239   6.605  0.4638  0.9158 -0.4672
   76SLPC   C27 6855   3.988   6.109   6.526 -0.2133 -0.1322  0.2074
   76SLPC   H7R 6856   3.948   6.076   6.625 -0.0092  1.8236  0.9796
   76SLPC   H7S 6857   3.981   6.022   6.457 -1.7839 -0.4554  0.7138
   76SLPC   C28 6858   3.892   6.215   6.468 -0.2094 -0.5134  0.2110
   76SLPC   H8R 6859   3.929   6.234   6.365 -0.9129 -0.3574 -0.0165
   76SLPC   H8S 6860   3.903   6.314   6.518  0.0754  1.2435 -3.0719
   76SLPC   C29 6861   3.750   6.163   6.469  0.2725  0.4464 -0.1255
   76SLPC   H9R 6862   3.707   6.156   6.570 -0.9482  0.1655 -0.6537
   76SLPC  C210 6863   3.691   6.103   6.361 -0.8537  0.6292 -0.5162
   76SLPC  H10R 6864   3.600   6.043   6.371  0.1301 -0.6675  1.1108
   76SLPC  C211 6865   3.755   6.073   6.229 -0.5133  0.4613  0.8424
   76SLPC  H11R 6866   3.696   5.986   6.191  0.2497 -0.0267  0.7569
   76SLPC  H11S 6867   3.864   6.052   6.230 -0.8180 -1.3142  0.9974
   76SLPC  C212 6868   3.741   6.191   6.129 -0.5204  0.6288  0.2479
   76SLPC  H12R 6869   3.766   6.285   6.181 -0.9405 -0.0048  1.6437
   76SLPC  C213 6870   3.703   6.191   6.001  0.0570  0.3333  0.1606
   76SLPC  H13R 6871   3.699   6.291   5.956 -3.7582 -0.1446 -0.9128
   76SLPC  C214 6872   3.662   6.075   5.920 -0.3232  0.4756 -0.3600
   76SLPC  H14R 6873   3.553   6.058   5.907 -0.2157 -3.0842  1.7731
   76SLPC  H14S 6874   3.695   5.978   5.963 -1.8238 -0.3832 -1.0521
   76SLPC  C215 6875   3.710   6.084   5.771  0.1216 -0.5088 -0.1068
   76SLPC  H15R 6876   3.820   6.103   5.776 -0.3709  2.7454  0.4511
   76SLPC  H15S 6877   3.667   6.175   5.724  1.5269  1.6380  2.4123
   76SLPC  C216 6878   3.675   5.957   5.693 -0.5135  0.0551 -0.2252
   76SLPC  H16R 6879   3.565   5.955   5.683 -0.6828 -0.3630  1.3607
   76SLPC  H16S 6880   3.705   5.869   5.754  2.3775  0.3369 -1.0855
   76SLPC  C217 6881   3.735   5.953   5.550 -0.3910  0.1609  0.6379
   76SLPC  H17R 6882   3.845   5.945   5.562 -0.1977  0.7087 -0.6247
   76SLPC  H17S 6883   3.704   6.050   5.505 -1.5520  1.0450  3.1760
   76SLPC  C218 6884   3.691   5.831   5.465  0.0025  0.4569 -0.8729
   76SLPC  H18R 6885   3.710   5.856   5.358  4.3087  3.2647  0.2868
   76SLPC  H18S 6886   3.582   5.810   5.472  0.0404  0.5968  0.2341
   76SLPC  H18T 6887   3.743   5.737   5.493 -2.4996 -1.2943 -1.7081
   76SLPC   C33 6888   4.718   6.069   6.724 -0.1317  0.1875 -0.4010
   76SLPC   H3X 6889   4.648   5.983   6.728  0.0728  0.0589  1.8892
   76SLPC   H3Y 6890   4.822   6.039   6.752 -0.0772  0.5038 -0.2665
   76SLPC   C34 6891   4.734   6.136   6.587 -0.3979 -0.1301  0.8070
   76SLPC   H4X 6892   4.795   6.074   6.518 -2.7074  0.6232 -2.1279
   76SLPC   H4Y 6893   4.785   6.234   6.600  0.3984 -0.5625  1.0117
   76SLPC   C35 6894   4.591   6.155   6.518 -0.6646 -0.3476  0.5948
   76SLPC   H5X 6895   4.518   6.225   6.565  0.8342  1.6577  0.0315
   76SLPC   H5Y 6896   4.554   6.050   6.518 -1.0023 -0.2298  0.7726
   76SLPC   C36 6897   4.605   6.193   6.373  0.5338  0.1025  1.0695
   76SLPC   H6X 6898   4.665   6.116   6.321 -0.0190  1.5476 -1.9120
   76SLPC   H6Y 6899   4.665   6.287   6.375 -0.5518  0.9135 -1.3590
   76SLPC   C37 6900   4.466   6.197   6.299 -0.0745 -0.2471  0.4793
   76SLPC   H7X 6901   4.389   6.258   6.351 -0.0550  2.4398 -2.3645
   76SLPC   H7Y 6902   4.422   6.095   6.288 -1.5154  0.2308  1.4842
   76SLPC   C38 6903   4.481   6.261   6.159 -0.2002 -0.0917  0.3441
   76SLPC   H8X 6904   4.385   6.233   6.112  0.5570 -0.7694 -0.8412
   76SLPC   H8Y 6905   4.560   6.199   6.113 -0.8300 -1.4506  1.0211
   76SLPC   C39 6906   4.520   6.415   6.144  0.0708  0.0654  0.4366
   76SLPC   H9X 6907   4.616   6.428   6.199  0.6550 -0.8855 -0.3174
   76SLPC   H9Y 6908   4.433   6.466   6.190 -1.3055 -1.5371 -0.2910
   76SLPC  C310 6909   4.522   6.465   5.996 -0.0028 -0.3679  0.4391
   76SLPC  H10X 6910   4.430   6.467   5.934 -1.1033  1.9411  1.9932
   76SLPC  H10Y 6911   4.594   6.401   5.941 -0.8083 -1.8979  1.1067
   76SLPC  C311 6912   4.571   6.610   5.987 -0.0870  0.0057  0.2032
   76SLPC  H11X 6913   4.667   6.624   6.040 -0.8586  1.6725  1.2560
   76SLPC  H11Y 6914   4.496   6.681   6.029  0.1499  1.1747 -1.2605
   76SLPC  C312 6915   4.575   6.648   5.833  0.7367  0.3314  0.4633
   76SLPC  H12X 6916   4.480   6.627   5.780  2.3436 -1.4329 -1.9334
   76SLPC  H12Y 6917   4.645   6.571   5.793 -1.3585 -1.5974  0.3255
   76SLPC  C313 6918   4.627   6.788   5.798 -0.6393 -0.0233  0.0698
   76SLPC  H13X 6919   4.715   6.812   5.862  0.6092 -1.4345 -1.0389
   76SLPC  H13Y 6920   4.550   6.864   5.821  0.7987  1.7572 -0.7027
   76SLPC  C314 6921   4.661   6.802   5.652 -0.5638 -0.6498 -0.1572
   76SLPC  H14X 6922   4.566   6.785   5.596 -1.5399  4.0334 -0.3790
   76SLPC  H14Y 6923   4.745   6.734   5.628 -0.9132 -0.9650 -0.5058
   76SLPC  C315 6924   4.712   6.946   5.624  0.8588 -0.2572 -0.4508
   76SLPC  H15X 6925   4.777   6.988   5.703  0.0833  0.9819 -0.4393
   76SLPC  H15Y 6926   4.630   7.021   5.616  1.1712  0.1106 -0.2339
   76SLPC  C316 6927   4.787   6.942   5.495  0.0766 -0.9739  0.3336
   76SLPC  H16X 6928   4.727   6.902   5.411 -0.5605  0.3466  0.1209
   76SLPC  H16Y 6929   4.876   6.879   5.515 -1.1992 -2.6961  0.7694
   76SLPC  C317 6930   4.842   7.078   5.438  0.5693  0.0280 -1.2345
   76SLPC  H17X 6931   4.876   7.134   5.528  3.2279  0.3828 -2.3883
   76SLPC  H17Y 6932   4.760   7.130   5.383  0.9640 -0.8652 -2.6936
   76SLPC  C318 6933   4.964   7.056   5.351 -0.7250 -0.4490  0.6134
   76SLPC  H18X 6934   4.945   6.980   5.272  0.9378  0.3676 -0.6427
   76SLPC  H18Y 6935   5.059   7.041   5.407 -1.5554  0.7584  2.4341
   76SLPC  H18Z 6936   4.979   7.154   5.301 -1.1548  0.9688  3.0871
   77SLPC     N 6937   5.353   5.637   7.567  0.6971 -0.4689 -0.8836
   77SLPC   C13 6938   5.378   5.547   7.686  0.3758  0.3432 -0.6456
   77SLPC  H13A 6939   5.458   5.589   7.745  1.9711 -0.7651 -1.9383
   77SLPC  H13B 6940   5.290   5.530   7.747 -0.5598  1.9092 -1.4988
   77SLPC  H13C 6941   5.412   5.454   7.645  0.7969 -1.0808  2.5882
   77SLPC   C14 6942   5.340   5.783   7.617 -0.2042 -0.1274  0.8223
   77SLPC  H14A 6943   5.284   5.799   7.708  0.5407 -0.7619  1.4039
   77SLPC  H14B 6944   5.438   5.826   7.634  0.5980 -1.8943  0.8971
   77SLPC  H14C 6945   5.306   5.841   7.533 -2.1226 -2.9467 -0.5103
   77SLPC   C15 6946   5.226   5.600   7.509  0.3359  0.2953 -0.4804
   77SLPC  H15A 6947   5.228   5.493   7.494 -0.1115  0.1387  0.4419
   77SLPC  H15B 6948   5.137   5.623   7.566 -0.1035 -0.3458 -0.9034
   77SLPC  H15C 6949   5.207   5.641   7.411  0.5867 -0.7117 -0.9591
   77SLPC   C12 6950   5.458   5.622   7.460 -0.3708 -0.1147 -0.5952
   77SLPC  H12A 6951   5.449   5.524   7.416 -2.5233  0.9507 -2.7414
   77SLPC  H12B 6952   5.558   5.633   7.499 -0.0454 -0.4847 -1.2987
   77SLPC   C11 6953   5.450   5.707   7.328 -0.6257  0.5512 -0.3737
   77SLPC  H11A 6954   5.553   5.705   7.287 -0.9630  0.6932 -1.2463
   77SLPC  H11B 6955   5.423   5.810   7.361 -1.0923 -0.2591  1.9810
   77SLPC     P 6956   5.259   5.745   7.151 -0.1556 -0.1632 -0.1343
   77SLPC   O13 6957   5.121   5.709   7.184  0.1138 -0.7927 -0.4155
   77SLPC   O14 6958   5.297   5.888   7.163 -0.2032 -0.8803 -0.4675
   77SLPC   O12 6959   5.358   5.652   7.230 -0.2334  0.2543  0.1039
   77SLPC   O11 6960   5.285   5.714   6.997 -0.0758  0.0726  0.7510
   77SLPC    C1 6961   5.404   5.639   6.963  0.3261 -0.4132 -0.1828
   77SLPC    HA 6962   5.491   5.707   6.971 -1.4578  1.9665  0.0038
   77SLPC    HB 6963   5.421   5.553   7.031  1.5631  0.0664  0.1333
   77SLPC    C2 6964   5.401   5.578   6.822 -0.5610  0.1961 -0.0324
   77SLPC    HS 6965   5.373   5.656   6.748 -0.1667 -2.1642 -2.8602
   77SLPC   O21 6966   5.306   5.472   6.813 -0.2317 -0.3462 -0.1685
   77SLPC   C21 6967   5.180   5.501   6.798 -0.2778 -0.2430  0.1263
   77SLPC   O22 6968   5.144   5.618   6.774  0.1791  0.0659  0.7594
   77SLPC   C22 6969   5.066   5.385   6.812 -0.4126  0.3599  0.2230
   77SLPC   H2R 6970   5.030   5.385   6.917 -2.7362 -0.8611 -0.5016
   77SLPC   H2S 6971   4.976   5.422   6.759 -1.3495  2.0784  2.8562
   77SLPC    C3 6972   5.541   5.512   6.787 -0.2197 -0.4633 -0.4626
   77SLPC    HX 6973   5.550   5.429   6.861 -2.2363 -2.0700 -1.9178
   77SLPC    HY 6974   5.621   5.585   6.813  1.7204 -2.4783 -0.4816
   77SLPC   O31 6975   5.557   5.464   6.646 -0.4445  0.3312 -0.5640
   77SLPC   C31 6976   5.568   5.571   6.567 -0.6672 -0.0178  0.2914
   77SLPC   O32 6977   5.590   5.688   6.602  0.4464 -0.6345 -0.3469
   77SLPC   C32 6978   5.539   5.520   6.425 -0.3012 -0.1427 -0.1100
   77SLPC   H2X 6979   5.432   5.489   6.427 -0.5818  0.8306  0.1616
   77SLPC   H2Y 6980   5.596   5.426   6.408 -1.4264 -0.7557 -0.6696
   77SLPC   C23 6981   5.109   5.238   6.784  0.1373  0.9582  0.2397
   77SLPC   H3R 6982   5.047   5.158   6.829  2.4104 -0.2922  1.3012
   77SLPC   H3S 6983   5.213   5.235   6.823 -0.6717  0.5310  2.4747
   77SLPC   C24 6984   5.111   5.223   6.629  0.5812  0.1125 -0.3567
   77SLPC   H4R 6985   5.010   5.247   6.587  0.7410  0.1056 -0.7465
   77SLPC   H4S 6986   5.129   5.117   6.603  0.7142 -0.5945  2.3613
   77SLPC   C25 6987   5.220   5.302   6.562 -0.5901 -0.1502  0.0487
   77SLPC   H5R 6988   5.316   5.278   6.612 -1.1902  0.4951  1.5752
   77SLPC   H5S 6989   5.221   5.412   6.571  2.6695  0.0897 -1.6715
   77SLPC   C26 6990   5.248   5.255   6.414  0.1504 -0.5365 -0.1410
   77SLPC   H6R 6991   5.279   5.148   6.414  3.2500  0.2458  1.0217
   77SLPC   H6S 6992   5.340   5.307   6.381 -0.2682 -0.9322 -2.0976
   77SLPC   C27 6993   5.126   5.294   6.328  0.0315  0.2936  0.2327
   77SLPC   H7R 6994   5.085   5.395   6.349 -1.6136 -0.3932  0.4486
   77SLPC   H7S 6995   5.038   5.229   6.345 -0.6340  1.0789 -0.1799
   77SLPC   C28 6996   5.170   5.281   6.178  0.3506 -0.7714 -1.0412
   77SLPC   H8R 6997   5.160   5.178   6.139  0.6731 -0.4941 -1.9034
   77SLPC   H8S 6998   5.275   5.310   6.157 -0.7032  2.8820 -2.0915
   77SLPC   C29 6999   5.080   5.383   6.102 -0.4481  1.1979  0.1586
   77SLPC   H9R 7000   5.067   5.477   6.156  2.3694  1.2553  0.9140
   77SLPC  C210 7001   5.023   5.364   5.983 -0.0507  0.2103 -0.0051
   77SLPC  H10R 7002   4.957   5.446   5.952  0.2406  0.2442 -0.5419
   77SLPC  C211 7003   5.025   5.244   5.881 -0.9026 -0.8334 -0.2883
   77SLPC  H11R 7004   5.009   5.149   5.937  2.2196 -1.0280  0.4561
   77SLPC  H11S 7005   5.128   5.224   5.844 -0.3378 -1.2136  1.3559
   77SLPC  C212 7006   4.913   5.269   5.778  0.0886  0.9754  0.6453
   77SLPC  H12R 7007   4.811   5.266   5.818  0.0047 -1.3530  0.3565
   77SLPC  C213 7008   4.925   5.269   5.639  1.0163 -0.6238 -0.0904
   77SLPC  H13R 7009   4.845   5.299   5.569  2.4614 -0.4010 -1.7025
   77SLPC  C214 7010   5.051   5.255   5.558 -0.4763 -0.3263  0.4786
   77SLPC  H14R 7011   5.073   5.150   5.532 -1.4951 -0.7412  1.2198
   77SLPC  H14S 7012   5.143   5.271   5.618 -0.8268 -1.3757  1.3402
   77SLPC  C215 7013   5.063   5.346   5.438  0.5466  0.0429  0.3905
   77SLPC  H15R 7014   5.171   5.334   5.415  0.9575  1.0861  1.6555
   77SLPC  H15S 7015   5.033   5.452   5.449 -0.8524 -0.1296 -1.2940
   77SLPC  C216 7016   4.992   5.300   5.307  0.3285 -0.3253  0.4348
   77SLPC  H16R 7017   4.882   5.283   5.313  0.1410 -0.4301 -2.2544
   77SLPC  H16S 7018   5.034   5.201   5.280  1.5533  0.3307 -0.1273
   77SLPC  C217 7019   5.033   5.402   5.198  0.2965 -0.2990  0.3742
   77SLPC  H17R 7020   5.144   5.391   5.197  0.2097 -2.9100 -3.1347
   77SLPC  H17S 7021   4.997   5.504   5.223  1.4561  0.7434 -1.8483
   77SLPC  C218 7022   4.986   5.368   5.062  0.1286  0.0575  0.1031
   77SLPC  H18R 7023   5.005   5.259   5.049 -1.2120 -0.2671  0.6794
   77SLPC  H18S 7024   5.027   5.424   4.975 -2.0432 -0.1265 -1.1204
   77SLPC  H18T 7025   4.876   5.382   5.070 -0.0498  0.2793 -2.1385
   77SLPC   C33 7026   5.569   5.624   6.319 -0.0887 -0.6658  0.5084
   77SLPC   H3X 7027   5.532   5.725   6.349 -1.7543 -0.1764 -2.7791
   77SLPC   H3Y 7028   5.517   5.592   6.226  0.4180 -2.5396  0.8325
   77SLPC   C34 7029   5.718   5.642   6.285  0.5589  0.2964  0.7751
   77SLPC   H4X 7030   5.768   5.556   6.235  1.4739  2.3836 -2.1985
   77SLPC   H4Y 7031   5.777   5.669   6.375  1.1645 -0.7761  0.7145
   77SLPC   C35 7032   5.728   5.762   6.181  0.1550 -0.0634  0.5977
   77SLPC   H5X 7033   5.815   5.826   6.207  2.9866 -3.9433  1.6109
   77SLPC   H5Y 7034   5.642   5.830   6.197  1.7291  1.5997  2.3390
   77SLPC   C36 7035   5.722   5.733   6.038  1.1773  0.6245  0.2839
   77SLPC   H6X 7036   5.659   5.642   6.040  0.8913  0.7690 -1.2137
   77SLPC   H6Y 7037   5.828   5.708   6.016  0.6657 -0.7497 -0.7539
   77SLPC   C37 7038   5.660   5.832   5.927 -0.9367  0.7507 -0.1117
   77SLPC   H7X 7039   5.717   5.927   5.915 -2.1869  1.3022 -2.1191
   77SLPC   H7Y 7040   5.557   5.849   5.966 -0.1510 -0.7743  2.8822
   77SLPC   C38 7041   5.664   5.747   5.795 -0.1853  0.9680 -1.1110
   77SLPC   H8X 7042   5.606   5.654   5.814  2.8216 -0.3697  3.0381
   77SLPC   H8Y 7043   5.770   5.723   5.778 -0.5646 -1.0546 -0.8732
   77SLPC   C39 7044   5.598   5.818   5.678 -0.0624 -0.3438  0.2372
   77SLPC   H9X 7045   5.519   5.880   5.725 -0.3922  0.1545 -0.9328
   77SLPC   H9Y 7046   5.563   5.748   5.599  0.7263  1.1634 -1.5093
   77SLPC  C310 7047   5.676   5.930   5.610 -0.1819  0.1123 -0.0198
   77SLPC  H10X 7048   5.768   5.889   5.562  0.1201  0.2532  0.4343
   77SLPC  H10Y 7049   5.723   5.984   5.694  1.7762  2.3684 -2.3897
   77SLPC  C311 7050   5.597   6.009   5.506 -0.8669  0.2539 -0.0617
   77SLPC  H11X 7051   5.503   6.036   5.558 -2.0883 -0.7934 -1.6135
   77SLPC  H11Y 7052   5.567   5.949   5.417 -1.1817 -0.2151  0.3593
   77SLPC  C312 7053   5.674   6.133   5.453 -0.3188 -0.8116  0.0814
   77SLPC  H12X 7054   5.710   6.190   5.541 -1.2633 -1.8131  1.1555
   77SLPC  H12Y 7055   5.602   6.199   5.401  2.8507  0.5471 -2.9958
   77SLPC  C313 7056   5.792   6.108   5.353 -0.0027  0.4478 -0.4705
   77SLPC  H13X 7057   5.768   6.032   5.276 -1.3210 -0.4470  0.7760
   77SLPC  H13Y 7058   5.877   6.078   5.418  0.8013  1.8680 -0.8032
   77SLPC  C314 7059   5.836   6.229   5.265 -0.8965  0.0217 -0.3470
   77SLPC  H14X 7060   5.849   6.309   5.341 -0.1686  0.1964 -0.6385
   77SLPC  H14Y 7061   5.756   6.278   5.206 -1.8911 -1.2307 -0.0767
   77SLPC  C315 7062   5.968   6.210   5.186  1.0425 -0.3874 -0.4540
   77SLPC  H15X 7063   5.981   6.107   5.147 -2.8210 -0.5480 -1.6426
   77SLPC  H15Y 7064   6.054   6.226   5.256  0.3801 -0.3274  0.3616
   77SLPC  C316 7065   5.993   6.314   5.064 -0.1583 -0.3401 -0.8095
   77SLPC  H16X 7066   5.983   6.414   5.110  2.6904 -1.0515  1.6884
   77SLPC  H16Y 7067   5.907   6.308   4.993 -0.7893 -1.1557  0.0093
   77SLPC  C317 7068   6.133   6.276   4.987  0.0072 -0.4524  0.2645
   77SLPC  H17X 7069   6.126   6.179   4.934  1.0511  0.0770 -0.8739
   77SLPC  H17Y 7070   6.209   6.252   5.065  0.5907 -1.4970 -0.5930
   77SLPC  C318 7071   6.190   6.383   4.893 -0.3480  1.0007  0.5678
   77SLPC  H18X 7072   6.112   6.432   4.831  2.0338  0.7542 -2.9187
   77SLPC  H18Y 7073   6.265   6.343   4.822 -1.4953 -2.7825  1.2669
   77SLPC  H18Z 7074   6.245   6.458   4.954  1.5625 -0.1200  0.3216
   78SLPC     N 7075   1.532   4.706   7.196  0.1186  0.2076 -1.0533
   78SLPC   C13 7076   1.442   4.817   7.159  0.1334  0.4522  0.4816
   78SLPC  H13A 7077   1.491   4.913   7.161 -1.2826  1.4095 -2.9919
   78SLPC  H13B 7078   1.401   4.810   7.059 -2.3314 -0.3849  1.4769
   78SLPC  H13C 7079   1.356   4.823   7.224 -1.3017  0.9346 -1.3821
   78SLPC   C14 7080   1.465   4.570   7.165 -0.4484 -0.2654 -0.1216
   78SLPC  H14A 7081   1.376   4.566   7.226 -1.1285  0.4306 -1.0383
   78SLPC  H14B 7082   1.438   4.567   7.061 -0.7720 -1.4611 -0.0222
   78SLPC  H14C 7083   1.527   4.489   7.200 -0.6991  0.0013  0.9826
   78SLPC   C15 7084   1.577   4.712   7.341  0.2713 -0.0094 -0.1318
   78SLPC  H15A 7085   1.487   4.704   7.400  1.4278 -1.1512  1.5618
   78SLPC  H15B 7086   1.645   4.633   7.369 -1.6244 -1.4108  0.7626
   78SLPC  H15C 7087   1.620   4.808   7.366  1.4908 -0.5959  0.1034
   78SLPC   C12 7088   1.658   4.716   7.112  0.8118  0.3962 -0.5342
   78SLPC  H12A 7089   1.709   4.808   7.138  0.7207  0.9665 -2.2321
   78SLPC  H12B 7090   1.624   4.735   7.011 -0.1879  2.0191  0.0690
   78SLPC   C11 7091   1.765   4.603   7.108  0.9642 -0.1794 -0.3250
   78SLPC  H11A 7092   1.837   4.610   7.025  1.0858 -0.0717 -0.2109
   78SLPC  H11B 7093   1.705   4.512   7.084 -0.0471  0.5439 -0.5821
   78SLPC     P 7094   1.994   4.623   7.247  0.2222  0.1436  0.2647
   78SLPC   O13 7095   2.006   4.770   7.253 -0.0143  0.5882  0.6627
   78SLPC   O14 7096   2.052   4.544   7.360  0.2025 -0.2824 -0.1911
   78SLPC   O12 7097   1.837   4.599   7.234  0.3341 -1.0446 -0.0277
   78SLPC   O11 7098   2.052   4.563   7.109  1.1030  0.2060 -0.1454
   78SLPC    C1 7099   2.140   4.629   7.014  0.7524  0.2359  0.2574
   78SLPC    HA 7100   2.090   4.720   6.974  0.4792 -0.3268 -0.7224
   78SLPC    HB 7101   2.229   4.653   7.075  0.4346 -3.4148  2.4983
   78SLPC    C2 7102   2.186   4.535   6.895  0.2399 -0.3076  0.1528
   78SLPC    HS 7103   2.256   4.585   6.825 -0.3340 -1.0343 -0.9576
   78SLPC   O21 7104   2.076   4.485   6.821  0.5458 -0.5723  0.4552
   78SLPC   C21 7105   2.016   4.575   6.733 -0.2183  0.2241 -0.1119
   78SLPC   O22 7106   2.047   4.691   6.723 -0.0043 -0.3545 -0.6321
   78SLPC   C22 7107   1.910   4.508   6.654 -0.2159 -0.2309  0.2439
   78SLPC   H2R 7108   1.959   4.421   6.606  0.8804  0.4115  0.1584
   78SLPC   H2S 7109   1.830   4.469   6.720  0.1042 -1.6707 -0.1843
   78SLPC    C3 7110   2.267   4.415   6.945 -0.2594 -0.1242 -0.5394
   78SLPC    HX 7111   2.198   4.338   6.987 -0.9605 -0.2170 -1.8123
   78SLPC    HY 7112   2.337   4.442   7.027 -1.5959  0.1232  0.5523
   78SLPC   O31 7113   2.329   4.337   6.838  0.9351  0.0451 -0.1257
   78SLPC   C31 7114   2.459   4.351   6.826 -0.2787 -0.0875  0.7791
   78SLPC   O32 7115   2.528   4.437   6.885 -0.5308  0.3876 -0.2128
   78SLPC   C32 7116   2.520   4.253   6.725 -0.7381 -0.4594 -0.0800
   78SLPC   H2X 7117   2.590   4.194   6.788  1.3696  3.1750  1.2748
   78SLPC   H2Y 7118   2.589   4.312   6.660  0.2866  0.9800  2.1781
   78SLPC   C23 7119   1.846   4.601   6.551 -1.0715 -0.0683 -0.2319
   78SLPC   H3R 7120   1.926   4.670   6.516 -0.1242 -1.5618 -1.1406
   78SLPC   H3S 7121   1.765   4.670   6.582 -1.2147 -0.3384 -0.0055
   78SLPC   C24 7122   1.790   4.536   6.424  0.1630 -0.4041  0.1198
   78SLPC   H4R 7123   1.681   4.516   6.437 -0.0451  1.6559  2.1608
   78SLPC   H4S 7124   1.842   4.439   6.410  0.8039 -0.2091  1.0080
   78SLPC   C25 7125   1.805   4.617   6.290  0.6213  0.8401 -0.0224
   78SLPC   H5R 7126   1.911   4.646   6.273  0.6456  0.5859 -0.3164
   78SLPC   H5S 7127   1.735   4.703   6.298  0.5181  1.1921 -3.2904
   78SLPC   C26 7128   1.768   4.528   6.176 -0.7050  0.0666  0.8450
   78SLPC   H6R 7129   1.663   4.495   6.184 -0.5061 -1.1494 -1.0005
   78SLPC   H6S 7130   1.836   4.440   6.164  0.3533  0.4724  3.2310
   78SLPC   C27 7131   1.787   4.600   6.040  0.7777  0.3562 -0.1867
   78SLPC   H7R 7132   1.896   4.609   6.022  0.9419 -0.3550  0.3872
   78SLPC   H7S 7133   1.742   4.701   6.044  0.2215  0.1690 -1.2478
   78SLPC   C28 7134   1.718   4.534   5.917 -0.1514  0.2495 -0.0278
   78SLPC   H8R 7135   1.754   4.582   5.823  1.4157 -1.4531 -0.3580
   78SLPC   H8S 7136   1.609   4.553   5.915 -0.1924 -0.0314 -0.8376
   78SLPC   C29 7137   1.737   4.383   5.912 -0.3090 -0.1770  0.1526
   78SLPC   H9R 7138   1.701   4.326   5.999 -1.0504  1.0504  0.6668
   78SLPC  C210 7139   1.784   4.310   5.813  0.2401 -0.3782  0.0493
   78SLPC  H10R 7140   1.787   4.201   5.830 -0.7809 -0.8908 -2.5686
   78SLPC  C211 7141   1.830   4.350   5.674  0.1977 -0.0107  0.3639
   78SLPC  H11R 7142   1.900   4.275   5.632  0.0677  0.4315 -0.6803
   78SLPC  H11S 7143   1.892   4.441   5.692  1.4303 -0.7603 -0.0065
   78SLPC  C212 7144   1.717   4.374   5.573  0.2520 -0.4750  0.4192
   78SLPC  H12R 7145   1.623   4.327   5.604 -1.3939  1.1490 -1.7812
   78SLPC  C213 7146   1.725   4.444   5.464 -0.7490 -1.0582  0.2958
   78SLPC  H13R 7147   1.647   4.462   5.389 -0.2697  2.2309  0.4507
   78SLPC  C214 7148   1.858   4.520   5.424  0.0298 -0.1950  0.4731
   78SLPC  H14R 7149   1.937   4.476   5.489 -0.7147 -1.2392  0.7083
   78SLPC  H14S 7150   1.846   4.630   5.431  2.2959  0.3423 -2.1877
   78SLPC  C215 7151   1.886   4.501   5.272  0.5048 -0.3230 -0.1643
   78SLPC  H15R 7152   1.865   4.399   5.234  2.3987 -0.1513 -1.8158
   78SLPC  H15S 7153   1.992   4.497   5.238  0.0017 -2.4606 -1.7094
   78SLPC  C216 7154   1.813   4.603   5.193 -0.2544  0.1550  0.2115
   78SLPC  H16R 7155   1.812   4.701   5.245 -2.8694 -1.1004  2.8034
   78SLPC  H16S 7156   1.704   4.583   5.201  0.0312 -0.9935  1.7634
   78SLPC  C217 7157   1.868   4.633   5.048 -0.5609  0.3337  0.1413
   78SLPC  H17R 7158   1.881   4.542   4.986  0.7293  0.7600 -0.2477
   78SLPC  H17S 7159   1.964   4.689   5.052 -0.1350 -0.4193  0.7153
   78SLPC  C218 7160   1.785   4.727   4.959  0.3494 -0.2851  0.7103
   78SLPC  H18R 7161   1.831   4.741   4.859  1.1921  1.1885  1.2838
   78SLPC  H18S 7162   1.772   4.824   5.011  0.6111  0.9085 -1.3465
   78SLPC  H18T 7163   1.685   4.678   4.955  0.0902 -0.0663  3.1226
   78SLPC   C33 7164   2.421   4.159   6.646  0.4513  0.0982  0.1959
   78SLPC   H3X 7165   2.339   4.219   6.603  2.0655  1.8693 -0.5903
   78SLPC   H3Y 7166   2.381   4.078   6.710 -0.7224 -0.3314 -1.0359
   78SLPC   C34 7167   2.487   4.087   6.526 -0.2391 -0.1193  0.0832
   78SLPC   H4X 7168   2.426   3.997   6.500 -0.2733 -0.1225  0.1724
   78SLPC   H4Y 7169   2.586   4.045   6.552 -0.3134 -1.0938 -1.1174
   78SLPC   C35 7170   2.520   4.183   6.413 -1.2602 -0.1671  0.3009
   78SLPC   H5X 7171   2.615   4.239   6.421 -0.8349 -0.9564  0.8746
   78SLPC   H5Y 7172   2.437   4.257   6.405 -0.4340  0.7368 -0.1052
   78SLPC   C36 7173   2.537   4.092   6.293  1.0212 -0.2877  0.6974
   78SLPC   H6X 7174   2.436   4.046   6.287  1.2624 -0.5976 -2.2267
   78SLPC   H6Y 7175   2.612   4.010   6.296  0.7809 -0.6137 -1.1667
   78SLPC   C37 7176   2.551   4.169   6.156 -0.0606  0.1304  0.0240
   78SLPC   H7X 7177   2.641   4.233   6.151  0.4186 -0.6243 -3.1281
   78SLPC   H7Y 7178   2.463   4.228   6.123  1.1063  1.7103 -0.3894
   78SLPC   C38 7179   2.568   4.078   6.032  0.3209 -0.6750  0.4989
   78SLPC   H8X 7180   2.492   3.997   6.032  0.9855 -1.3203 -0.2457
   78SLPC   H8Y 7181   2.665   4.027   6.050  1.6150  1.5881  0.2183
   78SLPC   C39 7182   2.563   4.143   5.893  0.2392  0.3063 -0.3060
   78SLPC   H9X 7183   2.657   4.199   5.874 -0.7373  2.0611 -0.2428
   78SLPC   H9Y 7184   2.484   4.221   5.885 -1.0100 -0.3918  3.4598
   78SLPC  C310 7185   2.527   4.038   5.776 -0.1908  0.0149 -0.2953
   78SLPC  H10X 7186   2.431   3.987   5.795  1.3401 -2.7156  0.5895
   78SLPC  H10Y 7187   2.612   3.967   5.780 -0.4570 -0.2370  1.2672
   78SLPC  C311 7188   2.522   4.098   5.635  0.3033  0.2317  0.8399
   78SLPC  H11X 7189   2.619   4.150   5.622  2.4129 -3.5050  0.1498
   78SLPC  H11Y 7190   2.431   4.162   5.628 -1.2686 -1.8821  0.8725
   78SLPC  C312 7191   2.510   3.991   5.524 -0.5544  0.3176 -1.1673
   78SLPC  H12X 7192   2.437   3.909   5.544 -0.5145  0.1708 -1.6031
   78SLPC  H12Y 7193   2.608   3.939   5.530 -0.1915  1.1737  1.3387
   78SLPC  C313 7194   2.483   4.049   5.391 -0.8260 -0.2164  1.1095
   78SLPC  H13X 7195   2.385   4.100   5.386 -0.2173  0.9271  0.1545
   78SLPC  H13Y 7196   2.477   3.960   5.325  1.5471  0.1117  0.3286
   78SLPC  C314 7197   2.593   4.147   5.327 -0.2094  0.6141 -0.6953
   78SLPC  H14X 7198   2.590   4.242   5.385  1.0673  1.7492 -2.4203
   78SLPC  H14Y 7199   2.556   4.172   5.226 -0.9555  1.3002 -0.2680
   78SLPC  C315 7200   2.736   4.091   5.315 -0.1927  0.1495  0.4161
   78SLPC  H15X 7201   2.788   4.056   5.406 -2.0117 -1.3251  0.9491
   78SLPC  H15Y 7202   2.804   4.173   5.283  0.4396  0.0180  1.3803
   78SLPC  C316 7203   2.752   3.969   5.219 -0.1694  0.1862  0.4115
   78SLPC  H16X 7204   2.840   3.957   5.152 -0.3309 -0.7978  0.3526
   78SLPC  H16Y 7205   2.669   3.963   5.145 -0.1037 -2.9272  0.4524
   78SLPC  C317 7206   2.754   3.832   5.291  0.3814 -0.2739 -0.0113
   78SLPC  H17X 7207   2.653   3.823   5.336  0.3391 -2.8950 -0.4557
   78SLPC  H17Y 7208   2.832   3.833   5.371 -0.3557 -3.6541  0.8924
   78SLPC  C318 7209   2.786   3.722   5.200  0.6505  0.1690 -0.3365
   78SLPC  H18X 7210   2.885   3.726   5.150  1.8192 -0.3103  1.8352
   78SLPC  H18Y 7211   2.712   3.722   5.117 -0.7996  1.3715  0.8961
   78SLPC  H18Z 7212   2.785   3.626   5.255 -0.4998  1.0942  1.3255
   79SLPC     N 7213   0.410   6.472   7.228  0.1888  0.1442  0.4979
   79SLPC   C13 7214   0.421   6.442   7.370  0.4137 -0.3399 -0.9253
   79SLPC  H13A 7215   0.324   6.420   7.412  0.1790  0.1129 -1.2217
   79SLPC  H13B 7216   0.488   6.358   7.385  0.3317 -0.5985 -1.9303
   79SLPC  H13C 7217   0.458   6.532   7.418  2.3327 -1.1279 -0.8205
   79SLPC   C14 7218   0.311   6.374   7.170 -0.5809  0.1293 -0.4673
   79SLPC  H14A 7219   0.309   6.362   7.063 -1.1880 -2.8398 -0.2042
   79SLPC  H14B 7220   0.318   6.273   7.207  0.0125  0.2427 -0.2616
   79SLPC  H14C 7221   0.211   6.404   7.198 -0.1054  1.1134  0.2436
   79SLPC   C15 7222   0.546   6.448   7.159 -0.1610 -0.6563  0.6200
   79SLPC  H15A 7223   0.585   6.354   7.194  0.8590 -0.1359  0.9100
   79SLPC  H15B 7224   0.543   6.444   7.051 -0.3431 -0.0517  0.6032
   79SLPC  H15C 7225   0.615   6.518   7.203 -0.6308 -1.0257  2.0058
   79SLPC   C12 7226   0.370   6.622   7.209  0.0605  0.0692  0.1132
   79SLPC  H12A 7227   0.266   6.633   7.237 -0.7958 -0.4167 -2.6146
   79SLPC  H12B 7228   0.364   6.652   7.106  1.4862 -2.1748 -0.6847
   79SLPC   C11 7229   0.455   6.729   7.281  0.0392  0.2039 -0.1717
   79SLPC  H11A 7230   0.432   6.831   7.244  0.7987 -0.3916 -2.4594
   79SLPC  H11B 7231   0.559   6.709   7.249  1.1050  2.6351  1.4683
   79SLPC     P 7232   0.528   6.812   7.526  0.3702  0.2332  0.2923
   79SLPC   O13 7233   0.492   6.955   7.517  0.1877 -0.3208 -0.5788
   79SLPC   O14 7234   0.526   6.737   7.651 -0.0461 -0.3023 -0.1192
   79SLPC   O12 7235   0.441   6.729   7.421  0.3158 -0.0063 -1.0400
   79SLPC   O11 7236   0.676   6.791   7.466 -0.2467  0.0005 -0.6715
   79SLPC    C1 7237   0.781   6.896   7.472  0.5043  0.3986 -0.0523
   79SLPC    HA 7238   0.784   6.937   7.575  0.0150  0.4775 -0.0688
   79SLPC    HB 7239   0.880   6.852   7.447  0.3544 -0.1901  0.3683
   79SLPC    C2 7240   0.758   7.003   7.361  0.4765 -0.1599  0.3641
   79SLPC    HS 7241   0.664   7.055   7.387  0.6978 -0.3768  1.6417
   79SLPC   O21 7242   0.747   6.935   7.231 -0.3378  0.9565 -0.1517
   79SLPC   C21 7243   0.649   6.967   7.153 -0.0734 -0.0325  0.1439
   79SLPC   O22 7244   0.570   7.057   7.176  0.5638 -0.0752 -0.5105
   79SLPC   C22 7245   0.644   6.873   7.040  0.1697 -0.5598  0.7345
   79SLPC   H2R 7246   0.734   6.895   6.979 -1.5528 -0.7552 -2.0270
   79SLPC   H2S 7247   0.644   6.767   7.075  1.0501 -1.1385 -0.8788
   79SLPC    C3 7248   0.874   7.103   7.366  0.0606 -0.5032  0.5697
   79SLPC    HX 7249   0.966   7.058   7.324  1.2343  0.0271  2.4291
   79SLPC    HY 7250   0.912   7.136   7.465  1.7449  3.4705 -1.1725
   79SLPC   O31 7251   0.851   7.217   7.278 -0.2358 -0.3986  0.3349
   79SLPC   C31 7252   0.770   7.307   7.339  0.0332  0.5091 -0.2768
   79SLPC   O32 7253   0.715   7.292   7.447  0.2681 -0.1073  0.3678
   79SLPC   C32 7254   0.751   7.433   7.250  0.1849  0.3801 -0.1853
   79SLPC   H2X 7255   0.850   7.475   7.221  0.0427 -0.1641 -1.5143
   79SLPC   H2Y 7256   0.694   7.503   7.314 -0.5525 -0.7821  0.4543
   79SLPC   C23 7257   0.524   6.895   6.948  0.0562  0.0097  0.2533
   79SLPC   H3R 7258   0.528   6.994   6.898 -2.4758  1.2500  2.2687
   79SLPC   H3S 7259   0.436   6.918   7.012  1.0947  0.2153  1.6862
   79SLPC   C24 7260   0.497   6.778   6.857  0.3072  0.4160 -0.2428
   79SLPC   H4R 7261   0.401   6.788   6.801  0.6902 -1.7876 -1.4260
   79SLPC   H4S 7262   0.478   6.688   6.920  3.8592 -0.5570 -0.3655
   79SLPC   C25 7263   0.616   6.738   6.760  0.3748 -0.0544  0.4963
   79SLPC   H5R 7264   0.595   6.638   6.718  0.3543 -0.3681  1.2484
   79SLPC   H5S 7265   0.714   6.739   6.813  0.9968 -1.1260 -0.5800
   79SLPC   C26 7266   0.629   6.838   6.640 -0.6681 -0.4368  0.2397
   79SLPC   H6R 7267   0.653   6.933   6.692 -0.1790 -0.6379  0.3831
   79SLPC   H6S 7268   0.529   6.840   6.590  0.6681 -2.4626 -2.7890
   79SLPC   C27 7269   0.736   6.795   6.536 -0.2016  0.0158  0.9151
   79SLPC   H7R 7270   0.746   6.685   6.532 -2.0704 -0.1414 -1.2251
   79SLPC   H7S 7271   0.836   6.833   6.569  1.2329 -2.4093 -0.3545
   79SLPC   C28 7272   0.710   6.841   6.395  0.5056 -0.1326  0.0708
   79SLPC   H8R 7273   0.801   6.827   6.334 -0.4839 -0.0084 -1.4800
   79SLPC   H8S 7274   0.686   6.949   6.403  1.2584  0.0456 -0.0259
   79SLPC   C29 7275   0.591   6.780   6.330 -0.0574  0.1501  0.3257
   79SLPC   H9R 7276   0.546   6.698   6.388  2.0781 -1.8351 -0.6406
   79SLPC  C210 7277   0.557   6.804   6.205  0.3213 -0.7574 -0.2957
   79SLPC  H10R 7278   0.468   6.756   6.161 -0.9550  0.4208  0.8837
   79SLPC  C211 7279   0.612   6.909   6.113 -0.8110  0.5123  0.2072
   79SLPC  H11R 7280   0.670   6.988   6.166  2.0757  0.0703 -2.0219
   79SLPC  H11S 7281   0.532   6.960   6.054 -2.0861 -1.3437  0.2453
   79SLPC  C212 7282   0.716   6.851   6.015  0.8444  0.0932 -0.0952
   79SLPC  H12R 7283   0.791   6.791   6.069  2.7739  1.4495 -1.1729
   79SLPC  C213 7284   0.711   6.858   5.879 -0.4534  0.6986 -0.1198
   79SLPC  H13R 7285   0.790   6.806   5.822 -0.4891 -1.0942  1.3731
   79SLPC  C214 7286   0.598   6.928   5.799  0.6502  0.3441  0.5558
   79SLPC  H14R 7287   0.635   6.948   5.696  3.0243  0.2895  1.3464
   79SLPC  H14S 7288   0.580   7.033   5.832 -3.4397 -0.2595  0.8125
   79SLPC  C215 7289   0.469   6.844   5.779 -0.3762 -1.3835 -0.1432
   79SLPC  H15R 7290   0.414   6.838   5.875  1.7480  1.2584  1.3884
   79SLPC  H15S 7291   0.514   6.746   5.755  4.2653 -0.4517  3.3724
   79SLPC  C216 7292   0.383   6.897   5.666 -0.3281  0.1655  0.6087
   79SLPC  H16R 7293   0.381   7.007   5.676 -0.5635  0.2685 -0.4447
   79SLPC  H16S 7294   0.278   6.860   5.673 -0.2889 -0.4768 -1.6070
   79SLPC  C217 7295   0.439   6.859   5.526 -0.1766 -0.0772  0.3938
   79SLPC  H17R 7296   0.549   6.842   5.526 -0.2447 -0.6431  2.0476
   79SLPC  H17S 7297   0.430   6.942   5.453 -0.8943  1.4570  2.1696
   79SLPC  C218 7298   0.368   6.736   5.457  0.3533 -0.9269 -0.2433
   79SLPC  H18R 7299   0.388   6.732   5.348  1.5632 -0.2254 -0.0661
   79SLPC  H18S 7300   0.257   6.738   5.464  0.4107  1.1417  0.6618
   79SLPC  H18T 7301   0.408   6.641   5.499  1.4358 -1.0734 -1.5163
   79SLPC   C33 7302   0.669   7.403   7.123 -0.0771  0.0324 -0.2448
   79SLPC   H3X 7303   0.616   7.493   7.085 -0.3974  0.5366  1.2986
   79SLPC   H3Y 7304   0.581   7.341   7.153 -1.1595  1.6435  0.0221
   79SLPC   C34 7305   0.745   7.349   7.006  0.2115  0.2007  0.1732
   79SLPC   H4X 7306   0.787   7.247   7.016 -0.6193  0.0199  2.3018
   79SLPC   H4Y 7307   0.830   7.417   6.981 -0.1307  0.8882  0.8420
   79SLPC   C35 7308   0.644   7.344   6.882  0.4176 -0.5904  0.1111
   79SLPC   H5X 7309   0.603   7.446   6.864  0.9666 -0.6033 -1.3613
   79SLPC   H5Y 7310   0.561   7.272   6.897  2.6206 -2.8505  2.3210
   79SLPC   C36 7311   0.712   7.293   6.748 -0.0768 -0.0492  0.6624
   79SLPC   H6X 7312   0.711   7.183   6.730  1.1814  0.2532 -1.7135
   79SLPC   H6Y 7313   0.814   7.336   6.755 -0.1677 -0.0545  2.2422
   79SLPC   C37 7314   0.641   7.343   6.622  0.4558 -0.8949 -0.7208
   79SLPC   H7X 7315   0.640   7.454   6.627  0.1547 -0.8676 -1.2899
   79SLPC   H7Y 7316   0.537   7.302   6.623 -0.6938  1.8131  0.7479
   79SLPC   C38 7317   0.716   7.308   6.491  0.0441  0.1329  0.0357
   79SLPC   H8X 7318   0.683   7.205   6.465 -1.5232  0.5708  0.1785
   79SLPC   H8Y 7319   0.824   7.326   6.512 -0.6382  2.6595  1.9446
   79SLPC   C39 7320   0.673   7.387   6.366 -0.2705 -0.0636 -0.2428
   79SLPC   H9X 7321   0.719   7.486   6.389 -1.5005  0.3825  0.3837
   79SLPC   H9Y 7322   0.562   7.389   6.368 -0.3090 -0.2827 -1.3685
   79SLPC  C310 7323   0.738   7.338   6.231  0.4408 -0.5370 -0.1939
   79SLPC  H10X 7324   0.709   7.231   6.236  0.0425 -0.5274 -1.9289
   79SLPC  H10Y 7325   0.847   7.361   6.229  0.6493 -1.2226  1.4066
   79SLPC  C311 7326   0.668   7.386   6.104  0.0324  0.2860 -0.0368
   79SLPC  H11X 7327   0.669   7.497   6.103 -0.3624  0.2927  0.4074
   79SLPC  H11Y 7328   0.560   7.359   6.107  0.2214 -0.5198  3.3476
   79SLPC  C312 7329   0.729   7.316   5.977  0.0147 -0.3059  0.3706
   79SLPC  H12X 7330   0.728   7.206   5.985  0.0834 -0.6312 -2.7694
   79SLPC  H12Y 7331   0.834   7.354   5.974  1.1191 -2.7671  3.2949
   79SLPC  C313 7332   0.658   7.369   5.850  0.0165 -0.2564  0.0598
   79SLPC  H13X 7333   0.657   7.480   5.859 -2.2538 -0.1929 -0.3616
   79SLPC  H13Y 7334   0.554   7.333   5.867 -0.0703  0.8162  2.0684
   79SLPC  C314 7335   0.720   7.321   5.727 -0.2836 -0.0923  0.5176
   79SLPC  H14X 7336   0.695   7.213   5.727 -0.5942 -0.0258  0.0930
   79SLPC  H14Y 7337   0.829   7.337   5.715  0.0499 -1.6883  1.1825
   79SLPC  C315 7338   0.645   7.382   5.609  0.4458 -0.1710 -0.3701
   79SLPC  H15X 7339   0.687   7.483   5.593  2.8786 -1.0036  0.3713
   79SLPC  H15Y 7340   0.538   7.381   5.638  0.6096  0.4262  0.2706
   79SLPC  C316 7341   0.657   7.308   5.473  0.0977 -0.5139 -0.3609
   79SLPC  H16X 7342   0.580   7.345   5.402 -1.2934  0.4786  1.5830
   79SLPC  H16Y 7343   0.630   7.202   5.496 -1.6479 -0.0375 -0.1015
   79SLPC  C317 7344   0.794   7.311   5.401  0.6713  0.8597 -0.4471
   79SLPC  H17X 7345   0.801   7.221   5.336 -0.0810  0.6163 -0.1994
   79SLPC  H17Y 7346   0.870   7.306   5.482  1.0262  0.9597 -0.7640
   79SLPC  C318 7347   0.822   7.435   5.319  0.5373 -0.4967 -0.6608
   79SLPC  H18X 7348   0.774   7.523   5.366 -1.1572 -0.4954 -2.2537
   79SLPC  H18Y 7349   0.756   7.439   5.230 -1.7010  0.8931  0.9505
   79SLPC  H18Z 7350   0.929   7.457   5.301  1.1413 -2.9815 -0.5246
   80SLPC     N 7351   6.412   3.208   7.490  0.2215 -0.3047  0.1178
   80SLPC   C13 7352   6.407   3.330   7.577 -0.1988 -0.3219 -0.6599
   80SLPC  H13A 7353   6.395   3.304   7.681 -0.6510  0.0574 -0.6131
   80SLPC  H13B 7354   6.498   3.386   7.560 -1.5812  1.1180 -4.2842
   80SLPC  H13C 7355   6.330   3.402   7.552  0.4041  0.5627 -0.0476
   80SLPC   C14 7356   6.527   3.120   7.522  0.3470  0.0491 -0.1166
   80SLPC  H14A 7357   6.530   3.031   7.460  1.0589 -0.6436  0.8732
   80SLPC  H14B 7358   6.621   3.167   7.496 -1.5258  2.0505 -4.0648
   80SLPC  H14C 7359   6.535   3.081   7.623 -1.4631 -0.3240 -0.0923
   80SLPC   C15 7360   6.424   3.257   7.354  0.2227  0.4238  0.2380
   80SLPC  H15A 7361   6.460   3.177   7.292 -1.3961 -0.3739  0.2726
   80SLPC  H15B 7362   6.328   3.289   7.317 -0.0694 -2.5308 -1.8786
   80SLPC  H15C 7363   6.501   3.333   7.357  2.4332 -1.5962 -1.5855
   80SLPC   C12 7364   6.282   3.133   7.497 -0.3690  0.3637 -0.4053
   80SLPC  H12A 7365   6.196   3.198   7.499 -2.8439 -2.6535  0.0064
   80SLPC  H12B 7366   6.276   3.086   7.594  3.0620 -0.9942 -0.6968
   80SLPC   C11 7367   6.239   3.021   7.397 -0.5336  0.1616 -0.0502
   80SLPC  H11A 7368   6.156   2.955   7.430  0.7002 -1.7001 -0.5069
   80SLPC  H11B 7369   6.327   2.954   7.408 -0.1869  0.6234  0.0121
   80SLPC     P 7370   6.099   3.113   7.199  0.0125 -0.1167 -0.2671
   80SLPC   O13 7371   6.012   2.991   7.177  0.3029  0.3761  0.5636
   80SLPC   O14 7372   6.045   3.217   7.290 -0.1345 -0.1068  0.1871
   80SLPC   O12 7373   6.232   3.058   7.255 -0.5081  0.1707  0.2316
   80SLPC   O11 7374   6.138   3.172   7.066 -0.2260  0.4401 -0.4717
   80SLPC    C1 7375   6.269   3.178   7.016 -0.4340 -0.0381  0.1742
   80SLPC    HA 7376   6.312   3.276   7.045  1.5562 -0.5267 -0.9634
   80SLPC    HB 7377   6.334   3.098   7.058 -0.2054  0.3601  0.5815
   80SLPC    C2 7378   6.273   3.168   6.858 -0.3477  0.1639 -0.5489
   80SLPC    HS 7379   6.369   3.114   6.843 -1.4900 -2.5548  1.1284
   80SLPC   O21 7380   6.253   3.297   6.795 -0.2001  0.2801 -0.0936
   80SLPC   C21 7381   6.358   3.377   6.793  0.3922  0.4277  0.3405
   80SLPC   O22 7382   6.469   3.356   6.844 -0.2895  0.6141 -0.5312
   80SLPC   C22 7383   6.337   3.494   6.694 -0.6612  0.2149 -0.6050
   80SLPC   H2R 7384   6.305   3.574   6.765  1.9890  1.0974 -0.2796
   80SLPC   H2S 7385   6.432   3.538   6.657  1.1847 -2.4454  0.7073
   80SLPC    C3 7386   6.162   3.067   6.816 -0.2811 -0.1676 -0.3826
   80SLPC    HX 7387   6.072   3.089   6.877  1.4263 -1.1501  2.7245
   80SLPC    HY 7388   6.198   2.970   6.856  0.6326  0.4051  0.1937
   80SLPC   O31 7389   6.145   3.051   6.674 -0.0125 -0.2016  0.0072
   80SLPC   C31 7390   6.246   2.984   6.610  0.6352 -0.6871  0.4860
   80SLPC   O32 7391   6.341   2.935   6.660  0.0434 -0.0147  0.2813
   80SLPC   C32 7392   6.199   2.966   6.464 -0.3345  0.1740  0.2107
   80SLPC   H2X 7393   6.219   3.063   6.414  2.2720 -1.0213 -1.2629
   80SLPC   H2Y 7394   6.089   2.950   6.459 -0.4077  0.0244  1.9294
   80SLPC   C23 7395   6.235   3.479   6.576 -0.4704 -0.0786  0.0491
   80SLPC   H3R 7396   6.199   3.582   6.552 -0.0600  0.1467  0.4042
   80SLPC   H3S 7397   6.148   3.416   6.602 -0.2334 -0.1416  0.6895
   80SLPC   C24 7398   6.308   3.423   6.457  0.4581  0.1625  0.5474
   80SLPC   H4R 7399   6.338   3.318   6.479  1.8992  0.6603  1.0373
   80SLPC   H4S 7400   6.393   3.486   6.425  1.5576 -2.0795 -1.2510
   80SLPC   C25 7401   6.215   3.410   6.338  0.2759  0.6288  0.0946
   80SLPC   H5R 7402   6.167   3.510   6.326  2.1864  1.5511 -0.1311
   80SLPC   H5S 7403   6.137   3.335   6.364  2.6129 -2.4702 -1.1858
   80SLPC   C26 7404   6.274   3.394   6.201 -0.5360  0.3077  0.3362
   80SLPC   H6R 7405   6.322   3.294   6.187 -0.1756  0.4167  0.7644
   80SLPC   H6S 7406   6.349   3.474   6.185  1.1848 -1.1731  0.7268
   80SLPC   C27 7407   6.162   3.389   6.099 -0.1379  0.2776 -0.3201
   80SLPC   H7R 7408   6.115   3.490   6.106  1.4963  0.9830  4.0117
   80SLPC   H7S 7409   6.092   3.309   6.130  0.4873  0.3761  1.4530
   80SLPC   C28 7410   6.210   3.355   5.958 -0.4048 -0.4802 -0.1756
   80SLPC   H8R 7411   6.116   3.321   5.909 -0.7495 -1.3538  1.0236
   80SLPC   H8S 7412   6.288   3.276   5.966  3.0236  2.7123  0.1498
   80SLPC   C29 7413   6.267   3.481   5.899 -0.0806  0.3723 -0.6427
   80SLPC   H9R 7414   6.314   3.550   5.970  0.5297 -0.5236 -0.1553
   80SLPC  C210 7415   6.244   3.530   5.771 -0.8841  0.1926 -0.0460
   80SLPC  H10R 7416   6.302   3.623   5.761 -0.1680 -0.1350  0.9397
   80SLPC  C211 7417   6.187   3.458   5.652  0.2571 -0.7547  0.1608
   80SLPC  H11R 7418   6.125   3.529   5.593 -0.1544 -2.4834 -1.6051
   80SLPC  H11S 7419   6.129   3.372   5.691 -0.7246  0.0395  0.5028
   80SLPC  C212 7420   6.314   3.422   5.576  0.6186  0.2738  0.3514
   80SLPC  H12R 7421   6.373   3.335   5.610  0.1013  0.0297  0.6309
   80SLPC  C213 7422   6.368   3.479   5.464  0.7103 -1.0365  0.1705
   80SLPC  H13R 7423   6.463   3.434   5.430  0.2247 -3.0461  1.3639
   80SLPC  C214 7424   6.305   3.596   5.389 -0.5435 -0.0994 -0.0293
   80SLPC  H14R 7425   6.386   3.651   5.336 -1.5978  1.3421 -0.2065
   80SLPC  H14S 7426   6.246   3.664   5.454  0.3733 -0.3789  1.1344
   80SLPC  C215 7427   6.225   3.537   5.272  1.1826  0.4934  0.0956
   80SLPC  H15R 7428   6.169   3.447   5.305  0.8156  1.1409  1.2870
   80SLPC  H15S 7429   6.294   3.509   5.190  1.3389 -0.3786  0.5233
   80SLPC  C216 7430   6.130   3.631   5.209  0.0697 -0.3049 -0.1489
   80SLPC  H16R 7431   6.185   3.712   5.155 -1.7755  0.5349 -0.8621
   80SLPC  H16S 7432   6.071   3.680   5.290 -0.3338  0.4553 -0.8830
   80SLPC  C217 7433   6.046   3.569   5.099 -0.7127  0.0607  0.0852
   80SLPC  H17R 7434   5.986   3.488   5.146  0.3306  0.3756  2.1091
   80SLPC  H17S 7435   6.111   3.499   5.042  0.9555 -0.6170  2.6292
   80SLPC  C218 7436   5.965   3.662   5.008  0.0146  1.0121  0.1023
   80SLPC  H18R 7437   5.888   3.616   4.943 -0.1045 -1.0021  1.5595
   80SLPC  H18S 7438   6.029   3.715   4.934  1.3150 -0.6953 -0.0486
   80SLPC  H18T 7439   5.908   3.734   5.071 -0.8858 -0.3187  0.8703
   80SLPC   C33 7440   6.267   2.845   6.394 -0.7426 -0.1806 -0.6199
   80SLPC   H3X 7441   6.271   2.754   6.458  0.2666 -0.2841 -0.8094
   80SLPC   H3Y 7442   6.376   2.859   6.379 -0.7038 -1.2557 -1.5271
   80SLPC   C34 7443   6.217   2.806   6.256 -0.2692 -0.6220 -0.5488
   80SLPC   H4X 7444   6.112   2.773   6.274 -0.2354 -0.4740 -0.0651
   80SLPC   H4Y 7445   6.287   2.729   6.216  1.8026 -0.2873  2.1107
   80SLPC   C35 7446   6.201   2.919   6.154 -0.2716  0.1672 -0.1936
   80SLPC   H5X 7447   6.297   2.976   6.149  0.5517 -1.0322  1.0740
   80SLPC   H5Y 7448   6.119   2.982   6.195 -0.8392 -0.9780  0.4728
   80SLPC   C36 7449   6.169   2.853   6.016 -0.3709  0.0750 -1.3880
   80SLPC   H6X 7450   6.066   2.811   6.023 -0.0664 -0.3620  3.1391
   80SLPC   H6Y 7451   6.248   2.775   6.012 -0.5216 -0.1078 -0.8302
   80SLPC   C37 7452   6.180   2.954   5.902 -0.6204 -0.3213  0.8827
   80SLPC   H7X 7453   6.283   2.995   5.902 -0.5305 -0.5473  1.0649
   80SLPC   H7Y 7454   6.103   3.034   5.904  0.7635  1.1084 -0.0939
   80SLPC   C38 7455   6.177   2.886   5.763 -0.2219  0.5502 -0.0278
   80SLPC   H8X 7456   6.073   2.859   5.736  0.4648 -2.7329  0.2717
   80SLPC   H8Y 7457   6.237   2.793   5.765 -0.5814  0.2386 -1.9000
   80SLPC   C39 7458   6.246   2.979   5.660 -0.1164  0.1231  0.8810
   80SLPC   H9X 7459   6.353   2.994   5.686  0.6619 -2.6516 -0.4315
   80SLPC   H9Y 7460   6.187   3.072   5.674 -1.2358 -0.3254 -0.6193
   80SLPC  C310 7461   6.244   2.920   5.515 -0.3701  0.7441 -0.1199
   80SLPC  H10X 7462   6.136   2.914   5.490 -0.3724 -0.5235  0.1600
   80SLPC  H10Y 7463   6.292   2.820   5.518 -0.0650  0.8960  0.2041
   80SLPC  C311 7464   6.317   3.006   5.404 -0.3708 -0.3064 -0.2395
   80SLPC  H11X 7465   6.362   2.940   5.327 -0.0788  2.2441 -2.3885
   80SLPC  H11Y 7466   6.401   3.059   5.455  0.2127 -1.3449 -0.1018
   80SLPC  C312 7467   6.234   3.111   5.333  0.3653  0.2791  0.2420
   80SLPC  H12X 7468   6.208   3.193   5.404 -2.0613 -0.4566  0.2894
   80SLPC  H12Y 7469   6.137   3.073   5.295  0.2854 -0.8561  1.5268
   80SLPC  C313 7470   6.315   3.181   5.215  0.0267  0.7077 -0.6611
   80SLPC  H13X 7471   6.402   3.222   5.269  0.5731  0.0777 -1.0438
   80SLPC  H13Y 7472   6.260   3.268   5.174  0.5634  1.1008 -0.5505
   80SLPC  C314 7473   6.381   3.088   5.112 -0.2177 -0.3741  0.3398
   80SLPC  H14X 7474   6.307   3.014   5.073 -0.0075 -2.1803  3.1294
   80SLPC  H14Y 7475   6.470   3.032   5.147  2.1463  0.1585 -4.0631
   80SLPC  C315 7476   6.444   3.148   4.985  0.4127 -0.6428  0.6884
   80SLPC  H15X 7477   6.514   3.230   5.016 -0.1922 -0.3407  1.3030
   80SLPC  H15Y 7478   6.375   3.211   4.925  0.7306 -0.9166  0.0269
   80SLPC  C316 7479   6.509   3.053   4.890 -0.5596 -0.0956 -0.2650
   80SLPC  H16X 7480   6.435   2.983   4.846 -1.4177  1.2410 -1.0122
   80SLPC  H16Y 7481   6.588   2.992   4.941  0.0322  0.4943 -0.4608
   80SLPC  C317 7482   6.573   3.118   4.768  0.4481  0.2204 -1.3766
   80SLPC  H17X 7483   6.647   3.189   4.810 -0.1190  0.7027 -1.1691
   80SLPC  H17Y 7484   6.501   3.180   4.710 -0.0547  2.0500  1.0253
   80SLPC  C318 7485   6.655   3.020   4.687 -0.1389  0.4604  1.0701
   80SLPC  H18X 7486   6.584   2.942   4.651 -0.5077  0.8581  0.9346
   80SLPC  H18Y 7487   6.730   2.978   4.758 -0.7275  1.0231  2.0453
   80SLPC  H18Z 7488   6.702   3.073   4.602 -2.7895 -0.1499 -0.9229
   81SLPC     N 7489   1.076   5.664   2.397 -0.2235 -0.0685 -0.1473
   81SLPC   C13 7490   1.207   5.660   2.317 -0.2941 -0.1713 -0.5655
   81SLPC  H13A 7491   1.198   5.714   2.224 -0.1959  0.6353 -0.1144
   81SLPC  H13B 7492   1.290   5.704   2.371 -0.7658  1.8685 -1.4277
   81SLPC  H13C 7493   1.238   5.559   2.295  0.4419  0.1052 -0.8271
   81SLPC   C14 7494   0.965   5.585   2.323  0.0820 -0.4255  0.1759
   81SLPC  H14A 7495   0.992   5.481   2.310  1.7377 -0.1000  0.6704
   81SLPC  H14B 7496   0.875   5.602   2.379 -0.2536  0.2485 -0.5517
   81SLPC  H14C 7497   0.947   5.632   2.227 -0.9095  0.9620  1.0027
   81SLPC   C15 7498   1.048   5.808   2.416  0.0166 -0.6165 -0.2142
   81SLPC  H15A 7499   0.951   5.825   2.459 -0.2844  1.9421 -1.7041
   81SLPC  H15B 7500   1.117   5.841   2.492  0.5579 -1.5000 -0.3037
   81SLPC  H15C 7501   1.059   5.870   2.328 -1.0639  0.0735  0.1119
   81SLPC   C12 7502   1.097   5.594   2.529 -0.8178  0.3942  0.4882
   81SLPC  H12A 7503   1.200   5.594   2.561  0.2434 -2.1802 -2.3511
   81SLPC  H12B 7504   1.095   5.486   2.521  2.7073 -0.0093  2.6137
   81SLPC   C11 7505   1.011   5.629   2.645  0.5445 -0.4325 -0.3472
   81SLPC  H11A 7506   1.013   5.738   2.668 -1.6361  0.0589 -2.0782
   81SLPC  H11B 7507   1.046   5.580   2.738  2.5884  3.0631  0.9326
   81SLPC     P 7508   0.817   5.459   2.634 -0.3348 -0.2896  0.2256
   81SLPC   O13 7509   0.672   5.466   2.628  0.3060 -0.0740  0.5265
   81SLPC   O14 7510   0.870   5.372   2.526 -0.0846  0.2063 -0.0665
   81SLPC   O12 7511   0.875   5.605   2.627 -0.0398 -0.2914 -0.0641
   81SLPC   O11 7512   0.857   5.407   2.775  0.7705 -0.1880  0.3152
   81SLPC    C1 7513   0.789   5.450   2.902 -0.1126 -0.1306  0.2229
   81SLPC    HA 7514   0.873   5.477   2.970  0.1753  1.0819 -0.5837
   81SLPC    HB 7515   0.729   5.542   2.885 -1.0023 -1.0203 -1.6930
   81SLPC    C2 7516   0.692   5.338   2.953  0.0200 -0.4577  0.0573
   81SLPC    HS 7517   0.589   5.378   2.944  1.3881  3.3365 -0.2569
   81SLPC   O21 7518   0.728   5.309   3.086  0.3038 -0.3977  0.3468
   81SLPC   C21 7519   0.681   5.390   3.173  0.0955  0.0578 -0.0814
   81SLPC   O22 7520   0.588   5.469   3.164  0.3445 -0.1680 -0.3176
   81SLPC   C22 7521   0.780   5.374   3.297  0.5725 -0.0223  0.5048
   81SLPC   H2R 7522   0.770   5.266   3.320 -3.3443  0.4564  1.6936
   81SLPC   H2S 7523   0.884   5.364   3.259  1.0105 -1.6947  2.0085
   81SLPC    C3 7524   0.694   5.206   2.866 -0.1093  1.1561 -0.3319
   81SLPC    HX 7525   0.801   5.191   2.841 -0.1900  0.7076 -0.4223
   81SLPC    HY 7526   0.642   5.202   2.768 -1.7041  0.1040  0.5105
   81SLPC   O31 7527   0.653   5.088   2.929  0.0923 -0.6602 -0.2357
   81SLPC   C31 7528   0.524   5.064   2.934  0.4639  0.0909 -0.2594
   81SLPC   O32 7529   0.444   5.113   2.863  0.3959  0.1380 -0.2740
   81SLPC   C32 7530   0.489   4.948   3.023 -0.4968 -0.2787 -0.2803
   81SLPC   H2X 7531   0.467   4.858   2.962 -2.3526 -1.8408  2.4584
   81SLPC   H2Y 7532   0.390   4.978   3.062 -0.4232  1.6246 -1.4123
   81SLPC   C23 7533   0.749   5.471   3.410 -0.0244 -0.2360 -0.8011
   81SLPC   H3R 7534   0.639   5.471   3.427 -0.1489 -0.8208 -1.5384
   81SLPC   H3S 7535   0.774   5.572   3.373 -3.2551  0.3698 -1.6812
   81SLPC   C24 7536   0.829   5.433   3.537  0.3083 -0.4922 -0.0820
   81SLPC   H4R 7537   0.931   5.457   3.502 -0.3828  0.9367 -1.2223
   81SLPC   H4S 7538   0.810   5.326   3.560 -0.7121 -0.4554 -0.7009
   81SLPC   C25 7539   0.803   5.526   3.654  0.2421  1.0203 -0.1223
   81SLPC   H5R 7540   0.696   5.519   3.682  0.3714  0.2561  0.2108
   81SLPC   H5S 7541   0.826   5.623   3.604  1.5425  0.2363 -1.1397
   81SLPC   C26 7542   0.885   5.490   3.786  0.6724  0.6780 -0.0003
   81SLPC   H6R 7543   0.995   5.498   3.772  0.4631  1.0268 -1.6404
   81SLPC   H6S 7544   0.868   5.384   3.815 -1.4933  0.3445 -2.1407
   81SLPC   C27 7545   0.850   5.579   3.903  0.0059  0.6843  0.3289
   81SLPC   H7R 7546   0.742   5.565   3.925 -0.0239  0.2034 -0.0956
   81SLPC   H7S 7547   0.857   5.681   3.860 -0.9931  0.4198 -0.5206
   81SLPC   C28 7548   0.944   5.552   4.020  0.1645 -0.2784  0.3044
   81SLPC   H8R 7549   1.043   5.578   3.978 -1.0475  1.9618 -1.3902
   81SLPC   H8S 7550   0.942   5.445   4.050 -0.3069  0.4199  3.0917
   81SLPC   C29 7551   0.909   5.638   4.142 -0.3115  0.0384 -0.2320
   81SLPC   H9R 7552   0.849   5.579   4.213 -0.9869 -1.0945 -1.6760
   81SLPC  C210 7553   0.963   5.764   4.166 -0.8841 -0.1248  0.0011
   81SLPC  H10R 7554   0.933   5.813   4.260 -0.0070 -1.9195  1.2695
   81SLPC  C211 7555   1.037   5.861   4.075  0.2702  0.2022  0.2364
   81SLPC  H11R 7556   1.127   5.818   4.027 -0.1107 -0.4331  0.0777
   81SLPC  H11S 7557   1.069   5.942   4.144 -2.5763 -0.1506  2.1581
   81SLPC  C212 7558   0.940   5.911   3.972  0.0758 -0.1544 -0.5254
   81SLPC  H12R 7559   0.839   5.941   4.005 -0.6107 -1.1270 -1.6515
   81SLPC  C213 7560   0.968   5.933   3.846 -0.5293 -0.4017  0.4648
   81SLPC  H13R 7561   0.892   5.965   3.774 -0.8237 -0.8808  0.5636
   81SLPC  C214 7562   1.109   5.920   3.780  1.0674 -0.1672 -0.5400
   81SLPC  H14R 7563   1.162   5.825   3.803  1.3731  0.1792  0.2365
   81SLPC  H14S 7564   1.181   5.996   3.819  1.9954 -1.3871  0.2353
   81SLPC  C215 7565   1.107   5.941   3.628 -0.5207 -0.0792  0.0899
   81SLPC  H15R 7566   1.216   5.951   3.607 -0.1989  2.0336  2.3776
   81SLPC  H15S 7567   1.056   6.038   3.610 -0.7626 -0.3410 -0.6757
   81SLPC  C216 7568   1.065   5.808   3.555  0.1550  0.4439  0.5041
   81SLPC  H16R 7569   0.955   5.798   3.565  0.3147  0.9286  3.6385
   81SLPC  H16S 7570   1.117   5.718   3.595 -0.2541 -0.4632 -0.9329
   81SLPC  C217 7571   1.085   5.814   3.395 -0.4013  0.1148 -0.0916
   81SLPC  H17R 7572   1.080   5.709   3.358 -1.1660  0.1891 -0.2101
   81SLPC  H17S 7573   1.192   5.839   3.378  0.1658 -1.0430  1.5629
   81SLPC  C218 7574   0.991   5.905   3.316  0.0964 -0.1152  0.0508
   81SLPC  H18R 7575   0.892   5.857   3.297 -0.3723  0.7412  0.2403
   81SLPC  H18S 7576   1.038   5.929   3.218  1.4760  1.2411  1.0018
   81SLPC  H18T 7577   0.979   5.998   3.376  2.7747  0.1480  0.2637
   81SLPC   C33 7578   0.596   4.912   3.129 -0.2872  0.1099  0.0068
   81SLPC   H3X 7579   0.620   5.002   3.189  0.5024 -0.9575  1.3342
   81SLPC   H3Y 7580   0.697   4.894   3.087 -0.7012 -1.4708 -0.3835
   81SLPC   C34 7581   0.560   4.801   3.224  0.0643  0.2772 -0.2674
   81SLPC   H4X 7582   0.607   4.703   3.203 -1.2639 -0.7764  1.3734
   81SLPC   H4Y 7583   0.451   4.796   3.247 -0.2314  0.4551 -1.5886
   81SLPC   C35 7584   0.613   4.837   3.368  0.3318  0.3214 -0.1760
   81SLPC   H5X 7585   0.579   4.938   3.401 -0.5333  0.4431 -1.3434
   81SLPC   H5Y 7586   0.724   4.829   3.364  0.2390 -1.5608  0.1249
   81SLPC   C36 7587   0.559   4.746   3.473  0.3884 -0.0249 -0.2542
   81SLPC   H6X 7588   0.593   4.641   3.458  1.1027  0.1605  0.0451
   81SLPC   H6Y 7589   0.448   4.742   3.474  0.3409  1.1105  0.2236
   81SLPC   C37 7590   0.606   4.793   3.611  0.1262  0.1215 -0.6512
   81SLPC   H7X 7591   0.582   4.901   3.610 -0.0257  0.1135  0.5224
   81SLPC   H7Y 7592   0.716   4.774   3.619 -0.0541 -0.6153  0.2064
   81SLPC   C38 7593   0.532   4.724   3.732  0.4795  0.7352 -0.2943
   81SLPC   H8X 7594   0.535   4.613   3.724  1.9945  0.6225  1.1409
   81SLPC   H8Y 7595   0.427   4.759   3.734  1.0218  2.5066 -1.0901
   81SLPC   C39 7596   0.606   4.738   3.867 -0.0141 -0.6238  0.0470
   81SLPC   H9X 7597   0.622   4.848   3.878  2.2976 -1.0134  1.0473
   81SLPC   H9Y 7598   0.706   4.696   3.844 -0.3631 -1.1272 -0.5974
   81SLPC  C310 7599   0.527   4.694   3.987  1.1251  0.4956 -0.2817
   81SLPC  H10X 7600   0.500   4.586   3.984 -1.7036  1.1375 -2.5020
   81SLPC  H10Y 7601   0.428   4.741   3.970  0.4166 -1.4029 -1.7043
   81SLPC  C311 7602   0.578   4.734   4.126 -0.9570  0.4937  0.1092
   81SLPC  H11X 7603   0.607   4.841   4.129 -1.1884  0.6419 -1.7524
   81SLPC  H11Y 7604   0.673   4.676   4.129 -0.3258  1.3632 -1.7235
   81SLPC  C312 7605   0.483   4.679   4.233  0.1738 -0.3391  0.1906
   81SLPC  H12X 7606   0.472   4.569   4.220  2.6532 -0.8535  1.7534
   81SLPC  H12Y 7607   0.382   4.725   4.223 -1.0568 -3.0389 -1.0642
   81SLPC  C313 7608   0.539   4.712   4.371  0.4439 -0.0496  0.9945
   81SLPC  H13X 7609   0.575   4.816   4.389 -1.2607  0.8810 -0.6512
   81SLPC  H13Y 7610   0.618   4.634   4.378 -0.0535 -0.7940 -1.1020
   81SLPC  C314 7611   0.428   4.692   4.479 -0.4037 -0.5201 -0.2947
   81SLPC  H14X 7612   0.370   4.599   4.459  0.3941 -1.0463 -0.1754
   81SLPC  H14Y 7613   0.354   4.773   4.461 -1.3674 -1.1715  0.6115
   81SLPC  C315 7614   0.476   4.711   4.624  0.2250 -0.1087 -0.2001
   81SLPC  H15X 7615   0.509   4.817   4.624  1.0123 -0.3356  1.1820
   81SLPC  H15Y 7616   0.566   4.649   4.641  1.7288  2.0966  0.3026
   81SLPC  C316 7617   0.372   4.695   4.735 -0.0036  0.2495  0.7383
   81SLPC  H16X 7618   0.356   4.591   4.768 -1.1393  1.0992  3.0999
   81SLPC  H16Y 7619   0.271   4.721   4.695 -0.4784 -0.9650  1.1091
   81SLPC  C317 7620   0.396   4.799   4.844 -0.4217  0.2951 -0.0423
   81SLPC  H17X 7621   0.386   4.894   4.789  3.2595  0.6535 -0.3299
   81SLPC  H17Y 7622   0.500   4.787   4.881 -0.8658  0.5957  1.3766
   81SLPC  C318 7623   0.304   4.805   4.969 -0.7291 -0.2045  0.3677
   81SLPC  H18X 7624   0.312   4.705   5.017  4.1307  0.0483  0.5732
   81SLPC  H18Y 7625   0.197   4.820   4.942 -1.1425  0.7495  2.3107
   81SLPC  H18Z 7626   0.327   4.880   5.048  0.5392 -0.3935  0.1983
   82SLPC     N 7627   4.066   5.847   2.478 -0.0254  0.4596 -0.3288
   82SLPC   C13 7628   4.107   5.989   2.505  0.2226 -0.3744  0.4950
   82SLPC  H13A 7629   4.141   6.041   2.416  0.1003  0.1768  0.7647
   82SLPC  H13B 7630   4.025   6.044   2.550  0.1265  0.8092 -1.0157
   82SLPC  H13C 7631   4.181   5.989   2.583 -0.9080 -0.6342  1.6006
   82SLPC   C14 7632   4.188   5.782   2.427  0.2028 -0.3070  0.9117
   82SLPC  H14A 7633   4.260   5.797   2.507 -1.3823  1.2020  2.1361
   82SLPC  H14B 7634   4.185   5.674   2.420 -0.3777 -0.3248  1.3997
   82SLPC  H14C 7635   4.225   5.821   2.334  2.0146  0.7782  2.0190
   82SLPC   C15 7636   3.964   5.854   2.376 -0.0083 -0.2087  0.4136
   82SLPC  H15A 7637   3.947   5.755   2.336 -0.6738 -0.4943  1.3827
   82SLPC  H15B 7638   3.870   5.893   2.412  0.5214  1.1516  0.4170
   82SLPC  H15C 7639   3.987   5.922   2.294  1.4032 -1.9026 -0.6708
   82SLPC   C12 7640   4.020   5.776   2.604  0.8957 -0.5697  0.3222
   82SLPC  H12A 7641   4.024   5.670   2.585  2.6333 -0.7970  1.6686
   82SLPC  H12B 7642   3.918   5.805   2.623  0.5203 -0.6539 -1.4742
   82SLPC   C11 7643   4.100   5.807   2.729  0.5623 -0.0685 -1.0595
   82SLPC  H11A 7644   4.048   5.753   2.811  1.9166 -0.3505 -0.3565
   82SLPC  H11B 7645   4.078   5.909   2.766 -1.0510 -1.3450  1.8563
   82SLPC     P 7646   4.264   5.600   2.719  0.2038  0.3193  0.1280
   82SLPC   O13 7647   4.181   5.534   2.611  0.2931 -0.3600  0.1202
   82SLPC   O14 7648   4.410   5.588   2.705 -0.4056  0.3335 -0.3637
   82SLPC   O12 7649   4.234   5.760   2.724 -0.0865  0.4608  0.0368
   82SLPC   O11 7650   4.226   5.548   2.862 -0.3980 -0.0224  0.8968
   82SLPC    C1 7651   4.302   5.564   2.979  0.0427 -0.4661  0.0763
   82SLPC    HA 7652   4.392   5.499   2.976  1.0612  0.8146  1.1941
   82SLPC    HB 7653   4.344   5.667   2.985 -2.1485  0.4155  1.5253
   82SLPC    C2 7654   4.205   5.538   3.100  0.4904  0.3481  0.0179
   82SLPC    HS 7655   4.270   5.551   3.189  0.4501 -0.3670  0.1591
   82SLPC   O21 7656   4.142   5.409   3.089 -0.5069 -0.0297  0.5128
   82SLPC   C21 7657   4.213   5.309   3.142  0.0248  0.2774 -0.3315
   82SLPC   O22 7658   4.315   5.328   3.205 -0.6256  0.7949 -0.2338
   82SLPC   C22 7659   4.143   5.176   3.125 -0.1143 -0.6009 -0.3128
   82SLPC   H2R 7660   4.033   5.187   3.117  0.0156  1.1758 -0.0463
   82SLPC   H2S 7661   4.183   5.140   3.028 -1.8642  2.7942 -2.4998
   82SLPC    C3 7662   4.093   5.641   3.097 -0.3079 -0.3632 -0.1340
   82SLPC    HX 7663   4.047   5.635   2.996 -0.9816 -0.2036  0.1525
   82SLPC    HY 7664   4.125   5.747   3.105  0.3561 -0.6166  0.6751
   82SLPC   O31 7665   4.007   5.618   3.213  0.3980 -0.4192  0.5708
   82SLPC   C31 7666   3.884   5.578   3.194 -0.8048  0.8232  0.4063
   82SLPC   O32 7667   3.830   5.550   3.091  0.4509 -0.4060  0.1399
   82SLPC   C32 7668   3.822   5.559   3.330  0.1068  0.1181 -0.5966
   82SLPC   H2X 7669   3.713   5.546   3.311  0.0003 -0.4363  0.3399
   82SLPC   H2Y 7670   3.842   5.650   3.391  0.3844 -0.0952 -0.3642
   82SLPC   C23 7671   4.187   5.081   3.240 -0.1499  0.4654  0.0802
   82SLPC   H3R 7672   4.297   5.073   3.227 -0.0648  1.7427 -0.1138
   82SLPC   H3S 7673   4.140   4.986   3.207 -0.8915  0.7913  0.1806
   82SLPC   C24 7674   4.133   5.120   3.384  0.5882 -0.2483  0.0314
   82SLPC   H4R 7675   4.024   5.096   3.384  0.3755  0.6226 -1.0219
   82SLPC   H4S 7676   4.138   5.230   3.396 -1.1642 -0.0873 -0.3645
   82SLPC   C25 7677   4.197   5.048   3.502  0.0064 -0.9419  0.3884
   82SLPC   H5R 7678   4.304   5.042   3.471 -0.3983  0.5502 -1.4859
   82SLPC   H5S 7679   4.161   4.943   3.507 -1.9951 -0.4577 -1.6928
   82SLPC   C26 7680   4.195   5.118   3.642 -0.5961  0.4640  0.6750
   82SLPC   H6R 7681   4.097   5.120   3.694 -1.4700  1.0029 -0.9056
   82SLPC   H6S 7682   4.222   5.225   3.636  0.1007  0.3777  2.0051
   82SLPC   C27 7683   4.304   5.061   3.739 -0.1919 -0.0411 -0.8887
   82SLPC   H7R 7684   4.398   5.059   3.680 -1.3159  0.1086 -2.7694
   82SLPC   H7S 7685   4.283   4.955   3.761  1.8904 -0.4211 -0.5816
   82SLPC   C28 7686   4.312   5.137   3.874  0.3971 -0.0761  1.1039
   82SLPC   H8R 7687   4.357   5.238   3.868  1.4519 -0.6170 -1.7680
   82SLPC   H8S 7688   4.392   5.082   3.929  0.1785 -2.6194 -0.9498
   82SLPC   C29 7689   4.186   5.140   3.959 -0.0109  0.5122  0.6455
   82SLPC   H9R 7690   4.090   5.141   3.905  0.0840 -2.0537  0.3103
   82SLPC  C210 7691   4.185   5.134   4.092 -0.0144  0.6843  0.0438
   82SLPC  H10R 7692   4.087   5.148   4.140  0.4986 -1.9406  2.1307
   82SLPC  C211 7693   4.293   5.105   4.190  0.2460  0.3026  0.2921
   82SLPC  H11R 7694   4.374   5.047   4.142 -1.0275  0.1880 -1.8287
   82SLPC  H11S 7695   4.247   5.058   4.279 -1.5449 -2.0260 -1.7534
   82SLPC  C212 7696   4.360   5.231   4.231 -0.2737 -0.9367  0.3066
   82SLPC  H12R 7697   4.338   5.315   4.163  0.8212 -0.7199  0.1861
   82SLPC  C213 7698   4.454   5.251   4.327 -0.4448 -0.1711 -0.6478
   82SLPC  H13R 7699   4.502   5.348   4.344  0.9161 -1.1377  1.4422
   82SLPC  C214 7700   4.503   5.151   4.425  0.2355  0.2418 -0.1777
   82SLPC  H14R 7701   4.614   5.158   4.432  0.1836 -0.5313  4.3496
   82SLPC  H14S 7702   4.480   5.046   4.398 -2.0079  0.9884 -1.4324
   82SLPC  C215 7703   4.450   5.163   4.573 -0.7832 -0.6534 -0.0240
   82SLPC  H15R 7704   4.469   5.265   4.610 -0.5886 -0.9227  0.6247
   82SLPC  H15S 7705   4.505   5.089   4.635 -1.6473  0.1247  1.7553
   82SLPC  C216 7706   4.302   5.138   4.583 -0.4250  0.4460  0.2889
   82SLPC  H16R 7707   4.289   5.029   4.572  1.4856  0.0408  1.6190
   82SLPC  H16S 7708   4.249   5.188   4.499 -1.3991  0.0276  0.6342
   82SLPC  C217 7709   4.242   5.188   4.710 -1.1950  0.3662  0.0469
   82SLPC  H17R 7710   4.141   5.142   4.718 -2.1420  2.0162 -1.6901
   82SLPC  H17S 7711   4.227   5.298   4.710 -1.5660  0.3162  0.4768
   82SLPC  C218 7712   4.338   5.149   4.828 -0.6894  0.6526  0.2597
   82SLPC  H18R 7713   4.289   5.169   4.926  3.0079  0.1958  2.3929
   82SLPC  H18S 7714   4.427   5.216   4.821 -0.9183  0.8347 -0.9866
   82SLPC  H18T 7715   4.364   5.041   4.829 -1.9627  0.3017 -1.3053
   82SLPC   C33 7716   3.873   5.430   3.383  0.1968  0.4280  0.1083
   82SLPC   H3X 7717   3.983   5.423   3.377  0.1709  0.9861 -1.4356
   82SLPC   H3Y 7718   3.830   5.345   3.327  0.5034 -0.1525  0.7385
   82SLPC   C34 7719   3.838   5.421   3.536 -0.1686  0.1306  0.3306
   82SLPC   H4X 7720   3.732   5.428   3.566 -0.3400  0.5873 -0.3620
   82SLPC   H4Y 7721   3.901   5.499   3.584  1.2889  0.2061 -1.5776
   82SLPC   C35 7722   3.884   5.287   3.603 -0.5428  0.3390 -0.5567
   82SLPC   H5X 7723   3.989   5.285   3.565 -0.6970  1.9401 -1.1357
   82SLPC   H5Y 7724   3.833   5.195   3.569 -1.9846  1.0441 -0.3465
   82SLPC   C36 7725   3.872   5.281   3.757  0.5676 -0.2440  0.1951
   82SLPC   H6X 7726   3.949   5.349   3.800  0.0551  1.5134 -1.5408
   82SLPC   H6Y 7727   3.906   5.180   3.791  1.9318  0.8709  2.3794
   82SLPC   C37 7728   3.729   5.297   3.813 -0.0141 -0.6501 -0.1377
   82SLPC   H7X 7729   3.657   5.231   3.760  0.2991 -0.3255 -0.9702
   82SLPC   H7Y 7730   3.687   5.400   3.811  0.9984 -0.1637  1.3389
   82SLPC   C38 7731   3.724   5.255   3.960  0.3590  0.2030  0.8331
   82SLPC   H8X 7732   3.724   5.145   3.972 -1.4002 -0.0228 -0.7315
   82SLPC   H8Y 7733   3.621   5.286   3.989 -0.6185 -0.8749 -1.2770
   82SLPC   C39 7734   3.839   5.317   4.044 -0.0349  0.5875 -0.1977
   82SLPC   H9X 7735   3.841   5.426   4.025  1.2036  0.8491  1.1573
   82SLPC   H9Y 7736   3.936   5.273   4.011  0.1765  0.8363  0.0862
   82SLPC  C310 7737   3.802   5.312   4.193 -0.5265  0.8836 -0.6145
   82SLPC  H10X 7738   3.853   5.227   4.243  0.5947  1.3086 -1.0072
   82SLPC  H10Y 7739   3.694   5.292   4.204 -0.2032 -0.7615 -0.1159
   82SLPC  C311 7740   3.840   5.438   4.275 -0.5219 -0.6233 -0.2547
   82SLPC  H11X 7741   3.798   5.530   4.229  0.7601 -0.5693 -1.3896
   82SLPC  H11Y 7742   3.950   5.446   4.275 -0.5520  0.2179  1.7763
   82SLPC  C312 7743   3.776   5.427   4.416 -0.1360 -0.1300  0.6075
   82SLPC  H12X 7744   3.779   5.327   4.463  0.5692  0.4768  1.8776
   82SLPC  H12Y 7745   3.666   5.433   4.398  0.0084 -0.3342 -0.4419
   82SLPC  C313 7746   3.844   5.522   4.510 -0.1779 -0.1643  0.0346
   82SLPC  H13X 7747   3.838   5.622   4.462 -0.9328 -1.2674 -2.3129
   82SLPC  H13Y 7748   3.950   5.494   4.530  0.4611  3.4893  2.6575
   82SLPC  C314 7749   3.769   5.528   4.644  0.4906  0.2200 -1.1062
   82SLPC  H14X 7750   3.770   5.425   4.684  0.4041  1.4691  2.4615
   82SLPC  H14Y 7751   3.663   5.562   4.639  0.8054  1.2899 -0.8109
   82SLPC  C315 7752   3.836   5.628   4.745 -0.8017  0.4017  0.8747
   82SLPC  H15X 7753   3.813   5.733   4.717  0.0607  0.5327  0.6432
   82SLPC  H15Y 7754   3.945   5.616   4.731 -1.0981  1.3358 -3.9008
   82SLPC  C316 7755   3.809   5.607   4.899 -0.0462  0.4514 -0.2866
   82SLPC  H16X 7756   3.850   5.508   4.930 -2.3383  0.3019  2.6431
   82SLPC  H16Y 7757   3.702   5.603   4.929  0.1664 -0.1352  0.4268
   82SLPC  C317 7758   3.867   5.726   4.973 -0.4250 -0.5831 -0.3096
   82SLPC  H17X 7759   3.835   5.820   4.924  0.3539 -0.4406 -0.5641
   82SLPC  H17Y 7760   3.977   5.724   4.955 -0.1977 -0.0093  0.9168
   82SLPC  C318 7761   3.835   5.725   5.124 -0.2065  0.4394  0.1648
   82SLPC  H18X 7762   3.878   5.636   5.176 -0.0626  1.0775  1.1495
   82SLPC  H18Y 7763   3.726   5.720   5.143 -0.3812 -1.2811 -1.0791
   82SLPC  H18Z 7764   3.886   5.812   5.169  0.4512  0.8560 -1.3277
   83SLPC     N 7765   5.929   5.037   2.539  0.1181 -0.0233  0.4554
   83SLPC   C13 7766   5.867   4.951   2.433  0.2935  0.0507  0.3361
   83SLPC  H13A 7767   5.928   4.862   2.424  1.4399  0.8588 -0.2444
   83SLPC  H13B 7768   5.766   4.927   2.460 -0.6393  1.9470 -1.1813
   83SLPC  H13C 7769   5.860   5.004   2.339 -0.6400 -1.1584 -0.2925
   83SLPC   C14 7770   5.835   5.152   2.551 -0.2189 -0.2267  0.0927
   83SLPC  H14A 7771   5.730   5.124   2.548 -0.0784 -1.4812  2.9432
   83SLPC  H14B 7772   5.852   5.197   2.648 -2.0757  1.1225 -0.1544
   83SLPC  H14C 7773   5.843   5.220   2.468  1.5244 -2.1863 -1.4316
   83SLPC   C15 7774   6.069   5.079   2.498 -0.1925  0.0889  0.4285
   83SLPC  H15A 7775   6.127   4.989   2.482  0.0070  0.4940 -1.4168
   83SLPC  H15B 7776   6.066   5.141   2.409 -0.7033  0.0556  0.4212
   83SLPC  H15C 7777   6.112   5.153   2.564 -0.1108  1.0465 -0.6592
   83SLPC   C12 7778   5.929   4.957   2.661 -1.1397 -0.3767  0.3238
   83SLPC  H12A 7779   5.995   4.872   2.653  1.7661  1.7732  0.0608
   83SLPC  H12B 7780   5.827   4.920   2.663 -0.6548 -1.7324  1.1637
   83SLPC   C11 7781   5.962   5.022   2.795 -0.5064  0.9272  0.1976
   83SLPC  H11A 7782   5.952   4.948   2.877  0.5601 -0.8249 -1.1786
   83SLPC  H11B 7783   5.895   5.108   2.817 -2.0166 -0.3256  0.5841
   83SLPC     P 7784   6.221   5.013   2.842  0.0207  0.0898 -0.2645
   83SLPC   O13 7785   6.224   4.867   2.815  0.8250  0.0856  0.1768
   83SLPC   O14 7786   6.334   5.094   2.797  0.0919  0.0297  0.0768
   83SLPC   O12 7787   6.092   5.078   2.794  0.3894 -1.2065 -0.0847
   83SLPC   O11 7788   6.210   5.031   3.000  0.2033 -0.0355 -0.1474
   83SLPC    C1 7789   6.188   5.155   3.066 -0.0452 -0.1641  0.4191
   83SLPC    HA 7790   6.167   5.241   2.999 -1.3084 -2.1994 -1.9256
   83SLPC    HB 7791   6.099   5.151   3.133  1.5789  1.6659  2.9143
   83SLPC    C2 7792   6.298   5.183   3.161  0.4093  0.1567 -0.5419
   83SLPC    HS 7793   6.393   5.176   3.104  0.7316  0.3669 -0.0362
   83SLPC   O21 7794   6.287   5.078   3.268 -0.4916 -0.2244 -0.6887
   83SLPC   C21 7795   6.405   5.046   3.323 -1.1137  0.4488  0.3824
   83SLPC   O22 7796   6.513   5.080   3.277  0.6297  0.1291 -0.1146
   83SLPC   C22 7797   6.379   4.961   3.449 -0.6504 -0.6028 -0.0283
   83SLPC   H2R 7798   6.333   4.869   3.408  0.1230 -0.7070 -0.6916
   83SLPC   H2S 7799   6.478   4.929   3.488 -0.4676  0.8953  0.8466
   83SLPC    C3 7800   6.282   5.326   3.222  0.0380 -0.1119 -0.0632
   83SLPC    HX 7801   6.202   5.315   3.299 -1.5108 -0.6320 -1.6805
   83SLPC    HY 7802   6.237   5.400   3.152 -2.0056  0.5798  1.8565
   83SLPC   O31 7803   6.406   5.362   3.282 -0.0233 -0.3981  0.3648
   83SLPC   C31 7804   6.463   5.479   3.244  1.1020 -0.3059  0.0987
   83SLPC   O32 7805   6.415   5.546   3.156 -0.1194 -0.5554  0.0313
   83SLPC   C32 7806   6.577   5.515   3.335  0.1197  0.0719  0.4524
   83SLPC   H2X 7807   6.561   5.624   3.351 -0.6889  0.6223 -3.2151
   83SLPC   H2Y 7808   6.674   5.501   3.284  1.5699  1.0179  2.7423
   83SLPC   C23 7809   6.296   5.038   3.553  0.1828 -0.1787 -0.6384
   83SLPC   H3R 7810   6.264   4.972   3.637  1.3623 -0.6144 -0.5065
   83SLPC   H3S 7811   6.201   5.080   3.514 -0.5038  1.7293  2.6851
   83SLPC   C24 7812   6.370   5.159   3.612  0.1450 -0.2016  0.6665
   83SLPC   H4R 7813   6.397   5.236   3.537  1.9091 -1.9414 -0.5781
   83SLPC   H4S 7814   6.460   5.123   3.667  0.8756  2.2172  1.1891
   83SLPC   C25 7815   6.304   5.221   3.735 -0.1634  0.4808 -0.0156
   83SLPC   H5R 7816   6.195   5.198   3.730 -0.0444  0.0593 -0.6919
   83SLPC   H5S 7817   6.325   5.330   3.736  1.7018  0.1525  0.4481
   83SLPC   C26 7818   6.352   5.157   3.863  0.3381 -0.3692 -0.8319
   83SLPC   H6R 7819   6.453   5.198   3.883 -0.5555  0.4799  2.8589
   83SLPC   H6S 7820   6.364   5.047   3.853  0.3002 -0.5001  0.3692
   83SLPC   C27 7821   6.265   5.197   3.979  0.1812  0.0678 -0.2060
   83SLPC   H7R 7822   6.160   5.163   3.962  0.4938 -0.3563 -1.3142
   83SLPC   H7S 7823   6.267   5.308   3.984 -0.4257  0.0426  2.7899
   83SLPC   C28 7824   6.325   5.150   4.114 -0.0049 -0.0681 -0.2081
   83SLPC   H8R 7825   6.270   5.194   4.200 -2.1621 -2.1101 -0.4282
   83SLPC   H8S 7826   6.430   5.184   4.117  0.1996 -0.4507 -2.0796
   83SLPC   C29 7827   6.328   4.995   4.125  0.2817  0.4001 -0.1777
   83SLPC   H9R 7828   6.266   4.934   4.058 -0.3837 -3.2559  3.3752
   83SLPC  C210 7829   6.390   4.928   4.229  0.1064 -0.2817  0.7502
   83SLPC  H10R 7830   6.393   4.819   4.223 -1.0851 -0.2975  0.1766
   83SLPC  C211 7831   6.473   4.993   4.345  0.3502  0.1188  0.2483
   83SLPC  H11R 7832   6.512   5.091   4.309 -2.3971  1.5785  0.9860
   83SLPC  H11S 7833   6.553   4.917   4.358  0.2889  0.3107  1.8720
   83SLPC  C212 7834   6.395   5.010   4.475 -0.1384 -0.4241 -0.4169
   83SLPC  H12R 7835   6.286   5.005   4.464 -0.1362 -2.0968  0.0711
   83SLPC  C213 7836   6.454   5.035   4.591 -0.6321  0.1901  0.0154
   83SLPC  H13R 7837   6.389   5.034   4.680 -1.0611  0.5491 -0.2880
   83SLPC  C214 7838   6.602   5.026   4.612 -0.4447 -0.5949 -0.2515
   83SLPC  H14R 7839   6.641   5.128   4.595  0.1524 -0.6298  0.8331
   83SLPC  H14S 7840   6.665   4.963   4.546  3.1331  2.9043 -0.5501
   83SLPC  C215 7841   6.634   4.986   4.758 -0.5799 -0.1552  0.5901
   83SLPC  H15R 7842   6.742   4.959   4.758 -0.7968 -1.1641 -1.6988
   83SLPC  H15S 7843   6.585   4.887   4.769  2.9254 -1.9896  1.2102
   83SLPC  C216 7844   6.596   5.098   4.854  0.3661 -0.1311  0.5177
   83SLPC  H16R 7845   6.488   5.123   4.846  0.6130  0.7499 -0.1729
   83SLPC  H16S 7846   6.658   5.190   4.853  0.4858 -0.2109 -0.7592
   83SLPC  C217 7847   6.610   5.044   5.001  0.0064 -0.0232 -0.0931
   83SLPC  H17R 7848   6.603   4.933   5.000 -0.8508  0.0013  0.7494
   83SLPC  H17S 7849   6.521   5.080   5.058 -0.5613 -0.2444 -0.8218
   83SLPC  C218 7850   6.725   5.089   5.074  0.4513  0.1287  0.2201
   83SLPC  H18R 7851   6.739   5.197   5.053 -1.1419  0.0527 -1.4396
   83SLPC  H18S 7852   6.816   5.036   5.040  1.7119  1.4250  1.4253
   83SLPC  H18T 7853   6.717   5.073   5.184 -0.1640 -1.6439 -0.0555
   83SLPC   C33 7854   6.582   5.440   3.468  0.4415 -0.0616  0.0451
   83SLPC   H3X 7855   6.592   5.330   3.464  0.7460 -0.1188  1.6903
   83SLPC   H3Y 7856   6.490   5.459   3.527  0.0651  0.2833 -0.6361
   83SLPC   C34 7857   6.694   5.505   3.547  0.0964  0.6641 -0.0341
   83SLPC   H4X 7858   6.680   5.614   3.562 -0.2700  0.7997 -1.2386
   83SLPC   H4Y 7859   6.787   5.490   3.489  0.9927 -0.1587  1.5488
   83SLPC   C35 7860   6.721   5.435   3.680  0.0191  0.4606 -0.0262
   83SLPC   H5X 7861   6.822   5.467   3.713  1.1744 -1.5848 -1.2987
   83SLPC   H5Y 7862   6.735   5.325   3.669 -0.6254  0.3740  0.0031
   83SLPC   C36 7863   6.620   5.469   3.792  1.0053  0.3779  0.3415
   83SLPC   H6X 7864   6.523   5.421   3.767  0.3826  2.0161 -0.5875
   83SLPC   H6Y 7865   6.606   5.579   3.801 -0.2161  0.2158  0.5570
   83SLPC   C37 7866   6.671   5.429   3.931 -0.1446 -0.2026 -0.0584
   83SLPC   H7X 7867   6.754   5.499   3.952 -2.3276  2.4462  0.2834
   83SLPC   H7Y 7868   6.706   5.324   3.927  2.6637  0.6912 -2.0689
   83SLPC   C38 7869   6.565   5.464   4.041 -0.2206 -0.2237 -0.1236
   83SLPC   H8X 7870   6.467   5.414   4.027 -0.6704  0.6294 -0.0958
   83SLPC   H8Y 7871   6.541   5.572   4.031  1.2029  0.3425  1.9562
   83SLPC   C39 7872   6.630   5.451   4.185 -0.0424 -0.6111  0.1189
   83SLPC   H9X 7873   6.676   5.545   4.222 -2.3325  0.4529  0.3964
   83SLPC   H9Y 7874   6.713   5.377   4.184  1.7176  1.2737 -0.6484
   83SLPC  C310 7875   6.515   5.439   4.288 -0.8636  0.3145 -0.4383
   83SLPC  H10X 7876   6.437   5.368   4.252 -3.3501  2.6908 -0.0733
   83SLPC  H10Y 7877   6.458   5.534   4.282 -0.2562  0.7019 -0.0887
   83SLPC  C311 7878   6.550   5.412   4.438  0.1741 -0.9653  0.6138
   83SLPC  H11X 7879   6.593   5.310   4.448  0.0952 -1.3708 -2.3327
   83SLPC  H11Y 7880   6.466   5.408   4.510  0.0775 -0.8213  0.5084
   83SLPC  C312 7881   6.657   5.506   4.512  0.2763 -0.0682 -0.5888
   83SLPC  H12X 7882   6.621   5.606   4.479  0.2997 -0.3649 -1.5501
   83SLPC  H12Y 7883   6.759   5.506   4.469  1.0210 -1.6415  1.0778
   83SLPC  C313 7884   6.663   5.486   4.665 -0.2568  0.5236  0.0708
   83SLPC  H13X 7885   6.649   5.377   4.673 -3.4952  0.7677 -0.6399
   83SLPC  H13Y 7886   6.575   5.530   4.717 -0.9694  1.6883 -1.9544
   83SLPC  C314 7887   6.777   5.553   4.732 -0.7245 -0.0590 -0.8178
   83SLPC  H14X 7888   6.788   5.660   4.704 -3.0400  0.3975 -0.1775
   83SLPC  H14Y 7889   6.872   5.501   4.706  0.3963  2.0546 -1.2058
   83SLPC  C315 7890   6.766   5.567   4.889  0.2487  0.5114 -0.0737
   83SLPC  H15X 7891   6.748   5.465   4.930 -1.9634  1.0093  0.3329
   83SLPC  H15Y 7892   6.665   5.612   4.898 -0.9671 -2.2929  1.8013
   83SLPC  C316 7893   6.875   5.637   4.962 -0.0490 -0.1000  0.4753
   83SLPC  H16X 7894   6.970   5.601   4.917 -0.7666  2.1276 -3.1785
   83SLPC  H16Y 7895   6.851   5.621   5.070 -2.3642  1.4267  0.2614
   83SLPC  C317 7896   6.886   5.791   4.947  0.0009  0.1411 -0.5231
   83SLPC  H17X 7897   6.787   5.830   4.981 -0.1532  1.3959 -2.2265
   83SLPC  H17Y 7898   6.901   5.820   4.841 -0.3435  0.3333 -0.5225
   83SLPC  C318 7899   6.999   5.852   5.033  0.2079 -0.1428  0.0205
   83SLPC  H18X 7900   6.992   5.963   5.041  0.1152  0.1002 -2.4334
   83SLPC  H18Y 7901   7.100   5.838   4.986  0.8790  2.9577  0.2916
   83SLPC  H18Z 7902   7.006   5.802   5.131 -0.0607 -1.2736 -0.5218
   84SLPC     N 7903   6.519   2.952   2.363  0.1551  0.5079 -0.5169
   84SLPC   C13 7904   6.600   2.837   2.311  0.1115  0.3931  0.0821
   84SLPC  H13A 7905   6.657   2.796   2.393  1.0547  1.6672  0.1085
   84SLPC  H13B 7906   6.532   2.756   2.289  1.5937 -0.7368 -0.5135
   84SLPC  H13C 7907   6.670   2.867   2.234  0.8388 -0.8310  0.2253
   84SLPC   C14 7908   6.440   3.014   2.253  0.3262  0.4226  0.1023
   84SLPC  H14A 7909   6.511   3.055   2.182  0.8266 -2.2040 -1.0644
   84SLPC  H14B 7910   6.383   2.936   2.206 -1.8725  1.8087  0.3481
   84SLPC  H14C 7911   6.369   3.086   2.290  1.0747  0.5406  1.3650
   84SLPC   C15 7912   6.626   3.045   2.415  0.6156  0.5244  1.0870
   84SLPC  H15A 7913   6.655   3.008   2.512  0.7803 -0.5631  0.6283
   84SLPC  H15B 7914   6.714   3.048   2.353  1.9727 -4.2411  2.4417
   84SLPC  H15C 7915   6.585   3.145   2.419  2.7273  1.4595  0.5620
   84SLPC   C12 7916   6.428   2.916   2.485  0.4816 -0.6017  0.0639
   84SLPC  H12A 7917   6.478   2.843   2.547  1.3040 -1.1836 -1.2225
   84SLPC  H12B 7918   6.347   2.856   2.445  0.7543 -0.8090 -0.1849
   84SLPC   C11 7919   6.373   3.035   2.568  0.7086  0.2443 -0.3891
   84SLPC  H11A 7920   6.454   3.081   2.630  0.7236  2.0555 -1.6745
   84SLPC  H11B 7921   6.308   2.986   2.643  1.4222  0.8479  0.6532
   84SLPC     P 7922   6.156   3.155   2.476  0.2998 -0.2974 -0.1897
   84SLPC   O13 7923   6.122   3.294   2.446  0.6299 -0.0762  0.0209
   84SLPC   O14 7924   6.130   3.052   2.372  0.4589  0.1542 -0.0253
   84SLPC   O12 7925   6.313   3.146   2.507 -0.6475 -0.1375  0.0056
   84SLPC   O11 7926   6.077   3.109   2.602  0.5146 -0.0114  0.3684
   84SLPC    C1 7927   6.034   3.206   2.693  0.3443 -0.2046 -1.2243
   84SLPC    HA 7928   6.054   3.313   2.674 -1.6503  0.4698  0.1259
   84SLPC    HB 7929   5.924   3.189   2.702  0.5238 -0.6523  0.2692
   84SLPC    C2 7930   6.075   3.164   2.840  0.1861  0.0814  1.0617
   84SLPC    HS 7931   6.013   3.217   2.915 -0.9723 -1.7137  1.4369
   84SLPC   O21 7932   6.214   3.204   2.854  0.2257 -0.1657  0.2779
   84SLPC   C21 7933   6.243   3.327   2.873 -0.1546 -0.2487  0.2575
   84SLPC   O22 7934   6.169   3.420   2.847  0.2955 -0.2244  0.1074
   84SLPC   C22 7935   6.392   3.341   2.907 -0.0394 -1.4037 -0.2050
   84SLPC   H2R 7936   6.424   3.238   2.937  0.4989 -0.9219  0.9262
   84SLPC   H2S 7937   6.448   3.377   2.818  0.1411 -1.5423 -0.1485
   84SLPC    C3 7938   6.059   3.015   2.869  1.0054  0.3584  0.2297
   84SLPC    HX 7939   6.126   2.957   2.802  1.2256  0.4784  0.3445
   84SLPC    HY 7940   5.953   2.990   2.844 -0.1745  4.4391  0.4329
   84SLPC   O31 7941   6.091   2.979   3.008  0.0084 -0.2717 -0.0698
   84SLPC   C31 7942   6.042   2.873   3.056  0.6243  0.2762 -0.1768
   84SLPC   O32 7943   5.997   2.774   2.995 -0.3167 -0.8386  0.4717
   84SLPC   C32 7944   6.049   2.886   3.206  1.0087  0.3836  0.3853
   84SLPC   H2X 7945   6.007   2.982   3.241  1.3928  0.6293  0.1781
   84SLPC   H2Y 7946   6.152   2.890   3.246  1.0028 -0.3438  0.4938
   84SLPC   C23 7947   6.432   3.449   3.009 -0.2829 -0.1962  0.0018
   84SLPC   H3R 7948   6.408   3.550   2.969  1.1081  0.8275  1.6033
   84SLPC   H3S 7949   6.541   3.436   3.022 -0.3805 -0.8084  0.2631
   84SLPC   C24 7950   6.369   3.441   3.141 -0.5355  0.1014  0.5604
   84SLPC   H4R 7951   6.391   3.343   3.190  0.5906  0.3015  0.4804
   84SLPC   H4S 7952   6.259   3.427   3.128 -0.1538 -4.1470  0.4173
   84SLPC   C25 7953   6.411   3.540   3.248  0.2271 -0.5545  0.6033
   84SLPC   H5R 7954   6.397   3.643   3.210  2.6055 -0.4091  0.0016
   84SLPC   H5S 7955   6.518   3.522   3.272 -0.3211 -0.6331  3.2826
   84SLPC   C26 7956   6.337   3.530   3.374  0.6764  0.7343 -0.5989
   84SLPC   H6R 7957   6.347   3.425   3.410 -1.4220  1.0619  1.1989
   84SLPC   H6S 7958   6.230   3.551   3.353  1.0091  3.3534 -0.0038
   84SLPC   C27 7959   6.395   3.633   3.474  0.0491  0.2058  0.1266
   84SLPC   H7R 7960   6.376   3.729   3.421 -0.6187  1.3013  2.2208
   84SLPC   H7S 7961   6.504   3.615   3.481 -0.1911 -1.1069  0.7793
   84SLPC   C28 7962   6.334   3.631   3.617  0.1319 -0.5302  0.3381
   84SLPC   H8R 7963   6.347   3.534   3.669  1.1903  0.7788  2.6882
   84SLPC   H8S 7964   6.225   3.642   3.599 -0.2288 -2.7008  0.9347
   84SLPC   C29 7965   6.392   3.741   3.702 -0.1430 -0.0352 -1.3706
   84SLPC   H9R 7966   6.498   3.743   3.730 -0.4164  1.8155 -0.3813
   84SLPC  C210 7967   6.333   3.858   3.740 -0.1575  0.1256  0.4142
   84SLPC  H10R 7968   6.401   3.930   3.787 -1.2425  0.4459  1.5344
   84SLPC  C211 7969   6.209   3.907   3.677 -0.1436 -0.2280 -0.4884
   84SLPC  H11R 7970   6.127   3.864   3.739  0.2596 -0.9124 -0.4239
   84SLPC  H11S 7971   6.207   3.857   3.578  1.1215 -1.8072  0.2352
   84SLPC  C212 7972   6.190   4.058   3.662 -0.8045 -0.4080 -0.2875
   84SLPC  H12R 7973   6.179   4.100   3.764 -0.0552 -3.0369  0.9551
   84SLPC  C213 7974   6.190   4.133   3.552  0.3903  0.4939  0.2155
   84SLPC  H13R 7975   6.170   4.240   3.564  0.3779  0.2780  2.4419
   84SLPC  C214 7976   6.205   4.084   3.409  0.0781 -0.6594  0.2708
   84SLPC  H14R 7977   6.258   3.987   3.410 -0.5445 -1.0110 -0.2954
   84SLPC  H14S 7978   6.279   4.151   3.360  0.0177 -0.4437  0.4707
   84SLPC  C215 7979   6.080   4.066   3.328  0.3895  0.3862 -0.1669
   84SLPC  H15R 7980   6.023   4.160   3.313 -2.2814 -1.4590 -2.7114
   84SLPC  H15S 7981   6.013   3.988   3.369  0.8255 -0.1549 -0.4712
   84SLPC  C216 7982   6.113   3.993   3.191 -0.4497 -0.2320  0.5709
   84SLPC  H16R 7983   6.194   4.046   3.137 -0.3640 -0.5608  0.3752
   84SLPC  H16S 7984   6.016   4.013   3.139  0.6937 -0.0442 -1.5933
   84SLPC  C217 7985   6.138   3.842   3.207 -0.1797  0.0899 -0.5237
   84SLPC  H17R 7986   6.050   3.803   3.262  1.6380 -2.9680  0.3986
   84SLPC  H17S 7987   6.221   3.827   3.279 -0.1639  0.8083 -0.3808
   84SLPC  C218 7988   6.139   3.778   3.064 -0.0814 -0.2750  0.2380
   84SLPC  H18R 7989   6.037   3.753   3.026 -0.5598 -2.5593  2.7560
   84SLPC  H18S 7990   6.205   3.690   3.057 -1.5311 -1.3578 -0.2858
   84SLPC  H18T 7991   6.198   3.842   2.994  2.2548 -0.3262  2.0556
   84SLPC   C33 7992   5.982   2.759   3.259  0.6897  0.7084 -0.3101
   84SLPC   H3X 7993   5.888   2.733   3.206  0.9263 -2.2330  0.5127
   84SLPC   H3Y 7994   5.956   2.779   3.365  1.3329  2.4296 -0.4520
   84SLPC   C34 7995   6.082   2.635   3.258  0.3401  0.6461  0.5998
   84SLPC   H4X 7996   6.154   2.663   3.338 -0.8804  0.6740  1.7332
   84SLPC   H4Y 7997   6.143   2.637   3.166 -1.2522  0.0835 -0.5097
   84SLPC   C35 7998   6.016   2.497   3.271  0.5455  0.3926  0.0285
   84SLPC   H5X 7999   6.090   2.415   3.257 -2.0979 -2.0413 -0.4247
   84SLPC   H5Y 8000   5.945   2.474   3.189 -1.0093 -1.7983  1.8882
   84SLPC   C36 8001   5.921   2.468   3.383  1.0340  0.4881  0.4916
   84SLPC   H6X 8002   5.868   2.372   3.367 -2.0540  2.0593  0.5683
   84SLPC   H6Y 8003   5.840   2.543   3.370  0.9194  0.0711 -1.5647
   84SLPC   C37 8004   5.981   2.490   3.524 -0.4256 -0.1902 -0.6079
   84SLPC   H7X 8005   6.008   2.598   3.527 -0.7005 -0.1365  0.0096
   84SLPC   H7Y 8006   6.079   2.440   3.531 -0.0755  0.2690 -1.8764
   84SLPC   C38 8007   5.888   2.439   3.635  0.1689  0.1116 -0.5017
   84SLPC   H8X 8008   5.862   2.331   3.629 -3.8037  0.9419 -1.1048
   84SLPC   H8Y 8009   5.796   2.501   3.635  1.3683  2.0047 -1.4432
   84SLPC   C39 8010   5.952   2.463   3.770 -0.5924 -0.5801 -0.3850
   84SLPC   H9X 8011   5.949   2.574   3.782  0.1595 -0.7033  1.1484
   84SLPC   H9Y 8012   6.054   2.421   3.782 -0.4375 -0.5971 -1.6139
   84SLPC  C310 8013   5.876   2.403   3.892 -0.4003 -0.6719 -0.0706
   84SLPC  H10X 8014   5.879   2.292   3.889 -0.8350 -0.6712 -0.9336
   84SLPC  H10Y 8015   5.768   2.426   3.888 -0.1217  0.8436  0.5885
   84SLPC  C311 8016   5.944   2.430   4.030  0.5257  0.2728  0.4015
   84SLPC  H11X 8017   5.942   2.540   4.046  0.9870  0.6300 -1.7435
   84SLPC  H11Y 8018   6.050   2.399   4.038 -0.1047 -1.8344  1.2370
   84SLPC  C312 8019   5.868   2.349   4.143  0.5639 -0.3379 -0.4995
   84SLPC  H12X 8020   5.861   2.244   4.107  1.0925 -1.2155  1.7583
   84SLPC  H12Y 8021   5.766   2.388   4.164  0.1317 -0.6560 -1.9152
   84SLPC  C313 8022   5.947   2.362   4.272 -0.3080  0.3697 -0.9717
   84SLPC  H13X 8023   5.943   2.471   4.293  1.1510  0.6234 -1.8538
   84SLPC  H13Y 8024   6.051   2.328   4.255 -0.6197 -0.5570 -1.0455
   84SLPC  C314 8025   5.874   2.283   4.384 -0.2077  0.0721 -0.3315
   84SLPC  H14X 8026   5.884   2.174   4.364 -0.6303  0.0810 -0.5856
   84SLPC  H14Y 8027   5.770   2.320   4.387  0.1806  1.2962 -0.9501
   84SLPC  C315 8028   5.933   2.307   4.526 -0.6910 -0.0207 -0.2956
   84SLPC  H15X 8029   5.909   2.411   4.556  2.4347  1.0270 -1.0914
   84SLPC  H15Y 8030   6.044   2.308   4.534 -0.6960  3.8933  1.9830
   84SLPC  C316 8031   5.891   2.200   4.626  0.2679  0.3472  0.1591
   84SLPC  H16X 8032   5.943   2.103   4.614  1.1261  0.9386 -1.1385
   84SLPC  H16Y 8033   5.781   2.194   4.609  0.5743 -3.0467 -1.3137
   84SLPC  C317 8034   5.919   2.240   4.772 -0.2726 -0.5286 -0.2490
   84SLPC  H17X 8035   5.905   2.350   4.781  2.2814  0.0598 -2.2443
   84SLPC  H17Y 8036   6.024   2.209   4.791  0.0953  1.3904  1.1584
   84SLPC  C318 8037   5.811   2.170   4.861 -0.3745  0.0431 -0.5745
   84SLPC  H18X 8038   5.811   2.062   4.839  1.8672  0.0258 -0.7428
   84SLPC  H18Y 8039   5.710   2.215   4.851  0.4860  2.2319 -0.0796
   84SLPC  H18Z 8040   5.842   2.182   4.967 -0.0732  2.1614 -0.8493
   85SLPC     N 8041   3.392   1.172   3.179 -0.1488  0.2342 -0.2453
   85SLPC   C13 8042   3.282   1.214   3.094 -0.0049 -0.2236  0.0818
   85SLPC  H13A 8043   3.272   1.153   3.006  0.1757  0.0984 -0.1662
   85SLPC  H13B 8044   3.190   1.212   3.149 -0.3446 -1.2242 -0.5032
   85SLPC  H13C 8045   3.295   1.319   3.071 -2.4718 -0.0270 -0.7536
   85SLPC   C14 8046   3.519   1.216   3.109  0.0504 -0.0101  0.7354
   85SLPC  H14A 8047   3.517   1.324   3.118 -2.8630  0.1810 -1.0738
   85SLPC  H14B 8048   3.602   1.178   3.166  1.3195 -0.5319 -1.3372
   85SLPC  H14C 8049   3.521   1.188   3.005  2.2645  3.3300 -0.2989
   85SLPC   C15 8050   3.400   1.023   3.196 -0.1604  0.4791  0.1756
   85SLPC  H15A 8051   3.412   0.975   3.100  1.7199  1.6751 -0.2448
   85SLPC  H15B 8052   3.492   1.005   3.250  0.1371  0.3211 -0.3759
   85SLPC  H15C 8053   3.309   0.991   3.244  0.6594 -0.2073  1.3377
   85SLPC   C12 8054   3.392   1.241   3.319 -0.1839  0.2900  0.2941
   85SLPC  H12A 8055   3.481   1.209   3.372 -1.0579 -0.4909  1.3507
   85SLPC  H12B 8056   3.313   1.198   3.380 -0.0947 -0.0891  0.1454
   85SLPC   C11 8057   3.373   1.394   3.330  0.0546  0.3961 -0.3950
   85SLPC  H11A 8058   3.364   1.424   3.437 -1.9017 -0.7140 -0.2078
   85SLPC  H11B 8059   3.273   1.412   3.287  0.0728  1.4024 -0.0414
   85SLPC     P 8060   3.603   1.503   3.324  0.3446  0.0406  0.1485
   85SLPC   O13 8061   3.705   1.492   3.215  0.1470  0.3278 -0.3589
   85SLPC   O14 8062   3.593   1.625   3.404  0.4250  0.4610 -0.0677
   85SLPC   O12 8063   3.467   1.466   3.252  0.4641 -0.3440 -0.2077
   85SLPC   O11 8064   3.624   1.376   3.422 -0.2486 -0.1051  1.0914
   85SLPC    C1 8065   3.763   1.342   3.464  0.0461 -0.3917  0.0979
   85SLPC    HA 8066   3.816   1.285   3.384  0.6086 -0.0355  0.2100
   85SLPC    HB 8067   3.823   1.430   3.495 -0.6048  1.6110 -3.6592
   85SLPC    C2 8068   3.753   1.251   3.590  0.3689  0.7565  0.2137
   85SLPC    HS 8069   3.673   1.182   3.556 -0.0717  0.8802  0.9698
   85SLPC   O21 8070   3.734   1.331   3.704 -0.2847 -0.1965  0.0475
   85SLPC   C21 8071   3.649   1.285   3.794 -0.2433  1.1492  0.3874
   85SLPC   O22 8072   3.607   1.165   3.797 -0.2758 -0.4136  0.1302
   85SLPC   C22 8073   3.633   1.396   3.899 -0.4190 -0.2375 -0.5929
   85SLPC   H2R 8074   3.700   1.481   3.877 -1.7546  1.3778  1.3011
   85SLPC   H2S 8075   3.530   1.437   3.903 -0.0569  0.6280  1.7222
   85SLPC    C3 8076   3.888   1.166   3.600  0.3576  0.3625 -0.7198
   85SLPC    HX 8077   3.962   1.249   3.596 -2.1377  3.0535  2.6252
   85SLPC    HY 8078   3.897   1.105   3.507 -0.9796  0.1967 -0.7711
   85SLPC   O31 8079   3.903   1.093   3.726 -0.2312 -0.0519 -0.1122
   85SLPC   C31 8080   3.847   0.974   3.731 -0.3360 -0.2574  0.1614
   85SLPC   O32 8081   3.788   0.917   3.642  0.5232  0.4383 -0.1980
   85SLPC   C32 8082   3.890   0.920   3.862 -0.8231  0.0727 -0.8907
   85SLPC   H2X 8083   3.853   0.994   3.936 -0.0719  1.3526 -1.7597
   85SLPC   H2Y 8084   4.001   0.915   3.856 -0.7486 -3.1415  0.9417
   85SLPC   C23 8085   3.678   1.352   4.050 -0.3631 -0.3188 -0.0768
   85SLPC   H3R 8086   3.781   1.311   4.041 -0.5684 -1.0160  0.6429
   85SLPC   H3S 8087   3.607   1.269   4.069  0.4523 -0.8891  0.5027
   85SLPC   C24 8088   3.673   1.461   4.160  0.5081  0.2646  0.9338
   85SLPC   H4R 8089   3.587   1.527   4.134  0.2838 -0.2538  0.3422
   85SLPC   H4S 8090   3.760   1.526   4.139  0.4124  0.1987  0.3202
   85SLPC   C25 8091   3.664   1.404   4.300  0.2309 -0.0077  0.3792
   85SLPC   H5R 8092   3.569   1.345   4.303  0.7940 -0.9045  1.9104
   85SLPC   H5S 8093   3.751   1.336   4.304 -0.2218 -0.5465  1.5090
   85SLPC   C26 8094   3.674   1.508   4.408  0.8495  0.5038 -0.1306
   85SLPC   H6R 8095   3.576   1.561   4.411  1.2130  1.1516  1.7742
   85SLPC   H6S 8096   3.763   1.567   4.378  1.0984 -0.7780 -2.1205
   85SLPC   C27 8097   3.712   1.459   4.547 -0.3008 -0.1011  0.4631
   85SLPC   H7R 8098   3.817   1.423   4.541 -1.0812 -2.2136 -2.0447
   85SLPC   H7S 8099   3.644   1.374   4.570 -1.1906  0.2156 -0.8979
   85SLPC   C28 8100   3.714   1.569   4.653  0.5610 -0.4869 -0.8387
   85SLPC   H8R 8101   3.617   1.617   4.629 -0.4032 -2.1892 -0.5568
   85SLPC   H8S 8102   3.789   1.641   4.613 -0.1581  0.9247  0.2923
   85SLPC   C29 8103   3.735   1.515   4.794 -0.3690  0.6147  0.6879
   85SLPC   H9R 8104   3.803   1.429   4.801 -1.4417 -0.2653  0.6154
   85SLPC  C210 8105   3.668   1.548   4.907 -0.3750  0.4779  0.6539
   85SLPC  H10R 8106   3.689   1.487   4.996 -0.8287 -0.3612  0.1909
   85SLPC  C211 8107   3.567   1.656   4.933  0.2381 -0.3902 -0.1373
   85SLPC  H11R 8108   3.602   1.745   4.877  0.2050 -1.1697 -1.4499
   85SLPC  H11S 8109   3.585   1.684   5.039 -3.2664  1.9191 -0.0008
   85SLPC  C212 8110   3.424   1.623   4.903  0.4315 -0.4307 -0.2097
   85SLPC  H12R 8111   3.404   1.551   4.822 -0.1023  0.5253 -0.9411
   85SLPC  C213 8112   3.308   1.675   4.953  0.1492  0.2808  0.1959
   85SLPC  H13R 8113   3.214   1.633   4.913  1.2268 -0.4602 -1.7256
   85SLPC  C214 8114   3.301   1.787   5.051 -0.6199  0.1123  0.1604
   85SLPC  H14R 8115   3.397   1.838   5.070 -1.0534  1.0835 -0.1898
   85SLPC  H14S 8116   3.264   1.732   5.140  0.4032  0.7440  0.9894
   85SLPC  C215 8117   3.197   1.896   5.027  0.4932 -0.3026  0.1625
   85SLPC  H15R 8118   3.214   1.967   5.111  1.0777  1.1708 -1.1581
   85SLPC  H15S 8119   3.094   1.856   5.032 -0.1131  1.2343  0.6125
   85SLPC  C216 8120   3.219   1.959   4.889 -0.0216 -0.5991  0.5024
   85SLPC  H16R 8121   3.186   1.909   4.795 -0.8615  0.5196  0.1841
   85SLPC  H16S 8122   3.326   1.987   4.881 -0.5142  1.4347  0.6272
   85SLPC  C217 8123   3.130   2.091   4.872 -0.1131  0.4815  0.1520
   85SLPC  H17R 8124   3.041   2.075   4.937 -1.5951 -2.3607 -2.3539
   85SLPC  H17S 8125   3.098   2.101   4.767  1.6807 -2.5158 -0.8069
   85SLPC  C218 8126   3.198   2.210   4.929 -0.4215 -0.1321  0.1169
   85SLPC  H18R 8127   3.125   2.293   4.939 -0.1598  0.3760 -1.7679
   85SLPC  H18S 8128   3.268   2.258   4.857  0.0622 -0.1540  0.5631
   85SLPC  H18T 8129   3.255   2.187   5.021  0.3027 -1.4396 -0.6309
   85SLPC   C33 8130   3.818   0.789   3.903  0.0533  0.0191 -0.1300
   85SLPC   H3X 8131   3.813   0.712   3.823  2.2300 -0.7896  0.4535
   85SLPC   H3Y 8132   3.714   0.812   3.936  0.6968  1.6699  0.8786
   85SLPC   C34 8133   3.881   0.726   4.029  0.1359  0.2891 -0.4345
   85SLPC   H4X 8134   3.991   0.740   4.021  0.7476 -3.0433  0.6228
   85SLPC   H4Y 8135   3.868   0.616   4.038 -0.1446  0.3387 -0.2028
   85SLPC   C35 8136   3.841   0.787   4.161 -0.0552 -0.1387  0.3970
   85SLPC   H5X 8137   3.730   0.783   4.174 -0.1149  1.0190  0.4176
   85SLPC   H5Y 8138   3.871   0.894   4.152  0.1458 -0.1237  1.1137
   85SLPC   C36 8139   3.917   0.723   4.276  0.0959 -0.6494  0.3257
   85SLPC   H6X 8140   4.022   0.713   4.242  0.3594 -0.5316  1.0833
   85SLPC   H6Y 8141   3.875   0.620   4.279  2.1625 -1.5722 -0.5450
   85SLPC   C37 8142   3.893   0.787   4.417 -0.2717  0.0660  0.3096
   85SLPC   H7X 8143   3.946   0.725   4.493 -0.0896  1.1402  1.0818
   85SLPC   H7Y 8144   3.785   0.779   4.442 -0.5555 -1.2763 -1.1961
   85SLPC   C38 8145   3.956   0.926   4.429  0.2326 -0.0731  0.8530
   85SLPC   H8X 8146   3.896   0.990   4.361  1.0685  0.1195  0.2883
   85SLPC   H8Y 8147   4.064   0.925   4.403  0.1748  1.8590  0.4517
   85SLPC   C39 8148   3.938   0.980   4.572 -0.2585  0.8934 -0.1592
   85SLPC   H9X 8149   4.015   0.941   4.643 -1.2698  1.9878  1.5868
   85SLPC   H9Y 8150   3.840   0.955   4.616  1.7408 -2.7874  2.7796
   85SLPC  C310 8151   3.943   1.137   4.591 -0.6172 -0.3753  0.0592
   85SLPC  H10X 8152   3.856   1.182   4.538 -1.3068 -2.1873 -0.4173
   85SLPC  H10Y 8153   4.042   1.170   4.551 -0.9461 -1.0683 -1.3870
   85SLPC  C311 8154   3.938   1.176   4.738  0.2984 -0.1466  0.4805
   85SLPC  H11X 8155   3.943   1.287   4.739  0.1724 -0.0927  3.2965
   85SLPC  H11Y 8156   4.029   1.129   4.781  1.5963 -1.8870 -3.6635
   85SLPC  C312 8157   3.811   1.148   4.817  0.6341 -0.3978 -0.2824
   85SLPC  H12X 8158   3.801   1.038   4.801 -1.4559 -0.2230 -0.4608
   85SLPC  H12Y 8159   3.722   1.202   4.776 -0.0538 -0.4312  1.1259
   85SLPC  C313 8160   3.822   1.193   4.964 -0.0544  0.0958  0.4169
   85SLPC  H13X 8161   3.865   1.296   4.973 -2.0061  1.1129 -1.0402
   85SLPC  H13Y 8162   3.908   1.141   5.010 -0.0364  0.2970  0.6189
   85SLPC  C314 8163   3.697   1.168   5.051  0.8319 -0.4260  0.0096
   85SLPC  H14X 8164   3.673   1.060   5.046 -3.7159  0.4051 -0.7175
   85SLPC  H14Y 8165   3.615   1.228   5.007 -0.1903  0.5917  3.0357
   85SLPC  C315 8166   3.706   1.205   5.203 -0.0867  0.8028 -0.5119
   85SLPC  H15X 8167   3.750   1.121   5.262 -0.7110  0.4881 -0.4758
   85SLPC  H15Y 8168   3.602   1.216   5.240 -0.4725 -0.1226 -1.2892
   85SLPC  C316 8169   3.795   1.329   5.239 -0.1083  0.2650 -0.1420
   85SLPC  H16X 8170   3.751   1.423   5.197  0.0051  0.1503 -0.5254
   85SLPC  H16Y 8171   3.883   1.306   5.175 -1.8995 -0.9582 -2.3393
   85SLPC  C317 8172   3.835   1.338   5.389  0.7087  0.0327  0.5094
   85SLPC  H17X 8173   3.885   1.240   5.405 -2.1064 -1.8310 -1.2409
   85SLPC  H17Y 8174   3.752   1.347   5.462  2.6507 -0.2187  2.8879
   85SLPC  C318 8175   3.919   1.461   5.412  0.4514 -0.8134  0.2143
   85SLPC  H18X 8176   3.875   1.558   5.381  0.1080 -1.3346 -0.9777
   85SLPC  H18Y 8177   4.005   1.442   5.344 -0.9273  0.5525 -2.0295
   85SLPC  H18Z 8178   3.964   1.463   5.514  0.6084  3.1316  0.1981
   86SLPC     N 8179   4.857   4.301   2.240 -0.0876 -0.0262  0.5528
   86SLPC   C13 8180   4.803   4.186   2.311 -0.8304 -0.1877 -0.0137
   86SLPC  H13A 8181   4.728   4.223   2.379 -0.2038  0.5208  0.3043
   86SLPC  H13B 8182   4.739   4.130   2.245  2.6271 -0.1609 -3.8072
   86SLPC  H13C 8183   4.871   4.123   2.367 -0.0329  0.6542 -0.0010
   86SLPC   C14 8184   4.935   4.263   2.118  0.2379  0.0182 -0.3838
   86SLPC  H14A 8185   4.958   4.351   2.059  0.1479  0.1563 -0.2123
   86SLPC  H14B 8186   5.017   4.197   2.144  1.3921  1.9814  1.3111
   86SLPC  H14C 8187   4.869   4.209   2.052 -1.0996  0.2434  0.7389
   86SLPC   C15 8188   4.944   4.391   2.325  0.7812 -0.3831  0.1627
   86SLPC  H15A 8189   5.050   4.372   2.315  0.5028 -1.8918 -0.0768
   86SLPC  H15B 8190   4.924   4.495   2.302  0.0934 -0.3956  0.6994
   86SLPC  H15C 8191   4.924   4.379   2.430  0.0299  1.8632  0.3321
   86SLPC   C12 8192   4.735   4.386   2.191 -0.4831  0.1244 -0.1241
   86SLPC  H12A 8193   4.675   4.317   2.134 -0.6661  0.0912  0.1095
   86SLPC  H12B 8194   4.781   4.452   2.118 -0.8767 -0.2109 -0.6813
   86SLPC   C11 8195   4.642   4.469   2.284 -0.6135  0.0399  0.5586
   86SLPC  H11A 8196   4.586   4.544   2.223  0.1260  0.8095  0.8100
   86SLPC  H11B 8197   4.701   4.534   2.352 -0.7685  1.2431 -0.4216
   86SLPC     P 8198   4.474   4.422   2.473 -0.2677  0.0124 -0.0371
   86SLPC   O13 8199   4.390   4.542   2.444 -0.0986  0.1666  0.4137
   86SLPC   O14 8200   4.399   4.306   2.526 -0.6933  0.1211  0.2718
   86SLPC   O12 8201   4.544   4.382   2.343 -0.2460 -0.0086  0.2276
   86SLPC   O11 8202   4.592   4.460   2.570  0.5803  0.2164  0.9041
   86SLPC    C1 8203   4.676   4.359   2.625 -0.7040 -0.3386  0.4050
   86SLPC    HA 8204   4.672   4.258   2.579 -0.1156 -0.5563  0.8115
   86SLPC    HB 8205   4.781   4.393   2.613 -0.2454 -1.9579 -0.3633
   86SLPC    C2 8206   4.640   4.341   2.774 -0.5099  1.3142  0.2980
   86SLPC    HS 8207   4.531   4.319   2.782 -0.3267  0.6054  0.9828
   86SLPC   O21 8208   4.676   4.462   2.843 -0.1450  0.9255 -0.3753
   86SLPC   C21 8209   4.576   4.550   2.873  0.3862  0.1871  0.0589
   86SLPC   O22 8210   4.458   4.540   2.843  0.3239  0.0779  0.5957
   86SLPC   C22 8211   4.625   4.667   2.953 -0.3262  0.2785 -0.5823
   86SLPC   H2R 8212   4.709   4.635   3.017 -0.5068 -0.0189 -0.4889
   86SLPC   H2S 8213   4.664   4.739   2.878  2.0354 -1.0479 -0.7130
   86SLPC    C3 8214   4.712   4.225   2.839 -0.4395  0.6070 -1.0143
   86SLPC    HX 8215   4.822   4.238   2.831 -0.2717  1.2573  1.4743
   86SLPC    HY 8216   4.676   4.125   2.808 -1.4563  1.2262 -1.9240
   86SLPC   O31 8217   4.672   4.231   2.985 -0.5509  0.5025 -0.3699
   86SLPC   C31 8218   4.746   4.156   3.066 -0.1841  0.6422 -0.4358
   86SLPC   O32 8219   4.832   4.075   3.041  0.4897  0.3744  0.3937
   86SLPC   C32 8220   4.693   4.196   3.213 -0.8389  0.0273  0.1559
   86SLPC   H2X 8221   4.586   4.169   3.225 -0.8436  0.1623  0.4312
   86SLPC   H2Y 8222   4.693   4.307   3.211  0.3764  0.0450 -1.5943
   86SLPC   C23 8223   4.511   4.728   3.041  0.4117  1.0844 -0.2734
   86SLPC   H3R 8224   4.430   4.755   2.969 -3.1245 -0.3279  2.8304
   86SLPC   H3S 8225   4.535   4.827   3.084 -0.1899  1.4555 -0.7597
   86SLPC   C24 8226   4.459   4.642   3.154  0.9460 -0.7373  0.0516
   86SLPC   H4R 8227   4.416   4.543   3.126  1.2141 -0.9674  0.4383
   86SLPC   H4S 8228   4.369   4.690   3.198 -0.9782 -3.3306 -0.7818
   86SLPC   C25 8229   4.562   4.613   3.264  0.4203  0.1439 -0.3421
   86SLPC   H5R 8230   4.602   4.713   3.292 -1.6013  0.6722  0.8633
   86SLPC   H5S 8231   4.638   4.539   3.229  0.8369  0.5287 -0.2567
   86SLPC   C26 8232   4.490   4.565   3.391  0.1565  0.5450  0.5648
   86SLPC   H6R 8233   4.424   4.478   3.370 -1.0448  1.7983 -1.1638
   86SLPC   H6S 8234   4.415   4.644   3.416  0.0472  1.0163 -1.1486
   86SLPC   C27 8235   4.578   4.555   3.515  0.3269  0.2951  0.1129
   86SLPC   H7R 8236   4.637   4.649   3.519  0.2464  0.3070  1.4166
   86SLPC   H7S 8237   4.644   4.469   3.490 -0.0217  0.5364 -1.8444
   86SLPC   C28 8238   4.495   4.522   3.641  0.5934 -0.2647 -0.5986
   86SLPC   H8R 8239   4.561   4.470   3.714 -1.9413 -2.9347 -0.0283
   86SLPC   H8S 8240   4.421   4.444   3.615 -1.0319  1.1187 -0.2908
   86SLPC   C29 8241   4.409   4.638   3.689  0.0326  0.8000 -0.2857
   86SLPC   H9R 8242   4.354   4.681   3.604 -1.4242 -0.3883  0.0165
   86SLPC  C210 8243   4.396   4.685   3.811 -0.2169 -0.4904 -0.3577
   86SLPC  H10R 8244   4.324   4.768   3.815  0.1667 -0.2012  1.5047
   86SLPC  C211 8245   4.453   4.645   3.946  0.0066 -0.5045  0.0955
   86SLPC  H11R 8246   4.494   4.736   3.995 -2.6106  2.1135 -2.1349
   86SLPC  H11S 8247   4.536   4.572   3.942 -0.4031 -1.1378  1.9986
   86SLPC  C212 8248   4.358   4.576   4.043 -0.6151  0.1874  0.3949
   86SLPC  H12R 8249   4.320   4.482   4.003  0.9767 -0.3892  0.1650
   86SLPC  C213 8250   4.325   4.607   4.169  0.2343 -0.6102 -0.0547
   86SLPC  H13R 8251   4.267   4.540   4.233  0.8663 -0.2915  0.8653
   86SLPC  C214 8252   4.375   4.733   4.240  0.5656 -0.3323  0.0947
   86SLPC  H14R 8253   4.317   4.814   4.190  1.9609  0.2807 -0.5978
   86SLPC  H14S 8254   4.482   4.760   4.226 -0.1671  3.1857  0.1759
   86SLPC  C215 8255   4.345   4.742   4.390 -0.0717  0.2794 -0.0998
   86SLPC  H15R 8256   4.242   4.713   4.420  0.0699  0.8684  0.9962
   86SLPC  H15S 8257   4.367   4.850   4.400  1.7694  0.5753 -4.9461
   86SLPC  C216 8258   4.434   4.644   4.471 -0.2181 -0.4122 -0.3413
   86SLPC  H16R 8259   4.536   4.646   4.428 -0.1958 -1.8753 -0.4284
   86SLPC  H16S 8260   4.399   4.539   4.460  0.5150 -0.4706 -2.4877
   86SLPC  C217 8261   4.435   4.670   4.628 -0.7277 -0.5728 -0.4526
   86SLPC  H17R 8262   4.326   4.671   4.647 -0.7365 -1.6221 -0.4005
   86SLPC  H17S 8263   4.483   4.768   4.651 -2.4755  1.1077 -3.2910
   86SLPC  C218 8264   4.511   4.562   4.715 -0.6692 -0.2773  0.0207
   86SLPC  H18R 8265   4.493   4.463   4.668 -0.1437 -0.1467 -0.4791
   86SLPC  H18S 8266   4.471   4.559   4.818 -0.9272 -1.0912 -0.0981
   86SLPC  H18T 8267   4.620   4.583   4.713 -0.4971 -0.8054  1.8748
   86SLPC   C33 8268   4.779   4.124   3.316 -0.2993  0.5141 -1.3043
   86SLPC   H3X 8269   4.882   4.166   3.314 -0.4115  0.8932  0.0055
   86SLPC   H3Y 8270   4.790   4.015   3.302  0.2952  0.3519  0.2184
   86SLPC   C34 8271   4.721   4.146   3.462 -0.3341  0.4965 -0.1810
   86SLPC   H4X 8272   4.624   4.092   3.462  0.8557 -1.8417 -1.7562
   86SLPC   H4Y 8273   4.713   4.253   3.489 -0.6417  0.0527  1.6935
   86SLPC   C35 8274   4.818   4.080   3.566  1.0641 -0.0180  0.1588
   86SLPC   H5X 8275   4.922   4.108   3.539  1.1622 -0.1610  0.3913
   86SLPC   H5Y 8276   4.804   3.972   3.548  0.2281  0.4283 -2.1842
   86SLPC   C36 8277   4.786   4.101   3.718 -0.5606  0.6477 -0.7496
   86SLPC   H6X 8278   4.684   4.059   3.733  0.3930 -2.0499 -1.3348
   86SLPC   H6Y 8279   4.786   4.212   3.730 -2.8655  0.5854  0.5036
   86SLPC   C37 8280   4.875   4.017   3.803  0.4204 -0.2976 -0.4984
   86SLPC   H7X 8281   4.982   4.048   3.802  0.4339 -0.2054  1.0149
   86SLPC   H7Y 8282   4.867   3.911   3.773 -0.8415 -0.0314 -1.1991
   86SLPC   C38 8283   4.832   4.031   3.949 -0.5660 -0.2000 -0.1326
   86SLPC   H8X 8284   4.753   3.955   3.965  0.5694 -0.8585  2.9072
   86SLPC   H8Y 8285   4.790   4.134   3.952  1.0681  0.5268 -0.8986
   86SLPC   C39 8286   4.942   4.010   4.062 -0.2294  0.0126  1.0133
   86SLPC   H9X 8287   5.024   4.078   4.031 -1.8927  0.8691 -1.8415
   86SLPC   H9Y 8288   4.977   3.905   4.077  2.2665  0.6965  0.3458
   86SLPC  C310 8289   4.890   4.046   4.196  1.0026 -0.2781  0.2616
   86SLPC  H10X 8290   4.781   4.024   4.200  0.8191  0.7299  1.0660
   86SLPC  H10Y 8291   4.897   4.156   4.203  0.9244  0.0753 -3.2242
   86SLPC  C311 8292   4.974   3.981   4.309  0.2329 -0.2245 -1.1988
   86SLPC  H11X 8293   5.081   3.982   4.278  0.9908  4.8506  0.6501
   86SLPC  H11Y 8294   4.945   3.874   4.323  0.5244 -0.3981 -1.8745
   86SLPC  C312 8295   4.962   4.059   4.434  0.2655  0.1762 -0.4837
   86SLPC  H12X 8296   4.856   4.061   4.465  0.9909 -1.0955  2.3828
   86SLPC  H12Y 8297   4.993   4.164   4.414 -0.8999  0.7544  0.6780
   86SLPC  C313 8298   5.035   4.001   4.560 -0.5909  0.0738 -0.0940
   86SLPC  H13X 8299   5.009   4.065   4.647  0.4006  2.9177 -1.7567
   86SLPC  H13Y 8300   5.143   4.018   4.543 -0.8421  3.0533  0.6597
   86SLPC  C314 8301   5.002   3.858   4.583  1.0470 -0.9457 -0.2608
   86SLPC  H14X 8302   5.043   3.794   4.501  1.8445  0.1964 -0.7820
   86SLPC  H14Y 8303   4.892   3.849   4.575  0.8379 -0.3865  1.5945
   86SLPC  C315 8304   5.037   3.804   4.728 -0.9325 -0.2516  0.2620
   86SLPC  H15X 8305   5.040   3.694   4.711 -0.1310 -0.4763  1.7571
   86SLPC  H15Y 8306   4.961   3.823   4.806 -1.3614  0.3071 -0.2881
   86SLPC  C316 8307   5.180   3.825   4.780 -0.6637 -0.3918  0.1971
   86SLPC  H16X 8308   5.190   3.935   4.790  0.3800 -0.5366  0.9091
   86SLPC  H16Y 8309   5.255   3.794   4.705  1.1619 -0.5042  1.9741
   86SLPC  C317 8310   5.203   3.754   4.914 -0.0866 -0.3889 -0.4717
   86SLPC  H17X 8311   5.105   3.755   4.965 -1.4187  1.3489 -2.8741
   86SLPC  H17Y 8312   5.278   3.817   4.966 -0.9495 -0.0719  0.4104
   86SLPC  C318 8313   5.247   3.604   4.900 -0.6024  0.1568  0.6021
   86SLPC  H18X 8314   5.297   3.577   4.996 -0.1441 -3.8353 -0.5837
   86SLPC  H18Y 8315   5.316   3.606   4.814  0.5756  0.8439  1.5237
   86SLPC  H18Z 8316   5.161   3.539   4.873  0.2148 -0.5105 -0.4419
   87SLPC     N 8317   2.528   2.205   3.008  0.0065  0.0637 -0.3700
   87SLPC   C13 8318   2.517   2.063   3.016  0.2266  0.3988 -0.6035
   87SLPC  H13A 8319   2.557   2.008   2.932 -1.3541 -4.2727  1.3711
   87SLPC  H13B 8320   2.564   2.032   3.109  0.1569  0.6409 -0.4883
   87SLPC  H13C 8321   2.413   2.035   3.016  0.4277 -0.3921 -0.0170
   87SLPC   C14 8322   2.478   2.265   2.881  0.4494  0.2576 -0.3924
   87SLPC  H14A 8323   2.541   2.232   2.801  0.3640  0.4712 -0.5489
   87SLPC  H14B 8324   2.372   2.246   2.870  0.5210  0.4521 -1.5474
   87SLPC  H14C 8325   2.477   2.373   2.883 -0.9561  0.3049 -1.8191
   87SLPC   C15 8326   2.676   2.238   3.019 -0.0352  0.0045  0.0322
   87SLPC  H15A 8327   2.718   2.187   2.933 -2.2394 -0.9158 -0.5941
   87SLPC  H15B 8328   2.698   2.343   3.016  2.9043 -0.5090  0.8916
   87SLPC  H15C 8329   2.728   2.208   3.108  3.6112 -1.5170 -2.3945
   87SLPC   C12 8330   2.454   2.272   3.123  0.1691  0.4866  0.2145
   87SLPC  H12A 8331   2.478   2.216   3.211 -0.4183  1.9193  1.3318
   87SLPC  H12B 8332   2.348   2.269   3.105  0.3177 -1.1999 -0.5983
   87SLPC   C11 8333   2.479   2.423   3.156 -0.4822  0.4506 -0.5426
   87SLPC  H11A 8334   2.584   2.429   3.192 -0.0108  0.7438 -1.8829
   87SLPC  H11B 8335   2.414   2.441   3.244 -0.2148  0.3927 -0.3335
   87SLPC     P 8336   2.556   2.635   3.057 -0.3684  0.0330  0.5148
   87SLPC   O13 8337   2.687   2.582   3.022  0.2311  0.4416 -0.4129
   87SLPC   O14 8338   2.499   2.741   2.967 -0.3434 -0.0760 -0.1200
   87SLPC   O12 8339   2.460   2.512   3.048 -0.0033 -0.0144  0.1531
   87SLPC   O11 8340   2.545   2.688   3.210  0.4211  0.0854 -0.5625
   87SLPC    C1 8341   2.422   2.733   3.263 -0.2565 -0.3138 -0.0314
   87SLPC    HA 8342   2.346   2.748   3.183 -1.9103  1.0925  1.7266
   87SLPC    HB 8343   2.384   2.655   3.331  1.0785 -1.7244 -0.8193
   87SLPC    C2 8344   2.439   2.865   3.337 -0.6794 -0.2231  0.2778
   87SLPC    HS 8345   2.485   2.937   3.266 -1.5341  0.0208 -0.0367
   87SLPC   O21 8346   2.529   2.837   3.449 -0.2224 -0.7824 -0.0813
   87SLPC   C21 8347   2.586   2.939   3.503  0.2404  0.7316  0.1334
   87SLPC   O22 8348   2.564   3.054   3.467 -0.4293 -0.3602 -0.1222
   87SLPC   C22 8349   2.665   2.894   3.623 -0.4062  0.2614 -0.2862
   87SLPC   H2R 8350   2.611   2.817   3.681  0.9035  1.0271  2.0573
   87SLPC   H2S 8351   2.765   2.856   3.592 -0.5324  0.2080 -0.6356
   87SLPC    C3 8352   2.298   2.926   3.376 -0.5606  0.3218  0.5810
   87SLPC    HX 8353   2.228   2.926   3.290  0.0713  0.8111  0.0463
   87SLPC    HY 8354   2.306   3.036   3.394 -1.9405  0.7833 -1.3336
   87SLPC   O31 8355   2.237   2.875   3.494  0.0679 -0.4015  0.4297
   87SLPC   C31 8356   2.157   2.766   3.477  0.2084 -0.1861  0.2807
   87SLPC   O32 8357   2.111   2.727   3.369 -0.5742  0.4176  0.4250
   87SLPC   C32 8358   2.147   2.691   3.606 -0.0024  0.0541  0.6991
   87SLPC   H2X 8359   2.236   2.709   3.671 -0.0736 -1.1647  1.1763
   87SLPC   H2Y 8360   2.139   2.582   3.583 -1.0355  0.2509  0.0652
   87SLPC   C23 8361   2.701   3.016   3.711 -0.4702  0.3052  0.2998
   87SLPC   H3R 8362   2.599   3.055   3.728 -0.6745  0.5669 -1.3496
   87SLPC   H3S 8363   2.752   3.096   3.653  0.0989  0.8571  1.5208
   87SLPC   C24 8364   2.773   2.980   3.837  0.1213 -0.2683  0.0567
   87SLPC   H4R 8365   2.878   3.015   3.835  1.0547 -2.8332 -0.5028
   87SLPC   H4S 8366   2.769   2.870   3.856 -0.1454 -0.2252  0.2733
   87SLPC   C25 8367   2.707   3.041   3.957 -0.2610 -0.8291 -0.1829
   87SLPC   H5R 8368   2.600   3.012   3.950 -1.2523  2.5228 -0.9581
   87SLPC   H5S 8369   2.706   3.152   3.947 -0.5305 -0.5477  2.2225
   87SLPC   C26 8370   2.765   3.015   4.094 -0.4444 -0.1591 -0.0180
   87SLPC   H6R 8371   2.788   2.908   4.111  1.2834  0.1287 -0.3769
   87SLPC   H6S 8372   2.720   3.048   4.190  0.1043 -1.4264  0.6939
   87SLPC   C27 8373   2.905   3.083   4.124  0.4327  0.3038  0.3518
   87SLPC   H7R 8374   2.897   3.192   4.105  2.9159  0.3872 -0.6916
   87SLPC   H7S 8375   2.973   3.050   4.042 -1.6135 -1.4989 -0.7072
   87SLPC   C28 8376   2.956   3.044   4.263 -0.2770  1.1898  0.2095
   87SLPC   H8R 8377   2.869   3.023   4.329  1.2735 -0.6661  1.7757
   87SLPC   H8S 8378   3.013   3.123   4.316  1.6998 -0.5256  0.7946
   87SLPC   C29 8379   3.040   2.910   4.255 -0.1816 -0.5243  0.1269
   87SLPC   H9R 8380   2.980   2.821   4.229 -0.0872 -0.8962  1.1226
   87SLPC  C210 8381   3.181   2.904   4.262 -0.1418  0.7118  0.2473
   87SLPC  H10R 8382   3.223   2.803   4.258 -0.1596  0.7383 -2.0669
   87SLPC  C211 8383   3.274   3.021   4.296  0.2474  0.1037  0.0990
   87SLPC  H11R 8384   3.254   3.108   4.230 -2.0263  0.3136  0.9578
   87SLPC  H11S 8385   3.379   2.994   4.272  0.1998 -0.4337  0.4827
   87SLPC  C212 8386   3.245   3.074   4.436 -0.2679 -0.2370 -0.1600
   87SLPC  H12R 8387   3.168   3.152   4.446  0.6611  0.6969 -0.1832
   87SLPC  C213 8388   3.303   3.035   4.550  0.5714  0.3978  0.4761
   87SLPC  H13R 8389   3.259   3.072   4.644 -0.9380  0.9041 -0.3905
   87SLPC  C214 8390   3.415   2.931   4.566 -0.1507  0.4969  0.2906
   87SLPC  H14R 8391   3.449   2.888   4.469 -1.6854 -0.8196  0.2886
   87SLPC  H14S 8392   3.375   2.844   4.623 -0.9799 -0.4556 -1.6379
   87SLPC  C215 8393   3.557   2.989   4.618  0.4599  0.1082 -0.3533
   87SLPC  H15R 8394   3.571   3.091   4.574 -0.9006 -0.0164 -1.1647
   87SLPC  H15S 8395   3.642   2.923   4.593  1.1020  1.7538 -2.9383
   87SLPC  C216 8396   3.569   3.001   4.767 -0.0932  0.2903  0.2663
   87SLPC  H16R 8397   3.560   2.901   4.816  0.0720  0.2956  0.3066
   87SLPC  H16S 8398   3.481   3.057   4.804 -0.3989  0.9863 -1.4194
   87SLPC  C217 8399   3.702   3.056   4.831  1.1456 -0.6943 -0.0024
   87SLPC  H17R 8400   3.712   3.155   4.782 -3.9388  0.3273  0.4671
   87SLPC  H17S 8401   3.784   2.985   4.806  1.0137 -0.8599  0.0350
   87SLPC  C218 8402   3.678   3.090   4.980 -0.2044  0.7998  0.5062
   87SLPC  H18R 8403   3.752   3.164   5.014 -1.1982  0.6780  3.1410
   87SLPC  H18S 8404   3.691   2.999   5.043 -0.6317 -0.2613 -0.8735
   87SLPC  H18T 8405   3.583   3.145   4.997 -0.6600  0.4286 -0.6988
   87SLPC   C33 8406   2.021   2.716   3.703 -0.1653  0.1725  0.4159
   87SLPC   H3X 8407   1.934   2.656   3.668  0.8660 -0.8006 -0.5647
   87SLPC   H3Y 8408   2.004   2.826   3.704  1.1934  0.3952  0.0947
   87SLPC   C34 8409   2.058   2.680   3.849 -0.1670 -0.3375  0.2958
   87SLPC   H4X 8410   2.143   2.745   3.877  0.9146 -1.7785  0.4169
   87SLPC   H4Y 8411   2.103   2.579   3.843 -1.4649 -0.9073 -0.2440
   87SLPC   C35 8412   1.944   2.670   3.956 -0.5642  0.6906 -0.1871
   87SLPC   H5X 8413   1.863   2.599   3.931  0.0391  0.3328 -1.1599
   87SLPC   H5Y 8414   1.902   2.773   3.956  0.9580  1.3583  1.0248
   87SLPC   C36 8415   2.002   2.646   4.101  0.2404  0.7309 -0.2129
   87SLPC   H6X 8416   1.982   2.743   4.153 -0.0872 -0.7116  2.5626
   87SLPC   H6Y 8417   2.109   2.620   4.107  0.1505  0.6009  1.1384
   87SLPC   C37 8418   1.913   2.543   4.178 -0.1048 -0.3941 -0.4614
   87SLPC   H7X 8419   1.909   2.442   4.130  1.4311 -1.0201  0.6515
   87SLPC   H7Y 8420   1.814   2.594   4.180  0.3922  0.8763 -3.1897
   87SLPC   C38 8421   1.954   2.514   4.328  0.4476 -0.0364  0.5676
   87SLPC   H8X 8422   1.968   2.609   4.385  0.9784  0.0189  0.3563
   87SLPC   H8Y 8423   2.055   2.467   4.322  1.1524  1.4905 -3.8490
   87SLPC   C39 8424   1.854   2.420   4.398  0.1798  0.4635 -0.1118
   87SLPC   H9X 8425   1.838   2.325   4.342 -4.6406  1.1320 -0.2920
   87SLPC   H9Y 8426   1.758   2.470   4.376  0.4445  0.0186 -2.5969
   87SLPC  C310 8427   1.889   2.389   4.542 -0.7102  0.5419  0.1026
   87SLPC  H10X 8428   1.925   2.488   4.579 -1.3033 -0.2490  3.0473
   87SLPC  H10Y 8429   1.976   2.321   4.555 -2.1202 -2.0292 -2.5797
   87SLPC  C311 8430   1.778   2.356   4.642 -1.1150 -0.2728 -0.3699
   87SLPC  H11X 8431   1.739   2.253   4.626  1.4190 -1.7348  1.9924
   87SLPC  H11Y 8432   1.691   2.426   4.633 -1.5187 -0.9166 -1.6290
   87SLPC  C312 8433   1.833   2.347   4.788 -0.2398  0.5952  0.4928
   87SLPC  H12X 8434   1.877   2.447   4.805 -3.3598  1.9183  1.5765
   87SLPC  H12Y 8435   1.907   2.264   4.787 -0.8338 -0.0152 -2.3722
   87SLPC  C313 8436   1.721   2.316   4.893 -0.2088 -0.3698  0.7509
   87SLPC  H13X 8437   1.679   2.220   4.855 -1.1139  0.3672 -0.2101
   87SLPC  H13Y 8438   1.634   2.385   4.887  0.3806  0.3107 -0.2646
   87SLPC  C314 8439   1.790   2.305   5.033  0.1789 -0.2983  0.0201
   87SLPC  H14X 8440   1.840   2.402   5.053  0.3738 -0.5391  0.7603
   87SLPC  H14Y 8441   1.881   2.243   5.019  0.5522  0.3629 -0.4905
   87SLPC  C315 8442   1.694   2.251   5.144 -0.4738  0.6085 -0.1614
   87SLPC  H15X 8443   1.700   2.140   5.140 -1.1226  0.6012 -1.0081
   87SLPC  H15Y 8444   1.590   2.290   5.140  0.9269  4.9419  0.3918
   87SLPC  C316 8445   1.740   2.298   5.285 -0.0939 -0.0392 -0.1680
   87SLPC  H16X 8446   1.669   2.277   5.368  0.4954 -0.8885  0.1425
   87SLPC  H16Y 8447   1.738   2.409   5.277  1.3129 -0.1386 -3.6028
   87SLPC  C317 8448   1.884   2.242   5.315 -0.3163  0.4917 -0.6669
   87SLPC  H17X 8449   1.924   2.280   5.411  1.7783 -2.4787 -0.2176
   87SLPC  H17Y 8450   1.957   2.278   5.239 -0.0368  0.3309 -0.4762
   87SLPC  C318 8451   1.896   2.078   5.325 -1.0452 -0.6066 -0.8333
   87SLPC  H18X 8452   1.854   2.041   5.229 -1.0186 -0.3991 -0.9256
   87SLPC  H18Y 8453   1.845   2.030   5.412 -0.0307 -2.4760 -1.2171
   87SLPC  H18Z 8454   1.998   2.035   5.330 -0.4261  0.9323  2.8530
   88SLPC     N 8455   5.475   3.087   1.852 -0.1709 -0.1801 -0.1746
   88SLPC   C13 8456   5.519   3.064   1.708  1.2467  0.1890 -0.2533
   88SLPC  H13A 8457   5.435   3.069   1.640  0.9333 -0.1112  0.1081
   88SLPC  H13B 8458   5.595   3.138   1.688  0.3411  1.0987 -0.4675
   88SLPC  H13C 8459   5.562   2.966   1.697  3.4666  0.7835  2.2769
   88SLPC   C14 8460   5.441   3.231   1.887 -0.8511 -0.1405  0.1542
   88SLPC  H14A 8461   5.349   3.267   1.844  1.2608  2.0600 -3.0012
   88SLPC  H14B 8462   5.425   3.242   1.993 -2.6580 -1.1262  0.0319
   88SLPC  H14C 8463   5.517   3.301   1.854 -2.0066  1.4272  0.7301
   88SLPC   C15 8464   5.587   3.039   1.938 -0.2349  0.2478  0.7646
   88SLPC  H15A 8465   5.623   2.943   1.901  0.2197  0.8544 -0.4389
   88SLPC  H15B 8466   5.669   3.109   1.942 -1.1269  1.3593  0.2725
   88SLPC  H15C 8467   5.563   3.029   2.042  2.9667 -0.2743  1.5602
   88SLPC   C12 8468   5.349   3.000   1.892 -0.5001  0.3043 -0.0803
   88SLPC  H12A 8469   5.379   2.896   1.894 -0.0077  0.4571  0.8981
   88SLPC  H12B 8470   5.266   3.016   1.824 -2.3718  3.0513  2.5917
   88SLPC   C11 8471   5.285   3.019   2.035  0.1015  0.0377  0.7909
   88SLPC  H11A 8472   5.208   2.940   2.051 -2.0972  2.0365  0.6125
   88SLPC  H11B 8473   5.231   3.116   2.033 -0.0874 -0.0646  0.8548
   88SLPC     P 8474   5.400   3.130   2.243  0.4076  0.1795  0.1973
   88SLPC   O13 8475   5.477   3.243   2.180  0.0342 -0.1662 -0.2388
   88SLPC   O14 8476   5.272   3.165   2.309  0.1634 -0.0867 -0.3731
   88SLPC   O12 8477   5.379   3.009   2.143 -0.7466  0.3416 -0.1842
   88SLPC   O11 8478   5.486   3.076   2.360 -0.0370 -0.5192  0.0807
   88SLPC    C1 8479   5.620   3.110   2.381  0.0644 -0.0346  0.4370
   88SLPC    HA 8480   5.683   3.020   2.399  0.7548  0.1692 -0.8405
   88SLPC    HB 8481   5.666   3.169   2.299  0.1240 -1.7092 -0.7893
   88SLPC    C2 8482   5.646   3.191   2.512  0.0731 -0.1998  0.9574
   88SLPC    HS 8483   5.756   3.203   2.512  0.1382 -0.3927 -1.5195
   88SLPC   O21 8484   5.606   3.121   2.635 -0.1331  0.0275  0.3038
   88SLPC   C21 8485   5.640   3.188   2.745  0.2004  0.3836  0.5789
   88SLPC   O22 8486   5.695   3.293   2.754  0.0075  0.1791  0.1412
   88SLPC   C22 8487   5.611   3.093   2.865 -0.8441  0.3312  0.1586
   88SLPC   H2R 8488   5.505   3.063   2.872  0.3581 -4.2724  1.4547
   88SLPC   H2S 8489   5.670   3.000   2.851  0.7546  1.4934 -1.3019
   88SLPC    C3 8490   5.570   3.323   2.495 -0.1439 -0.3227 -0.6654
   88SLPC    HX 8491   5.547   3.351   2.390  0.8131 -0.4784 -0.9303
   88SLPC    HY 8492   5.651   3.397   2.514 -1.0247  0.6632 -0.6940
   88SLPC   O31 8493   5.451   3.344   2.568  0.0525 -0.1043 -0.5808
   88SLPC   C31 8494   5.443   3.454   2.644 -0.0449  0.0029 -0.0849
   88SLPC   O32 8495   5.532   3.539   2.645  0.1338 -0.2013  0.3792
   88SLPC   C32 8496   5.311   3.467   2.723 -0.5914  0.7635  0.4147
   88SLPC   H2X 8497   5.233   3.451   2.645 -1.1310  1.6750  0.7548
   88SLPC   H2Y 8498   5.296   3.572   2.758  1.1877  0.4079  2.4168
   88SLPC   C23 8499   5.657   3.155   2.993  0.4867  0.0688 -0.2425
   88SLPC   H3R 8500   5.603   3.250   3.014 -0.1837  0.2231 -2.3271
   88SLPC   H3S 8501   5.762   3.185   2.975  0.2017  1.5038  0.3585
   88SLPC   C24 8502   5.650   3.049   3.109  0.1088 -0.8287  0.1445
   88SLPC   H4R 8503   5.699   3.106   3.191  3.8795 -1.9551 -1.1032
   88SLPC   H4S 8504   5.709   2.964   3.067 -1.3790 -1.5747 -0.5251
   88SLPC   C25 8505   5.506   3.009   3.152 -0.3679  0.8609  0.2983
   88SLPC   H5R 8506   5.444   2.976   3.066 -0.0328  0.4350  0.2169
   88SLPC   H5S 8507   5.458   3.103   3.188  2.0049  1.7085  1.4815
   88SLPC   C26 8508   5.497   2.916   3.272 -0.0798  0.0311 -0.9002
   88SLPC   H6R 8509   5.528   2.821   3.222  1.7716 -0.0585  0.3082
   88SLPC   H6S 8510   5.392   2.909   3.306  0.2791 -0.7040  0.1227
   88SLPC   C27 8511   5.591   2.939   3.399  0.2123 -0.1704 -0.2272
   88SLPC   H7R 8512   5.632   3.042   3.393 -0.2752  0.0199 -0.3370
   88SLPC   H7S 8513   5.681   2.874   3.398 -0.1114 -0.6997  1.7703
   88SLPC   C28 8514   5.511   2.936   3.535  0.1249 -0.3229 -0.2093
   88SLPC   H8R 8515   5.416   2.984   3.506  0.3674 -0.5590 -1.4677
   88SLPC   H8S 8516   5.566   3.000   3.606 -1.2602  1.9847 -1.1206
   88SLPC   C29 8517   5.486   2.794   3.587 -0.0891  0.7990  0.7736
   88SLPC   H9R 8518   5.440   2.728   3.512  0.6023  0.8413  0.2950
   88SLPC  C210 8519   5.522   2.733   3.702 -0.0430 -0.1246 -0.0913
   88SLPC  H10R 8520   5.496   2.629   3.728  1.4756 -0.5607 -0.1917
   88SLPC  C211 8521   5.591   2.810   3.816 -0.0153  0.1297  0.4992
   88SLPC  H11R 8522   5.528   2.885   3.867 -0.6940 -0.0594 -0.0547
   88SLPC  H11S 8523   5.669   2.876   3.771 -0.1615  1.9357  2.7016
   88SLPC  C212 8524   5.673   2.724   3.915  0.0691  0.1540 -0.1020
   88SLPC  H12R 8525   5.742   2.650   3.873  3.4753  1.7982  2.1201
   88SLPC  C213 8526   5.661   2.703   4.044 -0.5836  0.5350 -0.0924
   88SLPC  H13R 8527   5.716   2.621   4.092 -1.8009  0.8911  2.0479
   88SLPC  C214 8528   5.563   2.784   4.133 -0.1225 -0.2989 -0.1861
   88SLPC  H14R 8529   5.515   2.724   4.212 -0.1131  1.3366  1.1247
   88SLPC  H14S 8530   5.487   2.824   4.063  0.4090 -1.8932 -1.7563
   88SLPC  C215 8531   5.625   2.915   4.185 -0.7600 -0.1850  0.1080
   88SLPC  H15R 8532   5.546   2.972   4.238 -1.7630 -0.1919 -1.3083
   88SLPC  H15S 8533   5.644   2.984   4.099 -2.8794  1.8373  1.1323
   88SLPC  C216 8534   5.755   2.902   4.265  0.3037 -0.4195 -0.0590
   88SLPC  H16R 8535   5.842   2.859   4.211  0.7973  0.0047  0.3861
   88SLPC  H16S 8536   5.733   2.825   4.342 -0.9217 -0.9614 -0.9221
   88SLPC  C217 8537   5.800   3.030   4.339  0.2084  0.6405  0.5586
   88SLPC  H17R 8538   5.879   3.007   4.414  0.0444  1.8919  1.1354
   88SLPC  H17S 8539   5.716   3.075   4.396  1.2637 -0.0593  2.7745
   88SLPC  C218 8540   5.851   3.137   4.246 -0.0131 -0.0554  0.0697
   88SLPC  H18R 8541   5.951   3.113   4.204  1.1037  2.8416  0.8402
   88SLPC  H18S 8542   5.859   3.231   4.304 -1.0377 -0.8917  1.6180
   88SLPC  H18T 8543   5.779   3.160   4.164 -0.7840 -0.8841  0.5008
   88SLPC   C33 8544   5.289   3.361   2.834 -0.4810 -0.1381  0.3273
   88SLPC   H3X 8545   5.322   3.263   2.795 -0.0072  1.0003 -2.3453
   88SLPC   H3Y 8546   5.179   3.358   2.852 -0.2601 -1.9414  1.6544
   88SLPC   C34 8547   5.342   3.402   2.969  0.1652  0.0236 -0.7392
   88SLPC   H4X 8548   5.446   3.439   2.961  0.0065  0.7645  0.4876
   88SLPC   H4Y 8549   5.336   3.308   3.028 -0.7831 -0.9385 -2.2904
   88SLPC   C35 8550   5.269   3.513   3.044  0.5128 -0.8093 -0.0580
   88SLPC   H5X 8551   5.164   3.488   3.071 -0.2088  3.2039  1.6122
   88SLPC   H5Y 8552   5.266   3.601   2.976 -0.0191 -0.3589  0.5364
   88SLPC   C36 8553   5.316   3.524   3.181 -0.2245  0.2716 -0.5121
   88SLPC   H6X 8554   5.288   3.615   3.237  1.1132  1.7678 -2.1477
   88SLPC   H6Y 8555   5.426   3.540   3.187 -0.3734  0.8354  1.2737
   88SLPC   C37 8556   5.288   3.397   3.263 -0.4148 -0.6718 -0.3862
   88SLPC   H7X 8557   5.365   3.319   3.245  1.2317  1.2731 -2.3444
   88SLPC   H7Y 8558   5.187   3.353   3.248  0.2608 -2.2294 -0.5638
   88SLPC   C38 8559   5.310   3.423   3.416  0.9257 -0.0355  0.5945
   88SLPC   H8X 8560   5.293   3.329   3.473  0.3933  0.9106  2.0691
   88SLPC   H8Y 8561   5.222   3.481   3.453 -1.5460 -2.2531 -1.3777
   88SLPC   C39 8562   5.442   3.495   3.459  0.8773 -0.4957  0.0790
   88SLPC   H9X 8563   5.466   3.591   3.408  0.4465 -1.1875 -1.4818
   88SLPC   H9Y 8564   5.527   3.433   3.422  2.9082  2.0950  0.0895
   88SLPC  C310 8565   5.455   3.512   3.612 -0.4422  0.3511  0.5441
   88SLPC  H10X 8566   5.381   3.583   3.655  1.7763  2.4908  1.0407
   88SLPC  H10Y 8567   5.554   3.561   3.620  0.7970 -0.9811 -3.6080
   88SLPC  C311 8568   5.454   3.381   3.696 -0.3665  0.6755 -0.3169
   88SLPC  H11X 8569   5.510   3.300   3.645 -0.7893 -0.2437  0.6588
   88SLPC  H11Y 8570   5.348   3.348   3.700 -0.7769  1.9964  0.2487
   88SLPC  C312 8571   5.500   3.393   3.840  0.5006 -0.0467 -0.3340
   88SLPC  H12X 8572   5.449   3.469   3.902 -1.0351 -1.3747  0.0968
   88SLPC  H12Y 8573   5.607   3.426   3.840  0.5967 -0.1713 -2.7619
   88SLPC  C313 8574   5.478   3.269   3.918 -0.1895  0.6269  0.2283
   88SLPC  H13X 8575   5.546   3.191   3.877  0.5044  1.3323  0.0201
   88SLPC  H13Y 8576   5.375   3.229   3.909  0.6985 -1.8152  0.2506
   88SLPC  C314 8577   5.513   3.277   4.068  0.4517 -0.2065  0.3087
   88SLPC  H14X 8578   5.616   3.319   4.080 -0.1291  1.1414  0.7418
   88SLPC  H14Y 8579   5.517   3.180   4.121 -2.7159 -0.8649 -0.5136
   88SLPC  C315 8580   5.408   3.354   4.146 -0.0181 -0.1697 -0.0368
   88SLPC  H15X 8581   5.309   3.304   4.137 -0.6252  0.8408  0.8370
   88SLPC  H15Y 8582   5.386   3.455   4.104 -0.3545  0.0196  0.5924
   88SLPC  C316 8583   5.437   3.369   4.296  0.0865  0.4747 -0.7461
   88SLPC  H16X 8584   5.512   3.449   4.310  1.5713 -0.9654 -0.2300
   88SLPC  H16Y 8585   5.466   3.274   4.346 -0.1644  1.4654  1.3932
   88SLPC  C317 8586   5.313   3.421   4.373 -0.4280 -0.2644 -0.3860
   88SLPC  H17X 8587   5.230   3.346   4.373  0.2549 -1.0882  1.7371
   88SLPC  H17Y 8588   5.284   3.513   4.318  1.4140  0.7676  0.2894
   88SLPC  C318 8589   5.335   3.459   4.523  0.0398 -0.1036  0.3889
   88SLPC  H18X 8590   5.409   3.542   4.522 -0.0908  0.0191 -0.5218
   88SLPC  H18Y 8591   5.360   3.367   4.580  1.3172 -0.6286 -0.9300
   88SLPC  H18Z 8592   5.241   3.499   4.566  1.1869  1.5124  1.5300
   89SAPE     N 8593   2.155   6.535   7.597  0.3788  0.8024 -0.2427
   89SAPE   HN1 8594   2.108   6.545   7.689  2.4362 -1.6815  1.1794
   89SAPE   HN2 8595   2.239   6.597   7.601  0.5306  0.5262  1.1995
   89SAPE   HN3 8596   2.082   6.565   7.529 -0.1113  4.5088  1.6565
   89SAPE   C12 8597   2.185   6.393   7.577  0.8249 -0.2203  0.9559
   89SAPE  H12A 8598   2.096   6.327   7.587  0.2528  0.4699  0.4585
   89SAPE  H12B 8599   2.267   6.358   7.643  2.2982  1.8596  0.3427
   89SAPE   C11 8600   2.221   6.385   7.425 -0.4799  0.4496 -0.0276
   89SAPE  H11A 8601   2.255   6.281   7.404  0.1580  0.9943 -1.9152
   89SAPE  H11B 8602   2.299   6.458   7.396 -0.8122  0.4176 -1.0517
   89SAPE     P 8603   2.007   6.311   7.287 -0.3950  0.4887  0.0179
   89SAPE   O13 8604   1.952   6.251   7.407 -0.3233  0.4485 -0.0470
   89SAPE   O14 8605   1.919   6.371   7.187  0.0303  0.1419 -0.8805
   89SAPE   O12 8606   2.111   6.422   7.340 -0.6692  0.0864  0.4031
   89SAPE   O11 8607   2.103   6.208   7.206  0.6985  0.7927  0.1997
   89SAPE    C1 8608   2.212   6.250   7.127  0.0132  0.5579 -0.3891
   89SAPE    HA 8609   2.246   6.352   7.155  1.2487  0.0811 -0.0851
   89SAPE    HB 8610   2.311   6.207   7.155  0.3314 -0.1251 -2.4302
   89SAPE    C2 8611   2.189   6.242   6.978 -0.2613  0.4517  0.2560
   89SAPE    HS 8612   2.277   6.292   6.931 -0.5380  1.3542  0.6650
   89SAPE   O21 8613   2.066   6.310   6.949 -0.3023 -0.0264 -0.2657
   89SAPE   C21 8614   2.081   6.438   6.914 -0.6067 -0.4899  0.1248
   89SAPE   O22 8615   2.183   6.498   6.922 -0.5033 -0.6714 -0.1976
   89SAPE   C22 8616   1.953   6.478   6.855 -0.3720  0.2275 -0.4191
   89SAPE   H2R 8617   1.935   6.420   6.761  0.0438 -0.2065 -0.2366
   89SAPE   H2S 8618   1.874   6.463   6.931  0.5978  0.8830  0.7586
   89SAPE    C3 8619   2.165   6.101   6.926 -0.7402 -0.4790  0.5954
   89SAPE    HX 8620   2.092   6.043   6.986 -2.1810 -0.5064 -1.1092
   89SAPE    HY 8621   2.258   6.041   6.936 -0.3868 -0.1246 -0.4194
   89SAPE   O31 8622   2.140   6.097   6.777  0.3686  0.1838 -0.1654
   89SAPE   C31 8623   2.017   6.114   6.731 -0.1662 -0.2929 -0.2131
   89SAPE   O32 8624   1.917   6.118   6.804 -0.6127  0.2251 -0.2812
   89SAPE   C32 8625   2.014   6.129   6.578 -0.5951  0.3799  0.2106
   89SAPE   H2X 8626   1.967   6.229   6.562  0.0058  0.8316  1.2040
   89SAPE   H2Y 8627   1.943   6.048   6.552  0.9908 -1.6038  1.7870
   89SAPE   C23 8628   1.969   6.627   6.813 -0.5565 -0.3436  0.1074
   89SAPE   H3R 8629   2.058   6.630   6.747  1.1542 -1.1516  2.2738
   89SAPE   H3S 8630   1.993   6.696   6.897 -0.8855 -1.2235  0.9414
   89SAPE   C24 8631   1.842   6.668   6.732 -0.0751 -0.0806  0.3851
   89SAPE   H4R 8632   1.848   6.637   6.626  0.1631 -2.1908  0.9648
   89SAPE   H4S 8633   1.859   6.778   6.723 -0.6065 -0.0474 -0.2798
   89SAPE   C25 8634   1.712   6.644   6.789  0.6050  0.3510  0.9250
   89SAPE   H5R 8635   1.683   6.702   6.878 -2.4740 -0.9889  0.9049
   89SAPE   C26 8636   1.621   6.560   6.747 -0.0299  0.5539  0.3559
   89SAPE   H6R 8637   1.536   6.551   6.816 -0.8486 -0.5092 -0.7488
   89SAPE   C27 8638   1.614   6.473   6.623 -0.5146  0.1707  0.1189
   89SAPE   H7R 8639   1.676   6.527   6.548 -0.4426  0.0140  0.0651
   89SAPE   H7S 8640   1.519   6.479   6.566  0.0733 -1.7454 -1.1955
   89SAPE   C28 8641   1.665   6.330   6.627 -0.0437  0.1833  0.2153
   89SAPE   H8R 8642   1.673   6.293   6.731  1.1580  1.6364  0.6697
   89SAPE   C29 8643   1.715   6.262   6.524 -0.1235 -0.5526 -0.1340
   89SAPE   H9R 8644   1.751   6.160   6.546  0.8898 -0.0322  0.6894
   89SAPE  C210 8645   1.723   6.309   6.383 -0.6011 -0.8461 -0.7927
   89SAPE  H10R 8646   1.817   6.366   6.375 -0.6334 -0.7678 -0.6256
   89SAPE  H10S 8647   1.643   6.381   6.357  0.9673  1.4652  0.4973
   89SAPE  C211 8648   1.722   6.198   6.286 -0.8280 -0.6786  0.2782
   89SAPE  H11R 8649   1.674   6.101   6.307 -0.2530 -1.4774 -1.8565
   89SAPE  C212 8650   1.749   6.225   6.157 -0.0117 -0.8561  0.7544
   89SAPE  H12R 8651   1.744   6.138   6.089 -3.0176  0.4407 -0.8492
   89SAPE  C213 8652   1.803   6.353   6.087  0.2964  0.0747 -0.0177
   89SAPE  H13R 8653   1.756   6.438   6.140 -1.5504  1.3089 -3.3043
   89SAPE  H13S 8654   1.772   6.358   5.980 -0.8920  2.0354  0.3652
   89SAPE  C214 8655   1.955   6.359   6.081  0.1908  0.3627 -0.8110
   89SAPE  H14R 8656   2.002   6.265   6.112 -3.1624 -0.5617  2.1614
   89SAPE  C215 8657   2.035   6.457   6.034  0.3140  0.2918  0.2363
   89SAPE  H15R 8658   2.145   6.445   6.029  0.2034 -0.3610 -1.6605
   89SAPE  C216 8659   1.985   6.594   5.986 -0.0501  0.0954  1.0625
   89SAPE  H16R 8660   2.018   6.678   6.051  1.7215  1.7136 -1.7263
   89SAPE  H16S 8661   1.875   6.599   5.995 -0.1254 -0.8723  0.7933
   89SAPE  C217 8662   2.032   6.623   5.839 -0.4034  0.2963  0.1943
   89SAPE  H17R 8663   2.141   6.632   5.820 -0.7406  3.9209 -0.8039
   89SAPE  H17S 8664   1.981   6.716   5.805 -2.6103 -0.1877  1.9423
   89SAPE  C218 8665   1.995   6.518   5.732  0.1344 -0.1102 -0.2329
   89SAPE  H18R 8666   1.888   6.491   5.731 -0.3182  1.5675  0.5446
   89SAPE  H18S 8667   2.053   6.428   5.765 -0.9178 -0.3997  0.8714
   89SAPE  C219 8668   2.040   6.544   5.593 -0.0663 -0.2518 -0.8455
   89SAPE  H19R 8669   2.146   6.573   5.583 -0.3417  0.6712 -1.2201
   89SAPE  H19S 8670   1.984   6.637   5.567 -1.2196 -0.7798 -0.3274
   89SAPE  C220 8671   2.020   6.431   5.487 -0.6229  0.3367 -0.0940
   89SAPE  H20R 8672   2.053   6.452   5.383 -0.9757  1.4712  0.0086
   89SAPE  H20S 8673   1.911   6.412   5.477 -0.9196  2.5094 -1.4918
   89SAPE  H20T 8674   2.077   6.348   5.534 -1.1832  0.4009  0.7214
   89SAPE   C33 8675   2.148   6.110   6.501  0.0388 -0.6846 -0.9434
   89SAPE   H3X 8676   2.118   6.112   6.394  0.5260  0.3151 -1.0808
   89SAPE   H3Y 8677   2.187   6.008   6.520 -1.4625 -1.2263 -0.6638
   89SAPE   C34 8678   2.246   6.224   6.519  0.1195  0.2329 -0.0228
   89SAPE   H4X 8679   2.270   6.246   6.625  0.0754 -1.0467  0.2642
   89SAPE   H4Y 8680   2.187   6.316   6.500 -2.0473 -0.7075  1.6871
   89SAPE   C35 8681   2.367   6.224   6.430  0.1790  0.2924  0.5662
   89SAPE   H5X 8682   2.423   6.128   6.425  0.4130  0.4368  0.3272
   89SAPE   H5Y 8683   2.437   6.304   6.462 -2.8306  3.7015 -0.6527
   89SAPE   C36 8684   2.328   6.250   6.283 -0.1536  0.0988  0.5668
   89SAPE   H6X 8685   2.291   6.354   6.268 -0.9459 -0.1217  0.9126
   89SAPE   H6Y 8686   2.244   6.183   6.253  1.2566 -1.5620  0.1604
   89SAPE   C37 8687   2.446   6.238   6.180  0.0502  0.5617  0.3961
   89SAPE   H7X 8688   2.487   6.134   6.182  2.3158  1.3175 -1.9600
   89SAPE   H7Y 8689   2.527   6.312   6.195  0.9997 -0.5414  0.9186
   89SAPE   C38 8690   2.399   6.253   6.035 -0.3511 -0.6626  0.6680
   89SAPE   H8X 8691   2.356   6.354   6.017 -1.7319 -1.7984 -3.2695
   89SAPE   H8Y 8692   2.321   6.176   6.019  1.7813 -3.0135  1.0486
   89SAPE   C39 8693   2.519   6.224   5.935 -0.0118 -0.1001 -0.0694
   89SAPE   H9X 8694   2.580   6.147   5.987  0.6179 -0.1804 -0.9026
   89SAPE   H9Y 8695   2.581   6.317   5.928 -0.5023  0.2182 -0.2567
   89SAPE  C310 8696   2.462   6.170   5.800 -0.0141  0.5353 -1.0264
   89SAPE  H10X 8697   2.359   6.129   5.807 -1.0758  3.0632 -0.6825
   89SAPE  H10Y 8698   2.542   6.105   5.759  0.0950  1.9689 -3.1983
   89SAPE  C311 8699   2.446   6.290   5.701  0.3243  0.1607 -0.3429
   89SAPE  H11X 8700   2.544   6.339   5.683 -0.1698  0.4108 -2.7147
   89SAPE  H11Y 8701   2.374   6.359   5.749 -0.7615  2.3210 -4.6399
   89SAPE  C312 8702   2.396   6.250   5.562 -0.5875 -0.0060 -0.8171
   89SAPE  H12X 8703   2.296   6.205   5.580 -0.2869 -0.5836 -0.5672
   89SAPE  H12Y 8704   2.472   6.174   5.534  1.5428  1.9914 -0.7411
   89SAPE  C313 8705   2.384   6.363   5.467  0.2669  0.6110 -0.2257
   89SAPE  H13X 8706   2.488   6.399   5.453  0.3886  0.6857  0.7519
   89SAPE  H13Y 8707   2.333   6.450   5.515 -1.3406  0.2282 -1.1709
   89SAPE  C314 8708   2.323   6.328   5.328  0.4105  0.3288  0.3435
   89SAPE  H14X 8709   2.213   6.330   5.344 -0.2605  0.5806 -3.4202
   89SAPE  H14Y 8710   2.364   6.227   5.306  2.3521  1.3460 -1.0668
   89SAPE  C315 8711   2.371   6.428   5.214 -0.0276  0.4955  0.3233
   89SAPE  H15X 8712   2.342   6.531   5.242  0.4525  1.0752 -1.2116
   89SAPE  H15Y 8713   2.319   6.416   5.117 -1.1514  2.6367  0.6162
   89SAPE  C316 8714   2.523   6.439   5.186  0.2272 -0.5572 -0.9451
   89SAPE  H16X 8715   2.564   6.336   5.185  1.0377 -0.2465 -0.9295
   89SAPE  H16Y 8716   2.580   6.474   5.275  1.4775 -1.0361 -1.5431
   89SAPE  C317 8717   2.555   6.536   5.068  0.6491  0.0767 -0.1944
   89SAPE  H17X 8718   2.512   6.635   5.096 -0.4435 -0.6954  0.9558
   89SAPE  H17Y 8719   2.512   6.507   4.970 -1.6986  0.8056  0.5563
   89SAPE  C318 8720   2.705   6.555   5.041  0.0774  0.3771  0.4084
   89SAPE  H18X 8721   2.718   6.605   4.943 -4.3021 -1.2409 -1.2434
   89SAPE  H18Y 8722   2.752   6.456   5.023  0.1745  0.6296 -0.8324
   89SAPE  H18Z 8723   2.743   6.614   5.127 -0.4003  3.0365 -1.1021
   90SAPE     N 8724   4.834   5.037   7.200 -0.2432  0.1827 -0.2789
   90SAPE   HN1 8725   4.824   5.138   7.174 -2.0919 -0.1714 -1.0772
   90SAPE   HN2 8726   4.919   5.018   7.258  0.8804  2.6702 -0.9608
   90SAPE   HN3 8727   4.841   4.986   7.110 -0.1357  0.2736 -0.3237
   90SAPE   C12 8728   4.717   4.991   7.275  0.9311  0.2148  0.4732
   90SAPE  H12A 8729   4.712   5.029   7.379  0.8773 -0.6504  0.7880
   90SAPE  H12B 8730   4.731   4.883   7.293 -1.9157 -0.4103 -0.4630
   90SAPE   C11 8731   4.590   5.030   7.203 -0.3645  0.6689  0.3213
   90SAPE  H11A 8732   4.584   5.007   7.095 -1.8664  1.3973  0.2189
   90SAPE  H11B 8733   4.583   5.138   7.229 -0.1229  0.1394  2.9020
   90SAPE     P 8734   4.438   4.817   7.243 -0.1795 -0.0327 -0.2649
   90SAPE   O13 8735   4.550   4.749   7.177  0.5589 -0.0593 -0.1650
   90SAPE   O14 8736   4.393   4.763   7.372 -0.3739 -0.1472  0.3572
   90SAPE   O12 8737   4.476   4.972   7.263 -0.5270 -0.0284 -0.1763
   90SAPE   O11 8738   4.312   4.816   7.146  0.3283 -0.1368  0.1166
   90SAPE    C1 8739   4.332   4.853   7.012  0.0122 -0.5103 -0.8519
   90SAPE    HA 8740   4.378   4.954   7.011 -0.2739 -0.3215  1.1050
   90SAPE    HB 8741   4.391   4.772   6.963 -0.4230  0.3903 -2.9500
   90SAPE    C2 8742   4.196   4.854   6.943 -0.0834 -0.3198 -0.0606
   90SAPE    HS 8743   4.154   4.752   6.954  0.3275 -0.4316  0.5511
   90SAPE   O21 8744   4.214   4.883   6.805  0.2790 -0.1434 -0.0915
   90SAPE   C21 8745   4.235   4.789   6.714 -0.1409  0.4323  0.9799
   90SAPE   O22 8746   4.255   4.677   6.740  0.1512  0.8217  0.4074
   90SAPE   C22 8747   4.200   4.843   6.578 -0.1383  0.3687  0.2349
   90SAPE   H2R 8748   4.099   4.891   6.584 -0.6306 -0.7167  0.9078
   90SAPE   H2S 8749   4.277   4.916   6.546  2.2106 -1.9173  0.3896
   90SAPE    C3 8750   4.104   4.963   7.009  0.1588  0.5167 -0.7207
   90SAPE    HX 8751   4.148   5.062   6.985  1.1255 -0.2163 -2.1338
   90SAPE    HY 8752   4.100   4.961   7.120  1.0715  1.5701 -0.6577
   90SAPE   O31 8753   3.972   4.948   6.950 -0.2858 -0.4793  0.1976
   90SAPE   C31 8754   3.884   5.052   6.960  0.8765 -0.2672  0.0573
   90SAPE   O32 8755   3.905   5.164   6.997 -0.9092  0.1723  0.1944
   90SAPE   C32 8756   3.751   5.000   6.925 -0.0166 -0.9206  0.2401
   90SAPE   H2X 8757   3.721   4.949   7.019  1.4908 -2.7512 -0.2020
   90SAPE   H2Y 8758   3.761   4.911   6.860  0.0974 -1.1499  0.5675
   90SAPE   C23 8759   4.180   4.733   6.464 -0.1305 -0.5475  0.2607
   90SAPE   H3R 8760   4.084   4.684   6.490 -1.6075  1.5035 -0.9731
   90SAPE   H3S 8761   4.266   4.663   6.467  0.1906 -0.1532  2.3236
   90SAPE   C24 8762   4.182   4.808   6.331 -0.3486 -0.1791 -0.2144
   90SAPE   H4R 8763   4.276   4.862   6.308 -0.9050  0.2770 -1.5344
   90SAPE   H4S 8764   4.092   4.872   6.320 -0.0524  0.3702  0.5492
   90SAPE   C25 8765   4.171   4.700   6.220 -0.1396  0.2130 -0.0509
   90SAPE   H5R 8766   4.098   4.624   6.252 -3.9135  1.1439 -5.1810
   90SAPE   C26 8767   4.235   4.694   6.100 -0.9307 -0.8434 -0.1862
   90SAPE   H6R 8768   4.220   4.601   6.042 -2.0675 -0.3662 -0.6820
   90SAPE   C27 8769   4.330   4.796   6.044 -0.3246 -0.5716  0.5109
   90SAPE   H7R 8770   4.398   4.747   5.971 -0.3830  1.2110 -0.8054
   90SAPE   H7S 8771   4.404   4.830   6.119 -1.0387  0.9836  0.5473
   90SAPE   C28 8772   4.254   4.917   5.981 -0.4189  0.6046  0.5453
   90SAPE   H8R 8773   4.198   4.977   6.055 -1.8551 -2.1713  1.8837
   90SAPE   C29 8774   4.259   4.954   5.850 -0.7128 -0.0035 -0.5099
   90SAPE   H9R 8775   4.205   5.046   5.824  1.9793  2.1295  0.7899
   90SAPE  C210 8776   4.326   4.890   5.734  0.0976 -0.5113 -0.1997
   90SAPE  H10R 8777   4.259   4.893   5.646 -2.4025 -0.6460  1.6005
   90SAPE  H10S 8778   4.337   4.780   5.747  1.2354 -0.5026 -0.8875
   90SAPE  C211 8779   4.464   4.948   5.706 -0.0013  0.3624 -1.1404
   90SAPE  H11R 8780   4.525   4.937   5.797  0.3634  0.6684 -1.3430
   90SAPE  C212 8781   4.502   5.009   5.591 -0.1714  0.0109  0.0319
   90SAPE  H12R 8782   4.606   5.043   5.590  0.6010 -2.1707  0.6111
   90SAPE  C213 8783   4.409   5.050   5.477 -0.6039 -0.5636  0.6137
   90SAPE  H13R 8784   4.307   5.078   5.510 -0.2734  1.4833  0.0512
   90SAPE  H13S 8785   4.392   4.967   5.405  1.8808 -0.3564 -0.2906
   90SAPE  C214 8786   4.463   5.165   5.395  0.5472 -0.5671 -0.0882
   90SAPE  H14R 8787   4.417   5.263   5.416  2.1311  0.0227  0.8817
   90SAPE  C215 8788   4.554   5.164   5.299 -0.2591 -0.0035  0.6490
   90SAPE  H15R 8789   4.580   5.267   5.269 -0.0034 -0.1120  0.4958
   90SAPE  C216 8790   4.643   5.052   5.247  0.5975  0.0735 -0.2184
   90SAPE  H16R 8791   4.610   4.959   5.299 -0.7616 -0.4885 -1.9729
   90SAPE  H16S 8792   4.747   5.075   5.276  0.5059  1.2671 -0.7685
   90SAPE  C217 8793   4.640   5.038   5.099 -0.6029 -0.6957  0.6783
   90SAPE  H17R 8794   4.651   5.133   5.042 -1.3740 -1.1129 -0.2014
   90SAPE  H17S 8795   4.539   5.000   5.073 -2.2206  3.0036  0.7787
   90SAPE  C218 8796   4.730   4.917   5.050  0.0360 -0.0766 -0.2164
   90SAPE  H18R 8797   4.834   4.954   5.056  0.0556  0.1319 -1.4271
   90SAPE  H18S 8798   4.709   4.888   4.945 -1.9335  0.3799 -0.0048
   90SAPE  C219 8799   4.725   4.790   5.129 -0.4186 -0.1166  0.1852
   90SAPE  H19R 8800   4.618   4.770   5.152 -0.3414 -1.2088 -0.3133
   90SAPE  H19S 8801   4.780   4.813   5.222 -1.7526  1.5638  0.6003
   90SAPE  C220 8802   4.798   4.661   5.077 -0.3604  1.2349 -0.2377
   90SAPE  H20R 8803   4.772   4.582   5.151 -1.6304  1.5524 -0.3230
   90SAPE  H20S 8804   4.908   4.671   5.065  0.1133 -1.7814  0.6461
   90SAPE  H20T 8805   4.760   4.626   4.979  0.9006 -0.8325 -0.0446
   90SAPE   C33 8806   3.651   5.098   6.878 -0.3630  0.0620 -0.7918
   90SAPE   H3X 8807   3.626   5.163   6.966  0.0199 -1.5849  0.5772
   90SAPE   H3Y 8808   3.554   5.045   6.866  0.6532 -1.6373 -1.7668
   90SAPE   C34 8809   3.687   5.177   6.751 -0.6447  0.4088 -0.1483
   90SAPE   H4X 8810   3.775   5.241   6.771 -0.0188 -0.7347  0.8883
   90SAPE   H4Y 8811   3.603   5.243   6.720 -2.4888 -1.8042 -0.1515
   90SAPE   C35 8812   3.708   5.090   6.628 -0.2680 -0.8372  0.2291
   90SAPE   H5X 8813   3.621   5.021   6.619 -0.5638 -0.2730 -1.6730
   90SAPE   H5Y 8814   3.799   5.026   6.629  0.2860 -0.1632 -1.9269
   90SAPE   C36 8815   3.716   5.175   6.500 -0.2125  0.1135 -0.2296
   90SAPE   H6X 8816   3.808   5.238   6.503 -0.0147 -0.2068  0.6931
   90SAPE   H6Y 8817   3.640   5.255   6.509  0.0711  0.4657 -0.8910
   90SAPE   C37 8818   3.725   5.089   6.375  0.1450  0.4572  0.3038
   90SAPE   H7X 8819   3.622   5.057   6.346 -0.6995  2.1338  1.3077
   90SAPE   H7Y 8820   3.784   4.999   6.401  1.4070  1.2625  0.3014
   90SAPE   C38 8821   3.801   5.154   6.262 -0.4810 -0.0675  0.5812
   90SAPE   H8X 8822   3.892   5.202   6.303  0.7287  0.5644 -2.6217
   90SAPE   H8Y 8823   3.745   5.227   6.199  0.0999 -0.9247 -0.9780
   90SAPE   C39 8824   3.840   5.045   6.161  0.4629 -0.0368 -0.2331
   90SAPE   H9X 8825   3.750   5.005   6.109 -0.8166  0.7390  1.3002
   90SAPE   H9Y 8826   3.906   4.974   6.216  0.2475  0.9550  1.3639
   90SAPE  C310 8827   3.914   5.105   6.039  0.3871 -0.7154  1.1245
   90SAPE  H10X 8828   3.943   5.025   5.968 -1.4218 -1.2976  0.9788
   90SAPE  H10Y 8829   4.007   5.160   6.065 -0.4855  0.3210  2.1566
   90SAPE  C311 8830   3.823   5.197   5.953  0.3732  0.1005  0.1935
   90SAPE  H11X 8831   3.809   5.295   6.003 -0.1293 -0.3738  1.0106
   90SAPE  H11Y 8832   3.728   5.145   5.929  1.7472 -1.4352 -2.2605
   90SAPE  C312 8833   3.875   5.238   5.814  0.7742 -0.7812  0.5248
   90SAPE  H12X 8834   3.975   5.284   5.828  0.8137 -0.9104  0.6706
   90SAPE  H12Y 8835   3.805   5.314   5.773  0.5794 -0.1187  2.0133
   90SAPE  C313 8836   3.901   5.122   5.711  0.4693 -0.0812 -0.7144
   90SAPE  H13X 8837   3.804   5.076   5.683  0.0855  0.3202 -0.0567
   90SAPE  H13Y 8838   3.965   5.042   5.753 -0.0967  0.3466  1.0578
   90SAPE  C314 8839   3.973   5.161   5.580 -0.2397 -1.2932  0.3415
   90SAPE  H14X 8840   3.972   5.079   5.506  0.4403 -1.2664  0.3001
   90SAPE  H14Y 8841   4.074   5.190   5.616 -1.4338  0.9917  2.1909
   90SAPE  C315 8842   3.911   5.285   5.511  1.1092  0.2715  0.9633
   90SAPE  H15X 8843   3.909   5.376   5.575  2.6852  0.1652  1.2207
   90SAPE  H15Y 8844   3.804   5.261   5.498  0.7710  0.5443  2.8954
   90SAPE  C316 8845   3.976   5.327   5.379 -0.4634 -0.0738 -0.1513
   90SAPE  H16X 8846   3.946   5.431   5.353 -3.7744 -1.0068 -0.5533
   90SAPE  H16Y 8847   3.950   5.257   5.298  3.1332 -2.2670  0.3757
   90SAPE  C317 8848   4.129   5.340   5.383  0.3777 -0.2310 -0.7707
   90SAPE  H17X 8849   4.177   5.240   5.390  1.1565  0.2476  2.3818
   90SAPE  H17Y 8850   4.160   5.399   5.472  1.6121  2.1523 -2.6352
   90SAPE  C318 8851   4.194   5.416   5.271 -0.1973  0.6493 -0.1849
   90SAPE  H18X 8852   4.140   5.508   5.241  0.6712  1.2141 -0.0508
   90SAPE  H18Y 8853   4.219   5.362   5.177 -0.4498  2.6560 -1.4588
   90SAPE  H18Z 8854   4.293   5.453   5.304 -0.3750  1.7243 -0.8165
   91SAPE     N 8855   2.795   2.216   7.757  1.0790  0.0337  0.1253
   91SAPE   HN1 8856   2.852   2.302   7.743  2.3995 -0.6438  1.0315
   91SAPE   HN2 8857   2.811   2.179   7.854  0.1408 -2.0623 -0.4635
   91SAPE   HN3 8858   2.845   2.149   7.694  1.3741  0.4778 -0.1144
   91SAPE   C12 8859   2.653   2.254   7.741 -0.1903  0.8149 -0.3976
   91SAPE  H12A 8860   2.643   2.315   7.649 -1.7476  1.5178  0.2015
   91SAPE  H12B 8861   2.629   2.316   7.831  0.2577  1.7556 -0.9113
   91SAPE   C11 8862   2.557   2.136   7.735 -0.3110 -0.1265 -0.6237
   91SAPE  H11A 8863   2.575   2.068   7.649  0.6513 -0.9115  0.1679
   91SAPE  H11B 8864   2.452   2.171   7.724 -1.0298 -0.7696  2.9306
   91SAPE     P 8865   2.620   1.924   7.896  0.3275 -0.2097  0.0921
   91SAPE   O13 8866   2.738   1.916   7.806 -0.4148  0.1701  0.3193
   91SAPE   O14 8867   2.635   1.917   8.042 -0.4828  0.0033 -0.3580
   91SAPE   O12 8868   2.549   2.062   7.860  0.1972 -0.8283  0.6053
   91SAPE   O11 8869   2.509   1.812   7.855 -0.1947 -0.5657  0.1229
   91SAPE    C1 8870   2.374   1.846   7.862 -0.4681  0.2751  0.1352
   91SAPE    HA 8871   2.346   1.841   7.970 -0.2151 -1.5642  0.1569
   91SAPE    HB 8872   2.343   1.945   7.824 -1.6199  0.5590  1.7127
   91SAPE    C2 8873   2.287   1.738   7.792 -0.0412 -0.4008  0.2936
   91SAPE    HS 8874   2.182   1.770   7.809 -0.4819 -1.5471 -0.1424
   91SAPE   O21 8875   2.321   1.610   7.856  0.0273  0.1105 -1.0334
   91SAPE   C21 8876   2.230   1.520   7.842 -0.5073 -0.7100 -0.2401
   91SAPE   O22 8877   2.124   1.537   7.791 -0.4052 -0.1457  0.0422
   91SAPE   C22 8878   2.292   1.387   7.887  0.4348  0.7094  0.5736
   91SAPE   H2R 8879   2.380   1.412   7.949  0.0583  3.1852  0.1939
   91SAPE   H2S 8880   2.226   1.326   7.952  0.0283 -0.8358 -1.1833
   91SAPE    C3 8881   2.321   1.738   7.635 -0.1028  1.9243  0.4193
   91SAPE    HX 8882   2.427   1.704   7.632  0.1051  2.0362  3.2735
   91SAPE    HY 8883   2.322   1.840   7.591  1.2022  0.3392 -3.6925
   91SAPE   O31 8884   2.240   1.638   7.563 -0.8089 -0.0547  0.0240
   91SAPE   C31 8885   2.120   1.680   7.519  0.7962 -0.1508 -0.2929
   91SAPE   O32 8886   2.061   1.781   7.549  0.1023  0.2473  0.6999
   91SAPE   C32 8887   2.064   1.568   7.430 -0.4939 -0.1117 -0.4179
   91SAPE   H2X 8888   2.058   1.482   7.500 -0.1872  0.4825  0.3539
   91SAPE   H2Y 8889   2.154   1.551   7.367  0.4689 -0.0096  0.8867
   91SAPE   C23 8890   2.341   1.293   7.777 -0.2663  0.2228  0.3783
   91SAPE   H3R 8891   2.412   1.216   7.816 -0.7622 -0.1869  0.4809
   91SAPE   H3S 8892   2.408   1.351   7.710  0.0305 -1.8738 -1.2597
   91SAPE   C24 8893   2.222   1.226   7.706  0.0746 -0.4038  0.2071
   91SAPE   H4R 8894   2.159   1.308   7.668  2.2411  0.7395 -1.1131
   91SAPE   H4S 8895   2.167   1.161   7.778  0.7531 -0.5633  0.5947
   91SAPE   C25 8896   2.280   1.138   7.603 -0.6241  0.1111 -0.1917
   91SAPE   H5R 8897   2.281   1.032   7.634  1.8152 -0.4897 -2.0587
   91SAPE   C26 8898   2.306   1.167   7.471 -0.2308 -0.3997 -0.2168
   91SAPE   H6R 8899   2.356   1.092   7.409 -0.1420  0.1718 -0.8441
   91SAPE   C27 8900   2.291   1.306   7.407 -0.7577  0.1494  0.2632
   91SAPE   H7R 8901   2.277   1.394   7.474 -1.9451  0.4382 -0.3217
   91SAPE   H7S 8902   2.199   1.302   7.345 -2.3351 -0.9751  2.5206
   91SAPE   C28 8903   2.419   1.340   7.328  0.0731 -0.2422  0.3546
   91SAPE   H8R 8904   2.508   1.368   7.386 -0.4954 -0.0982  1.1796
   91SAPE   C29 8905   2.435   1.349   7.198  0.6071  0.3555  0.5517
   91SAPE   H9R 8906   2.538   1.369   7.166  0.6776 -0.3359  0.3240
   91SAPE  C210 8907   2.338   1.325   7.088 -0.1315 -0.5711  0.4274
   91SAPE  H10R 8908   2.259   1.254   7.122 -0.7206 -1.0179 -1.7562
   91SAPE  H10S 8909   2.382   1.266   7.004 -1.5448  1.7163 -2.0540
   91SAPE  C211 8910   2.280   1.455   7.024  0.0543  0.0527 -0.9166
   91SAPE  H11R 8911   2.178   1.475   7.060 -1.0079 -3.2309 -1.6964
   91SAPE  C212 8912   2.340   1.530   6.930  0.0796 -0.1462  0.2901
   91SAPE  H12R 8913   2.302   1.630   6.903 -0.3622 -0.5135 -0.5096
   91SAPE  C213 8914   2.473   1.506   6.866  0.0341  0.3924 -0.7847
   91SAPE  H13R 8915   2.472   1.402   6.827 -0.4392 -0.8447  2.2416
   91SAPE  H13S 8916   2.562   1.507   6.933  1.2267  0.3818 -2.3106
   91SAPE  C214 8917   2.516   1.606   6.762  0.0802  0.0211  0.5283
   91SAPE  H14R 8918   2.557   1.697   6.809 -0.5009 -0.2119  1.5113
   91SAPE  C215 8919   2.541   1.584   6.625  0.7040 -0.3878  0.5294
   91SAPE  H15R 8920   2.576   1.669   6.564  1.8979 -1.5503 -0.4596
   91SAPE  C216 8921   2.511   1.464   6.545  0.4735  0.4100 -0.7167
   91SAPE  H16R 8922   2.459   1.388   6.607  0.5539 -0.1227 -1.2823
   91SAPE  H16S 8923   2.613   1.424   6.524  0.5893 -0.1347  0.7538
   91SAPE  C217 8924   2.421   1.500   6.425 -0.0710  0.1948  0.8484
   91SAPE  H17R 8925   2.325   1.547   6.456  0.2724  1.1628  0.4717
   91SAPE  H17S 8926   2.412   1.409   6.361 -0.0614 -0.5052  1.8138
   91SAPE  C218 8927   2.464   1.616   6.333 -0.0253 -0.0445 -0.4213
   91SAPE  H18R 8928   2.555   1.599   6.271 -1.9710  0.7319 -3.7598
   91SAPE  H18S 8929   2.486   1.713   6.382  2.3224 -0.7414  0.0333
   91SAPE  C219 8930   2.363   1.637   6.218  0.0226 -0.2044 -0.7582
   91SAPE  H19R 8931   2.396   1.721   6.154  0.8636  0.2178  0.1922
   91SAPE  H19S 8932   2.276   1.678   6.272  1.1398  0.0051  0.9813
   91SAPE  C220 8933   2.334   1.515   6.135 -0.2954  0.5197 -0.3700
   91SAPE  H20R 8934   2.284   1.434   6.192 -1.6720  1.9882  0.5946
   91SAPE  H20S 8935   2.428   1.472   6.095  0.3729  0.2997  1.3497
   91SAPE  H20T 8936   2.266   1.548   6.054 -2.7275 -0.4826  1.1526
   91SAPE   C33 8937   1.933   1.603   7.348 -0.6001 -0.2310  0.8477
   91SAPE   H3X 8938   1.852   1.658   7.400 -1.5616 -0.1455 -0.6757
   91SAPE   H3Y 8939   1.883   1.505   7.331  1.1609 -1.3854  1.9236
   91SAPE   C34 8940   1.972   1.678   7.218 -0.1369  0.4166  0.0707
   91SAPE   H4X 8941   2.049   1.611   7.175  1.0452  2.3770 -1.0206
   91SAPE   H4Y 8942   2.017   1.777   7.238  1.9592 -0.3762 -0.4411
   91SAPE   C35 8943   1.861   1.704   7.112  0.3063 -0.0071  0.2191
   91SAPE   H5X 8944   1.789   1.766   7.170  1.1654 -0.2022  1.5459
   91SAPE   H5Y 8945   1.815   1.607   7.084  0.2865  0.9102 -3.4034
   91SAPE   C36 8946   1.902   1.780   6.985  0.1360  0.0023 -0.4099
   91SAPE   H6X 8947   1.949   1.874   7.023  1.6116 -0.4828 -0.9437
   91SAPE   H6Y 8948   1.811   1.794   6.923 -0.2918 -0.1199  0.1822
   91SAPE   C37 8949   2.012   1.712   6.904 -0.3931  0.2363  0.2520
   91SAPE   H7X 8950   1.986   1.604   6.890  1.4826  0.1076 -4.0293
   91SAPE   H7Y 8951   2.101   1.721   6.970 -2.1576 -1.5874  3.0675
   91SAPE   C38 8952   2.021   1.782   6.770  0.3122  0.0357  0.0690
   91SAPE   H8X 8953   2.044   1.890   6.783 -1.0312  0.1009  2.5517
   91SAPE   H8Y 8954   1.920   1.771   6.727 -0.3088  0.9528  1.2281
   91SAPE   C39 8955   2.114   1.715   6.667 -0.1855  0.5745 -0.4351
   91SAPE   H9X 8956   2.075   1.617   6.631  1.0809  0.0713 -0.4932
   91SAPE   H9Y 8957   2.218   1.708   6.706 -0.2513 -3.5797 -0.5032
   91SAPE  C310 8958   2.116   1.800   6.535  0.0642 -0.3747 -0.6033
   91SAPE  H10X 8959   2.201   1.770   6.469 -0.1268 -1.1991 -0.4867
   91SAPE  H10Y 8960   2.126   1.907   6.561 -2.1760 -0.3131  0.1736
   91SAPE  C311 8961   1.980   1.791   6.457 -0.1193 -0.2788  0.3234
   91SAPE  H11X 8962   1.908   1.856   6.510 -2.5470 -2.5972  0.0754
   91SAPE  H11Y 8963   1.952   1.684   6.465  2.6467 -1.0028  1.5426
   91SAPE  C312 8964   1.989   1.820   6.307  0.2478  0.1810 -0.1473
   91SAPE  H12X 8965   1.888   1.811   6.262  1.0465 -0.1151 -1.9482
   91SAPE  H12Y 8966   2.060   1.741   6.275  1.0253  1.3538 -1.4339
   91SAPE  C313 8967   2.038   1.963   6.261  0.0563  0.3585  0.2376
   91SAPE  H13X 8968   2.140   1.975   6.303 -0.3836 -0.7058  1.7156
   91SAPE  H13Y 8969   1.964   2.041   6.291 -1.8066 -0.3922 -2.1204
   91SAPE  C314 8970   2.030   1.976   6.108 -0.8606  0.5894 -0.4730
   91SAPE  H14X 8971   1.928   1.959   6.069 -0.2798  1.4670 -2.4876
   91SAPE  H14Y 8972   2.092   1.895   6.066  0.6637 -0.4384  3.2804
   91SAPE  C315 8973   2.087   2.100   6.051  0.0900  0.0262  0.9064
   91SAPE  H15X 8974   2.165   2.142   6.118 -0.3764 -2.0189  2.8352
   91SAPE  H15Y 8975   2.016   2.186   6.050 -0.4109 -0.3900  0.5656
   91SAPE  C316 8976   2.149   2.082   5.905 -0.0811 -0.4218 -0.6235
   91SAPE  H16X 8977   2.211   1.990   5.904 -1.3605 -1.3082 -1.5829
   91SAPE  H16Y 8978   2.214   2.170   5.891 -2.8804  1.7680 -0.7730
   91SAPE  C317 8979   2.035   2.084   5.808 -0.3642  1.1079 -0.1838
   91SAPE  H17X 8980   1.983   2.182   5.811 -1.1706  0.7846 -2.3082
   91SAPE  H17Y 8981   1.960   2.006   5.836  0.0129  0.5718 -0.6427
   91SAPE  C318 8982   2.079   2.060   5.662  0.5746  0.2953  0.2987
   91SAPE  H18X 8983   2.130   2.154   5.631 -0.6989  0.5309 -1.2110
   91SAPE  H18Y 8984   1.994   2.039   5.594  1.2723 -1.8401  0.0046
   91SAPE  H18Z 8985   2.152   1.977   5.665  0.5797  0.3198  1.3140
   92SAPE     N 8986   1.918   3.033   7.345  0.3121 -0.1719  0.1785
   92SAPE   HN1 8987   1.853   3.094   7.399  2.0627  2.7727 -0.7977
   92SAPE   HN2 8988   1.938   2.945   7.397  2.0580 -0.9133 -1.6259
   92SAPE   HN3 8989   2.008   3.084   7.335 -0.7710  1.5620 -1.3524
   92SAPE   C12 8990   1.879   3.003   7.203  0.3895 -0.2938 -0.1390
   92SAPE  H12A 8991   1.875   3.105   7.159 -0.9369 -0.1499  0.2616
   92SAPE  H12B 8992   1.778   2.958   7.190  1.0211 -1.8941  0.2762
   92SAPE   C11 8993   1.992   2.921   7.131  0.1271 -0.5093 -0.6069
   92SAPE  H11A 8994   1.954   2.900   7.029  0.8305 -2.0946 -0.5680
   92SAPE  H11B 8995   2.014   2.822   7.176 -0.6838 -0.8498 -0.9382
   92SAPE     P 8996   2.241   2.997   7.182  0.0492  0.3758  0.3256
   92SAPE   O13 8997   2.315   3.118   7.143 -0.1073  0.0216  0.2128
   92SAPE   O14 8998   2.211   2.970   7.320 -0.1688  0.6101 -0.3729
   92SAPE   O12 8999   2.098   3.005   7.119  0.2690 -0.5855  0.0113
   92SAPE   O11 9000   2.309   2.871   7.107  0.2538 -0.0288 -0.8384
   92SAPE    C1 9001   2.311   2.860   6.965 -0.1719  0.4182  0.0262
   92SAPE    HA 9002   2.310   2.755   6.928 -2.6084 -0.0243  1.1150
   92SAPE    HB 9003   2.216   2.902   6.927  0.7430  1.1089 -1.5652
   92SAPE    C2 9004   2.426   2.938   6.898 -1.4892  0.2279  0.9078
   92SAPE    HS 9005   2.442   3.035   6.951 -0.3970  0.7608 -0.3428
   92SAPE   O21 9006   2.387   2.962   6.760 -0.1974 -0.0958 -0.0373
   92SAPE   C21 9007   2.462   3.053   6.697 -0.1802 -0.1096 -0.0047
   92SAPE   O22 9008   2.545   3.131   6.747  0.3659 -0.5209 -0.1516
   92SAPE   C22 9009   2.428   3.028   6.548 -0.2747 -0.0274  0.0035
   92SAPE   H2R 9010   2.413   2.919   6.531  0.2534 -0.0202 -0.5582
   92SAPE   H2S 9011   2.332   3.077   6.523 -0.8152 -0.2187  1.6301
   92SAPE    C3 9012   2.573   2.867   6.909 -0.6470  0.1515  0.5865
   92SAPE    HX 9013   2.588   2.863   7.019  0.3762  2.8076  0.5999
   92SAPE    HY 9014   2.647   2.934   6.861 -0.7204 -0.8599 -1.0229
   92SAPE   O31 9015   2.579   2.733   6.859  0.2533  0.2081  0.3560
   92SAPE   C31 9016   2.632   2.716   6.738  0.1958 -0.0635 -0.3668
   92SAPE   O32 9017   2.673   2.812   6.672  0.7626  0.2776  0.5997
   92SAPE   C32 9018   2.641   2.561   6.704  0.0483 -0.4409  1.1299
   92SAPE   H2X 9019   2.541   2.522   6.735 -0.6409 -0.0481 -0.5256
   92SAPE   H2Y 9020   2.728   2.519   6.759  0.6102 -0.9248 -0.1127
   92SAPE   C23 9021   2.541   3.099   6.460  0.7429  0.0845 -0.6624
   92SAPE   H3R 9022   2.636   3.043   6.467 -1.8421 -4.8173 -0.4869
   92SAPE   H3S 9023   2.561   3.207   6.480 -0.3410  0.7202 -2.7265
   92SAPE   C24 9024   2.498   3.102   6.310  0.0004  0.2673 -0.2323
   92SAPE   H4R 9025   2.562   3.174   6.254 -0.3559  1.2790  0.6236
   92SAPE   H4S 9026   2.394   3.141   6.307 -0.0147  0.1962 -0.9351
   92SAPE   C25 9027   2.506   2.964   6.246 -0.1990 -0.3802  0.2614
   92SAPE   H5R 9028   2.547   2.886   6.311  1.4415 -0.5992 -0.9610
   92SAPE   C26 9029   2.475   2.940   6.113 -0.3976 -0.0901 -0.1178
   92SAPE   H6R 9030   2.476   2.834   6.085 -2.0039 -0.2791  0.4340
   92SAPE   C27 9031   2.430   3.035   6.003  0.1805 -0.1706 -0.5238
   92SAPE   H7R 9032   2.405   3.133   6.050 -0.8024 -0.9153  0.5405
   92SAPE   H7S 9033   2.336   3.008   5.950 -1.0376  0.8914  1.0026
   92SAPE   C28 9034   2.542   3.060   5.904 -0.0753 -0.6145  0.3181
   92SAPE   H8R 9035   2.614   3.139   5.928  1.0344 -1.4371 -0.1798
   92SAPE   C29 9036   2.562   2.984   5.795 -0.0824 -0.0474  0.3358
   92SAPE   H9R 9037   2.645   3.016   5.731 -1.8520  0.8457 -1.6544
   92SAPE  C210 9038   2.483   2.858   5.771 -0.3783  0.1966  0.6328
   92SAPE  H10R 9039   2.376   2.885   5.760 -0.3504  0.8367  1.8743
   92SAPE  H10S 9040   2.476   2.795   5.862  3.2902 -2.5288 -0.6875
   92SAPE  C211 9041   2.535   2.751   5.680 -0.9286  0.2596  0.3699
   92SAPE  H11R 9042   2.642   2.724   5.678 -0.8468  0.5513  0.6454
   92SAPE  C212 9043   2.464   2.680   5.588 -0.1782 -0.9560  0.6386
   92SAPE  H12R 9044   2.512   2.589   5.551 -1.0206 -1.1277 -0.0606
   92SAPE  C213 9045   2.319   2.710   5.551 -0.1376  0.2628  0.1227
   92SAPE  H13R 9046   2.268   2.774   5.626  0.1707 -0.6238  1.1025
   92SAPE  H13S 9047   2.260   2.619   5.576 -0.7750  1.2752  2.5598
   92SAPE  C214 9048   2.305   2.754   5.403  0.4234 -0.4386 -0.4165
   92SAPE  H14R 9049   2.392   2.787   5.345  0.6789 -0.1849  0.1001
   92SAPE  C215 9050   2.189   2.760   5.331 -0.2453 -0.0567 -0.3904
   92SAPE  H15R 9051   2.182   2.788   5.226 -0.9128 -0.3165 -0.4207
   92SAPE  C216 9052   2.056   2.700   5.379  0.4117  0.1542  0.0018
   92SAPE  H16R 9053   2.076   2.639   5.469  0.8059  0.4326  0.1060
   92SAPE  H16S 9054   2.021   2.625   5.305 -0.3772  0.4633  0.0569
   92SAPE  C217 9055   1.932   2.795   5.403  0.1373 -0.1755 -0.6996
   92SAPE  H17R 9056   1.920   2.875   5.328  1.6552  0.5933 -0.1647
   92SAPE  H17S 9057   1.962   2.850   5.495  3.0123 -1.7656 -0.5725
   92SAPE  C218 9058   1.805   2.708   5.416  0.3631  0.1029 -0.7701
   92SAPE  H18R 9059   1.808   2.618   5.350  1.3303 -0.2466 -0.2664
   92SAPE  H18S 9060   1.716   2.770   5.391 -0.6370 -0.2684  1.6618
   92SAPE  C219 9061   1.788   2.658   5.561 -0.7070 -0.5402  0.3427
   92SAPE  H19R 9062   1.783   2.751   5.620  0.5670  0.0222 -0.3993
   92SAPE  H19S 9063   1.874   2.589   5.574  0.1445  0.0657 -1.6802
   92SAPE  C220 9064   1.677   2.565   5.595  0.2120  0.2803  0.3191
   92SAPE  H20R 9065   1.684   2.463   5.552  1.6097 -0.0232  1.2048
   92SAPE  H20S 9066   1.576   2.597   5.561 -0.7644 -0.7311  2.1284
   92SAPE  H20T 9067   1.673   2.543   5.704  1.2052 -3.1764 -0.2173
   92SAPE   C33 9068   2.655   2.542   6.551  0.8183 -0.2266 -0.5861
   92SAPE   H3X 9069   2.594   2.619   6.498 -0.9570  0.4862  2.2766
   92SAPE   H3Y 9070   2.618   2.441   6.522  0.5448 -0.3157  0.0649
   92SAPE   C34 9071   2.792   2.558   6.490 -0.0522  0.0181 -0.6832
   92SAPE   H4X 9072   2.845   2.461   6.501 -0.9220 -0.1884  3.2423
   92SAPE   H4Y 9073   2.849   2.634   6.547 -1.2788  0.6174 -0.2125
   92SAPE   C35 9074   2.785   2.608   6.342 -0.3456  0.5918  0.0361
   92SAPE   H5X 9075   2.888   2.637   6.312  0.4382  0.9151  2.7610
   92SAPE   H5Y 9076   2.725   2.701   6.347  0.1362  0.8387  1.8015
   92SAPE   C36 9077   2.718   2.503   6.247 -0.3999  0.0789 -0.1604
   92SAPE   H6X 9078   2.607   2.507   6.252 -0.5410 -1.9867 -0.5680
   92SAPE   H6Y 9079   2.765   2.403   6.263  3.0535  1.4595 -0.7559
   92SAPE   C37 9080   2.761   2.534   6.102  0.3101  0.2152  0.4939
   92SAPE   H7X 9081   2.871   2.520   6.095  0.3020 -0.2054  1.0825
   92SAPE   H7Y 9082   2.735   2.642   6.095  1.3668  0.3837 -1.3190
   92SAPE   C38 9083   2.689   2.442   6.005  0.4053  0.7588 -0.0494
   92SAPE   H8X 9084   2.583   2.475   5.993 -0.2390 -1.3886 -0.5868
   92SAPE   H8Y 9085   2.673   2.342   6.050  1.7486  1.0274  1.1088
   92SAPE   C39 9086   2.762   2.451   5.870  0.1559  0.3364  0.3262
   92SAPE   H9X 9087   2.863   2.405   5.874 -0.0455 -0.3337 -1.2656
   92SAPE   H9Y 9088   2.781   2.560   5.867  1.5371  0.1726  1.8866
   92SAPE  C310 9089   2.681   2.394   5.760  0.3799  0.3836 -0.7428
   92SAPE  H10X 9090   2.595   2.462   5.738 -0.2676  0.0976  0.8322
   92SAPE  H10Y 9091   2.660   2.289   5.789 -2.8418  0.2963 -2.8430
   92SAPE  C311 9092   2.766   2.372   5.631 -0.8092 -0.7958  0.5053
   92SAPE  H11X 9093   2.857   2.310   5.644  0.8395  1.9646  3.2662
   92SAPE  H11Y 9094   2.795   2.474   5.598 -0.5178 -1.1401 -0.3475
   92SAPE  C312 9095   2.684   2.303   5.519  0.3359  0.1353 -0.1309
   92SAPE  H12X 9096   2.598   2.366   5.487 -1.8763 -1.8881  1.5408
   92SAPE  H12Y 9097   2.641   2.209   5.559  0.8035 -0.7971 -1.7232
   92SAPE  C313 9098   2.771   2.260   5.395  0.3217 -0.0841 -0.3273
   92SAPE  H13X 9099   2.855   2.196   5.428 -2.0928 -2.7323  1.1281
   92SAPE  H13Y 9100   2.816   2.338   5.330  0.2243  1.6789  1.6015
   92SAPE  C314 9101   2.690   2.169   5.303  0.0101  0.0180 -0.4081
   92SAPE  H14X 9102   2.591   2.216   5.286  1.2802  1.8980 -3.2670
   92SAPE  H14Y 9103   2.664   2.068   5.342  0.0412  0.4698  0.8501
   92SAPE  C315 9104   2.748   2.147   5.162 -0.4464  0.0994 -0.1871
   92SAPE  H15X 9105   2.852   2.110   5.164  0.0166  1.3531 -0.1597
   92SAPE  H15Y 9106   2.758   2.248   5.117 -1.9663  0.1248 -0.5442
   92SAPE  C316 9107   2.669   2.058   5.066 -0.3265  0.0322  0.3233
   92SAPE  H16X 9108   2.571   2.108   5.052 -0.9846 -1.0841  0.8610
   92SAPE  H16Y 9109   2.648   1.960   5.114 -1.1573 -0.1932 -0.4832
   92SAPE  C317 9110   2.733   2.025   4.934  0.4846  0.0499  0.4554
   92SAPE  H17X 9111   2.675   1.945   4.882  0.0485 -1.1642  2.7166
   92SAPE  H17Y 9112   2.834   1.985   4.955 -0.2242 -1.8655  0.4533
   92SAPE  C318 9113   2.761   2.149   4.849 -0.2555 -0.5452  0.4335
   92SAPE  H18X 9114   2.666   2.197   4.820 -0.4962 -0.1154  1.8290
   92SAPE  H18Y 9115   2.813   2.117   4.756 -0.3400 -3.6347  1.3388
   92SAPE  H18Z 9116   2.836   2.215   4.899  1.6800 -2.1282 -0.2870
   93SAPE     N 9117   4.882   5.812   7.125  0.1144  0.2277  0.3932
   93SAPE   HN1 9118   4.909   5.912   7.109 -0.6344  0.4377  0.4225
   93SAPE   HN2 9119   4.784   5.798   7.156 -0.3908 -0.0179 -1.2200
   93SAPE   HN3 9120   4.959   5.772   7.182  0.3877 -0.8930 -0.7309
   93SAPE   C12 9121   4.879   5.755   6.984 -0.1667 -0.1356  0.0638
   93SAPE  H12A 9122   4.983   5.730   6.955  0.4465  1.5059  0.7066
   93SAPE  H12B 9123   4.852   5.840   6.918  1.9485  1.2936  0.9281
   93SAPE   C11 9124   4.785   5.637   6.969  0.1913  0.2431 -0.2631
   93SAPE  H11A 9125   4.786   5.612   6.861 -0.8836 -1.3903  0.0808
   93SAPE  H11B 9126   4.683   5.672   6.992 -0.1882 -1.0111  0.0100
   93SAPE     P 9127   4.742   5.402   7.085  0.1066  0.1208 -0.2823
   93SAPE   O13 9128   4.828   5.280   7.097  0.8822 -0.3121  0.4462
   93SAPE   O14 9129   4.665   5.435   7.209 -0.2535 -0.7832  0.9112
   93SAPE   O12 9130   4.836   5.523   7.050 -0.1360 -0.1359  0.2100
   93SAPE   O11 9131   4.648   5.387   6.957 -0.0600  0.6133  0.2954
   93SAPE    C1 9132   4.663   5.285   6.862  0.7224  0.0516  0.1301
   93SAPE    HA 9133   4.753   5.307   6.800 -0.6461 -0.0378 -1.9539
   93SAPE    HB 9134   4.679   5.188   6.915  0.7897  1.9327  3.9149
   93SAPE    C2 9135   4.534   5.275   6.771 -0.1146  0.3751 -0.3249
   93SAPE    HS 9136   4.551   5.208   6.684 -1.7816 -1.2413  0.5132
   93SAPE   O21 9137   4.486   5.395   6.721 -0.0435 -0.6083 -0.4994
   93SAPE   C21 9138   4.580   5.477   6.677 -0.1539  0.4566  0.1329
   93SAPE   O22 9139   4.682   5.444   6.617  0.4506 -0.1720 -0.7387
   93SAPE   C22 9140   4.549   5.625   6.713 -0.1963 -0.0587  0.2876
   93SAPE   H2R 9141   4.516   5.624   6.819 -0.0251 -4.2108  0.4357
   93SAPE   H2S 9142   4.638   5.687   6.690 -1.0117  0.3379 -2.1220
   93SAPE    C3 9143   4.428   5.197   6.854 -0.6700 -0.9494 -0.2791
   93SAPE    HX 9144   4.407   5.253   6.947 -0.3951  0.2154 -0.8961
   93SAPE    HY 9145   4.480   5.104   6.885  4.5482  1.0429 -1.8884
   93SAPE   O31 9146   4.312   5.160   6.780  0.0834 -0.1624 -0.3716
   93SAPE   C31 9147   4.217   5.246   6.759  0.5138 -0.2626 -0.2009
   93SAPE   O32 9148   4.203   5.356   6.805 -0.6764 -0.2674 -0.1096
   93SAPE   C32 9149   4.117   5.192   6.662 -0.1269  0.0696 -0.8652
   93SAPE   H2X 9150   4.031   5.262   6.657 -2.1200 -2.2260 -0.6215
   93SAPE   H2Y 9151   4.086   5.102   6.718  2.2045 -0.2670 -0.0199
   93SAPE   C23 9152   4.428   5.692   6.639 -0.8812  0.0551 -0.4478
   93SAPE   H3R 9153   4.429   5.799   6.668 -2.1957 -0.6713  2.7279
   93SAPE   H3S 9154   4.333   5.658   6.687  0.6102 -2.5503  0.8600
   93SAPE   C24 9155   4.429   5.672   6.485 -0.3909  0.0617 -0.0404
   93SAPE   H4R 9156   4.327   5.704   6.454 -0.5168 -0.0367  0.2598
   93SAPE   H4S 9157   4.435   5.569   6.444  0.0427  0.1331 -0.1552
   93SAPE   C25 9158   4.531   5.757   6.413 -0.1014  0.0811 -0.7588
   93SAPE   H5R 9159   4.605   5.814   6.471 -1.1117  0.7965 -0.1309
   93SAPE   C26 9160   4.532   5.783   6.281 -0.0416 -0.6968 -0.1314
   93SAPE   H6R 9161   4.615   5.846   6.246 -0.9591  0.3501 -0.5152
   93SAPE   C27 9162   4.448   5.731   6.167 -0.7651  0.3757 -0.1701
   93SAPE   H7R 9163   4.411   5.633   6.205  0.9135 -1.1326 -2.2083
   93SAPE   H7S 9164   4.512   5.702   6.081  0.5228 -0.0336  0.8880
   93SAPE   C28 9165   4.336   5.822   6.115 -0.1293 -0.0560  0.4701
   93SAPE   H8R 9166   4.247   5.830   6.179 -3.0371 -3.6909 -2.5941
   93SAPE   C29 9167   4.325   5.882   6.001 -1.2336 -0.2398  0.3712
   93SAPE   H9R 9168   4.244   5.956   5.988 -0.3549  1.2864  2.8021
   93SAPE  C210 9169   4.426   5.876   5.890  0.0626  0.1726 -0.1399
   93SAPE  H10R 9170   4.369   5.901   5.798  0.2608 -0.4093 -0.4283
   93SAPE  H10S 9171   4.458   5.770   5.878 -0.4350 -0.2769  2.0696
   93SAPE  C211 9172   4.555   5.953   5.898  0.3804 -0.5120 -0.2616
   93SAPE  H11R 9173   4.634   5.913   5.964 -0.6989 -1.7170  0.3526
   93SAPE  C212 9174   4.584   6.068   5.822 -0.0846 -0.0985  0.0643
   93SAPE  H12R 9175   4.684   6.112   5.831  0.9911 -2.4837  0.8699
   93SAPE  C213 9176   4.491   6.131   5.729  0.4618  0.0361 -0.3152
   93SAPE  H13R 9177   4.397   6.152   5.785  1.1399  4.5610 -0.4964
   93SAPE  H13S 9178   4.463   6.053   5.655 -0.1866 -0.3852  0.3705
   93SAPE  C214 9179   4.536   6.267   5.665 -0.7635  0.1522  0.4204
   93SAPE  H14R 9180   4.565   6.338   5.744  0.2310  0.0838  0.1257
   93SAPE  C215 9181   4.558   6.303   5.536 -0.1183  0.3813  0.4336
   93SAPE  H15R 9182   4.599   6.401   5.510  4.0176 -1.1585  0.3229
   93SAPE  C216 9183   4.532   6.211   5.411 -0.3184 -0.2847 -0.6803
   93SAPE  H16R 9184   4.507   6.107   5.443  1.3345 -1.6185 -3.3643
   93SAPE  H16S 9185   4.615   6.196   5.338 -0.6973 -3.0378 -0.6586
   93SAPE  C217 9186   4.415   6.261   5.327  0.9226 -0.2339 -0.7017
   93SAPE  H17R 9187   4.403   6.193   5.240  0.0110 -2.0277  0.7639
   93SAPE  H17S 9188   4.426   6.362   5.281  1.5193 -0.3592 -0.8370
   93SAPE  C218 9189   4.282   6.253   5.405  0.4287 -0.1326  0.0769
   93SAPE  H18R 9190   4.283   6.323   5.491 -2.5470  0.2728 -0.1079
   93SAPE  H18S 9191   4.260   6.155   5.452 -2.4591  0.1146 -0.5922
   93SAPE  C219 9192   4.164   6.286   5.313 -0.3518  0.1833  0.6012
   93SAPE  H19R 9193   4.176   6.211   5.232 -0.0907  1.2833 -0.4214
   93SAPE  H19S 9194   4.175   6.392   5.279 -0.4144  0.2539  0.7983
   93SAPE  C220 9195   4.024   6.277   5.379 -1.2529  0.2055 -0.2651
   93SAPE  H20R 9196   3.945   6.293   5.302  0.7522  1.5474 -2.1817
   93SAPE  H20S 9197   4.017   6.354   5.458 -0.6733  1.7082 -1.6238
   93SAPE  H20T 9198   3.998   6.175   5.415  2.3046  0.3754  3.4616
   93SAPE   C33 9199   4.170   5.177   6.518  0.9578 -0.2185  0.2004
   93SAPE   H3X 9200   4.103   5.107   6.464  0.9818  0.9311 -1.3586
   93SAPE   H3Y 9201   4.276   5.143   6.520  1.0540  0.1035  0.9971
   93SAPE   C34 9202   4.169   5.311   6.443  0.1159  0.2847 -0.7192
   93SAPE   H4X 9203   4.232   5.364   6.517 -0.0630 -0.8944  0.3195
   93SAPE   H4Y 9204   4.071   5.362   6.455 -0.6283 -1.0526 -0.8705
   93SAPE   C35 9205   4.200   5.301   6.290 -0.1312 -0.0919 -0.1597
   93SAPE   H5X 9206   4.167   5.397   6.244  2.2311  0.5145 -0.7394
   93SAPE   H5Y 9207   4.147   5.217   6.240  0.7234 -2.6953  2.9965
   93SAPE   C36 9208   4.346   5.279   6.263 -0.1094  0.4037 -0.2707
   93SAPE   H6X 9209   4.361   5.169   6.268 -0.9947  0.1647 -2.1535
   93SAPE   H6Y 9210   4.398   5.328   6.348 -2.0875 -0.5414  1.5823
   93SAPE   C37 9211   4.388   5.329   6.124 -0.0413  0.1142  0.2873
   93SAPE   H7X 9212   4.370   5.438   6.109  0.1356  0.6124  3.2102
   93SAPE   H7Y 9213   4.332   5.269   6.049  0.7455  1.5490 -1.5367
   93SAPE   C38 9214   4.535   5.291   6.089 -0.5193 -0.3252  0.5344
   93SAPE   H8X 9215   4.534   5.180   6.078  0.9421 -0.2217 -1.0018
   93SAPE   H8Y 9216   4.599   5.323   6.174  2.4335 -1.3992 -1.1299
   93SAPE   C39 9217   4.590   5.356   5.962  0.1038  0.3545  0.9178
   93SAPE   H9X 9218   4.700   5.351   5.952  0.0205  0.3628 -0.1352
   93SAPE   H9Y 9219   4.565   5.464   5.959 -0.5084  0.2379  1.5672
   93SAPE  C310 9220   4.542   5.293   5.832  0.2376 -0.5638  0.5869
   93SAPE  H10X 9221   4.433   5.275   5.837  0.4194 -1.4359  1.5990
   93SAPE  H10Y 9222   4.592   5.200   5.798  0.4845  0.3119 -1.6338
   93SAPE  C311 9223   4.562   5.382   5.712 -0.0428 -0.0435 -0.0775
   93SAPE  H11X 9224   4.553   5.315   5.624  0.4533  0.2321 -0.3401
   93SAPE  H11Y 9225   4.668   5.414   5.708 -0.5714  1.9402  0.7084
   93SAPE  C312 9226   4.473   5.505   5.700 -0.4003 -0.0942 -0.0711
   93SAPE  H12X 9227   4.516   5.583   5.766  2.3692 -2.4087  1.0653
   93SAPE  H12Y 9228   4.365   5.497   5.727 -0.3598 -0.3544  0.0147
   93SAPE  C313 9229   4.465   5.554   5.553  0.1468 -0.1487  0.7721
   93SAPE  H13X 9230   4.383   5.629   5.545 -1.1342 -1.6396 -0.9572
   93SAPE  H13Y 9231   4.428   5.472   5.487  2.3246 -0.9377  0.4484
   93SAPE  C314 9232   4.589   5.615   5.491  0.4493  0.6060 -0.3346
   93SAPE  H14X 9233   4.671   5.540   5.495  0.8954  0.9215 -2.2690
   93SAPE  H14Y 9234   4.617   5.697   5.560 -1.4300  1.2184 -0.2592
   93SAPE  C315 9235   4.559   5.666   5.355 -0.9832 -0.2502  0.8399
   93SAPE  H15X 9236   4.480   5.744   5.349 -0.2608  0.4571  0.1961
   93SAPE  H15Y 9237   4.542   5.583   5.283 -1.4226 -0.4255  1.1448
   93SAPE  C316 9238   4.693   5.740   5.303 -0.1287  0.2844 -0.2746
   93SAPE  H16X 9239   4.777   5.671   5.279  0.1899 -0.3881  2.4689
   93SAPE  H16Y 9240   4.733   5.806   5.382 -1.2355  1.4441 -0.6551
   93SAPE  C317 9241   4.677   5.823   5.183  0.5114  0.3626  0.4543
   93SAPE  H17X 9242   4.613   5.909   5.214 -2.2338 -0.5382 -2.2050
   93SAPE  H17Y 9243   4.628   5.765   5.102  0.8974  2.8286 -1.7096
   93SAPE  C318 9244   4.812   5.868   5.118  1.0685  0.7334 -0.1116
   93SAPE  H18X 9245   4.770   5.921   5.029 -3.1682  1.3074  1.9684
   93SAPE  H18Y 9246   4.870   5.776   5.096  0.5417  0.0182  1.3426
   93SAPE  H18Z 9247   4.867   5.935   5.187 -0.0202  0.8234  0.6926
   94SAPE     N 9248   5.304   1.881   7.380  0.2357 -0.4931 -0.2999
   94SAPE   HN1 9249   5.243   1.801   7.353  0.2350 -0.4820 -0.3311
   94SAPE   HN2 9250   5.324   1.940   7.297 -3.0270  0.8746 -0.2708
   94SAPE   HN3 9251   5.385   1.832   7.423  0.1973  0.2645  0.6627
   94SAPE   C12 9252   5.232   1.965   7.492 -0.3179 -0.9667 -0.3550
   94SAPE  H12A 9253   5.141   2.006   7.444 -0.6764 -0.9326  0.3476
   94SAPE  H12B 9254   5.296   2.050   7.523 -0.2345 -0.7791 -1.0298
   94SAPE   C11 9255   5.206   1.876   7.611 -0.0746 -0.0616  0.1196
   94SAPE  H11A 9256   5.148   1.945   7.675  2.0077  0.8310  1.1254
   94SAPE  H11B 9257   5.293   1.831   7.664 -1.2654 -2.3789  0.2160
   94SAPE     P 9258   5.036   1.687   7.685 -0.1634 -0.2147  0.1130
   94SAPE   O13 9259   5.111   1.565   7.716  0.1031 -0.3704  0.3137
   94SAPE   O14 9260   5.012   1.782   7.797  0.5595  0.0247 -0.1996
   94SAPE   O12 9261   5.115   1.771   7.576 -0.1968  0.3117 -0.6135
   94SAPE   O11 9262   4.900   1.638   7.618 -0.2596 -0.1137  0.2183
   94SAPE    C1 9263   4.912   1.516   7.544 -0.0505  0.8713 -0.1835
   94SAPE    HA 9264   4.953   1.426   7.596  1.9695  0.6333 -2.0239
   94SAPE    HB 9265   4.810   1.484   7.513  0.8130 -0.3482 -1.9406
   94SAPE    C2 9266   4.997   1.521   7.411 -1.0368  0.0928 -0.3758
   94SAPE    HS 9267   5.097   1.562   7.437  0.0207 -0.5350 -3.1009
   94SAPE   O21 9268   4.937   1.598   7.312  0.3232 -0.4573 -0.2263
   94SAPE   C21 9269   5.015   1.680   7.240 -0.9748 -0.4633 -0.1247
   94SAPE   O22 9270   5.134   1.697   7.262  0.0152 -0.4696 -0.0768
   94SAPE   C22 9271   4.935   1.740   7.121 -0.0662 -0.1294  0.2485
   94SAPE   H2R 9272   4.870   1.817   7.169  2.5669  1.8412  0.8866
   94SAPE   H2S 9273   5.013   1.778   7.052 -1.1113 -0.5159 -1.1860
   94SAPE    C3 9274   5.019   1.378   7.361  0.3169  0.6242 -0.1841
   94SAPE    HX 9275   4.921   1.337   7.328  0.6936 -1.8847  1.5244
   94SAPE    HY 9276   5.064   1.307   7.434  2.0547 -2.1307 -3.6487
   94SAPE   O31 9277   5.107   1.380   7.244  0.3509 -0.5025  0.1382
   94SAPE   C31 9278   5.234   1.412   7.282 -0.2707 -0.8999  0.3287
   94SAPE   O32 9279   5.270   1.431   7.394  0.0140  0.2280 -0.0461
   94SAPE   C32 9280   5.331   1.408   7.165 -0.8685 -0.5877 -0.7933
   94SAPE   H2X 9281   5.394   1.317   7.177  1.0133  0.3607 -2.8508
   94SAPE   H2Y 9282   5.397   1.496   7.176  0.2231 -1.6350  1.9382
   94SAPE   C23 9283   4.849   1.639   7.041 -0.6044 -0.2252  0.1826
   94SAPE   H3R 9284   4.770   1.693   6.984 -1.3410 -0.0253  1.3622
   94SAPE   H3S 9285   4.785   1.582   7.112 -1.2058 -2.0763 -1.7335
   94SAPE   C24 9286   4.916   1.538   6.948  0.1755  0.1163 -0.2499
   94SAPE   H4R 9287   4.831   1.496   6.890  0.2552 -3.0838  1.6816
   94SAPE   H4S 9288   4.976   1.462   7.003 -2.0138 -1.1437  0.5312
   94SAPE   C25 9289   5.009   1.595   6.849 -0.2829  0.3821 -0.1049
   94SAPE   H5R 9290   5.101   1.634   6.894 -0.0013  0.5305 -0.7966
   94SAPE   C26 9291   4.981   1.617   6.717  0.3500  0.8724 -0.1417
   94SAPE   H6R 9292   5.059   1.650   6.646  0.0471  0.6236 -0.5946
   94SAPE   C27 9293   4.853   1.596   6.639  0.3582 -0.0371 -0.3356
   94SAPE   H7R 9294   4.848   1.666   6.552 -0.0612  1.4510  0.8396
   94SAPE   H7S 9295   4.771   1.634   6.704  0.4825  3.6333 -2.0155
   94SAPE   C28 9296   4.830   1.459   6.602 -0.4516  0.3501  0.8065
   94SAPE   H8R 9297   4.862   1.379   6.669  0.3982  1.0379  1.2316
   94SAPE   C29 9298   4.803   1.423   6.477  0.4435  0.3393 -0.2851
   94SAPE   H9R 9299   4.792   1.316   6.456  1.4253  0.2144 -0.1819
   94SAPE  C210 9300   4.773   1.524   6.372  0.0744  0.4092 -0.5170
   94SAPE  H10R 9301   4.862   1.590   6.373  0.4024  0.0920  2.8311
   94SAPE  H10S 9302   4.685   1.585   6.403  0.6942  0.2532  1.7021
   94SAPE  C211 9303   4.742   1.492   6.225 -0.1557  0.1799  0.1189
   94SAPE  H11R 9304   4.808   1.411   6.190  2.1669  2.1474 -0.3837
   94SAPE  C212 9305   4.655   1.553   6.146 -0.0620  0.8053  0.3085
   94SAPE  H12R 9306   4.646   1.507   6.047  0.0030 -0.9969  1.0775
   94SAPE  C213 9307   4.567   1.676   6.163  0.0162  0.3621  0.2543
   94SAPE  H13R 9308   4.616   1.775   6.166 -0.7094  0.7707 -0.8990
   94SAPE  H13S 9309   4.521   1.666   6.264 -0.7764 -2.6335 -0.2943
   94SAPE  C214 9310   4.449   1.686   6.065 -0.0450 -0.4541 -0.4499
   94SAPE  H14R 9311   4.357   1.631   6.089  0.5482 -1.3775 -0.2310
   94SAPE  C215 9312   4.455   1.742   5.943 -0.0365 -0.1114 -0.1315
   94SAPE  H15R 9313   4.375   1.735   5.868  1.8980  0.0298 -2.3347
   94SAPE  C216 9314   4.567   1.839   5.909  0.9659 -0.1001 -0.1239
   94SAPE  H16R 9315   4.661   1.786   5.884  1.6228  1.1275 -0.3702
   94SAPE  H16S 9316   4.591   1.913   5.989 -3.3056  1.9858 -0.4643
   94SAPE  C217 9317   4.526   1.925   5.790  0.1825 -0.4845  0.8969
   94SAPE  H17R 9318   4.596   2.010   5.775 -0.9860  0.5619  1.2265
   94SAPE  H17S 9319   4.429   1.977   5.804  0.8643  1.3852 -0.7173
   94SAPE  C218 9320   4.511   1.847   5.653 -0.5561 -0.5185 -1.4563
   94SAPE  H18R 9321   4.449   1.757   5.674  2.1941 -2.3652 -0.7503
   94SAPE  H18S 9322   4.616   1.821   5.627  0.5740  2.6964 -0.5889
   94SAPE  C219 9323   4.446   1.938   5.548 -0.1835  0.3651  0.2860
   94SAPE  H19R 9324   4.511   2.027   5.539  1.2273 -0.5640  1.0431
   94SAPE  H19S 9325   4.344   1.965   5.584 -0.7461 -1.9654  0.5748
   94SAPE  C220 9326   4.419   1.872   5.415 -0.1238 -0.6565  0.1177
   94SAPE  H20R 9327   4.367   1.777   5.440  0.9550 -1.1136  0.7175
   94SAPE  H20S 9328   4.508   1.854   5.351  0.2486  2.4465 -0.3672
   94SAPE  H20T 9329   4.340   1.932   5.365 -0.9591 -0.4317  1.6513
   94SAPE   C33 9330   5.266   1.399   7.028 -0.1217 -0.1844 -0.2052
   94SAPE   H3X 9331   5.197   1.485   7.014  0.4674  0.9106  2.8873
   94SAPE   H3Y 9332   5.218   1.299   7.026 -3.4859  1.2218  1.7248
   94SAPE   C34 9333   5.370   1.399   6.915  0.0256  0.0250  0.4522
   94SAPE   H4X 9334   5.446   1.322   6.942  0.1825  0.2624  0.6856
   94SAPE   H4Y 9335   5.422   1.495   6.895  2.2227 -0.9549  1.1131
   94SAPE   C35 9336   5.317   1.347   6.781 -0.0679 -0.0107 -0.2954
   94SAPE   H5X 9337   5.240   1.421   6.751 -0.2139 -0.7984 -2.0058
   94SAPE   H5Y 9338   5.265   1.248   6.785  0.6048 -0.3313  1.9461
   94SAPE   C36 9339   5.421   1.349   6.661 -0.8008 -0.2562 -0.6067
   94SAPE   H6X 9340   5.501   1.279   6.694 -0.9013  0.1020  0.4313
   94SAPE   H6Y 9341   5.472   1.447   6.649 -0.3748 -0.6696 -2.3316
   94SAPE   C37 9342   5.354   1.304   6.532 -0.7025 -0.2363 -0.7661
   94SAPE   H7X 9343   5.314   1.201   6.547 -0.4618 -0.5150 -1.9741
   94SAPE   H7Y 9344   5.435   1.305   6.456 -0.8239  0.7972 -0.8913
   94SAPE   C38 9345   5.246   1.403   6.491 -0.2214  0.0559 -1.0612
   94SAPE   H8X 9346   5.290   1.504   6.478 -1.4340  0.4997 -1.9756
   94SAPE   H8Y 9347   5.163   1.405   6.565 -1.4060  2.8731 -2.3042
   94SAPE   C39 9348   5.186   1.370   6.355  0.0757  0.3444 -0.6743
   94SAPE   H9X 9349   5.088   1.318   6.366  1.2915 -1.6818  1.7004
   94SAPE   H9Y 9350   5.246   1.293   6.302  1.5349  0.1084  1.2045
   94SAPE  C310 9351   5.164   1.489   6.263 -0.4894 -0.1026  0.2533
   94SAPE  H10X 9352   5.258   1.546   6.241  0.6983 -2.7888 -2.3544
   94SAPE  H10Y 9353   5.091   1.550   6.320  1.0279 -1.3739  3.8241
   94SAPE  C311 9354   5.110   1.448   6.126  0.2852 -0.2013  0.6391
   94SAPE  H11X 9355   5.007   1.411   6.146 -0.2386  1.5256  1.2642
   94SAPE  H11Y 9356   5.178   1.371   6.083 -0.7119 -2.3831  2.7216
   94SAPE  C312 9357   5.095   1.561   6.023 -0.3253 -0.4822 -0.1590
   94SAPE  H12X 9358   5.187   1.614   5.993 -0.5482 -0.1097 -0.1855
   94SAPE  H12Y 9359   5.029   1.642   6.059 -0.2802 -0.4530 -0.1416
   94SAPE  C313 9360   5.059   1.506   5.887  0.6537 -0.4320 -0.4953
   94SAPE  H13X 9361   4.958   1.459   5.885  0.0977  0.7609 -2.0739
   94SAPE  H13Y 9362   5.129   1.425   5.858 -0.0712 -1.4957  0.5687
   94SAPE  C314 9363   5.072   1.609   5.767  0.2485 -1.2311  0.2253
   94SAPE  H14X 9364   5.174   1.654   5.769 -1.0135  1.8389  0.4420
   94SAPE  H14Y 9365   4.992   1.684   5.783  0.0955  0.2290 -5.1583
   94SAPE  C315 9366   5.039   1.531   5.639  0.6982 -0.4085  0.1911
   94SAPE  H15X 9367   4.930   1.516   5.625  0.4601  0.5960  0.8600
   94SAPE  H15Y 9368   5.092   1.436   5.663 -1.1372 -1.0943  1.8909
   94SAPE  C316 9369   5.101   1.592   5.512  0.2910  0.0407 -0.7316
   94SAPE  H16X 9370   5.205   1.616   5.545  0.2313  0.9067 -1.1444
   94SAPE  H16Y 9371   5.060   1.692   5.489  0.4314  0.6356  1.3279
   94SAPE  C317 9372   5.115   1.488   5.400  0.1225  0.3199  0.3549
   94SAPE  H17X 9373   5.018   1.481   5.346  0.6339 -1.2322 -0.4029
   94SAPE  H17Y 9374   5.138   1.386   5.435  0.8641 -0.1583 -1.4559
   94SAPE  C318 9375   5.211   1.515   5.285 -0.2935 -0.2953  0.1275
   94SAPE  H18X 9376   5.315   1.519   5.323  0.3604 -1.7222 -1.3304
   94SAPE  H18Y 9377   5.183   1.611   5.237  1.9551  1.1537  1.5536
   94SAPE  H18Z 9378   5.208   1.427   5.216  0.8578 -0.8368  0.7338
   95SAPE     N 9379   1.509   1.620   7.628 -0.3137 -0.0635 -0.2806
   95SAPE   HN1 9380   1.470   1.696   7.687  0.1982 -0.4050  0.5239
   95SAPE   HN2 9381   1.428   1.575   7.581 -1.7522  0.4804  1.5456
   95SAPE   HN3 9382   1.559   1.557   7.695  2.6443 -0.1237 -2.3625
   95SAPE   C12 9383   1.609   1.671   7.528  0.4074 -0.3436 -0.3584
   95SAPE  H12A 9384   1.552   1.713   7.442  1.4230  0.2523 -0.7623
   95SAPE  H12B 9385   1.665   1.581   7.494 -1.5841 -1.6826 -0.2375
   95SAPE   C11 9386   1.691   1.767   7.603  0.7572  0.0926  0.4573
   95SAPE  H11A 9387   1.782   1.788   7.544 -0.0870 -1.7847 -1.6350
   95SAPE  H11B 9388   1.725   1.729   7.702  0.5243  1.6228  1.1622
   95SAPE     P 9389   1.644   2.021   7.571 -0.0786 -0.3576  0.1170
   95SAPE   O13 9390   1.523   2.105   7.579 -0.5002  0.1489 -0.1261
   95SAPE   O14 9391   1.770   2.080   7.626 -0.1279 -0.2704 -0.1757
   95SAPE   O12 9392   1.616   1.884   7.637 -0.1928  1.4279  0.3084
   95SAPE   O11 9393   1.678   1.985   7.426  0.2886  0.7557  0.0008
   95SAPE    C1 9394   1.798   2.025   7.351  0.7283 -0.0306 -0.0516
   95SAPE    HA 9395   1.873   2.072   7.418 -0.6958 -1.0762  2.4433
   95SAPE    HB 9396   1.841   1.932   7.309  0.8513  1.2028 -2.8598
   95SAPE    C2 9397   1.765   2.126   7.236 -0.4167  0.5272 -0.2927
   95SAPE    HS 9398   1.703   2.202   7.288 -0.8235 -0.1255  0.1941
   95SAPE   O21 9399   1.709   2.054   7.128 -0.4413 -1.5922 -0.4966
   95SAPE   C21 9400   1.598   2.099   7.086  0.1777 -0.2877 -0.0670
   95SAPE   O22 9401   1.527   2.180   7.139  0.8682  0.2211 -0.3674
   95SAPE   C22 9402   1.563   2.022   6.960 -0.4762  0.3720  0.4045
   95SAPE   H2R 9403   1.659   1.973   6.932  0.6878  1.2896  2.5241
   95SAPE   H2S 9404   1.484   1.955   6.997  0.3224 -1.1505 -0.5487
   95SAPE    C3 9405   1.892   2.198   7.192 -0.4977 -0.1925  0.2008
   95SAPE    HX 9406   1.923   2.262   7.277 -1.9427 -0.8924  1.2920
   95SAPE    HY 9407   1.870   2.270   7.110  2.6207  0.8272  0.1191
   95SAPE   O31 9408   1.987   2.098   7.145 -0.1768 -0.4309 -0.3671
   95SAPE   C31 9409   2.114   2.136   7.147  0.0053 -0.1523 -0.8741
   95SAPE   O32 9410   2.148   2.233   7.211  0.1334 -0.0962  0.0935
   95SAPE   C32 9411   2.198   2.044   7.048 -0.6667 -0.5833  0.8465
   95SAPE   H2X 9412   2.124   2.002   6.977 -1.3236 -1.9865  2.3119
   95SAPE   H2Y 9413   2.217   1.954   7.109  1.4216 -1.1153 -0.5001
   95SAPE   C23 9414   1.502   2.105   6.845 -0.9117  0.0851 -0.2315
   95SAPE   H3R 9415   1.435   2.178   6.894 -0.1926  1.8716 -1.8023
   95SAPE   H3S 9416   1.435   2.037   6.787 -0.7221 -0.4683  0.1830
   95SAPE   C24 9417   1.607   2.167   6.747  0.3735 -0.0534  0.7320
   95SAPE   H4R 9418   1.656   2.251   6.801  1.3389 -0.5359  0.6309
   95SAPE   H4S 9419   1.560   2.216   6.659  0.2730 -0.6722  0.4366
   95SAPE   C25 9420   1.706   2.074   6.693  0.0184 -0.1867 -0.5155
   95SAPE   H5R 9421   1.667   1.973   6.678 -2.0816  0.4469  0.4114
   95SAPE   C26 9422   1.832   2.107   6.658  0.3532  0.0507 -0.0260
   95SAPE   H6R 9423   1.903   2.028   6.627  0.0723  0.2507 -1.2215
   95SAPE   C27 9424   1.893   2.245   6.667 -0.2915 -0.1838  0.0252
   95SAPE   H7R 9425   1.817   2.320   6.638 -0.9392 -0.7404  0.2618
   95SAPE   H7S 9426   1.972   2.253   6.589 -1.4816  0.1400 -1.1662
   95SAPE   C28 9427   1.940   2.279   6.809 -0.2976  0.5719 -0.4099
   95SAPE   H8R 9428   1.937   2.197   6.881  1.4538  2.1005  1.5209
   95SAPE   C29 9429   2.008   2.390   6.848  0.1416 -0.2449  0.5521
   95SAPE   H9R 9430   2.038   2.396   6.954  0.4624 -1.6941  0.5632
   95SAPE  C210 9431   2.046   2.507   6.755  0.2163  0.2474 -0.2790
   95SAPE  H10R 9432   2.038   2.607   6.802 -0.6202 -0.4879  1.2027
   95SAPE  H10S 9433   1.967   2.511   6.676 -1.1560 -1.6239  0.9048
   95SAPE  C211 9434   2.180   2.482   6.693 -0.9106  0.0887  0.3278
   95SAPE  H11R 9435   2.261   2.458   6.762  0.1757 -0.9335 -1.2485
   95SAPE  C212 9436   2.223   2.493   6.563  0.5429  0.3017 -0.2742
   95SAPE  H12R 9437   2.324   2.462   6.533  0.2994  0.1114 -0.9103
   95SAPE  C213 9438   2.133   2.559   6.456  0.2779  0.2671 -0.3120
   95SAPE  H13R 9439   2.196   2.647   6.427  0.8754  0.4511  1.4438
   95SAPE  H13S 9440   2.041   2.608   6.495  0.9016  0.8654  0.4532
   95SAPE  C214 9441   2.089   2.459   6.352  0.7072  0.6813  0.3767
   95SAPE  H14R 9442   1.999   2.399   6.373  0.4453  1.0939  0.4586
   95SAPE  C215 9443   2.153   2.444   6.238  0.4381  0.6219 -0.7722
   95SAPE  H15R 9444   2.117   2.369   6.165  0.5706  0.5739 -0.7883
   95SAPE  C216 9445   2.259   2.529   6.173  0.7280  0.1148 -0.0644
   95SAPE  H16R 9446   2.353   2.472   6.189  0.9040 -0.2500 -2.1504
   95SAPE  H16S 9447   2.263   2.630   6.219  0.2070  0.5304 -0.9130
   95SAPE  C217 9448   2.231   2.547   6.026 -0.2123  0.0243 -0.2900
   95SAPE  H17R 9449   2.239   2.448   5.976  1.6242  0.1379 -0.2961
   95SAPE  H17S 9450   2.303   2.617   5.979  1.6436 -1.3250  0.4242
   95SAPE  C218 9451   2.089   2.597   5.990  0.0347 -0.5228 -0.6367
   95SAPE  H18R 9452   2.082   2.699   6.032  1.1180  0.6028 -3.0449
   95SAPE  H18S 9453   2.005   2.534   6.028  2.0953 -0.8472  4.1103
   95SAPE  C219 9454   2.074   2.592   5.835 -0.2441 -0.8361 -0.7524
   95SAPE  H19R 9455   2.165   2.647   5.802  0.2331 -0.5541  0.9590
   95SAPE  H19S 9456   1.984   2.650   5.806 -0.8222 -0.9770  0.6940
   95SAPE  C220 9457   2.070   2.455   5.763  0.4385 -0.3715  0.2576
   95SAPE  H20R 9458   2.169   2.405   5.769  2.7221  3.7464  1.0395
   95SAPE  H20S 9459   2.043   2.479   5.658  0.7996  1.2486  0.4972
   95SAPE  H20T 9460   1.996   2.389   5.813  1.0190 -3.1435 -2.2876
   95SAPE   C33 9461   2.343   2.093   7.000  0.1917  0.5348  0.0860
   95SAPE   H3X 9462   2.406   2.003   6.985 -0.3444  0.2425 -0.4709
   95SAPE   H3Y 9463   2.399   2.139   7.083 -0.4745  1.6208 -0.0442
   95SAPE   C34 9464   2.354   2.172   6.865  0.5214 -0.7573 -0.4612
   95SAPE   H4X 9465   2.436   2.246   6.854 -0.9313  0.8272 -1.0436
   95SAPE   H4Y 9466   2.261   2.230   6.848  0.5727 -0.6280 -0.2989
   95SAPE   C35 9467   2.364   2.081   6.742 -0.2166  0.0162  0.3187
   95SAPE   H5X 9468   2.280   2.008   6.742  0.8536 -1.2319  0.1720
   95SAPE   H5Y 9469   2.449   2.010   6.744 -0.3077 -0.0953  0.2087
   95SAPE   C36 9470   2.354   2.156   6.610 -0.1877  0.0933 -0.9945
   95SAPE   H6X 9471   2.439   2.227   6.601 -0.5524  1.2314  2.7307
   95SAPE   H6Y 9472   2.263   2.220   6.600  0.0255  0.5742  0.0615
   95SAPE   C37 9473   2.371   2.067   6.481  0.3485 -0.5073 -0.0139
   95SAPE   H7X 9474   2.264   2.040   6.462 -1.0902  4.0932  0.3114
   95SAPE   H7Y 9475   2.445   1.985   6.493  1.9417  0.9764  0.7019
   95SAPE   C38 9476   2.398   2.152   6.360  0.5708  0.2653 -0.4140
   95SAPE   H8X 9477   2.476   2.229   6.382  0.9473 -0.0864 -0.4905
   95SAPE   H8Y 9478   2.315   2.207   6.311  1.2914  1.2330 -0.5739
   95SAPE   C39 9479   2.455   2.068   6.249  0.9054  0.4549  0.2061
   95SAPE   H9X 9480   2.386   1.985   6.224 -0.7811  1.3019  1.8567
   95SAPE   H9Y 9481   2.555   2.032   6.282  1.4410 -1.2207 -2.8610
   95SAPE  C310 9482   2.476   2.142   6.117  0.1709  0.9141 -0.3782
   95SAPE  H10X 9483   2.559   2.209   6.146  1.5754 -1.3970  1.3182
   95SAPE  H10Y 9484   2.394   2.211   6.087 -2.4532 -0.7294  2.3557
   95SAPE  C311 9485   2.510   2.053   5.998  0.2286  0.3243 -0.2206
   95SAPE  H11X 9486   2.524   2.120   5.910 -1.8899  1.6247  0.3428
   95SAPE  H11Y 9487   2.419   1.993   5.977  0.0900 -0.1225  1.4854
   95SAPE  C312 9488   2.625   1.954   6.012  1.0307 -0.1890 -0.5350
   95SAPE  H12X 9489   2.606   1.894   6.104  0.1325 -0.2564 -0.7509
   95SAPE  H12Y 9490   2.715   2.018   6.024  1.2464 -0.7391  1.0907
   95SAPE  C313 9491   2.634   1.858   5.891 -0.3049 -0.0623  0.7381
   95SAPE  H13X 9492   2.718   1.791   5.916  0.9163  1.0604 -0.1810
   95SAPE  H13Y 9493   2.671   1.917   5.804 -1.1492  2.2497  1.8586
   95SAPE  C314 9494   2.519   1.763   5.849 -0.8146 -0.0162  0.4737
   95SAPE  H14X 9495   2.446   1.824   5.793 -1.8437 -0.6601  1.0718
   95SAPE  H14Y 9496   2.460   1.729   5.937 -2.1561 -1.0275 -0.7569
   95SAPE  C315 9497   2.554   1.632   5.770  0.2400 -0.1130 -0.0887
   95SAPE  H15X 9498   2.574   1.550   5.842 -2.1827 -0.1906  0.5791
   95SAPE  H15Y 9499   2.641   1.645   5.702  1.3951 -2.8869  0.7243
   95SAPE  C316 9500   2.442   1.594   5.672 -0.0606  0.2140  0.1086
   95SAPE  H16X 9501   2.429   1.690   5.617  0.4032  0.3704  0.2743
   95SAPE  H16Y 9502   2.356   1.556   5.731  0.6429  0.0543  1.0437
   95SAPE  C317 9503   2.488   1.496   5.562 -0.3363 -0.4050 -0.3655
   95SAPE  H17X 9504   2.598   1.491   5.558 -0.0975  2.9461 -1.1948
   95SAPE  H17Y 9505   2.466   1.541   5.462  0.7749 -0.8094 -0.8074
   95SAPE  C318 9506   2.414   1.358   5.567 -0.3518  0.6799  0.2200
   95SAPE  H18X 9507   2.305   1.380   5.564 -0.3532  0.5485 -1.6697
   95SAPE  H18Y 9508   2.436   1.306   5.663 -1.1467  0.2581  0.1829
   95SAPE  H18Z 9509   2.441   1.293   5.482 -0.1634  2.6671 -1.3022
   96SAPE     N 9510   5.036   2.729   7.232  0.1291  0.4086 -0.3093
   96SAPE   HN1 9511   5.089   2.794   7.170  1.0307 -0.4159 -0.4308
   96SAPE   HN2 9512   4.998   2.658   7.167  1.5617 -0.3198 -0.4067
   96SAPE   HN3 9513   4.954   2.776   7.274  0.4100  0.6739 -0.0543
   96SAPE   C12 9514   5.115   2.672   7.346 -0.8079 -0.2333  0.6306
   96SAPE  H12A 9515   5.045   2.608   7.404 -0.3751 -0.6784  0.6778
   96SAPE  H12B 9516   5.152   2.746   7.421 -0.6169 -2.7952  3.2729
   96SAPE   C11 9517   5.226   2.580   7.294  0.0815 -0.2047 -0.6132
   96SAPE  H11A 9518   5.251   2.510   7.377 -1.6054  1.7273  1.6870
   96SAPE  H11B 9519   5.307   2.654   7.277 -1.4410  2.0644  1.2890
   96SAPE     P 9520   5.277   2.398   7.098 -0.2103  0.2804  0.0995
   96SAPE   O13 9521   5.421   2.439   7.111 -0.2252 -0.3872  0.7535
   96SAPE   O14 9522   5.261   2.266   7.158  0.2267  0.7364  0.4632
   96SAPE   O12 9523   5.191   2.504   7.175 -0.5176  0.5115 -0.3515
   96SAPE   O11 9524   5.230   2.413   6.955  0.5675 -0.1285  0.2683
   96SAPE    C1 9525   5.303   2.478   6.845  0.4691  0.0480 -0.2194
   96SAPE    HA 9526   5.412   2.480   6.864  0.4504 -0.7175  0.0157
   96SAPE    HB 9527   5.307   2.409   6.759 -0.2907  0.7049 -0.7984
   96SAPE    C2 9528   5.253   2.621   6.819  0.3427 -0.0652 -0.1782
   96SAPE    HS 9529   5.194   2.650   6.909 -1.4979 -0.3247 -1.2475
   96SAPE   O21 9530   5.164   2.620   6.702 -0.3810 -0.1944 -1.1082
   96SAPE   C21 9531   5.093   2.729   6.691 -0.3818  0.2191 -0.1608
   96SAPE   O22 9532   5.079   2.817   6.774 -0.1714  0.3198  0.0485
   96SAPE   C22 9533   5.023   2.728   6.559  0.9448  0.2040  0.7295
   96SAPE   H2R 9534   5.098   2.686   6.488  0.6991  0.6877  0.1653
   96SAPE   H2S 9535   4.941   2.655   6.562 -1.9872  3.0925 -1.4486
   96SAPE    C3 9536   5.370   2.721   6.793 -0.4630 -0.3950 -0.4717
   96SAPE    HX 9537   5.436   2.722   6.882  0.7841  1.7149 -1.3449
   96SAPE    HY 9538   5.346   2.830   6.795  1.9263  0.1633  0.1817
   96SAPE   O31 9539   5.446   2.674   6.675 -0.2116 -0.0076 -0.2606
   96SAPE   C31 9540   5.418   2.723   6.563  0.0069  0.0833 -0.0779
   96SAPE   O32 9541   5.339   2.815   6.541  0.1422  0.5171 -0.4208
   96SAPE   C32 9542   5.501   2.663   6.442 -0.2497  0.5410 -0.0522
   96SAPE   H2X 9543   5.474   2.556   6.425 -1.5789  1.0936 -1.7595
   96SAPE   H2Y 9544   5.606   2.667   6.477 -0.3896  0.6028  0.3648
   96SAPE   C23 9545   4.963   2.862   6.509  0.3043  0.3700 -0.3241
   96SAPE   H3R 9546   5.052   2.928   6.507  0.6858 -0.1364 -0.1388
   96SAPE   H3S 9547   4.900   2.915   6.583  1.9749 -0.6129  1.9157
   96SAPE   C24 9548   4.903   2.855   6.373  0.8849 -0.1720  0.1723
   96SAPE   H4R 9549   4.817   2.786   6.385  2.1141 -2.2762 -2.1083
   96SAPE   H4S 9550   4.970   2.814   6.294 -0.9127  1.3692 -2.2599
   96SAPE   C25 9551   4.858   2.992   6.324 -0.0376  0.0612 -0.6117
   96SAPE   H5R 9552   4.787   3.044   6.390 -0.4462 -1.7762  0.4467
   96SAPE   C26 9553   4.914   3.062   6.225  0.3746 -0.7384 -0.6482
   96SAPE   H6R 9554   4.876   3.164   6.210  2.0825  0.2031  1.0778
   96SAPE   C27 9555   5.021   3.023   6.126  0.3634  0.1435  0.2608
   96SAPE   H7R 9556   4.990   3.014   6.020  0.7267  1.4065  0.0341
   96SAPE   H7S 9557   5.051   2.918   6.147  0.0439 -0.2748 -1.2619
   96SAPE   C28 9558   5.135   3.119   6.136 -0.0656 -1.2393  0.1016
   96SAPE   H8R 9559   5.183   3.128   6.235  2.1532 -2.4992 -0.7854
   96SAPE   C29 9560   5.181   3.192   6.029  0.0089 -0.0068  0.6720
   96SAPE   H9R 9561   5.266   3.260   6.046  0.7529 -1.1823  1.9464
   96SAPE  C210 9562   5.143   3.194   5.884  0.4963  0.2434 -0.6890
   96SAPE  H10R 9563   5.139   3.299   5.850 -0.8726  0.5016  0.1917
   96SAPE  H10S 9564   5.043   3.146   5.877  0.2208  0.1898  2.2577
   96SAPE  C211 9565   5.248   3.128   5.795  0.2909 -0.1580  0.3346
   96SAPE  H11R 9566   5.346   3.119   5.844  0.8176  3.5646  0.2516
   96SAPE  C212 9567   5.228   3.082   5.671  0.1087  0.4206 -0.5819
   96SAPE  H12R 9568   5.312   3.026   5.627  0.1154 -0.1010  0.0820
   96SAPE  C213 9569   5.098   3.084   5.598  0.0394 -0.0921 -0.6015
   96SAPE  H13R 9570   5.126   3.086   5.491  0.4167 -1.8149 -0.5649
   96SAPE  H13S 9571   5.048   3.180   5.623 -0.9303 -0.9381  0.8753
   96SAPE  C214 9572   4.997   2.981   5.635  0.2280 -0.0735 -0.5969
   96SAPE  H14R 9573   4.941   2.995   5.729 -0.6269  0.3756 -1.1655
   96SAPE  C215 9574   4.974   2.870   5.564 -0.8226 -0.3495  0.5872
   96SAPE  H15R 9575   4.907   2.795   5.608 -2.5270  0.4917 -0.4714
   96SAPE  C216 9576   5.038   2.842   5.432  0.0916 -0.5730 -0.1425
   96SAPE  H16R 9577   5.148   2.855   5.441  0.5560 -3.3404 -0.9801
   96SAPE  H16S 9578   5.006   2.924   5.363  1.8047  0.0547 -0.2425
   96SAPE  C217 9579   4.998   2.700   5.383  0.0404  0.5447 -0.4355
   96SAPE  H17R 9580   4.893   2.707   5.348  0.3313  0.0099 -1.4867
   96SAPE  H17S 9581   4.996   2.624   5.463 -0.8214  0.1232 -0.8452
   96SAPE  C218 9582   5.084   2.657   5.257 -0.0869  0.0594 -0.7766
   96SAPE  H18R 9583   5.190   2.637   5.283  0.4487 -0.1765 -2.9458
   96SAPE  H18S 9584   5.086   2.737   5.180 -1.0087 -0.7402 -1.6757
   96SAPE  C219 9585   5.032   2.534   5.186  0.3333  0.2234  0.4665
   96SAPE  H19R 9586   4.929   2.555   5.151  1.1989  0.3795 -2.2027
   96SAPE  H19S 9587   5.031   2.442   5.248 -1.7542 -0.8012 -0.9727
   96SAPE  C220 9588   5.105   2.498   5.058 -0.1462 -0.1007 -0.0579
   96SAPE  H20R 9589   5.113   2.592   4.999  0.8020 -0.1578 -0.0303
   96SAPE  H20S 9590   5.047   2.424   4.999 -1.4447  0.1857  0.8062
   96SAPE  H20T 9591   5.200   2.452   5.093  0.3859  0.3696 -0.8675
   96SAPE   C33 9592   5.486   2.756   6.317 -0.6098  0.6436 -0.3354
   96SAPE   H3X 9593   5.559   2.721   6.240  0.0553  2.0471 -0.3775
   96SAPE   H3Y 9594   5.523   2.858   6.340  3.7212 -0.3585 -1.8782
   96SAPE   C34 9595   5.351   2.750   6.252  0.2732 -0.0648 -0.1926
   96SAPE   H4X 9596   5.266   2.796   6.306  1.0570 -0.0969  1.1186
   96SAPE   H4Y 9597   5.318   2.645   6.240 -1.3623  0.4851 -0.7789
   96SAPE   C35 9598   5.346   2.819   6.111  0.7343 -0.0314  0.6127
   96SAPE   H5X 9599   5.405   2.911   6.131  1.6363 -0.5768  0.5054
   96SAPE   H5Y 9600   5.243   2.846   6.079  0.6565  2.0182  2.3621
   96SAPE   C36 9601   5.405   2.735   5.999 -0.0533 -0.1789  0.0094
   96SAPE   H6X 9602   5.350   2.639   5.991  0.1278 -0.2373 -0.6369
   96SAPE   H6Y 9603   5.507   2.710   6.033  0.7461  3.7923  1.0101
   96SAPE   C37 9604   5.405   2.809   5.863  0.3593  0.2370  0.3145
   96SAPE   H7X 9605   5.473   2.897   5.867 -1.2827  1.7272 -1.9267
   96SAPE   H7Y 9606   5.307   2.855   5.840  0.5198  1.2840  1.5959
   96SAPE   C38 9607   5.454   2.714   5.753 -0.0570  0.1795  0.0276
   96SAPE   H8X 9608   5.381   2.631   5.759  0.6796 -0.4701  0.1379
   96SAPE   H8Y 9609   5.557   2.680   5.776  0.1530  1.3636  0.9592
   96SAPE   C39 9610   5.459   2.774   5.611 -0.1401  0.0319  0.5778
   96SAPE   H9X 9611   5.545   2.844   5.604 -0.0625 -0.1305 -0.1795
   96SAPE   H9Y 9612   5.364   2.831   5.600 -0.2858  0.0844  1.8633
   96SAPE  C310 9613   5.487   2.663   5.512  0.2934 -0.1964 -0.3952
   96SAPE  H10X 9614   5.394   2.603   5.505  0.4476 -0.2444 -2.9887
   96SAPE  H10Y 9615   5.551   2.581   5.550  0.6887  0.9981  1.6861
   96SAPE  C311 9616   5.515   2.719   5.371 -0.0065  0.4910 -0.7048
   96SAPE  H11X 9617   5.533   2.635   5.301  0.1748  1.6819 -2.1297
   96SAPE  H11Y 9618   5.615   2.767   5.371  1.0500 -1.5242  1.5637
   96SAPE  C312 9619   5.424   2.824   5.307  0.9333  0.0344  0.3645
   96SAPE  H12X 9620   5.365   2.868   5.390  0.2158  2.0415 -1.1508
   96SAPE  H12Y 9621   5.348   2.771   5.246 -0.7395  1.4827  1.1128
   96SAPE  C313 9622   5.493   2.926   5.222 -0.0455  0.5055 -0.4175
   96SAPE  H13X 9623   5.570   2.874   5.161 -1.3777 -1.0923 -0.7997
   96SAPE  H13Y 9624   5.540   3.007   5.281 -0.6614  0.7736 -0.2887
   96SAPE  C314 9625   5.396   2.996   5.136  0.0274  0.1829  0.5057
   96SAPE  H14X 9626   5.346   2.932   5.061  0.8641  1.4306 -1.1962
   96SAPE  H14Y 9627   5.464   3.068   5.085  0.9041  0.1294  1.5563
   96SAPE  C315 9628   5.285   3.086   5.210 -0.5336 -0.2368 -0.0594
   96SAPE  H15X 9629   5.327   3.147   5.293  0.1109 -0.6923 -0.0339
   96SAPE  H15Y 9630   5.205   3.024   5.254  0.4498 -0.5688  1.3384
   96SAPE  C316 9631   5.234   3.187   5.110  0.1571 -0.6362  0.2155
   96SAPE  H16X 9632   5.187   3.129   5.028  0.0922  0.9942 -0.9382
   96SAPE  H16Y 9633   5.307   3.259   5.068 -1.3207 -0.7993 -2.8734
   96SAPE  C317 9634   5.122   3.263   5.182 -0.0064  0.4044 -0.3931
   96SAPE  H17X 9635   5.160   3.326   5.265  1.7043  0.1605 -0.9415
   96SAPE  H17Y 9636   5.061   3.181   5.225  0.4735  0.1447 -0.1958
   96SAPE  C318 9637   5.035   3.347   5.091  0.0932 -0.1699 -0.4476
   96SAPE  H18X 9638   5.069   3.453   5.090  1.3555 -0.5613 -2.1413
   96SAPE  H18Y 9639   4.932   3.363   5.130 -0.1861 -3.0140  0.2233
   96SAPE  H18Z 9640   5.029   3.301   4.990  0.6094  1.2276 -1.1451
   97SAPE     N 9641   4.376   2.712   7.181 -0.3012  0.4384  0.2726
   97SAPE   HN1 9642   4.315   2.652   7.240 -2.0509  2.3094  0.4875
   97SAPE   HN2 9643   4.328   2.793   7.137  0.8179  0.5070 -0.8781
   97SAPE   HN3 9644   4.408   2.650   7.104 -2.4021  0.7853 -0.9703
   97SAPE   C12 9645   4.498   2.759   7.247  0.3738  0.4389  0.1109
   97SAPE  H12A 9646   4.461   2.828   7.326 -2.2334 -1.1693  0.3741
   97SAPE  H12B 9647   4.565   2.811   7.175  2.1220  0.8887  1.9283
   97SAPE   C11 9648   4.583   2.642   7.305 -0.2212 -0.1592  0.2568
   97SAPE  H11A 9649   4.524   2.589   7.383 -4.0438  1.0323 -1.5411
   97SAPE  H11B 9650   4.676   2.686   7.345  0.8939 -0.2168 -2.1023
   97SAPE     P 9651   4.756   2.477   7.202  0.0845 -0.1372 -0.0751
   97SAPE   O13 9652   4.819   2.480   7.337 -0.3713  0.7559  0.4205
   97SAPE   O14 9653   4.755   2.343   7.144 -0.6322  0.3324  0.2040
   97SAPE   O12 9654   4.617   2.542   7.205  0.1497 -0.1469 -0.2560
   97SAPE   O11 9655   4.845   2.575   7.117  0.2769  0.7007  0.4243
   97SAPE    C1 9656   4.892   2.535   6.986  0.2784 -0.2109  0.1379
   97SAPE    HA 9657   4.980   2.598   6.959 -0.7023  1.8637  1.5200
   97SAPE    HB 9658   4.916   2.427   6.980 -4.3496 -1.4162 -0.7557
   97SAPE    C2 9659   4.781   2.563   6.879 -0.7527 -0.5268  0.2231
   97SAPE    HS 9660   4.688   2.512   6.910 -0.9333 -0.2994  0.0558
   97SAPE   O21 9661   4.821   2.520   6.746  0.2976 -0.2266 -0.2960
   97SAPE   C21 9662   4.736   2.454   6.670  0.4683  0.2714 -0.1115
   97SAPE   O22 9663   4.621   2.422   6.702 -0.5237 -0.0372  0.1144
   97SAPE   C22 9664   4.796   2.415   6.537  0.1207  0.4824  0.9625
   97SAPE   H2R 9665   4.894   2.466   6.523 -0.3922  0.9499 -1.1707
   97SAPE   H2S 9666   4.796   2.304   6.532  0.8936  0.5235 -1.8598
   97SAPE    C3 9667   4.751   2.715   6.883  0.2695  0.3716 -0.4053
   97SAPE    HX 9668   4.847   2.770   6.869  2.0964 -1.9972  1.7716
   97SAPE    HY 9669   4.719   2.739   6.987 -0.3144  0.8724 -0.6941
   97SAPE   O31 9670   4.653   2.751   6.799  0.0125  0.3266 -0.0898
   97SAPE   C31 9671   4.526   2.739   6.835  0.0445  0.1048 -0.3860
   97SAPE   O32 9672   4.475   2.665   6.921 -0.3658 -0.0498 -0.1941
   97SAPE   C32 9673   4.449   2.843   6.759  0.2860  0.2245  0.1739
   97SAPE   H2X 9674   4.513   2.926   6.722 -0.1050  0.1316 -0.7485
   97SAPE   H2Y 9675   4.380   2.890   6.832  1.8390  1.2511  1.0451
   97SAPE   C23 9676   4.706   2.467   6.423 -0.0685 -0.6649  0.7665
   97SAPE   H3R 9677   4.698   2.578   6.425  0.2055 -0.6425  0.5683
   97SAPE   H3S 9678   4.601   2.430   6.427  0.2409 -1.7094 -0.3237
   97SAPE   C24 9679   4.770   2.431   6.284 -0.0073  0.2299 -0.4656
   97SAPE   H4R 9680   4.698   2.457   6.203  1.1299 -0.1278 -1.6282
   97SAPE   H4S 9681   4.787   2.321   6.285 -0.6715  0.1294  0.0423
   97SAPE   C25 9682   4.904   2.502   6.256  0.6971 -0.1921  0.6476
   97SAPE   H5R 9683   4.981   2.494   6.335  1.6089  1.6002  0.0059
   97SAPE   C26 9684   4.953   2.571   6.154  0.2006 -0.4264 -0.0813
   97SAPE   H6R 9685   5.054   2.614   6.156 -0.6392  1.6890  0.1037
   97SAPE   C27 9686   4.885   2.600   6.021 -0.8505 -0.1328  0.4704
   97SAPE   H7R 9687   4.792   2.654   6.049 -0.9611  0.3333 -0.7724
   97SAPE   H7S 9688   4.839   2.505   5.986 -1.9486 -0.1384  1.8219
   97SAPE   C28 9689   4.961   2.676   5.917  0.5507  0.1588  0.0692
   97SAPE   H8R 9690   4.935   2.783   5.916  0.4240  0.1306  0.2293
   97SAPE   C29 9691   5.053   2.631   5.831  0.5664  0.1265 -0.1405
   97SAPE   H9R 9692   5.087   2.702   5.754 -0.0718  1.1431  0.4983
   97SAPE  C210 9693   5.098   2.485   5.821 -0.0961 -0.5500 -0.6287
   97SAPE  H10R 9694   5.009   2.420   5.835 -0.0176 -0.8153 -1.3334
   97SAPE  H10S 9695   5.159   2.453   5.908  0.8746  1.4703 -0.5143
   97SAPE  C211 9696   5.173   2.456   5.693  0.3387  0.5035 -0.0625
   97SAPE  H11R 9697   5.135   2.518   5.611 -3.6137 -2.5347 -0.8670
   97SAPE  C212 9698   5.275   2.361   5.687  0.0509  0.1568  0.7881
   97SAPE  H12R 9699   5.329   2.353   5.592  0.8203 -0.5376  1.2701
   97SAPE  C213 9700   5.344   2.276   5.796  0.3767 -0.5418 -0.4561
   97SAPE  H13R 9701   5.386   2.187   5.745  0.0133 -0.7759 -0.3492
   97SAPE  H13S 9702   5.279   2.226   5.870  1.1294 -0.4111  0.3152
   97SAPE  C214 9703   5.449   2.376   5.852 -0.2526 -0.1852  0.7302
   97SAPE  H14R 9704   5.469   2.469   5.798  2.1751 -0.7301  0.5789
   97SAPE  C215 9705   5.514   2.350   5.966 -0.1414  0.3166  0.8506
   97SAPE  H15R 9706   5.586   2.421   6.009  0.0103  0.0453  1.0485
   97SAPE  C216 9707   5.502   2.230   6.055  0.2030  0.0963  0.1816
   97SAPE  H16R 9708   5.596   2.228   6.115  0.6879  1.4769 -0.4853
   97SAPE  H16S 9709   5.520   2.138   5.995 -0.5128 -0.7798  1.2685
   97SAPE  C217 9710   5.375   2.196   6.139 -0.9389 -0.1836  0.1647
   97SAPE  H17R 9711   5.411   2.121   6.212  2.6764  2.1532  1.0212
   97SAPE  H17S 9712   5.290   2.157   6.078 -1.1207  0.6392 -0.1206
   97SAPE  C218 9713   5.312   2.314   6.222 -0.4981  0.8520  0.3682
   97SAPE  H18R 9714   5.273   2.394   6.156 -0.1156 -0.0027 -0.9369
   97SAPE  H18S 9715   5.392   2.358   6.286  0.4679 -0.0120 -0.2007
   97SAPE  C219 9716   5.220   2.257   6.337 -0.5548 -0.2549 -0.2054
   97SAPE  H19R 9717   5.268   2.165   6.377 -0.9003 -1.0131 -1.4404
   97SAPE  H19S 9718   5.122   2.225   6.294 -0.4874  0.3420 -0.8236
   97SAPE  C220 9719   5.201   2.350   6.455  0.2456  0.2120 -0.2868
   97SAPE  H20R 9720   5.132   2.309   6.531 -1.0685  0.4741 -1.3158
   97SAPE  H20S 9721   5.173   2.452   6.421  0.3037  0.3548  0.0945
   97SAPE  H20T 9722   5.297   2.364   6.510 -0.2012  0.2284  0.4893
   97SAPE   C33 9723   4.372   2.757   6.652  0.1815 -0.9533  0.1470
   97SAPE   H3X 9724   4.291   2.823   6.613  0.2616 -0.2918  1.0639
   97SAPE   H3Y 9725   4.319   2.673   6.702  0.5466 -0.0991  2.0629
   97SAPE   C34 9726   4.459   2.713   6.531 -0.5586 -0.3034 -0.0865
   97SAPE   H4X 9727   4.441   2.613   6.486  2.6036 -1.7152  1.5291
   97SAPE   H4Y 9728   4.565   2.708   6.562 -2.1403 -0.1541  6.9577
   97SAPE   C35 9729   4.440   2.824   6.432  0.7636  0.4093 -0.1017
   97SAPE   H5X 9730   4.472   2.923   6.472 -0.0780 -0.0871  1.9069
   97SAPE   H5Y 9731   4.334   2.844   6.406  0.1600 -2.3962 -0.1312
   97SAPE   C36 9732   4.516   2.789   6.304 -0.6560  0.2306  0.4260
   97SAPE   H6X 9733   4.474   2.691   6.272 -0.3132 -0.0797  0.9041
   97SAPE   H6Y 9734   4.624   2.783   6.332 -0.3847  0.8529 -0.4494
   97SAPE   C37 9735   4.510   2.881   6.188  0.1892 -0.7232 -0.3748
   97SAPE   H7X 9736   4.549   2.982   6.217  0.2953 -1.2251  1.3512
   97SAPE   H7Y 9737   4.403   2.894   6.161 -0.1957 -1.2694  0.8205
   97SAPE   C38 9738   4.589   2.845   6.066 -0.3776  0.1435 -0.8266
   97SAPE   H8X 9739   4.556   2.744   6.032  0.6201  0.2659 -2.2550
   97SAPE   H8Y 9740   4.692   2.832   6.104 -0.8557  1.6807  1.1418
   97SAPE   C39 9741   4.578   2.946   5.955 -0.4627 -0.2967 -0.1859
   97SAPE   H9X 9742   4.624   3.042   5.989  0.1639 -0.6214 -0.1040
   97SAPE   H9Y 9743   4.473   2.975   5.930 -0.0699  2.6430  1.0540
   97SAPE  C310 9744   4.643   2.903   5.827  0.3441 -0.1382  0.1005
   97SAPE  H10X 9745   4.603   2.801   5.812 -0.8163 -0.0756  2.3637
   97SAPE  H10Y 9746   4.752   2.903   5.852  0.5296  0.1570 -0.6731
   97SAPE  C311 9747   4.608   2.988   5.706  0.3305 -0.8005  0.2778
   97SAPE  H11X 9748   4.692   2.975   5.634  1.9325  0.3665  1.8529
   97SAPE  H11Y 9749   4.619   3.097   5.725  1.0471 -0.8495  0.1793
   97SAPE  C312 9750   4.472   2.967   5.647 -0.0877 -0.1257 -0.3515
   97SAPE  H12X 9751   4.429   3.068   5.626 -0.3374 -0.3882 -1.1462
   97SAPE  H12Y 9752   4.403   2.913   5.715 -0.4061  1.5984  0.7639
   97SAPE  C313 9753   4.461   2.889   5.519  0.4915  0.0581  0.2026
   97SAPE  H13X 9754   4.498   2.785   5.534 -0.6499 -1.1325 -3.9325
   97SAPE  H13Y 9755   4.517   2.940   5.438  0.0319 -2.0810 -1.5595
   97SAPE  C314 9756   4.314   2.882   5.474  0.4434  0.5411  0.5864
   97SAPE  H14X 9757   4.266   2.981   5.487  0.8379  0.9464 -0.8383
   97SAPE  H14Y 9758   4.250   2.814   5.533  0.9486 -1.6788 -1.2753
   97SAPE  C315 9759   4.283   2.838   5.326 -0.4852 -0.0014  0.3684
   97SAPE  H15X 9760   4.323   2.737   5.300 -0.9527 -0.6096  1.9194
   97SAPE  H15Y 9761   4.333   2.909   5.256 -0.8655  0.2138  0.3099
   97SAPE  C316 9762   4.134   2.850   5.294  0.5420 -0.2633 -0.0207
   97SAPE  H16X 9763   4.115   2.958   5.312  0.4335 -0.3602  0.4834
   97SAPE  H16Y 9764   4.058   2.781   5.339 -0.5931  1.5313  0.9237
   97SAPE  C317 9765   4.091   2.832   5.142 -0.1780  0.5798  0.3165
   97SAPE  H17X 9766   4.184   2.856   5.087 -0.6975  1.0535 -0.3749
   97SAPE  H17Y 9767   4.003   2.898   5.125 -0.2938  0.6811  1.2951
   97SAPE  C318 9768   4.048   2.687   5.116 -0.4587 -0.2861 -0.5304
   97SAPE  H18X 9769   4.120   2.613   5.158 -1.1768 -1.1332 -0.7568
   97SAPE  H18Y 9770   4.040   2.658   5.009  0.0328 -2.6994  0.0306
   97SAPE  H18Z 9771   3.953   2.675   5.172 -0.6577  3.6109  0.2143
   98SAPE     N 9772   3.889   3.188   7.451  0.1447  0.2490  0.2554
   98SAPE   HN1 9773   3.955   3.263   7.480 -1.1388  2.0461 -1.2260
   98SAPE   HN2 9774   3.862   3.228   7.358  1.3566  0.3036 -0.0860
   98SAPE   HN3 9775   3.798   3.176   7.501  0.2634 -2.0620  0.0281
   98SAPE   C12 9776   3.953   3.049   7.435  0.2073  0.1275 -0.8374
   98SAPE  H12A 9777   3.900   2.987   7.359  1.3196 -0.4158 -1.1937
   98SAPE  H12B 9778   3.958   2.988   7.528 -0.5413  1.2742 -0.0161
   98SAPE   C11 9779   4.102   3.067   7.388 -0.1242  0.1446 -0.2317
   98SAPE  H11A 9780   4.113   3.049   7.279  1.2400 -1.8215  0.1755
   98SAPE  H11B 9781   4.156   2.978   7.426 -0.9101  1.1826  3.7624
   98SAPE     P 9782   4.318   3.207   7.375 -0.0191  0.2773  0.0387
   98SAPE   O13 9783   4.372   3.331   7.435  0.3121  0.5681  0.2714
   98SAPE   O14 9784   4.399   3.087   7.398 -0.6416 -0.3106 -0.0490
   98SAPE   O12 9785   4.167   3.184   7.429  0.0997 -0.6985  0.2966
   98SAPE   O11 9786   4.305   3.230   7.220 -0.5420  0.2354  0.2348
   98SAPE    C1 9787   4.200   3.321   7.182 -0.3153 -0.4250  0.1458
   98SAPE    HA 9788   4.123   3.342   7.259  0.6595  0.3579  0.9446
   98SAPE    HB 9789   4.239   3.425   7.187 -0.6746 -0.1280 -2.2261
   98SAPE    C2 9790   4.137   3.301   7.038  0.0539  1.0821 -0.5203
   98SAPE    HS 9791   4.074   3.392   7.023 -3.9990 -0.5319  3.9405
   98SAPE   O21 9792   4.053   3.187   7.051  0.2209 -0.0958  0.0026
   98SAPE   C21 9793   3.939   3.198   6.977 -0.5185 -0.5136 -0.6304
   98SAPE   O22 9794   3.916   3.285   6.895 -0.0868  0.0870  0.7211
   98SAPE   C22 9795   3.838   3.087   7.005  0.2368  0.4669 -0.0692
   98SAPE   H2R 9796   3.884   3.015   7.077  0.3381  2.1191  1.6024
   98SAPE   H2S 9797   3.746   3.131   7.049 -0.0126  0.5885 -0.7014
   98SAPE    C3 9798   4.246   3.294   6.927  0.5218  0.0814  0.2371
   98SAPE    HX 9799   4.306   3.203   6.949  0.2204 -0.4153 -0.9307
   98SAPE    HY 9800   4.314   3.381   6.937 -0.2100  0.6317  0.5175
   98SAPE   O31 9801   4.184   3.282   6.794  0.6067  0.1654  0.2683
   98SAPE   C31 9802   4.149   3.397   6.741  0.5453 -0.4746 -0.0586
   98SAPE   O32 9803   4.163   3.505   6.792  0.0314  0.2606  0.3297
   98SAPE   C32 9804   4.054   3.370   6.614 -0.8986  0.1160  0.2857
   98SAPE   H2X 9805   3.955   3.332   6.648 -1.3101  0.5062 -0.4464
   98SAPE   H2Y 9806   4.116   3.296   6.560  0.2579  1.9196 -0.9498
   98SAPE   C23 9807   3.791   3.013   6.879 -0.4522  0.2460 -0.5552
   98SAPE   H3R 9808   3.776   3.095   6.805 -1.4609  0.4667 -0.1282
   98SAPE   H3S 9809   3.689   2.971   6.891 -1.0556  1.3636 -1.4945
   98SAPE   C24 9810   3.883   2.892   6.832 -0.3707 -0.1021 -0.4738
   98SAPE   H4R 9811   3.827   2.841   6.751  0.0625 -3.4254  1.1136
   98SAPE   H4S 9812   3.897   2.819   6.915 -0.2505 -1.3533 -1.5500
   98SAPE   C25 9813   4.013   2.945   6.772  0.2077 -0.0121 -0.2475
   98SAPE   H5R 9814   4.089   2.971   6.847 -0.3944  1.7186 -0.1951
   98SAPE   C26 9815   4.033   2.976   6.642  0.2585  0.4429 -0.6238
   98SAPE   H6R 9816   4.127   3.027   6.618  0.1332  0.5447 -0.8995
   98SAPE   C27 9817   3.942   2.956   6.522 -0.5009 -0.3568 -0.2602
   98SAPE   H7R 9818   3.842   2.999   6.541 -0.1768  1.0678 -1.6483
   98SAPE   H7S 9819   3.929   2.846   6.521  0.1036 -0.4515 -2.2790
   98SAPE   C28 9820   4.015   3.001   6.402  0.1742  0.1494  0.6029
   98SAPE   H8R 9821   4.050   3.105   6.404 -0.7317  0.6401 -2.5144
   98SAPE   C29 9822   4.044   2.924   6.295  0.2166  0.2349  1.0550
   98SAPE   H9R 9823   4.099   2.965   6.209 -0.0274 -3.6193 -1.1558
   98SAPE  C210 9824   4.018   2.776   6.276 -0.4814  0.4935  0.2097
   98SAPE  H10R 9825   3.997   2.754   6.170  0.8847  2.4162 -0.5101
   98SAPE  H10S 9826   3.932   2.746   6.339  1.1426 -0.1854  2.2248
   98SAPE  C211 9827   4.125   2.685   6.330  0.1765  0.2810  0.3870
   98SAPE  H11R 9828   4.147   2.686   6.438  0.3484  1.1017  0.3544
   98SAPE  C212 9829   4.194   2.602   6.251 -0.8054 -0.0175  0.1067
   98SAPE  H12R 9830   4.288   2.561   6.291  0.4418  1.7389 -0.8549
   98SAPE  C213 9831   4.174   2.573   6.106 -0.2875  0.2775 -0.1259
   98SAPE  H13R 9832   4.073   2.526   6.101 -0.0210 -0.3962  0.5935
   98SAPE  H13S 9833   4.249   2.500   6.068 -0.1337  0.7319 -0.6994
   98SAPE  C214 9834   4.180   2.693   6.018  0.1429 -0.3515 -0.0453
   98SAPE  H14R 9835   4.240   2.780   6.049  0.3132 -0.3943 -0.2533
   98SAPE  C215 9836   4.123   2.711   5.901 -0.2039  0.6266  0.3381
   98SAPE  H15R 9837   4.116   2.813   5.860  0.0513  1.7714  2.9731
   98SAPE  C216 9838   4.043   2.607   5.818  0.0656  0.2260  0.3410
   98SAPE  H16R 9839   3.941   2.648   5.807 -0.3056 -0.9458 -0.9354
   98SAPE  H16S 9840   4.040   2.503   5.856  0.9576 -0.4281 -1.2538
   98SAPE  C217 9841   4.105   2.598   5.677  0.6553  0.0012  0.4506
   98SAPE  H17R 9842   4.212   2.607   5.703  0.2475  3.6359  1.3506
   98SAPE  H17S 9843   4.070   2.686   5.619  0.3607 -1.5082 -1.7907
   98SAPE  C218 9844   4.069   2.466   5.610  0.5614  0.3932  1.0184
   98SAPE  H18R 9845   4.116   2.388   5.672  0.3892 -0.1647  0.4516
   98SAPE  H18S 9846   4.107   2.474   5.507  0.5720 -1.3300  0.8658
   98SAPE  C219 9847   3.919   2.444   5.577 -0.1831  0.2161  0.6445
   98SAPE  H19R 9848   3.875   2.419   5.676 -0.3826 -0.1212  0.4745
   98SAPE  H19S 9849   3.914   2.353   5.512 -1.1930 -1.4680  2.9235
   98SAPE  C220 9850   3.845   2.557   5.512 -0.2819  0.1265 -0.4804
   98SAPE  H20R 9851   3.741   2.527   5.489 -1.1397  0.4455  2.5719
   98SAPE  H20S 9852   3.894   2.586   5.416 -0.5981 -2.0168 -1.3520
   98SAPE  H20T 9853   3.847   2.646   5.578  0.7630  0.0588 -0.4010
   98SAPE   C33 9854   4.030   3.498   6.531 -0.3133 -0.4455 -0.4959
   98SAPE   H3X 9855   4.120   3.560   6.553 -0.6500  0.1101 -0.6648
   98SAPE   H3Y 9856   3.942   3.558   6.564 -0.4983 -2.0519  2.2853
   98SAPE   C34 9857   4.017   3.482   6.384 -0.4616 -0.3297 -0.0753
   98SAPE   H4X 9858   3.923   3.430   6.355 -0.2397 -0.8013  0.0364
   98SAPE   H4Y 9859   4.097   3.414   6.347 -0.3062 -0.4397  0.4548
   98SAPE   C35 9860   4.033   3.615   6.316  0.7054 -0.3177  0.6265
   98SAPE   H5X 9861   4.123   3.651   6.370  2.2649 -0.8419 -1.4789
   98SAPE   H5Y 9862   3.952   3.688   6.334  0.3053 -0.6163  0.0892
   98SAPE   C36 9863   4.056   3.614   6.161  0.0055 -0.2584  0.0115
   98SAPE   H6X 9864   4.130   3.537   6.131 -0.7172 -1.5006  1.3021
   98SAPE   H6Y 9865   4.101   3.714   6.143 -0.1965 -0.0703  0.5227
   98SAPE   C37 9866   3.934   3.602   6.065  0.3046  0.0504 -0.3568
   98SAPE   H7X 9867   3.877   3.696   6.078 -1.1829 -1.0566  1.6362
   98SAPE   H7Y 9868   3.866   3.518   6.089 -1.0518  0.2968 -3.0757
   98SAPE   C38 9869   3.981   3.593   5.918  0.1168  0.2656  0.3717
   98SAPE   H8X 9870   4.026   3.494   5.893 -1.3224  0.1384 -2.0662
   98SAPE   H8Y 9871   4.060   3.667   5.893 -0.6730 -0.0729 -3.7511
   98SAPE   C39 9872   3.874   3.619   5.811  0.1759  0.1066  0.9017
   98SAPE   H9X 9873   3.814   3.711   5.822 -2.3006 -0.8134 -2.9985
   98SAPE   H9Y 9874   3.799   3.537   5.822 -0.4746  0.6418  0.5080
   98SAPE  C310 9875   3.937   3.616   5.676 -0.3893 -0.2629 -0.2204
   98SAPE  H10X 9876   4.000   3.525   5.673 -0.2296 -0.1891  0.6465
   98SAPE  H10Y 9877   3.995   3.710   5.675 -2.3214  1.0759  2.3068
   98SAPE  C311 9878   3.829   3.602   5.557 -0.6677 -0.0261  0.4033
   98SAPE  H11X 9879   3.766   3.692   5.575  1.0344  1.3198  0.0035
   98SAPE  H11Y 9880   3.775   3.507   5.575 -2.4699  1.1294  1.4291
   98SAPE  C312 9881   3.888   3.616   5.408  0.7760 -0.2598  0.2870
   98SAPE  H12X 9882   3.973   3.545   5.396  1.3056  0.4754 -0.4263
   98SAPE  H12Y 9883   3.923   3.721   5.404 -1.3263  0.4403 -1.6151
   98SAPE  C313 9884   3.776   3.595   5.302  0.0873  0.1863  0.2564
   98SAPE  H13X 9885   3.681   3.645   5.330  0.3162  2.1055 -2.0285
   98SAPE  H13Y 9886   3.762   3.485   5.303  1.6038 -0.0427 -0.5714
   98SAPE  C314 9887   3.813   3.644   5.161  0.1501 -0.3155  0.7085
   98SAPE  H14X 9888   3.748   3.595   5.085  0.1016  0.7339  0.0620
   98SAPE  H14Y 9889   3.917   3.608   5.146 -0.5235 -1.4097 -2.1205
   98SAPE  C315 9890   3.814   3.797   5.130  0.2353 -0.6092  0.1496
   98SAPE  H15X 9891   3.863   3.832   5.037  0.9128  2.2567  1.4817
   98SAPE  H15Y 9892   3.876   3.856   5.200 -0.9227  1.0705 -0.1766
   98SAPE  C316 9893   3.669   3.846   5.125  0.7424 -0.8195  0.6297
   98SAPE  H16X 9894   3.603   3.812   5.208 -2.0161  0.3083 -0.9650
   98SAPE  H16Y 9895   3.626   3.795   5.036 -1.1968  1.0621  0.3988
   98SAPE  C317 9896   3.663   3.994   5.094 -0.4871 -0.0342  0.4263
   98SAPE  H17X 9897   3.736   4.023   5.015  0.4570  0.4824  1.4529
   98SAPE  H17Y 9898   3.687   4.057   5.183 -1.6087  0.4143  0.4218
   98SAPE  C318 9899   3.529   4.023   5.035  0.2495 -0.3472  0.0309
   98SAPE  H18X 9900   3.489   3.960   4.953 -1.9038 -0.1282  0.8512
   98SAPE  H18Y 9901   3.515   4.126   4.997  3.1229  0.1054  0.0097
   98SAPE  H18Z 9902   3.453   3.998   5.113  0.8889 -1.3753  0.3523
   99SAPE     N 9903   5.808   2.143   7.214  0.0446 -0.4954 -0.4318
   99SAPE   HN1 9904   5.830   2.044   7.193  1.7866  0.3568 -3.1891
   99SAPE   HN2 9905   5.772   2.152   7.311  2.0059  0.4468  0.2776
   99SAPE   HN3 9906   5.744   2.184   7.143  0.5827  1.5119  0.1613
   99SAPE   C12 9907   5.939   2.205   7.192 -0.6906  0.6350  0.3140
   99SAPE  H12A 9908   6.016   2.126   7.207 -0.6110  1.0478  2.3641
   99SAPE  H12B 9909   5.958   2.288   7.264  2.1045 -0.6243  1.1761
   99SAPE   C11 9910   5.954   2.260   7.050  0.2181 -0.4665 -0.4137
   99SAPE  H11A 9911   5.921   2.183   6.977 -1.5508 -0.8877  0.7745
   99SAPE  H11B 9912   6.059   2.288   7.027 -0.0592  0.5738 -0.4331
   99SAPE     P 9913   5.914   2.517   7.040 -0.1272  0.0594 -0.0504
   99SAPE   O13 9914   5.806   2.582   7.120  0.2375  0.2830  0.2545
   99SAPE   O14 9915   6.050   2.522   7.099  0.3901 -0.0021  1.0716
   99SAPE   O12 9916   5.868   2.371   7.031 -0.1249 -0.0397  0.1534
   99SAPE   O11 9917   5.914   2.568   6.891 -0.4593 -0.1767  0.1832
   99SAPE    C1 9918   5.785   2.559   6.829  0.0078  0.9116  0.0597
   99SAPE    HA 9919   5.705   2.499   6.879 -0.5489  1.2397 -0.4156
   99SAPE    HB 9920   5.743   2.661   6.817 -1.4884  0.1890 -1.4142
   99SAPE    C2 9921   5.791   2.497   6.692  0.0760 -0.6665 -0.7528
   99SAPE    HS 9922   5.684   2.477   6.670 -0.6799 -0.3642  2.2810
   99SAPE   O21 9923   5.871   2.374   6.685  0.0559  0.0424  0.9343
   99SAPE   C21 9924   5.816   2.270   6.739  0.4556  0.3289 -0.4128
   99SAPE   O22 9925   5.702   2.267   6.792 -0.1487 -0.0460  0.1143
   99SAPE   C22 9926   5.905   2.145   6.703 -0.0242  0.3794  0.2577
   99SAPE   H2R 9927   5.946   2.156   6.600  0.6350 -0.8711  0.3666
   99SAPE   H2S 9928   5.992   2.154   6.772  0.7614 -0.2210 -0.6317
   99SAPE    C3 9929   5.841   2.597   6.581  0.0299  0.7757  0.3318
   99SAPE    HX 9930   5.942   2.625   6.618  0.4448 -1.4581  1.0666
   99SAPE    HY 9931   5.783   2.690   6.596 -0.9752 -0.0406  1.8665
   99SAPE   O31 9932   5.834   2.540   6.445 -0.0620 -0.0168 -0.1820
   99SAPE   C31 9933   5.853   2.626   6.346 -0.7492  0.1344  0.4289
   99SAPE   O32 9934   5.867   2.745   6.357 -0.1191 -0.0062 -0.7069
   99SAPE   C32 9935   5.815   2.553   6.217  0.2518 -0.5827  0.1594
   99SAPE   H2X 9936   5.704   2.549   6.209  0.3024 -0.7027 -0.5450
   99SAPE   H2Y 9937   5.843   2.446   6.225 -0.5414 -0.6836  2.0213
   99SAPE   C23 9938   5.825   2.009   6.731 -0.4945 -0.4878  0.1511
   99SAPE   H3R 9939   5.772   2.021   6.828  0.8712 -1.0299  0.9828
   99SAPE   H3S 9940   5.904   1.932   6.739 -0.8853 -0.8567  0.4907
   99SAPE   C24 9941   5.717   1.964   6.625  0.2081  0.2448 -0.0513
   99SAPE   H4R 9942   5.649   1.907   6.691  1.1049  0.2713  0.9276
   99SAPE   H4S 9943   5.752   1.880   6.561 -1.4702 -2.1787  2.0452
   99SAPE   C25 9944   5.645   2.077   6.554 -0.2761 -0.1130  0.5648
   99SAPE   H5R 9945   5.577   2.137   6.617  0.3803  1.1287  0.1067
   99SAPE   C26 9946   5.657   2.112   6.426  0.3910  0.3974  0.3105
   99SAPE   H6R 9947   5.599   2.195   6.383 -0.5157 -1.2442 -1.8293
   99SAPE   C27 9948   5.744   2.045   6.314  0.3528  0.4158  0.0842
   99SAPE   H7R 9949   5.674   1.995   6.244  3.3048 -1.1491 -1.9931
   99SAPE   H7S 9950   5.796   1.960   6.363 -1.7029 -0.8698  0.1494
   99SAPE   C28 9951   5.835   2.152   6.255 -0.2574 -0.7849 -1.9052
   99SAPE   H8R 9952   5.867   2.231   6.324 -3.0506  0.4574 -1.8891
   99SAPE   C29 9953   5.873   2.159   6.124  0.0820  0.5735  0.4882
   99SAPE   H9R 9954   5.928   2.250   6.093 -1.1902  0.8137 -1.1809
   99SAPE  C210 9955   5.829   2.065   6.012 -0.6247  0.5295 -0.0657
   99SAPE  H10R 9956   5.739   2.110   5.966 -1.1802  1.0912  1.5128
   99SAPE  H10S 9957   5.793   1.970   6.056  1.1516 -0.6945 -1.0992
   99SAPE  C211 9958   5.932   2.038   5.907 -0.5697 -0.0343  0.3462
   99SAPE  H11R 9959   6.020   1.979   5.941 -0.7903 -0.4026  0.2856
   99SAPE  C212 9960   5.925   2.091   5.782 -0.4872  0.5168 -0.1253
   99SAPE  H12R 9961   5.998   2.061   5.705  0.5673  0.7133  0.7760
   99SAPE  C213 9962   5.826   2.185   5.726 -0.0496  0.1730  0.8521
   99SAPE  H13R 9963   5.889   2.261   5.674 -0.4671  0.6292  1.0058
   99SAPE  H13S 9964   5.775   2.247   5.803  1.0991 -0.7653  2.4355
   99SAPE  C214 9965   5.728   2.109   5.634  0.2649 -0.4552  0.0972
   99SAPE  H14R 9966   5.699   2.012   5.675  0.2897 -0.8927 -0.8954
   99SAPE  C215 9967   5.649   2.169   5.537 -0.9294  0.1496  0.1941
   99SAPE  H15R 9968   5.589   2.104   5.471  1.1513 -1.3816 -0.3464
   99SAPE  C216 9969   5.680   2.304   5.472  0.4374  0.1824 -0.2113
   99SAPE  H16R 9970   5.743   2.371   5.535 -0.1510 -0.4113  1.0377
   99SAPE  H16S 9971   5.586   2.361   5.459  1.2078  1.4499 -0.4069
   99SAPE  C217 9972   5.736   2.303   5.323 -0.5258 -0.7566 -0.0493
   99SAPE  H17R 9973   5.833   2.250   5.333  0.1693  0.6465  0.9468
   99SAPE  H17S 9974   5.766   2.401   5.281  0.4547 -1.5997 -1.4435
   99SAPE  C218 9975   5.636   2.239   5.224  0.2027 -0.3499 -1.2790
   99SAPE  H18R 9976   5.657   2.132   5.244  2.5516  0.4931  1.3127
   99SAPE  H18S 9977   5.657   2.269   5.119 -2.9727 -0.7754 -2.1406
   99SAPE  C219 9978   5.485   2.276   5.247  0.3874 -0.1909  0.5467
   99SAPE  H19R 9979   5.489   2.387   5.242  0.0378 -0.1234  1.5580
   99SAPE  H19S 9980   5.450   2.246   5.348 -1.5098 -1.4679 -0.4193
   99SAPE  C220 9981   5.385   2.221   5.149  0.0619  0.4600 -0.1598
   99SAPE  H20R 9982   5.381   2.291   5.063  3.2519  0.7280 -0.2017
   99SAPE  H20S 9983   5.291   2.204   5.205  0.3154 -0.7882 -0.0852
   99SAPE  H20T 9984   5.420   2.127   5.100 -1.5726 -0.2462 -0.0366
   99SAPE   C33 9985   5.884   2.622   6.101  0.3511  0.1072  0.1771
   99SAPE   H3X 9986   5.987   2.580   6.104  0.7146  0.9946  0.2468
   99SAPE   H3Y 9987   5.885   2.731   6.120 -0.4614  0.0880  0.3568
   99SAPE   C34 9988   5.823   2.585   5.963 -0.0151  0.0883 -0.5905
   99SAPE   H4X 9989   5.714   2.601   5.947 -0.0451  0.0120 -0.4664
   99SAPE   H4Y 9990   5.833   2.475   5.960  1.4130  0.0014  2.8928
   99SAPE   C35 9991   5.904   2.640   5.846 -0.4809  0.4135 -0.0786
   99SAPE   H5X 9992   6.001   2.586   5.838 -1.3807 -1.0503 -2.4918
   99SAPE   H5Y 9993   5.922   2.747   5.866 -1.2261  0.9214 -1.8548
   99SAPE   C36 9994   5.837   2.621   5.710  0.3520 -0.0231 -0.2756
   99SAPE   H6X 9995   5.740   2.673   5.705  0.0529 -0.3752  1.3186
   99SAPE   H6Y 9996   5.814   2.515   5.685 -1.7230  0.5890 -1.1599
   99SAPE   C37 9997   5.932   2.686   5.603  0.0720 -0.4140  0.0191
   99SAPE   H7X 9998   6.036   2.655   5.624  0.5773  1.5185  0.5372
   99SAPE   H7Y 9999   5.928   2.796   5.615  1.9271 -0.0893 -1.7760
   99SAPE   C3810000   5.887   2.648   5.466  0.7407 -0.0159 -0.0908
   99SAPE   H8X10001   5.777   2.654   5.457  0.4798 -3.1023  0.0284
   99SAPE   H8Y10002   5.895   2.538   5.451 -0.2051  0.0163 -0.9306
   99SAPE   C3910003   5.971   2.715   5.358  0.2041 -0.5757  0.4540
   99SAPE   H9X10004   6.077   2.683   5.361  0.0366 -1.3280 -0.8229
   99SAPE   H9Y10005   5.967   2.826   5.363  1.2914 -0.5758  2.2606
   99SAPE  C31010006   5.906   2.689   5.216 -0.3911  0.4240  0.2453
   99SAPE  H10X10007   5.796   2.703   5.222 -0.6575 -1.5409  0.8819
   99SAPE  H10Y10008   5.923   2.581   5.192 -1.2745  0.1245  0.9250
   99SAPE  C31110009   5.970   2.782   5.113  0.6033  0.2630 -0.8202
   99SAPE  H11X10010   6.073   2.755   5.081  1.4231  2.2934 -0.0552
   99SAPE  H11Y10011   5.985   2.881   5.162  1.7962  0.3568 -1.3291
   99SAPE  C31210012   5.895   2.808   4.979  0.7214 -0.2300 -0.5107
   99SAPE  H12X10013   5.791   2.839   5.001  1.2352  2.0336 -1.0623
   99SAPE  H12Y10014   5.878   2.716   4.919 -3.5421  0.7768 -1.1702
   99SAPE  C31310015   5.962   2.927   4.908 -0.3530  0.5975  0.6314
   99SAPE  H13X10016   6.030   2.989   4.970  1.4440 -2.3858  1.8027
   99SAPE  H13Y10017   5.881   3.001   4.885 -1.7856 -1.1530 -0.2288
   99SAPE  C31410018   6.055   2.899   4.791 -0.5821 -0.2272 -0.0210
   99SAPE  H14X10019   6.018   2.800   4.756  1.2605 -1.8287  2.2077
   99SAPE  H14Y10020   6.159   2.879   4.825 -0.1940  0.2608 -0.8946
   99SAPE  C31510021   6.056   3.009   4.685  0.1361  0.0441 -0.5748
   99SAPE  H15X10022   6.083   3.107   4.729  0.9749 -0.0923 -0.7684
   99SAPE  H15Y10023   5.951   3.018   4.650  0.6660 -2.5561 -3.2176
   99SAPE  C31610024   6.170   3.002   4.573  0.8050  0.1271 -0.2489
   99SAPE  H16X10025   6.267   3.042   4.607  0.1663  1.3074  0.2531
   99SAPE  H16Y10026   6.145   3.068   4.487 -1.7847 -1.8120 -1.1193
   99SAPE  C31710027   6.188   2.861   4.515 -0.0453 -0.6593  0.6603
   99SAPE  H17X10028   6.092   2.834   4.467  1.3945 -1.5454 -1.8767
   99SAPE  H17Y10029   6.220   2.783   4.588 -0.0981 -1.9048 -0.6115
   99SAPE  C31810030   6.299   2.874   4.409 -0.5453 -0.8161  0.6399
   99SAPE  H18X10031   6.347   2.774   4.397 -1.0726 -1.0055  0.0851
   99SAPE  H18Y10032   6.369   2.950   4.451 -0.2365 -0.3200 -0.7394
   99SAPE  H18Z10033   6.268   2.915   4.311  0.9898  1.5385  1.0437
  100SAPE     N10034   0.576   2.283   7.786  0.2946  0.7366 -0.5378
  100SAPE   HN110035   0.501   2.217   7.758  1.4520 -1.2168  0.7555
  100SAPE   HN210036   0.586   2.260   7.887 -2.7747 -2.6135 -0.8034
  100SAPE   HN310037   0.552   2.384   7.784  0.0071  0.6867  0.1340
  100SAPE   C1210038   0.715   2.246   7.721 -0.0934  1.0985 -0.0117
  100SAPE  H12A10039   0.791   2.248   7.802 -0.9282 -2.5431  1.0127
  100SAPE  H12B10040   0.740   2.332   7.656 -0.5039  3.4057  2.6619
  100SAPE   C1110041   0.727   2.106   7.653 -0.3046 -0.6538  0.2010
  100SAPE  H11A10042   0.703   2.022   7.721  2.1485 -0.6152  1.2164
  100SAPE  H11B10043   0.832   2.090   7.619 -0.9202 -0.2132 -2.0652
  100SAPE     P10044   0.681   2.008   7.419 -0.4379  0.1904  0.0313
  100SAPE   O1310045   0.706   1.875   7.486  0.1341  0.2483 -0.2045
  100SAPE   O1410046   0.566   2.014   7.328 -0.1774  0.3778 -0.7783
  100SAPE   O1210047   0.648   2.114   7.534 -0.2990 -0.0813 -0.2670
  100SAPE   O1110048   0.813   2.063   7.356 -0.5149  0.1171 -0.1980
  100SAPE    C110049   0.821   2.192   7.291  0.5298  1.2993 -1.3618
  100SAPE    HA10050   0.743   2.268   7.311  0.5486  1.7838 -2.9557
  100SAPE    HB10051   0.915   2.236   7.330 -0.2590  0.2147  2.1250
  100SAPE    C210052   0.812   2.178   7.138  0.5268 -0.3729 -0.6618
  100SAPE    HS10053   0.713   2.135   7.113 -0.3336 -0.1554  2.0723
  100SAPE   O2110054   0.911   2.084   7.086 -0.0251 -0.5727 -1.0171
  100SAPE   C2110055   0.875   2.017   6.974 -0.1856 -0.0494 -0.4575
  100SAPE   O2210056   0.774   2.027   6.911  0.2559  0.1345  0.4150
  100SAPE   C2210057   0.987   1.914   6.948  0.1854 -0.0719 -0.2769
  100SAPE   H2R10058   1.077   1.978   6.961  0.1963 -0.2249  0.4416
  100SAPE   H2S10059   0.981   1.843   7.032  3.4870  0.5631  0.6589
  100SAPE    C310060   0.828   2.317   7.078  0.6612  0.2370  0.2530
  100SAPE    HX10061   0.925   2.357   7.115  0.2379  1.6769 -0.1097
  100SAPE    HY10062   0.746   2.384   7.112 -0.7726 -1.5609  0.5123
  100SAPE   O3110063   0.833   2.321   6.936  0.1053  0.9946  0.2109
  100SAPE   C3110064   0.728   2.319   6.865  0.8155 -0.1265  0.2994
  100SAPE   O3210065   0.611   2.308   6.907  0.1842  0.2736 -0.2100
  100SAPE   C3210066   0.755   2.343   6.717  0.9636  0.4169  0.5688
  100SAPE   H2X10067   0.693   2.274   6.656  0.9644  1.6159 -0.8381
  100SAPE   H2Y10068   0.864   2.329   6.700  1.2254  0.3721  2.1596
  100SAPE   C2310069   0.979   1.823   6.819 -0.3727 -0.2143 -0.2321
  100SAPE   H3R10070   0.876   1.785   6.804 -0.8084  0.8033  0.0445
  100SAPE   H3S10071   1.052   1.741   6.833  1.8240  1.7424  0.6036
  100SAPE   C2410072   1.021   1.902   6.693 -1.0686  0.0225 -0.3950
  100SAPE   H4R10073   1.120   1.945   6.716 -1.0926 -0.6775  1.1182
  100SAPE   H4S10074   0.949   1.986   6.684 -1.3839 -0.1242  0.6521
  100SAPE   C2510075   1.029   1.805   6.576  0.2221 -0.0982 -0.4975
  100SAPE   H5R10076   1.045   1.701   6.608  1.5920  0.7742  1.9088
  100SAPE   C2610077   1.036   1.838   6.445 -0.3193  0.5297  0.0028
  100SAPE   H6R10078   1.052   1.755   6.374 -2.0443 -1.2295  1.5311
  100SAPE   C2710079   1.036   1.973   6.386  0.2265  0.3673  0.1692
  100SAPE   H7R10080   1.103   1.961   6.299  0.9928  0.4711  0.7357
  100SAPE   H7S10081   1.075   2.047   6.459  4.1157  0.2137 -1.5426
  100SAPE   C2810082   0.897   2.013   6.334 -0.2168  0.4134  0.7900
  100SAPE   H8R10083   0.804   1.976   6.379 -1.0344  1.0229 -0.3504
  100SAPE   C2910084   0.882   2.086   6.218  0.0376  0.4772 -0.8217
  100SAPE   H9R10085   0.782   2.101   6.174  1.0883  0.0503 -3.5573
  100SAPE  C21010086   0.993   2.153   6.141 -0.0932  0.7659  0.3509
  100SAPE  H10R10087   1.068   2.078   6.107 -2.0857  0.0882 -2.9830
  100SAPE  H10S10088   1.052   2.214   6.212  0.3465 -0.3515  0.9665
  100SAPE  C21110089   0.963   2.247   6.025 -0.1375  0.6991 -0.2978
  100SAPE  H11R10090   0.858   2.244   5.994 -0.5764  1.8702  0.9640
  100SAPE  C21210091   1.047   2.307   5.939  0.1341  0.3387  0.0386
  100SAPE  H12R10092   1.001   2.366   5.859  0.9020 -1.1533 -1.5858
  100SAPE  C21310093   1.196   2.314   5.951 -0.1901  0.4542 -0.5978
  100SAPE  H13R10094   1.237   2.221   5.996 -1.0914  0.6637  0.6829
  100SAPE  H13S10095   1.223   2.382   6.035  2.0399  0.7611 -1.4727
  100SAPE  C21410096   1.285   2.365   5.837 -0.1583  0.0769  0.0624
  100SAPE  H14R10097   1.231   2.449   5.790  0.1878  1.0047  1.2820
  100SAPE  C21510098   1.405   2.321   5.786  0.1435  0.6359  0.2346
  100SAPE  H15R10099   1.432   2.375   5.694 -0.0837 -0.7718 -0.6897
  100SAPE  C21610100   1.493   2.204   5.833 -0.1487  0.3624  0.5264
  100SAPE  H16R10101   1.476   2.190   5.942 -0.3707  1.4491  0.6448
  100SAPE  H16S10102   1.601   2.226   5.820  0.0249 -1.4396 -1.5889
  100SAPE  C21710103   1.481   2.078   5.748  0.2115  0.0406  0.6147
  100SAPE  H17R10104   1.373   2.064   5.728  0.1268  0.5173  0.7233
  100SAPE  H17S10105   1.532   1.990   5.792  1.9791  0.8636  0.3131
  100SAPE  C21810106   1.545   2.094   5.604  0.4274 -0.3724 -1.2176
  100SAPE  H18R10107   1.655   2.107   5.603  0.1767  2.2627 -0.7058
  100SAPE  H18S10108   1.503   2.188   5.563 -2.7649  0.6069  3.4882
  100SAPE  C21910109   1.493   1.984   5.505 -0.0007 -0.1550 -0.3106
  100SAPE  H19R10110   1.382   1.979   5.507 -0.1640  0.3560 -3.3364
  100SAPE  H19S10111   1.525   1.881   5.529  1.9275  0.2032 -1.1057
  100SAPE  C22010112   1.518   2.007   5.356 -0.9687  0.5415 -0.4967
  100SAPE  H20R10113   1.486   1.920   5.294  2.3640 -1.8712  0.8287
  100SAPE  H20S10114   1.628   1.997   5.347 -0.8666 -0.2013  1.1556
  100SAPE  H20T10115   1.494   2.110   5.323 -0.3324  2.1396  3.4449
  100SAPE   C3310116   0.722   2.488   6.679 -0.1225 -0.0875 -0.1967
  100SAPE   H3X10117   0.767   2.554   6.757  0.1164 -1.8568  1.2202
  100SAPE   H3Y10118   0.612   2.508   6.686  0.2242  1.6379  1.0612
  100SAPE   C3410119   0.780   2.532   6.541  0.0881 -0.0902  0.0930
  100SAPE   H4X10120   0.888   2.510   6.532  0.2573  0.2402  1.1565
  100SAPE   H4Y10121   0.770   2.642   6.529 -0.6935 -0.1087  0.4658
  100SAPE   C3510122   0.718   2.450   6.420  0.2310  0.2126 -0.7588
  100SAPE   H5X10123   0.615   2.419   6.449 -0.3731  1.4540 -1.4692
  100SAPE   H5Y10124   0.779   2.358   6.408 -1.6624 -1.0021 -1.5228
  100SAPE   C3610125   0.712   2.532   6.291 -0.0344 -0.3702  0.0106
  100SAPE   H6X10126   0.811   2.578   6.271  0.3364 -0.2007  2.0376
  100SAPE   H6Y10127   0.644   2.618   6.311  0.6949  0.4415 -0.9258
  100SAPE   C3710128   0.673   2.455   6.171 -0.4595  0.9507  0.0755
  100SAPE   H7X10129   0.577   2.405   6.196 -0.6745  0.0881 -2.2047
  100SAPE   H7Y10130   0.744   2.378   6.136 -0.9702  0.6622 -0.3344
  100SAPE   C3810131   0.669   2.553   6.047  0.0325 -0.7877  0.8536
  100SAPE   H8X10132   0.771   2.588   6.022 -0.0233 -0.3334  1.2355
  100SAPE   H8Y10133   0.602   2.639   6.069  1.9710  1.0193 -0.0078
  100SAPE   C3910134   0.613   2.471   5.930  0.0998 -0.2192 -0.0450
  100SAPE   H9X10135   0.503   2.472   5.944  0.2701  0.3936  1.4644
  100SAPE   H9Y10136   0.647   2.365   5.930 -2.0343 -1.0111  2.5878
  100SAPE  C31010137   0.637   2.538   5.790 -0.5337  0.4418 -0.9075
  100SAPE  H10X10138   0.591   2.639   5.798  0.0476  0.5813  2.5582
  100SAPE  H10Y10139   0.558   2.479   5.740 -0.4279 -0.0073 -0.5489
  100SAPE  C31110140   0.778   2.521   5.742 -0.0642  0.0927 -1.0003
  100SAPE  H11X10141   0.796   2.413   5.725  0.9269  0.5277 -2.9590
  100SAPE  H11Y10142   0.850   2.550   5.821 -2.0283 -0.5558  1.1641
  100SAPE  C31210143   0.799   2.568   5.605  0.1069 -0.5490  0.3493
  100SAPE  H12X10144   0.823   2.676   5.602 -0.5399 -0.4181 -1.0604
  100SAPE  H12Y10145   0.705   2.551   5.547  0.1470  2.0010 -0.5574
  100SAPE  C31310146   0.921   2.504   5.531 -0.3034 -0.7580 -0.3840
  100SAPE  H13X10147   0.875   2.408   5.500 -2.3607 -0.1278  0.5405
  100SAPE  H13Y10148   0.994   2.495   5.614  1.0183  1.6157 -1.1903
  100SAPE  C31410149   0.991   2.582   5.416 -0.0652  0.1171  0.1872
  100SAPE  H14X10150   0.997   2.691   5.442 -1.4764  0.8273 -2.2212
  100SAPE  H14Y10151   0.932   2.565   5.324  1.5788 -1.5576 -0.6139
  100SAPE  C31510152   1.138   2.527   5.379  0.8056 -0.0151  0.3143
  100SAPE  H15X10153   1.123   2.437   5.316 -2.3326  1.5469 -1.3847
  100SAPE  H15Y10154   1.177   2.502   5.480 -3.0754 -2.1952  1.4797
  100SAPE  C31610155   1.225   2.628   5.303  1.0433  0.4838 -0.4350
  100SAPE  H16X10156   1.201   2.736   5.305  3.2165  1.0031 -0.3741
  100SAPE  H16Y10157   1.209   2.603   5.195 -1.5659  0.8339 -0.2036
  100SAPE  C31710158   1.369   2.611   5.326 -0.7161 -0.2140 -1.3275
  100SAPE  H17X10159   1.405   2.655   5.422  0.4555 -2.2897 -0.7457
  100SAPE  H17Y10160   1.432   2.650   5.244  1.4743 -1.7371 -0.4658
  100SAPE  C31810161   1.422   2.466   5.331  0.1909 -0.6867  0.1012
  100SAPE  H18X10162   1.532   2.461   5.345 -0.0179 -1.6228  1.7239
  100SAPE  H18Y10163   1.403   2.408   5.238  1.9323  0.4717 -1.0445
  100SAPE  H18Z10164   1.370   2.415   5.415  2.0385 -0.6671  1.3206
  101SAPE     N10165   6.292   4.577   7.348 -0.5143  0.3314 -0.1117
  101SAPE   HN110166   6.335   4.601   7.439  0.6791 -3.2484  0.4159
  101SAPE   HN210167   6.193   4.552   7.362 -0.5694  0.0159 -0.9822
  101SAPE   HN310168   6.344   4.491   7.319 -1.9192 -0.9227  0.9840
  101SAPE   C1210169   6.323   4.683   7.245  0.1965  0.1392  0.1204
  101SAPE  H12A10170   6.328   4.636   7.144  1.0561 -0.4288  0.4173
  101SAPE  H12B10171   6.424   4.728   7.259  0.4230 -0.5969  0.9497
  101SAPE   C1110172   6.211   4.792   7.246  0.4292 -0.0251 -0.0518
  101SAPE  H11A10173   6.237   4.879   7.183 -3.0370  1.0674 -0.1651
  101SAPE  H11B10174   6.202   4.826   7.352  1.0146  1.8981 -0.5779
  101SAPE     P10175   5.950   4.782   7.248 -0.1226 -0.1217 -0.1836
  101SAPE   O1310176   5.839   4.723   7.167  0.1931  0.0472  0.7063
  101SAPE   O1410177   5.939   4.748   7.393 -0.6241  0.1221 -0.1650
  101SAPE   O1210178   6.089   4.737   7.196 -0.1282  0.7212  0.0669
  101SAPE   O1110179   5.958   4.939   7.234  0.4295  0.2444 -0.1278
  101SAPE    C110180   5.995   5.001   7.114 -0.0670 -1.0435 -0.9085
  101SAPE    HA10181   6.098   5.036   7.137 -0.8865  0.7338  0.2552
  101SAPE    HB10182   6.013   4.931   7.030  0.7325 -0.4840 -1.2182
  101SAPE    C210183   5.887   5.099   7.071 -0.3283 -0.4097  0.5899
  101SAPE    HS10184   5.888   5.181   7.146  3.3500  0.3462 -0.0778
  101SAPE   O2110185   5.758   5.040   7.044  0.5103 -0.1472  0.1315
  101SAPE   C2110186   5.664   5.134   7.018  0.7486  0.6523 -0.5953
  101SAPE   O2210187   5.674   5.250   7.056 -0.0224  0.0239  0.0068
  101SAPE   C2210188   5.539   5.062   6.957  0.1434 -0.1036 -0.8224
  101SAPE   H2R10189   5.567   4.956   6.935 -1.0622 -0.0574 -2.7993
  101SAPE   H2S10190   5.456   5.071   7.031 -0.1077 -0.9429 -0.9834
  101SAPE    C310191   5.937   5.178   6.938 -0.5558 -0.0868 -0.2910
  101SAPE    HX10192   6.040   5.208   6.969 -0.9769 -0.6750  1.8399
  101SAPE    HY10193   5.872   5.268   6.928 -0.2432  0.1937  0.1741
  101SAPE   O3110194   5.929   5.106   6.813 -0.2147  0.0917 -0.3584
  101SAPE   C3110195   6.048   5.069   6.761  0.3712 -0.0549  0.4474
  101SAPE   O3210196   6.154   5.087   6.815  0.7907 -0.4740  0.0913
  101SAPE   C3210197   6.034   4.987   6.636  0.2076  0.0400 -0.0263
  101SAPE   H2X10198   5.961   5.038   6.570  0.3964  3.2045  2.0015
  101SAPE   H2Y10199   5.995   4.888   6.669 -0.5015  0.0544 -0.7773
  101SAPE   C2310200   5.500   5.130   6.827 -0.1572 -0.0372 -0.3647
  101SAPE   H3R10201   5.448   5.226   6.845 -1.1438 -0.5905 -0.1804
  101SAPE   H3S10202   5.414   5.077   6.781  0.3344  0.2333 -1.6221
  101SAPE   C2410203   5.607   5.138   6.715 -0.1822  0.4866  0.5832
  101SAPE   H4R10204   5.696   5.199   6.744  1.6077 -0.9125 -1.6367
  101SAPE   H4S10205   5.569   5.190   6.625 -1.0222 -0.5543  0.3169
  101SAPE   C2510206   5.651   4.996   6.683  0.5291  0.0561 -0.3490
  101SAPE   H5R10207   5.693   4.935   6.764  1.1002 -1.0487 -1.4357
  101SAPE   C2610208   5.648   4.938   6.561  0.4257 -0.6183 -0.8780
  101SAPE   H6R10209   5.700   4.841   6.553  0.0044 -0.8343 -1.0457
  101SAPE   C2710210   5.594   4.995   6.436  0.5440  0.4025  0.2110
  101SAPE   H7R10211   5.565   5.099   6.459 -1.1146 -0.3652  1.8643
  101SAPE   H7S10212   5.503   4.935   6.415  0.2328  0.9116  0.0836
  101SAPE   C2810213   5.699   4.989   6.320  0.1045  0.0095  0.9624
  101SAPE   H8R10214   5.776   4.911   6.326  1.4615  1.3088  0.9390
  101SAPE   C2910215   5.702   5.059   6.201 -0.0766  0.5049  0.0886
  101SAPE   H9R10216   5.778   5.030   6.127 -0.6386  2.1446 -1.1805
  101SAPE  C21010217   5.600   5.158   6.170  0.1397 -0.6543  0.1094
  101SAPE  H10R10218   5.640   5.261   6.156 -0.6466 -0.3322  0.1253
  101SAPE  H10S10219   5.528   5.170   6.253  0.1583 -2.4355  0.4149
  101SAPE  C21110220   5.509   5.117   6.049  0.1076 -0.2862  0.3326
  101SAPE  H11R10221   5.468   5.015   6.051  0.5977 -0.5568 -1.2754
  101SAPE  C21210222   5.456   5.202   5.953  0.3280  0.0151  0.6862
  101SAPE  H12R10223   5.397   5.164   5.868  1.9272  1.3521 -1.1187
  101SAPE  C21310224   5.483   5.353   5.941 -0.3520  0.1275 -0.4512
  101SAPE  H13R10225   5.581   5.352   5.888  0.3523 -2.5668  0.7320
  101SAPE  H13S10226   5.510   5.393   6.041  3.6379 -2.8041 -0.1215
  101SAPE  C21410227   5.398   5.443   5.865  0.1793  0.4575 -0.2583
  101SAPE  H14R10228   5.330   5.505   5.924 -0.2488  1.8801 -2.1613
  101SAPE  C21510229   5.367   5.438   5.735 -0.5074  0.2924  0.2251
  101SAPE  H15R10230   5.300   5.514   5.692 -0.3150 -0.9121 -2.3684
  101SAPE  C21610231   5.434   5.350   5.631  0.3702 -0.4015  0.0737
  101SAPE  H16R10232   5.363   5.319   5.551  0.3935 -0.0438 -0.0869
  101SAPE  H16S10233   5.479   5.261   5.679 -0.6412 -1.7323 -1.3435
  101SAPE  C21710234   5.557   5.412   5.554  0.4352  0.2143  0.2597
  101SAPE  H17R10235   5.628   5.461   5.625 -0.3422 -0.9125  1.8912
  101SAPE  H17S10236   5.526   5.486   5.477  1.1570 -2.0989 -2.4077
  101SAPE  C21810237   5.650   5.313   5.474  0.5486  0.2877 -0.1138
  101SAPE  H18R10238   5.584   5.274   5.394  1.0404 -0.6059 -0.0981
  101SAPE  H18S10239   5.684   5.233   5.544 -2.1088  1.1157  2.3210
  101SAPE  C21910240   5.767   5.393   5.407 -0.0006  0.1745  0.7754
  101SAPE  H19R10241   5.714   5.440   5.322 -0.5909  1.6534  1.9313
  101SAPE  H19S10242   5.831   5.316   5.357 -2.5903 -1.0481 -0.9235
  101SAPE  C22010243   5.848   5.482   5.494  0.3762 -0.1201 -0.1555
  101SAPE  H20R10244   5.908   5.421   5.565  1.7127 -1.6253 -2.4300
  101SAPE  H20S10245   5.783   5.557   5.545  2.7951  1.5167  0.6969
  101SAPE  H20T10246   5.927   5.543   5.445  0.9650 -0.6688  0.1008
  101SAPE   C3310247   6.160   4.981   6.554 -0.6142 -0.6340 -0.2535
  101SAPE   H3X10248   6.233   4.909   6.597  0.1873  0.3299  0.0528
  101SAPE   H3Y10249   6.210   5.080   6.552  0.3064 -0.9381  2.6348
  101SAPE   C3410250   6.133   4.932   6.411 -0.9883 -0.3914  0.1918
  101SAPE   H4X10251   6.217   4.967   6.348 -0.0435 -2.2076  0.3778
  101SAPE   H4Y10252   6.044   4.986   6.372  0.2657  1.6765  0.0138
  101SAPE   C3510253   6.123   4.785   6.387 -0.2404  0.0606 -0.2789
  101SAPE   H5X10254   6.036   4.748   6.444 -0.1952  1.1260  0.4983
  101SAPE   H5Y10255   6.213   4.743   6.439 -1.9068 -1.2739  1.6767
  101SAPE   C3610256   6.111   4.738   6.242  0.1241 -1.3254  0.2901
  101SAPE   H6X10257   6.202   4.774   6.188 -0.4548 -2.0422 -1.2379
  101SAPE   H6Y10258   6.014   4.779   6.208  0.5050 -0.3998  0.2674
  101SAPE   C3710259   6.116   4.593   6.209  0.0081  0.1576 -0.0034
  101SAPE   H7X10260   6.025   4.550   6.257  0.2418 -0.1000  0.2147
  101SAPE   H7Y10261   6.204   4.538   6.250 -0.4168 -2.6030 -2.4500
  101SAPE   C3810262   6.118   4.567   6.059 -0.2224  0.2391  0.3860
  101SAPE   H8X10263   6.056   4.638   6.001  2.6818  2.5273 -0.1467
  101SAPE   H8Y10264   6.075   4.464   6.054 -0.9985  0.6295 -2.2022
  101SAPE   C3910265   6.255   4.587   5.983  0.9105  0.2503 -0.0544
  101SAPE   H9X10266   6.328   4.528   6.043 -2.9658 -1.6461  3.3623
  101SAPE   H9Y10267   6.290   4.692   5.981  0.8377  0.2983  0.7698
  101SAPE  C31010268   6.232   4.550   5.842  0.2920 -0.2240 -0.5827
  101SAPE  H10X10269   6.162   4.623   5.795 -1.5567 -0.1664  2.0421
  101SAPE  H10Y10270   6.189   4.448   5.842 -0.9139  0.2606 -0.0341
  101SAPE  C31110271   6.361   4.556   5.763 -0.3778 -0.4972  0.2617
  101SAPE  H11X10272   6.436   4.480   5.791 -0.2941 -1.1533 -1.5957
  101SAPE  H11Y10273   6.414   4.651   5.784 -2.4749  1.1318 -1.2946
  101SAPE  C31210274   6.329   4.555   5.618 -0.0191 -0.0159  0.5457
  101SAPE  H12X10275   6.253   4.633   5.595  0.1894  0.1303  0.3488
  101SAPE  H12Y10276   6.276   4.460   5.593  0.2931  0.0092 -0.2538
  101SAPE  C31310277   6.448   4.564   5.519 -0.0710  1.3193 -0.1255
  101SAPE  H13X10278   6.515   4.479   5.545 -1.1040 -0.5227 -3.0534
  101SAPE  H13Y10279   6.506   4.659   5.523 -1.4597  2.1536  1.0879
  101SAPE  C31410280   6.409   4.531   5.374  0.4057  0.4618 -0.1393
  101SAPE  H14X10281   6.318   4.467   5.376 -1.9073  3.4304 -1.8151
  101SAPE  H14Y10282   6.493   4.482   5.321  0.9142  1.2709 -0.0989
  101SAPE  C31510283   6.357   4.647   5.288  0.2018 -0.0790  0.0326
  101SAPE  H15X10284   6.421   4.738   5.281 -1.1793  0.8039 -2.8586
  101SAPE  H15Y10285   6.262   4.690   5.325  0.3964  1.7036 -1.3881
  101SAPE  C31610286   6.340   4.623   5.134 -0.2860 -0.0451  0.0930
  101SAPE  H16X10287   6.256   4.554   5.115 -2.9419  2.4315  2.0175
  101SAPE  H16Y10288   6.438   4.586   5.095  0.8073  0.5979  2.0869
  101SAPE  C31710289   6.310   4.749   5.054  0.0497  1.0747 -0.3103
  101SAPE  H17X10290   6.407   4.801   5.039  0.5941  1.1295  2.7349
  101SAPE  H17Y10291   6.243   4.822   5.104 -0.0412  2.1110 -1.8669
  101SAPE  C31810292   6.258   4.715   4.919 -0.0717 -0.1343 -0.9119
  101SAPE  H18X10293   6.316   4.630   4.878 -1.3591 -1.1114 -0.7641
  101SAPE  H18Y10294   6.252   4.801   4.848 -0.8128  0.0463 -0.6478
  101SAPE  H18Z10295   6.155   4.675   4.934 -0.3280  0.6849 -0.3947
  102SAPE     N10296   0.434   3.501   7.363  0.0218  0.1618  0.3800
  102SAPE   HN110297   0.488   3.489   7.451  1.0884 -1.3169 -0.4446
  102SAPE   HN210298   0.475   3.576   7.303  1.0226  1.7777  2.8828
  102SAPE   HN310299   0.335   3.527   7.381  0.3923  2.4711 -0.5311
  102SAPE   C1210300   0.426   3.374   7.280  0.5326 -1.2747 -0.1890
  102SAPE  H12A10301   0.344   3.390   7.207  0.0173 -1.4923  0.3301
  102SAPE  H12B10302   0.404   3.291   7.350  1.2990 -1.5491 -0.2624
  102SAPE   C1110303   0.562   3.348   7.219  0.0681  0.7417  0.2260
  102SAPE  H11A10304   0.564   3.377   7.112  1.4000  0.4226  0.1396
  102SAPE  H11B10305   0.577   3.238   7.217 -0.4337  0.6819 -0.5936
  102SAPE     P10306   0.801   3.447   7.246 -0.0592  0.2592 -0.2028
  102SAPE   O1310307   0.794   3.592   7.219 -0.1176  0.1093  0.3637
  102SAPE   O1410308   0.905   3.398   7.344  0.3479 -0.0452  0.0463
  102SAPE   O1210309   0.665   3.399   7.302 -0.1505  0.4094 -0.3794
  102SAPE   O1110310   0.808   3.364   7.111 -0.0823 -0.0889  0.2782
  102SAPE    C110311   0.891   3.416   7.003  0.7495  0.0371  0.0344
  102SAPE    HA10312   0.868   3.525   6.996 -1.2242 -0.2682  0.9605
  102SAPE    HB10313   0.996   3.402   7.036  1.4240 -1.9841 -2.6015
  102SAPE    C210314   0.877   3.335   6.870  0.2748  0.1282  0.1363
  102SAPE    HS10315   0.938   3.243   6.873 -0.3217 -0.2540  0.7522
  102SAPE   O2110316   0.916   3.420   6.762 -0.6420  0.6179  0.8573
  102SAPE   C2110317   1.043   3.460   6.759  0.6145 -0.2951  0.3803
  102SAPE   O2210318   1.119   3.449   6.848 -0.3234  0.2955 -0.6062
  102SAPE   C2210319   1.087   3.509   6.616 -0.4129  0.1302 -0.3325
  102SAPE   H2R10320   1.029   3.601   6.592 -2.7489 -0.5271  2.2424
  102SAPE   H2S10321   1.194   3.530   6.634  0.0982 -1.4816 -1.2291
  102SAPE    C310322   0.728   3.286   6.843 -0.5267 -0.1969 -0.2244
  102SAPE    HX10323   0.661   3.375   6.842 -0.5850 -0.2377  0.0513
  102SAPE    HY10324   0.687   3.218   6.921 -2.2379 -0.6699 -1.4450
  102SAPE   O3110325   0.706   3.226   6.716 -0.5865 -0.0630 -0.1707
  102SAPE   C3110326   0.581   3.192   6.695 -0.3349  0.1957 -0.3605
  102SAPE   O3210327   0.493   3.211   6.774  0.4110 -1.0545  0.1677
  102SAPE   C3210328   0.562   3.128   6.555 -0.3075  0.4491  1.2200
  102SAPE   H2X10329   0.620   3.034   6.571 -1.3187 -0.1698  1.3732
  102SAPE   H2Y10330   0.617   3.191   6.483  0.5567  0.7868  2.1521
  102SAPE   C2310331   1.062   3.409   6.507  0.0080 -0.3384  0.3708
  102SAPE   H3R10332   0.954   3.411   6.482 -0.0998 -4.1765  0.0257
  102SAPE   H3S10333   1.071   3.300   6.526 -2.0773 -1.0211 -2.0632
  102SAPE   C2410334   1.141   3.441   6.380  0.1049  0.0511  1.0504
  102SAPE   H4R10335   1.147   3.346   6.323 -1.9876 -0.6359  1.8748
  102SAPE   H4S10336   1.245   3.472   6.404  0.5363  0.0436 -0.7200
  102SAPE   C2510337   1.077   3.548   6.299 -0.7928 -0.4923 -0.6097
  102SAPE   H5R10338   1.055   3.636   6.361 -0.4295 -1.0364  0.3222
  102SAPE   C2610339   1.065   3.555   6.163 -0.3176  0.1952  0.2865
  102SAPE   H6R10340   1.029   3.655   6.132  2.7439  0.9817 -1.1298
  102SAPE   C2710341   1.095   3.449   6.065  0.0030 -0.7986 -0.1719
  102SAPE   H7R10342   1.044   3.360   6.106 -0.4472 -0.5585 -0.2016
  102SAPE   H7S10343   1.205   3.444   6.054  0.0684  0.6318 -0.3772
  102SAPE   C2810344   1.012   3.489   5.940 -0.4086 -0.6942 -0.2848
  102SAPE   H8R10345   0.920   3.545   5.964  0.6317  0.1582  1.8891
  102SAPE   C2910346   1.045   3.463   5.812  0.7678  1.1316  0.5418
  102SAPE   H9R10347   0.976   3.505   5.738 -0.8210  1.7443  2.2761
  102SAPE  C21010348   1.165   3.385   5.765  0.0216 -0.0929 -0.5148
  102SAPE  H10R10349   1.212   3.344   5.857  2.2391  0.0533 -1.5187
  102SAPE  H10S10350   1.242   3.459   5.734 -1.8025  1.6872 -1.0538
  102SAPE  C21110351   1.132   3.287   5.655 -0.8201  0.7473  0.1911
  102SAPE  H11R10352   1.126   3.182   5.688  2.9082 -0.0365 -1.1471
  102SAPE  C21210353   1.125   3.298   5.520  0.3555 -0.4798 -0.2537
  102SAPE  H12R10354   1.080   3.219   5.458 -1.0360  0.3311 -0.3040
  102SAPE  C21310355   1.141   3.428   5.461 -0.6527 -0.7258 -0.3878
  102SAPE  H13R10356   1.197   3.504   5.519  0.0411 -1.2466 -0.3686
  102SAPE  H13S10357   1.039   3.469   5.444 -0.5460 -0.5936 -0.7295
  102SAPE  C21410358   1.201   3.414   5.330  0.1941 -0.3414 -0.0508
  102SAPE  H14R10359   1.284   3.342   5.325 -0.8116 -1.6827  1.5961
  102SAPE  C21510360   1.169   3.480   5.220  0.4469  0.6578 -0.1945
  102SAPE  H15R10361   1.228   3.451   5.132  1.5539 -0.4467  0.8673
  102SAPE  C21610362   1.074   3.593   5.196  0.5593 -0.1578  0.2753
  102SAPE  H16R10363   1.003   3.594   5.281  0.2975 -2.3600  0.1425
  102SAPE  H16S10364   1.009   3.580   5.106  1.0372 -2.0901  0.1582
  102SAPE  C21710365   1.147   3.732   5.183 -0.1949  0.0071  0.2551
  102SAPE  H17R10366   1.226   3.750   5.259  0.4418  0.5559 -0.5185
  102SAPE  H17S10367   1.076   3.817   5.186  1.7192  1.7522 -0.8998
  102SAPE  C21810368   1.224   3.752   5.053  0.2070 -0.0909  0.1204
  102SAPE  H18R10369   1.178   3.700   4.967  0.9754 -1.5050  0.5279
  102SAPE  H18S10370   1.313   3.686   5.047 -0.5672 -1.0490 -1.2905
  102SAPE  C21910371   1.250   3.900   5.025 -0.2523 -0.2234  0.3858
  102SAPE  H19R10372   1.320   3.938   5.103  2.0225 -2.4225 -0.4562
  102SAPE  H19S10373   1.153   3.955   5.030 -0.0380  0.7019 -3.1823
  102SAPE  C22010374   1.319   3.919   4.884  1.0280 -0.4300 -0.0343
  102SAPE  H20R10375   1.244   3.898   4.804 -0.4214  2.0930  0.5403
  102SAPE  H20S10376   1.395   3.840   4.864 -0.4945 -1.6177 -1.4231
  102SAPE  H20T10377   1.357   4.023   4.879 -0.4210  0.4193  3.4941
  102SAPE   C3310378   0.416   3.102   6.510 -0.4336 -0.2210 -0.5627
  102SAPE   H3X10379   0.378   3.168   6.429  0.7650  1.4086  0.1382
  102SAPE   H3Y10380   0.344   3.115   6.593  0.2844 -1.8382  0.3645
  102SAPE   C3410381   0.396   2.955   6.452 -0.5517 -0.3990  0.4546
  102SAPE   H4X10382   0.286   2.944   6.440 -0.7872  2.0762 -0.2992
  102SAPE   H4Y10383   0.440   2.877   6.518  2.2512 -0.0848 -0.8779
  102SAPE   C3510384   0.465   2.937   6.317  0.2030  0.2544  0.1038
  102SAPE   H5X10385   0.495   2.830   6.309  0.8619  0.4501 -0.0987
  102SAPE   H5Y10386   0.561   2.993   6.316  0.4016 -0.0824 -0.0944
  102SAPE   C3610387   0.380   2.981   6.191 -0.0578  0.6917 -0.3544
  102SAPE   H6X10388   0.380   3.092   6.199 -0.4359  0.6416  0.4305
  102SAPE   H6Y10389   0.277   2.946   6.213  0.0445  0.1021 -0.7794
  102SAPE   C3710390   0.429   2.894   6.073  0.5199  0.1073  0.6391
  102SAPE   H7X10391   0.415   2.787   6.103 -1.1340  0.3980  1.0294
  102SAPE   H7Y10392   0.537   2.902   6.051  0.0815  1.6205 -1.1833
  102SAPE   C3810393   0.359   2.927   5.936 -0.8377  0.2822 -0.4963
  102SAPE   H8X10394   0.380   3.035   5.922  0.4983  0.1701  0.4927
  102SAPE   H8Y10395   0.248   2.916   5.940 -0.8301 -0.3076 -1.4844
  102SAPE   C3910396   0.422   2.857   5.814 -0.2008  0.1863  0.1331
  102SAPE   H9X10397   0.421   2.747   5.830  0.7611  0.4199  2.1063
  102SAPE   H9Y10398   0.529   2.885   5.807  0.0555 -1.2497 -3.2455
  102SAPE  C31010399   0.351   2.877   5.678 -1.0566  1.0105  0.1948
  102SAPE  H10X10400   0.365   2.981   5.641 -1.7994  0.9166 -0.3878
  102SAPE  H10Y10401   0.249   2.835   5.669 -1.1255  1.2556 -0.2334
  102SAPE  C31110402   0.425   2.780   5.582 -0.1959 -0.6829  0.1285
  102SAPE  H11X10403   0.408   2.674   5.614  1.8408 -0.9263  0.5404
  102SAPE  H11Y10404   0.535   2.791   5.592 -0.0369 -1.9882  0.0562
  102SAPE  C31210405   0.387   2.828   5.439  0.3672 -0.2055 -0.5073
  102SAPE  H12X10406   0.378   2.938   5.430  2.2101 -0.0522 -0.7768
  102SAPE  H12Y10407   0.283   2.789   5.438 -0.8891  2.6411  2.2286
  102SAPE  C31310408   0.473   2.782   5.330 -0.2250  0.1151  0.1756
  102SAPE  H13X10409   0.582   2.803   5.333  0.2690 -2.1021 -0.0073
  102SAPE  H13Y10410   0.441   2.818   5.230 -0.9887 -1.0342 -0.0131
  102SAPE  C31410411   0.453   2.624   5.321  0.5124 -0.4260  0.4608
  102SAPE  H14X10412   0.344   2.608   5.329  0.5917 -0.8393  0.7259
  102SAPE  H14Y10413   0.498   2.588   5.416 -0.1817  1.1015  1.4006
  102SAPE  C31510414   0.506   2.562   5.198 -0.4501  0.2228  0.5749
  102SAPE  H15X10415   0.471   2.615   5.107  0.8406 -2.2253 -1.4872
  102SAPE  H15Y10416   0.475   2.457   5.179  1.3810 -0.4023  0.8622
  102SAPE  C31610417   0.657   2.560   5.192 -0.0143 -0.6950 -0.1927
  102SAPE  H16X10418   0.690   2.525   5.293 -1.8400 -0.3184  0.5793
  102SAPE  H16Y10419   0.694   2.664   5.179 -0.6753 -0.3883  0.3193
  102SAPE  C31710420   0.714   2.479   5.077 -0.0517 -0.2247  0.6229
  102SAPE  H17X10421   0.665   2.518   4.985 -1.3547  0.5843  1.6205
  102SAPE  H17Y10422   0.669   2.377   5.079  2.0087 -1.1959 -0.1538
  102SAPE  C31810423   0.870   2.479   5.067 -0.5318 -0.4640 -0.2460
  102SAPE  H18X10424   0.914   2.430   5.157 -1.4006 -0.1141  0.3917
  102SAPE  H18Y10425   0.902   2.585   5.059  1.4759 -0.7987  2.0715
  102SAPE  H18Z10426   0.914   2.432   4.976  0.6751 -0.0574  0.1092
  103SAPE     N10427   4.175   4.656   2.569 -0.3696  0.2175 -0.0449
  103SAPE   HN110428   4.209   4.638   2.665 -0.8697 -0.4584  0.0076
  103SAPE   HN210429   4.248   4.618   2.504  0.1585  0.5353  0.3536
  103SAPE   HN310430   4.173   4.760   2.563 -0.0235  0.2700  0.6391
  103SAPE   C1210431   4.034   4.619   2.542  0.1721 -0.1542  1.1108
  103SAPE  H12A10432   4.033   4.508   2.550  2.3206 -0.4156 -1.0687
  103SAPE  H12B10433   4.015   4.644   2.435 -1.4323  0.9456  1.6104
  103SAPE   C1110434   3.935   4.694   2.628 -0.6605  0.1598  0.6053
  103SAPE  H11A10435   3.949   4.662   2.734 -2.1954 -2.3360  0.1260
  103SAPE  H11B10436   3.835   4.656   2.601 -0.3770 -0.5965  0.5805
  103SAPE     P10437   3.845   4.930   2.578  0.2168  0.8040  0.2543
  103SAPE   O1310438   3.878   5.071   2.619 -0.4849 -0.3192 -0.8521
  103SAPE   O1410439   3.806   4.908   2.437  0.3301 -0.2060 -0.1431
  103SAPE   O1210440   3.963   4.830   2.613 -0.1985 -0.0802 -0.1028
  103SAPE   O1110441   3.730   4.879   2.677  0.2576  0.2933 -0.1827
  103SAPE    C110442   3.600   4.941   2.690  0.0733 -0.5837 -1.0586
  103SAPE    HA10443   3.581   4.998   2.596  0.9303  0.6591 -0.5059
  103SAPE    HB10444   3.522   4.865   2.713 -2.4090  1.9391 -0.5093
  103SAPE    C210445   3.592   5.045   2.804 -0.2924 -0.5157 -0.1462
  103SAPE    HS10446   3.656   5.125   2.762 -0.5840 -0.5188 -0.6078
  103SAPE   O2110447   3.655   4.987   2.920 -0.2151  1.1891 -0.6572
  103SAPE   C2110448   3.750   5.046   2.990 -0.2137 -0.2231 -0.6537
  103SAPE   O2210449   3.797   5.158   2.970  0.6182  0.0507 -0.6711
  103SAPE   C2210450   3.804   4.966   3.110 -0.0874  0.3426 -0.2515
  103SAPE   H2R10451   3.761   4.864   3.118 -0.0760  0.3436 -0.1778
  103SAPE   H2S10452   3.914   4.978   3.100 -0.4744  3.5630 -1.9659
  103SAPE    C310453   3.454   5.098   2.850 -0.2716 -0.2400  0.0582
  103SAPE    HX10454   3.385   5.017   2.882  0.3191 -0.3282  1.1431
  103SAPE    HY10455   3.408   5.144   2.760 -0.1231  0.3518  0.2768
  103SAPE   O3110456   3.462   5.194   2.955  0.1814  0.2021  0.8746
  103SAPE   C3110457   3.505   5.312   2.931 -0.3742 -0.4474 -0.4603
  103SAPE   O3210458   3.538   5.364   2.830 -0.6773  0.6695 -0.0455
  103SAPE   C3210459   3.515   5.391   3.063  0.1548  0.5760  0.0621
  103SAPE   H2X10460   3.532   5.498   3.040 -1.1140  0.6173 -0.7819
  103SAPE   H2Y10461   3.598   5.355   3.128 -0.5633 -0.1177  0.6226
  103SAPE   C2310462   3.767   5.037   3.246 -0.2757  0.3326 -0.8101
  103SAPE   H3R10463   3.812   5.138   3.241  1.1352 -0.2131  0.0700
  103SAPE   H3S10464   3.816   4.979   3.328  1.3518  0.2608 -1.7955
  103SAPE   C2410465   3.619   5.052   3.280 -0.1355 -0.3624  0.8872
  103SAPE   H4R10466   3.575   4.950   3.286  0.3749 -0.6862 -0.5744
  103SAPE   H4S10467   3.576   5.100   3.190 -0.7602 -0.7992  0.9456
  103SAPE   C2510468   3.592   5.132   3.403  0.4197  0.6104 -0.4517
  103SAPE   H5R10469   3.665   5.213   3.417  0.9175 -0.2034  2.1127
  103SAPE   C2610470   3.501   5.123   3.500  0.1897 -0.0524  0.4322
  103SAPE   H6R10471   3.496   5.205   3.574 -1.5753  0.0905  0.1898
  103SAPE   C2710472   3.392   5.026   3.511  0.1374 -0.6797  0.4694
  103SAPE   H7R10473   3.444   4.934   3.544 -1.6189 -1.0164  2.5058
  103SAPE   H7S10474   3.359   5.005   3.407 -2.0075  0.0293  0.9376
  103SAPE   C2810475   3.277   5.052   3.606  0.0063 -0.8352  1.0689
  103SAPE   H8R10476   3.190   5.084   3.548  0.2331  4.0741  2.9094
  103SAPE   C2910477   3.257   5.025   3.738  0.0724 -0.0060  0.0470
  103SAPE   H9R10478   3.162   5.057   3.782  0.8539  1.8370  0.4768
  103SAPE  C21010479   3.359   4.964   3.836 -0.3821  0.0817 -0.5910
  103SAPE  H10R10480   3.450   4.940   3.777 -2.4804 -4.0604 -2.5462
  103SAPE  H10S10481   3.314   4.871   3.875  0.1087  0.2832  0.5046
  103SAPE  C21110482   3.397   5.068   3.942  0.8512 -0.7810  0.2395
  103SAPE  H11R10483   3.464   5.149   3.912  0.6099 -0.1875  1.2578
  103SAPE  C21210484   3.360   5.076   4.069 -0.0329 -0.0377 -0.5971
  103SAPE  H12R10485   3.399   5.147   4.143 -1.6405 -0.1765  0.4325
  103SAPE  C21310486   3.274   4.978   4.143 -0.0443 -0.1339  0.0322
  103SAPE  H13R10487   3.303   4.991   4.249 -0.1277 -1.0364  0.1760
  103SAPE  H13S10488   3.311   4.876   4.120  1.7315  0.4009  0.3929
  103SAPE  C21410489   3.130   4.995   4.123 -0.3465 -0.4715  0.0539
  103SAPE  H14R10490   3.100   5.060   4.040 -0.0214  0.3283  0.5540
  103SAPE  C21510491   3.039   4.943   4.201  0.7850  0.1174 -1.0601
  103SAPE  H15R10492   2.933   4.965   4.178  0.3474  0.9383  1.4135
  103SAPE  C21610493   3.051   4.859   4.330 -0.5103  0.4223 -0.5884
  103SAPE  H16R10494   3.158   4.841   4.354 -0.6935 -0.8718 -0.6967
  103SAPE  H16S10495   3.001   4.762   4.313 -1.1966  0.6875 -0.1402
  103SAPE  C21710496   2.992   4.942   4.449  0.4201 -0.4873 -0.6795
  103SAPE  H17R10497   2.883   4.926   4.438  0.2482 -0.4870  0.7508
  103SAPE  H17S10498   3.020   5.048   4.437  0.1660 -0.2726  0.4980
  103SAPE  C21810499   3.027   4.903   4.593  0.0821 -0.7611  0.6436
  103SAPE  H18R10500   2.967   4.965   4.664 -1.7286 -1.6017 -0.1043
  103SAPE  H18S10501   3.133   4.931   4.612  0.6303 -2.8779  0.9204
  103SAPE  C21910502   3.008   4.751   4.617  0.2174 -0.2647  0.5859
  103SAPE  H19R10503   3.083   4.701   4.552 -0.8141 -1.0781 -0.0142
  103SAPE  H19S10504   2.906   4.729   4.580  0.6631 -0.1433 -0.7807
  103SAPE  C22010505   3.031   4.712   4.761  0.0429 -0.3024  0.3070
  103SAPE  H20R10506   2.975   4.618   4.776  1.4390 -1.3479 -0.8400
  103SAPE  H20S10507   2.995   4.788   4.834  2.0648  0.1614  0.9063
  103SAPE  H20T10508   3.137   4.695   4.789  0.9054 -1.3094 -3.1963
  103SAPE   C3310509   3.390   5.383   3.162  0.4946  0.0443  0.3280
  103SAPE   H3X10510   3.368   5.276   3.180 -1.8781  0.2449 -0.9239
  103SAPE   H3Y10511   3.294   5.418   3.117  0.1309 -0.3263  0.8059
  103SAPE   C3410512   3.427   5.432   3.305  0.1043  0.8420  1.0191
  103SAPE   H4X10513   3.455   5.539   3.292  1.4494  0.2524 -1.6588
  103SAPE   H4Y10514   3.523   5.384   3.332  0.8061  1.6617  0.0673
  103SAPE   C3510515   3.322   5.419   3.412  0.9105 -0.5095 -0.4042
  103SAPE   H5X10516   3.308   5.309   3.416 -0.4460 -0.3222  1.2749
  103SAPE   H5Y10517   3.232   5.471   3.372  0.6453  0.8091  1.7575
  103SAPE   C3610518   3.376   5.472   3.548 -0.0057 -0.6621  0.3399
  103SAPE   H6X10519   3.391   5.582   3.537 -1.6196 -0.4720 -0.1498
  103SAPE   H6Y10520   3.479   5.432   3.552 -0.2540 -1.3121  0.3093
  103SAPE   C3710521   3.277   5.449   3.660  0.1048  0.1674  0.1366
  103SAPE   H7X10522   3.223   5.354   3.642 -0.9197  0.4959  1.3503
  103SAPE   H7Y10523   3.210   5.537   3.649  1.4500  1.4025  1.4028
  103SAPE   C3810524   3.361   5.447   3.792  0.6126 -0.4570  0.2040
  103SAPE   H8X10525   3.413   5.545   3.790 -0.7890  0.2974 -0.9470
  103SAPE   H8Y10526   3.424   5.356   3.794 -1.2537 -1.8477 -0.8712
  103SAPE   C3910527   3.271   5.440   3.921 -0.1711  0.3202  0.5300
  103SAPE   H9X10528   3.202   5.353   3.926  0.8560 -0.4754  1.0399
  103SAPE   H9Y10529   3.203   5.527   3.922 -0.1556  0.3416  2.2740
  103SAPE  C31010530   3.345   5.456   4.050 -0.6189  0.6487  0.2996
  103SAPE  H10X10531   3.385   5.560   4.055  1.3838 -0.0777  0.2906
  103SAPE  H10Y10532   3.433   5.389   4.046 -1.3669 -0.2849 -0.7409
  103SAPE  C31110533   3.273   5.435   4.186 -0.2407 -0.1392 -0.2726
  103SAPE  H11X10534   3.231   5.332   4.177  1.2631 -0.9431  1.3221
  103SAPE  H11Y10535   3.187   5.505   4.189 -0.5750 -0.5835  0.9688
  103SAPE  C31210536   3.357   5.449   4.312  0.2466 -0.0346 -0.1704
  103SAPE  H12X10537   3.400   5.550   4.323  0.1626 -0.0480  0.3223
  103SAPE  H12Y10538   3.445   5.380   4.315  0.5836  0.2617  4.7624
  103SAPE  C31310539   3.265   5.420   4.437 -0.0639  0.3437  0.5195
  103SAPE  H13X10540   3.228   5.317   4.419  1.9328 -0.1433 -1.1604
  103SAPE  H13Y10541   3.182   5.494   4.445 -0.2156  0.2399 -0.0022
  103SAPE  C31410542   3.351   5.419   4.564 -0.1027 -0.2933 -0.1573
  103SAPE  H14X10543   3.393   5.520   4.587 -0.3323 -0.2898  0.2627
  103SAPE  H14Y10544   3.436   5.351   4.544 -0.4088 -1.0014  0.8774
  103SAPE  C31510545   3.288   5.378   4.701  0.4952  0.0332 -0.0332
  103SAPE  H15X10546   3.220   5.290   4.695  0.8771 -0.3053  0.5475
  103SAPE  H15Y10547   3.223   5.461   4.736  2.6598  1.5162  0.5965
  103SAPE  C31610548   3.392   5.351   4.808 -0.8549  0.1294  0.3497
  103SAPE  H16X10549   3.340   5.349   4.905 -1.5266 -0.0897 -0.0108
  103SAPE  H16Y10550   3.461   5.439   4.803 -0.9451  0.2264  0.7911
  103SAPE  C31710551   3.477   5.226   4.784  0.3440  0.6032  0.2315
  103SAPE  H17X10552   3.511   5.226   4.679  1.2237  0.4142  0.5056
  103SAPE  H17Y10553   3.403   5.145   4.798  0.8656 -0.0832 -0.8360
  103SAPE  C31810554   3.595   5.188   4.872  0.1642  0.2960  0.1864
  103SAPE  H18X10555   3.648   5.104   4.824 -1.4613  0.4546 -2.0574
  103SAPE  H18Y10556   3.555   5.161   4.972  0.7419 -2.7876 -0.3202
  103SAPE  H18Z10557   3.673   5.266   4.888  1.3357 -0.8213  0.0097
  104SAPE     N10558   3.842   0.365   2.982  0.2749  0.1023 -0.1562
  104SAPE   HN110559   3.807   0.462   2.972  0.5938  0.2849  0.4743
  104SAPE   HN210560   3.857   0.347   3.083  0.0863 -1.1453 -0.3281
  104SAPE   HN310561   3.933   0.369   2.932  0.8934  2.2606  1.0532
  104SAPE   C1210562   3.731   0.270   2.940 -0.4384  0.2484 -0.3961
  104SAPE  H12A10563   3.697   0.287   2.836  2.0305 -1.1611 -1.5178
  104SAPE  H12B10564   3.651   0.303   3.010 -0.0495 -0.6888  0.5144
  104SAPE   C1110565   3.780   0.133   2.972  0.0811 -0.2075 -0.1297
  104SAPE  H11A10566   3.691   0.067   2.975 -0.0905 -0.0405 -1.1844
  104SAPE  H11B10567   3.827   0.120   3.072  0.3427 -0.4851 -0.2871
  104SAPE     P10568   3.896  -0.083   2.874 -0.1065 -0.2710  0.1657
  104SAPE   O1310569   3.777  -0.172   2.847  0.2189  0.4257  0.2773
  104SAPE   O1410570   4.012  -0.118   2.788  0.6044 -0.2553  0.2167
  104SAPE   O1210571   3.863   0.077   2.870  0.3014 -0.0844  0.1731
  104SAPE   O1110572   3.927  -0.113   3.025 -0.1566 -0.0578 -0.6119
  104SAPE    C110573   4.021  -0.044   3.109  1.1985 -0.1129  0.2557
  104SAPE    HA10574   4.050   0.051   3.060 -3.1568  1.5458  0.4564
  104SAPE    HB10575   3.970  -0.024   3.205  0.2354  0.0850 -0.2785
  104SAPE    C210576   4.146  -0.131   3.137 -0.3527 -0.6062  0.0056
  104SAPE    HS10577   4.204  -0.147   3.044  0.5144  4.3027 -0.6004
  104SAPE   O2110578   4.103  -0.248   3.197  0.0923 -0.3047 -0.0727
  104SAPE   C2110579   4.090  -0.355   3.127 -0.4759 -0.0939 -0.1898
  104SAPE   O2210580   4.131  -0.371   3.015 -0.0216  0.1326 -0.2077
  104SAPE   C2210581   4.011  -0.460   3.217  0.2255  0.2365  0.1194
  104SAPE   H2R10582   4.067  -0.441   3.312 -0.6608 -2.7995  1.3675
  104SAPE   H2S10583   3.907  -0.425   3.206 -0.5876 -2.2449 -0.9129
  104SAPE    C310584   4.241  -0.052   3.230 -0.2572  0.8224  0.3648
  104SAPE    HX10585   4.280   0.028   3.164 -1.6157  0.4203 -0.9855
  104SAPE    HY10586   4.328  -0.112   3.263  0.3085  0.5568 -1.5084
  104SAPE   O3110587   4.180   0.002   3.348 -0.2823  0.0493  0.1748
  104SAPE   C3110588   4.197  -0.055   3.467 -0.1504 -0.7172 -0.0747
  104SAPE   O3210589   4.272  -0.150   3.486  0.5366  0.0994  1.4206
  104SAPE   C3210590   4.107  -0.006   3.581  0.0856 -0.3883 -0.5992
  104SAPE   H2X10591   4.006  -0.045   3.559  0.9802 -1.8944 -2.3457
  104SAPE   H2Y10592   4.103   0.105   3.579 -0.6292 -0.3881  0.3332
  104SAPE   C2310593   4.026  -0.598   3.164 -0.6101 -0.7276 -0.2144
  104SAPE   H3R10594   4.133  -0.615   3.139  0.2894  1.3422  1.8539
  104SAPE   H3S10595   3.977  -0.607   3.065  1.2937 -0.1663 -1.2689
  104SAPE   C2410596   3.948  -0.698   3.248  0.7612 -0.3006 -0.3975
  104SAPE   H4R10597   3.899  -0.772   3.183 -0.4372  0.6107 -0.5712
  104SAPE   H4S10598   3.869  -0.641   3.302  0.0977 -2.6345  1.2711
  104SAPE   C2510599   4.032  -0.763   3.352 -0.2673  0.0769  0.1317
  104SAPE   H5R10600   4.092  -0.845   3.309  1.0282  1.0473  0.0703
  104SAPE   C2610601   4.046  -0.724   3.482  0.1558 -0.3366  0.2917
  104SAPE   H6R10602   4.112  -0.787   3.543  1.5206 -0.9874 -1.7448
  104SAPE   C2710603   3.974  -0.603   3.540  0.1007 -0.7934 -0.0587
  104SAPE   H7R10604   3.900  -0.641   3.613 -2.0699  0.6588 -1.3636
  104SAPE   H7S10605   3.894  -0.551   3.482 -0.4192  0.4486  1.6993
  104SAPE   C2810606   4.084  -0.508   3.588 -0.1098 -1.1899 -0.0664
  104SAPE   H8R10607   4.126  -0.439   3.513  1.8522 -0.6896  1.4008
  104SAPE   C2910608   4.128  -0.480   3.714 -0.3043  0.2631  0.0865
  104SAPE   H9R10609   4.221  -0.422   3.725 -0.3396  0.4522 -0.5873
  104SAPE  C21010610   4.067  -0.537   3.837 -0.5049  0.0538  0.5276
  104SAPE  H10R10611   3.979  -0.601   3.813  0.9605 -1.6571 -0.5711
  104SAPE  H10S10612   4.028  -0.453   3.899  1.9887  1.5386  0.2201
  104SAPE  C21110613   4.179  -0.611   3.916  0.1572  0.8319 -0.4013
  104SAPE  H11R10614   4.267  -0.644   3.860 -0.0456 -2.6293  1.0851
  104SAPE  C21210615   4.171  -0.628   4.050  1.1603  0.1989 -0.0332
  104SAPE  H12R10616   4.248  -0.689   4.100  1.5052  1.3325  0.8379
  104SAPE  C21310617   4.057  -0.588   4.141 -0.4956  0.2579  0.1434
  104SAPE  H13R10618   4.044  -0.668   4.217 -3.6608 -2.1979 -2.6583
  104SAPE  H13S10619   3.971  -0.608   4.074 -0.4776  0.8326 -0.0590
  104SAPE  C21410620   4.055  -0.453   4.203  0.2751 -0.1345 -0.3797
  104SAPE  H14R10621   4.066  -0.372   4.130  0.0599  0.0166 -0.2469
  104SAPE  C21510622   4.033  -0.429   4.331  0.1055  0.2457 -0.0152
  104SAPE  H15R10623   4.039  -0.327   4.372  0.1448 -0.3757  1.6087
  104SAPE  C21610624   3.988  -0.537   4.422  0.0977  0.3687 -0.2118
  104SAPE  H16R10625   3.936  -0.627   4.384  0.1193 -0.3677  1.4039
  104SAPE  H16S10626   3.910  -0.498   4.491  0.7020 -0.2828  0.8870
  104SAPE  C21710627   4.104  -0.591   4.509 -0.3761  0.0068  0.2192
  104SAPE  H17R10628   4.149  -0.503   4.559 -1.1973  0.7164 -0.2708
  104SAPE  H17S10629   4.183  -0.639   4.446 -1.0136 -1.4916  0.5091
  104SAPE  C21810630   4.071  -0.692   4.622 -0.5446 -0.5029 -0.9774
  104SAPE  H18R10631   4.171  -0.723   4.660 -0.1363 -0.1091 -1.7077
  104SAPE  H18S10632   4.017  -0.785   4.594 -1.3842 -0.4040  0.2255
  104SAPE  C21910633   3.994  -0.621   4.731 -0.1699 -0.4999 -0.0088
  104SAPE  H19R10634   3.957  -0.702   4.798 -1.3468 -0.3013 -0.4005
  104SAPE  H19S10635   3.904  -0.582   4.678  0.8253  1.0970 -0.5759
  104SAPE  C22010636   4.068  -0.522   4.830 -0.4306 -0.3087 -0.2009
  104SAPE  H20R10637   4.094  -0.426   4.781  1.8117 -1.4272 -1.3628
  104SAPE  H20S10638   4.165  -0.567   4.860 -0.6673 -1.4750 -1.0799
  104SAPE  H20T10639   4.008  -0.502   4.922 -1.2144  2.9326 -1.3041
  104SAPE   C3310640   4.155  -0.063   3.719 -0.0347  0.5590 -0.0322
  104SAPE   H3X10641   4.265  -0.059   3.730 -0.0641  2.5564 -0.0290
  104SAPE   H3Y10642   4.123  -0.169   3.720 -0.9902  0.7946 -1.7240
  104SAPE   C3410643   4.112   0.020   3.849 -0.2309  0.5724  0.5782
  104SAPE   H4X10644   4.001   0.020   3.844 -0.2369 -1.3271 -0.2142
  104SAPE   H4Y10645   4.160   0.120   3.844  0.1396  0.3818  0.2469
  104SAPE   C3510646   4.160  -0.044   3.971  0.9545 -0.6595 -0.6597
  104SAPE   H5X10647   4.269  -0.027   3.980  0.5951  0.8069  2.1475
  104SAPE   H5Y10648   4.141  -0.154   3.971 -1.0359 -0.4533 -4.2013
  104SAPE   C3610649   4.100   0.016   4.099 -0.4645  0.6532  0.7126
  104SAPE   H6X10650   3.994  -0.013   4.117 -1.0173  1.4797 -0.9480
  104SAPE   H6Y10651   4.099   0.127   4.096  0.0115  0.6533 -1.6482
  104SAPE   C3710652   4.172  -0.031   4.226  0.6093 -0.1325  0.2192
  104SAPE   H7X10653   4.279  -0.006   4.212  0.3895  0.3278 -0.7429
  104SAPE   H7Y10654   4.154  -0.141   4.230  0.2031 -0.0507  0.7332
  104SAPE   C3810655   4.102   0.017   4.360  0.1665  0.1380  0.5718
  104SAPE   H8X10656   3.994   0.019   4.337 -0.3316 -1.3372  2.4907
  104SAPE   H8Y10657   4.140   0.118   4.388  1.8945  0.1371 -1.5208
  104SAPE   C3910658   4.123  -0.077   4.476 -0.0356 -0.6070  0.2273
  104SAPE   H9X10659   4.232  -0.100   4.474  0.5614  1.9885 -0.1510
  104SAPE   H9Y10660   4.085  -0.181   4.467  0.8814 -1.0897  1.5583
  104SAPE  C31010661   4.094  -0.010   4.610  0.2274 -0.5201  0.6278
  104SAPE  H10X10662   3.990   0.030   4.612 -0.9836 -2.8657 -3.5916
  104SAPE  H10Y10663   4.165   0.075   4.612 -0.3260 -0.0335 -0.2656
  104SAPE  C31110664   4.117  -0.092   4.741  0.3333 -0.5426 -0.2148
  104SAPE  H11X10665   4.046  -0.177   4.743  1.2305 -1.3017 -0.1111
  104SAPE  H11Y10666   4.090  -0.028   4.828 -1.3515  1.6064 -2.2020
  104SAPE  C31210667   4.258  -0.157   4.764 -1.0360  0.3205  0.7203
  104SAPE  H12X10668   4.331  -0.083   4.725 -1.1105  0.9563  1.7438
  104SAPE  H12Y10669   4.271  -0.250   4.705  0.7077  0.9017  0.1201
  104SAPE  C31310670   4.290  -0.181   4.912 -0.6626 -0.1671  1.1320
  104SAPE  H13X10671   4.380  -0.243   4.929 -0.0747  0.3421  0.0370
  104SAPE  H13Y10672   4.211  -0.243   4.958  0.4089 -3.2666 -0.8877
  104SAPE  C31410673   4.308  -0.051   4.986  0.0970 -0.4439 -1.2091
  104SAPE  H14X10674   4.213   0.006   4.993 -0.5268 -1.6753  2.3683
  104SAPE  H14Y10675   4.398   0.005   4.951  1.1128 -0.9657  0.4732
  104SAPE  C31510676   4.342  -0.081   5.133 -0.8789 -0.6617  0.0087
  104SAPE  H15X10677   4.432  -0.146   5.129  0.0579  0.4825  1.5655
  104SAPE  H15Y10678   4.256  -0.124   5.189 -0.1365 -1.6617  0.4058
  104SAPE  C31610679   4.384   0.055   5.205  0.2114  0.0608 -0.0857
  104SAPE  H16X10680   4.297   0.123   5.217  1.3647  1.3284  1.6764
  104SAPE  H16Y10681   4.463   0.110   5.149 -0.1906 -1.0363 -1.8228
  104SAPE  C31710682   4.446   0.026   5.342  0.2833  0.2421  0.6211
  104SAPE  H17X10683   4.486   0.127   5.366 -1.5801  0.8275  1.4255
  104SAPE  H17Y10684   4.533  -0.043   5.335 -0.5499 -0.6623 -1.8203
  104SAPE  C31810685   4.354  -0.030   5.453 -0.2264 -0.0783 -0.4202
  104SAPE  H18X10686   4.268   0.040   5.453  0.5601  0.9105 -0.3835
  104SAPE  H18Y10687   4.395  -0.029   5.556 -0.8188  0.2476 -0.1824
  104SAPE  H18Z10688   4.321  -0.132   5.424 -1.5558  0.0026  0.7270
  105SAPE     N10689   1.683   3.766   2.618 -0.4243 -0.3036  0.0723
  105SAPE   HN110690   1.599   3.718   2.658 -0.8164 -0.3620 -0.7909
  105SAPE   HN210691   1.735   3.683   2.582  1.3696  0.9290 -0.2993
  105SAPE   HN310692   1.735   3.814   2.694  1.1762 -0.1073 -1.0970
  105SAPE   C1210693   1.625   3.865   2.518 -0.3217  0.0071 -0.0436
  105SAPE  H12A10694   1.570   3.801   2.446  0.8209 -1.3973  0.2799
  105SAPE  H12B10695   1.706   3.918   2.463 -2.4827  1.7222 -1.7508
  105SAPE   C1110696   1.537   3.967   2.581 -0.0132 -0.4393  0.3344
  105SAPE  H11A10697   1.459   3.915   2.642  1.1379 -1.5900  0.8757
  105SAPE  H11B10698   1.492   4.028   2.500 -2.2026 -0.4162  1.4713
  105SAPE     P10699   1.548   4.160   2.761  0.0392  0.0273  0.0254
  105SAPE   O1310700   1.651   4.225   2.841  0.2867 -0.8619  0.1018
  105SAPE   O1410701   1.468   4.252   2.678 -0.1326  0.6684  0.5608
  105SAPE   O1210702   1.610   4.041   2.679  0.0573  0.1826 -0.1456
  105SAPE   O1110703   1.456   4.069   2.857  0.4638 -0.1500 -0.4069
  105SAPE    C110704   1.513   3.958   2.935  0.0779 -0.0577 -0.1878
  105SAPE    HA10705   1.579   3.898   2.868  0.1367 -1.0075  0.6904
  105SAPE    HB10706   1.583   3.994   3.014  0.2130 -0.3394 -0.1786
  105SAPE    C210707   1.396   3.871   2.988 -0.2313 -0.1631  0.1703
  105SAPE    HS10708   1.348   3.832   2.895  0.6169 -1.3234  0.1873
  105SAPE   O2110709   1.306   3.951   3.073  0.1079 -0.2275 -0.0280
  105SAPE   C2110710   1.201   3.882   3.111 -0.3469  0.4519 -0.0943
  105SAPE   O2210711   1.179   3.767   3.080  0.5478  0.6827  0.1179
  105SAPE   C2210712   1.119   3.975   3.200 -0.2449  0.6861  0.1137
  105SAPE   H2R10713   1.193   4.022   3.269 -1.0302  1.0578  0.7118
  105SAPE   H2S10714   1.063   4.047   3.136 -0.2641  0.4193 -0.1749
  105SAPE    C310715   1.457   3.743   3.063 -0.1344 -0.0468 -0.7679
  105SAPE    HX10716   1.538   3.726   2.989 -0.4911  1.9543 -1.6889
  105SAPE    HY10717   1.378   3.666   3.054  1.0336 -1.1212 -2.2016
  105SAPE   O3110718   1.501   3.772   3.197 -0.0518 -0.5681 -0.1697
  105SAPE   C3110719   1.635   3.751   3.221  0.5835 -0.0818  0.1951
  105SAPE   O3210720   1.720   3.736   3.139 -0.2218  0.1386  0.3489
  105SAPE   C3210721   1.664   3.764   3.369  0.1221 -0.9224 -0.6764
  105SAPE   H2X10722   1.570   3.780   3.426  0.7703 -2.8861  1.0596
  105SAPE   H2Y10723   1.723   3.856   3.390  0.8388 -1.4660 -0.2528
  105SAPE   C2310724   1.026   3.892   3.292  0.7531 -0.5569  0.8260
  105SAPE   H3R10725   1.081   3.803   3.328  0.1729 -1.2805 -0.0332
  105SAPE   H3S10726   0.942   3.859   3.227 -0.3457  2.2716  0.6541
  105SAPE   C2410727   0.964   3.973   3.409 -0.1403  0.0083 -0.9577
  105SAPE   H4R10728   0.886   3.914   3.462  0.8133 -2.1325 -1.8220
  105SAPE   H4S10729   0.900   4.049   3.360 -0.0210 -0.4644 -1.8587
  105SAPE   C2510730   1.077   4.038   3.496  0.2792  0.5044  0.5085
  105SAPE   H5R10731   1.125   4.127   3.453 -2.8189  2.7542  1.3195
  105SAPE   C2610732   1.112   4.002   3.620 -0.1921  0.2181 -0.1449
  105SAPE   H6R10733   1.188   4.062   3.672 -0.0971 -0.3959  0.4435
  105SAPE   C2710734   1.072   3.892   3.707  0.3136  0.6193 -0.2787
  105SAPE   H7R10735   1.142   3.864   3.789 -1.0399  1.2753  1.1507
  105SAPE   H7S10736   1.060   3.800   3.645  0.1737 -0.6178  1.4997
  105SAPE   C2810737   0.945   3.928   3.787  0.5452 -0.3528  0.2692
  105SAPE   H8R10738   0.854   3.909   3.729  0.3052  1.7421 -0.1444
  105SAPE   C2910739   0.946   3.976   3.911  0.1482 -0.0912  0.1123
  105SAPE   H9R10740   0.851   4.007   3.957  0.9103 -1.2739  2.6391
  105SAPE  C21010741   1.068   4.011   3.992  0.1638  0.5769 -0.9070
  105SAPE  H10R10742   1.103   4.111   3.956  0.4069  0.3161 -1.4252
  105SAPE  H10S10743   1.154   3.948   3.958  1.3784  1.6133  0.1446
  105SAPE  C21110744   1.064   4.014   4.143 -0.8113  0.0859  0.1959
  105SAPE  H11R10745   1.132   4.097   4.167  0.3857 -0.2150 -1.9738
  105SAPE  C21210746   0.997   3.938   4.241 -0.8277 -0.4499 -0.7541
  105SAPE  H12R10747   1.013   3.966   4.346  2.3089 -0.7956 -1.0577
  105SAPE  C21310748   0.922   3.817   4.223  0.2788  0.5600  1.1768
  105SAPE  H13R10749   0.958   3.741   4.296  0.4712 -0.0410  0.4711
  105SAPE  H13S10750   0.926   3.777   4.120  1.3332  0.3764  1.2858
  105SAPE  C21410751   0.779   3.854   4.245  0.1828 -0.2027  0.0339
  105SAPE  H14R10752   0.733   3.892   4.152  0.2109 -0.3849 -0.0546
  105SAPE  C21510753   0.705   3.855   4.360  0.4730  0.3447  0.3449
  105SAPE  H15R10754   0.596   3.867   4.354  0.0201 -3.2551 -1.0541
  105SAPE  C21610755   0.747   3.829   4.500  0.7757 -0.1928 -0.1148
  105SAPE  H16R10756   0.722   3.921   4.557  1.6104 -0.8767  1.4082
  105SAPE  H16S10757   0.851   3.792   4.517  0.1864 -1.9430 -0.1505
  105SAPE  C21710758   0.676   3.711   4.571  0.0443  0.4987 -0.0028
  105SAPE  H17R10759   0.723   3.615   4.543 -1.2650  0.2029 -1.3617
  105SAPE  H17S10760   0.576   3.718   4.521 -0.8507 -0.2533  1.6150
  105SAPE  C21810761   0.663   3.715   4.726 -0.3833 -0.1491  0.6343
  105SAPE  H18R10762   0.587   3.649   4.772 -0.9729  0.0569 -0.0411
  105SAPE  H18S10763   0.664   3.824   4.751  0.3129  0.7441 -2.8175
  105SAPE  C21910764   0.801   3.663   4.785  0.0535  0.6907 -0.3898
  105SAPE  H19R10765   0.895   3.675   4.726  1.0568  2.3740  1.4148
  105SAPE  H19S10766   0.793   3.553   4.797 -0.5208  0.9009  1.5979
  105SAPE  C22010767   0.831   3.735   4.918 -0.0409  0.2913  0.3869
  105SAPE  H20R10768   0.741   3.711   4.979 -0.8632 -1.2357 -1.3298
  105SAPE  H20S10769   0.853   3.843   4.927 -0.2382  0.3844 -0.2134
  105SAPE  H20T10770   0.918   3.685   4.966 -1.0568  0.1899  2.2406
  105SAPE   C3310771   1.738   3.652   3.434 -0.1590 -0.4039  0.9603
  105SAPE   H3X10772   1.837   3.633   3.385 -1.3056  1.3899 -2.3823
  105SAPE   H3Y10773   1.678   3.559   3.421  0.0029 -0.2679 -1.0683
  105SAPE   C3410774   1.743   3.679   3.586 -0.5408  0.0180 -0.8323
  105SAPE   H4X10775   1.662   3.739   3.633 -0.2710 -0.4038  0.1810
  105SAPE   H4Y10776   1.834   3.740   3.608 -1.4738  1.3453 -0.5252
  105SAPE   C3510777   1.751   3.559   3.682 -0.0877  0.0964  0.1154
  105SAPE   H5X10778   1.834   3.492   3.651 -0.3074 -0.2410  0.2497
  105SAPE   H5Y10779   1.659   3.497   3.675 -1.0255  1.3960  0.6439
  105SAPE   C3610780   1.764   3.597   3.829  0.4665 -0.0203  0.3860
  105SAPE   H6X10781   1.671   3.649   3.861 -0.0138 -1.7842  2.0241
  105SAPE   H6Y10782   1.856   3.656   3.849 -0.3811  2.1334 -1.5702
  105SAPE   C3710783   1.763   3.475   3.928  0.6324  0.0975 -0.3877
  105SAPE   H7X10784   1.856   3.419   3.907  2.0952  2.2459 -0.0020
  105SAPE   H7Y10785   1.689   3.395   3.910 -1.3661  1.6570  0.4340
  105SAPE   C3810786   1.735   3.527   4.078  1.0871  0.0983  0.0200
  105SAPE   H8X10787   1.629   3.562   4.080  1.8003  2.3339  1.1266
  105SAPE   H8Y10788   1.808   3.606   4.104  1.2070 -0.1784  0.5545
  105SAPE   C3910789   1.751   3.414   4.176 -0.0035 -0.2910 -0.3754
  105SAPE   H9X10790   1.845   3.357   4.159 -0.0776 -1.5829  2.7589
  105SAPE   H9Y10791   1.671   3.346   4.139  1.7115 -2.0149 -1.1025
  105SAPE  C31010792   1.731   3.446   4.323  0.2961 -0.1639 -0.1773
  105SAPE  H10X10793   1.737   3.356   4.389 -1.8085 -0.7620 -0.7062
  105SAPE  H10Y10794   1.626   3.480   4.331  0.5485  0.5898  0.0294
  105SAPE  C31110795   1.816   3.555   4.372  0.1706  0.7391  0.1696
  105SAPE  H11X10796   1.781   3.643   4.315 -1.4611  0.2253  0.3317
  105SAPE  H11Y10797   1.918   3.521   4.343 -0.5428 -0.6505 -0.8353
  105SAPE  C31210798   1.811   3.571   4.520 -0.0517 -0.2923  0.3257
  105SAPE  H12X10799   1.850   3.479   4.568  3.1972  0.5213 -0.4795
  105SAPE  H12Y10800   1.707   3.588   4.556 -0.9027 -3.1087 -0.5876
  105SAPE  C31310801   1.898   3.691   4.556 -0.5576  0.5619 -0.3781
  105SAPE  H13X10802   1.897   3.767   4.476 -2.1038 -0.2767 -1.2086
  105SAPE  H13Y10803   2.002   3.654   4.550 -0.5243  0.6021 -0.0881
  105SAPE  C31410804   1.866   3.758   4.683  0.1535  0.5559 -0.3189
  105SAPE  H14X10805   1.761   3.794   4.688 -0.2315  0.0593 -3.1958
  105SAPE  H14Y10806   1.929   3.848   4.698  0.5449  0.2427 -0.0523
  105SAPE  C31510807   1.905   3.667   4.801 -0.4731 -1.0738 -0.4696
  105SAPE  H15X10808   2.014   3.647   4.788 -0.2166 -0.2089  0.2518
  105SAPE  H15Y10809   1.857   3.568   4.786  0.7393 -1.4027 -2.5914
  105SAPE  C31610810   1.870   3.727   4.942 -0.4508 -0.1485  0.1139
  105SAPE  H16X10811   1.932   3.819   4.933  0.0293 -0.2940  1.7189
  105SAPE  H16Y10812   1.907   3.653   5.016 -1.2004 -1.1500 -0.4779
  105SAPE  C31710813   1.716   3.756   4.979 -0.3805  0.8433  0.1247
  105SAPE  H17X10814   1.695   3.844   4.914  1.6226  1.4639  0.2567
  105SAPE  H17Y10815   1.705   3.773   5.088  0.8330  0.4310  0.3273
  105SAPE  C31810816   1.629   3.635   4.941 -0.2711 -0.4420  0.5236
  105SAPE  H18X10817   1.615   3.626   4.831  2.1839 -1.2310  0.2137
  105SAPE  H18Y10818   1.529   3.635   4.989 -0.9764 -2.6293 -0.7984
  105SAPE  H18Z10819   1.684   3.542   4.966 -1.1749 -1.1377  0.0128
  106SAPE     N10820   1.046   6.670   2.733 -0.2177  0.0181 -0.6328
  106SAPE   HN110821   1.001   6.715   2.651 -0.9854  0.1426 -0.1526
  106SAPE   HN210822   1.099   6.742   2.787 -1.3350 -0.4255  1.1414
  106SAPE   HN310823   1.095   6.592   2.685  0.8760 -0.1252  0.6466
  106SAPE   C1210824   0.933   6.609   2.812  0.6804 -0.6043  0.7115
  106SAPE  H12A10825   0.981   6.566   2.902  0.0985 -3.0782 -0.0804
  106SAPE  H12B10826   0.903   6.524   2.746  1.7793 -1.1394  0.8778
  106SAPE   C1110827   0.806   6.705   2.842 -0.1871  0.0217  0.7591
  106SAPE  H11A10828   0.822   6.757   2.939 -0.2467 -1.0097  1.3415
  106SAPE  H11B10829   0.728   6.627   2.852  0.5915 -0.7134  1.2751
  106SAPE     P10830   0.788   6.936   2.731  0.4961  0.0658 -0.1732
  106SAPE   O1310831   0.928   6.954   2.692  0.1176 -0.3577 -0.7078
  106SAPE   O1410832   0.687   7.002   2.643  0.0350  0.6409 -0.6033
  106SAPE   O1210833   0.770   6.777   2.728 -0.4383 -0.1107 -0.2308
  106SAPE   O1110834   0.763   6.978   2.882 -0.6051 -0.0316  0.0372
  106SAPE    C110835   0.642   7.004   2.946 -0.1908  0.1948  0.6608
  106SAPE    HA10836   0.557   6.983   2.877  0.3683 -0.9217  0.2965
  106SAPE    HB10837   0.642   6.943   3.039 -1.9121  1.8990  1.8857
  106SAPE    C210838   0.616   7.156   2.981  0.6169 -0.3912 -0.6530
  106SAPE    HS10839   0.639   7.218   2.891 -2.8594  1.5213 -0.4016
  106SAPE   O2110840   0.691   7.196   3.096  0.3894  0.1365  0.0414
  106SAPE   C2110841   0.816   7.197   3.077 -0.5014 -0.4251 -0.1287
  106SAPE   O2210842   0.879   7.196   2.978 -0.2164  0.0506  0.6272
  106SAPE   C2210843   0.877   7.201   3.219 -0.0579 -0.8299 -0.0841
  106SAPE   H2R10844   0.927   7.298   3.237 -0.0022 -0.8145 -0.3145
  106SAPE   H2S10845   0.804   7.194   3.302 -0.3522 -2.9908 -0.4632
  106SAPE    C310846   0.464   7.181   3.020 -0.7845 -0.7460 -0.1396
  106SAPE    HX10847   0.419   7.183   2.918  1.6603  0.7542 -1.2795
  106SAPE    HY10848   0.467   7.286   3.056 -0.5925 -1.0692  0.8038
  106SAPE   O3110849   0.417   7.087   3.122  0.0291 -0.6676  0.1473
  106SAPE   C3110850   0.280   7.094   3.131  0.1307 -0.1724  0.3482
  106SAPE   O3210851   0.210   7.167   3.063  0.1418  0.6027 -0.8371
  106SAPE   C3210852   0.230   7.000   3.241  0.4283  0.0383 -0.0966
  106SAPE   H2X10853   0.305   6.920   3.256 -0.2143 -0.6223 -0.3285
  106SAPE   H2Y10854   0.133   6.955   3.211 -0.0175 -0.5447  2.0551
  106SAPE   C2310855   0.992   7.094   3.237  0.6712 -0.7333  0.0009
  106SAPE   H3R10856   1.036   7.119   3.336  1.1611  1.5398 -0.7355
  106SAPE   H3S10857   1.065   7.117   3.157 -1.6413  1.3243 -1.6756
  106SAPE   C2410858   0.963   6.945   3.238 -0.4077  0.7025 -0.0056
  106SAPE   H4R10859   1.064   6.908   3.265 -0.3197 -0.2259 -1.4848
  106SAPE   H4S10860   0.937   6.911   3.136 -1.1977 -0.0081  0.4149
  106SAPE   C2510861   0.856   6.915   3.345 -0.4258  0.6820  0.5630
  106SAPE   H5R10862   0.750   6.934   3.322  0.1568  0.6241 -2.7545
  106SAPE   C2610863   0.886   6.864   3.470 -0.2411  0.1225  0.0938
  106SAPE   H6R10864   0.802   6.853   3.540 -0.4391  0.3364 -0.1082
  106SAPE   C2710865   1.021   6.812   3.519  0.0431 -0.0724 -0.2213
  106SAPE   H7R10866   1.058   6.885   3.594 -2.4242  0.5132  0.5477
  106SAPE   H7S10867   1.107   6.805   3.449 -0.9652 -0.7117 -1.4337
  106SAPE   C2810868   1.006   6.677   3.580 -0.0470  0.9513 -0.3174
  106SAPE   H8R10869   1.040   6.594   3.516  0.6726 -0.0903  1.3525
  106SAPE   C2910870   0.978   6.645   3.709 -0.1586  0.0152  0.1922
  106SAPE   H9R10871   0.979   6.537   3.729  0.7024  0.5460  3.6233
  106SAPE  C21010872   0.958   6.751   3.823  0.8396  0.3444  0.1859
  106SAPE  H10R10873   0.861   6.739   3.877  0.1705  0.4873 -0.9378
  106SAPE  H10S10874   0.958   6.856   3.787 -0.6195  0.9291  1.7406
  106SAPE  C21110875   1.075   6.744   3.920 -0.1040 -0.1924 -0.6996
  106SAPE  H11R10876   1.173   6.760   3.874 -0.0310  0.2993 -0.3774
  106SAPE  C21210877   1.074   6.714   4.050 -0.1200  0.2646  0.1230
  106SAPE  H12R10878   1.166   6.724   4.109  0.0302 -3.8796  0.8585
  106SAPE  C21310879   0.948   6.681   4.134 -0.7537  0.1610 -0.1447
  106SAPE  H13R10880   0.859   6.669   4.070 -0.8315  2.2776 -0.5078
  106SAPE  H13S10881   0.921   6.773   4.190  0.4344  1.5471 -1.7291
  106SAPE  C21410882   0.969   6.559   4.218 -0.4057  0.0341 -0.1640
  106SAPE  H14R10883   0.972   6.460   4.170  2.0021 -1.0543  1.9705
  106SAPE  C21510884   0.996   6.564   4.350  0.2778  0.0598  0.1677
  106SAPE  H15R10885   1.015   6.469   4.403  1.7457  0.5617  0.5824
  106SAPE  C21610886   0.999   6.687   4.444  0.6064  0.5910  0.2842
  106SAPE  H16R10887   0.906   6.695   4.506 -0.4606  2.2537 -1.4243
  106SAPE  H16S10888   1.000   6.779   4.382 -0.1520  2.1145  2.3998
  106SAPE  C21710889   1.118   6.695   4.535 -0.5314 -0.1309  0.1493
  106SAPE  H17R10890   1.121   6.789   4.595  2.0745 -0.9303  1.4047
  106SAPE  H17S10891   1.216   6.700   4.484 -0.5206  0.9470  0.2470
  106SAPE  C21810892   1.132   6.581   4.643  0.7703 -0.2721 -0.1367
  106SAPE  H18R10893   1.207   6.629   4.708  1.3480  1.8909 -2.2690
  106SAPE  H18S10894   1.181   6.495   4.592 -0.7545  0.8908 -3.9591
  106SAPE  C21910895   1.008   6.551   4.733 -0.0616 -0.7334  1.0911
  106SAPE  H19R10896   0.918   6.549   4.667  1.8885 -0.1245 -1.8051
  106SAPE  H19S10897   0.989   6.644   4.790 -0.4738  0.7893 -1.3674
  106SAPE  C22010898   1.026   6.429   4.820 -0.2800  0.1591  0.4627
  106SAPE  H20R10899   1.034   6.337   4.758 -1.0535  0.2986  0.1534
  106SAPE  H20S10900   0.944   6.400   4.888  0.1258 -0.1730  0.8162
  106SAPE  H20T10901   1.114   6.442   4.887 -0.9288 -1.0995  1.5943
  106SAPE   C3310902   0.218   7.068   3.384 -0.3625  0.3559 -0.2016
  106SAPE   H3X10903   0.155   7.159   3.384  0.2769  0.8448 -1.8951
  106SAPE   H3Y10904   0.319   7.104   3.415 -0.5491  1.4909 -0.8493
  106SAPE   C3410905   0.187   6.959   3.495  0.5342  0.3078  0.0333
  106SAPE   H4X10906   0.256   6.872   3.489 -0.6749 -0.7142  0.4940
  106SAPE   H4Y10907   0.091   6.906   3.477  0.0776  1.0166  0.3187
  106SAPE   C3510908   0.201   7.028   3.630  0.7732  0.2726 -0.1657
  106SAPE   H5X10909   0.123   7.108   3.637 -2.0591 -2.4167  1.8236
  106SAPE   H5Y10910   0.306   7.060   3.642  0.6407  0.3716  0.8542
  106SAPE   C3610911   0.169   6.943   3.753  0.7715  0.2611 -0.3064
  106SAPE   H6X10912   0.224   6.848   3.738  1.5678  0.2109  2.4356
  106SAPE   H6Y10913   0.061   6.921   3.772  0.4460 -0.3488 -2.5132
  106SAPE   C3710914   0.226   6.998   3.883 -0.0361  0.8509 -0.3055
  106SAPE   H7X10915   0.210   7.107   3.894  0.1078  0.9790 -1.2835
  106SAPE   H7Y10916   0.337   6.987   3.886 -0.1438 -0.3983 -0.4359
  106SAPE   C3810917   0.177   6.918   4.005  0.2320  0.0583 -0.2121
  106SAPE   H8X10918   0.208   6.812   3.991  0.3176 -0.0200  0.5244
  106SAPE   H8Y10919   0.067   6.912   4.002  0.2011 -0.2387  1.1123
  106SAPE   C3910920   0.236   6.974   4.138 -0.0369  0.5620  0.1504
  106SAPE   H9X10921   0.184   7.072   4.145 -0.7127  0.1880  0.5205
  106SAPE   H9Y10922   0.346   6.985   4.129  0.2127 -1.5019  0.1713
  106SAPE  C31010923   0.207   6.894   4.265  0.5909 -0.1951  0.5076
  106SAPE  H10X10924   0.238   6.965   4.344 -1.8025 -0.0433  1.3902
  106SAPE  H10Y10925   0.264   6.799   4.280 -2.2634 -2.0084  0.7016
  106SAPE  C31110926   0.056   6.872   4.286  0.3286  0.0444  0.0201
  106SAPE  H11X10927   0.033   6.794   4.211  0.8591  1.3368 -1.5661
  106SAPE  H11Y10928  -0.010   6.959   4.265  0.4310  0.2669  0.5783
  106SAPE  C31210929   0.012   6.824   4.427  0.0364 -0.2272 -0.5110
  106SAPE  H12X10930   0.052   6.721   4.430 -1.4736 -0.9217 -2.1938
  106SAPE  H12Y10931  -0.099   6.822   4.428  0.0285 -2.6404 -1.0023
  106SAPE  C31310932   0.072   6.904   4.541  0.5863  0.1493 -0.0476
  106SAPE  H13X10933   0.064   7.011   4.511 -0.4999  0.7969  2.3578
  106SAPE  H13Y10934   0.180   6.880   4.551  0.5148 -0.8469 -1.3964
  106SAPE  C31410935   0.005   6.869   4.673  0.1798  0.3414 -0.2270
  106SAPE  H14X10936   0.039   6.770   4.711 -3.8845 -1.6271 -1.2130
  106SAPE  H14Y10937  -0.105   6.859   4.663 -0.0470  0.6384  1.5371
  106SAPE  C31510938   0.019   6.976   4.784 -0.3282 -0.1146 -0.7148
  106SAPE  H15X10939  -0.040   6.964   4.877 -0.6953  0.8097 -0.8182
  106SAPE  H15Y10940  -0.016   7.076   4.750  0.4502  0.7252  0.8464
  106SAPE  C31610941   0.169   6.994   4.828  0.5880 -0.0744 -0.0672
  106SAPE  H16X10942   0.174   7.069   4.910  0.6547  0.2123 -0.3343
  106SAPE  H16Y10943   0.225   7.038   4.743 -0.8060  0.8248 -0.5548
  106SAPE  C31710944   0.221   6.852   4.879  0.6417 -0.4353  0.0797
  106SAPE  H17X10945   0.234   6.789   4.789  1.8279 -0.5908  0.3344
  106SAPE  H17Y10946   0.149   6.815   4.955 -0.2280 -0.4826 -0.7600
  106SAPE  C31810947   0.356   6.863   4.953 -0.8407  0.4057 -1.0441
  106SAPE  H18X10948   0.431   6.877   4.873 -0.9799  0.2463 -1.2024
  106SAPE  H18Y10949   0.370   6.772   5.015 -0.2779  1.1334 -0.0759
  106SAPE  H18Z10950   0.363   6.943   5.031  0.9484  0.1906 -0.9380
  107SAPE     N10951   5.184   3.606   2.289 -0.1568 -0.3225 -0.6276
  107SAPE   HN110952   5.143   3.651   2.205 -0.0292 -0.1109 -0.5763
  107SAPE   HN210953   5.132   3.523   2.326 -0.8521  0.1365 -0.5696
  107SAPE   HN310954   5.202   3.678   2.362  2.0021 -1.3293 -0.0670
  107SAPE   C1210955   5.318   3.555   2.250 -0.8485  0.3816 -0.1816
  107SAPE  H12A10956   5.333   3.582   2.143  1.1054  3.2414  0.6866
  107SAPE  H12B10957   5.333   3.448   2.275  0.6969  0.7802  0.7530
  107SAPE   C1110958   5.430   3.639   2.329  0.3585 -0.8670  0.2528
  107SAPE  H11A10959   5.524   3.583   2.308  0.8452  0.2053 -0.5279
  107SAPE  H11B10960   5.415   3.643   2.439  0.3143 -1.8183  0.2841
  107SAPE     P10961   5.366   3.897   2.319  0.0442 -0.8513  0.1262
  107SAPE   O1310962   5.418   4.019   2.257 -0.3894 -0.3261  0.1007
  107SAPE   O1410963   5.222   3.881   2.299 -0.0245  0.0169  1.0440
  107SAPE   O1210964   5.441   3.769   2.273 -0.5696  0.1285  0.6835
  107SAPE   O1110965   5.390   3.895   2.472 -0.0166 -0.1251 -0.2217
  107SAPE    C110966   5.451   3.997   2.545 -0.1431 -0.2321 -0.0262
  107SAPE    HA10967   5.559   3.973   2.544  0.1137  0.7082 -2.8258
  107SAPE    HB10968   5.415   4.097   2.513 -1.7573 -0.1882  1.6935
  107SAPE    C210969   5.419   3.996   2.696 -0.7478 -0.1431 -0.7214
  107SAPE    HS10970   5.476   4.077   2.745 -3.4742  1.9900 -0.8103
  107SAPE   O2110971   5.433   3.868   2.762 -0.1524  0.1643  0.2933
  107SAPE   C2110972   5.554   3.839   2.797 -0.3075 -0.3466  0.0796
  107SAPE   O2210973   5.655   3.883   2.738 -0.0723 -0.0013 -0.6533
  107SAPE   C2210974   5.557   3.735   2.906  0.6920 -0.8229  0.6710
  107SAPE   H2R10975   5.514   3.785   2.995  1.2005 -0.1112  0.5186
  107SAPE   H2S10976   5.502   3.645   2.871 -0.3027 -0.2113  0.6156
  107SAPE    C310977   5.278   4.042   2.724  0.8361  0.0341 -0.3124
  107SAPE    HX10978   5.211   3.961   2.689  1.4613 -0.7803  0.3150
  107SAPE    HY10979   5.273   4.137   2.667  0.1272  0.5926  0.6506
  107SAPE   O3110980   5.260   4.081   2.863 -0.5189  0.5967  0.4081
  107SAPE   C3110981   5.174   4.009   2.936 -0.2826  0.6096 -0.5487
  107SAPE   O3210982   5.119   3.905   2.894  0.1064 -0.1615 -0.5296
  107SAPE   C3210983   5.167   4.064   3.072 -0.7280 -0.1642 -0.6695
  107SAPE   H2X10984   5.072   4.122   3.076 -0.8575 -0.3657 -0.8717
  107SAPE   H2Y10985   5.251   4.135   3.091 -0.4168 -0.7512  0.2129
  107SAPE   C2310986   5.702   3.695   2.940 -0.2017  0.4077  0.1051
  107SAPE   H3R10987   5.751   3.789   2.974 -0.6475  0.7404 -0.1581
  107SAPE   H3S10988   5.743   3.653   2.846 -2.5389  0.7831 -1.1562
  107SAPE   C2410989   5.720   3.593   3.056  0.4845  0.0786  0.4487
  107SAPE   H4R10990   5.659   3.503   3.035  1.2207 -0.3099 -0.0699
  107SAPE   H4S10991   5.692   3.637   3.154  1.3753 -0.9210  1.1825
  107SAPE   C2510992   5.861   3.550   3.063  0.0961  0.3388  0.9729
  107SAPE   H5R10993   5.906   3.528   2.965 -1.9741  2.2764 -0.5261
  107SAPE   C2610994   5.915   3.488   3.169  1.1128 -0.1716  0.0696
  107SAPE   H6R10995   6.022   3.461   3.165  0.4749 -2.8081 -1.5530
  107SAPE   C2710996   5.850   3.478   3.310 -0.0398 -0.4434 -0.2839
  107SAPE   H7R10997   5.787   3.388   3.328  0.7035 -1.4085 -2.2893
  107SAPE   H7S10998   5.776   3.560   3.325  0.3392 -0.5260  2.5884
  107SAPE   C2810999   5.944   3.491   3.428  0.6923 -0.1022  0.4654
  107SAPE   H8R11000   6.017   3.571   3.412 -1.8408  1.8513 -2.7972
  107SAPE   C2911001   5.938   3.439   3.553  0.5267 -0.0878 -0.5543
  107SAPE   H9R11002   6.025   3.460   3.618  0.7575 -1.3417 -0.4468
  107SAPE  C21011003   5.840   3.343   3.610  0.7496  0.4070  0.2651
  107SAPE  H10R11004   5.846   3.252   3.547  1.5828 -0.2987  1.3139
  107SAPE  H10S11005   5.737   3.375   3.584  0.0427 -2.1143 -0.3830
  107SAPE  C21111006   5.852   3.302   3.762  0.4138  0.1098  0.4368
  107SAPE  H11R11007   5.824   3.376   3.838  1.1653  1.1092 -0.2471
  107SAPE  C21211008   5.891   3.180   3.797  0.0967 -0.1328 -0.3675
  107SAPE  H12R11009   5.901   3.159   3.904  0.2576  1.1880 -0.1051
  107SAPE  C21311010   5.932   3.070   3.697  0.9420 -0.0169  0.6648
  107SAPE  H13R11011   5.848   3.073   3.625 -0.6465 -0.2103  2.4362
  107SAPE  H13S11012   5.920   2.973   3.749  0.3156 -1.8695 -2.6668
  107SAPE  C21411013   6.066   3.088   3.638 -0.3683 -0.1079  0.0587
  107SAPE  H14R11014   6.105   3.189   3.620 -2.5784  1.2774  2.3158
  107SAPE  C21511015   6.154   2.984   3.634 -1.0000  0.2080 -0.2939
  107SAPE  H15R11016   6.249   3.002   3.582 -1.4387  0.0814 -1.1637
  107SAPE  C21611017   6.124   2.835   3.657  0.5077  0.1911  0.0021
  107SAPE  H16R11018   6.162   2.781   3.568 -0.7364  0.7316 -0.8851
  107SAPE  H16S11019   6.014   2.820   3.656  0.6973 -1.3351 -0.7305
  107SAPE  C21711020   6.192   2.789   3.788 -0.3347  0.9418  1.1031
  107SAPE  H17R11021   6.302   2.802   3.797 -0.2051 -0.7116  2.3266
  107SAPE  H17S11022   6.191   2.678   3.779  2.1375  1.0636 -2.9864
  107SAPE  C21811023   6.120   2.822   3.913 -0.0403 -0.1770  0.1564
  107SAPE  H18R11024   6.012   2.798   3.904 -0.0964  0.6311 -1.7609
  107SAPE  H18S11025   6.116   2.929   3.942 -2.1347 -0.3000  0.4650
  107SAPE  C21911026   6.176   2.744   4.038  0.5675  0.0620 -0.1526
  107SAPE  H19R11027   6.273   2.796   4.054  0.3283 -0.2781  2.9703
  107SAPE  H19S11028   6.180   2.637   4.010  1.2536  0.2004 -0.6180
  107SAPE  C22011029   6.086   2.763   4.158  0.3362  0.3127 -0.3953
  107SAPE  H20R11030   5.982   2.736   4.131  0.1010  2.2491 -1.6146
  107SAPE  H20S11031   6.083   2.869   4.192  0.0760  1.0022 -2.4751
  107SAPE  H20T11032   6.121   2.705   4.247 -2.3129 -0.6630  0.1092
  107SAPE   C3311033   5.175   3.955   3.187 -0.0839 -0.0259 -0.3791
  107SAPE   H3X11034   5.256   3.882   3.165 -0.5538 -0.6449 -0.0831
  107SAPE   H3Y11035   5.076   3.905   3.189 -0.0268 -0.1513  1.6872
  107SAPE   C3411036   5.196   4.014   3.324  0.1073  0.2434 -0.4807
  107SAPE   H4X11037   5.105   4.069   3.355 -1.7160 -3.0389  0.4738
  107SAPE   H4Y11038   5.285   4.080   3.323  1.4041 -1.4311  0.2177
  107SAPE   C3511039   5.211   3.902   3.429  0.3364 -0.0634 -0.9203
  107SAPE   H5X11040   5.299   3.837   3.412  0.6771 -0.5797  2.2103
  107SAPE   H5Y11041   5.117   3.844   3.411  1.5208 -2.4650  0.2580
  107SAPE   C3611042   5.210   3.956   3.572 -0.6204 -0.4604  0.1960
  107SAPE   H6X11043   5.132   4.031   3.594  0.5057  0.9035 -0.3172
  107SAPE   H6Y11044   5.303   4.016   3.577 -0.0838 -1.3158  0.6802
  107SAPE   C3711045   5.210   3.841   3.681 -0.2180 -0.7684  0.0031
  107SAPE   H7X11046   5.267   3.753   3.644  0.8823 -0.1179  0.1053
  107SAPE   H7Y11047   5.107   3.804   3.699  0.4820 -2.7852  0.1707
  107SAPE   C3811048   5.255   3.895   3.819 -0.3525  0.3307 -0.0312
  107SAPE   H8X11049   5.184   3.976   3.845 -1.5047 -0.4995 -0.5041
  107SAPE   H8Y11050   5.355   3.942   3.811 -1.6784  3.1432 -1.4345
  107SAPE   C3911051   5.252   3.792   3.936  0.1752  0.2629 -0.1156
  107SAPE   H9X11052   5.319   3.707   3.912  0.1761  1.1677 -3.9642
  107SAPE   H9Y11053   5.151   3.745   3.931 -0.2315  0.7876  1.9807
  107SAPE  C31011054   5.288   3.859   4.070 -0.3618 -0.6840  0.8144
  107SAPE  H10X11055   5.221   3.944   4.092 -1.2462 -1.4184  1.0333
  107SAPE  H10Y11056   5.392   3.899   4.075 -0.8678  1.0019 -1.2561
  107SAPE  C31111057   5.259   3.772   4.189  0.0162 -0.6048  0.6499
  107SAPE  H11X11058   5.294   3.667   4.175  1.5147 -0.3072  1.9738
  107SAPE  H11Y11059   5.150   3.753   4.190  0.1917 -1.6952  1.1403
  107SAPE  C31211060   5.305   3.835   4.318  0.3291 -0.0274 -0.0808
  107SAPE  H12X11061   5.249   3.795   4.406  2.1234  0.9714  1.6170
  107SAPE  H12Y11062   5.293   3.945   4.311  1.7421  0.2255  1.0470
  107SAPE  C31311063   5.453   3.816   4.358 -0.0188  0.3677  0.2690
  107SAPE  H13X11064   5.510   3.874   4.282  1.4275 -2.7256 -1.1814
  107SAPE  H13Y11065   5.473   3.710   4.333  0.7731  0.2228  1.4478
  107SAPE  C31411066   5.479   3.853   4.502  0.1993 -0.1565  0.0009
  107SAPE  H14X11067   5.398   3.816   4.569  0.2370  0.3017  0.3086
  107SAPE  H14Y11068   5.486   3.964   4.501 -0.0110 -0.1422 -1.1038
  107SAPE  C31511069   5.607   3.790   4.564  0.5329 -0.5352 -0.3096
  107SAPE  H15X11070   5.599   3.679   4.562  2.2306 -0.7081  0.8931
  107SAPE  H15Y11071   5.603   3.818   4.671 -1.0377 -2.0237  0.0764
  107SAPE  C31611072   5.740   3.835   4.502 -0.4778 -0.2279  0.3700
  107SAPE  H16X11073   5.728   3.942   4.476  0.0945  0.1820  1.7003
  107SAPE  H16Y11074   5.768   3.778   4.411  3.7188 -1.0360  1.9009
  107SAPE  C31711075   5.854   3.823   4.600  0.4366  0.5163  0.1302
  107SAPE  H17X11076   5.855   3.717   4.633 -1.4085 -0.3571 -2.2632
  107SAPE  H17Y11077   5.829   3.876   4.694 -2.0710 -1.0280  0.4492
  107SAPE  C31811078   5.989   3.858   4.543 -0.1838 -0.2263 -0.2063
  107SAPE  H18X11079   6.065   3.861   4.624  0.6153  0.3844 -0.9577
  107SAPE  H18Y11080   5.988   3.949   4.480  1.0776 -0.5168 -0.6800
  107SAPE  H18Z11081   6.034   3.790   4.467  1.9142  0.3122  0.4999
  108SAPE     N11082   3.183   3.801   2.505 -0.8376  0.3012  0.0551
  108SAPE   HN111083   3.160   3.700   2.522 -0.1351 -0.2329 -1.9658
  108SAPE   HN211084   3.143   3.830   2.414  1.9209  1.7758 -0.7699
  108SAPE   HN311085   3.286   3.813   2.496 -0.9052 -0.3711 -2.4528
  108SAPE   C1211086   3.133   3.863   2.626  0.5411 -0.5595 -0.4776
  108SAPE  H12A11087   3.176   3.813   2.716  2.3658 -0.6512 -1.3647
  108SAPE  H12B11088   3.022   3.859   2.629  0.4650  1.0824 -0.5067
  108SAPE   C1111089   3.166   4.011   2.635  0.7203 -0.0511 -0.7114
  108SAPE  H11A11090   3.252   4.029   2.567  1.1972  0.9604  0.1370
  108SAPE  H11B11091   3.202   4.030   2.738 -0.6810  1.6377 -0.5001
  108SAPE     P11092   3.078   4.246   2.548  0.1958 -0.3704  0.0491
  108SAPE   O1311093   3.195   4.246   2.461  0.5202 -0.2176  0.4826
  108SAPE   O1411094   2.948   4.294   2.500  0.5883 -0.3080  0.2357
  108SAPE   O1211095   3.058   4.100   2.600 -0.0180 -0.3154  0.1917
  108SAPE   O1111096   3.116   4.321   2.685 -0.8669 -0.1706 -1.1121
  108SAPE    C111097   3.032   4.314   2.803  0.2741 -0.1460  0.4283
  108SAPE    HA11098   2.996   4.418   2.818 -2.3426 -0.9743  0.2821
  108SAPE    HB11099   2.946   4.245   2.796  0.2653  0.0416 -2.3257
  108SAPE    C211100   3.124   4.280   2.925  1.0422 -0.5041  0.2367
  108SAPE    HS11101   3.123   4.170   2.939 -4.0967 -0.7406 -0.2428
  108SAPE   O2111102   3.073   4.340   3.050  0.2440 -0.1469  0.5040
  108SAPE   C2111103   2.963   4.290   3.096 -0.1361 -0.6172  0.4214
  108SAPE   O2211104   2.906   4.190   3.054  0.5531  0.1223  0.1678
  108SAPE   C2211105   2.910   4.380   3.211  0.0194 -0.2632 -0.2695
  108SAPE   H2R11106   2.994   4.430   3.263 -0.4080 -0.4091  0.5721
  108SAPE   H2S11107   2.842   4.452   3.160  1.0232 -0.7024 -2.3544
  108SAPE    C311108   3.273   4.306   2.904  0.3794  0.5797  0.4695
  108SAPE    HX11109   3.296   4.411   2.875  0.4702 -0.5828 -4.4871
  108SAPE    HY11110   3.291   4.252   2.809 -2.6552  0.7770 -0.3324
  108SAPE   O3111111   3.352   4.258   3.012 -0.6680 -0.3414  0.2068
  108SAPE   C3111112   3.481   4.247   2.973 -0.9512 -0.6542 -0.6676
  108SAPE   O3211113   3.521   4.247   2.861 -0.2673 -0.0732  0.1608
  108SAPE   C3211114   3.575   4.217   3.092 -0.6707 -0.3709  0.0328
  108SAPE   H2X11115   3.675   4.247   3.054 -1.3681  0.5192 -1.1626
  108SAPE   H2Y11116   3.569   4.106   3.103 -1.4920 -0.3846 -0.4600
  108SAPE   C2311117   2.828   4.290   3.310  0.4604 -0.5516  0.0412
  108SAPE   H3R11118   2.888   4.202   3.342  0.6267 -1.1158 -1.7415
  108SAPE   H3S11119   2.753   4.253   3.238  1.5349  1.5277 -2.3079
  108SAPE   C2411120   2.755   4.368   3.420  0.2713 -0.4348  0.0959
  108SAPE   H4R11121   2.681   4.299   3.465  0.3454  1.0358  2.6225
  108SAPE   H4S11122   2.703   4.449   3.364  0.5866 -0.6324 -0.5024
  108SAPE   C2511123   2.865   4.420   3.518  0.2147  0.6195  0.8526
  108SAPE   H5R11124   2.960   4.453   3.472  0.2528 -0.5545  0.0417
  108SAPE   C2611125   2.859   4.415   3.650 -0.8031 -0.0935 -0.5305
  108SAPE   H6R11126   2.956   4.444   3.692 -0.8279 -0.8550  0.0722
  108SAPE   C2711127   2.749   4.353   3.725 -0.8178  0.0894 -0.0354
  108SAPE   H7R11128   2.649   4.386   3.689 -0.2340 -1.0403 -2.8996
  108SAPE   H7S11129   2.744   4.391   3.830  1.0608  0.4967 -0.0586
  108SAPE   C2811130   2.766   4.202   3.719 -0.4996  0.0082 -0.3960
  108SAPE   H8R11131   2.758   4.163   3.616 -1.5022  2.3254 -1.2703
  108SAPE   C2911132   2.801   4.118   3.825  0.5265  0.0483  0.2301
  108SAPE   H9R11133   2.802   4.010   3.807 -0.6003  0.4341 -2.7044
  108SAPE  C21011134   2.836   4.164   3.963 -0.0865  0.4185 -0.4812
  108SAPE  H10R11135   2.884   4.264   3.959  0.9064  0.2791  3.4102
  108SAPE  H10S11136   2.919   4.095   3.988 -0.6361  0.6771  2.4566
  108SAPE  C21111137   2.726   4.174   4.068 -0.3315  0.1118  0.2378
  108SAPE  H11R11138   2.644   4.247   4.057 -2.5273 -1.8342  2.2600
  108SAPE  C21211139   2.707   4.079   4.166 -0.7580  0.1788  0.4152
  108SAPE  H12R11140   2.626   4.079   4.241 -0.8716 -1.3167  0.3268
  108SAPE  C21311141   2.795   3.952   4.187  0.2794  0.3753  0.9459
  108SAPE  H13R11142   2.887   3.982   4.243  1.5123 -2.2276  0.4405
  108SAPE  H13S11143   2.846   3.923   4.093  0.1429 -1.6576  1.4585
  108SAPE  C21411144   2.723   3.829   4.249  0.3434  0.2014  0.3326
  108SAPE  H14R11145   2.641   3.783   4.192 -0.5998  1.1911  0.8488
  108SAPE  C21511146   2.734   3.794   4.375  0.2848  0.3633  0.4408
  108SAPE  H15R11147   2.667   3.718   4.419 -0.1175  0.5253  0.1205
  108SAPE  C21611148   2.822   3.861   4.479 -0.3447 -0.4615  0.1899
  108SAPE  H16R11149   2.867   3.949   4.428 -1.8410  0.3768  0.2648
  108SAPE  H16S11150   2.906   3.792   4.503 -0.3417 -0.9199 -1.0795
  108SAPE  C21711151   2.739   3.912   4.603  0.4591 -0.4488 -0.2462
  108SAPE  H17R11152   2.695   3.818   4.642 -1.7655 -0.4743 -2.5403
  108SAPE  H17S11153   2.662   3.987   4.577  0.6417 -0.2793 -0.2975
  108SAPE  C21811154   2.837   3.987   4.694 -0.1244  0.2548  0.5375
  108SAPE  H18R11155   2.896   4.066   4.643 -0.7301  0.0383 -0.5179
  108SAPE  H18S11156   2.911   3.914   4.733  0.2499  1.2956  1.8596
  108SAPE  C21911157   2.766   4.058   4.807  1.0006  0.7189  0.5290
  108SAPE  H19R11158   2.697   3.993   4.865  0.3350 -1.4245 -2.4349
  108SAPE  H19S11159   2.711   4.144   4.764 -2.6625 -0.9729  1.4313
  108SAPE  C22011160   2.865   4.112   4.906 -0.6577  0.0026  0.2227
  108SAPE  H20R11161   2.940   4.032   4.927 -1.2567 -1.5317 -2.8392
  108SAPE  H20S11162   2.818   4.146   5.000 -0.2737  0.8907  0.0962
  108SAPE  H20T11163   2.928   4.187   4.854  1.5317 -0.6476  1.7844
  108SAPE   C3311164   3.536   4.299   3.214 -0.0249  0.0134 -0.3765
  108SAPE   H3X11165   3.439   4.259   3.251  0.2369  0.5874  0.9688
  108SAPE   H3Y11166   3.535   4.409   3.198 -0.6487  0.4707  2.2901
  108SAPE   C3411167   3.635   4.264   3.329  0.2028 -0.0402 -0.1415
  108SAPE   H4X11168   3.724   4.329   3.317 -0.3625  0.7548 -0.1131
  108SAPE   H4Y11169   3.668   4.160   3.312 -1.6424 -0.4940 -1.2395
  108SAPE   C3511170   3.568   4.283   3.467 -0.9157 -0.2449  0.4564
  108SAPE   H5X11171   3.511   4.377   3.480 -0.3249  0.0177  1.2036
  108SAPE   H5Y11172   3.483   4.211   3.479 -1.5712  0.1042 -1.7331
  108SAPE   C3611173   3.662   4.261   3.583  0.3965 -0.1079 -0.1518
  108SAPE   H6X11174   3.759   4.312   3.565  1.1140 -1.3964 -0.0497
  108SAPE   H6Y11175   3.674   4.152   3.603  1.2530  0.0426  0.2104
  108SAPE   C3711176   3.598   4.318   3.709 -0.1473  0.1419 -0.5507
  108SAPE   H7X11177   3.492   4.286   3.719 -0.0910 -0.1199 -0.7926
  108SAPE   H7Y11178   3.595   4.429   3.711 -0.7835  0.1389 -1.2025
  108SAPE   C3811179   3.677   4.282   3.838  0.2324 -0.5420 -0.3969
  108SAPE   H8X11180   3.777   4.330   3.828  0.0155 -0.1900 -0.9770
  108SAPE   H8Y11181   3.677   4.172   3.850  1.9439 -0.3369  2.5306
  108SAPE   C3911182   3.604   4.343   3.961  0.3568  0.5966 -0.1476
  108SAPE   H9X11183   3.499   4.308   3.957  0.9768 -1.2346 -2.4477
  108SAPE   H9Y11184   3.579   4.450   3.942 -0.0640  0.6035  0.4423
  108SAPE  C31011185   3.666   4.325   4.097  0.0607  0.2358  0.2845
  108SAPE  H10X11186   3.770   4.285   4.084 -1.4409 -3.1791 -3.4154
  108SAPE  H10Y11187   3.622   4.248   4.164  0.2933  0.6414  0.9159
  108SAPE  C31111188   3.660   4.448   4.190  0.3752 -0.2364 -0.3361
  108SAPE  H11X11189   3.553   4.479   4.184  0.2130 -0.6794  0.1738
  108SAPE  H11Y11190   3.736   4.516   4.147 -0.5542  0.6417 -0.6251
  108SAPE  C31211191   3.674   4.418   4.340  0.4431  0.1749  0.6253
  108SAPE  H12X11192   3.777   4.381   4.355  0.0852 -1.5934 -0.8151
  108SAPE  H12Y11193   3.613   4.330   4.371  1.0754  0.5003  2.9566
  108SAPE  C31311194   3.648   4.541   4.436 -0.5352  1.0423 -0.4219
  108SAPE  H13X11195   3.553   4.589   4.405 -0.4780  1.1069 -0.4999
  108SAPE  H13Y11196   3.736   4.604   4.412  1.5701 -1.2595  0.7834
  108SAPE  C31411197   3.650   4.510   4.586 -0.1703  0.8815 -0.2037
  108SAPE  H14X11198   3.755   4.479   4.603 -0.4916 -0.1635 -0.0264
  108SAPE  H14Y11199   3.591   4.418   4.607 -0.3763  1.2920  1.0702
  108SAPE  C31511200   3.607   4.623   4.670  0.9660 -0.3934  0.3221
  108SAPE  H15X11201   3.498   4.640   4.653  0.7873 -0.2956  1.4505
  108SAPE  H15Y11202   3.657   4.719   4.644  0.8407 -0.4422 -0.1155
  108SAPE  C31611203   3.624   4.610   4.822  1.0297  0.9382 -0.3117
  108SAPE  H16X11204   3.618   4.706   4.879  1.1745  2.0439 -2.0834
  108SAPE  H16Y11205   3.721   4.558   4.837 -0.2175 -1.6148 -0.6932
  108SAPE  C31711206   3.512   4.515   4.890 -0.5538 -1.0206  0.1399
  108SAPE  H17X11207   3.547   4.413   4.863  0.5167 -0.6353  0.0455
  108SAPE  H17Y11208   3.417   4.526   4.834  1.2574  3.3359 -2.5182
  108SAPE  C31811209   3.508   4.531   5.039 -0.3152  0.0811  0.8196
  108SAPE  H18X11210   3.461   4.441   5.084 -0.2313 -1.1766 -1.4349
  108SAPE  H18Y11211   3.460   4.628   5.060 -1.5169  0.4276 -2.7940
  108SAPE  H18Z11212   3.612   4.520   5.078 -0.5075  0.6060  1.4863
  109SAPE     N11213   6.345   0.847   2.563  0.6843 -0.1078 -0.2948
  109SAPE   HN111214   6.325   0.943   2.598  0.3058 -0.4783  0.5384
  109SAPE   HN211215   6.436   0.823   2.607  0.1819  2.0480  2.1913
  109SAPE   HN311216   6.351   0.851   2.459  2.0024 -0.8680 -0.2740
  109SAPE   C1211217   6.222   0.773   2.617  1.0332 -0.2444  0.3733
  109SAPE  H12A11218   6.247   0.665   2.609  0.3374 -0.3791 -0.0084
  109SAPE  H12B11219   6.137   0.807   2.555  3.1625  0.4447 -2.3841
  109SAPE   C1111220   6.197   0.814   2.766 -0.4708 -0.9013 -0.0850
  109SAPE  H11A11221   6.284   0.796   2.832 -0.3401  0.7667  0.2526
  109SAPE  H11B11222   6.120   0.743   2.803 -1.5088  0.3465  0.2376
  109SAPE     P11223   6.234   1.079   2.784  0.0515 -0.2401  0.0923
  109SAPE   O1311224   6.354   1.073   2.694  0.3944 -0.4254  0.7369
  109SAPE   O1411225   6.137   1.191   2.760 -0.0664 -0.0245  0.9536
  109SAPE   O1211226   6.146   0.947   2.779 -0.1581 -0.7740 -0.2256
  109SAPE   O1111227   6.287   1.087   2.932  0.7376 -0.5130  0.6391
  109SAPE    C111228   6.186   1.076   3.038  0.2003  0.3040  0.0909
  109SAPE    HA11229   6.120   1.165   3.047 -0.5797 -0.4093  1.9797
  109SAPE    HB11230   6.113   0.993   3.036 -2.4959  2.5119  0.2230
  109SAPE    C211231   6.262   1.055   3.168  0.2649 -1.3488  0.0400
  109SAPE    HS11232   6.190   1.085   3.247 -1.2777 -1.4550 -1.2936
  109SAPE   O2111233   6.385   1.133   3.172 -0.2564  0.0285 -0.5240
  109SAPE   C2111234   6.366   1.267   3.185 -0.6992 -0.7087 -0.1564
  109SAPE   O2211235   6.265   1.328   3.209 -0.6135  0.1596  0.2306
  109SAPE   C2211236   6.510   1.335   3.175  0.6361 -0.1344 -0.4135
  109SAPE   H2R11237   6.584   1.261   3.211 -0.5214 -1.8087 -1.3597
  109SAPE   H2S11238   6.511   1.369   3.069 -1.5298  1.9723  0.1400
  109SAPE    C311239   6.299   0.910   3.191 -0.1184  0.4714 -0.1838
  109SAPE    HX11240   6.397   0.896   3.140 -1.1663 -1.9830 -1.7279
  109SAPE    HY11241   6.225   0.842   3.143 -0.3046  1.4959 -1.3916
  109SAPE   O3111242   6.317   0.885   3.328  0.0407  0.3699  0.5364
  109SAPE   C3111243   6.351   0.764   3.363 -0.2530 -0.0523 -0.1976
  109SAPE   O3211244   6.358   0.669   3.279  0.6232 -0.3339 -0.3967
  109SAPE   C3211245   6.375   0.752   3.514  0.2768 -0.0713 -0.3655
  109SAPE   H2X11246   6.304   0.819   3.566 -0.0489  0.1920 -1.1254
  109SAPE   H2Y11247   6.473   0.801   3.530  1.3497 -1.8852 -1.0171
  109SAPE   C2311248   6.503   1.467   3.268  0.2562  0.6273 -0.1226
  109SAPE   H3R11249   6.415   1.521   3.227  1.2241  1.5196 -1.0790
  109SAPE   H3S11250   6.590   1.530   3.238  0.8405 -0.3220 -0.4865
  109SAPE   C2411251   6.500   1.440   3.421  0.0934 -0.1680  0.3846
  109SAPE   H4R11252   6.404   1.386   3.437 -0.1150 -0.4468 -1.6144
  109SAPE   H4S11253   6.477   1.530   3.482 -3.7164 -1.8222  1.7050
  109SAPE   C2511254   6.620   1.372   3.474  0.1257 -0.7136 -0.0897
  109SAPE   H5R11255   6.721   1.417   3.470  0.9452 -2.0531  2.5684
  109SAPE   C2611256   6.626   1.250   3.531  0.1434 -0.2895 -0.5510
  109SAPE   H6R11257   6.726   1.224   3.570 -0.2277 -0.6374  0.1835
  109SAPE   C2711258   6.522   1.143   3.551  0.1440  0.1542  0.3653
  109SAPE   H7R11259   6.566   1.044   3.578  0.6923 -0.1762 -1.5626
  109SAPE   H7S11260   6.484   1.111   3.452  0.2259  0.6363  0.1801
  109SAPE   C2811261   6.399   1.175   3.629  0.9041  0.2823 -0.9635
  109SAPE   H8R11262   6.313   1.225   3.583 -0.2376 -2.0212 -1.4622
  109SAPE   C2911263   6.378   1.149   3.760 -0.1149 -0.6556 -0.0120
  109SAPE   H9R11264   6.284   1.182   3.807  0.4130 -0.7023  1.1093
  109SAPE  C21011265   6.471   1.068   3.852 -0.5998 -0.4179 -0.9021
  109SAPE  H10R11266   6.558   1.022   3.801 -1.0466  0.6450 -2.7364
  109SAPE  H10S11267   6.415   0.986   3.902  1.6900 -0.4626  1.8791
  109SAPE  C21111268   6.540   1.151   3.959 -0.6475 -0.7017 -0.2079
  109SAPE  H11R11269   6.599   1.241   3.936 -0.7328 -0.6933 -0.4011
  109SAPE  C21211270   6.561   1.106   4.087  0.6288 -0.5317  0.5201
  109SAPE  H12R11271   6.616   1.170   4.158  0.4969 -1.1283  1.1644
  109SAPE  C21311272   6.510   0.973   4.140  0.7401  0.0056 -0.2729
  109SAPE  H13R11273   6.524   0.898   4.059  1.2606 -0.4537  0.2337
  109SAPE  H13S11274   6.400   0.977   4.158  0.6137 -0.7169 -0.8416
  109SAPE  C21411275   6.583   0.935   4.268  0.4723 -0.1072  0.5461
  109SAPE  H14R11276   6.657   0.855   4.252 -0.8674 -0.8469 -2.5984
  109SAPE  C21511277   6.557   0.988   4.389  0.9499 -0.0854  0.0073
  109SAPE  H15R11278   6.626   0.968   4.473  0.2437 -1.2489  0.3315
  109SAPE  C21611279   6.456   1.094   4.424  0.2594  0.1729  0.2958
  109SAPE  H16R11280   6.400   1.051   4.510  1.8417  1.1101  1.8684
  109SAPE  H16S11281   6.393   1.124   4.337  1.0132 -1.8147 -1.0048
  109SAPE  C21711282   6.523   1.224   4.459  0.2621 -0.3131  0.4709
  109SAPE  H17R11283   6.449   1.293   4.504  0.3497  0.4689 -0.5551
  109SAPE  H17S11284   6.570   1.277   4.374  0.5234  0.4249  1.0719
  109SAPE  C21811285   6.613   1.205   4.579  0.3712  0.6698 -0.3872
  109SAPE  H18R11286   6.710   1.160   4.547  0.9666 -0.1597  2.3260
  109SAPE  H18S11287   6.564   1.142   4.655  0.4149 -0.5620 -1.3380
  109SAPE  C21911288   6.647   1.336   4.656  0.4950 -0.3531 -0.7398
  109SAPE  H19R11289   6.551   1.383   4.687  0.1439 -0.8311 -1.0987
  109SAPE  H19S11290   6.682   1.401   4.573  0.5710 -1.7308 -1.8238
  109SAPE  C22011291   6.742   1.338   4.776  0.5244  0.0958  0.8994
  109SAPE  H20R11292   6.695   1.302   4.870 -2.2321  0.7381 -0.1488
  109SAPE  H20S11293   6.788   1.438   4.792 -0.0466  0.7404 -1.2282
  109SAPE  H20T11294   6.827   1.270   4.753  1.3320  1.7116 -1.1518
  109SAPE   C3311295   6.390   0.610   3.560 -0.2051  0.6128 -0.0520
  109SAPE   H3X11296   6.452   0.546   3.494  1.1722  0.5541  1.2559
  109SAPE   H3Y11297   6.289   0.563   3.568 -1.0005  1.9195 -1.7751
  109SAPE   C3411298   6.460   0.601   3.697 -0.5049  0.1849 -0.1704
  109SAPE   H4X11299   6.401   0.656   3.773  0.6485 -0.2864  1.1217
  109SAPE   H4Y11300   6.555   0.659   3.697 -1.4049  1.7191  0.8846
  109SAPE   C3511301   6.477   0.462   3.751 -0.6100 -0.1222 -0.4282
  109SAPE   H5X11302   6.550   0.409   3.686  0.5520 -2.1350  2.3176
  109SAPE   H5Y11303   6.381   0.406   3.749 -0.3073 -0.6410 -1.4914
  109SAPE   C3611304   6.548   0.456   3.894  0.3300  0.7903  0.4424
  109SAPE   H6X11305   6.659   0.461   3.885  0.5933 -1.3395  1.6508
  109SAPE   H6Y11306   6.535   0.354   3.935  0.8264  0.8562  0.7791
  109SAPE   C3711307   6.495   0.557   3.996  0.7075 -0.3286 -0.2704
  109SAPE   H7X11308   6.385   0.575   4.000  1.2052  3.4462 -0.0658
  109SAPE   H7Y11309   6.529   0.654   3.955 -0.6860 -0.2005 -1.2191
  109SAPE   C3811310   6.538   0.523   4.140  0.2720  0.6053  0.4661
  109SAPE   H8X11311   6.535   0.625   4.185 -0.4871  1.0772 -0.6153
  109SAPE   H8Y11312   6.640   0.478   4.139 -0.1069 -0.2894  1.0018
  109SAPE   C3911313   6.446   0.431   4.224 -0.2262 -0.0993  1.0041
  109SAPE   H9X11314   6.465   0.326   4.192  1.1480  0.3382  0.3037
  109SAPE   H9Y11315   6.342   0.458   4.194  0.5092  0.3336 -1.3767
  109SAPE  C31011316   6.448   0.451   4.378 -0.4083 -0.5199  0.1763
  109SAPE  H10X11317   6.426   0.556   4.409  1.2287 -0.4516  1.2043
  109SAPE  H10Y11318   6.548   0.420   4.415 -0.0684 -0.7268 -0.8880
  109SAPE  C31111319   6.350   0.358   4.443 -0.5908 -0.1554 -0.0989
  109SAPE  H11X11320   6.385   0.253   4.433 -1.2099 -0.3641 -0.1632
  109SAPE  H11Y11321   6.254   0.382   4.391  0.9522  0.8261 -2.6920
  109SAPE  C31211322   6.324   0.371   4.598  0.2634  0.1549  0.6397
  109SAPE  H12X11323   6.278   0.469   4.618 -0.4423  0.3421 -1.5734
  109SAPE  H12Y11324   6.422   0.359   4.649  0.0604  2.6943  1.7339
  109SAPE  C31311325   6.223   0.257   4.632  0.1596 -0.3996 -0.1675
  109SAPE  H13X11326   6.262   0.160   4.595  1.5710  0.3599 -0.7303
  109SAPE  H13Y11327   6.128   0.272   4.575  0.4910  2.2705 -0.1715
  109SAPE  C31411328   6.191   0.252   4.780  0.0215 -0.4678  0.2891
  109SAPE  H14X11329   6.133   0.336   4.823  0.5891  0.0402  0.0723
  109SAPE  H14Y11330   6.285   0.252   4.839 -1.1649 -1.5752  2.3111
  109SAPE  C31511331   6.106   0.130   4.831 -0.3170  0.2686 -0.2127
  109SAPE  H15X11332   6.168   0.040   4.812  2.1876  1.6988  0.7485
  109SAPE  H15Y11333   6.014   0.125   4.768 -0.6296  0.1277  0.2456
  109SAPE  C31611334   6.084   0.151   4.980 -0.0702  0.1422 -0.3256
  109SAPE  H16X11335   6.001   0.222   4.995  0.8194  0.9360  0.9694
  109SAPE  H16Y11336   6.173   0.199   5.025  1.0996  0.5902 -2.8982
  109SAPE  C31711337   6.037   0.029   5.055  0.9319  0.0579 -0.4349
  109SAPE  H17X11338   6.121  -0.042   5.072  2.3243  2.2685  2.7849
  109SAPE  H17Y11339   5.957  -0.024   4.999  1.3015 -2.0379  0.8942
  109SAPE  C31811340   5.990   0.063   5.195  0.0650  0.2166 -0.1641
  109SAPE  H18X11341   6.073   0.107   5.254  0.5636 -0.2620 -0.4870
  109SAPE  H18Y11342   5.959  -0.027   5.252  2.9863 -1.3221 -0.7607
  109SAPE  H18Z11343   5.899   0.126   5.199 -0.2751 -0.1055 -1.9554
  110SAPE     N11344   4.840   0.119   2.584 -0.1353  0.0414 -0.1983
  110SAPE   HN111345   4.881   0.114   2.488  0.8131 -1.7185  0.2538
  110SAPE   HN211346   4.899   0.074   2.657 -0.1380  1.6660  0.8487
  110SAPE   HN311347   4.744   0.081   2.592 -0.9695  2.2873  1.2571
  110SAPE   C1211348   4.817   0.265   2.619  0.4064 -0.0857  0.7157
  110SAPE  H12A11349   4.737   0.307   2.555  0.9615  0.1295  0.1455
  110SAPE  H12B11350   4.903   0.326   2.584 -0.7749  0.8747 -0.6388
  110SAPE   C1111351   4.775   0.281   2.762  0.3490  0.2517  0.5546
  110SAPE  H11A11352   4.843   0.244   2.842 -0.1344  1.1954  1.4256
  110SAPE  H11B11353   4.680   0.226   2.772 -0.7837  1.4182 -2.5195
  110SAPE     P11354   4.863   0.509   2.866 -0.0788 -0.4939 -0.0809
  110SAPE   O1311355   4.998   0.472   2.829 -0.2797 -1.0381 -0.0100
  110SAPE   O1411356   4.824   0.655   2.848 -0.5015  0.2720 -0.1317
  110SAPE   O1211357   4.753   0.425   2.790 -0.3214 -0.0805  0.9278
  110SAPE   O1111358   4.839   0.477   3.018 -0.1789  0.5604 -0.1729
  110SAPE    C111359   4.803   0.351   3.072 -0.7504  0.0876  0.1938
  110SAPE    HA11360   4.701   0.324   3.038 -0.4808 -1.8833  0.7784
  110SAPE    HB11361   4.876   0.270   3.046  0.1855  0.6481  0.9900
  110SAPE    C211362   4.813   0.353   3.228  0.4985 -0.3320  0.3734
  110SAPE    HS11363   4.748   0.437   3.262 -0.8519 -0.8862 -0.7595
  110SAPE   O2111364   4.954   0.371   3.265 -0.5527 -0.2017  0.0706
  110SAPE   C2111365   4.985   0.376   3.392 -0.4444 -0.5142  0.0261
  110SAPE   O2211366   4.906   0.384   3.483 -0.2531  0.6186 -0.0062
  110SAPE   C2211367   5.136   0.373   3.408 -0.0830  0.2706 -1.0549
  110SAPE   H2R11368   5.175   0.300   3.334 -0.0755 -1.9617  1.0170
  110SAPE   H2S11369   5.180   0.473   3.386  0.8415 -0.2471 -1.5864
  110SAPE    C311370   4.754   0.219   3.281 -0.3755  0.3911  0.4005
  110SAPE    HX11371   4.721   0.238   3.385 -0.6023  0.1208  0.3792
  110SAPE    HY11372   4.670   0.190   3.215  0.4232 -1.7187  0.2005
  110SAPE   O3111373   4.865   0.118   3.278  0.4165  0.5630 -0.4795
  110SAPE   C3111374   4.824  -0.005   3.268  0.0584  0.0443  0.3832
  110SAPE   O3211375   4.710  -0.043   3.258  0.5027 -0.0412  0.2827
  110SAPE   C3211376   4.948  -0.095   3.279  0.4009 -0.1399 -0.1602
  110SAPE   H2X11377   5.017  -0.038   3.345  0.3901 -0.3666  0.0484
  110SAPE   H2Y11378   4.991  -0.079   3.177 -0.2838  0.3325 -0.3811
  110SAPE   C2311379   5.178   0.334   3.554  0.9528 -0.2098  1.1616
  110SAPE   H3R11380   5.123   0.402   3.623 -3.5957 -0.8580 -1.3765
  110SAPE   H3S11381   5.284   0.360   3.572  1.2985  0.3195 -1.3077
  110SAPE   C2411382   5.137   0.196   3.598  0.0128 -0.1150  0.5454
  110SAPE   H4R11383   5.026   0.193   3.594  0.0678 -1.2779 -0.7991
  110SAPE   H4S11384   5.153   0.198   3.708 -1.0034 -0.5281  0.7176
  110SAPE   C2511385   5.210   0.083   3.521  0.5265 -0.1283 -0.6225
  110SAPE   H5R11386   5.204   0.090   3.412 -2.7652  0.3812 -0.5118
  110SAPE   C2611387   5.268  -0.022   3.592 -0.4008  0.0107 -0.2349
  110SAPE   H6R11388   5.324  -0.100   3.540 -2.2516 -0.3295 -1.8256
  110SAPE   C2711389   5.281  -0.045   3.737 -0.1616  0.7649 -0.0094
  110SAPE   H7R11390   5.322  -0.149   3.743 -3.1252 -0.6072 -1.5642
  110SAPE   H7S11391   5.186  -0.049   3.794  0.3463  1.8396  0.9409
  110SAPE   C2811392   5.374   0.062   3.785  0.1503 -0.3399 -0.0648
  110SAPE   H8R11393   5.435   0.118   3.712 -1.3459  0.4533 -0.7405
  110SAPE   C2911394   5.397   0.086   3.916 -0.1077  0.9905  0.3103
  110SAPE   H9R11395   5.468   0.170   3.929 -0.2262  1.3203 -0.9877
  110SAPE  C21011396   5.325   0.022   4.033  0.4165  0.1934  0.2583
  110SAPE  H10R11397   5.218   0.003   4.011  0.4842  0.7674 -0.5920
  110SAPE  H10S11398   5.328   0.088   4.123  0.4396  0.1278  0.3064
  110SAPE  C21111399   5.380  -0.115   4.063  0.4811  0.0332 -0.7762
  110SAPE  H11R11400   5.375  -0.172   3.969 -2.6538  1.1168 -1.3985
  110SAPE  C21211401   5.418  -0.168   4.177 -0.2841 -0.1367  0.3965
  110SAPE  H12R11402   5.444  -0.275   4.170 -2.9218 -0.7958 -1.3182
  110SAPE  C21311403   5.441  -0.103   4.313  0.0330 -0.4295 -0.1645
  110SAPE  H13R11404   5.355  -0.118   4.382 -1.0817  0.8442 -1.2243
  110SAPE  H13S11405   5.467   0.004   4.299  1.5819 -0.3813  2.2919
  110SAPE  C21411406   5.557  -0.177   4.367  0.0040 -0.3353  0.0050
  110SAPE  H14R11407   5.656  -0.140   4.334  0.3865  0.5241  1.9701
  110SAPE  C21511408   5.553  -0.268   4.464 -0.3634  0.8220  0.3196
  110SAPE  H15R11409   5.646  -0.319   4.493 -1.6414 -0.2083  2.8678
  110SAPE  C21611410   5.431  -0.324   4.528 -0.6059 -0.7373 -0.1028
  110SAPE  H16R11411   5.378  -0.376   4.446  0.4390  0.7659 -1.8049
  110SAPE  H16S11412   5.374  -0.239   4.571 -0.8083 -0.4009 -1.0042
  110SAPE  C21711413   5.466  -0.442   4.616 -0.5890 -0.3633 -1.2737
  110SAPE  H17R11414   5.527  -0.516   4.559 -0.2174 -0.6637 -0.4899
  110SAPE  H17S11415   5.382  -0.507   4.649 -0.3375  0.4368  1.0610
  110SAPE  C21811416   5.533  -0.398   4.747 -0.3185 -0.7023  0.3665
  110SAPE  H18R11417   5.471  -0.322   4.799 -1.4469 -0.4258 -1.3223
  110SAPE  H18S11418   5.629  -0.347   4.728 -0.9625  0.7985  0.9729
  110SAPE  C21911419   5.541  -0.515   4.846  0.2473  0.4110 -0.0618
  110SAPE  H19R11420   5.567  -0.616   4.807  3.4335 -0.2197  3.1878
  110SAPE  H19S11421   5.443  -0.535   4.895 -0.4877 -0.1699 -1.7148
  110SAPE  C22011422   5.643  -0.500   4.966 -0.7573  0.3547  0.2649
  110SAPE  H20R11423   5.659  -0.593   5.026 -2.7698  0.2223  0.6374
  110SAPE  H20S11424   5.620  -0.412   5.028  2.8421  2.3675 -0.9371
  110SAPE  H20T11425   5.745  -0.480   4.925 -1.1975  2.4275  0.0751
  110SAPE   C3311426   4.918  -0.242   3.323  0.0501 -0.1353 -0.3546
  110SAPE   H3X11427   5.006  -0.310   3.330 -0.3479 -0.6675 -0.4140
  110SAPE   H3Y11428   4.851  -0.285   3.245 -1.9425 -0.8295  1.6020
  110SAPE   C3411429   4.841  -0.272   3.456 -0.1326 -0.4319 -0.3233
  110SAPE   H4X11430   4.817  -0.380   3.451  0.1786 -0.5819  1.0877
  110SAPE   H4Y11431   4.743  -0.222   3.471 -0.5118 -1.6489  1.6139
  110SAPE   C3511432   4.924  -0.224   3.575  0.9776 -0.1008  0.5481
  110SAPE   H5X11433   4.941  -0.114   3.566 -2.6462  0.3918 -2.4146
  110SAPE   H5Y11434   5.023  -0.274   3.575  0.7813 -0.4967  0.0549
  110SAPE   C3611435   4.861  -0.258   3.708  0.1067 -0.3509 -0.0815
  110SAPE   H6X11436   4.856  -0.369   3.708  0.4271 -0.3936 -2.0388
  110SAPE   H6Y11437   4.761  -0.211   3.712  0.5702  0.8645 -1.6936
  110SAPE   C3711438   4.946  -0.210   3.833 -1.1006  0.0358  0.6122
  110SAPE   H7X11439   4.950  -0.099   3.838 -0.6530  0.1724 -1.6755
  110SAPE   H7Y11440   5.051  -0.243   3.814 -1.5475  0.2736 -2.9868
  110SAPE   C3811441   4.910  -0.279   3.965  0.2857 -0.1993 -0.0376
  110SAPE   H8X11442   4.914  -0.390   3.957 -2.1354 -0.4742  1.4447
  110SAPE   H8Y11443   4.799  -0.274   3.975  0.5660  1.7115  3.2056
  110SAPE   C3911444   4.985  -0.225   4.086 -0.4628 -0.0908 -0.0560
  110SAPE   H9X11445   4.977  -0.114   4.092  2.3133  0.2071 -0.2955
  110SAPE   H9Y11446   5.093  -0.247   4.068  1.0694  4.5223  1.8244
  110SAPE  C31011447   4.938  -0.268   4.227 -0.0352  0.0164  0.0079
  110SAPE  H10X11448   4.953  -0.377   4.245 -0.5492 -0.2142 -0.8790
  110SAPE  H10Y11449   4.828  -0.258   4.238 -0.1735 -1.4390  0.2752
  110SAPE  C31111450   5.007  -0.192   4.343  0.1109 -0.8226 -0.8906
  110SAPE  H11X11451   4.984  -0.085   4.326  0.0358 -0.9434 -1.6004
  110SAPE  H11Y11452   5.116  -0.210   4.332  0.3050  0.2865 -0.8290
  110SAPE  C31211453   4.956  -0.242   4.483 -0.1015 -0.4993  0.3523
  110SAPE  H12X11454   4.959  -0.353   4.477 -1.1598 -0.4891 -0.6556
  110SAPE  H12Y11455   4.849  -0.215   4.494  0.1759 -0.0467  2.4352
  110SAPE  C31311456   5.037  -0.194   4.601 -0.1262  0.5166 -0.4674
  110SAPE  H13X11457   5.021  -0.087   4.623  1.2259  0.4255  1.0795
  110SAPE  H13Y11458   5.144  -0.209   4.576 -0.4115 -0.2289 -1.3270
  110SAPE  C31411459   5.012  -0.278   4.736 -0.1301  0.2683  1.0058
  110SAPE  H14X11460   4.903  -0.297   4.747 -0.1911  0.0675  0.1302
  110SAPE  H14Y11461   5.062  -0.208   4.806 -1.3845  1.8245  0.4123
  110SAPE  C31511462   5.080  -0.419   4.735  0.0641 -0.4344 -0.2284
  110SAPE  H15X11463   5.190  -0.401   4.735 -0.3196  2.4031 -1.0941
  110SAPE  H15Y11464   5.037  -0.469   4.645  1.0224 -0.8406 -0.4723
  110SAPE  C31611465   5.059  -0.506   4.862  0.5697 -0.0261  0.2676
  110SAPE  H16X11466   5.104  -0.607   4.873 -3.0467 -1.9748 -1.0767
  110SAPE  H16Y11467   4.950  -0.529   4.857  0.7515 -0.6400 -2.0472
  110SAPE  C31711468   5.088  -0.439   5.002  0.5085 -0.1923  0.5048
  110SAPE  H17X11469   5.038  -0.340   5.003 -0.3913 -0.6291  0.0429
  110SAPE  H17Y11470   5.198  -0.422   5.011  0.5454  0.2277 -0.5516
  110SAPE  C31811471   5.039  -0.520   5.120  0.7649  0.3869 -0.3089
  110SAPE  H18X11472   5.076  -0.492   5.221 -2.0020  2.1763  0.3340
  110SAPE  H18Y11473   5.050  -0.630   5.107 -2.6604 -0.1058  0.0024
  110SAPE  H18Z11474   4.929  -0.512   5.136  0.8446 -0.1376  0.5860
  111SAPE     N11475   4.784   1.452   3.022  0.2644  0.1138  0.7218
  111SAPE   HN111476   4.753   1.541   2.977 -1.2021 -0.3763  0.7107
  111SAPE   HN211477   4.771   1.441   3.124  1.2883 -0.8136  0.7779
  111SAPE   HN311478   4.887   1.442   3.005  0.0060  1.5324 -2.3470
  111SAPE   C1211479   4.726   1.332   2.948 -0.5495  0.2022 -0.0299
  111SAPE  H12A11480   4.777   1.244   2.993 -0.8730 -0.0396 -0.1318
  111SAPE  H12B11481   4.745   1.338   2.838 -0.5770  3.5690  0.0530
  111SAPE   C1111482   4.573   1.325   2.979 -0.6191 -0.1074  0.3290
  111SAPE  H11A11483   4.523   1.411   2.929 -2.3142 -1.0768  0.2666
  111SAPE  H11B11484   4.564   1.327   3.089 -2.3725 -0.9956  0.2433
  111SAPE     P11485   4.564   1.058   2.942 -0.6306 -0.2169  0.0421
  111SAPE   O1311486   4.442   0.980   2.934 -0.4210 -0.0854  0.7244
  111SAPE   O1411487   4.674   1.043   2.841  0.5949 -0.0528  0.5492
  111SAPE   O1211488   4.515   1.210   2.937 -0.3444  0.1646  0.0152
  111SAPE   O1111489   4.630   1.049   3.091 -0.0526 -0.4526  0.6259
  111SAPE    C111490   4.732   0.955   3.128  0.2338 -0.7650  0.7853
  111SAPE    HA11491   4.683   0.858   3.101 -1.4015  0.6114 -1.6261
  111SAPE    HB11492   4.824   0.982   3.071  0.2408 -2.1271  0.0934
  111SAPE    C211493   4.780   0.973   3.274  0.4598  0.2644 -0.0806
  111SAPE    HS11494   4.877   0.919   3.282 -0.3582 -1.3084 -0.3698
  111SAPE   O2111495   4.677   0.922   3.362  0.2881 -0.5682 -0.7190
  111SAPE   C2111496   4.673   0.788   3.355  0.1215  0.1034 -0.2683
  111SAPE   O2211497   4.760   0.715   3.308 -0.9017  0.4964  0.0268
  111SAPE   C2211498   4.561   0.743   3.446 -0.0334  0.3036 -0.6817
  111SAPE   H2R11499   4.515   0.832   3.494 -0.2696  1.3388 -2.7022
  111SAPE   H2S11500   4.489   0.680   3.389 -1.3041  2.2658 -1.3499
  111SAPE    C311501   4.792   1.127   3.312 -0.0478  0.1408 -0.5840
  111SAPE    HX11502   4.689   1.168   3.312  0.5695  1.7354 -0.4154
  111SAPE    HY11503   4.849   1.170   3.227 -0.9761  0.2704 -1.1568
  111SAPE   O3111504   4.866   1.138   3.433  0.0457  0.1885  0.1146
  111SAPE   C3111505   4.804   1.171   3.548 -0.7653 -0.1806  0.3563
  111SAPE   O3211506   4.693   1.215   3.555 -0.0795  0.2773 -0.5446
  111SAPE   C3211507   4.904   1.174   3.662 -0.1356 -0.2080 -0.0103
  111SAPE   H2X11508   4.967   1.265   3.659 -0.8861  0.3466  0.8340
  111SAPE   H2Y11509   4.955   1.075   3.658 -1.0026 -0.7371  1.4522
  111SAPE   C2311510   4.609   0.636   3.555 -0.2194 -0.2542  0.2730
  111SAPE   H3R11511   4.651   0.547   3.503 -0.3036 -0.7589  1.0385
  111SAPE   H3S11512   4.511   0.616   3.602 -1.6802 -0.4299 -2.6569
  111SAPE   C2411513   4.712   0.690   3.654 -0.1449 -0.0082  0.1744
  111SAPE   H4R11514   4.677   0.787   3.695 -1.3698 -0.2685 -0.1824
  111SAPE   H4S11515   4.806   0.701   3.596 -0.9328  0.0815 -1.1300
  111SAPE   C2511516   4.743   0.592   3.762  0.0875  0.2658  0.2473
  111SAPE   H5R11517   4.782   0.494   3.730  0.5300  0.4512  0.2175
  111SAPE   C2611518   4.707   0.598   3.892 -0.4999  0.2133  0.4818
  111SAPE   H6R11519   4.727   0.517   3.964  0.7794 -0.0766 -0.1729
  111SAPE   C2711520   4.653   0.708   3.976  0.3432 -0.6846 -0.1508
  111SAPE   H7R11521   4.591   0.664   4.057 -2.4268 -0.5141 -2.0404
  111SAPE   H7S11522   4.594   0.772   3.906  0.2063  0.0512  0.6237
  111SAPE   C2811523   4.772   0.788   4.023  0.6043  0.2081  0.1282
  111SAPE   H8R11524   4.834   0.830   3.943 -1.0375  0.1838 -1.2269
  111SAPE   C2911525   4.822   0.796   4.146 -0.5721  0.4030  0.0728
  111SAPE   H9R11526   4.924   0.834   4.161 -1.6096  2.0547  4.2243
  111SAPE  C21011527   4.771   0.731   4.273  0.6928 -0.0043 -0.0118
  111SAPE  H10R11528   4.697   0.649   4.259  2.7462 -2.2106  1.1381
  111SAPE  H10S11529   4.720   0.809   4.334 -1.4015  0.0015 -1.6442
  111SAPE  C21111530   4.879   0.653   4.357  0.7120 -0.3562  0.4517
  111SAPE  H11R11531   4.960   0.623   4.289  1.7276  0.3085  1.3330
  111SAPE  C21211532   4.861   0.608   4.479  0.0700  0.1456  0.0421
  111SAPE  H12R11533   4.951   0.558   4.519 -0.0787 -0.7042 -0.6529
  111SAPE  C21311534   4.742   0.631   4.574  0.0488  0.6054 -0.2966
  111SAPE  H13R11535   4.645   0.666   4.535 -1.4419 -3.3851 -0.6745
  111SAPE  H13S11536   4.766   0.705   4.653 -0.2191  1.6219 -1.1530
  111SAPE  C21411537   4.697   0.498   4.650  0.2979 -0.7053 -0.6597
  111SAPE  H14R11538   4.649   0.425   4.583 -0.3572 -1.5948  0.7426
  111SAPE  C21511539   4.731   0.461   4.775  0.7258  0.9122  0.2362
  111SAPE  H15R11540   4.683   0.371   4.818  2.8422  0.8987  2.8541
  111SAPE  C21611541   4.803   0.541   4.876  0.6478 -1.0648 -0.6316
  111SAPE  H16R11542   4.749   0.536   4.973 -0.1495  1.4967 -0.8572
  111SAPE  H16S11543   4.813   0.650   4.857  0.3972 -1.0589 -0.7455
  111SAPE  C21711544   4.946   0.486   4.904 -0.1715  0.0908 -0.2578
  111SAPE  H17R11545   4.997   0.499   4.806  0.2631  0.0150 -0.0444
  111SAPE  H17S11546   4.939   0.379   4.930  0.6045 -0.0348 -0.5539
  111SAPE  C21811547   5.014   0.572   5.018 -0.6902 -0.5120  0.0419
  111SAPE  H18R11548   4.937   0.585   5.098  1.1880  2.4023  1.5843
  111SAPE  H18S11549   5.013   0.678   4.984  2.0488 -0.3446  0.2744
  111SAPE  C21911550   5.149   0.525   5.057  0.1538 -0.3353  0.3066
  111SAPE  H19R11551   5.200   0.496   4.962 -1.6919 -1.9399 -0.2495
  111SAPE  H19S11552   5.132   0.442   5.129 -0.5636  0.0256  0.5559
  111SAPE  C22011553   5.232   0.636   5.138 -0.3625 -0.0354 -0.6410
  111SAPE  H20R11554   5.310   0.583   5.197 -1.9574 -2.1528 -0.3005
  111SAPE  H20S11555   5.174   0.702   5.206  2.4074  0.0875  1.7851
  111SAPE  H20T11556   5.269   0.706   5.060 -2.2859  1.3214 -0.4076
  111SAPE   C3311557   4.830   1.179   3.797  0.5030 -0.0336  0.6554
  111SAPE   H3X11558   4.742   1.111   3.789  0.1819  0.4947 -0.4251
  111SAPE   H3Y11559   4.789   1.280   3.819  3.2191  0.7865  2.4590
  111SAPE   C3411560   4.915   1.133   3.917 -0.5082  0.2125 -0.1352
  111SAPE   H4X11561   5.002   1.201   3.923  1.1760 -1.8929  0.3041
  111SAPE   H4Y11562   4.965   1.036   3.897  0.6084  0.5309  0.9904
  111SAPE   C3511563   4.859   1.148   4.059  0.1472 -0.6955 -0.4971
  111SAPE   H5X11564   4.775   1.076   4.065  0.5061 -1.1768 -1.0912
  111SAPE   H5Y11565   4.815   1.250   4.065 -0.5832 -0.9185 -1.6700
  111SAPE   C3611566   4.969   1.131   4.169  0.6246  0.0261 -0.1149
  111SAPE   H6X11567   5.064   1.180   4.140  0.4591 -1.1992 -3.1682
  111SAPE   H6Y11568   4.997   1.024   4.177  1.6846  0.3067  0.0785
  111SAPE   C3711569   4.928   1.192   4.306 -0.2521 -0.2320 -0.4134
  111SAPE   H7X11570   4.831   1.149   4.341  0.5783 -1.7139  0.1471
  111SAPE   H7Y11571   4.919   1.302   4.307  0.1633 -0.1968  0.8331
  111SAPE   C3811572   5.039   1.150   4.403 -0.3329  0.5933  0.2304
  111SAPE   H8X11573   5.139   1.185   4.367 -0.6455  2.2379  0.8507
  111SAPE   H8Y11574   5.052   1.040   4.414  2.3470  1.0782  3.8001
  111SAPE   C3911575   5.019   1.209   4.545 -0.1771 -0.7905  0.1826
  111SAPE   H9X11576   4.972   1.309   4.539 -1.0051 -0.6370  4.9291
  111SAPE   H9Y11577   5.113   1.231   4.601 -0.3902  0.7369 -0.0138
  111SAPE  C31011578   4.942   1.104   4.635  0.0063 -0.2252 -0.3030
  111SAPE  H10X11579   4.861   1.061   4.573 -0.3744  1.1674 -0.8056
  111SAPE  H10Y11580   4.892   1.155   4.720  0.0846  0.2455 -0.5395
  111SAPE  C31111581   5.041   1.008   4.706 -0.1451 -0.5479  0.0107
  111SAPE  H11X11582   5.114   1.064   4.769  0.6533  0.9735 -2.1271
  111SAPE  H11Y11583   5.105   0.961   4.628  3.7321  2.4556  1.0487
  111SAPE  C31211584   4.966   0.890   4.781 -0.7743 -0.3928  0.1650
  111SAPE  H12X11585   5.048   0.838   4.835 -1.4679 -1.9703 -0.2136
  111SAPE  H12Y11586   4.924   0.826   4.700 -0.8408  0.0610 -0.1652
  111SAPE  C31311587   4.868   0.940   4.886  0.5845 -0.4368 -0.6569
  111SAPE  H13X11588   4.823   0.867   4.956  0.6855 -0.4530 -0.6084
  111SAPE  H13Y11589   4.779   0.983   4.835 -0.1828 -0.1219  0.8917
  111SAPE  C31411590   4.928   1.045   4.990  0.2482  0.6637  0.4616
  111SAPE  H14X11591   4.843   1.078   5.054  1.5556  0.8275  2.1888
  111SAPE  H14Y11592   4.965   1.140   4.946  0.8652 -0.0165 -0.4997
  111SAPE  C31511593   5.030   0.982   5.086  0.4560 -0.1616 -0.3175
  111SAPE  H15X11594   5.111   0.920   5.042  0.4125 -0.4782  0.0453
  111SAPE  H15Y11595   4.965   0.916   5.147  1.0644  0.3902  0.9766
  111SAPE  C31611596   5.104   1.067   5.180  0.4049 -0.5298 -1.1637
  111SAPE  H16X11597   5.027   1.126   5.234  0.4210 -0.1117 -1.5939
  111SAPE  H16Y11598   5.175   1.138   5.132 -0.7182  1.2642 -0.2938
  111SAPE  C31711599   5.170   0.981   5.284  0.4741  0.0641 -0.6926
  111SAPE  H17X11600   5.250   0.930   5.226  0.7165  0.9727 -1.1629
  111SAPE  H17Y11601   5.098   0.911   5.332 -0.7731  2.1056  0.5435
  111SAPE  C31811602   5.232   1.057   5.401 -0.9790  0.6478  0.3736
  111SAPE  H18X11603   5.308   1.120   5.349  0.2369 -1.4346 -0.5185
  111SAPE  H18Y11604   5.286   0.992   5.472  1.1954  0.2438 -1.5176
  111SAPE  H18Z11605   5.167   1.124   5.460 -1.1426 -0.1574  1.1259
  112SAPE     N11606   2.844   1.535   2.852  0.6034  0.8857 -0.1205
  112SAPE   HN111607   2.910   1.606   2.890 -1.0125  1.0349  2.6600
  112SAPE   HN211608   2.799   1.491   2.935 -0.2024  0.3131 -0.8420
  112SAPE   HN311609   2.888   1.464   2.789 -0.8685 -0.1571 -0.0147
  112SAPE   C1211610   2.751   1.626   2.784 -0.5105 -0.4055 -0.4417
  112SAPE  H12A11611   2.684   1.563   2.721  0.2956  1.0772 -2.9176
  112SAPE  H12B11612   2.806   1.689   2.712 -0.4486  0.4030  0.2916
  112SAPE   C1111613   2.659   1.689   2.887  0.4171 -0.2640 -0.3243
  112SAPE  H11A11614   2.585   1.745   2.825 -0.1110 -0.1063  0.4369
  112SAPE  H11B11615   2.710   1.766   2.949 -2.3261  0.9448  0.5905
  112SAPE     P11616   2.442   1.607   3.012  0.1220 -0.1430  0.2185
  112SAPE   O1311617   2.365   1.661   2.903 -0.1611 -0.1668  0.4864
  112SAPE   O1411618   2.402   1.475   3.061  0.3048  0.4696  0.5240
  112SAPE   O1211619   2.595   1.595   2.972 -0.2303  0.1133 -0.2627
  112SAPE   O1111620   2.441   1.707   3.127 -0.1548  0.2449 -0.1128
  112SAPE    C111621   2.538   1.720   3.222 -0.0460  0.0131 -1.2694
  112SAPE    HA11622   2.638   1.695   3.179 -0.7153 -0.7043 -2.4600
  112SAPE    HB11623   2.546   1.825   3.256  2.6498 -0.7864  0.9627
  112SAPE    C211624   2.518   1.635   3.350  1.2863 -0.1683 -0.5009
  112SAPE    HS11625   2.418   1.590   3.334  0.9152  1.0665 -1.9117
  112SAPE   O2111626   2.528   1.704   3.478 -0.0927  0.4694  0.2859
  112SAPE   C2111627   2.443   1.804   3.499  0.4046  0.8203 -0.1066
  112SAPE   O2211628   2.352   1.832   3.424  0.0588 -0.3927 -0.7218
  112SAPE   C2211629   2.475   1.868   3.631 -0.2116 -0.2009 -0.4831
  112SAPE   H2R11630   2.581   1.848   3.658  0.3694  0.5794 -2.0273
  112SAPE   H2S11631   2.468   1.979   3.624 -1.4799 -0.2739 -0.5768
  112SAPE    C311632   2.617   1.514   3.342  0.9345 -0.5695 -0.1324
  112SAPE    HX11633   2.724   1.543   3.341  0.7532  0.2394  1.5891
  112SAPE    HY11634   2.591   1.468   3.244 -0.8581  1.1986 -0.5446
  112SAPE   O3111635   2.581   1.425   3.445 -0.3095 -0.2984  0.0447
  112SAPE   C3111636   2.670   1.395   3.532 -0.4965 -0.2407  0.2666
  112SAPE   O3211637   2.787   1.439   3.541  0.2556  0.3874  0.1000
  112SAPE   C3211638   2.620   1.292   3.631 -0.1035 -0.2099  0.8006
  112SAPE   H2X11639   2.679   1.199   3.621 -1.0627 -0.6640 -0.8943
  112SAPE   H2Y11640   2.510   1.280   3.630 -0.5304  2.7614  0.5873
  112SAPE   C2311641   2.387   1.800   3.738  0.2419 -0.6689 -0.0485
  112SAPE   H3R11642   2.395   1.689   3.740 -0.9562 -0.7631  0.2927
  112SAPE   H3S11643   2.282   1.819   3.708  0.0421 -1.2063  0.2862
  112SAPE   C2411644   2.420   1.856   3.874  0.5622  0.6891 -0.8106
  112SAPE   H4R11645   2.415   1.967   3.872 -2.1406  0.6568  0.1890
  112SAPE   H4S11646   2.516   1.823   3.919  0.2663 -0.9825 -1.3190
  112SAPE   C2511647   2.297   1.811   3.958 -0.3004 -0.4587  0.7079
  112SAPE   H5R11648   2.207   1.792   3.899 -2.6418 -1.3684  4.2449
  112SAPE   C2611649   2.289   1.788   4.093  0.2524 -0.1850 -0.8839
  112SAPE   H6R11650   2.195   1.739   4.125  0.3701 -0.4459 -0.9350
  112SAPE   C2711651   2.383   1.789   4.203  0.2193 -0.4850  0.4651
  112SAPE   H7R11652   2.341   1.832   4.297  1.6326 -0.8846  1.3168
  112SAPE   H7S11653   2.467   1.856   4.174  3.2346 -3.5770  1.3857
  112SAPE   C2811654   2.476   1.669   4.224 -0.0149  0.7328  0.5574
  112SAPE   H8R11655   2.529   1.639   4.133  1.8699  2.0448  1.1593
  112SAPE   C2911656   2.505   1.613   4.337 -0.4070 -0.1561  0.2108
  112SAPE   H9R11657   2.589   1.543   4.349  0.5082  1.3158  3.2704
  112SAPE  C21011658   2.439   1.654   4.462  0.3978 -0.5600 -0.5017
  112SAPE  H10R11659   2.435   1.562   4.524  1.1742 -0.6604 -0.5859
  112SAPE  H10S11660   2.332   1.684   4.459  0.5816  0.2064  0.3100
  112SAPE  C21111661   2.514   1.762   4.529 -0.1341 -0.0368  0.0791
  112SAPE  H11R11662   2.624   1.768   4.517  0.3011 -1.1431  2.7154
  112SAPE  C21211663   2.471   1.855   4.611  0.3915 -0.3048 -0.3071
  112SAPE  H12R11664   2.546   1.917   4.662 -0.4005 -0.2471  0.8466
  112SAPE  C21311665   2.336   1.871   4.670 -1.1573  0.9017  0.0350
  112SAPE  H13R11666   2.261   1.848   4.592 -1.7566  1.7460  0.3500
  112SAPE  H13S11667   2.316   1.973   4.708 -0.7874  0.3804  1.7351
  112SAPE  C21411668   2.310   1.761   4.773  0.5760  0.3418 -0.0473
  112SAPE  H14R11669   2.306   1.660   4.729  3.0850 -0.2024  0.8256
  112SAPE  C21511670   2.296   1.778   4.904  0.3450  0.3217 -0.2705
  112SAPE  H15R11671   2.267   1.685   4.956  2.5358 -1.1190 -1.4603
  112SAPE  C21611672   2.318   1.898   4.987 -0.0561 -0.4476  0.2285
  112SAPE  H16R11673   2.220   1.949   4.995 -0.1996 -0.7157  0.1944
  112SAPE  H16S11674   2.396   1.968   4.950 -1.3774  1.3616  0.7347
  112SAPE  C21711675   2.361   1.859   5.140 -0.9279  0.2342  0.0444
  112SAPE  H17R11676   2.450   1.792   5.137  0.6095  2.2288 -1.5604
  112SAPE  H17S11677   2.281   1.788   5.169 -2.0497  1.6780  0.5949
  112SAPE  C21811678   2.373   1.973   5.236 -0.1269 -0.0797  0.2442
  112SAPE  H18R11679   2.270   2.015   5.239 -0.7926 -1.5415 -0.7942
  112SAPE  H18S11680   2.442   2.051   5.200 -1.3423  0.6314 -0.5955
  112SAPE  C21911681   2.407   1.936   5.378  0.2634 -0.2110 -0.4035
  112SAPE  H19R11682   2.308   1.907   5.418 -0.2868  0.7825 -1.0080
  112SAPE  H19S11683   2.447   2.021   5.437  0.8490 -2.1109  2.1322
  112SAPE  C22011684   2.516   1.838   5.398 -0.5904 -0.3625 -0.0031
  112SAPE  H20R11685   2.608   1.860   5.340 -1.9840  0.2436 -2.0671
  112SAPE  H20S11686   2.478   1.741   5.360 -0.8500  0.1733 -1.1388
  112SAPE  H20T11687   2.538   1.824   5.506  1.4230 -0.5023 -0.4015
  112SAPE   C3311688   2.646   1.345   3.775 -0.3287 -0.2969 -0.0326
  112SAPE   H3X11689   2.601   1.446   3.788 -0.6534 -0.1883 -1.7723
  112SAPE   H3Y11690   2.757   1.346   3.781 -0.3117 -0.9781 -0.1831
  112SAPE   C3411691   2.605   1.253   3.883 -0.1993  0.1420 -0.0064
  112SAPE   H4X11692   2.650   1.152   3.866  2.1918  0.7951  1.8352
  112SAPE   H4Y11693   2.495   1.246   3.893 -0.1790  0.1859  0.2696
  112SAPE   C3511694   2.670   1.287   4.019 -0.4792  0.1393  1.1599
  112SAPE   H5X11695   2.694   1.395   4.012  0.4695 -0.1828 -1.4879
  112SAPE   H5Y11696   2.767   1.237   4.038 -1.0035 -1.0260  0.8609
  112SAPE   C3611697   2.583   1.234   4.136 -0.0851 -1.0929  0.6940
  112SAPE   H6X11698   2.559   1.129   4.110 -0.9738 -0.6580 -0.3460
  112SAPE   H6Y11699   2.484   1.286   4.134  1.3231  1.7813  0.1753
  112SAPE   C3711700   2.653   1.251   4.270  0.4994  0.0990 -0.4496
  112SAPE   H7X11701   2.693   1.354   4.264 -0.5950  0.6626  1.1763
  112SAPE   H7Y11702   2.747   1.192   4.265  0.9615  0.7545  0.2858
  112SAPE   C3811703   2.563   1.227   4.388 -0.3375  0.7125 -0.4340
  112SAPE   H8X11704   2.512   1.128   4.394 -2.1668  1.6895  1.8554
  112SAPE   H8Y11705   2.484   1.305   4.389 -1.7406 -0.6458 -0.6096
  112SAPE   C3911706   2.650   1.239   4.518 -0.2205  0.6704 -0.0937
  112SAPE   H9X11707   2.707   1.333   4.508  0.3034  0.6713  2.2211
  112SAPE   H9Y11708   2.723   1.155   4.526 -0.5957  0.4439  1.2315
  112SAPE  C31011709   2.562   1.246   4.635  0.5571  0.0816 -0.0057
  112SAPE  H10X11710   2.496   1.158   4.619  0.3605  0.2179  0.0438
  112SAPE  H10Y11711   2.490   1.330   4.627  1.1925  0.7667  1.1006
  112SAPE  C31111712   2.633   1.236   4.771  0.6827 -0.0452  0.0280
  112SAPE  H11X11713   2.705   1.319   4.786  1.8224 -1.1909  1.2468
  112SAPE  H11Y11714   2.693   1.143   4.760  0.1096 -0.3017 -1.0512
  112SAPE  C31211715   2.557   1.221   4.904 -0.0318 -0.1299 -0.5638
  112SAPE  H12X11716   2.491   1.132   4.899  0.8031 -0.7850 -0.2186
  112SAPE  H12Y11717   2.493   1.307   4.932 -2.5505 -2.2304  0.5328
  112SAPE  C31311718   2.642   1.182   5.027 -0.4501 -0.1632 -0.7612
  112SAPE  H13X11719   2.710   1.263   5.063  0.9151 -0.8962 -1.5938
  112SAPE  H13Y11720   2.713   1.099   5.008  1.5628  1.6539 -1.6244
  112SAPE  C31411721   2.549   1.142   5.143 -0.4327 -1.4309 -0.0319
  112SAPE  H14X11722   2.481   1.058   5.117 -2.2963  0.1184 -0.3156
  112SAPE  H14Y11723   2.495   1.236   5.167 -0.1672 -1.7490  1.9679
  112SAPE  C31511724   2.629   1.097   5.264  0.1228 -0.5485 -0.3503
  112SAPE  H15X11725   2.694   1.009   5.245 -0.0256 -0.9188  0.7907
  112SAPE  H15Y11726   2.553   1.054   5.333  1.4707 -2.2605  0.1473
  112SAPE  C31611727   2.700   1.215   5.338 -0.6190 -0.0444  0.1841
  112SAPE  H16X11728   2.633   1.299   5.367  1.2967  0.7996  2.5785
  112SAPE  H16Y11729   2.789   1.256   5.285 -0.0333 -1.9918 -0.4433
  112SAPE  C31711730   2.754   1.164   5.467 -0.4228  0.4088 -0.1110
  112SAPE  H17X11731   2.833   1.091   5.440  1.4886  2.9381 -1.8618
  112SAPE  H17Y11732   2.677   1.108   5.524 -1.0980  1.0312 -0.3929
  112SAPE  C31811733   2.810   1.281   5.547 -0.0948  0.2574  0.5153
  112SAPE  H18X11734   2.836   1.358   5.472 -1.1450  0.2882  0.1768
  112SAPE  H18Y11735   2.907   1.257   5.598 -0.7568  0.4294  1.9114
  112SAPE  H18Z11736   2.747   1.323   5.628  0.2052 -2.1889  2.1281
  113SAPE     N11737   3.256   5.107   2.268 -0.1082 -0.5295  0.3747
  113SAPE   HN111738   3.262   5.009   2.233 -0.7553 -0.5151  0.2055
  113SAPE   HN211739   3.339   5.130   2.325 -0.0032 -0.7993  0.3323
  113SAPE   HN311740   3.174   5.115   2.332  0.3424  0.1826  0.8699
  113SAPE   C1211741   3.235   5.215   2.164 -0.1062 -0.3785 -0.5010
  113SAPE  H12A11742   3.128   5.223   2.135 -1.1211  0.3742  2.9788
  113SAPE  H12B11743   3.298   5.193   2.075  0.3415  0.1870 -0.3293
  113SAPE   C1111744   3.284   5.340   2.222  0.6602  0.9139  0.2558
  113SAPE  H11A11745   3.277   5.413   2.139  0.3799 -0.1541 -0.6839
  113SAPE  H11B11746   3.393   5.331   2.245  1.0041  0.4509 -1.4388
  113SAPE     P11747   3.188   5.539   2.369 -0.2319 -0.3120  0.0148
  113SAPE   O1311748   3.305   5.603   2.432 -0.4300 -0.2018  0.0897
  113SAPE   O1411749   3.138   5.612   2.250  0.6550  0.0127  0.0451
  113SAPE   O1211750   3.209   5.386   2.335  0.6004 -0.4675 -0.5764
  113SAPE   O1111751   3.071   5.545   2.466 -0.0690 -0.6336  0.3493
  113SAPE    C111752   2.960   5.453   2.474  0.3858 -0.0887  0.6553
  113SAPE    HA11753   2.862   5.492   2.438  0.4871 -0.9957 -0.6825
  113SAPE    HB11754   2.971   5.364   2.408 -0.5174 -1.1356  1.8571
  113SAPE    C211755   2.947   5.396   2.613  0.2018  0.1345 -0.2981
  113SAPE    HS11756   2.865   5.322   2.623  1.0678 -0.8661 -0.4801
  113SAPE   O2111757   2.929   5.499   2.719 -0.0804 -0.1172 -0.2048
  113SAPE   C2111758   2.810   5.547   2.743  0.0831  0.3155 -0.0168
  113SAPE   O2211759   2.703   5.516   2.682 -0.5320  0.3361  0.0843
  113SAPE   C2211760   2.823   5.644   2.852  0.7354 -0.2138 -0.9073
  113SAPE   H2R11761   2.908   5.613   2.916 -1.7160 -3.3248  1.1477
  113SAPE   H2S11762   2.835   5.744   2.805 -2.9076  1.1138  0.5576
  113SAPE    C311763   3.074   5.306   2.637 -0.3539 -1.0733 -0.4311
  113SAPE    HX11764   3.150   5.383   2.664 -1.5617 -0.1528  0.4455
  113SAPE    HY11765   3.090   5.253   2.541  1.1497 -0.7624 -0.3792
  113SAPE   O3111766   3.063   5.218   2.754 -0.2972  0.3344 -0.2194
  113SAPE   C3111767   3.083   5.275   2.875 -0.5992  0.0973 -0.3213
  113SAPE   O3211768   3.141   5.376   2.901 -0.1491 -0.0551  0.0708
  113SAPE   C3211769   3.026   5.177   2.982 -0.3965  0.1781 -0.5430
  113SAPE   H2X11770   3.084   5.085   2.959  1.1726  0.9969  0.0025
  113SAPE   H2Y11771   2.921   5.151   2.956 -0.0226 -2.6835  0.4363
  113SAPE   C2311772   2.696   5.664   2.938 -0.3810 -0.7044 -0.1798
  113SAPE   H3R11773   2.666   5.565   2.979 -0.3492 -0.5946  0.1070
  113SAPE   H3S11774   2.610   5.697   2.875 -1.7751 -0.9419  1.5193
  113SAPE   C2411775   2.717   5.760   3.054  0.4755 -0.7084 -0.6793
  113SAPE   H4R11776   2.614   5.797   3.073 -0.4322 -0.6782 -4.8048
  113SAPE   H4S11777   2.779   5.839   3.007  1.2853 -1.7492 -1.4263
  113SAPE   C2511778   2.793   5.704   3.168  0.9725  0.3929 -0.0779
  113SAPE   H5R11779   2.898   5.736   3.165  1.0447  0.0944 -2.9985
  113SAPE   C2611780   2.735   5.654   3.285 -0.3239  0.6568  1.0424
  113SAPE   H6R11781   2.793   5.602   3.362  0.1483 -0.3213  0.0416
  113SAPE   C2711782   2.592   5.633   3.317  0.1284 -0.2743  0.2789
  113SAPE   H7R11783   2.573   5.542   3.377  0.7569  0.3803  1.5234
  113SAPE   H7S11784   2.543   5.621   3.219  0.4858  1.6359 -0.1873
  113SAPE   C2811785   2.532   5.761   3.377 -0.2970 -0.2233  0.1931
  113SAPE   H8R11786   2.537   5.851   3.315 -1.6447  1.5430  2.4743
  113SAPE   C2911787   2.500   5.780   3.511  0.2619  0.5666  0.0540
  113SAPE   H9R11788   2.442   5.869   3.541 -0.1342  0.2142  0.3479
  113SAPE  C21011789   2.489   5.667   3.614 -0.0257  0.2858 -0.0533
  113SAPE  H10R11790   2.476   5.567   3.566 -3.3424  0.4753  0.1724
  113SAPE  H10S11791   2.399   5.685   3.677  0.8256  3.0716  0.4839
  113SAPE  C21111792   2.610   5.674   3.695  0.2782 -0.1449  0.6783
  113SAPE  H11R11793   2.703   5.677   3.637 -0.6601  0.2963 -0.8469
  113SAPE  C21211794   2.621   5.692   3.826  0.8109 -1.0891 -0.4926
  113SAPE  H12R11795   2.723   5.704   3.867  0.4544  1.4069 -0.1515
  113SAPE  C21311796   2.515   5.690   3.930  0.0581  0.2015 -0.6066
  113SAPE  H13R11797   2.535   5.604   3.998 -0.1186  0.7669  0.1842
  113SAPE  H13S11798   2.416   5.665   3.887  1.2089 -3.3283 -1.5607
  113SAPE  C21411799   2.508   5.816   4.015 -0.5505  0.2034  0.4902
  113SAPE  H14R11800   2.535   5.906   3.959 -1.6965  0.3539  0.1536
  113SAPE  C21511801   2.483   5.828   4.146 -0.4161  0.8964  0.2193
  113SAPE  H15R11802   2.490   5.926   4.195 -2.7542  1.1416  0.1615
  113SAPE  C21611803   2.442   5.719   4.237  0.1791 -0.0799  0.2125
  113SAPE  H16R11804   2.428   5.625   4.178 -1.8587 -0.2395  0.8720
  113SAPE  H16S11805   2.348   5.737   4.292  1.2177  1.4137  1.5602
  113SAPE  C21711806   2.534   5.694   4.358  0.4396 -0.5577 -0.7963
  113SAPE  H17R11807   2.630   5.656   4.315  0.3314 -0.0830 -1.4613
  113SAPE  H17S11808   2.493   5.601   4.404  1.4427 -1.6329 -1.9738
  113SAPE  C21811809   2.546   5.808   4.459 -0.4761 -0.1860  0.0456
  113SAPE  H18R11810   2.446   5.856   4.463 -1.8481 -2.9440  1.0943
  113SAPE  H18S11811   2.617   5.886   4.424  0.1369  0.6056  2.8206
  113SAPE  C21911812   2.584   5.763   4.600 -0.4683  0.5915  0.4808
  113SAPE  H19R11813   2.563   5.655   4.611  2.8911 -0.3109 -0.5377
  113SAPE  H19S11814   2.524   5.822   4.671 -0.0862  1.0803  0.4079
  113SAPE  C22011815   2.728   5.796   4.644  0.6304 -0.6905  1.1285
  113SAPE  H20R11816   2.733   5.907   4.642  0.9830 -0.7115  0.0325
  113SAPE  H20S11817   2.800   5.744   4.577  4.0447  1.3540  2.9281
  113SAPE  H20T11818   2.748   5.755   4.745  1.0660  0.8596  1.7018
  113SAPE   C3311819   3.058   5.246   3.116  0.3595  0.4374 -0.6038
  113SAPE   H3X11820   3.031   5.353   3.125  0.2174  0.5660 -2.3090
  113SAPE   H3Y11821   3.166   5.232   3.140  0.2724 -0.2381 -0.5892
  113SAPE   C3411822   2.988   5.162   3.230 -0.5366  0.1242  0.2271
  113SAPE   H4X11823   3.057   5.080   3.257 -0.7319 -0.2350 -0.3520
  113SAPE   H4Y11824   2.893   5.119   3.193  0.0976  0.5603 -2.0333
  113SAPE   C3511825   2.973   5.241   3.360  0.4194 -0.4366 -0.6088
  113SAPE   H5X11826   2.905   5.326   3.337 -0.0984 -1.0037 -1.2053
  113SAPE   H5Y11827   3.059   5.297   3.402  0.2257 -1.1690  0.8278
  113SAPE   C3611828   2.914   5.163   3.476 -1.0425  0.3824 -0.3671
  113SAPE   H6X11829   2.952   5.060   3.461 -0.8261  0.4006  0.0278
  113SAPE   H6Y11830   2.803   5.165   3.466 -1.0685  0.2289 -0.1164
  113SAPE   C3711831   2.944   5.223   3.622  0.5425 -0.4341  0.5576
  113SAPE   H7X11832   3.054   5.233   3.633  0.7650  1.6806 -2.3926
  113SAPE   H7Y11833   2.897   5.151   3.693 -0.3113 -1.5281 -1.0652
  113SAPE   C3811834   2.880   5.362   3.636 -0.1117  0.5652  0.1072
  113SAPE   H8X11835   2.911   5.434   3.557 -1.1170  1.2205  0.2823
  113SAPE   H8Y11836   2.771   5.349   3.619 -0.1549 -0.3591  1.0053
  113SAPE   C3911837   2.909   5.438   3.769 -0.2949  0.5468  0.3417
  113SAPE   H9X11838   2.904   5.549   3.758  1.4918  0.6738  0.4516
  113SAPE   H9Y11839   3.015   5.426   3.799 -0.6244 -1.3661  0.8941
  113SAPE  C31011840   2.841   5.385   3.897  0.1386 -0.2663  0.8704
  113SAPE  H10X11841   2.842   5.276   3.879 -0.3193 -0.1522  0.0660
  113SAPE  H10Y11842   2.734   5.417   3.895  0.3486  0.4518  0.6349
  113SAPE  C31111843   2.923   5.400   4.023  0.0172 -0.1235 -0.2444
  113SAPE  H11X11844   2.967   5.502   4.013  1.4806 -0.5557  1.2108
  113SAPE  H11Y11845   3.015   5.339   4.036  0.5805  0.5783 -0.8108
  113SAPE  C31211846   2.833   5.391   4.146 -0.1865  0.1128  0.3026
  113SAPE  H12X11847   2.789   5.291   4.162  1.4787 -0.7414 -0.2517
  113SAPE  H12Y11848   2.749   5.462   4.129 -0.4147 -0.5729 -1.7644
  113SAPE  C31311849   2.893   5.447   4.271 -0.0928  0.1231  0.1123
  113SAPE  H13X11850   2.904   5.558   4.269 -0.9174  0.2129 -1.8915
  113SAPE  H13Y11851   2.995   5.406   4.284  0.6628  1.9508  0.3262
  113SAPE  C31411852   2.803   5.402   4.389 -0.7824  0.0798  0.0738
  113SAPE  H14X11853   2.781   5.294   4.372 -0.1559 -0.3610  1.8063
  113SAPE  H14Y11854   2.710   5.462   4.392  1.3044  3.6342 -0.7969
  113SAPE  C31511855   2.876   5.422   4.523 -0.0330  0.4801 -0.2960
  113SAPE  H15X11856   2.910   5.527   4.536  1.3615  0.3152 -2.0857
  113SAPE  H15Y11857   2.973   5.369   4.520  0.1853  0.9044 -1.3184
  113SAPE  C31611858   2.802   5.363   4.643  0.5070 -0.5220 -0.5941
  113SAPE  H16X11859   2.704   5.416   4.642  0.8822  0.2357  0.7181
  113SAPE  H16Y11860   2.848   5.397   4.738  1.4793 -1.3277 -0.7625
  113SAPE  C31711861   2.778   5.207   4.632 -0.5697  0.4691  0.1060
  113SAPE  H17X11862   2.879   5.170   4.659 -0.0214  1.2884 -0.7610
  113SAPE  H17Y11863   2.771   5.174   4.526  0.3617  2.6540 -0.7107
  113SAPE  C31811864   2.673   5.157   4.727  0.7203  0.7042  0.3547
  113SAPE  H18X11865   2.697   5.175   4.834  1.6830 -2.0459  0.6965
  113SAPE  H18Y11866   2.685   5.046   4.726 -0.4328  0.5366  1.7452
  113SAPE  H18Z11867   2.570   5.182   4.696  1.5611  2.0456 -1.5407
  114SAPE     N11868   4.282   6.615   2.780 -0.2171  0.0843  0.4863
  114SAPE   HN111869   4.183   6.625   2.812  0.0877  0.2988  1.3889
  114SAPE   HN211870   4.343   6.667   2.846  0.7162  0.2092 -0.4414
  114SAPE   HN311871   4.293   6.643   2.681  0.3647 -1.6851  0.0151
  114SAPE   C1211872   4.316   6.467   2.777 -0.2670  0.1448 -0.3239
  114SAPE  H12A11873   4.222   6.408   2.777  2.4493 -4.7156 -1.8728
  114SAPE  H12B11874   4.370   6.445   2.871 -0.0241 -0.9102 -0.6993
  114SAPE   C1111875   4.407   6.408   2.666 -0.8460  0.5267 -0.3108
  114SAPE  H11A11876   4.353   6.419   2.570  1.3381 -1.3725 -1.8918
  114SAPE  H11B11877   4.418   6.297   2.666  0.3131  0.6151 -1.3329
  114SAPE     P11878   4.667   6.392   2.664  0.0919  0.0395 -0.0479
  114SAPE   O1311879   4.673   6.303   2.546 -0.0235 -0.4800  0.4163
  114SAPE   O1411880   4.785   6.481   2.708  0.3402 -0.5936  0.7308
  114SAPE   O1211881   4.538   6.472   2.665  0.4484 -0.0803 -0.2639
  114SAPE   O1111882   4.643   6.305   2.791 -0.5061  0.3680 -0.1584
  114SAPE    C111883   4.643   6.355   2.926  1.4163  0.6020  0.5675
  114SAPE    HA11884   4.742   6.394   2.960  0.7931  0.7379  2.3490
  114SAPE    HB11885   4.577   6.443   2.928  1.6739  0.8632 -1.2377
  114SAPE    C211886   4.603   6.242   3.027  0.1762 -0.2490 -0.2152
  114SAPE    HS11887   4.511   6.200   2.980 -0.8858 -0.9909  2.3453
  114SAPE   O2111888   4.580   6.305   3.154 -0.4943  0.1746  0.2822
  114SAPE   C2111889   4.471   6.271   3.210 -0.0885  0.1705 -0.2116
  114SAPE   O2211890   4.379   6.206   3.160 -0.1689  0.4505 -0.3643
  114SAPE   C2211891   4.472   6.324   3.357  0.9573  0.4016 -0.4259
  114SAPE   H2R11892   4.532   6.417   3.351  3.3283 -0.9478  0.7060
  114SAPE   H2S11893   4.367   6.358   3.362  1.5176  2.0208  1.5218
  114SAPE    C311894   4.703   6.127   3.053  0.6967  0.3492 -0.0075
  114SAPE    HX11895   4.796   6.172   3.094  0.7792 -0.2215  0.4477
  114SAPE    HY11896   4.736   6.072   2.962  0.7387  0.5152 -0.0940
  114SAPE   O3111897   4.663   6.028   3.151 -0.0614  0.0769 -0.1644
  114SAPE   C3111898   4.562   5.951   3.140 -0.1305 -0.4487 -0.4798
  114SAPE   O3211899   4.499   5.928   3.042 -0.6573 -0.4024  0.0290
  114SAPE   C3211900   4.522   5.889   3.279  0.3351 -0.1257 -0.1229
  114SAPE   H2X11901   4.433   5.945   3.317  1.2704 -0.1791  2.2858
  114SAPE   H2Y11902   4.599   5.912   3.355 -1.3186  0.8216  1.3658
  114SAPE   C2311903   4.522   6.221   3.463  0.1439 -0.5569  0.3252
  114SAPE   H3R11904   4.629   6.208   3.436  0.0228 -0.0250 -0.4406
  114SAPE   H3S11905   4.467   6.125   3.451 -1.0450  0.2600 -1.1936
  114SAPE   C2411906   4.504   6.286   3.599 -1.0895  0.5099  0.3798
  114SAPE   H4R11907   4.395   6.290   3.622 -1.0968 -1.2740  0.8271
  114SAPE   H4S11908   4.540   6.390   3.615 -0.5904  0.1274  1.9804
  114SAPE   C2511909   4.563   6.201   3.708  0.0254  0.0089  0.0283
  114SAPE   H5R11910   4.602   6.102   3.680 -2.7348 -1.0493 -0.3991
  114SAPE   C2611911   4.549   6.239   3.845  0.2417  0.2222 -0.0985
  114SAPE   H6R11912   4.595   6.188   3.931  0.6345  1.7771  0.6444
  114SAPE   C2711913   4.486   6.367   3.885  0.9463  0.3387 -0.5942
  114SAPE   H7R11914   4.426   6.414   3.805  0.8333  1.1836 -0.0206
  114SAPE   H7S11915   4.561   6.446   3.907  1.1133  0.3537 -1.1846
  114SAPE   C2811916   4.395   6.340   4.006  0.1445 -0.6135 -0.9721
  114SAPE   H8R11917   4.290   6.320   3.979 -0.0493  0.8648 -1.3872
  114SAPE   C2911918   4.425   6.364   4.131  0.2643  0.0362 -0.5450
  114SAPE   H9R11919   4.345   6.339   4.203 -0.8878 -3.4971 -2.8123
  114SAPE  C21011920   4.556   6.415   4.191  0.3351  0.4784 -0.3204
  114SAPE  H10R11921   4.599   6.496   4.129 -1.4097  1.9591  0.3303
  114SAPE  H10S11922   4.631   6.334   4.177 -1.0334 -1.0826  0.8458
  114SAPE  C21111923   4.557   6.457   4.345  0.1521  0.0635 -0.2646
  114SAPE  H11R11924   4.579   6.564   4.354 -0.7787  0.3317 -0.9545
  114SAPE  C21211925   4.518   6.384   4.453 -0.2774  0.4720  0.1387
  114SAPE  H12R11926   4.525   6.431   4.552  1.4836  0.7824 -0.1071
  114SAPE  C21311927   4.481   6.240   4.456  0.4773 -0.0535  0.3396
  114SAPE  H13R11928   4.406   6.214   4.378 -0.8872  0.0675  1.5670
  114SAPE  H13S11929   4.424   6.225   4.550  0.0889  1.0661  0.2985
  114SAPE  C21411930   4.601   6.153   4.447  0.0187 -0.0003 -0.4316
  114SAPE  H14R11931   4.659   6.159   4.354  1.1600 -2.5942  0.0267
  114SAPE  C21511932   4.639   6.066   4.547 -0.6824  0.3539  0.3046
  114SAPE  H15R11933   4.731   6.011   4.524 -0.6401  0.2258  0.7786
  114SAPE  C21611934   4.581   6.026   4.680  0.5636  0.6092  0.6984
  114SAPE  H16R11935   4.589   5.917   4.702 -1.3923  0.2097 -0.2665
  114SAPE  H16S11936   4.470   6.034   4.676  0.6573  1.5748 -0.6374
  114SAPE  C21711937   4.649   6.107   4.792 -0.4589  0.3692 -0.4473
  114SAPE  H17R11938   4.756   6.086   4.772 -0.0504 -0.2526  2.0457
  114SAPE  H17S11939   4.623   6.063   4.890 -0.9005 -0.3043 -0.8553
  114SAPE  C21811940   4.623   6.261   4.794 -0.2502  1.0472 -0.2418
  114SAPE  H18R11941   4.514   6.281   4.790 -0.4868 -0.0671  0.3759
  114SAPE  H18S11942   4.672   6.303   4.703 -2.1121  4.1864  0.0314
  114SAPE  C21911943   4.685   6.317   4.918  1.0022 -0.7650 -0.0927
  114SAPE  H19R11944   4.679   6.428   4.926 -2.3539 -0.9637  2.4953
  114SAPE  H19S11945   4.787   6.277   4.938  0.8965 -2.2073 -2.1901
  114SAPE  C22011946   4.631   6.269   5.055 -0.1604 -0.1721 -0.1704
  114SAPE  H20R11947   4.527   6.307   5.065  0.0306  0.1715  0.6079
  114SAPE  H20S11948   4.685   6.318   5.139 -1.5176  0.1465  0.5538
  114SAPE  H20T11949   4.621   6.159   5.066  3.0511 -0.6681 -1.3198
  114SAPE   C3311950   4.492   5.742   3.272 -0.7201  0.7586  1.0109
  114SAPE   H3X11951   4.581   5.701   3.220 -1.7436  2.6982 -2.5852
  114SAPE   H3Y11952   4.402   5.717   3.212  0.7898 -1.9735 -0.2771
  114SAPE   C3411953   4.476   5.682   3.408  0.0789 -0.4037  0.7327
  114SAPE   H4X11954   4.567   5.705   3.467 -0.9046  0.5493  1.9425
  114SAPE   H4Y11955   4.475   5.573   3.385 -4.4396 -0.2109 -0.9388
  114SAPE   C3511956   4.355   5.725   3.491 -0.4310  0.3638 -0.0180
  114SAPE   H5X11957   4.259   5.705   3.440  0.3030 -0.4065 -1.1421
  114SAPE   H5Y11958   4.351   5.831   3.524  0.5343  0.5079 -0.3154
  114SAPE   C3611959   4.349   5.640   3.622  0.1411 -0.4926  0.5589
  114SAPE   H6X11960   4.437   5.674   3.681 -0.5701  1.7530  0.3932
  114SAPE   H6Y11961   4.356   5.530   3.609 -1.6848 -0.4356 -1.3093
  114SAPE   C3711962   4.223   5.671   3.713  0.3905  1.1442  0.2527
  114SAPE   H7X11963   4.141   5.601   3.687  0.3933  0.6494  1.4999
  114SAPE   H7Y11964   4.183   5.774   3.700  1.8157  1.6094 -0.6743
  114SAPE   C3811965   4.271   5.671   3.864 -0.8037 -0.2999  0.0704
  114SAPE   H8X11966   4.335   5.761   3.879  1.4490 -1.8879  0.3851
  114SAPE   H8Y11967   4.330   5.579   3.884 -1.3706 -0.0180  3.7535
  114SAPE   C3911968   4.159   5.669   3.964  0.3126 -0.7826  0.1007
  114SAPE   H9X11969   4.092   5.583   3.945 -0.3880  0.2907 -2.6946
  114SAPE   H9Y11970   4.094   5.757   3.942  1.0273  0.0943  1.3226
  114SAPE  C31011971   4.196   5.681   4.114  0.4127  0.5085  0.3801
  114SAPE  H10X11972   4.277   5.756   4.108  1.0601 -0.0952  1.3938
  114SAPE  H10Y11973   4.241   5.583   4.140 -1.2776 -0.2072  0.7258
  114SAPE  C31111974   4.077   5.725   4.201  0.3642  0.0587  1.1693
  114SAPE  H11X11975   4.015   5.633   4.197  1.0098 -0.3789  1.0545
  114SAPE  H11Y11976   4.016   5.804   4.153  0.7374 -1.4733 -2.0711
  114SAPE  C31211977   4.117   5.757   4.344  0.6241  0.3027  0.5544
  114SAPE  H12X11978   4.027   5.778   4.406 -1.7897 -0.0011 -2.5936
  114SAPE  H12Y11979   4.165   5.857   4.349  0.6039  0.3807 -0.6164
  114SAPE  C31311980   4.206   5.649   4.400  0.2745  0.1360 -0.4290
  114SAPE  H13X11981   4.305   5.657   4.350  0.4026 -0.4984 -0.2805
  114SAPE  H13Y11982   4.158   5.551   4.377  1.6295 -0.4355 -0.9040
  114SAPE  C31411983   4.219   5.655   4.551 -0.0663  1.0185 -1.5871
  114SAPE  H14X11984   4.123   5.620   4.593  0.7043 -0.4001 -0.9607
  114SAPE  H14Y11985   4.234   5.762   4.579 -2.0618  0.4541  2.1838
  114SAPE  C31511986   4.340   5.579   4.607 -0.1843  0.3059 -0.1660
  114SAPE  H15X11987   4.433   5.631   4.576 -0.8023  0.8511 -1.1458
  114SAPE  H15Y11988   4.341   5.476   4.566 -2.1306 -0.9863  2.6928
  114SAPE  C31611989   4.335   5.578   4.761  0.1018  0.1786  0.1114
  114SAPE  H16X11990   4.238   5.526   4.777 -0.6848  1.6149  0.1634
  114SAPE  H16Y11991   4.316   5.677   4.808 -1.4170 -0.3412  0.6595
  114SAPE  C31711992   4.455   5.511   4.837  0.0765 -0.5093  0.1136
  114SAPE  H17X11993   4.541   5.582   4.829 -1.0391  0.9074  0.3154
  114SAPE  H17Y11994   4.479   5.417   4.783  2.7658 -0.8901  1.7519
  114SAPE  C31811995   4.417   5.469   4.983 -0.3769 -0.4384 -0.4167
  114SAPE  H18X11996   4.372   5.368   4.984  0.6375 -0.9012  0.6367
  114SAPE  H18Y11997   4.337   5.539   5.017  0.1606  1.0783 -2.0884
  114SAPE  H18Z11998   4.506   5.479   5.049 -1.0735  1.9223  0.2841
  115SAPE     N11999   3.257   3.015   2.739  0.4447 -0.2322  0.4611
  115SAPE   HN112000   3.190   3.008   2.818 -0.2650  0.1557 -0.1015
  115SAPE   HN212001   3.255   3.107   2.691  0.8894 -0.7115 -0.5056
  115SAPE   HN312002   3.246   2.942   2.666 -0.2161  0.9196 -0.6389
  115SAPE   C1212003   3.386   2.986   2.799 -0.8234  0.0954  0.1593
  115SAPE  H12A12004   3.391   3.038   2.897 -0.6393 -0.5760  0.5115
  115SAPE  H12B12005   3.471   3.018   2.736  1.0698 -0.1677  2.4463
  115SAPE   C1112006   3.404   2.836   2.828  0.4972  0.4602 -0.3799
  115SAPE  H11A12007   3.475   2.847   2.913 -0.2542  0.7329  0.2292
  115SAPE  H11B12008   3.445   2.794   2.734 -1.0657 -1.0046 -0.4600
  115SAPE     P12009   3.314   2.610   2.928  0.4015  0.0116  0.1214
  115SAPE   O1312010   3.187   2.559   2.973  0.7357 -0.1137 -0.2391
  115SAPE   O1412011   3.387   2.545   2.817 -0.0031  0.0486 -0.4321
  115SAPE   O1212012   3.290   2.764   2.881  0.3555  0.0192 -0.1101
  115SAPE   O1112013   3.393   2.622   3.064 -0.0159 -0.1437  0.6030
  115SAPE    C112014   3.343   2.662   3.194  0.2796 -0.0400 -0.5742
  115SAPE    HA12015   3.233   2.661   3.207  0.4142 -2.0244  0.9240
  115SAPE    HB12016   3.369   2.592   3.276  1.2377  1.1333  0.1587
  115SAPE    C212017   3.386   2.807   3.236 -0.2398  0.2944  0.3748
  115SAPE    HS12018   3.425   2.859   3.146  0.0738  0.7585  0.7710
  115SAPE   O2112019   3.493   2.800   3.332  0.4932  0.3145 -0.0064
  115SAPE   C2112020   3.566   2.903   3.365 -0.0681 -0.4257 -0.0402
  115SAPE   O2212021   3.572   3.009   3.302  0.1192 -0.0045 -0.2904
  115SAPE   C2212022   3.644   2.864   3.492  0.0270 -0.0364  0.1895
  115SAPE   H2R12023   3.571   2.843   3.572 -2.4833  0.1369 -1.9144
  115SAPE   H2S12024   3.698   2.771   3.460 -2.0303 -1.1534 -0.1985
  115SAPE    C312025   3.276   2.894   3.286  0.6405  0.0649  0.4012
  115SAPE    HX12026   3.195   2.874   3.213 -0.7676  1.2665  1.5589
  115SAPE    HY12027   3.297   3.003   3.284 -2.5188  0.8217  1.7807
  115SAPE   O3112028   3.232   2.851   3.420  0.7344 -0.0827 -0.0748
  115SAPE   C3112029   3.125   2.909   3.468  0.2239 -0.9950 -0.3088
  115SAPE   O3212030   3.061   2.997   3.414 -0.2834 -0.6359  0.1925
  115SAPE   C3212031   3.085   2.845   3.597  0.1656  0.2653  0.2116
  115SAPE   H2X12032   3.145   2.752   3.607  1.5686  1.1252  0.1828
  115SAPE   H2Y12033   2.979   2.813   3.600 -0.3270  1.8719  1.0676
  115SAPE   C2312034   3.735   2.979   3.541 -0.3802 -0.6803  0.0953
  115SAPE   H3R12035   3.671   3.068   3.520  2.0134  1.0767 -0.2290
  115SAPE   H3S12036   3.824   2.995   3.477  0.8987 -1.5399  1.5884
  115SAPE   C2412037   3.767   2.975   3.695 -0.3827 -0.2791  0.4637
  115SAPE   H4R12038   3.675   2.953   3.754  0.4586 -0.8814  1.5803
  115SAPE   H4S12039   3.813   3.071   3.729  1.8948 -0.1138 -2.6556
  115SAPE   C2512040   3.866   2.866   3.722 -0.2983 -0.0664 -0.1784
  115SAPE   H5R12041   3.844   2.782   3.655  0.0049 -0.3676  0.0969
  115SAPE   C2612042   3.975   2.857   3.798 -0.1261 -0.2459  0.2937
  115SAPE   H6R12043   4.035   2.767   3.782 -0.9018 -0.6261 -0.6128
  115SAPE   C2712044   4.034   2.964   3.883  0.4149 -0.1212 -0.5342
  115SAPE   H7R12045   4.028   2.930   3.989  2.2811  0.1937 -0.2828
  115SAPE   H7S12046   3.964   3.049   3.870 -0.5217 -1.0312 -1.5792
  115SAPE   C2812047   4.183   3.000   3.850 -0.0242 -0.1471 -0.5017
  115SAPE   H8R12048   4.222   2.953   3.758 -2.8469 -1.3519 -1.1976
  115SAPE   C2912049   4.259   3.091   3.918 -0.2045  0.2170 -0.5434
  115SAPE   H9R12050   4.364   3.101   3.886 -0.3901 -1.2763 -1.7233
  115SAPE  C21012051   4.219   3.178   4.035  0.1183 -0.2889  0.4031
  115SAPE  H10R12052   4.319   3.220   4.063  1.2162 -2.7214  0.3912
  115SAPE  H10S12053   4.188   3.115   4.120 -1.1140  1.3590  1.2258
  115SAPE  C21112054   4.128   3.295   4.000 -0.9681 -0.0625  0.2774
  115SAPE  H11R12055   4.076   3.284   3.904 -1.8307 -2.2158  0.9308
  115SAPE  C21212056   4.090   3.391   4.082  0.4914 -0.5933 -0.4095
  115SAPE  H12R12057   4.025   3.470   4.043  2.0195  0.1180 -1.6122
  115SAPE  C21312058   4.153   3.406   4.216  0.0297  0.0594 -0.0104
  115SAPE  H13R12059   4.172   3.305   4.259 -0.5068 -1.1154 -2.3580
  115SAPE  H13S12060   4.085   3.452   4.290  1.3852  2.4227 -0.1316
  115SAPE  C21412061   4.285   3.483   4.199  0.0072 -0.0026 -0.7067
  115SAPE  H14R12062   4.303   3.512   4.094 -0.1728 -0.1045 -0.7665
  115SAPE  C21512063   4.381   3.523   4.290 -0.2480  1.0786  0.1051
  115SAPE  H15R12064   4.469   3.583   4.265  0.8652 -0.3213  0.5694
  115SAPE  C21612065   4.359   3.516   4.435  0.4124 -0.0528  0.4780
  115SAPE  H16R12066   4.253   3.494   4.462 -0.2272 -2.0637 -3.0305
  115SAPE  H16S12067   4.394   3.615   4.470  1.0440  0.2286 -0.9041
  115SAPE  C21712068   4.426   3.398   4.510  0.8549 -0.4210 -0.0240
  115SAPE  H17R12069   4.407   3.403   4.619 -1.3048  0.0205 -0.3721
  115SAPE  H17S12070   4.536   3.408   4.520  0.5121  2.1244  2.4301
  115SAPE  C21812071   4.382   3.260   4.459  0.5964 -0.0240 -0.3768
  115SAPE  H18R12072   4.382   3.249   4.349 -0.9979  1.5283 -0.5749
  115SAPE  H18S12073   4.275   3.267   4.489  1.3346 -0.9924  2.9311
  115SAPE  C21912074   4.463   3.147   4.528 -0.3532 -0.6455 -0.1152
  115SAPE  H19R12075   4.477   3.164   4.637  1.6821  0.2645 -0.4838
  115SAPE  H19S12076   4.567   3.147   4.488  0.0243 -0.4079  0.8368
  115SAPE  C22012077   4.414   3.003   4.517  0.3987 -0.4419 -0.1163
  115SAPE  H20R12078   4.314   2.990   4.563  0.4700  1.5013  0.6639
  115SAPE  H20S12079   4.473   2.920   4.561  0.8657 -0.1022 -0.0973
  115SAPE  H20T12080   4.398   2.991   4.408 -0.6619  1.4625 -0.2132
  115SAPE   C3312081   3.108   2.941   3.722  0.1431  0.2610  0.0425
  115SAPE   H3X12082   3.076   2.874   3.805 -0.0607 -0.8675 -0.9097
  115SAPE   H3Y12083   3.048   3.033   3.712  1.3302  1.2922  1.8739
  115SAPE   C3412084   3.256   2.982   3.750  0.3537  0.2527 -0.4881
  115SAPE   H4X12085   3.277   3.058   3.672  0.4349 -0.7799 -1.5097
  115SAPE   H4Y12086   3.328   2.898   3.738  1.0886  0.3005  2.6782
  115SAPE   C3512087   3.266   3.050   3.890 -0.1941  0.3568 -1.7494
  115SAPE   H5X12088   3.221   2.993   3.974  3.5043  1.2038  1.0947
  115SAPE   H5Y12089   3.215   3.149   3.893  0.3809  0.6347 -0.3292
  115SAPE   C3612090   3.412   3.064   3.944  0.8057 -0.3279  0.4688
  115SAPE   H6X12091   3.413   3.108   4.046  1.6754 -1.2126  0.8601
  115SAPE   H6Y12092   3.450   3.133   3.865 -0.2492  0.8899  0.9907
  115SAPE   C3712093   3.479   2.928   3.977 -0.3013 -0.0670 -0.0035
  115SAPE   H7X12094   3.499   2.879   3.880 -0.2534 -0.7651  0.3529
  115SAPE   H7Y12095   3.409   2.863   4.034 -1.3068 -0.4086 -1.5683
  115SAPE   C3812096   3.603   2.954   4.064  0.7721 -0.1599  0.2700
  115SAPE   H8X12097   3.582   3.021   4.150 -1.2451 -2.3788  1.6561
  115SAPE   H8Y12098   3.673   3.012   4.001 -1.5546  0.5049 -1.8653
  115SAPE   C3912099   3.671   2.824   4.108  0.0610  0.2412 -0.3860
  115SAPE   H9X12100   3.699   2.761   4.021  2.0963 -0.1595  0.5044
  115SAPE   H9Y12101   3.587   2.767   4.155 -0.0393 -0.8861 -1.8613
  115SAPE  C31012102   3.806   2.836   4.187 -0.5632  0.0779 -0.1881
  115SAPE  H10X12103   3.804   2.901   4.278  1.1294  1.1050 -0.8386
  115SAPE  H10Y12104   3.875   2.898   4.126  1.5628 -0.1321  1.8445
  115SAPE  C31112105   3.872   2.705   4.227 -0.0360 -0.2015  0.2315
  115SAPE  H11X12106   3.927   2.679   4.134  1.0828  0.2812  0.7417
  115SAPE  H11Y12107   3.787   2.633   4.238 -0.4401  0.1907 -0.2660
  115SAPE  C31212108   3.978   2.704   4.344 -0.2776 -0.8327 -0.2702
  115SAPE  H12X12109   4.007   2.601   4.372 -0.3880 -0.0360  3.4072
  115SAPE  H12Y12110   3.918   2.743   4.430  0.4840 -0.5371  0.1402
  115SAPE  C31312111   4.102   2.776   4.315  0.0247  0.5592 -0.3121
  115SAPE  H13X12112   4.080   2.884   4.330  0.8076  0.4885  1.6589
  115SAPE  H13Y12113   4.137   2.750   4.213  1.7891  0.0559  0.3818
  115SAPE  C31412114   4.225   2.726   4.406  0.9325 -0.1597  0.4489
  115SAPE  H14X12115   4.314   2.789   4.388  2.2845 -2.5970 -2.5500
  115SAPE  H14Y12116   4.262   2.629   4.366  0.7857 -1.2136  2.7224
  115SAPE  C31512117   4.195   2.709   4.553 -0.9596  0.6337  0.2045
  115SAPE  H15X12118   4.111   2.640   4.574 -1.3385  0.5236 -1.4982
  115SAPE  H15Y12119   4.166   2.804   4.602 -1.8663  0.1658  0.5919
  115SAPE  C31612120   4.321   2.654   4.622  0.2448 -0.2830 -0.4804
  115SAPE  H16X12121   4.408   2.715   4.589  2.2480 -1.9556  1.4123
  115SAPE  H16Y12122   4.328   2.546   4.597 -0.1032 -0.4182 -0.0038
  115SAPE  C31712123   4.315   2.660   4.772  0.3034 -0.1222 -0.0585
  115SAPE  H17X12124   4.397   2.595   4.809  1.4040  1.2080 -0.0661
  115SAPE  H17Y12125   4.218   2.620   4.810 -0.4858  0.7147 -1.1286
  115SAPE  C31812126   4.358   2.792   4.828 -0.2342 -0.4965  0.0698
  115SAPE  H18X12127   4.367   2.784   4.939  0.1853  0.7700  0.1502
  115SAPE  H18Y12128   4.277   2.863   4.800  0.3281  0.0215 -0.2583
  115SAPE  H18Z12129   4.452   2.838   4.792 -1.5133  2.4303  0.1038
  116SAPE     N12130   5.785   4.248   2.476 -0.3209 -0.0265  0.4131
  116SAPE   HN112131   5.873   4.260   2.423 -1.2988  0.8039 -1.0946
  116SAPE   HN212132   5.794   4.155   2.523  1.2254  0.0370  0.2705
  116SAPE   HN312133   5.709   4.222   2.410 -0.0693 -0.7670  0.4058
  116SAPE   C1212134   5.763   4.363   2.569 -0.1296 -1.0944  0.2636
  116SAPE  H12A12135   5.718   4.436   2.497  0.4479 -0.8826  0.1103
  116SAPE  H12B12136   5.854   4.409   2.614 -0.6492 -0.1142  0.3590
  116SAPE   C1112137   5.654   4.336   2.681 -0.4676 -0.0810  0.7852
  116SAPE  H11A12138   5.654   4.424   2.748  0.6910  2.2087 -2.0120
  116SAPE  H11B12139   5.706   4.259   2.742  1.4408  0.8243  0.3624
  116SAPE     P12140   5.425   4.419   2.584  0.2209 -0.0550 -0.8783
  116SAPE   O1312141   5.455   4.464   2.449 -0.2976  0.0366 -0.0110
  116SAPE   O1412142   5.284   4.380   2.612 -0.2192 -0.6957  0.0399
  116SAPE   O1212143   5.525   4.304   2.627 -0.5360  0.0385 -0.3585
  116SAPE   O1112144   5.461   4.543   2.682 -0.6099 -0.1721  0.3217
  116SAPE    C112145   5.382   4.602   2.789 -0.2622  0.1364 -0.5333
  116SAPE    HA12146   5.368   4.712   2.790  1.2737  0.3485 -0.3367
  116SAPE    HB12147   5.277   4.564   2.788 -0.6318  1.0718  0.3147
  116SAPE    C212148   5.432   4.564   2.929 -0.4501 -0.1796 -0.6356
  116SAPE    HS12149   5.379   4.639   2.992 -3.1208 -2.9280  0.6539
  116SAPE   O2112150   5.578   4.578   2.931 -0.6227 -0.5251 -0.0551
  116SAPE   C2112151   5.619   4.610   3.046 -0.6354  0.2277 -0.2615
  116SAPE   O2212152   5.552   4.642   3.141  0.4274  0.1930  0.3156
  116SAPE   C2212153   5.771   4.607   3.043  0.3429  0.3168  0.3008
  116SAPE   H2R12154   5.799   4.513   2.991  1.8902  0.4663  0.8335
  116SAPE   H2S12155   5.808   4.695   2.986  1.1571 -0.3143 -0.1525
  116SAPE    C312156   5.379   4.423   2.972  0.5903  0.2751  0.5433
  116SAPE    HX12157   5.422   4.356   2.895 -0.8626 -0.0469 -0.0361
  116SAPE    HY12158   5.269   4.438   2.963  0.6463  1.1072  1.1663
  116SAPE   O3112159   5.428   4.387   3.101  0.1872  0.5339 -0.1269
  116SAPE   C3112160   5.353   4.425   3.205  0.0237  0.0194  0.6129
  116SAPE   O3212161   5.257   4.505   3.202  0.2808  0.6168 -0.5736
  116SAPE   C3212162   5.411   4.357   3.329 -0.5952  0.2014  0.1527
  116SAPE   H2X12163   5.493   4.426   3.360  0.4475 -1.2285  0.6753
  116SAPE   H2Y12164   5.459   4.259   3.309  2.1755  1.0893  1.8220
  116SAPE   C2312165   5.839   4.607   3.180  0.1287 -0.8581 -0.4137
  116SAPE   H3R12166   5.774   4.624   3.268 -1.0881  1.1959 -1.6260
  116SAPE   H3S12167   5.904   4.697   3.177 -2.1421  0.8838 -0.2315
  116SAPE   C2412168   5.932   4.486   3.197  0.2349  0.0761 -1.0920
  116SAPE   H4R12169   6.012   4.475   3.121 -0.0576  0.5350 -1.4705
  116SAPE   H4S12170   5.875   4.390   3.201  0.5308 -0.1144 -1.4043
  116SAPE   C2512171   5.990   4.503   3.333 -0.2519 -0.5477 -0.6091
  116SAPE   H5R12172   6.061   4.587   3.346 -1.8290  0.5072  2.0693
  116SAPE   C2612173   5.943   4.443   3.445  0.6346  0.2595 -0.1809
  116SAPE   H6R12174   5.992   4.466   3.541 -0.4074 -2.1577  1.0322
  116SAPE   C2712175   5.841   4.334   3.456 -0.1172 -0.1806 -0.3072
  116SAPE   H7R12176   5.894   4.244   3.493  0.1669 -0.0693 -0.4426
  116SAPE   H7S12177   5.793   4.318   3.356  1.2241  1.6397 -1.3020
  116SAPE   C2812178   5.740   4.376   3.557  0.0738 -0.3132  0.3113
  116SAPE   H8R12179   5.664   4.441   3.511  0.3789 -1.2818 -1.6681
  116SAPE   C2912180   5.712   4.329   3.681 -0.4031  0.0679 -0.0944
  116SAPE   H9R12181   5.625   4.376   3.729 -1.5192 -1.9722 -0.0066
  116SAPE  C21012182   5.792   4.224   3.755  0.7798 -1.0851  0.1095
  116SAPE  H10R12183   5.847   4.163   3.681 -0.4701 -0.1182 -1.7028
  116SAPE  H10S12184   5.721   4.163   3.814 -0.3676 -0.0455 -0.1394
  116SAPE  C21112185   5.887   4.292   3.850 -0.3525  0.5906 -0.8058
  116SAPE  H11R12186   5.984   4.307   3.800 -0.8301 -0.5401 -2.1232
  116SAPE  C21212187   5.859   4.341   3.975 -0.1130  0.8840 -0.2687
  116SAPE  H12R12188   5.943   4.370   4.041 -0.9608  0.0853  1.1961
  116SAPE  C21312189   5.724   4.334   4.045 -0.5188  0.0183 -0.3031
  116SAPE  H13R12190   5.655   4.257   4.005 -0.5165  0.0387 -0.3468
  116SAPE  H13S12191   5.673   4.432   4.029  1.0462  1.2263  1.5662
  116SAPE  C21412192   5.743   4.315   4.188  0.6889 -0.0576  0.2451
  116SAPE  H14R12193   5.757   4.405   4.249 -2.3881  0.6775 -0.0126
  116SAPE  C21512194   5.744   4.201   4.260 -0.6342 -0.0534 -0.3501
  116SAPE  H15R12195   5.753   4.220   4.368 -2.8891  0.4759 -0.1891
  116SAPE  C21612196   5.733   4.061   4.201 -0.7645 -0.6951 -0.0485
  116SAPE  H16R12197   5.627   4.049   4.171 -0.8736  0.5718 -0.2095
  116SAPE  H16S12198   5.742   3.992   4.288 -0.6475  0.8681  1.2302
  116SAPE  C21712199   5.846   4.010   4.102 -0.0187  0.1003  0.5288
  116SAPE  H17R12200   5.832   4.060   4.004 -0.9061  0.8620  1.0286
  116SAPE  H17S12201   5.811   3.908   4.075  0.3395 -0.2010  1.1917
  116SAPE  C21812202   5.989   4.006   4.159 -0.2405 -0.4002  0.5728
  116SAPE  H18R12203   5.994   3.960   4.260 -0.1335  1.9417  1.6978
  116SAPE  H18S12204   6.020   4.112   4.170 -0.0680 -0.3238 -0.5404
  116SAPE  C21912205   6.096   3.941   4.067 -0.5827  0.5107  0.6973
  116SAPE  H19R12206   6.098   4.002   3.974 -2.2504 -0.5717 -0.1031
  116SAPE  H19S12207   6.062   3.842   4.028 -0.1318  0.6153  0.0186
  116SAPE  C22012208   6.237   3.926   4.125 -0.4014 -0.6274 -0.1443
  116SAPE  H20R12209   6.274   4.025   4.161  0.7029  0.0361 -2.8582
  116SAPE  H20S12210   6.305   3.877   4.052 -0.1918  0.8732 -1.0094
  116SAPE  H20T12211   6.249   3.858   4.212 -0.6176 -1.5169 -0.8025
  116SAPE   C3312212   5.302   4.336   3.438  0.1442 -0.0380  0.2388
  116SAPE   H3X12213   5.242   4.243   3.424  0.7455 -0.2451 -1.1388
  116SAPE   H3Y12214   5.228   4.419   3.434  1.0351  0.7426 -0.5181
  116SAPE   C3412215   5.368   4.322   3.574  0.2490 -0.4597  0.3711
  116SAPE   H4X12216   5.430   4.413   3.589  3.2151 -2.0031 -1.7073
  116SAPE   H4Y12217   5.443   4.241   3.585  1.0936  0.2833  0.2498
  116SAPE   C3512218   5.274   4.328   3.688 -0.2561  0.4235  0.5844
  116SAPE   H5X12219   5.205   4.244   3.666 -2.5197  2.8612 -2.3502
  116SAPE   H5Y12220   5.211   4.416   3.665 -1.5316 -0.9531 -1.5002
  116SAPE   C3612221   5.344   4.320   3.834 -0.5063  0.1621 -1.0534
  116SAPE   H6X12222   5.407   4.406   3.863 -1.3286 -0.3806  2.9121
  116SAPE   H6Y12223   5.430   4.250   3.838  0.2180  1.0654  2.2648
  116SAPE   C3712224   5.253   4.293   3.951  0.8260  0.5793  0.0883
  116SAPE   H7X12225   5.199   4.196   3.947 -0.6934  1.3555  0.7532
  116SAPE   H7Y12226   5.188   4.383   3.958  0.6476  0.4724 -0.1936
  116SAPE   C3812227   5.316   4.306   4.089 -0.8203 -0.4600 -0.0862
  116SAPE   H8X12228   5.391   4.388   4.089  1.0670 -2.0497 -2.0573
  116SAPE   H8Y12229   5.387   4.221   4.096  0.4869  0.6855  1.1364
  116SAPE   C3912230   5.217   4.281   4.204  0.0697  0.0436 -0.1045
  116SAPE   H9X12231   5.194   4.173   4.213 -2.3767  0.5706  0.7848
  116SAPE   H9Y12232   5.127   4.344   4.185  0.7670  1.2810  0.5870
  116SAPE  C31012233   5.275   4.328   4.336 -0.6348 -0.1531  0.0400
  116SAPE  H10X12234   5.190   4.371   4.394  0.0550  1.1235  0.1410
  116SAPE  H10Y12235   5.347   4.412   4.323  0.4383 -1.0257  0.1523
  116SAPE  C31112236   5.343   4.216   4.417 -0.2503 -0.3739 -0.2607
  116SAPE  H11X12237   5.424   4.172   4.356  0.6390  1.2576 -0.3158
  116SAPE  H11Y12238   5.271   4.135   4.442 -0.6977 -0.0981 -0.6369
  116SAPE  C31212239   5.407   4.252   4.558  0.0159  0.7020  0.0334
  116SAPE  H12X12240   5.466   4.346   4.559  0.0536  0.6876  1.4927
  116SAPE  H12Y12241   5.467   4.164   4.586  1.0774  0.6065 -2.3422
  116SAPE  C31312242   5.289   4.270   4.653 -0.2255  0.1374 -0.3919
  116SAPE  H13X12243   5.216   4.187   4.643 -0.4521  0.2026  0.6233
  116SAPE  H13Y12244   5.244   4.369   4.630  0.6713  0.7653  0.5126
  116SAPE  C31412245   5.335   4.279   4.799  0.1792 -1.1855  0.7366
  116SAPE  H14X12246   5.405   4.365   4.812  0.5852 -1.5518  1.0068
  116SAPE  H14Y12247   5.387   4.187   4.831  1.1025 -0.9115  0.0825
  116SAPE  C31512248   5.218   4.313   4.894  0.4578  0.2779  0.1165
  116SAPE  H15X12249   5.148   4.391   4.858  2.4417  1.1039 -2.1893
  116SAPE  H15Y12250   5.271   4.339   4.988 -1.3417  2.4345  0.6130
  116SAPE  C31612251   5.140   4.186   4.911  0.1800 -0.2795 -0.3316
  116SAPE  H16X12252   5.207   4.099   4.926 -1.2464 -1.7830 -2.1801
  116SAPE  H16Y12253   5.091   4.163   4.814 -2.1911  0.8459  0.5325
  116SAPE  C31712254   5.040   4.196   5.025 -0.2532 -0.2411 -0.4614
  116SAPE  H17X12255   4.967   4.274   4.995 -0.8610 -0.6785 -0.1271
  116SAPE  H17Y12256   5.091   4.211   5.123 -0.6379 -1.3435 -0.0863
  116SAPE  C31812257   4.952   4.068   5.027 -0.0796  0.2514 -0.0813
  116SAPE  H18X12258   5.018   3.986   5.061  3.0965  1.2502 -3.2856
  116SAPE  H18Y12259   4.914   4.041   4.927 -0.5829  1.5724 -0.2723
  116SAPE  H18Z12260   4.863   4.073   5.093 -1.9035  0.4939 -2.4320
  117SOPE     N12261   1.279   0.787   7.662 -0.2459  0.4415  0.0791
  117SOPE   HN112262   1.346   0.813   7.737  1.3705  0.2850 -1.2502
  117SOPE   HN212263   1.232   0.876   7.638 -2.9656 -1.0899 -0.7545
  117SOPE   HN312264   1.211   0.719   7.702  1.3513 -2.2116 -1.3921
  117SOPE   C1212265   1.344   0.718   7.549 -0.0141 -0.1593 -0.4144
  117SOPE  H12A12266   1.406   0.796   7.500 -2.0823  3.3820  2.1007
  117SOPE  H12B12267   1.263   0.697   7.477  0.7357  0.8112 -1.5726
  117SOPE   C1112268   1.432   0.596   7.603  0.0359  0.5646  0.5411
  117SOPE  H11A12269   1.507   0.574   7.524  0.4658 -0.2403  1.1586
  117SOPE  H11B12270   1.360   0.512   7.598 -0.5731  1.1059 -0.0974
  117SOPE     P12271   1.629   0.709   7.741 -0.1248 -0.0010  0.1585
  117SOPE   O1312272   1.671   0.677   7.881  0.1258  0.0586  0.5924
  117SOPE   O1412273   1.606   0.852   7.702 -0.1088 -0.1940 -0.9367
  117SOPE   O1212274   1.494   0.625   7.726 -0.1367  0.1033 -0.2790
  117SOPE   O1112275   1.722   0.646   7.627 -0.0390  0.3749  0.2375
  117SOPE    C112276   1.856   0.694   7.604 -0.3856 -0.8661  0.6170
  117SOPE    HA12277   1.924   0.615   7.567 -1.0603 -0.9665 -0.4554
  117SOPE    HB12278   1.899   0.737   7.697  1.3016 -0.3153 -0.3843
  117SOPE    C212279   1.871   0.800   7.490 -0.3968 -0.6324  0.0467
  117SOPE    HS12280   1.802   0.883   7.515 -2.2776 -1.4741 -1.9524
  117SOPE   O2112281   1.839   0.732   7.369 -0.3937 -0.6068 -0.0509
  117SOPE   C2112282   1.752   0.783   7.284 -0.2330 -0.4017 -0.6827
  117SOPE   O2212283   1.692   0.890   7.310  0.1477 -0.3302  0.2422
  117SOPE   C2212284   1.725   0.702   7.157  0.2374  0.4077 -0.5034
  117SOPE   H2R12285   1.626   0.741   7.125  0.8287  0.6823 -2.1289
  117SOPE   H2S12286   1.715   0.594   7.182  1.8936  0.3616  0.1035
  117SOPE    C312287   2.017   0.856   7.489  0.6256  0.4169  0.7919
  117SOPE    HX12288   2.096   0.780   7.509  1.2581  0.6818 -0.5293
  117SOPE    HY12289   2.016   0.929   7.573  0.1746  2.5027 -0.9200
  117SOPE   O3112290   2.051   0.918   7.356  0.3842  0.2137 -0.4062
  117SOPE   C3112291   2.009   1.037   7.348  0.0923  0.0911  0.0022
  117SOPE   O3212292   1.972   1.109   7.440 -0.1728  0.3361 -0.0159
  117SOPE   C3212293   1.996   1.084   7.200 -0.2915 -0.3813  0.0034
  117SOPE   H2X12294   1.943   1.005   7.142 -0.3571  1.5637 -2.7447
  117SOPE   H2Y12295   2.097   1.109   7.162  0.1401 -0.1880  1.2476
  117SOPE   C2312296   1.826   0.733   7.044 -0.1116 -0.6856 -0.3076
  117SOPE   H3R12297   1.913   0.669   7.072 -1.3790 -2.5247 -0.3800
  117SOPE   H3S12298   1.849   0.842   7.040 -2.2526 -0.1758 -0.1992
  117SOPE   C2412299   1.783   0.695   6.902  0.0115 -0.2472  0.4276
  117SOPE   H4R12300   1.788   0.586   6.885  0.3646  0.0318 -1.4076
  117SOPE   H4S12301   1.680   0.725   6.876 -0.0715 -1.2280 -0.4066
  117SOPE   C2512302   1.879   0.756   6.796 -0.0626 -0.3764  0.0185
  117SOPE   H5R12303   1.897   0.864   6.813 -0.0682 -0.4819  0.7199
  117SOPE   H5S12304   1.980   0.711   6.812  0.1157  0.0183  0.0176
  117SOPE   C2612305   1.836   0.732   6.652  0.4229  0.1663 -0.6607
  117SOPE   H6R12306   1.842   0.628   6.613  0.4719  0.8259 -2.5014
  117SOPE   H6S12307   1.729   0.761   6.651  1.0413  2.8684  0.8757
  117SOPE   C2712308   1.910   0.811   6.541  0.0716 -0.4794 -0.7023
  117SOPE   H7R12309   1.880   0.762   6.446 -1.6475 -1.8275  0.4741
  117SOPE   H7S12310   1.880   0.918   6.544 -1.4748 -0.8935 -0.8647
  117SOPE   C2812311   2.066   0.815   6.551 -0.0833  0.0067 -0.6382
  117SOPE   H8R12312   2.114   0.884   6.479  0.5528 -2.6253 -2.9109
  117SOPE   H8S12313   2.098   0.859   6.648 -0.5592  2.3902 -1.4919
  117SOPE   C2912314   2.129   0.678   6.529 -0.3916 -0.3109  0.1110
  117SOPE   H9112315   2.125   0.591   6.596  1.1321 -0.9162 -0.5323
  117SOPE  C21012316   2.201   0.653   6.415 -0.1289  0.8882 -0.1020
  117SOPE  H10112317   2.258   0.560   6.406  1.3248  1.4845  2.1617
  117SOPE  C21112318   2.230   0.739   6.293  0.1052 -0.7274 -0.7147
  117SOPE  H11R12319   2.337   0.768   6.294 -0.0595 -0.1141  0.0687
  117SOPE  H11S12320   2.181   0.839   6.296  1.1281 -0.2311  2.0118
  117SOPE  C21212321   2.221   0.687   6.155  0.6197  0.8845 -0.1425
  117SOPE  H12R12322   2.117   0.652   6.136  1.1272 -1.4008  0.9663
  117SOPE  H12S12323   2.279   0.594   6.139 -0.5387  0.3674 -1.6106
  117SOPE  C21312324   2.281   0.785   6.052 -0.4064 -0.2897  0.1796
  117SOPE  H13R12325   2.390   0.801   6.062 -0.2093 -1.0878 -0.5427
  117SOPE  H13S12326   2.246   0.888   6.075  2.5528  0.0073  4.5889
  117SOPE  C21412327   2.268   0.739   5.903  0.3654 -0.6459 -0.1803
  117SOPE  H14R12328   2.313   0.638   5.898  0.9345 -0.4224  0.3279
  117SOPE  H14S12329   2.319   0.806   5.831  0.8939 -1.2174 -0.3435
  117SOPE  C21512330   2.124   0.734   5.848 -0.4785  0.5655 -0.0448
  117SOPE  H15R12331   2.087   0.838   5.857 -2.1981  0.0103 -0.3831
  117SOPE  H15S12332   2.063   0.660   5.904 -0.0734 -0.2211 -0.6236
  117SOPE  C21612333   2.138   0.687   5.708  0.2554 -0.2181 -0.2484
  117SOPE  H16R12334   2.190   0.589   5.706 -0.0028 -0.3768  0.5918
  117SOPE  H16S12335   2.198   0.768   5.660  0.1694 -0.7046 -1.1992
  117SOPE  C21712336   2.007   0.683   5.633 -0.1166 -0.0212  0.0508
  117SOPE  H17R12337   1.956   0.782   5.637 -1.8748 -0.8350 -0.9395
  117SOPE  H17S12338   1.943   0.614   5.693  0.2138  0.5986  1.1540
  117SOPE  C21812339   2.022   0.633   5.490 -0.4788  0.1270  0.5265
  117SOPE  H18R12340   1.937   0.672   5.430 -0.3581  1.7857  1.3945
  117SOPE  H18S12341   2.032   0.522   5.483  2.0890  0.3809 -1.0554
  117SOPE  H18T12342   2.119   0.674   5.457  0.9985 -2.6933  1.0293
  117SOPE   C3312343   1.891   1.200   7.176  0.2792  0.0735  0.0933
  117SOPE   H3X12344   1.919   1.289   7.236 -0.1386 -0.2588  0.8015
  117SOPE   H3Y12345   1.801   1.167   7.232  1.1271 -0.7081  1.0265
  117SOPE   C3412346   1.859   1.218   7.031 -0.0848  0.6542  0.0175
  117SOPE   H4X12347   1.825   1.322   7.010 -2.3863  0.4535  2.3484
  117SOPE   H4Y12348   1.775   1.153   6.999  0.0635  0.7661 -0.6200
  117SOPE   C3512349   1.984   1.206   6.938 -0.2436 -0.3001  0.3828
  117SOPE   H5X12350   2.019   1.101   6.945 -0.1802 -0.2635  0.6090
  117SOPE   H5Y12351   2.063   1.281   6.964 -0.4180  0.6628 -1.6239
  117SOPE   C3612352   1.937   1.224   6.794 -0.4592  0.1348  0.2250
  117SOPE   H6X12353   1.863   1.307   6.787  0.4364  0.9460  0.1656
  117SOPE   H6Y12354   1.892   1.130   6.758  0.5250 -0.5185  0.6583
  117SOPE   C3712355   2.057   1.256   6.706  0.0948  1.1400  0.1384
  117SOPE   H7X12356   2.140   1.186   6.730 -0.5312  1.1234  2.5005
  117SOPE   H7Y12357   2.089   1.353   6.749 -0.6923  0.7374  1.6756
  117SOPE   C3812358   2.019   1.258   6.567 -0.3733 -0.2372  0.1580
  117SOPE   H8X12359   1.950   1.344   6.555  0.2970  0.3407  0.3905
  117SOPE   H8Y12360   1.962   1.168   6.534 -0.7216  0.2348 -0.5398
  117SOPE   C3912361   2.137   1.264   6.473  0.0147 -0.6905 -0.3097
  117SOPE   H9X12362   2.213   1.183   6.481 -0.1150 -1.1393 -2.7580
  117SOPE   H9Y12363   2.186   1.357   6.508 -0.1415 -1.8013  3.2653
  117SOPE  C31012364   2.095   1.264   6.327 -0.1586 -0.1460  0.6087
  117SOPE  H10X12365   2.181   1.300   6.268  1.3091  0.5875  3.0480
  117SOPE  H10Y12366   2.017   1.342   6.311  1.0859  0.9105 -0.4951
  117SOPE  C31112367   2.059   1.128   6.277  0.2162 -0.3036  0.4398
  117SOPE  H11X12368   1.996   1.070   6.348  0.1043 -1.2439 -0.4057
  117SOPE  H11Y12369   2.152   1.071   6.255  1.9812  2.5490  0.0972
  117SOPE  C31212370   1.987   1.140   6.142  0.7861  0.1683  0.9298
  117SOPE  H12X12371   2.043   1.199   6.066  1.8191 -0.8412  0.8975
  117SOPE  H12Y12372   1.891   1.193   6.164  0.7920 -0.1677  1.7942
  117SOPE  C31312373   1.957   1.010   6.069 -0.3552  0.2095 -0.3081
  117SOPE  H13X12374   1.906   0.939   6.137  1.1666  1.9380  2.8745
  117SOPE  H13Y12375   2.053   0.961   6.043  0.5454  1.6131  0.2211
  117SOPE  C31412376   1.870   1.027   5.937 -0.6784  0.1260  0.2860
  117SOPE  H14X12377   1.774   1.076   5.964 -0.8982  1.6382 -2.8626
  117SOPE  H14Y12378   1.835   0.927   5.904 -0.4827 -0.1863  0.9924
  117SOPE  C31512379   1.931   1.107   5.822  0.2164  0.4233 -0.3742
  117SOPE  H15X12380   2.006   1.047   5.767 -1.5219 -0.9276 -1.3840
  117SOPE  H15Y12381   1.978   1.199   5.862  1.7868 -1.0985  1.4662
  117SOPE  C31612382   1.823   1.152   5.722 -0.0423 -0.1311  0.6015
  117SOPE  H16X12383   1.736   1.194   5.778  0.9834  2.1623  0.5895
  117SOPE  H16Y12384   1.791   1.057   5.675  1.1630 -0.4440  0.3903
  117SOPE  C31712385   1.868   1.241   5.610 -0.4614 -0.1526 -0.2676
  117SOPE  H17X12386   1.939   1.185   5.545 -3.0044  0.5756 -3.9785
  117SOPE  H17Y12387   1.901   1.335   5.660  0.4772 -0.6493  0.0848
  117SOPE  C31812388   1.751   1.267   5.523  0.7970  0.1985  0.3372
  117SOPE  H18X12389   1.706   1.174   5.484  1.2856  0.1865 -0.2036
  117SOPE  H18Y12390   1.796   1.335   5.448  0.0097  0.1308 -0.2072
  117SOPE  H18Z12391   1.668   1.312   5.582  1.5296 -1.5947  2.9676
  118SOPE     N12392   3.411   1.873   7.806 -0.4885 -0.1237  0.1449
  118SOPE   HN112393   3.499   1.847   7.755 -1.0938  0.2129 -1.1207
  118SOPE   HN212394   3.339   1.898   7.736  0.6290  0.7655 -0.7373
  118SOPE   HN312395   3.436   1.956   7.864  0.3710  1.0026 -1.7158
  118SOPE   C1212396   3.366   1.760   7.902  0.3687  0.4384 -0.5038
  118SOPE  H12A12397   3.398   1.662   7.860  1.7207  0.5173  0.2807
  118SOPE  H12B12398   3.255   1.757   7.915  0.3050 -2.4753 -0.9264
  118SOPE   C1112399   3.448   1.776   8.029  0.5681  0.1398 -0.1967
  118SOPE  H11A12400   3.448   1.682   8.089  2.5807 -0.0618 -0.4364
  118SOPE  H11B12401   3.407   1.859   8.090  1.3661  0.8029 -0.5530
  118SOPE     P12402   3.695   1.695   7.972  0.0378  0.0567 -0.3727
  118SOPE   O1312403   3.718   1.617   8.096  0.4741 -0.6475  0.4627
  118SOPE   O1412404   3.811   1.772   7.922 -0.3521 -0.1545  0.0731
  118SOPE   O1212405   3.585   1.800   7.995 -0.0899  0.6144 -0.0517
  118SOPE   O1112406   3.624   1.610   7.867 -0.2220 -0.5596 -0.1065
  118SOPE    C112407   3.635   1.467   7.864 -0.3834 -0.0534  0.2253
  118SOPE    HA12408   3.545   1.426   7.812 -0.2931 -1.0951  0.8581
  118SOPE    HB12409   3.632   1.433   7.970 -0.4092 -0.5476  0.0706
  118SOPE    C212410   3.760   1.408   7.794  0.2514 -0.3685  0.7383
  118SOPE    HS12411   3.846   1.408   7.864  2.1948  1.5152 -1.5014
  118SOPE   O2112412   3.787   1.494   7.684 -0.5376  0.2605 -0.4855
  118SOPE   C2112413   3.891   1.464   7.615 -0.5860  0.1490  0.0615
  118SOPE   O2212414   3.982   1.384   7.650 -0.0034 -0.0751  0.7806
  118SOPE   C2212415   3.879   1.542   7.489  0.2791 -0.1842  0.2162
  118SOPE   H2R12416   3.968   1.608   7.480  0.0119  0.3896  1.5102
  118SOPE   H2S12417   3.795   1.613   7.502  1.3387  1.2745 -0.6669
  118SOPE    C312418   3.743   1.258   7.737  0.0237 -0.3136  0.9349
  118SOPE    HX12419   3.714   1.197   7.826  0.5425  0.5304  1.6996
  118SOPE    HY12420   3.843   1.214   7.719 -0.2030 -0.3266 -0.3905
  118SOPE   O3112421   3.656   1.250   7.621  0.1532  0.4522  0.0561
  118SOPE   C3112422   3.564   1.155   7.621 -0.4919 -0.3629 -0.1422
  118SOPE   O3212423   3.555   1.061   7.701  0.2162 -0.4273  0.1941
  118SOPE   C3212424   3.479   1.183   7.504  0.3657  0.5174 -0.1186
  118SOPE   H2X12425   3.541   1.206   7.414 -0.4106 -0.4522 -0.9272
  118SOPE   H2Y12426   3.436   1.282   7.530  0.5461  1.0084 -1.5562
  118SOPE   C2312427   3.870   1.447   7.362  0.1920 -0.8301  0.2295
  118SOPE   H3R12428   3.935   1.358   7.370  0.7177 -0.6479 -1.4873
  118SOPE   H3S12429   3.906   1.505   7.274  0.4224 -0.4448  0.5684
  118SOPE   C2412430   3.729   1.420   7.312  0.1681  0.2229  0.2568
  118SOPE   H4R12431   3.657   1.406   7.395  0.2228  3.1104  0.9137
  118SOPE   H4S12432   3.696   1.510   7.256 -1.0118  0.4973  1.3406
  118SOPE   C2512433   3.729   1.288   7.223 -0.1306 -0.9084  0.8435
  118SOPE   H5R12434   3.752   1.198   7.284 -0.3859 -1.2967  0.3766
  118SOPE   H5S12435   3.629   1.272   7.177  0.8004  3.6674 -3.6414
  118SOPE   C2612436   3.820   1.298   7.094  0.1815 -0.4111  0.3598
  118SOPE   H6R12437   3.789   1.391   7.041 -0.6101 -0.1498  1.2627
  118SOPE   H6S12438   3.926   1.313   7.123 -0.8058  1.5951  3.4066
  118SOPE   C2712439   3.799   1.181   6.993  0.0825  0.0733  0.0133
  118SOPE   H7R12440   3.819   1.084   7.043 -0.5498  0.9308  2.0319
  118SOPE   H7S12441   3.694   1.181   6.958  0.3795 -1.7441 -0.9894
  118SOPE   C2812442   3.903   1.190   6.880 -0.7627 -0.1617 -0.4778
  118SOPE   H8R12443   3.909   1.297   6.848  1.4411  0.4730  1.7686
  118SOPE   H8S12444   4.005   1.172   6.918 -1.3567 -3.8011 -0.3022
  118SOPE   C2912445   3.890   1.096   6.759 -0.5551 -0.2934  0.7954
  118SOPE   H9112446   3.896   0.988   6.779  0.4618  0.1188  2.9691
  118SOPE  C21012447   3.841   1.122   6.640  0.0187  0.4994  0.4728
  118SOPE  H10112448   3.834   1.042   6.565  1.3380 -0.0208  0.8814
  118SOPE  C21112449   3.789   1.259   6.591 -0.7882 -0.0949  0.2197
  118SOPE  H11R12450   3.823   1.287   6.489 -0.0916  1.6348  0.8936
  118SOPE  H11S12451   3.798   1.335   6.671  2.1601 -0.2036  0.0932
  118SOPE  C21212452   3.637   1.227   6.565 -0.5715 -0.3129  0.0567
  118SOPE  H12R12453   3.584   1.202   6.659  2.8905 -1.7704  1.7903
  118SOPE  H12S12454   3.639   1.140   6.495  1.6629  0.5388 -1.0443
  118SOPE  C21312455   3.572   1.348   6.493  0.3598  0.0701  0.7728
  118SOPE  H13R12456   3.633   1.380   6.406  0.2397  1.3256  1.1332
  118SOPE  H13S12457   3.578   1.437   6.559 -1.9461 -0.1377  1.3468
  118SOPE  C21412458   3.427   1.339   6.456  0.4098  0.4622 -0.2382
  118SOPE  H14R12459   3.366   1.345   6.548 -0.7359 -0.8979 -0.8706
  118SOPE  H14S12460   3.407   1.245   6.400  1.5481 -0.8235  1.4406
  118SOPE  C21512461   3.390   1.458   6.367 -0.1533  0.1283 -0.2946
  118SOPE  H15R12462   3.440   1.549   6.406 -0.4938  0.7783 -1.3397
  118SOPE  H15S12463   3.281   1.479   6.373 -0.0535  0.3144  1.6145
  118SOPE  C21612464   3.427   1.439   6.215  0.4731 -0.5451  0.5285
  118SOPE  H16R12465   3.338   1.434   6.148  1.0647 -1.0458 -0.2377
  118SOPE  H16S12466   3.465   1.335   6.207 -1.2789 -1.0870 -2.3540
  118SOPE  C21712467   3.529   1.544   6.159 -0.8958 -0.3453 -0.7778
  118SOPE  H17R12468   3.617   1.554   6.226  1.8192  1.7566 -4.3537
  118SOPE  H17S12469   3.487   1.647   6.157  2.3708  1.1527  0.2318
  118SOPE  C21812470   3.580   1.535   6.017 -0.2367 -0.8669  0.1889
  118SOPE  H18R12471   3.653   1.614   5.991 -0.8341 -0.5488 -0.5605
  118SOPE  H18S12472   3.494   1.546   5.948  0.1829  1.8994  0.0049
  118SOPE  H18T12473   3.623   1.434   6.001 -0.2106 -0.6591 -1.1518
  118SOPE   C3312474   3.376   1.078   7.467 -0.7507 -0.0464 -0.3470
  118SOPE   H3X12475   3.326   1.025   7.551 -1.3485 -1.0960 -1.3287
  118SOPE   H3Y12476   3.426   0.999   7.407 -2.3376 -0.0881 -1.6912
  118SOPE   C3412477   3.274   1.120   7.353 -0.4070 -0.3459 -0.4765
  118SOPE   H4X12478   3.332   1.159   7.267  2.0195 -2.1749  0.2012
  118SOPE   H4Y12479   3.225   1.206   7.402 -0.8367 -1.6114  1.4245
  118SOPE   C3512480   3.188   1.015   7.290 -0.2721 -0.6422 -0.2454
  118SOPE   H5X12481   3.137   0.948   7.363  0.1088 -0.5036  0.1531
  118SOPE   H5Y12482   3.248   0.950   7.223 -0.7001  0.9206 -2.2256
  118SOPE   C3612483   3.081   1.083   7.193 -1.1970 -0.4764 -0.3914
  118SOPE   H6X12484   3.130   1.152   7.121 -1.4906 -0.0973 -0.2283
  118SOPE   H6Y12485   3.007   1.150   7.240 -2.1893 -2.1075  0.4629
  118SOPE   C3712486   2.980   0.989   7.128 -0.5989  0.2172 -0.0732
  118SOPE   H7X12487   2.930   0.944   7.216 -0.5286  0.8272  0.2813
  118SOPE   H7Y12488   3.030   0.909   7.068  0.9422  1.7450 -0.9252
  118SOPE   C3812489   2.892   1.061   7.036  0.6783 -0.7217  0.3190
  118SOPE   H8X12490   2.842   1.148   7.085  2.2765  0.2284  0.3479
  118SOPE   H8Y12491   2.807   1.003   6.995  1.6169  0.0824 -3.0674
  118SOPE   C3912492   2.959   1.105   6.913 -0.3383  0.8301  0.4932
  118SOPE   H9X12493   2.990   1.018   6.851  0.1493  1.7407 -0.5764
  118SOPE   H9Y12494   3.056   1.154   6.934 -0.2216  1.0517 -0.4874
  118SOPE  C31012495   2.874   1.190   6.822  0.6010  0.2011  0.1013
  118SOPE  H10X12496   2.839   1.273   6.887 -0.6438 -1.2653  1.3978
  118SOPE  H10Y12497   2.790   1.127   6.784  1.7230 -0.5543 -1.1923
  118SOPE  C31112498   2.948   1.247   6.701 -0.4228 -0.1017 -0.3713
  118SOPE  H11X12499   2.996   1.159   6.654  1.4994  1.0381 -0.6505
  118SOPE  H11Y12500   3.029   1.313   6.738 -0.2164 -0.8738  0.6159
  118SOPE  C31212501   2.861   1.299   6.590  0.4478  0.0974  0.6464
  118SOPE  H12X12502   2.808   1.393   6.616 -4.6824 -1.6952 -1.8657
  118SOPE  H12Y12503   2.795   1.214   6.561  0.6239  0.6279 -1.5179
  118SOPE  C31312504   2.935   1.342   6.458  0.1151 -0.8481 -0.6184
  118SOPE  H13X12505   3.000   1.430   6.481  0.5999 -1.1396 -0.8704
  118SOPE  H13Y12506   2.855   1.387   6.394  0.5154  1.1855  0.2266
  118SOPE  C31412507   3.008   1.232   6.385  0.4189  0.4637 -0.4330
  118SOPE  H14X12508   2.953   1.135   6.388 -0.3309  0.9103  0.6690
  118SOPE  H14Y12509   3.100   1.206   6.442  0.2944  3.0233  1.0747
  118SOPE  C31512510   3.041   1.258   6.237 -0.0740 -0.2042  0.3741
  118SOPE  H15X12511   3.121   1.189   6.204 -1.2865 -0.2192 -2.8662
  118SOPE  H15Y12512   3.073   1.364   6.224  1.4116 -0.7589 -0.8574
  118SOPE  C31612513   2.928   1.229   6.139 -0.0810  0.1754 -0.2097
  118SOPE  H16X12514   2.842   1.290   6.175  1.1626  1.9746 -0.1582
  118SOPE  H16Y12515   2.907   1.121   6.152 -0.1429  0.1044 -0.8848
  118SOPE  C31712516   2.959   1.262   5.993  0.4962  0.3325  0.2778
  118SOPE  H17X12517   2.933   1.368   5.975  1.5809  0.3738 -1.2215
  118SOPE  H17Y12518   2.884   1.212   5.928  0.1076  0.7151  0.4228
  118SOPE  C31812519   3.097   1.223   5.941  0.7553  0.0527 -0.1729
  118SOPE  H18X12520   3.092   1.233   5.831  3.1417 -0.6894 -0.3912
  118SOPE  H18Y12521   3.128   1.118   5.956 -0.6205 -0.4773 -0.8322
  118SOPE  H18Z12522   3.178   1.288   5.980  0.1468  0.6663  0.1052
  119SOPE     N12523   5.872   0.729   7.554  0.2761  1.0659 -0.3459
  119SOPE   HN112524   5.888   0.627   7.544 -1.2861  0.8052 -0.4090
  119SOPE   HN212525   5.770   0.739   7.571  0.1252  0.9732 -1.1788
  119SOPE   HN312526   5.894   0.771   7.462 -0.1593 -0.8480 -1.3625
  119SOPE   C1212527   5.941   0.807   7.655 -0.2187  0.1462  0.7989
  119SOPE  H12A12528   6.046   0.826   7.625 -1.1709  1.7673 -1.7448
  119SOPE  H12B12529   5.942   0.744   7.747 -2.7311  0.0014  0.7776
  119SOPE   C1112530   5.875   0.939   7.687  0.1703 -0.5767  0.6367
  119SOPE  H11A12531   5.936   1.001   7.756 -0.4114  0.6745  0.0436
  119SOPE  H11B12532   5.783   0.915   7.746  0.3125 -0.0971  1.0606
  119SOPE     P12533   5.962   1.107   7.511 -0.3341  0.0837 -0.3151
  119SOPE   O1312534   6.075   1.023   7.480  0.3335  0.1686  0.2753
  119SOPE   O1412535   5.985   1.218   7.605  0.2667 -0.0236 -0.4006
  119SOPE   O1212536   5.839   1.020   7.576  0.4712  0.3857  0.0681
  119SOPE   O1112537   5.892   1.166   7.383 -0.3847  0.7096  0.0079
  119SOPE    C112538   5.764   1.240   7.407 -0.4790 -0.0726  0.6482
  119SOPE    HA12539   5.749   1.316   7.327 -0.7313 -0.6896  0.1072
  119SOPE    HB12540   5.764   1.305   7.497 -0.8856 -0.8337  1.2028
  119SOPE    C212541   5.639   1.152   7.398  0.2493  0.0904 -0.6133
  119SOPE    HS12542   5.655   1.049   7.438 -3.0555 -0.6090 -0.7362
  119SOPE   O2112543   5.580   1.137   7.270  0.7838  0.4785  0.1980
  119SOPE   C2112544   5.649   1.072   7.173 -0.2955 -0.0720  0.5448
  119SOPE   O2212545   5.753   1.011   7.192 -0.4995 -0.0064  0.4409
  119SOPE   C2212546   5.581   1.088   7.038 -0.1453 -0.3692  0.2653
  119SOPE   H2R12547   5.607   1.191   7.003 -1.6212  0.0317  0.3099
  119SOPE   H2S12548   5.471   1.078   7.031 -0.3430  1.3894  0.4175
  119SOPE    C312549   5.525   1.207   7.496 -0.2596  0.0457 -0.0630
  119SOPE    HX12550   5.527   1.314   7.465 -0.0672 -0.8200 -3.5650
  119SOPE    HY12551   5.556   1.194   7.601 -1.4208  1.8528  0.5515
  119SOPE   O3112552   5.390   1.150   7.473 -0.3131 -0.2674 -0.1787
  119SOPE   C3112553   5.357   1.058   7.558  1.0801 -0.3631  0.1513
  119SOPE   O3212554   5.434   0.999   7.636  0.0001 -0.2031 -0.5405
  119SOPE   C3212555   5.215   1.014   7.536 -0.5008  0.4777  0.3652
  119SOPE   H2X12556   5.153   1.093   7.489 -2.7658 -0.3705  1.7672
  119SOPE   H2Y12557   5.170   1.003   7.638 -3.8783 -0.1555 -1.0600
  119SOPE   C2312558   5.630   0.985   6.928  0.4932  0.1172  0.1217
  119SOPE   H3R12559   5.606   0.886   6.974  1.0170 -0.9115 -1.7225
  119SOPE   H3S12560   5.737   1.001   6.904 -0.2063  0.3054 -3.3134
  119SOPE   C2412561   5.560   0.992   6.792  0.7039  0.5728 -0.4633
  119SOPE   H4R12562   5.453   0.989   6.818  0.5325 -0.7825 -1.2238
  119SOPE   H4S12563   5.582   1.082   6.730  1.5193 -0.1372 -1.2530
  119SOPE   C2512564   5.566   0.863   6.714 -0.1677  0.8028 -0.1327
  119SOPE   H5R12565   5.674   0.843   6.698  0.1847  1.7327  0.9433
  119SOPE   H5S12566   5.510   0.784   6.769  1.8654 -0.2610  0.4863
  119SOPE   C2612567   5.489   0.871   6.586  0.8148 -0.3756  0.3401
  119SOPE   H6R12568   5.488   0.775   6.530 -2.4647  1.4795 -3.2708
  119SOPE   H6S12569   5.388   0.908   6.613  1.2737  1.5156 -0.3792
  119SOPE   C2712570   5.549   0.970   6.481 -0.0286  0.5910 -0.5547
  119SOPE   H7R12571   5.523   1.073   6.514  0.8757  0.9252 -0.8728
  119SOPE   H7S12572   5.658   0.953   6.487 -0.1343 -0.0595 -0.3159
  119SOPE   C2812573   5.482   0.946   6.342 -0.0448 -0.1727  0.1117
  119SOPE   H8R12574   5.476   0.838   6.315  0.8621 -0.4959  1.1226
  119SOPE   H8S12575   5.381   0.981   6.369  0.1462 -1.4748  2.8575
  119SOPE   C2912576   5.571   1.008   6.233  0.9481 -0.6883 -0.2058
  119SOPE   H9112577   5.679   1.015   6.252  0.7871  0.8660  0.3237
  119SOPE  C21012578   5.533   1.080   6.125  0.3537 -0.3173 -0.1907
  119SOPE  H10112579   5.613   1.120   6.060 -1.2105  4.0015  0.2551
  119SOPE  C21112580   5.390   1.099   6.081 -0.4353  0.4886  0.0212
  119SOPE  H11R12581   5.374   1.206   6.058 -0.1753  0.2553 -1.3210
  119SOPE  H11S12582   5.321   1.051   6.153 -1.9376  1.0592 -0.9959
  119SOPE  C21212583   5.373   1.028   5.933  0.3666  0.5500  0.2090
  119SOPE  H12R12584   5.271   1.046   5.894 -0.1941 -2.3318  0.0980
  119SOPE  H12S12585   5.363   0.921   5.961  0.5930  0.4605 -0.0408
  119SOPE  C21312586   5.475   1.071   5.828 -0.5341  0.2066  0.3412
  119SOPE  H13R12587   5.471   0.989   5.753 -0.3128  1.1324 -0.6987
  119SOPE  H13S12588   5.582   1.084   5.855 -0.5804 -0.6996  1.0184
  119SOPE  C21412589   5.437   1.202   5.756  0.1153 -0.1437  0.9257
  119SOPE  H14R12590   5.403   1.270   5.837  2.2063 -0.2780  1.9652
  119SOPE  H14S12591   5.336   1.175   5.718 -1.1492  0.0047  3.9156
  119SOPE  C21512592   5.546   1.260   5.665  0.5585  0.1541 -0.2356
  119SOPE  H15R12593   5.630   1.291   5.730 -0.4419  0.8002  0.7833
  119SOPE  H15S12594   5.508   1.353   5.617 -1.1646  0.8180  2.2330
  119SOPE  C21612595   5.601   1.155   5.562  0.3331 -0.1527 -0.3201
  119SOPE  H16R12596   5.513   1.120   5.505 -1.0688 -0.3615  1.8358
  119SOPE  H16S12597   5.652   1.071   5.614 -1.4544  0.2521  2.2465
  119SOPE  C21712598   5.709   1.218   5.466  0.0134  0.4436  0.0448
  119SOPE  H17R12599   5.739   1.136   5.398 -2.1621  0.1587 -0.6582
  119SOPE  H17S12600   5.797   1.247   5.527  0.0637  1.5707 -0.5564
  119SOPE  C21812601   5.667   1.341   5.395  0.1369 -0.2476 -0.3540
  119SOPE  H18R12602   5.751   1.381   5.334 -0.1896  0.5943 -0.2656
  119SOPE  H18S12603   5.646   1.419   5.471 -1.1923 -0.4399 -0.4930
  119SOPE  H18T12604   5.573   1.337   5.335 -0.6369 -1.1792  0.8846
  119SOPE   C3312605   5.189   0.884   7.444  0.0442  0.0185 -0.0244
  119SOPE   H3X12606   5.081   0.862   7.457  0.2688 -1.0435  0.2382
  119SOPE   H3Y12607   5.258   0.806   7.482  1.7384  0.9797 -1.0307
  119SOPE   C3412608   5.209   0.909   7.298 -0.7228  0.7054  0.1283
  119SOPE   H4X12609   5.189   0.816   7.240 -0.7547 -1.1335  2.8557
  119SOPE   H4Y12610   5.315   0.937   7.280 -1.4171  3.1456 -0.4545
  119SOPE   C3512611   5.122   1.019   7.229  0.5845 -0.5027 -0.2630
  119SOPE   H5X12612   5.152   1.126   7.233  2.8747 -1.1162  1.6369
  119SOPE   H5Y12613   5.027   1.018   7.287  1.9786 -0.2907  2.1461
  119SOPE   C3612614   5.075   0.993   7.092 -0.2276 -0.5412  0.4859
  119SOPE   H6X12615   5.012   1.074   7.048 -0.4680  0.3334  2.3450
  119SOPE   H6Y12616   5.009   0.903   7.081 -0.0692 -0.5960 -0.0674
  119SOPE   C3712617   5.189   0.973   6.990  1.4059  0.3398 -0.4607
  119SOPE   H7X12618   5.268   0.906   7.030  0.8586 -1.3739 -2.1382
  119SOPE   H7Y12619   5.227   1.078   6.982  2.6834 -0.0798 -0.1876
  119SOPE   C3812620   5.143   0.908   6.862 -0.3583  0.2750 -0.2122
  119SOPE   H8X12621   5.046   0.857   6.881 -0.4813  0.0442 -1.3618
  119SOPE   H8Y12622   5.213   0.833   6.820 -0.4536 -0.0789  0.2627
  119SOPE   C3912623   5.114   1.001   6.745  0.5072 -0.0080 -0.3939
  119SOPE   H9X12624   5.212   1.051   6.723  0.1269  0.5184 -0.9477
  119SOPE   H9Y12625   5.042   1.077   6.782  0.1267 -1.1533  1.3040
  119SOPE  C31012626   5.086   0.917   6.621  0.1015  0.4080 -0.0164
  119SOPE  H10X12627   5.007   0.840   6.635 -0.4438  1.4688  3.6412
  119SOPE  H10Y12628   5.177   0.857   6.597 -0.3043  0.6798 -2.5362
  119SOPE  C31112629   5.044   0.998   6.498  0.0329 -0.1353 -0.2602
  119SOPE  H11X12630   5.117   1.080   6.486 -0.7663  0.4408 -1.3893
  119SOPE  H11Y12631   4.941   1.038   6.513 -0.5440 -2.5540  3.7594
  119SOPE  C31212632   5.044   0.928   6.362 -0.1565  0.4559  0.3128
  119SOPE  H12X12633   4.974   0.843   6.379 -1.0054  1.1759  0.4909
  119SOPE  H12Y12634   5.136   0.873   6.333  1.3836  2.3462  1.4149
  119SOPE  C31312635   4.992   1.011   6.247 -0.0365 -0.5348 -0.3964
  119SOPE  H13X12636   5.059   1.097   6.221 -0.0065 -0.0828  1.0792
  119SOPE  H13Y12637   4.894   1.057   6.272  0.3660  1.8724 -2.8174
  119SOPE  C31412638   4.972   0.929   6.117 -0.4405 -0.1475 -0.8657
  119SOPE  H14X12639   4.883   0.864   6.129 -0.2434 -0.1672  0.6829
  119SOPE  H14Y12640   5.057   0.860   6.098  0.2265  0.7224 -1.0894
  119SOPE  C31512641   4.954   1.030   6.003 -0.0738  0.0202 -0.9315
  119SOPE  H15X12642   5.051   1.085   6.010  0.2509 -0.7097  0.6191
  119SOPE  H15Y12643   4.869   1.093   6.036 -1.6197 -1.6139 -1.6537
  119SOPE  C31612644   4.925   0.966   5.870 -0.6138 -0.4382  0.0255
  119SOPE  H16X12645   4.839   0.895   5.877 -1.5113  0.2247 -2.8371
  119SOPE  H16Y12646   5.013   0.913   5.828 -1.1781 -0.4338 -1.1875
  119SOPE  C31712647   4.888   1.069   5.758  0.4022 -0.0293 -0.0332
  119SOPE  H17X12648   4.977   1.134   5.743  1.0105 -0.6064  0.9752
  119SOPE  H17Y12649   4.794   1.120   5.788 -0.4594 -1.1589 -0.7646
  119SOPE  C31812650   4.852   1.000   5.620  0.2859 -0.0527 -0.5919
  119SOPE  H18X12651   4.750   0.956   5.620  0.0412  0.4266  1.1607
  119SOPE  H18Y12652   4.921   0.919   5.588  2.0990  0.8940  0.6670
  119SOPE  H18Z12653   4.859   1.081   5.544 -0.5626  1.2507  0.6691
  120SOPE     N12654   3.269   6.052   7.280 -0.1781  0.4838 -0.7278
  120SOPE   HN112655   3.352   6.114   7.275  1.1721 -1.2725 -0.9128
  120SOPE   HN212656   3.182   6.107   7.296 -1.1254 -0.8450 -1.1569
  120SOPE   HN312657   3.292   5.987   7.358 -0.1921 -1.6249 -2.3979
  120SOPE   C1212658   3.255   5.965   7.161 -0.1332 -0.9107  0.3170
  120SOPE  H12A12659   3.196   6.012   7.079  1.4960  0.0365 -0.3673
  120SOPE  H12B12660   3.199   5.873   7.188 -2.1510 -0.2236 -1.2669
  120SOPE   C1112661   3.401   5.928   7.108  0.3590 -0.2968 -0.4545
  120SOPE  H11A12662   3.448   6.017   7.061  0.2473  0.1666  0.2854
  120SOPE  H11B12663   3.377   5.853   7.030 -1.6993 -2.2066  1.8500
  120SOPE     P12664   3.567   5.758   7.258  0.0885 -0.4273 -0.1392
  120SOPE   O1312665   3.502   5.693   7.377  0.1492  0.0842  0.0672
  120SOPE   O1412666   3.708   5.795   7.286 -0.0853 -0.0183 -0.3544
  120SOPE   O1212667   3.483   5.889   7.224 -0.4516  0.3226  0.3777
  120SOPE   O1112668   3.545   5.662   7.136  0.6793 -0.4067  0.3034
  120SOPE    C112669   3.535   5.525   7.143 -0.3856 -0.4388 -0.3281
  120SOPE    HA12670   3.445   5.496   7.202  0.0179 -4.1724 -1.2918
  120SOPE    HB12671   3.623   5.475   7.187 -0.3836 -0.9749 -0.9371
  120SOPE    C212672   3.509   5.473   7.003 -0.2887  0.0077 -0.1790
  120SOPE    HS12673   3.509   5.362   6.999 -1.3318 -0.0249  0.4989
  120SOPE   O2112674   3.591   5.525   6.905  0.1887 -0.9031  0.6353
  120SOPE   C2112675   3.726   5.525   6.919  0.0661 -0.6209 -0.2270
  120SOPE   O2212676   3.794   5.471   7.002  0.2440 -0.0025  0.5211
  120SOPE   C2212677   3.782   5.586   6.794  0.0111  0.3768  0.0195
  120SOPE   H2R12678   3.744   5.691   6.788  0.8485  0.8844  2.2085
  120SOPE   H2S12679   3.753   5.526   6.706  1.9568 -0.7099  0.0848
  120SOPE    C312680   3.357   5.506   6.956 -0.4243 -0.2035  0.3662
  120SOPE    HX12681   3.351   5.617   6.952  1.2767 -0.1087 -0.8663
  120SOPE    HY12682   3.280   5.469   7.026 -1.7915  0.0051 -0.9822
  120SOPE   O3112683   3.335   5.463   6.820  0.6862  0.3221 -0.6252
  120SOPE   C3112684   3.325   5.334   6.800  0.3695 -0.2692 -0.2739
  120SOPE   O3212685   3.348   5.250   6.886 -0.6585  0.3650  0.4495
  120SOPE   C3212686   3.284   5.290   6.651  0.0459  0.3662 -0.1330
  120SOPE   H2X12687   3.377   5.316   6.597  0.5922 -0.5092  0.3627
  120SOPE   H2Y12688   3.205   5.359   6.614 -0.3594  0.3173  0.6327
  120SOPE   C2312689   3.939   5.592   6.797  0.0477  0.5997 -0.1613
  120SOPE   H3R12690   3.969   5.488   6.820 -2.0817  0.1041  0.6206
  120SOPE   H3S12691   3.972   5.667   6.871 -1.5804 -1.2277  2.5885
  120SOPE   C2412692   4.008   5.651   6.666 -0.6068  0.3572 -0.5310
  120SOPE   H4R12693   4.018   5.761   6.677  1.3087  0.0626  1.1221
  120SOPE   H4S12694   4.112   5.611   6.662 -0.3596  0.8672  0.6432
  120SOPE   C2512695   3.934   5.618   6.538  0.0200 -0.4585 -0.2132
  120SOPE   H5R12696   3.924   5.508   6.524 -1.7741 -0.2550 -0.8177
  120SOPE   H5S12697   3.837   5.673   6.537  0.9600  1.2826 -1.6949
  120SOPE   C2612698   4.010   5.680   6.419 -0.1278  0.1122 -0.2951
  120SOPE   H6R12699   4.052   5.778   6.452 -0.2817 -0.1631  0.7579
  120SOPE   H6S12700   4.095   5.613   6.397  0.8114  0.8789  0.8763
  120SOPE   C2712701   3.926   5.686   6.296  0.2297 -0.5227  0.3454
  120SOPE   H7R12702   3.891   5.585   6.264 -0.2023  0.0623 -1.1375
  120SOPE   H7S12703   3.833   5.743   6.318 -0.3197 -1.8272  1.6006
  120SOPE   C2812704   4.002   5.743   6.175  0.1958  0.0116 -0.0527
  120SOPE   H8R12705   4.037   5.846   6.200 -0.6767  0.1743  0.5596
  120SOPE   H8S12706   4.086   5.678   6.145 -0.7996 -1.5026  0.3544
  120SOPE   C2912707   3.895   5.756   6.059 -0.0638  0.0182  0.5712
  120SOPE   H9112708   3.812   5.825   6.079 -0.2110  0.7450 -2.1722
  120SOPE  C21012709   3.904   5.686   5.936 -1.1208  0.6132 -0.2752
  120SOPE  H10112710   3.832   5.692   5.854 -1.7781 -1.3806  0.0906
  120SOPE  C21112711   4.028   5.603   5.908  0.3322 -0.6542 -0.4987
  120SOPE  H11R12712   4.017   5.502   5.953  0.1498 -0.6977 -0.6420
  120SOPE  H11S12713   4.123   5.651   5.941 -0.0906  0.4664 -0.8652
  120SOPE  C21212714   4.052   5.589   5.754  0.3024 -0.1218 -0.8063
  120SOPE  H12R12715   3.972   5.517   5.728 -1.9098  1.4376  1.2427
  120SOPE  H12S12716   4.155   5.548   5.741 -0.0074 -2.3156  2.4438
  120SOPE  C21312717   4.054   5.719   5.672 -0.1631 -0.3670  0.1324
  120SOPE  H13R12718   4.135   5.783   5.712 -0.1948 -0.2667  0.0357
  120SOPE  H13S12719   3.963   5.780   5.688  0.6174  0.7722  0.3882
  120SOPE  C21412720   4.079   5.693   5.524  1.1279 -0.3808 -0.0599
  120SOPE  H14R12721   3.983   5.666   5.475 -0.0858  1.5826  1.0984
  120SOPE  H14S12722   4.159   5.618   5.509  0.8700 -0.2022 -2.9898
  120SOPE  C21512723   4.127   5.828   5.460 -0.3073 -0.6802 -0.4599
  120SOPE  H15R12724   4.210   5.865   5.524  0.2133  0.9419 -1.9778
  120SOPE  H15S12725   4.055   5.912   5.457  0.4351  0.1147  1.9947
  120SOPE  C21612726   4.192   5.797   5.321  0.6373 -0.0021 -0.6211
  120SOPE  H16R12727   4.113   5.742   5.266  2.3704 -1.4016 -1.8072
  120SOPE  H16S12728   4.278   5.730   5.341 -0.1941 -0.6877  0.8422
  120SOPE  C21712729   4.247   5.921   5.242  0.4900  0.0039  0.0248
  120SOPE  H17R12730   4.304   5.979   5.317 -3.4388  1.7878  1.9647
  120SOPE  H17S12731   4.166   5.994   5.219  3.1894  2.7017 -1.5916
  120SOPE  C21812732   4.304   5.883   5.106 -0.1592  0.0543  0.2634
  120SOPE  H18R12733   4.404   5.836   5.103  0.6450  1.7605 -0.9176
  120SOPE  H18S12734   4.332   5.978   5.057  0.4196 -0.7629 -1.0605
  120SOPE  H18T12735   4.235   5.817   5.048  1.4615 -2.1159  0.6661
  120SOPE   C3312736   3.246   5.140   6.633 -0.5842  0.4980  0.1131
  120SOPE   H3X12737   3.148   5.128   6.685 -0.0923 -3.4623  0.4357
  120SOPE   H3Y12738   3.319   5.082   6.693 -0.1079  1.7402  0.7766
  120SOPE   C3412739   3.229   5.090   6.495  0.0517  0.6667  0.9798
  120SOPE   H4X12740   3.142   5.145   6.454 -0.7160 -0.1982  1.4180
  120SOPE   H4Y12741   3.193   4.985   6.487  0.1277  0.7329 -0.3224
  120SOPE   C3512742   3.352   5.112   6.402  0.3706 -0.2090 -0.2417
  120SOPE   H5X12743   3.413   5.027   6.439 -2.3933 -2.3421 -0.2550
  120SOPE   H5Y12744   3.417   5.200   6.418 -1.0801  0.6455  1.2152
  120SOPE   C3612745   3.309   5.096   6.254  0.0065  0.6610 -0.4430
  120SOPE   H6X12746   3.252   5.185   6.220  1.0307  1.3305 -0.4494
  120SOPE   H6Y12747   3.248   5.007   6.228  0.8820 -0.7427  1.9624
  120SOPE   C3712748   3.417   5.100   6.147 -0.6316 -0.2020 -0.3245
  120SOPE   H7X12749   3.502   5.032   6.167  0.1764  0.8451 -0.1594
  120SOPE   H7Y12750   3.461   5.201   6.157 -2.3010  0.5347  0.0091
  120SOPE   C3812751   3.361   5.072   6.011 -0.2914  0.7836  0.3837
  120SOPE   H8X12752   3.286   5.152   5.999 -0.4288  0.4593 -1.0602
  120SOPE   H8Y12753   3.307   4.975   6.012 -0.0999  0.6780  1.0140
  120SOPE   C3912754   3.474   5.077   5.910  0.5330  0.6498 -0.0631
  120SOPE   H9X12755   3.551   4.998   5.923 -0.6959 -0.7905 -1.1442
  120SOPE   H9Y12756   3.529   5.172   5.927  1.9355 -0.4432  1.8457
  120SOPE  C31012757   3.417   5.057   5.767  0.0645  0.0350  0.3442
  120SOPE  H10X12758   3.339   5.136   5.761  1.1408  1.1488  0.5927
  120SOPE  H10Y12759   3.368   4.958   5.764  1.4970 -0.6666 -0.9261
  120SOPE  C31112760   3.506   5.066   5.642 -0.0725  0.3300  0.4754
  120SOPE  H11X12761   3.596   5.007   5.666  0.5103  0.7455 -0.6075
  120SOPE  H11Y12762   3.544   5.170   5.637  2.9672 -0.6783  0.9455
  120SOPE  C31212763   3.433   5.021   5.511  0.2524 -0.3885  0.1096
  120SOPE  H12X12764   3.405   5.117   5.462  0.4149 -1.2008 -1.6554
  120SOPE  H12Y12765   3.336   4.977   5.542 -1.6722  1.5749 -2.6264
  120SOPE  C31312766   3.525   4.937   5.413 -0.5318 -0.2106  0.0230
  120SOPE  H13X12767   3.469   4.911   5.321 -1.8758 -0.7163  0.9457
  120SOPE  H13Y12768   3.539   4.844   5.472 -2.7902  0.1847  1.2795
  120SOPE  C31412769   3.653   5.005   5.361 -0.5949 -0.0056 -0.1915
  120SOPE  H14X12770   3.718   5.033   5.447 -1.4210  0.1346  0.3922
  120SOPE  H14Y12771   3.621   5.088   5.294 -1.6558 -0.4246 -0.2202
  120SOPE  C31512772   3.736   4.904   5.284 -0.2145 -0.4442  0.1835
  120SOPE  H15X12773   3.677   4.862   5.200 -0.8481 -0.6584  0.7291
  120SOPE  H15Y12774   3.758   4.827   5.360 -1.6592 -0.1677  0.9096
  120SOPE  C31612775   3.878   4.951   5.246  0.3736 -0.0579 -0.4542
  120SOPE  H16X12776   3.938   4.859   5.226  0.6331 -0.1208  0.5824
  120SOPE  H16Y12777   3.912   5.011   5.333 -0.0863 -0.6698  0.1587
  120SOPE  C31712778   3.886   5.042   5.123 -0.1843  0.0898 -0.0501
  120SOPE  H17X12779   3.825   5.134   5.133  0.5589  0.7056 -0.9680
  120SOPE  H17Y12780   3.838   4.979   5.044  1.1886 -3.6835  1.8873
  120SOPE  C31812781   4.027   5.083   5.076  0.3389 -0.5644 -0.1214
  120SOPE  H18X12782   4.025   5.155   4.992  1.2390  0.6099  0.8113
  120SOPE  H18Y12783   4.088   5.000   5.037  0.4408  0.3096 -1.8916
  120SOPE  H18Z12784   4.079   5.131   5.162  0.7998  0.4920 -0.9602
  121SOPE     N12785   0.034   1.825   7.541 -0.9967  0.3018  0.2868
  121SOPE   HN112786   0.028   1.787   7.444 -1.7301  1.9169 -0.3317
  121SOPE   HN212787   0.052   1.925   7.519 -1.8389  0.2018 -0.9654
  121SOPE   HN312788   0.107   1.777   7.598 -1.0474 -0.7156 -0.4654
  121SOPE   C1212789  -0.093   1.784   7.619  0.2151 -0.3017 -0.0022
  121SOPE  H12A12790  -0.076   1.814   7.724  0.9295 -1.1807  0.1490
  121SOPE  H12B12791  -0.111   1.675   7.607 -0.5563 -0.0558 -1.2515
  121SOPE   C1112792  -0.220   1.852   7.555 -0.0648 -0.1375 -0.3034
  121SOPE  H11A12793  -0.201   1.962   7.553  1.5717 -0.3621  0.6775
  121SOPE  H11B12794  -0.307   1.836   7.622  0.0590  0.6884  0.0612
  121SOPE     P12795  -0.358   1.893   7.338  0.2186 -0.1021 -0.3495
  121SOPE   O1312796  -0.291   2.020   7.294 -0.1630  0.1793 -0.2836
  121SOPE   O1412797  -0.482   1.897   7.417 -0.4081 -0.5864 -0.9851
  121SOPE   O1212798  -0.242   1.809   7.423 -0.1467 -0.5555  0.1968
  121SOPE   O1112799  -0.376   1.786   7.224  0.0651  0.4218 -0.5482
  121SOPE    C112800  -0.262   1.737   7.150  0.8899  0.2285 -0.0906
  121SOPE    HA12801  -0.268   1.627   7.141  1.4269 -0.1194  2.8129
  121SOPE    HB12802  -0.164   1.764   7.194  0.1854 -1.1930  2.5579
  121SOPE    C212803  -0.264   1.786   7.004  0.0563 -0.7899  0.3290
  121SOPE    HS12804  -0.252   1.896   7.002 -1.8033 -0.5621 -1.3055
  121SOPE   O2112805  -0.382   1.736   6.930 -0.0440  0.1261  0.3181
  121SOPE   C2112806  -0.462   1.828   6.882  1.1939 -0.2252  0.0209
  121SOPE   O2212807  -0.451   1.949   6.892 -0.5123 -0.3506 -0.4412
  121SOPE   C2212808  -0.569   1.769   6.788  0.5663 -0.3882 -0.0841
  121SOPE   H2R12809  -0.666   1.801   6.830  1.4501  4.6485 -1.3021
  121SOPE   H2S12810  -0.562   1.658   6.789  0.2830 -0.4479 -2.0735
  121SOPE    C312811  -0.136   1.734   6.923 -0.0965  0.1464  0.1724
  121SOPE    HX12812  -0.152   1.624   6.912 -2.3971  0.4945 -0.5027
  121SOPE    HY12813  -0.039   1.747   6.976  1.2021 -2.7145 -1.2929
  121SOPE   O3112814  -0.133   1.803   6.798  0.1511 -0.2735  0.2508
  121SOPE   C3112815  -0.077   1.925   6.804  0.0077  0.7430 -0.5433
  121SOPE   O3212816  -0.021   1.965   6.904  0.2104 -0.1469  0.3114
  121SOPE   C3212817  -0.102   2.010   6.677 -0.6528  0.5439  0.0380
  121SOPE   H2X12818  -0.032   2.096   6.683  1.3782 -1.0333  0.0107
  121SOPE   H2Y12819  -0.209   2.039   6.685 -1.7492 -2.4078 -2.0479
  121SOPE   C2312820  -0.558   1.824   6.647 -0.3619 -0.2762 -0.9113
  121SOPE   H3R12821  -0.538   1.933   6.646 -1.1542 -0.1133 -0.0291
  121SOPE   H3S12822  -0.652   1.793   6.596 -0.8060  0.2465 -0.4239
  121SOPE   C2412823  -0.435   1.765   6.571  0.2061  0.0288 -0.0949
  121SOPE   H4R12824  -0.353   1.747   6.644 -0.8544 -0.4515  1.0137
  121SOPE   H4S12825  -0.469   1.666   6.537 -0.4107  0.2690 -0.1901
  121SOPE   C2512826  -0.401   1.834   6.442  0.2528 -1.0548  1.0708
  121SOPE   H5R12827  -0.366   1.938   6.459  0.8458 -0.2485 -3.5938
  121SOPE   H5S12828  -0.312   1.780   6.404  0.8924 -0.2746  1.4313
  121SOPE   C2612829  -0.505   1.832   6.330 -0.2146  0.0166 -0.8164
  121SOPE   H6R12830  -0.504   1.742   6.264  1.3054 -0.9239  0.3942
  121SOPE   H6S12831  -0.601   1.832   6.385 -0.2636 -1.4949 -0.8646
  121SOPE   C2712832  -0.496   1.962   6.243  0.2927  0.6643 -0.4409
  121SOPE   H7R12833  -0.585   1.976   6.179  1.1376 -2.9501 -2.7165
  121SOPE   H7S12834  -0.490   2.049   6.311 -1.7445 -0.3577  1.1645
  121SOPE   C2812835  -0.381   1.969   6.145 -1.0394 -0.6712 -0.2345
  121SOPE   H8R12836  -0.361   2.068   6.098  0.8679  0.1271  2.0823
  121SOPE   H8S12837  -0.287   1.955   6.202 -0.5444  0.7431 -0.6525
  121SOPE   C2912838  -0.396   1.861   6.040  0.2873  0.2060  0.2204
  121SOPE   H9112839  -0.409   1.761   6.083 -0.3799  0.7071  1.2461
  121SOPE  C21012840  -0.410   1.878   5.908  0.1304  0.0192  0.5373
  121SOPE  H10112841  -0.415   1.791   5.841 -1.3211  1.6349 -1.5980
  121SOPE  C21112842  -0.390   1.999   5.818  0.2688 -0.0694 -0.3377
  121SOPE  H11R12843  -0.323   2.071   5.871  0.3596  0.2104 -0.8279
  121SOPE  H11S12844  -0.484   2.053   5.795  0.1981  1.0362  2.1675
  121SOPE  C21212845  -0.319   1.971   5.688  0.0331 -0.4546  0.1599
  121SOPE  H12R12846  -0.236   1.903   5.717 -0.0281  0.5783  3.1272
  121SOPE  H12S12847  -0.274   2.064   5.647 -0.0413 -0.5702 -0.1897
  121SOPE  C21312848  -0.412   1.905   5.583 -0.4016  0.2884  0.7061
  121SOPE  H13R12849  -0.493   1.978   5.563  0.2297  0.5956 -0.8699
  121SOPE  H13S12850  -0.450   1.807   5.620  0.9128 -0.2142  0.7915
  121SOPE  C21412851  -0.337   1.879   5.444 -0.4272  0.2322 -0.2216
  121SOPE  H14R12852  -0.231   1.857   5.471  0.1259  2.1367 -0.6527
  121SOPE  H14S12853  -0.336   1.969   5.378 -0.9266 -0.6857 -1.5102
  121SOPE  C21512854  -0.390   1.760   5.362  0.4120 -0.6757 -0.1620
  121SOPE  H15R12855  -0.485   1.797   5.317  0.8196  0.8788  0.1888
  121SOPE  H15S12856  -0.414   1.676   5.430  0.3912 -0.7974 -0.3184
  121SOPE  C21612857  -0.296   1.719   5.245  0.2639 -0.4254  0.1217
  121SOPE  H16R12858  -0.199   1.707   5.299  0.3254 -1.1481 -0.1435
  121SOPE  H16S12859  -0.290   1.805   5.175  0.6288 -0.1055  0.5385
  121SOPE  C21712860  -0.335   1.586   5.189 -0.0198 -0.6846  0.5240
  121SOPE  H17R12861  -0.438   1.597   5.148  0.7237 -0.5170 -1.3915
  121SOPE  H17S12862  -0.341   1.519   5.277 -0.3110 -1.2602  0.0770
  121SOPE  C21812863  -0.238   1.530   5.089  0.4620  0.2305  0.5925
  121SOPE  H18R12864  -0.230   1.588   4.995 -0.9679 -2.2174 -1.1536
  121SOPE  H18S12865  -0.272   1.429   5.057  1.3018  0.0834  0.1400
  121SOPE  H18T12866  -0.140   1.529   5.142  1.3659  1.4122 -0.9754
  121SOPE   C3312867  -0.064   1.935   6.545  0.1739  0.0119  0.7543
  121SOPE   H3X12868  -0.138   1.852   6.539 -2.0026  1.5937  3.4400
  121SOPE   H3Y12869   0.043   1.903   6.545 -0.3454 -1.8226  0.7584
  121SOPE   C3412870  -0.075   2.009   6.404 -0.0298 -0.0161 -0.2039
  121SOPE   H4X12871  -0.003   2.093   6.402 -0.2722  0.2199 -3.2300
  121SOPE   H4Y12872  -0.175   2.058   6.397  0.4152  0.9235 -0.1722
  121SOPE   C3512873  -0.025   1.931   6.280 -0.5081  0.3589 -0.0452
  121SOPE   H5X12874  -0.104   1.854   6.266 -1.4710  0.8877  2.0698
  121SOPE   H5Y12875   0.074   1.883   6.298 -0.7833  0.1098  0.8160
  121SOPE   C3612876  -0.013   2.005   6.143  0.6354 -0.0605 -0.4591
  121SOPE   H6X12877   0.075   2.073   6.151 -0.3884  1.2022  0.6068
  121SOPE   H6Y12878  -0.103   2.070   6.143 -1.7431 -3.0811  1.1545
  121SOPE   C3712879  -0.005   1.911   6.020  1.0024 -0.8354 -0.9644
  121SOPE   H7X12880  -0.108   1.876   5.999  0.9902  0.5047 -3.4380
  121SOPE   H7Y12881   0.057   1.825   6.055 -0.0962 -0.7608  1.3839
  121SOPE   C3812882   0.034   1.995   5.896  0.5795  0.7832  0.1517
  121SOPE   H8X12883   0.130   2.047   5.916 -0.6274  3.0627  0.3306
  121SOPE   H8Y12884  -0.039   2.073   5.867  2.0696  2.1621 -0.0163
  121SOPE   C3912885   0.049   1.907   5.770 -0.2178  0.1136 -0.7295
  121SOPE   H9X12886  -0.048   1.853   5.764 -1.3661  1.8794  0.7105
  121SOPE   H9Y12887   0.138   1.841   5.783 -0.2001  0.5363  1.7373
  121SOPE  C31012888   0.081   1.997   5.646  0.0350 -0.8892  0.3213
  121SOPE  H10X12889   0.163   2.066   5.676 -0.0076 -0.4485 -0.5317
  121SOPE  H10Y12890   0.002   2.070   5.617  0.4769  0.1632  1.6234
  121SOPE  C31112891   0.128   1.936   5.520 -0.4757  0.4563  0.6452
  121SOPE  H11X12892   0.173   2.011   5.452 -0.8960  1.6864  1.6936
  121SOPE  H11Y12893   0.045   1.873   5.480 -0.6421  1.1604 -0.1405
  121SOPE  C31212894   0.239   1.834   5.537 -0.7681 -0.3273  0.2827
  121SOPE  H12X12895   0.198   1.738   5.574  0.4829 -1.5247 -1.2940
  121SOPE  H12Y12896   0.310   1.885   5.606 -1.9130 -0.7623  1.8260
  121SOPE  C31312897   0.307   1.806   5.403 -0.1208  0.1491  0.5999
  121SOPE  H13X12898   0.415   1.786   5.419  0.0065 -0.5361 -0.9261
  121SOPE  H13Y12899   0.306   1.888   5.328  0.6219 -0.1832  0.2118
  121SOPE  C31412900   0.253   1.676   5.327 -0.5133  0.1106 -0.0155
  121SOPE  H14X12901   0.148   1.699   5.300 -1.1536 -1.2692  1.1651
  121SOPE  H14Y12902   0.248   1.591   5.398 -2.4088 -0.1467 -0.4144
  121SOPE  C31512903   0.338   1.652   5.211 -0.4023  0.0496  0.0839
  121SOPE  H15X12904   0.441   1.646   5.252 -1.0997 -0.1393  1.8786
  121SOPE  H15Y12905   0.325   1.747   5.154  0.9555  2.8246  3.9704
  121SOPE  C31612906   0.307   1.532   5.127  0.1363  0.0992  0.6302
  121SOPE  H16X12907   0.360   1.534   5.030  1.4564  1.1431  1.3382
  121SOPE  H16Y12908   0.199   1.546   5.102  0.5257  2.2623 -0.1014
  121SOPE  C31712909   0.322   1.402   5.207  0.5458 -0.1638  0.0193
  121SOPE  H17X12910   0.266   1.404   5.303 -0.0182 -0.6593 -0.2985
  121SOPE  H17Y12911   0.433   1.396   5.218  1.1815  2.3003 -3.2442
  121SOPE  C31812912   0.269   1.275   5.129 -0.0763 -0.2337  0.0527
  121SOPE  H18X12913   0.321   1.271   5.031 -1.1536  1.8631 -0.6719
  121SOPE  H18Y12914   0.161   1.293   5.111 -0.0791  0.4499  0.6752
  121SOPE  H18Z12915   0.279   1.182   5.188  1.6916  0.7362  1.3954
  122SOPE     N12916   5.370   3.763   7.147  0.1719  0.3065 -0.4923
  122SOPE   HN112917   5.424   3.792   7.231  0.4922 -1.4254 -0.0644
  122SOPE   HN212918   5.297   3.837   7.138  0.4499  0.8244  1.0874
  122SOPE   HN312919   5.321   3.674   7.166  0.7236 -0.0697 -0.8290
  122SOPE   C1212920   5.451   3.772   7.021 -0.3931 -0.4187 -0.1583
  122SOPE  H12A12921   5.549   3.720   7.032 -0.6079 -0.7307  0.2774
  122SOPE  H12B12922   5.466   3.881   7.008  0.3803 -0.6869 -1.8995
  122SOPE   C1112923   5.376   3.710   6.909 -0.1937  0.2557  0.1113
  122SOPE  H11A12924   5.414   3.754   6.814 -0.2061 -2.1013 -1.0671
  122SOPE  H11B12925   5.270   3.742   6.902 -0.4178  0.7873  3.8895
  122SOPE     P12926   5.282   3.480   6.965  0.0232  0.6975  0.1627
  122SOPE   O1312927   5.252   3.521   7.102 -0.2288 -0.0468  0.0366
  122SOPE   O1412928   5.306   3.338   6.942 -0.4121 -0.1422 -0.4053
  122SOPE   O1212929   5.390   3.567   6.895  0.1133 -0.6182  0.0311
  122SOPE   O1112930   5.149   3.519   6.880 -0.2727  0.6718  0.1307
  122SOPE    C112931   5.078   3.421   6.798  0.0873 -0.7500  0.5444
  122SOPE    HA12932   4.983   3.390   6.846  0.7968 -2.0854  1.1203
  122SOPE    HB12933   5.135   3.329   6.774  1.2885  0.0209  0.3659
  122SOPE    C212934   5.033   3.495   6.665 -0.5590 -0.3690 -0.1441
  122SOPE    HS12935   5.121   3.515   6.600  0.4073 -2.5061  0.4091
  122SOPE   O2112936   4.951   3.615   6.690 -0.1430 -0.2204  0.4764
  122SOPE   C2112937   5.016   3.729   6.679  0.7814 -0.2734 -0.0716
  122SOPE   O2212938   5.131   3.740   6.635 -0.1136 -0.1682 -0.4358
  122SOPE   C2212939   4.922   3.854   6.715 -0.1339  0.1191 -0.5413
  122SOPE   H2R12940   4.895   3.838   6.822  3.3635 -2.1871  0.1691
  122SOPE   H2S12941   4.831   3.846   6.652 -1.0014  1.8181  0.4355
  122SOPE    C312942   4.939   3.404   6.586  0.4175 -0.4601 -0.0730
  122SOPE    HX12943   4.852   3.377   6.650 -0.1462  1.5137  0.0519
  122SOPE    HY12944   4.989   3.310   6.551 -1.1359 -1.6124  0.6894
  122SOPE   O3112945   4.879   3.477   6.471 -0.8839  0.1629 -0.6715
  122SOPE   C3112946   4.950   3.494   6.363 -0.1059  0.0520 -0.5940
  122SOPE   O3212947   5.056   3.448   6.336 -0.1279  0.0850 -0.6593
  122SOPE   C3212948   4.867   3.593   6.282  0.5148 -0.8800 -0.4693
  122SOPE   H2X12949   4.855   3.683   6.345 -1.4131 -1.3783 -0.0770
  122SOPE   H2Y12950   4.769   3.543   6.269 -0.2413  0.1154  1.2228
  122SOPE   C2312951   4.990   3.998   6.686  0.4253  0.0294 -0.0724
  122SOPE   H3R12952   5.077   4.017   6.753 -0.6713 -2.1934  2.1568
  122SOPE   H3S12953   4.910   4.063   6.727  0.7212  0.2579  0.1434
  122SOPE   C2412954   5.017   4.039   6.544 -0.2277  0.4043 -0.2352
  122SOPE   H4R12955   5.047   4.145   6.537 -0.7676  0.4845 -1.9879
  122SOPE   H4S12956   5.108   3.983   6.512  1.1049  2.5808 -0.4490
  122SOPE   C2512957   4.904   4.009   6.443 -0.2313  0.0681 -0.1197
  122SOPE   H5R12958   4.873   3.902   6.448  0.9127 -0.2273  1.1228
  122SOPE   H5S12959   4.821   4.082   6.454  1.7093  2.4367 -0.3054
  122SOPE   C2612960   4.946   4.040   6.297  0.6301 -0.0522  1.1266
  122SOPE   H6R12961   5.009   4.131   6.287 -0.5232  0.6649  0.1503
  122SOPE   H6S12962   5.017   3.962   6.264  2.4829  1.5263  1.1779
  122SOPE   C2712963   4.829   4.050   6.199 -0.3968  0.0022 -0.2343
  122SOPE   H7R12964   4.783   3.950   6.190  0.1782 -0.3193  0.3695
  122SOPE   H7S12965   4.749   4.115   6.241  0.0017  0.4486 -0.1573
  122SOPE   C2812966   4.861   4.119   6.064  0.8130  0.3508  0.2682
  122SOPE   H8R12967   4.764   4.142   6.014 -0.2863 -4.1072 -0.0761
  122SOPE   H8S12968   4.919   4.212   6.085 -0.2456  2.0397 -3.3927
  122SOPE   C2912969   4.935   4.021   5.980  0.3077  0.0272 -0.3594
  122SOPE   H9112970   5.036   4.008   6.021 -0.1895  2.4491  1.9210
  122SOPE  C21012971   4.907   3.962   5.861  0.2287  0.9598 -0.2320
  122SOPE  H10112972   4.975   3.887   5.818 -0.7175 -1.5425  2.3204
  122SOPE  C21112973   4.781   3.983   5.783  0.7108  0.1129 -0.5545
  122SOPE  H11R12974   4.714   4.061   5.823 -1.9023 -1.4612 -1.6455
  122SOPE  H11S12975   4.730   3.886   5.798  1.2851 -0.6628 -3.0364
  122SOPE  C21212976   4.810   3.999   5.635 -0.0882 -0.2653 -0.6976
  122SOPE  H12R12977   4.723   4.007   5.567 -0.8026  1.2768  0.3484
  122SOPE  H12S12978   4.865   3.906   5.607  0.4051  0.0869 -0.8965
  122SOPE  C21312979   4.899   4.124   5.599  0.3972 -0.2887  0.3461
  122SOPE  H13R12980   4.937   4.108   5.496  1.0345 -2.9765  0.9071
  122SOPE  H13S12981   4.987   4.133   5.666 -0.6958 -0.8859  1.9543
  122SOPE  C21412982   4.816   4.250   5.609  0.1930 -0.5083  0.4810
  122SOPE  H14R12983   4.776   4.268   5.711 -0.2670  2.4664 -0.1274
  122SOPE  H14S12984   4.728   4.238   5.542  0.1655  0.8778  0.2278
  122SOPE  C21512985   4.900   4.372   5.575  0.1631  0.6471  0.4503
  122SOPE  H15R12986   4.981   4.378   5.650  1.8016  2.3468 -1.3216
  122SOPE  H15S12987   4.846   4.468   5.587 -2.9126 -0.7258 -1.2073
  122SOPE  C21612988   4.950   4.369   5.428  0.0472  0.0572  0.0445
  122SOPE  H16R12989   4.866   4.307   5.390  0.0965 -0.0586  0.1265
  122SOPE  H16S12990   5.048   4.318   5.422  0.3089 -0.0511  3.4716
  122SOPE  C21712991   4.950   4.505   5.357  0.3046  0.1514  0.0293
  122SOPE  H17R12992   4.852   4.555   5.346  0.5504  0.7012  0.3001
  122SOPE  H17S12993   4.996   4.488   5.257 -1.3431 -0.0624 -0.7334
  122SOPE  C21812994   5.043   4.594   5.434  0.1386  0.1256 -0.1116
  122SOPE  H18R12995   5.135   4.540   5.465  0.6139  0.8110 -0.3226
  122SOPE  H18S12996   4.998   4.630   5.529  1.3622  0.3799  0.3789
  122SOPE  H18T12997   5.066   4.682   5.370  1.2901  0.1433  0.3079
  122SOPE   C3312998   4.930   3.637   6.148 -0.2005  0.3955 -0.2197
  122SOPE   H3X12999   5.039   3.618   6.149 -0.2697 -0.0418  1.5723
  122SOPE   H3Y13000   4.926   3.748   6.143 -0.7887  0.4439  0.9101
  122SOPE   C3413001   4.858   3.579   6.028  0.2344 -0.5298 -0.1141
  122SOPE   H4X13002   4.896   3.640   5.943  0.4982  1.0502  1.0916
  122SOPE   H4Y13003   4.750   3.604   6.041 -0.5364 -1.9621 -2.9322
  122SOPE   C3513004   4.865   3.422   6.002  0.4513 -1.0304  0.6311
  122SOPE   H5X13005   4.833   3.370   6.096 -0.8139 -2.3427 -0.4681
  122SOPE   H5Y13006   4.968   3.382   5.988  0.3767 -1.0970  0.2704
  122SOPE   C3613007   4.782   3.365   5.885 -0.6548  0.1600 -0.3728
  122SOPE   H6X13008   4.677   3.393   5.908  0.4295  3.9608  0.6226
  122SOPE   H6Y13009   4.782   3.254   5.885 -0.0344  0.1556 -0.1425
  122SOPE   C3713010   4.824   3.415   5.746 -0.0045  0.5623  0.5303
  122SOPE   H7X13011   4.930   3.388   5.725 -0.8100 -1.1985 -1.5357
  122SOPE   H7Y13012   4.805   3.525   5.740  1.3789  0.7583 -0.9094
  122SOPE   C3813013   4.744   3.348   5.634 -0.0006  0.1327 -0.3176
  122SOPE   H8X13014   4.635   3.370   5.645 -0.4477 -0.9334 -2.2084
  122SOPE   H8Y13015   4.760   3.238   5.638 -0.3260  0.0916  2.8791
  122SOPE   C3913016   4.784   3.406   5.498 -0.2525 -0.2863 -0.4287
  122SOPE   H9X13017   4.892   3.384   5.481  0.7459  1.0370  3.3324
  122SOPE   H9Y13018   4.800   3.516   5.507  0.3514 -0.3968 -0.0618
  122SOPE  C31013019   4.692   3.365   5.381  0.4742 -1.4963  0.1308
  122SOPE  H10X13020   4.747   3.396   5.290 -0.2921 -0.2778  0.0682
  122SOPE  H10Y13021   4.596   3.420   5.395  1.9145  1.3181 -0.2990
  122SOPE  C31113022   4.674   3.212   5.363 -0.2414 -0.1639 -0.1699
  122SOPE  H11X13023   4.603   3.179   5.441 -1.4604 -2.0885 -1.9605
  122SOPE  H11Y13024   4.770   3.158   5.375 -0.4496 -0.3401  0.8030
  122SOPE  C31213025   4.623   3.172   5.223  0.2854  0.3356 -0.6837
  122SOPE  H12X13026   4.650   3.066   5.200 -1.1084  0.0276 -0.9805
  122SOPE  H12Y13027   4.681   3.235   5.152  0.0287 -0.0144 -1.2133
  122SOPE  C31313028   4.469   3.195   5.207 -0.0283 -0.9955 -0.6292
  122SOPE  H13X13029   4.443   3.303   5.204 -1.9427 -1.4422 -1.6286
  122SOPE  H13Y13030   4.418   3.161   5.300  0.7015 -0.9457 -0.2005
  122SOPE  C31413031   4.416   3.132   5.084 -0.1134 -0.6780 -0.2440
  122SOPE  H14X13032   4.306   3.143   5.089 -0.2141 -1.2921 -1.0119
  122SOPE  H14Y13033   4.449   3.026   5.090 -0.3374 -0.9957 -3.1713
  122SOPE  C31513034   4.463   3.190   4.946  0.2882  0.6248  0.4163
  122SOPE  H15X13035   4.401   3.147   4.864 -1.5171  1.0826  1.4780
  122SOPE  H15Y13036   4.569   3.159   4.930 -0.0357 -0.4321  0.2059
  122SOPE  C31613037   4.448   3.340   4.922  0.0004  1.1035  0.0299
  122SOPE  H16X13038   4.483   3.366   4.820  2.4236  3.1568  1.2464
  122SOPE  H16Y13039   4.514   3.396   4.992  0.1603 -1.0098  1.6620
  122SOPE  C31713040   4.296   3.385   4.944 -0.4710  0.1621 -0.0702
  122SOPE  H17X13041   4.270   3.372   5.051  0.2535 -2.0360 -0.1242
  122SOPE  H17Y13042   4.229   3.307   4.903 -0.6142  0.2217  0.0494
  122SOPE  C31813043   4.262   3.514   4.881 -0.0005  0.1964 -0.0773
  122SOPE  H18X13044   4.262   3.502   4.771 -2.2128 -1.3899  0.0392
  122SOPE  H18Y13045   4.316   3.607   4.910 -1.8071  0.6750  2.0308
  122SOPE  H18Z13046   4.160   3.543   4.912  0.3114 -0.7494  2.0570
  123SOPE     N13047   4.159   1.728   2.806 -0.9066 -0.1051  0.9617
  123SOPE   HN113048   4.227   1.807   2.808 -0.9138 -0.0705 -0.0084
  123SOPE   HN213049   4.062   1.766   2.794 -0.2817  0.6990 -2.8617
  123SOPE   HN313050   4.166   1.692   2.903 -0.7364 -1.4302  0.4777
  123SOPE   C1213051   4.211   1.627   2.706  0.7229 -0.7050 -0.1649
  123SOPE  H12A13052   4.208   1.673   2.605  0.3023 -0.9872 -0.2829
  123SOPE  H12B13053   4.142   1.540   2.708 -0.7290  0.3751 -0.9595
  123SOPE   C1113054   4.359   1.589   2.739  0.2563  0.4651  0.4666
  123SOPE  H11A13055   4.384   1.512   2.663 -0.9155  0.8063 -0.2955
  123SOPE  H11B13056   4.366   1.542   2.839  1.3113 -2.2781 -0.8154
  123SOPE     P13057   4.601   1.695   2.721  0.7379  0.5026 -0.2902
  123SOPE   O1313058   4.660   1.828   2.720  0.5869  0.2292 -0.7217
  123SOPE   O1413059   4.632   1.599   2.609 -0.4463 -0.2422 -0.2445
  123SOPE   O1213060   4.439   1.708   2.724 -0.3641  0.1156  0.5018
  123SOPE   O1113061   4.636   1.619   2.865 -0.5331  0.0714  0.1354
  123SOPE    C113062   4.609   1.701   2.980  0.5640  0.4169 -0.4650
  123SOPE    HA13063   4.581   1.631   3.062  0.7717  2.5756  1.5175
  123SOPE    HB13064   4.512   1.755   2.970  0.8715  0.8270 -1.2811
  123SOPE    C213065   4.728   1.795   3.025  0.6168 -0.3728 -0.4372
  123SOPE    HS13066   4.745   1.858   2.936 -1.8238  0.9938 -0.0241
  123SOPE   O2113067   4.838   1.717   3.066  0.3624  0.0364 -0.2948
  123SOPE   C2113068   4.956   1.779   3.074  0.2837  1.0581 -0.2486
  123SOPE   O2213069   4.976   1.895   3.045  0.3617 -0.6341  0.2360
  123SOPE   C2213070   5.052   1.676   3.137  0.7710 -0.2359 -0.5327
  123SOPE   H2R13071   5.069   1.597   3.061 -4.1173 -2.5175  0.3143
  123SOPE   H2S13072   4.994   1.623   3.216  1.2338  1.4363  1.0110
  123SOPE    C313073   4.682   1.885   3.140  0.2052  0.1927 -0.2350
  123SOPE    HX13074   4.595   1.940   3.097  0.4853  0.9662  0.1785
  123SOPE    HY13075   4.761   1.959   3.164  0.4938 -0.2749  0.2667
  123SOPE   O3113076   4.642   1.810   3.256  0.6672  0.2942  0.0830
  123SOPE   C3113077   4.703   1.832   3.378 -0.4549 -0.4746 -0.7531
  123SOPE   O3213078   4.794   1.912   3.388 -0.1443  0.6227  0.2442
  123SOPE   C3213079   4.645   1.756   3.494 -0.2007  0.4376  0.1768
  123SOPE   H2X13080   4.682   1.651   3.489 -0.5881  0.3401 -0.7459
  123SOPE   H2Y13081   4.537   1.741   3.470  0.2081 -0.2013 -1.3722
  123SOPE   C2313082   5.182   1.743   3.182  0.2056 -0.7956  1.0336
  123SOPE   H3R13083   5.209   1.817   3.103 -2.2006 -1.4600 -0.5127
  123SOPE   H3S13084   5.264   1.669   3.183  1.7552  0.7801  4.0394
  123SOPE   C2413085   5.160   1.822   3.309 -0.0016  0.0903 -0.0348
  123SOPE   H4R13086   5.086   1.904   3.311 -0.4804 -0.3217 -0.6853
  123SOPE   H4S13087   5.123   1.741   3.376 -0.1802 -1.3350 -1.7763
  123SOPE   C2513088   5.293   1.875   3.363  0.0318  0.1971 -1.0213
  123SOPE   H5R13089   5.347   1.781   3.387 -2.3520 -1.6511 -2.3278
  123SOPE   H5S13090   5.346   1.935   3.286  0.6475  0.4491 -0.4086
  123SOPE   C2613091   5.265   1.962   3.489  0.2710 -0.0636 -0.0199
  123SOPE   H6R13092   5.239   2.062   3.449  0.9985 -0.5342 -1.7867
  123SOPE   H6S13093   5.183   1.916   3.547 -0.7578 -0.9252 -2.0719
  123SOPE   C2713094   5.384   1.972   3.584  0.0940 -0.1459  0.1636
  123SOPE   H7R13095   5.467   2.014   3.524  0.9349 -1.9998 -0.0477
  123SOPE   H7S13096   5.363   2.047   3.664 -2.2017 -1.3211  0.7762
  123SOPE   C2813097   5.422   1.837   3.660 -0.4790 -0.1661  0.1288
  123SOPE   H8R13098   5.350   1.814   3.741 -0.2823 -1.5668 -0.0668
  123SOPE   H8S13099   5.430   1.754   3.586 -0.7522 -0.8393  0.8479
  123SOPE   C2913100   5.555   1.855   3.733  0.2551  0.9532 -0.2844
  123SOPE   H9113101   5.644   1.871   3.670  1.0317 -1.2594  0.1653
  123SOPE  C21013102   5.576   1.868   3.868 -0.3151  0.3557 -0.1358
  123SOPE  H10113103   5.679   1.875   3.907 -0.4833  0.8478  0.2385
  123SOPE  C21113104   5.473   1.863   3.982 -0.1014  0.7565 -0.0921
  123SOPE  H11R13105   5.435   1.760   3.999 -0.2649  1.0890  1.8228
  123SOPE  H11S13106   5.386   1.930   3.961 -1.2524 -0.7242 -0.2405
  123SOPE  C21213107   5.543   1.910   4.117 -0.1796  0.0090 -0.3218
  123SOPE  H12R13108   5.593   2.008   4.101  0.0982  0.0805  0.8902
  123SOPE  H12S13109   5.617   1.832   4.144 -2.1533 -1.1982  2.0322
  123SOPE  C21313110   5.438   1.914   4.228 -0.0281 -0.3505  0.5103
  123SOPE  H13R13111   5.402   1.810   4.241  0.4745 -0.6834 -0.6714
  123SOPE  H13S13112   5.357   1.986   4.206  0.9218  0.2127 -1.3996
  123SOPE  C21413113   5.495   1.959   4.361  0.0795 -0.7358  0.0611
  123SOPE  H14R13114   5.528   2.064   4.343 -0.6383 -0.6971 -1.1360
  123SOPE  H14S13115   5.578   1.894   4.394  1.2468  0.3910 -0.5511
  123SOPE  C21513116   5.383   1.965   4.469  0.3733 -0.6974  0.1102
  123SOPE  H15R13117   5.322   1.874   4.448  0.0595 -0.8017  1.3629
  123SOPE  H15S13118   5.324   2.055   4.443 -1.1426 -1.6332  0.1678
  123SOPE  C21613119   5.430   1.966   4.612  0.3421  1.2983  1.1620
  123SOPE  H16R13120   5.491   2.056   4.636  2.1933  0.2725  0.5269
  123SOPE  H16S13121   5.494   1.877   4.630 -0.3971  1.0046  2.4704
  123SOPE  C21713122   5.312   1.959   4.712  0.1525 -0.0536 -0.1238
  123SOPE  H17R13123   5.242   1.875   4.689 -1.2031  1.6127 -2.5189
  123SOPE  H17S13124   5.251   2.052   4.711  0.8615  0.4108 -0.7866
  123SOPE  C21813125   5.355   1.948   4.859  0.4826 -0.7549  0.5419
  123SOPE  H18R13126   5.269   1.942   4.929 -2.3948 -1.5104 -2.7791
  123SOPE  H18S13127   5.414   2.041   4.875 -1.5943  0.4433  1.7064
  123SOPE  H18T13128   5.416   1.856   4.866  0.6229 -0.5143  4.2078
  123SOPE   C3313129   4.668   1.805   3.639 -0.4276 -0.0076  0.5214
  123SOPE   H3X13130   4.642   1.913   3.633 -0.1685 -0.0168 -3.1161
  123SOPE   H3Y13131   4.775   1.801   3.668  0.0468 -0.6809 -1.2197
  123SOPE   C3413132   4.590   1.721   3.745 -0.4590 -0.2135 -0.0710
  123SOPE   H4X13133   4.485   1.733   3.711 -0.1801  0.4197 -0.7338
  123SOPE   H4Y13134   4.598   1.757   3.850  1.8761 -1.2841  0.1649
  123SOPE   C3513135   4.621   1.572   3.753 -0.7592 -0.1652  0.4441
  123SOPE   H5X13136   4.730   1.556   3.769  0.1161  1.6849 -2.6807
  123SOPE   H5Y13137   4.611   1.528   3.651 -2.2042 -0.9557  0.8984
  123SOPE   C3613138   4.545   1.508   3.866  0.3847  0.8087  0.5954
  123SOPE   H6X13139   4.605   1.417   3.888  2.6503  1.9006 -0.7575
  123SOPE   H6Y13140   4.439   1.491   3.839  0.1263  2.4360  0.4933
  123SOPE   C3713141   4.546   1.566   4.009  0.2411  0.5664  0.7860
  123SOPE   H7X13142   4.469   1.645   4.025 -0.1543  0.4108 -0.2822
  123SOPE   H7Y13143   4.643   1.620   4.009 -0.6258  2.2498 -1.2815
  123SOPE   C3813144   4.546   1.450   4.108 -0.3556  0.1693  0.1071
  123SOPE   H8X13145   4.625   1.379   4.074 -0.0616  0.6983 -0.3405
  123SOPE   H8Y13146   4.455   1.386   4.103  0.3437 -0.7612 -1.8697
  123SOPE   C3913147   4.576   1.499   4.250 -0.1593  0.6834 -0.2772
  123SOPE   H9X13148   4.516   1.589   4.275 -1.2315 -0.5741  1.9740
  123SOPE   H9Y13149   4.675   1.548   4.259 -0.1995  0.6565  0.3341
  123SOPE  C31013150   4.580   1.382   4.345 -0.2146  0.2968 -0.1909
  123SOPE  H10X13151   4.661   1.311   4.318 -0.2592 -0.3403  1.2854
  123SOPE  H10Y13152   4.485   1.325   4.334  1.0501 -2.3443  1.5804
  123SOPE  C31113153   4.606   1.430   4.491 -0.3616  1.0852 -0.3490
  123SOPE  H11X13154   4.533   1.514   4.497 -0.5451  0.9586 -0.7095
  123SOPE  H11Y13155   4.708   1.472   4.503  0.3788  0.0758 -2.4837
  123SOPE  C31213156   4.575   1.319   4.587 -0.1931 -0.7126  0.4609
  123SOPE  H12X13157   4.622   1.225   4.551 -1.9142 -1.3534 -0.2307
  123SOPE  H12Y13158   4.465   1.314   4.575 -0.5711  0.9732  2.6904
  123SOPE  C31313159   4.624   1.346   4.732  0.0359  0.0652  0.2523
  123SOPE  H13X13160   4.732   1.372   4.734 -0.4182  2.0835  0.1615
  123SOPE  H13Y13161   4.605   1.241   4.764  3.2172 -1.0234 -1.0120
  123SOPE  C31413162   4.555   1.453   4.820  0.4055 -0.7714 -0.1799
  123SOPE  H14X13163   4.451   1.461   4.784  1.0968 -0.8748 -2.3545
  123SOPE  H14Y13164   4.600   1.551   4.794  1.0505 -1.2566 -0.9462
  123SOPE  C31513165   4.562   1.437   4.977 -0.2928  0.6010  0.6326
  123SOPE  H15X13166   4.670   1.432   4.999  0.3645 -0.4530 -2.3740
  123SOPE  H15Y13167   4.527   1.333   4.993 -0.2912  0.4398 -0.3529
  123SOPE  C31613168   4.483   1.543   5.058  0.3205 -0.0729  0.1350
  123SOPE  H16X13169   4.375   1.538   5.033  0.5568  0.0879 -0.9439
  123SOPE  H16Y13170   4.507   1.645   5.021 -2.9980  0.1459 -1.9115
  123SOPE  C31713171   4.498   1.526   5.206  0.5118  0.6071 -1.3335
  123SOPE  H17X13172   4.471   1.624   5.250  1.8963 -0.0760  1.2646
  123SOPE  H17Y13173   4.605   1.508   5.232 -0.4807 -2.2076  1.6184
  123SOPE  C31813174   4.426   1.413   5.273  0.2118 -0.1173  0.1434
  123SOPE  H18X13175   4.319   1.443   5.261  0.1471 -0.5142 -0.2751
  123SOPE  H18Y13176   4.441   1.412   5.384  2.0355  0.0261 -0.0721
  123SOPE  H18Z13177   4.429   1.309   5.236  0.9628 -0.6499  1.6277
  124SOPE     N13178   2.834   0.706   3.082 -1.0223  0.2779  0.1771
  124SOPE   HN113179   2.910   0.769   3.113 -0.3115 -0.3715 -0.2065
  124SOPE   HN213180   2.783   0.740   2.998 -0.1077  2.6950  0.5470
  124SOPE   HN313181   2.762   0.702   3.157 -0.6214  5.5928  1.1921
  124SOPE   C1213182   2.896   0.575   3.045  0.7137  1.1629  0.2938
  124SOPE  H12A13183   2.980   0.545   3.111 -0.0352 -0.5526  0.5186
  124SOPE  H12B13184   2.932   0.588   2.941 -1.9456 -0.3427 -0.9221
  124SOPE   C1113185   2.776   0.477   3.056 -0.3207 -0.0110  0.0454
  124SOPE  H11A13186   2.736   0.479   3.160 -0.9155  3.0082 -0.1508
  124SOPE  H11B13187   2.816   0.373   3.046 -2.0357 -1.1924  3.7803
  124SOPE     P13188   2.537   0.423   2.949 -0.2793  0.1615 -0.4065
  124SOPE   O1313189   2.588   0.283   2.920  0.2019 -0.4821 -0.5600
  124SOPE   O1413190   2.444   0.503   2.856 -0.1817 -0.6168 -0.2349
  124SOPE   O1213191   2.668   0.510   2.963 -0.1657 -0.0810  0.1738
  124SOPE   O1113192   2.494   0.431   3.094  0.0671 -0.4797 -0.3367
  124SOPE    C113193   2.364   0.393   3.142  0.4948  0.3409 -0.5806
  124SOPE    HA13194   2.352   0.283   3.155 -1.2447  0.8701  4.1614
  124SOPE    HB13195   2.283   0.424   3.073 -1.0136  0.5372  1.1907
  124SOPE    C213196   2.312   0.435   3.288 -0.6996  0.6620  0.5190
  124SOPE    HS13197   2.214   0.382   3.295 -0.1738 -0.4704 -0.4265
  124SOPE   O2113198   2.310   0.577   3.303  0.4290  0.2190 -0.0029
  124SOPE   C2113199   2.218   0.614   3.383  0.2739 -0.3406  0.2638
  124SOPE   O2213200   2.124   0.549   3.421  0.2724  0.0183  0.1648
  124SOPE   C2213201   2.257   0.750   3.434  0.0301  1.2698  0.1777
  124SOPE   H2R13202   2.279   0.817   3.348  1.7104  1.2677  0.5780
  124SOPE   H2S13203   2.344   0.735   3.501 -0.4096 -0.1631  0.4490
  124SOPE    C313204   2.411   0.367   3.386 -0.0279 -0.0435  0.7821
  124SOPE    HX13205   2.495   0.440   3.395 -0.6149  0.5779  1.3120
  124SOPE    HY13206   2.444   0.279   3.327  1.7906  2.1351 -1.6967
  124SOPE   O3113207   2.335   0.339   3.506  0.0583  0.4821  0.1615
  124SOPE   C3113208   2.343   0.425   3.602 -0.6508 -0.4254 -0.1789
  124SOPE   O3213209   2.428   0.515   3.609 -0.2193  0.1928  0.3206
  124SOPE   C3213210   2.235   0.386   3.696 -0.4413  0.1362  0.2315
  124SOPE   H2X13211   2.194   0.283   3.682 -1.4797  0.4221  1.0607
  124SOPE   H2Y13212   2.153   0.458   3.675 -1.7328 -0.5073  2.7521
  124SOPE   C2313213   2.137   0.800   3.519  0.1869  0.8369  0.2758
  124SOPE   H3R13214   2.034   0.779   3.484  0.3130  0.9927 -0.1965
  124SOPE   H3S13215   2.140   0.911   3.513  0.6509  0.8148  0.0257
  124SOPE   C2413216   2.149   0.761   3.667 -0.2563 -0.0487 -0.3830
  124SOPE   H4R13217   2.048   0.723   3.694 -1.0879  1.9135 -0.6256
  124SOPE   H4S13218   2.233   0.694   3.697 -1.2947 -0.3701  2.1259
  124SOPE   C2513219   2.171   0.883   3.755 -0.0053  0.2719 -0.2080
  124SOPE   H5R13220   2.265   0.942   3.746  0.0893  0.9002  3.2162
  124SOPE   H5S13221   2.097   0.965   3.742  0.6268  0.9658  0.4163
  124SOPE   C2613222   2.175   0.843   3.907  0.3458 -0.3770  0.3993
  124SOPE   H6R13223   2.088   0.788   3.949  1.1762 -1.1299  1.1672
  124SOPE   H6S13224   2.259   0.772   3.922  1.3495  0.1224 -2.3358
  124SOPE   C2713225   2.175   0.975   3.989 -0.7686  0.0194 -0.5178
  124SOPE   H7R13226   2.275   1.022   3.973 -1.2909  1.7793  0.9557
  124SOPE   H7S13227   2.106   1.051   3.945 -0.4801  0.4535 -0.2298
  124SOPE   C2813228   2.145   0.959   4.137  0.8643 -0.2374  0.3794
  124SOPE   H8R13229   2.036   0.938   4.148 -0.3025  4.3328 -0.3969
  124SOPE   H8S13230   2.195   0.869   4.179 -1.7829 -1.4092  1.2303
  124SOPE   C2913231   2.166   1.086   4.215  0.6427 -0.1224 -0.3204
  124SOPE   H9113232   2.154   1.175   4.151  0.5148  1.6299  2.0214
  124SOPE  C21013233   2.199   1.099   4.344 -0.0959  1.3780 -0.2213
  124SOPE  H10113234   2.208   1.201   4.384  1.1619  1.5039 -0.7779
  124SOPE  C21113235   2.234   0.990   4.446 -0.5267  0.2627 -0.1180
  124SOPE  H11R13236   2.341   0.981   4.473  0.0902  0.0710 -2.4465
  124SOPE  H11S13237   2.205   0.893   4.399  0.6940  0.7796 -2.0687
  124SOPE  C21213238   2.164   1.012   4.584  0.3055  0.8593  0.1181
  124SOPE  H12R13239   2.058   0.980   4.576 -0.0533  1.9526  0.3461
  124SOPE  H12S13240   2.175   1.116   4.620  1.2169  0.2680  1.6574
  124SOPE  C21313241   2.217   0.920   4.690 -0.2633 -1.4733 -0.3334
  124SOPE  H13R13242   2.327   0.937   4.697 -0.6174  1.2625 -0.1154
  124SOPE  H13S13243   2.201   0.816   4.654 -0.5488 -0.9667 -1.7242
  124SOPE  C21413244   2.150   0.943   4.829 -0.9498  0.4724  0.7126
  124SOPE  H14R13245   2.040   0.941   4.813 -0.5958  1.3945 -2.5615
  124SOPE  H14S13246   2.178   1.047   4.858 -0.1811  0.6009 -0.4339
  124SOPE  C21513247   2.195   0.834   4.923 -0.5652 -0.5537 -0.4013
  124SOPE  H15R13248   2.174   0.725   4.913 -0.1983 -0.9500  2.3420
  124SOPE  H15S13249   2.131   0.859   5.010 -2.0855 -1.4868 -1.2014
  124SOPE  C21613250   2.352   0.851   4.944  0.6429  0.5547  0.3079
  124SOPE  H16R13251   2.381   0.958   4.931  1.3257  0.2611 -0.7044
  124SOPE  H16S13252   2.391   0.794   4.857 -0.2969 -0.6015  0.6195
  124SOPE  C21713253   2.374   0.784   5.078 -0.0782  0.4229  0.0229
  124SOPE  H17R13254   2.325   0.685   5.083 -0.9754  0.8087 -0.7634
  124SOPE  H17S13255   2.314   0.830   5.159  1.4903 -0.0453  1.5035
  124SOPE  C21813256   2.525   0.771   5.113  0.5701  0.3118 -0.6671
  124SOPE  H18R13257   2.557   0.870   5.152 -1.6401  1.6880 -2.1663
  124SOPE  H18S13258   2.596   0.747   5.031  2.6558 -0.3344  1.2081
  124SOPE  H18T13259   2.549   0.694   5.190  1.4914  0.7659 -0.4808
  124SOPE   C3313260   2.278   0.413   3.838  0.2515 -0.0168  0.4235
  124SOPE   H3X13261   2.322   0.514   3.857  0.0295  0.1773 -0.0789
  124SOPE   H3Y13262   2.355   0.346   3.882  1.3992  0.8006 -0.2843
  124SOPE   C3413263   2.140   0.410   3.914 -0.0270  0.1683  0.2808
  124SOPE   H4X13264   2.083   0.321   3.881  1.3148 -0.1722 -1.2501
  124SOPE   H4Y13265   2.082   0.499   3.880 -0.2029 -1.4443 -4.3771
  124SOPE   C3513266   2.158   0.412   4.069  0.8946  0.2455 -0.1270
  124SOPE   H5X13267   2.221   0.333   4.115 -0.3337 -0.0927  1.0686
  124SOPE   H5Y13268   2.060   0.383   4.114  0.6107 -0.4178 -1.1330
  124SOPE   C3613269   2.185   0.545   4.127  0.2212  0.7638  0.3963
  124SOPE   H6X13270   2.109   0.620   4.095  0.8761  0.7817 -1.1620
  124SOPE   H6Y13271   2.280   0.592   4.093 -0.4091  2.0263  0.3125
  124SOPE   C3713272   2.201   0.539   4.283  0.4650  0.0965 -0.0041
  124SOPE   H7X13273   2.122   0.476   4.329  1.4755 -0.3327  1.2151
  124SOPE   H7Y13274   2.208   0.645   4.313 -0.4925  0.8688 -2.2865
  124SOPE   C3813275   2.332   0.471   4.341  0.1705 -0.1686 -0.2682
  124SOPE   H8X13276   2.421   0.538   4.336  0.6224 -0.6967  0.4808
  124SOPE   H8Y13277   2.367   0.388   4.275  1.6995 -0.7431  1.1849
  124SOPE   C3913278   2.310   0.420   4.485 -0.1475  0.2873 -0.1211
  124SOPE   H9X13279   2.404   0.390   4.535 -0.1286  1.4728  0.6065
  124SOPE   H9Y13280   2.234   0.338   4.484  1.6204 -1.4676 -2.6021
  124SOPE  C31013281   2.258   0.532   4.585 -0.3652 -0.1139 -0.5109
  124SOPE  H10X13282   2.162   0.573   4.549  0.3860  0.8962 -1.4370
  124SOPE  H10Y13283   2.333   0.614   4.593  0.9166 -1.4177  2.6318
  124SOPE  C31113284   2.225   0.487   4.725  0.1284 -0.2774 -0.0250
  124SOPE  H11X13285   2.146   0.408   4.720 -1.0736  0.9272 -1.2639
  124SOPE  H11Y13286   2.184   0.575   4.779 -1.7233 -0.0071 -1.7221
  124SOPE  C31213287   2.346   0.455   4.816 -0.5676 -0.4542  0.3647
  124SOPE  H12X13288   2.400   0.546   4.849  1.6140 -1.2416 -0.7979
  124SOPE  H12Y13289   2.422   0.393   4.762 -1.9185 -1.0834 -0.8964
  124SOPE  C31313290   2.305   0.397   4.950 -0.1180 -0.2757  0.4796
  124SOPE  H13X13291   2.243   0.307   4.928  0.0797  0.0691 -1.7007
  124SOPE  H13Y13292   2.239   0.472   4.997 -0.1649 -0.5620  0.8762
  124SOPE  C31413293   2.429   0.362   5.035 -0.3748  0.6732  0.1893
  124SOPE  H14X13294   2.481   0.457   5.057 -1.9620  1.8016 -0.6834
  124SOPE  H14Y13295   2.487   0.288   4.975 -0.5544  0.8878 -0.2592
  124SOPE  C31513296   2.409   0.300   5.178  0.2624 -0.0846  0.9948
  124SOPE  H15X13297   2.510   0.307   5.225  0.8150 -2.3492  0.2582
  124SOPE  H15Y13298   2.390   0.193   5.153  0.4051  0.5744 -2.3015
  124SOPE  C31613299   2.310   0.373   5.261  0.5370 -0.0825  0.8261
  124SOPE  H16X13300   2.212   0.365   5.208  0.0094  0.1370  1.7388
  124SOPE  H16Y13301   2.354   0.475   5.253  1.6693 -0.5096  1.4325
  124SOPE  C31713302   2.285   0.321   5.402 -0.1621 -0.0891  0.1913
  124SOPE  H17X13303   2.226   0.390   5.467  0.8324 -0.1985  1.2440
  124SOPE  H17Y13304   2.387   0.309   5.444 -0.4302  0.6250  1.0794
  124SOPE  C31813305   2.220   0.182   5.409  0.2248 -0.2262  0.2599
  124SOPE  H18X13306   2.302   0.108   5.397 -0.9265 -1.1888 -2.6959
  124SOPE  H18Y13307   2.137   0.157   5.339  0.1356  0.1878  0.2163
  124SOPE  H18Z13308   2.179   0.169   5.511 -0.5830 -1.3633 -0.1850
  125SOPE     N13309   3.574   6.562   2.662 -0.3896  0.2956 -0.1330
  125SOPE   HN113310   3.609   6.652   2.624 -1.6968  1.7201  1.7711
  125SOPE   HN213311   3.613   6.554   2.758  3.6266  2.9501 -1.2957
  125SOPE   HN313312   3.600   6.483   2.600  1.1703 -0.0826  0.9325
  125SOPE   C1213313   3.426   6.568   2.673  0.2703  0.5295 -0.7725
  125SOPE  H12A13314   3.387   6.467   2.699  0.2410  0.3059 -1.6543
  125SOPE  H12B13315   3.387   6.601   2.574  0.8598  2.0613 -0.5162
  125SOPE   C1113316   3.381   6.669   2.792 -0.8555 -0.1345  0.0279
  125SOPE  H11A13317   3.415   6.631   2.891  1.9959  0.4461 -0.6565
  125SOPE  H11B13318   3.270   6.681   2.788 -0.9028  0.0651  1.4522
  125SOPE     P13319   3.362   6.927   2.792 -0.1214 -0.2918 -0.0665
  125SOPE   O1313320   3.264   6.932   2.683  0.0778 -0.5559  0.4178
  125SOPE   O1413321   3.447   7.050   2.817  0.6874 -0.6345 -0.3812
  125SOPE   O1213322   3.447   6.799   2.767  0.5226  0.2984 -0.2951
  125SOPE   O1113323   3.278   6.909   2.925 -0.0273  0.1311 -0.5587
  125SOPE    C113324   3.338   6.884   3.056 -0.0250 -0.8758  0.6582
  125SOPE    HA13325   3.433   6.827   3.047  1.6039  1.7836 -0.4808
  125SOPE    HB13326   3.270   6.808   3.099 -0.3689 -1.3813 -0.7138
  125SOPE    C213327   3.348   7.003   3.150  0.9016 -0.1286  0.3352
  125SOPE    HS13328   3.435   7.066   3.124 -0.0783  1.9027  1.7802
  125SOPE   O2113329   3.360   6.947   3.281  0.3420 -0.2107  1.1497
  125SOPE   C2113330   3.396   7.028   3.377 -0.9534 -0.5034 -0.2494
  125SOPE   O2213331   3.456   7.135   3.353  0.1447 -0.0356 -0.0497
  125SOPE   C2213332   3.372   6.956   3.509  0.1727  0.7630  0.4065
  125SOPE   H2R13333   3.465   6.903   3.536 -1.1813 -1.8838  0.2348
  125SOPE   H2S13334   3.294   6.878   3.492  0.8217  0.3778 -0.9704
  125SOPE    C313335   3.204   7.072   3.136 -0.0741  1.2218 -0.2354
  125SOPE    HX13336   3.188   7.097   3.029 -1.4207 -3.1056 -1.2087
  125SOPE    HY13337   3.205   7.173   3.184 -0.4828  0.3908  1.6010
  125SOPE   O3113338   3.096   6.986   3.169 -0.4499  0.2411  0.2111
  125SOPE   C3113339   3.064   7.007   3.301  0.1044 -0.0971 -0.2126
  125SOPE   O3213340   3.107   7.091   3.380 -0.5984  0.3186  0.4191
  125SOPE   C3213341   2.957   6.914   3.332  0.5728  0.1462  0.1505
  125SOPE   H2X13342   3.008   6.824   3.373 -1.1794 -0.8564  0.2051
  125SOPE   H2Y13343   2.890   6.889   3.248 -0.4397  1.2903  0.5960
  125SOPE   C2313344   3.328   7.042   3.632 -0.3234 -0.2108 -0.3249
  125SOPE   H3R13345   3.255   7.118   3.597  0.1954  0.5304  0.1715
  125SOPE   H3S13346   3.416   7.103   3.662  0.7170 -1.5853 -0.4841
  125SOPE   C2413347   3.270   6.968   3.754 -0.7092 -0.8253 -0.3427
  125SOPE   H4R13348   3.330   6.882   3.789  0.4583  0.4617  0.9211
  125SOPE   H4S13349   3.278   7.049   3.830  1.4028  1.1135 -2.4679
  125SOPE   C2513350   3.123   6.928   3.748 -0.3992  0.7441 -0.2214
  125SOPE   H5R13351   3.061   7.020   3.748 -2.7051 -0.7091 -2.0047
  125SOPE   H5S13352   3.119   6.871   3.653  0.3564 -3.3509  1.9548
  125SOPE   C2613353   3.086   6.835   3.871 -0.1750 -0.2938 -0.8554
  125SOPE   H6R13354   2.984   6.792   3.868 -1.4284  2.4631 -1.0569
  125SOPE   H6S13355   3.160   6.752   3.867  2.4487  1.8084  0.3872
  125SOPE   C2713356   3.087   6.909   4.006 -0.2654 -0.1089  0.1222
  125SOPE   H7R13357   3.185   6.957   4.026  0.0275  1.0292 -3.4131
  125SOPE   H7S13358   3.011   6.989   3.992  0.0344  0.0663 -0.5359
  125SOPE   C2813359   3.049   6.814   4.119 -0.8648 -1.4418  0.1965
  125SOPE   H8R13360   2.959   6.757   4.085 -0.6535 -0.8721 -1.4429
  125SOPE   H8S13361   3.128   6.737   4.127 -0.6236 -1.2306 -0.1284
  125SOPE   C2913362   3.010   6.880   4.248  0.3255  0.1358 -0.6419
  125SOPE   H9113363   2.902   6.894   4.267  0.6011  2.1551 -0.3733
  125SOPE  C21013364   3.098   6.923   4.345  0.0694 -0.1348 -0.4573
  125SOPE  H10113365   3.050   6.945   4.441 -0.9879 -1.2831 -0.6949
  125SOPE  C21113366   3.251   6.920   4.338 -0.5299 -0.0692 -0.3477
  125SOPE  H11R13367   3.294   6.994   4.409 -0.2280  2.2013 -2.7207
  125SOPE  H11S13368   3.277   6.960   4.237  2.0436  0.6856  0.5571
  125SOPE  C21213369   3.308   6.781   4.362 -0.4920  0.6039  0.0921
  125SOPE  H12R13370   3.399   6.770   4.298  1.6910  1.1337  2.8700
  125SOPE  H12S13371   3.238   6.698   4.337  1.7222 -1.4758  0.3028
  125SOPE  C21313372   3.344   6.773   4.512 -0.5162 -0.0104 -0.3612
  125SOPE  H13R13373   3.393   6.865   4.552 -1.1994  0.3942 -0.4265
  125SOPE  H13S13374   3.424   6.696   4.511 -2.2952 -1.9743 -2.5461
  125SOPE  C21413375   3.229   6.735   4.603 -1.1203 -0.0559 -0.1506
  125SOPE  H14R13376   3.205   6.626   4.597 -0.3266 -0.1985 -0.9797
  125SOPE  H14S13377   3.132   6.772   4.564  0.5401  2.0443 -2.5931
  125SOPE  C21513378   3.249   6.743   4.757 -0.5745 -0.3228 -0.0739
  125SOPE  H15R13379   3.197   6.833   4.798 -0.4608 -0.6342  0.7648
  125SOPE  H15S13380   3.352   6.772   4.788  0.6325 -2.5951 -1.6443
  125SOPE  C21613381   3.200   6.618   4.839  0.4674  0.3809  0.6295
  125SOPE  H16R13382   3.265   6.533   4.812  1.3067  1.5944 -1.4345
  125SOPE  H16S13383   3.102   6.590   4.795  0.3629 -0.0484  1.1256
  125SOPE  C21713384   3.206   6.647   4.996  0.9745  0.2952 -0.2553
  125SOPE  H17R13385   3.220   6.757   5.005  1.0984  0.4069 -1.6970
  125SOPE  H17S13386   3.294   6.603   5.048  0.5343 -0.7329 -0.3550
  125SOPE  C21813387   3.066   6.613   5.066 -0.1255  0.1977  0.6556
  125SOPE  H18R13388   2.988   6.658   5.002  0.9100 -0.7856 -1.3877
  125SOPE  H18S13389   3.062   6.654   5.170 -1.4080 -0.5559  0.9283
  125SOPE  H18T13390   3.046   6.504   5.067 -2.2033  0.4799 -1.6431
  125SOPE   C3313391   2.864   6.961   3.451 -0.0303  1.1105 -0.1764
  125SOPE   H3X13392   2.827   7.064   3.433 -1.5238  0.3607 -1.6207
  125SOPE   H3Y13393   2.920   6.948   3.547  3.6450  0.3919 -2.2326
  125SOPE   C3413394   2.738   6.873   3.449 -0.4957 -0.8425 -0.3164
  125SOPE   H4X13395   2.778   6.769   3.450 -0.2399 -0.7583  1.3915
  125SOPE   H4Y13396   2.692   6.906   3.354  0.9250  2.0342 -0.1037
  125SOPE   C3513397   2.647   6.914   3.568  0.3868  0.2853 -0.0597
  125SOPE   H5X13398   2.557   6.849   3.561  0.2140  0.5598 -0.4521
  125SOPE   H5Y13399   2.624   7.023   3.573  4.0509  1.2317 -0.6003
  125SOPE   C3613400   2.714   6.885   3.702 -0.2793 -0.1532 -0.1068
  125SOPE   H6X13401   2.771   6.979   3.723 -2.5869  1.4392 -0.6012
  125SOPE   H6Y13402   2.774   6.792   3.704 -3.0081 -2.0835 -1.7440
  125SOPE   C3713403   2.609   6.880   3.813  0.1664  0.3183  0.4237
  125SOPE   H7X13404   2.559   6.782   3.795  0.0366  0.3517  0.6034
  125SOPE   H7Y13405   2.548   6.971   3.796 -0.8878 -0.6130 -1.0178
  125SOPE   C3813406   2.672   6.869   3.953  0.4268  0.4774  0.9457
  125SOPE   H8X13407   2.727   6.964   3.968  0.2610  0.5826  0.8938
  125SOPE   H8Y13408   2.746   6.788   3.972  1.2357  1.3743  1.6719
  125SOPE   C3913409   2.570   6.874   4.062 -0.5782 -0.8726 -0.0284
  125SOPE   H9X13410   2.515   6.778   4.067 -0.0392 -1.1219  1.5394
  125SOPE   H9Y13411   2.486   6.945   4.042 -0.7900 -1.1886 -0.2768
  125SOPE  C31013412   2.636   6.905   4.203  0.1801 -0.3483 -0.1130
  125SOPE  H10X13413   2.570   6.965   4.269  4.2602  2.0768  2.1545
  125SOPE  H10Y13414   2.717   6.980   4.192 -0.5002  0.4874  0.4155
  125SOPE  C31113415   2.662   6.786   4.291 -0.2313  0.9237 -0.0682
  125SOPE  H11X13416   2.753   6.734   4.253  1.9069  2.1448  3.0292
  125SOPE  H11Y13417   2.569   6.725   4.282 -0.8533  1.7868  0.3298
  125SOPE  C31213418   2.681   6.829   4.441  0.0968  0.1839  1.1317
  125SOPE  H12X13419   2.589   6.879   4.479  0.6621  2.0451  0.2049
  125SOPE  H12Y13420   2.768   6.898   4.451  1.9346 -2.2448  3.5480
  125SOPE  C31313421   2.711   6.714   4.541 -0.8113  0.2841 -0.2567
  125SOPE  H13X13422   2.780   6.648   4.483 -1.9670 -0.1492 -1.1831
  125SOPE  H13Y13423   2.631   6.642   4.569  0.4837 -0.9590  0.3621
  125SOPE  C31413424   2.783   6.765   4.667 -0.8816 -0.8301  1.0367
  125SOPE  H14X13425   2.883   6.785   4.622 -1.9887 -1.5476 -1.9742
  125SOPE  H14Y13426   2.791   6.669   4.724  2.0160 -1.8762 -0.8983
  125SOPE  C31513427   2.719   6.881   4.742  1.1696  0.4439  0.5010
  125SOPE  H15X13428   2.611   6.857   4.736  1.7049 -2.3927  1.0013
  125SOPE  H15Y13429   2.737   6.972   4.680  1.8133  0.3306  0.5115
  125SOPE  C31613430   2.760   6.911   4.888 -0.0399 -0.3668 -0.5159
  125SOPE  H16X13431   2.741   6.822   4.952 -0.7046  0.9503  1.2263
  125SOPE  H16Y13432   2.688   6.986   4.929  0.1294 -0.4032 -0.1474
  125SOPE  C31713433   2.910   6.952   4.902  0.4395 -0.1476 -0.7087
  125SOPE  H17X13434   2.929   7.025   4.821  0.1239  0.9609  0.1857
  125SOPE  H17Y13435   2.975   6.864   4.885 -0.1775 -0.4281 -1.7104
  125SOPE  C31813436   2.964   6.997   5.041 -0.1176 -0.4657 -0.1930
  125SOPE  H18X13437   2.967   6.918   5.118  2.8798  0.0462  0.3121
  125SOPE  H18Y13438   2.909   7.087   5.077 -1.7784 -0.4158 -2.5773
  125SOPE  H18Z13439   3.068   7.033   5.028 -1.0827  1.7888 -2.7626
  126SOPE     N13440   5.879   1.425   3.049 -0.0194  0.1484 -0.0392
  126SOPE   HN113441   5.897   1.357   3.127 -2.1550  0.2387  0.5907
  126SOPE   HN213442   5.833   1.506   3.095 -3.3679 -0.3723 -2.1800
  126SOPE   HN313443   5.809   1.380   2.987  1.5499 -0.6333 -1.3064
  126SOPE   C1213444   5.989   1.456   2.966 -0.4517 -0.5778 -0.1372
  126SOPE  H12A13445   6.021   1.373   2.899 -1.4430 -0.0676 -1.2800
  126SOPE  H12B13446   6.074   1.474   3.035 -1.7802  1.7721  0.9816
  126SOPE   C1113447   5.975   1.593   2.884 -0.3097  0.9148 -0.1476
  126SOPE  H11A13448   5.898   1.573   2.807  0.9684 -0.4524 -1.1312
  126SOPE  H11B13449   6.075   1.618   2.843  0.5695 -3.1400 -0.9636
  126SOPE     P13450   5.834   1.808   2.925  0.2653  0.3141  0.0860
  126SOPE   O1313451   5.700   1.752   2.920  0.6617 -0.2178 -0.1515
  126SOPE   O1413452   5.884   1.873   2.807 -0.2831 -0.1729 -0.1969
  126SOPE   O1213453   5.929   1.693   2.974 -0.3062  0.6634 -0.1691
  126SOPE   O1113454   5.831   1.915   3.041 -0.0350  0.2177 -1.0243
  126SOPE    C113455   5.931   2.002   3.082  0.4472 -0.5579  0.0572
  126SOPE    HA13456   5.891   2.069   3.162  0.2490 -0.6587  0.0426
  126SOPE    HB13457   5.968   2.070   3.003  1.8862  0.5520  1.5993
  126SOPE    C213458   6.067   1.932   3.116 -0.6242  0.4904  0.0384
  126SOPE    HS13459   6.105   1.889   3.021 -2.0054 -1.2737  0.2304
  126SOPE   O2113460   6.029   1.835   3.220  0.0847  0.4992 -0.3801
  126SOPE   C2113461   6.109   1.734   3.237  0.3300 -0.4540 -0.5221
  126SOPE   O2213462   6.206   1.701   3.170 -0.3699  0.6246 -0.6670
  126SOPE   C2213463   6.061   1.657   3.364 -0.2064  0.7252  0.0771
  126SOPE   H2R13464   6.072   1.552   3.329 -0.1325  1.5627 -2.6849
  126SOPE   H2S13465   5.962   1.685   3.406  0.8887  0.5016  3.0517
  126SOPE    C313466   6.173   2.031   3.179  0.1868 -0.3528 -0.3762
  126SOPE    HX13467   6.169   2.117   3.108 -3.3367 -1.0638 -1.2054
  126SOPE    HY13468   6.276   1.988   3.179  1.0105  1.4537  1.5154
  126SOPE   O3113469   6.133   2.065   3.313 -0.2109  0.2923  0.1045
  126SOPE   C3113470   6.198   2.037   3.417  0.7767  0.6320  0.1680
  126SOPE   O3213471   6.301   1.975   3.426 -0.0330 -0.1521 -0.3835
  126SOPE   C3213472   6.129   2.087   3.551 -0.2872 -0.3038  0.2880
  126SOPE   H2X13473   6.022   2.057   3.546 -0.9384  1.9089 -0.1906
  126SOPE   H2Y13474   6.149   2.196   3.557  3.2362 -0.6538 -2.2422
  126SOPE   C2313475   6.159   1.675   3.483 -0.9016 -0.1518  0.3890
  126SOPE   H3R13476   6.167   1.783   3.508  1.4410  0.1032 -1.1156
  126SOPE   H3S13477   6.260   1.644   3.448  0.8483  2.2435  2.8861
  126SOPE   C2413478   6.126   1.577   3.596 -0.1562  0.1690  0.5779
  126SOPE   H4R13479   6.106   1.473   3.563 -0.1281  0.5854 -0.8090
  126SOPE   H4S13480   6.211   1.563   3.668 -1.0523 -0.4701  1.5447
  126SOPE   C2513481   6.003   1.623   3.679 -0.3697 -0.2416 -0.1970
  126SOPE   H5R13482   6.027   1.727   3.710 -0.5333 -0.1011 -0.5355
  126SOPE   H5S13483   5.913   1.634   3.615 -0.4631  2.6558  0.2807
  126SOPE   C2613484   5.983   1.530   3.801  1.1428 -0.6428 -0.3591
  126SOPE   H6R13485   5.934   1.435   3.773  0.9288 -0.6691  0.0921
  126SOPE   H6S13486   6.083   1.505   3.844  0.0069 -1.9144  1.7152
  126SOPE   C2713487   5.876   1.596   3.883  0.6243 -0.2740  0.2320
  126SOPE   H7R13488   5.895   1.704   3.898  2.2701 -0.5949  0.5881
  126SOPE   H7S13489   5.776   1.592   3.835 -0.6206  0.9825  2.5667
  126SOPE   C2813490   5.853   1.516   4.009  0.6967 -0.3047 -1.0919
  126SOPE   H8R13491   5.819   1.413   3.987 -0.3670 -0.1394 -0.3253
  126SOPE   H8S13492   5.950   1.487   4.054  0.0559  1.7543  1.9712
  126SOPE   C2913493   5.763   1.581   4.113 -0.8297 -0.0238  0.8584
  126SOPE   H9113494   5.700   1.662   4.072  1.2577  1.8985  1.2456
  126SOPE  C21013495   5.746   1.552   4.240  0.3586  0.4076  0.9028
  126SOPE  H10113496   5.675   1.618   4.290  1.9214 -0.1322  4.1106
  126SOPE  C21113497   5.761   1.417   4.298  0.3501 -1.0214  0.1937
  126SOPE  H11R13498   5.811   1.348   4.226  0.2712 -2.4981  1.5075
  126SOPE  H11S13499   5.661   1.380   4.329 -1.2584  4.1270  2.1695
  126SOPE  C21213500   5.864   1.417   4.419  0.7636  0.1557  0.0692
  126SOPE  H12R13501   5.862   1.515   4.473  0.9267  1.0253 -1.4605
  126SOPE  H12S13502   5.965   1.412   4.374  1.1822 -1.6070  1.1129
  126SOPE  C21313503   5.841   1.310   4.515 -1.0658  0.0523 -0.5503
  126SOPE  H13R13504   5.827   1.211   4.467 -0.6922 -0.5357  0.5052
  126SOPE  H13S13505   5.744   1.331   4.565 -1.2891 -1.9846  0.0001
  126SOPE  C21413506   5.961   1.301   4.609 -0.3212  0.1062 -0.0055
  126SOPE  H14R13507   5.986   1.397   4.659  2.0061 -1.6656  2.5563
  126SOPE  H14S13508   6.045   1.258   4.551 -1.5336  0.4163 -2.0724
  126SOPE  C21513509   5.932   1.203   4.732  0.0902 -0.4439 -0.1257
  126SOPE  H15R13510   5.895   1.102   4.707 -0.4493 -0.5760  1.1239
  126SOPE  H15S13511   5.852   1.260   4.784  1.4483 -0.8680  2.6458
  126SOPE  C21613512   6.045   1.185   4.835 -0.3146 -0.6181  0.5092
  126SOPE  H16R13513   6.005   1.145   4.930  0.2068 -0.3763  0.8314
  126SOPE  H16S13514   6.082   1.288   4.852  0.0576 -0.6132 -0.2664
  126SOPE  C21713515   6.153   1.103   4.773 -0.1058  0.0010 -0.0693
  126SOPE  H17R13516   6.182   1.156   4.680  1.2724 -1.0914 -0.2864
  126SOPE  H17S13517   6.120   0.999   4.752 -0.5952  0.1668 -0.1471
  126SOPE  C21813518   6.280   1.093   4.866 -0.3337  0.3738 -0.7292
  126SOPE  H18R13519   6.355   1.031   4.812 -1.5374 -0.2226 -1.7807
  126SOPE  H18S13520   6.252   1.041   4.959  1.1622  0.5743 -0.1359
  126SOPE  H18T13521   6.323   1.195   4.874 -1.0418  0.7582 -1.5994
  126SOPE   C3313522   6.181   2.029   3.689 -0.5339 -0.2780 -0.0063
  126SOPE   H3X13523   6.291   2.041   3.696 -0.8521  2.8630  1.2639
  126SOPE   H3Y13524   6.155   1.922   3.706 -0.1917 -0.0007  2.5637
  126SOPE   C3413525   6.122   2.092   3.820 -0.0557  0.0239 -0.0975
  126SOPE   H4X13526   6.015   2.064   3.818 -0.2272  0.2628  2.5460
  126SOPE   H4Y13527   6.133   2.203   3.816 -0.0932  0.1232  1.6813
  126SOPE   C3513528   6.183   2.041   3.950  0.8176  0.0120 -0.5724
  126SOPE   H5X13529   6.291   2.066   3.952  0.0443  4.2162 -1.3554
  126SOPE   H5Y13530   6.151   1.934   3.956  0.7496  0.1017  1.0541
  126SOPE   C3613531   6.113   2.103   4.075 -0.6192  0.6190 -0.0047
  126SOPE   H6X13532   6.006   2.074   4.064  0.1260 -1.4195 -2.8266
  126SOPE   H6Y13533   6.130   2.213   4.074 -1.9341  0.8436  0.1635
  126SOPE   C3713534   6.173   2.059   4.207 -0.7436 -0.1692 -0.2438
  126SOPE   H7X13535   6.131   2.115   4.294 -0.5211 -1.0645  0.4443
  126SOPE   H7Y13536   6.276   2.100   4.203 -0.4473 -0.7757  0.7699
  126SOPE   C3813537   6.173   1.908   4.222 -0.1988  0.8229 -0.0315
  126SOPE   H8X13538   6.211   1.894   4.325 -1.7950  1.9800  0.7517
  126SOPE   H8Y13539   6.249   1.868   4.151  0.2364 -0.0524  0.8957
  126SOPE   C3913540   6.046   1.831   4.220  0.5568 -0.3248  0.2031
  126SOPE   H9X13541   6.070   1.726   4.250 -0.8322 -1.3346 -1.9608
  126SOPE   H9Y13542   6.007   1.823   4.116  1.0403  0.1524 -0.0165
  126SOPE  C31013543   5.935   1.884   4.310  0.7336  0.0945 -0.2685
  126SOPE  H10X13544   5.849   1.818   4.288  0.7552  0.2412 -0.8025
  126SOPE  H10Y13545   5.906   1.985   4.273  2.4830  0.8229  0.2406
  126SOPE  C31113546   5.953   1.873   4.463 -0.1556  0.2646  0.1826
  126SOPE  H11X13547   6.011   1.962   4.495  1.6588 -0.5991 -0.5957
  126SOPE  H11Y13548   6.010   1.780   4.485  1.5833  1.4514  0.9182
  126SOPE  C31213549   5.822   1.841   4.537  0.9352 -0.3345 -0.9968
  126SOPE  H12X13550   5.774   1.757   4.483  3.6922 -1.5126 -1.7914
  126SOPE  H12Y13551   5.752   1.927   4.529  1.7334  0.4169 -0.2198
  126SOPE  C31313552   5.846   1.793   4.685 -0.4031  0.4878 -0.7749
  126SOPE  H13X13553   5.896   1.870   4.748 -0.6964 -1.1715  1.6396
  126SOPE  H13Y13554   5.903   1.697   4.689  2.5677  2.0783  3.4102
  126SOPE  C31413555   5.714   1.765   4.744 -0.0132 -0.2113 -0.1528
  126SOPE  H14X13556   5.660   1.697   4.675  1.1778  0.1104 -1.4656
  126SOPE  H14Y13557   5.662   1.863   4.748 -0.4530 -0.4267 -0.4431
  126SOPE  C31513558   5.743   1.714   4.886  0.6003  0.2322  0.5275
  126SOPE  H15X13559   5.655   1.737   4.949 -0.8003 -0.4223 -1.1071
  126SOPE  H15Y13560   5.831   1.768   4.926  1.1332 -0.6141  0.5111
  126SOPE  C31613561   5.774   1.566   4.906 -0.0538  0.4494 -1.2738
  126SOPE  H16X13562   5.881   1.552   4.878  0.2409 -1.1901  0.4432
  126SOPE  H16Y13563   5.721   1.504   4.830 -0.0932  0.5752 -1.3488
  126SOPE  C31713564   5.761   1.522   5.050 -0.2488  0.1802  0.0512
  126SOPE  H17X13565   5.779   1.413   5.051  0.3619  0.2622  1.3648
  126SOPE  H17Y13566   5.657   1.543   5.083  0.5237  1.3158  1.9343
  126SOPE  C31813567   5.852   1.597   5.151 -0.3750  0.6814 -0.1914
  126SOPE  H18X13568   5.953   1.555   5.133 -0.0874  1.8429 -1.4481
  126SOPE  H18Y13569   5.825   1.557   5.251 -0.7387 -0.3190 -0.6850
  126SOPE  H18Z13570   5.839   1.707   5.162  0.2828  0.6094  1.7892
  127SOPE     N13571   2.348   5.808   2.257 -1.0065  0.1734  0.1343
  127SOPE   HN113572   2.375   5.793   2.356  0.9063 -1.9394 -0.6157
  127SOPE   HN213573   2.399   5.891   2.221  0.0865 -1.2737 -1.9009
  127SOPE   HN313574   2.246   5.826   2.242 -1.0629 -1.3413 -1.8419
  127SOPE   C1213575   2.403   5.684   2.200  0.2556  0.3922 -0.1732
  127SOPE  H12A13576   2.511   5.673   2.223 -0.0844 -2.6826  0.4786
  127SOPE  H12B13577   2.401   5.699   2.090  0.4828 -0.1682 -0.2594
  127SOPE   C1113578   2.325   5.553   2.247 -0.1057  0.3216 -0.4387
  127SOPE  H11A13579   2.373   5.525   2.343  0.1198 -0.4430 -0.7654
  127SOPE  H11B13580   2.342   5.475   2.169  0.6377  1.1771 -1.1453
  127SOPE     P13581   2.105   5.442   2.308  0.1564 -0.1529 -0.0974
  127SOPE   O1313582   2.160   5.319   2.240  0.5366 -0.2157 -0.2517
  127SOPE   O1413583   1.959   5.470   2.291  0.0913 -0.3532 -0.0018
  127SOPE   O1213584   2.184   5.572   2.267  0.5884 -0.1337  0.2625
  127SOPE   O1113585   2.114   5.431   2.461  0.1850 -0.0871 -0.3200
  127SOPE    C113586   2.123   5.545   2.547 -1.3936  0.2826  0.1845
  127SOPE    HA13587   2.096   5.646   2.510 -2.5551  0.4731  1.4766
  127SOPE    HB13588   2.225   5.545   2.592 -1.9312 -1.7064  1.5393
  127SOPE    C213589   2.032   5.525   2.672 -0.5893  0.1053 -0.2188
  127SOPE    HS13590   2.072   5.582   2.758  0.5478 -1.3536  0.2509
  127SOPE   O2113591   2.014   5.384   2.709  0.1019 -0.2277  0.3477
  127SOPE   C2113592   2.122   5.329   2.768 -0.2299  0.8777  0.5981
  127SOPE   O2213593   2.228   5.386   2.789  0.1092 -0.8418 -0.0986
  127SOPE   C2213594   2.085   5.179   2.797 -0.2283  0.5585 -0.0862
  127SOPE   H2R13595   2.153   5.126   2.726  0.2351  1.5598 -0.4059
  127SOPE   H2S13596   1.979   5.150   2.785 -0.7772  2.1145  0.7806
  127SOPE    C313597   1.885   5.579   2.636  0.3574 -0.2839 -0.4476
  127SOPE    HX13598   1.847   5.537   2.541 -3.1566  0.6486  0.4069
  127SOPE    HY13599   1.902   5.689   2.636  1.2147 -0.4056 -0.1383
  127SOPE   O3113600   1.789   5.555   2.738 -0.1872  0.2039 -0.3104
  127SOPE   C3113601   1.688   5.484   2.705  0.0541  0.3978 -0.1728
  127SOPE   O3213602   1.649   5.448   2.596  0.4505 -0.5033 -0.0052
  127SOPE   C3213603   1.619   5.432   2.835  0.3507  0.2800 -0.3392
  127SOPE   H2X13604   1.517   5.401   2.803  0.7175 -2.4548  0.8167
  127SOPE   H2Y13605   1.609   5.512   2.911 -0.4208 -1.3605  1.3839
  127SOPE   C2313606   2.152   5.150   2.934 -0.2901 -0.4753  0.0763
  127SOPE   H3R13607   2.253   5.196   2.943 -0.4320  0.5972 -2.7880
  127SOPE   H3S13608   2.177   5.043   2.917 -0.0210 -0.3084 -0.6307
  127SOPE   C2413609   2.066   5.155   3.057  0.3733  0.1851 -0.1102
  127SOPE   H4R13610   2.047   5.262   3.081 -1.0859 -0.0363 -0.2149
  127SOPE   H4S13611   1.972   5.096   3.054  0.7751 -0.4611 -0.3693
  127SOPE   C2513612   2.148   5.098   3.175 -0.2516  0.2640 -0.2942
  127SOPE   H5R13613   2.190   5.002   3.136 -0.4897  1.0950 -2.8386
  127SOPE   H5S13614   2.230   5.171   3.189 -1.3136  0.8819  4.3355
  127SOPE   C2613615   2.077   5.092   3.309  0.5330 -0.2675 -0.2408
  127SOPE   H6R13616   2.054   5.200   3.320  1.2944 -0.1032 -0.1607
  127SOPE   H6S13617   1.978   5.043   3.306 -0.3403  1.1528  2.3756
  127SOPE   C2713618   2.164   5.048   3.433 -0.3438 -0.4827  0.5000
  127SOPE   H7R13619   2.256   5.111   3.437 -0.0687 -0.7139 -1.1889
  127SOPE   H7S13620   2.126   5.087   3.529  1.5778 -0.3025  1.2347
  127SOPE   C2813621   2.195   4.903   3.437  0.1218 -0.2874 -0.0423
  127SOPE   H8R13622   2.104   4.840   3.441 -0.7648  0.9471 -0.3564
  127SOPE   H8S13623   2.245   4.887   3.339  0.4895 -0.5006  0.1753
  127SOPE   C2913624   2.287   4.860   3.546  0.0953  0.1725  0.2244
  127SOPE   H9113625   2.392   4.883   3.523  0.3599 -0.2173  1.0134
  127SOPE  C21013626   2.265   4.814   3.669  0.3966  0.3631 -0.3090
  127SOPE  H10113627   2.349   4.797   3.739  0.4290  1.6067 -0.0168
  127SOPE  C21113628   2.125   4.791   3.724 -0.7153 -0.1941 -0.7262
  127SOPE  H11R13629   2.120   4.681   3.741 -0.6556 -0.0763  0.1108
  127SOPE  H11S13630   2.045   4.803   3.648 -0.6067  0.1824 -0.7817
  127SOPE  C21213631   2.111   4.871   3.859 -0.7126 -0.2059 -0.0555
  127SOPE  H12R13632   2.124   4.980   3.846  0.4238 -0.3620 -0.3874
  127SOPE  H12S13633   2.190   4.837   3.930  0.9732  0.6328 -1.4636
  127SOPE  C21313634   1.968   4.857   3.917  0.2311  0.0517  0.0896
  127SOPE  H13R13635   1.946   4.750   3.936  0.6512  0.1465  1.1322
  127SOPE  H13S13636   1.900   4.892   3.836  0.6644 -0.8875 -0.6915
  127SOPE  C21413637   1.951   4.931   4.043 -0.0179 -0.0277 -0.6792
  127SOPE  H14R13638   1.842   4.946   4.056 -0.3654 -2.2147 -0.7553
  127SOPE  H14S13639   1.996   5.031   4.025 -1.7428  1.1141  0.9504
  127SOPE  C21513640   1.999   4.869   4.171  0.5885 -0.7551 -0.8953
  127SOPE  H15R13641   2.103   4.832   4.154  1.6142  1.7415 -0.5832
  127SOPE  H15S13642   1.926   4.786   4.183 -1.5879  0.7933 -2.5809
  127SOPE  C21613643   1.990   4.952   4.292  0.1814  0.0991  0.0624
  127SOPE  H16R13644   1.890   4.998   4.309  0.3997  0.0701  1.6506
  127SOPE  H16S13645   2.065   5.034   4.289 -0.6174  0.9236  1.4969
  127SOPE  C21713646   2.030   4.871   4.422 -0.4022  0.3815  0.2794
  127SOPE  H17R13647   2.110   4.798   4.400  0.8231  1.5946  0.5591
  127SOPE  H17S13648   1.940   4.815   4.456 -1.8921  2.9473  0.8844
  127SOPE  C21813649   2.074   4.959   4.534 -0.1816 -0.6110  0.3525
  127SOPE  H18R13650   2.083   4.905   4.631 -2.0667 -1.4202  0.1237
  127SOPE  H18S13651   2.005   5.043   4.554  0.7311  1.0038 -2.6685
  127SOPE  H18T13652   2.177   4.996   4.516 -0.3861  0.2439  0.8748
  127SOPE   C3313653   1.690   5.310   2.903  0.1825  0.5524  0.3548
  127SOPE   H3X13654   1.801   5.308   2.893  0.0459 -1.7881 -1.4936
  127SOPE   H3Y13655   1.661   5.231   2.832 -0.5109 -0.5775  1.8490
  127SOPE   C3413656   1.636   5.289   3.046 -0.1536 -0.7868 -0.2417
  127SOPE   H4X13657   1.526   5.291   3.034 -0.1695  0.0041 -0.0418
  127SOPE   H4Y13658   1.673   5.375   3.107  3.0659 -2.0680 -0.2052
  127SOPE   C3513659   1.672   5.146   3.094  0.1468 -0.1583 -0.1826
  127SOPE   H5X13660   1.783   5.144   3.101  0.1726 -0.1104 -0.6048
  127SOPE   H5Y13661   1.649   5.063   3.024 -0.1500 -1.0611  0.9402
  127SOPE   C3613662   1.621   5.111   3.237 -0.8656 -0.1904  0.0982
  127SOPE   H6X13663   1.644   5.004   3.254 -0.7709 -0.0069  1.2065
  127SOPE   H6Y13664   1.512   5.119   3.253 -1.0673  0.2261 -1.3155
  127SOPE   C3713665   1.696   5.197   3.341  0.3232 -0.1602  0.4326
  127SOPE   H7X13666   1.649   5.298   3.338 -0.3733 -0.5039 -0.8901
  127SOPE   H7Y13667   1.800   5.204   3.300 -0.2767  0.7463 -1.0188
  127SOPE   C3813668   1.695   5.131   3.482  0.4356  0.7332  0.6712
  127SOPE   H8X13669   1.742   5.030   3.475 -2.8518 -0.8389 -1.4442
  127SOPE   H8Y13670   1.591   5.110   3.515 -0.0898 -0.0893 -1.3776
  127SOPE   C3913671   1.760   5.226   3.580  0.2152  0.5768 -0.0515
  127SOPE   H9X13672   1.709   5.324   3.577  0.5861  0.7682 -0.1950
  127SOPE   H9Y13673   1.865   5.242   3.547  1.0209  2.1254  2.9167
  127SOPE  C31013674   1.754   5.166   3.715  0.2177 -0.4345 -0.7051
  127SOPE  H10X13675   1.849   5.116   3.744 -0.3037 -2.1076 -1.7454
  127SOPE  H10Y13676   1.670   5.095   3.734  2.2135 -2.0324  3.1854
  127SOPE  C31113677   1.728   5.267   3.830 -0.2268 -0.3688  0.0962
  127SOPE  H11X13678   1.629   5.316   3.826  0.1781  0.4395 -0.3680
  127SOPE  H11Y13679   1.799   5.351   3.818 -1.2235  0.5029  0.1411
  127SOPE  C31213680   1.755   5.217   3.973 -0.2514 -0.0672  0.3581
  127SOPE  H12X13681   1.860   5.182   3.973 -0.3235 -0.9273 -4.2048
  127SOPE  H12Y13682   1.681   5.134   3.983 -0.9230  0.2822 -1.2771
  127SOPE  C31313683   1.732   5.328   4.072  0.3678  0.5990 -0.9576
  127SOPE  H13X13684   1.627   5.363   4.074 -0.6884 -2.2602  2.2220
  127SOPE  H13Y13685   1.790   5.418   4.042 -0.6470  1.3498 -0.7158
  127SOPE  C31413686   1.752   5.300   4.226  0.4548 -0.7070 -0.0075
  127SOPE  H14X13687   1.853   5.260   4.250  0.0468 -0.8201  1.6060
  127SOPE  H14Y13688   1.671   5.230   4.253 -0.3474  0.5382  0.8894
  127SOPE  C31513689   1.731   5.424   4.309  0.6640 -0.2792  0.2854
  127SOPE  H15X13690   1.633   5.471   4.285  1.9114  1.5296 -1.5801
  127SOPE  H15Y13691   1.812   5.497   4.289 -0.4793  0.8190 -0.4732
  127SOPE  C31613692   1.729   5.381   4.450 -0.2644 -0.2180 -0.2527
  127SOPE  H16X13693   1.824   5.322   4.459 -0.0901 -0.0974 -1.1932
  127SOPE  H16Y13694   1.643   5.315   4.472 -1.1551  1.3996  1.3689
  127SOPE  C31713695   1.726   5.506   4.544  0.1368  0.4310 -0.0211
  127SOPE  H17X13696   1.646   5.574   4.507  0.7442  0.5348 -1.2042
  127SOPE  H17Y13697   1.809   5.571   4.508  1.3406 -0.1929  1.5019
  127SOPE  C31813698   1.742   5.464   4.693  0.2291 -0.0905  0.9255
  127SOPE  H18X13699   1.846   5.427   4.707  1.3781  1.7755 -1.7728
  127SOPE  H18Y13700   1.672   5.380   4.713 -2.5085  1.5484 -1.0940
  127SOPE  H18Z13701   1.707   5.551   4.751  0.2024  1.3383 -1.1300
  128SOPE     N13702   4.337   3.352   2.821  0.5097 -0.3914  0.0381
  128SOPE   HN113703   4.236   3.371   2.838  0.5740  1.0903 -1.0972
  128SOPE   HN213704   4.398   3.433   2.843  1.1141 -0.8871  0.2169
  128SOPE   HN313705   4.339   3.323   2.721  2.2225 -0.1040 -0.0252
  128SOPE   C1213706   4.379   3.236   2.906  0.2984 -0.3060 -0.5273
  128SOPE  H12A13707   4.489   3.225   2.897  0.8145  0.8324  2.9054
  128SOPE  H12B13708   4.329   3.153   2.852 -2.2372  1.5403 -1.2441
  128SOPE   C1113709   4.316   3.248   3.049  0.0790 -0.8493 -0.5312
  128SOPE  H11A13710   4.347   3.342   3.099 -3.1982 -0.9199  1.9702
  128SOPE  H11B13711   4.347   3.165   3.116 -0.2615 -0.1810  0.4784
  128SOPE     P13712   4.085   3.135   3.011  0.0913 -0.5104 -0.1742
  128SOPE   O1313713   4.102   3.113   2.869 -0.3291 -0.0660  0.5047
  128SOPE   O1413714   3.941   3.172   3.041  0.5764  0.6178 -0.7830
  128SOPE   O1213715   4.176   3.254   3.047  0.2876  0.1888  0.1020
  128SOPE   O1113716   4.137   3.014   3.104 -0.1772 -0.7644  1.2252
  128SOPE    C113717   4.091   3.004   3.239  0.6330 -0.3724  0.3937
  128SOPE    HA13718   4.073   2.897   3.264 -1.8058  0.2357  1.6211
  128SOPE    HB13719   3.985   3.031   3.257  0.4684 -0.2360 -0.7353
  128SOPE    C213720   4.181   3.071   3.339  0.0216 -0.5533 -0.2134
  128SOPE    HS13721   4.208   3.165   3.287 -1.4155  0.5441  0.9383
  128SOPE   O2113722   4.298   2.982   3.355  0.6974 -0.0695  0.0178
  128SOPE   C2113723   4.410   3.046   3.381 -0.5751  0.1388 -0.2516
  128SOPE   O2213724   4.438   3.164   3.361  0.3858  0.4405 -0.1677
  128SOPE   C2213725   4.518   2.937   3.404 -0.4471 -0.4580 -0.2656
  128SOPE   H2R13726   4.529   2.872   3.314  0.1958 -0.2848 -0.3210
  128SOPE   H2S13727   4.475   2.869   3.480  0.8809  1.3446  2.2641
  128SOPE    C313728   4.109   3.103   3.478  0.5025  0.2000  1.1037
  128SOPE    HX13729   4.082   3.002   3.517 -0.7014 -0.7178 -1.8320
  128SOPE    HY13730   4.017   3.161   3.456  0.8303 -0.8511 -4.5504
  128SOPE   O3113731   4.188   3.166   3.578  0.5440  0.1079  0.2740
  128SOPE   C3113732   4.218   3.300   3.546  1.2302  0.1411 -1.0326
  128SOPE   O3213733   4.194   3.352   3.441  0.1711 -0.0227  0.7955
  128SOPE   C3213734   4.296   3.362   3.669  0.2930  0.5988 -0.1134
  128SOPE   H2X13735   4.403   3.334   3.660  0.8884  2.0201  1.8853
  128SOPE   H2Y13736   4.266   3.313   3.764  1.4535 -0.0139 -0.0440
  128SOPE   C2313737   4.662   2.982   3.459  0.3681  0.2613 -0.2198
  128SOPE   H3R13738   4.716   3.049   3.389 -0.3045  1.3508  0.2758
  128SOPE   H3S13739   4.729   2.895   3.470  0.2741  0.4560  2.5223
  128SOPE   C2413740   4.658   3.062   3.591 -0.0797  0.3518 -0.1942
  128SOPE   H4R13741   4.754   3.113   3.609 -0.1685 -0.4186  2.9005
  128SOPE   H4S13742   4.575   3.135   3.582  0.3557  0.9835  0.8321
  128SOPE   C2513743   4.614   2.975   3.709 -0.5826 -0.1673 -0.1914
  128SOPE   H5R13744   4.508   2.942   3.717 -0.2535 -1.1579  0.2709
  128SOPE   H5S13745   4.681   2.887   3.710  0.2395  0.4343  1.3836
  128SOPE   C2613746   4.645   3.045   3.845  0.2037  0.0913 -0.4292
  128SOPE   H6R13747   4.752   3.072   3.845  0.6996 -1.7513 -0.7001
  128SOPE   H6S13748   4.601   3.146   3.859  3.9400  2.0518 -1.4982
  128SOPE   C2713749   4.616   2.958   3.971  0.5835 -0.2131  0.1222
  128SOPE   H7R13750   4.507   2.937   3.972  0.2859  1.1540  2.4190
  128SOPE   H7S13751   4.666   2.861   3.950  1.3312  0.1383  0.2069
  128SOPE   C2813752   4.657   3.017   4.110  0.4216  0.1858  0.2330
  128SOPE   H8R13753   4.764   3.043   4.094  0.6661 -2.1778 -2.8245
  128SOPE   H8S13754   4.592   3.106   4.127 -0.7793 -0.3977 -1.1230
  128SOPE   C2913755   4.627   2.914   4.219 -0.0850  0.2322  0.2726
  128SOPE   H9113756   4.524   2.877   4.205 -0.5602  1.7521 -0.4863
  128SOPE  C21013757   4.697   2.886   4.330  0.1215 -0.2146 -0.1466
  128SOPE  H10113758   4.644   2.817   4.398 -1.6512 -1.1260 -2.3161
  128SOPE  C21113759   4.833   2.936   4.358 -0.5887  0.2417  0.1428
  128SOPE  H11R13760   4.844   3.029   4.297 -0.2165  0.8640  1.1319
  128SOPE  H11S13761   4.906   2.857   4.331  1.0285  1.9336 -0.6381
  128SOPE  C21213762   4.856   2.976   4.507 -0.4009  0.3739 -0.1924
  128SOPE  H12R13763   4.787   3.054   4.546 -0.1534  0.2618  0.4822
  128SOPE  H12S13764   4.962   3.011   4.515 -0.4139  0.3569  0.0506
  128SOPE  C21313765   4.849   2.860   4.607  0.6478  0.7181 -0.0281
  128SOPE  H13R13766   4.913   2.776   4.574  0.1133  0.0460  0.6242
  128SOPE  H13S13767   4.742   2.828   4.608  1.0847 -0.8835 -1.2672
  128SOPE  C21413768   4.901   2.898   4.748  0.0015 -0.4871 -0.0358
  128SOPE  H14R13769   4.822   2.958   4.798 -1.0221 -1.2429 -0.6912
  128SOPE  H14S13770   4.984   2.969   4.730 -0.2412 -0.2724 -0.3271
  128SOPE  C21513771   4.930   2.775   4.827 -0.1216  0.3164 -0.2636
  128SOPE  H15R13772   5.011   2.805   4.897  0.1478  1.6815 -1.1269
  128SOPE  H15S13773   4.964   2.689   4.766 -0.3046  0.5697 -0.7303
  128SOPE  C21613774   4.808   2.729   4.907  0.0719 -0.0521 -0.3429
  128SOPE  H16R13775   4.810   2.625   4.944  0.8416  0.6811  1.8645
  128SOPE  H16S13776   4.716   2.735   4.845 -0.4491 -0.1738  0.4044
  128SOPE  C21713777   4.779   2.815   5.033 -0.2633  0.1942 -0.6142
  128SOPE  H17R13778   4.740   2.914   5.002  0.1238  0.9065  1.0713
  128SOPE  H17S13779   4.868   2.832   5.097 -0.8469 -1.5928  0.7621
  128SOPE  C21813780   4.670   2.765   5.126  0.7381 -0.4673  0.1052
  128SOPE  H18R13781   4.646   2.839   5.205  0.4953  1.3114 -1.5669
  128SOPE  H18S13782   4.700   2.682   5.194 -1.0239 -0.9336  0.3657
  128SOPE  H18T13783   4.578   2.729   5.074 -0.0983 -0.1893  1.3347
  128SOPE   C3313784   4.290   3.520   3.679  0.4005  0.6100  0.6417
  128SOPE   H3X13785   4.188   3.560   3.664  0.9892  1.5854 -1.0581
  128SOPE   H3Y13786   4.355   3.550   3.594  0.4806 -1.0883  0.0698
  128SOPE   C3413787   4.347   3.572   3.812  0.5795 -0.3515  0.5589
  128SOPE   H4X13788   4.451   3.534   3.818 -0.1209 -2.7259 -1.0335
  128SOPE   H4Y13789   4.283   3.522   3.888 -2.2641  0.0850 -1.3865
  128SOPE   C3513790   4.344   3.733   3.824  0.0653 -0.4248 -0.3791
  128SOPE   H5X13791   4.237   3.759   3.837  0.4731  0.8663  0.5874
  128SOPE   H5Y13792   4.383   3.782   3.731  1.0353  0.9502  0.7045
  128SOPE   C3613793   4.435   3.786   3.940  0.2328  0.3315  0.0156
  128SOPE   H6X13794   4.544   3.789   3.918  0.3808  1.7395  0.7917
  128SOPE   H6Y13795   4.424   3.711   4.021 -0.1556 -1.4999 -1.6637
  128SOPE   C3713796   4.394   3.918   4.001  0.0825 -0.1580  0.5451
  128SOPE   H7X13797   4.286   3.907   4.024 -0.0491  1.6670  0.9243
  128SOPE   H7Y13798   4.409   4.002   3.929  1.5490 -0.8555  0.0047
  128SOPE   C3813799   4.467   3.960   4.132 -0.0257 -0.6078  0.1767
  128SOPE   H8X13800   4.423   4.058   4.158  1.2916  0.3751 -1.1494
  128SOPE   H8Y13801   4.568   3.980   4.090 -0.5956 -0.4110 -1.1715
  128SOPE   C3913802   4.450   3.877   4.253 -0.4626 -0.1868  0.8084
  128SOPE   H9X13803   4.535   3.805   4.254 -0.9407 -0.7763  0.1567
  128SOPE   H9Y13804   4.360   3.815   4.234 -0.1542 -0.0451 -1.3147
  128SOPE  C31013805   4.432   3.957   4.382 -0.1718 -0.6223  0.4321
  128SOPE  H10X13806   4.416   3.878   4.459 -0.5144 -0.7407  0.2410
  128SOPE  H10Y13807   4.339   4.018   4.380  0.9376  1.2048  1.3834
  128SOPE  C31113808   4.555   4.040   4.423  0.5310 -0.0617 -0.2448
  128SOPE  H11X13809   4.566   4.134   4.364  2.9754 -0.3637 -0.3485
  128SOPE  H11Y13810   4.649   3.985   4.406  0.9785  0.7528 -0.4637
  128SOPE  C31213811   4.552   4.079   4.572 -1.2127 -0.2513 -0.2395
  128SOPE  H12X13812   4.597   4.180   4.583 -1.0499 -0.4077  0.6689
  128SOPE  H12Y13813   4.617   4.016   4.637 -0.4805  1.2690  0.5625
  128SOPE  C31313814   4.420   4.086   4.657 -0.7102  0.1229  0.2133
  128SOPE  H13X13815   4.361   3.994   4.640  2.1900 -1.5581 -1.7903
  128SOPE  H13Y13816   4.368   4.179   4.626 -2.4988 -1.0973 -0.6031
  128SOPE  C31413817   4.437   4.083   4.807 -0.1578  0.1494  0.6422
  128SOPE  H14X13818   4.461   3.978   4.834  2.6928  0.8811  1.3527
  128SOPE  H14Y13819   4.339   4.121   4.843 -0.2139  1.0110 -0.3762
  128SOPE  C31513820   4.559   4.169   4.857 -0.1141  0.5498  0.2692
  128SOPE  H15X13821   4.567   4.267   4.804  1.5799 -0.0518 -0.6590
  128SOPE  H15Y13822   4.655   4.115   4.848 -1.3671 -1.9715  1.0507
  128SOPE  C31613823   4.539   4.200   5.007  0.0144  0.0702  0.2252
  128SOPE  H16X13824   4.548   4.109   5.071  1.4916  2.3984  3.6164
  128SOPE  H16Y13825   4.437   4.236   5.029 -0.0540 -0.1685  0.3012
  128SOPE  C31713826   4.635   4.299   5.069 -1.1625 -0.5184  0.2667
  128SOPE  H17X13827   4.618   4.396   5.018 -2.5005 -1.0139 -0.2525
  128SOPE  H17Y13828   4.737   4.256   5.062 -1.2200 -0.7078  0.5923
  128SOPE  C31813829   4.618   4.319   5.224  0.4614  0.9580 -0.0938
  128SOPE  H18X13830   4.519   4.356   5.259 -0.1954 -0.1476 -0.7528
  128SOPE  H18Y13831   4.685   4.399   5.264  2.3291 -1.2876  1.5889
  128SOPE  H18Z13832   4.636   4.223   5.276  3.0890  1.7227  0.5752
  129OSM      N13833   3.641   0.299   8.068  0.5496 -0.2984  0.2490
  129OSM    C1513834   3.666   0.201   7.957  0.1701  0.3200  0.2881
  129OSM   H15A13835   3.631   0.100   7.979 -1.4773  1.0984  1.4827
  129OSM   H15B13836   3.772   0.190   7.943  0.3069  1.6141  0.2258
  129OSM   H15C13837   3.620   0.230   7.864  0.1786  2.4153  0.9054
  129OSM    C1413838   3.497   0.331   8.071  0.3771  0.3672 -0.1288
  129OSM   H14A13839   3.470   0.369   7.974 -1.4105 -1.5613 -0.4505
  129OSM   H14B13840   3.465   0.402   8.147 -3.0142  0.1271 -1.1840
  129OSM   H14C13841   3.428   0.252   8.098  0.3535  1.1183  2.2528
  129OSM    C1313842   3.685   0.229   8.197  0.1828  0.6455 -0.0407
  129OSM   H13A13843   3.663   0.289   8.284  1.6951  1.3570 -0.1291
  129OSM   H13B13844   3.792   0.220   8.201  0.2847  0.9313 -1.6695
  129OSM   H13C13845   3.626   0.139   8.212  2.0729 -0.4219  1.4356
  129OSM    C1213846   3.726   0.421   8.058  0.3284 -0.3219  0.2226
  129OSM   H12A13847   3.713   0.485   8.145 -2.1166  0.1990 -0.4518
  129OSM   H12B13848   3.701   0.474   7.967 -1.1829 -0.2822  0.6210
  129OSM    C1113849   3.883   0.404   8.036 -0.7549  0.2645  0.1612
  129OSM   H11A13850   3.928   0.342   8.117 -0.7953  2.4598  1.9989
  129OSM   H11B13851   3.929   0.506   8.033  0.0841 -0.1296 -0.8030
  129OSM      P13852   4.047   0.392   7.834  0.1909 -0.2474 -0.0154
  129OSM    O1313853   4.072   0.536   7.852  0.3157 -0.6560  0.5775
  129OSM    O1413854   4.155   0.303   7.879 -0.0620 -0.4765 -0.0041
  129OSM    O1113855   4.018   0.363   7.681  0.4825  0.1578  0.5062
  129OSM    O1213856   3.911   0.351   7.903  0.5413 -0.0807 -0.0593
  129OSM    C1S13857   3.937   0.254   7.631  0.1461  0.2648  0.9457
  129OSM    H1S13858   3.845   0.247   7.693  0.1087  1.7744  1.0920
  129OSM    H1T13859   3.989   0.155   7.636  1.6748  0.9503 -0.3643
  129OSM     NF13860   3.792   0.173   7.436 -0.2727 -0.6627  0.0127
  129OSM    HNF13861   3.816   0.124   7.353 -0.1801  1.1498 -1.0898
  129OSM    C2S13862   3.889   0.272   7.481  1.0812  0.4392 -0.0015
  129OSM    H2S13863   3.836   0.369   7.478 -0.6485 -0.4865 -2.8758
  129OSM    C3S13864   4.010   0.292   7.381 -0.6234  0.1556  0.0250
  129OSM    H3S13865   4.057   0.194   7.358 -0.6670  0.0134  0.5136
  129OSM     O313866   4.113   0.374   7.429 -0.1472  0.4578 -0.4787
  129OSM    HO313867   4.087   0.385   7.521  0.3029  0.5820 -0.3625
  129OSM    C4S13868   3.954   0.355   7.251  0.0449  0.8980  0.4635
  129OSM    H4S13869   3.927   0.278   7.177  1.2424 -1.4175  2.2802
  129OSM    C5S13870   3.936   0.487   7.228  0.2993  0.1361 -0.4096
  129OSM    H5S13871   3.964   0.548   7.316  0.0905 -0.5890  0.1686
  129OSM    C6S13872   3.868   0.554   7.114  0.2556 -0.3056  0.6966
  129OSM    H6S13873   3.920   0.646   7.081 -1.5810  0.3543 -0.5468
  129OSM    H6T13874   3.766   0.576   7.152  0.1388 -1.2264  0.9380
  129OSM    C7S13875   3.851   0.462   6.988  0.1080  0.1737  0.2620
  129OSM    H7S13876   3.772   0.389   7.017 -0.0712 -0.0532 -0.7723
  129OSM    H7T13877   3.953   0.421   6.971  1.4209  2.9169  1.0568
  129OSM    C8S13878   3.792   0.537   6.862 -0.1894  0.7699 -0.7879
  129OSM    H8S13879   3.859   0.623   6.839 -1.1513  1.7749  0.0178
  129OSM    H8T13880   3.694   0.578   6.896  0.6502  2.4708 -0.3150
  129OSM    C9S13881   3.775   0.437   6.748  0.1397  0.2247  0.0267
  129OSM    H9S13882   3.687   0.373   6.770 -0.3172  1.2044  1.1639
  129OSM    H9T13883   3.857   0.362   6.743 -0.2632 -0.1293 -2.7574
  129OSM   C10S13884   3.751   0.503   6.613  0.5000  0.1938  0.4810
  129OSM   H10S13885   3.839   0.562   6.580 -0.2643  1.8968  1.3734
  129OSM   H10T13886   3.669   0.578   6.618 -1.5547 -1.7419 -1.7658
  129OSM   C11S13887   3.720   0.414   6.499 -0.3916 -0.4856 -0.0253
  129OSM   H11S13888   3.637   0.343   6.516 -2.3470  1.6406 -0.1515
  129OSM   H11T13889   3.807   0.356   6.461 -0.6532 -0.6547 -0.3706
  129OSM   C12S13890   3.683   0.508   6.383  1.0960 -0.8084 -0.5148
  129OSM   H12S13891   3.603   0.580   6.409  0.7619 -0.3336 -2.6796
  129OSM   H12T13892   3.637   0.446   6.304  0.4945  0.5126 -1.2267
  129OSM   C13S13893   3.786   0.590   6.299  0.5331 -0.1474  0.3986
  129OSM   H13S13894   3.863   0.523   6.256  0.8622  0.3828  0.1586
  129OSM   H13T13895   3.842   0.663   6.361 -0.4611  0.7734  0.2495
  129OSM   C14S13896   3.724   0.660   6.183  0.3234 -0.2196 -0.3573
  129OSM   H14S13897   3.786   0.748   6.153  4.1987 -1.6908  2.3977
  129OSM   H14T13898   3.623   0.693   6.215  0.3373  0.2071 -0.7377
  129OSM   C15S13899   3.709   0.568   6.062  0.0093 -0.0386  0.6359
  129OSM   H15S13900   3.614   0.512   6.074 -1.5684  2.3002 -0.1381
  129OSM   H15T13901   3.788   0.490   6.053 -0.2880 -0.2404 -0.4116
  129OSM   C16S13902   3.690   0.660   5.934 -0.9077  0.0126 -0.1621
  129OSM   H16S13903   3.764   0.743   5.938  0.3930 -1.1753  1.8235
  129OSM   H16T13904   3.593   0.714   5.942 -0.3084  0.8745  1.9765
  129OSM   C17S13905   3.703   0.586   5.808  0.0984 -0.0853 -0.4604
  129OSM   H17S13906   3.803   0.540   5.804 -0.0355 -0.2688 -2.9972
  129OSM   H17T13907   3.709   0.649   5.717  1.6031 -0.3537 -0.5698
  129OSM   C18S13908   3.609   0.472   5.778  0.1617  0.0367 -0.5121
  129OSM   H18S13909   3.632   0.431   5.678 -0.3551  2.0007 -1.4917
  129OSM   H18T13910   3.506   0.514   5.780  0.3092  0.6376  3.3963
  129OSM   H18U13911   3.613   0.382   5.844  2.1630 -0.7800 -1.6916
  129OSM    C1F13912   3.669   0.169   7.487  0.9468 -0.2363  0.3226
  129OSM     OF13913   3.624   0.249   7.566  1.0757  0.8501 -0.3007
  129OSM    C2F13914   3.572   0.063   7.426  0.3119 -0.2620  0.3921
  129OSM    H2F13915   3.543  -0.002   7.511  1.7801 -2.7051 -0.8400
  129OSM    H2G13916   3.636   0.001   7.359 -0.5928  0.0898 -0.8405
  129OSM    C3F13917   3.461   0.134   7.344 -0.3647 -0.4167 -0.2838
  129OSM    H3F13918   3.408   0.201   7.415 -0.9544  0.2005 -1.2784
  129OSM    H3G13919   3.383   0.067   7.304 -2.1084  0.9308  0.7428
  129OSM    C4F13920   3.517   0.206   7.212  0.5004  0.0087 -0.4973
  129OSM    H4F13921   3.598   0.158   7.152  0.1599  1.4496 -2.2206
  129OSM    H4G13922   3.552   0.311   7.224  1.1399 -0.2687  0.1039
  129OSM    C5F13923   3.403   0.244   7.118 -0.9185  0.3253 -0.7759
  129OSM    H5F13924   3.331   0.305   7.176 -0.4369 -0.1982  0.3879
  129OSM    H5G13925   3.358   0.149   7.081 -2.4110 -0.4611  2.6783
  129OSM    C6F13926   3.453   0.324   6.996  0.5462  0.0122  0.3818
  129OSM    H6F13927   3.544   0.293   6.941  1.6638  0.5437  1.8689
  129OSM    H6G13928   3.486   0.423   7.034  0.3912 -0.1566  0.9719
  129OSM    C7F13929   3.333   0.363   6.899 -0.5171 -0.3413 -0.4126
  129OSM    H7F13930   3.263   0.434   6.949 -0.9527 -0.1524 -1.2664
  129OSM    H7G13931   3.293   0.261   6.883 -0.0178 -1.1337  2.8659
  129OSM    C8F13932   3.369   0.417   6.756  0.5244  0.3354 -0.3685
  129OSM    H8F13933   3.422   0.339   6.698 -2.6462 -2.0279 -0.3583
  129OSM    H8G13934   3.453   0.488   6.770 -0.5249  1.5858 -0.2400
  129OSM    C9F13935   3.252   0.479   6.689 -0.1868  0.0463  0.5806
  129OSM    H9F13936   3.193   0.554   6.742 -0.8334 -1.0905  1.5012
  129OSM   C10F13937   3.228   0.449   6.561 -0.3892 -0.2245 -0.1895
  129OSM   H10F13938   3.139   0.498   6.518 -0.5407 -0.5420 -0.2362
  129OSM   C11F13939   3.301   0.368   6.458 -0.3251 -0.2112  0.8682
  129OSM   H11F13940   3.294   0.260   6.484  0.7662 -0.8100 -1.1532
  129OSM   H11G13941   3.408   0.397   6.458 -0.1938 -0.6003 -1.2462
  129OSM   C12F13942   3.241   0.372   6.313  0.5404 -0.7538  0.0417
  129OSM   H12F13943   3.134   0.343   6.303  0.1600  0.4147  0.4964
  129OSM   H12G13944   3.288   0.298   6.245 -1.0554 -1.5671 -0.2328
  129OSM   C13F13945   3.244   0.516   6.261  0.4797 -0.8762  0.3423
  129OSM   H13F13946   3.345   0.561   6.274  0.9717 -2.6206  3.2693
  129OSM   H13G13947   3.181   0.589   6.315  0.0139 -0.6635 -0.4643
  129OSM   C14F13948   3.210   0.515   6.110 -0.0551  0.2571  0.0180
  129OSM   H14F13949   3.108   0.484   6.079 -0.0662 -1.4292  1.6066
  129OSM   H14G13950   3.282   0.439   6.074 -0.6634 -1.1253  1.6199
  129OSM   C15F13951   3.234   0.644   6.039 -0.1785 -0.7012 -0.3058
  129OSM   H15F13952   3.335   0.683   6.062 -0.3417  0.7541 -1.8692
  129OSM   H15G13953   3.160   0.720   6.072  0.6930 -0.1503  0.4054
  129OSM   C16F13954   3.225   0.627   5.888 -0.1158 -0.7880 -0.1936
  129OSM   H16F13955   3.129   0.577   5.861 -0.7670  0.6235 -0.6109
  129OSM   H16G13956   3.310   0.562   5.860  0.0387  0.3339 -2.5232
  129OSM   C17F13957   3.229   0.753   5.811 -0.0844 -0.3140 -0.6839
  129OSM   H17F13958   3.247   0.720   5.706 -0.3389 -3.0847  0.0854
  129OSM   H17G13959   3.318   0.814   5.839  0.5840 -1.5806  0.0198
  129OSM   C18F13960   3.103   0.842   5.826 -0.2136 -0.5182 -0.0394
  129OSM   H18F13961   3.015   0.785   5.791 -0.4947  0.0300 -0.2235
  129OSM   H18G13962   3.101   0.943   5.779 -0.3933 -0.8822 -0.8345
  129OSM   H18H13963   3.084   0.855   5.935 -0.9277 -1.2899 -0.0629
  130OSM      N13964   4.743   2.020   7.526  0.1104  0.2287  0.4106
  130OSM    C1513965   4.737   2.166   7.479  0.2257 -0.1136  0.0448
  130OSM   H15A13966   4.808   2.235   7.522 -0.1939  0.0148  0.5426
  130OSM   H15B13967   4.636   2.199   7.497  0.1195  1.2043 -2.4523
  130OSM   H15C13968   4.749   2.160   7.371 -1.2692 -1.1921 -0.0884
  130OSM    C1413969   4.725   1.931   7.411 -0.1682  0.7126 -0.2407
  130OSM   H14A13970   4.779   1.958   7.321  0.8048 -2.4919 -0.7722
  130OSM   H14B13971   4.622   1.929   7.377 -0.1567 -1.9833 -0.3545
  130OSM   H14C13972   4.755   1.834   7.449  0.4812  1.4877  1.2852
  130OSM    C1313973   4.890   2.013   7.568  0.4347  0.0952 -0.8195
  130OSM   H13A13974   4.901   2.048   7.670  0.6900 -1.1744 -0.3945
  130OSM   H13B13975   4.955   2.068   7.502  0.1546  1.2633 -0.1543
  130OSM   H13C13976   4.922   1.910   7.558 -0.4199 -0.0248 -2.8048
  130OSM    C1213977   4.644   1.996   7.632  0.5760  0.2195 -0.2680
  130OSM   H12A13978   4.657   2.063   7.716  1.8714  2.1030 -1.8611
  130OSM   H12B13979   4.662   1.897   7.671 -1.0858 -0.1671 -0.4388
  130OSM    C1113980   4.495   2.000   7.587 -0.3627 -0.7231 -1.4513
  130OSM   H11A13981   4.444   1.960   7.678  0.4016  2.6319  0.6189
  130OSM   H11B13982   4.480   1.933   7.500  0.8201 -1.4146 -1.1456
  130OSM      P13983   4.325   2.166   7.509  0.3785 -0.0542 -0.4143
  130OSM    O1313984   4.224   2.102   7.591  0.0908  0.1849 -0.1413
  130OSM    O1413985   4.312   2.313   7.493 -0.1984 -0.3352 -0.7884
  130OSM    O1113986   4.326   2.095   7.371  0.0958 -0.7914  0.4631
  130OSM    O1213987   4.460   2.137   7.575  0.1660 -0.2533 -0.4975
  130OSM    C1S13988   4.416   2.147   7.268 -0.1991  0.2812  0.0078
  130OSM    H1S13989   4.521   2.115   7.285 -0.2761 -0.8854 -1.5676
  130OSM    H1T13990   4.414   2.258   7.257 -1.2563  0.2950  0.2734
  130OSM     NF13991   4.467   2.117   7.025 -0.2549 -0.3668  0.5230
  130OSM    HNF13992   4.430   2.189   6.967 -1.2110 -1.1980  0.0572
  130OSM    C2S13993   4.375   2.084   7.134  0.4179  0.1492 -1.0748
  130OSM    H2S13994   4.384   1.974   7.135 -1.6824 -0.0960 -2.0821
  130OSM    C3S13995   4.219   2.108   7.105 -0.3537  0.3966 -0.3568
  130OSM    H3S13996   4.209   2.218   7.097  1.3446  1.0166  3.6037
  130OSM     O313997   4.128   2.072   7.214  0.3897  0.0121 -0.3755
  130OSM    HO313998   4.189   2.066   7.287 -1.7721 -2.3787  1.4185
  130OSM    C4S13999   4.177   2.038   6.986  0.5498 -0.3361 -0.0386
  130OSM    H4S14000   4.138   1.937   7.008  0.8515 -0.4389  0.0318
  130OSM    C5S14001   4.161   2.088   6.864 -0.0517  0.2804 -0.3602
  130OSM    H5S14002   4.180   2.194   6.843 -0.5152  0.6063  0.7729
  130OSM    C6S14003   4.104   2.005   6.751  0.1779 -0.7230 -0.4654
  130OSM    H6S14004   4.021   2.058   6.700  0.1040 -0.1330  0.2511
  130OSM    H6T14005   4.054   1.911   6.781  0.6768 -1.7845 -2.7333
  130OSM    C7S14006   4.228   1.977   6.661  0.7084  0.5267 -0.4497
  130OSM    H7S14007   4.191   1.890   6.602 -0.6998 -1.1223  2.6606
  130OSM    H7T14008   4.316   1.954   6.724 -1.0830  0.7021  2.3078
  130OSM    C8S14009   4.265   2.087   6.567  0.5149  0.0889  0.4757
  130OSM    H8S14010   4.315   2.164   6.631 -1.4614 -0.8931  3.3882
  130OSM    H8T14011   4.173   2.136   6.528 -0.4550 -1.2632  1.0197
  130OSM    C9S14012   4.356   2.051   6.451 -0.4387  0.5763  0.0442
  130OSM    H9S14013   4.311   1.969   6.391  0.9819 -1.1753  1.2645
  130OSM    H9T14014   4.451   2.012   6.492  0.1124 -0.3367 -1.9875
  130OSM   C10S14015   4.363   2.177   6.366  0.2166  0.1736  0.0210
  130OSM   H10S14016   4.422   2.258   6.415  1.5926 -1.4548  1.1915
  130OSM   H10T14017   4.262   2.197   6.325 -0.1482 -2.7543 -0.7110
  130OSM   C11S14018   4.442   2.143   6.222  0.2069  0.0796 -0.4059
  130OSM   H11S14019   4.405   2.047   6.178 -0.6531  0.5673 -0.7724
  130OSM   H11T14020   4.550   2.144   6.247  0.4905 -1.1966 -1.4304
  130OSM   C12S14021   4.430   2.260   6.123  1.3164 -0.0007  0.2495
  130OSM   H12S14022   4.463   2.358   6.164 -1.4805 -0.0179  2.9631
  130OSM   H12T14023   4.324   2.282   6.097  2.4139  3.0590 -2.3164
  130OSM   C13S14024   4.498   2.233   5.992  0.4059 -0.2586 -0.3741
  130OSM   H13S14025   4.466   2.134   5.953 -0.2165 -0.3699  0.3881
  130OSM   H13T14026   4.608   2.230   6.011  0.1424 -0.7104  1.2342
  130OSM   C14S14027   4.484   2.352   5.891  0.2097  0.4021  0.5369
  130OSM   H14S14028   4.495   2.449   5.944  0.3770  1.2614 -1.0125
  130OSM   H14T14029   4.378   2.355   5.859  0.5180 -1.6842 -0.8616
  130OSM   C15S14030   4.583   2.358   5.777  0.2511  0.5058  0.7262
  130OSM   H15S14031   4.591   2.253   5.741  1.4732  0.1188  2.0651
  130OSM   H15T14032   4.685   2.390   5.805 -0.2379  5.4002 -1.9032
  130OSM   C16S14033   4.547   2.471   5.678 -0.2038  0.4727  0.1617
  130OSM   H16S14034   4.575   2.562   5.735 -1.1211  0.0690  1.3249
  130OSM   H16T14035   4.438   2.470   5.654 -0.5329 -1.3025  1.5270
  130OSM   C17S14036   4.626   2.466   5.542  0.2989 -0.4530  0.4419
  130OSM   H17S14037   4.603   2.560   5.488 -1.7900 -0.0949  1.8264
  130OSM   H17T14038   4.590   2.385   5.476 -3.2906  1.0605  0.3182
  130OSM   C18S14039   4.779   2.442   5.554  0.3182  0.0446 -0.0679
  130OSM   H18S14040   4.813   2.419   5.451 -1.5933 -0.1095 -0.6998
  130OSM   H18T14041   4.812   2.352   5.610 -2.4852 -1.6020 -0.8996
  130OSM   H18U14042   4.834   2.526   5.602  0.0906 -0.4479  1.0860
  130OSM    C1F14043   4.590   2.073   7.026  0.8522  0.7035  0.1961
  130OSM     OF14044   4.635   2.012   7.124  0.3560  0.3451 -0.5273
  130OSM    C2F14045   4.671   2.099   6.904  1.1025  0.2082  0.3708
  130OSM    H2F14046   4.730   2.187   6.937  0.8078 -0.1282  1.8806
  130OSM    H2G14047   4.614   2.130   6.814  0.8776 -0.0275  0.4297
  130OSM    C3F14048   4.776   1.995   6.872  0.2549  0.5163  0.3636
  130OSM    H3F14049   4.730   1.900   6.838  0.4153  1.1374 -1.7822
  130OSM    H3G14050   4.821   1.970   6.970 -0.5450 -0.5200  0.4915
  130OSM    C4F14051   4.870   2.024   6.757 -0.5053 -0.4582 -0.1217
  130OSM    H4F14052   4.963   1.964   6.755 -0.2078  0.0033 -2.1368
  130OSM    H4G14053   4.907   2.128   6.769 -1.2673 -0.4295  2.9123
  130OSM    C5F14054   4.786   2.001   6.624 -0.1264 -0.0415 -0.0925
  130OSM    H5F14055   4.720   2.090   6.615 -1.2489 -0.7639  0.7933
  130OSM    H5G14056   4.720   1.913   6.639  1.2988 -0.7655  2.4449
  130OSM    C6F14057   4.866   1.985   6.495 -0.0290  0.5627 -0.3571
  130OSM    H6F14058   4.931   1.898   6.518  0.6881  0.5858 -2.1388
  130OSM    H6G14059   4.931   2.075   6.489 -0.7358  1.1467  0.4134
  130OSM    C7F14060   4.775   1.952   6.377 -0.6553 -0.7000  0.0156
  130OSM    H7F14061   4.706   2.038   6.394 -0.2571 -0.6992  1.8634
  130OSM    H7G14062   4.728   1.858   6.414  2.1081 -2.0163  0.4433
  130OSM    C8F14063   4.826   1.939   6.237 -0.4949  0.4301 -0.0413
  130OSM    H8F14064   4.748   1.952   6.159  0.8875 -1.5717 -1.8816
  130OSM    H8G14065   4.849   1.831   6.226  0.0124  0.5431 -0.1316
  130OSM    C9F14066   4.939   2.039   6.207  0.0715 -0.7914 -0.0808
  130OSM    H9F14067   5.017   2.047   6.283 -1.2380  0.4404  1.2000
  130OSM   C10F14068   4.940   2.127   6.097 -0.3819  0.2497  0.4361
  130OSM   H10F14069   5.028   2.190   6.079 -0.4248 -0.0151 -0.7528
  130OSM   C11F14070   4.845   2.147   5.983  0.4338  0.0852 -0.8439
  130OSM   H11F14071   4.803   2.250   5.990  2.2997  0.9633 -1.8370
  130OSM   H11G14072   4.771   2.065   5.996 -0.0356  0.4154 -1.3817
  130OSM   C12F14073   4.897   2.135   5.844  0.7238  0.2330  0.0300
  130OSM   H12F14074   4.952   2.228   5.816  0.0174  0.1709 -1.7038
  130OSM   H12G14075   4.821   2.138   5.763  2.8620 -2.1334 -2.2719
  130OSM   C13F14076   4.982   2.002   5.818 -0.4316 -0.7925  0.3810
  130OSM   H13F14077   4.922   1.918   5.858 -1.2148 -1.1631 -1.4637
  130OSM   H13G14078   5.072   2.005   5.882  0.2941 -0.3261 -0.6433
  130OSM   C14F14079   5.003   1.968   5.675 -0.0355 -0.0934 -0.0870
  130OSM   H14F14080   4.929   1.917   5.610  0.1350 -1.0379  0.4433
  130OSM   H14G14081   5.081   1.889   5.668 -0.3078 -0.4565  0.8139
  130OSM   C15F14082   5.065   2.091   5.600  0.2556 -0.1180  0.0077
  130OSM   H15F14083   5.161   2.114   5.652 -0.0493  1.0572  0.0869
  130OSM   H15G14084   5.014   2.190   5.603  0.8241  0.2088 -0.7204
  130OSM   C16F14085   5.091   2.064   5.448 -0.0122 -0.2489 -0.3702
  130OSM   H16F14086   5.068   1.956   5.436  0.1462 -0.3410  0.1193
  130OSM   H16G14087   5.196   2.097   5.431  0.1134  0.5885  1.7106
  130OSM   C17F14088   4.974   2.128   5.368  0.7802  0.3408  0.0730
  130OSM   H17F14089   5.003   2.112   5.262  1.8826 -1.7283  0.6184
  130OSM   H17G14090   4.970   2.239   5.371  0.4464  0.3087  0.9103
  130OSM   C18F14091   4.830   2.071   5.401 -0.0947 -0.2417 -0.5464
  130OSM   H18F14092   4.808   2.101   5.505  0.9194  2.2689 -0.9608
  130OSM   H18G14093   4.829   1.960   5.400  0.4085 -0.2493 -0.4410
  130OSM   H18H14094   4.744   2.103   5.338  1.1651  3.8855 -0.4762
  131OSM      N14095   2.956   4.216   7.517  0.0061 -0.1204  0.5472
  131OSM    C1514096   2.839   4.129   7.530 -0.9295 -0.1696 -0.3184
  131OSM   H15A14097   2.877   4.032   7.560  0.3963 -0.0734 -1.5701
  131OSM   H15B14098   2.788   4.120   7.435 -0.7081  2.0516 -0.6898
  131OSM   H15C14099   2.757   4.170   7.587  0.0267  2.9665 -1.0296
  131OSM    C1414100   2.914   4.356   7.490 -0.2806 -0.4509  0.6034
  131OSM   H14A14101   2.843   4.346   7.409  0.1378 -0.5904  0.2454
  131OSM   H14B14102   2.995   4.414   7.448  1.2421 -1.9556  1.3043
  131OSM   H14C14103   2.868   4.404   7.574 -1.3745 -0.0387 -0.2038
  131OSM    C1314104   3.031   4.210   7.644  0.4073  0.3106 -0.0117
  131OSM   H13A14105   3.070   4.110   7.661 -0.6934  0.1735  2.0024
  131OSM   H13B14106   2.978   4.246   7.731  0.8859 -0.4185  0.5968
  131OSM   H13C14107   3.111   4.281   7.628 -0.7149  2.0671  1.7099
  131OSM    C1214108   3.039   4.155   7.401  0.1009  0.4245 -0.0396
  131OSM   H12A14109   2.981   4.144   7.310 -0.4125  2.5015 -0.0182
  131OSM   H12B14110   3.059   4.055   7.436  1.9960  0.1738 -1.7048
  131OSM    C1114111   3.182   4.207   7.367 -0.5377  0.2942 -0.1130
  131OSM   H11A14112   3.153   4.305   7.322 -0.4978 -0.5286 -2.0506
  131OSM   H11B14113   3.230   4.150   7.285  0.6814 -0.0974  0.8547
  131OSM      P14114   3.405   4.285   7.463 -0.1545 -0.4516 -0.2042
  131OSM    O1314115   3.416   4.428   7.502 -0.3393 -0.0609  0.2025
  131OSM    O1414116   3.499   4.198   7.537 -0.5419  0.4655  0.0377
  131OSM    O1114117   3.432   4.267   7.307  0.1292  0.1288 -0.9205
  131OSM    O1214118   3.258   4.229   7.478 -0.0487  0.2797  0.1813
  131OSM    C1S14119   3.451   4.384   7.236  0.2007 -0.1058  0.0430
  131OSM    H1S14120   3.536   4.439   7.280 -1.4151  3.0971 -0.5076
  131OSM    H1T14121   3.367   4.457   7.241  0.9285  0.7423  0.1890
  131OSM     NF14122   3.536   4.464   7.023 -0.6241 -0.2485 -0.3779
  131OSM    HNF14123   3.472   4.522   6.973  0.5105  0.7433 -0.7164
  131OSM    C2S14124   3.493   4.348   7.093 -0.4009 -0.1982 -0.1555
  131OSM    H2S14125   3.577   4.276   7.091 -0.6605 -0.5015 -0.3107
  131OSM    C3S14126   3.376   4.268   7.023 -1.1389  0.0340 -0.6812
  131OSM    H3S14127   3.285   4.329   7.043 -0.2485  0.7683  1.5848
  131OSM     O314128   3.357   4.138   7.077 -0.2712  0.2100  0.2599
  131OSM    HO314129   3.398   4.142   7.163 -0.3121 -0.6105  0.3249
  131OSM    C4S14130   3.391   4.248   6.873 -0.2362 -0.2155 -0.7709
  131OSM    H4S14131   3.481   4.191   6.846 -0.5917 -0.6854 -0.9914
  131OSM    C5S14132   3.320   4.309   6.781  0.0246  0.0263 -0.6958
  131OSM    H5S14133   3.239   4.375   6.814  0.4899  1.1831 -1.7889
  131OSM    C6S14134   3.342   4.295   6.631  0.2027 -0.2471 -0.9402
  131OSM    H6S14135   3.382   4.388   6.585  1.9648 -0.3684  0.2360
  131OSM    H6T14136   3.247   4.272   6.579  0.1091 -2.8038  0.2121
  131OSM    C7S14137   3.440   4.183   6.596 -0.3848  0.0782  0.2863
  131OSM    H7S14138   3.389   4.094   6.637 -0.5591 -0.5965 -1.3005
  131OSM    H7T14139   3.544   4.188   6.633  0.1724  0.4741 -1.2564
  131OSM    C8S14140   3.452   4.154   6.439 -0.3263 -0.1761 -1.4340
  131OSM    H8S14141   3.345   4.147   6.410 -1.0977  0.5839  0.9696
  131OSM    H8T14142   3.519   4.066   6.425 -1.7848 -1.4592 -0.5931
  131OSM    C9S14143   3.526   4.263   6.361  0.2175 -0.7944 -0.2841
  131OSM    H9S14144   3.629   4.264   6.402  0.2821 -2.1634 -0.3435
  131OSM    H9T14145   3.482   4.361   6.389  1.8493  0.7862 -2.8210
  131OSM   C10S14146   3.511   4.265   6.209  0.2029 -0.7122  0.7720
  131OSM   H10S14147   3.557   4.176   6.160  1.7873 -0.4056  1.6691
  131OSM   H10T14148   3.575   4.343   6.164  0.4594 -1.2120  0.2457
  131OSM   C11S14149   3.371   4.284   6.147  0.7958 -0.0363 -0.3177
  131OSM   H11S14150   3.337   4.390   6.159 -0.4948 -0.2725 -1.5766
  131OSM   H11T14151   3.297   4.219   6.198  0.7208  0.2958  0.0052
  131OSM   C12S14152   3.355   4.260   5.995 -0.4779 -0.3182 -0.3727
  131OSM   H12S14153   3.254   4.291   5.961  0.4174  1.2356 -1.7707
  131OSM   H12T14154   3.364   4.150   5.979 -1.3422 -0.2060 -1.7749
  131OSM   C13S14155   3.458   4.333   5.913 -0.3902  0.4851  0.2536
  131OSM   H13S14156   3.558   4.284   5.918 -0.5210 -0.1249 -2.0497
  131OSM   H13T14157   3.475   4.440   5.939 -0.8764  0.0691  2.4986
  131OSM   C14S14158   3.429   4.334   5.766 -0.0728  0.0656  0.3149
  131OSM   H14S14159   3.321   4.357   5.748 -0.9973 -3.3899  0.7389
  131OSM   H14T14160   3.453   4.230   5.736 -0.9414 -0.2185  0.5725
  131OSM   C15S14161   3.516   4.419   5.675 -0.2254 -0.0645  0.1557
  131OSM   H15S14162   3.620   4.382   5.674 -0.3342 -0.3700  0.1112
  131OSM   H15T14163   3.501   4.527   5.697 -0.3530  0.0584 -0.5116
  131OSM   C16S14164   3.473   4.420   5.523  0.3195  0.0877  0.1638
  131OSM   H16S14165   3.367   4.452   5.522 -0.7748 -3.0494 -2.2345
  131OSM   H16T14166   3.475   4.315   5.485  0.4654  0.6579 -1.4664
  131OSM   C17S14167   3.557   4.509   5.428  0.7203 -0.0161  0.3254
  131OSM   H17S14168   3.543   4.615   5.461 -0.7230 -0.0257 -0.1704
  131OSM   H17T14169   3.508   4.493   5.330 -2.4755 -1.2698  1.9585
  131OSM   C18S14170   3.710   4.470   5.433 -0.0775 -0.3911  0.0424
  131OSM   H18S14171   3.771   4.551   5.388 -0.6205 -0.4133 -0.7472
  131OSM   H18T14172   3.723   4.374   5.380  0.7661  0.1056 -0.6683
  131OSM   H18U14173   3.748   4.456   5.537 -0.6671 -2.2142  0.0383
  131OSM    C1F14174   3.658   4.515   7.045 -0.7472 -0.3195 -0.0264
  131OSM     OF14175   3.743   4.460   7.110  0.5845 -0.3281 -0.1631
  131OSM    C2F14176   3.700   4.647   6.973  0.1881 -0.7155 -0.1752
  131OSM    H2F14177   3.704   4.733   7.043  1.3452  0.5448 -1.7153
  131OSM    H2G14178   3.623   4.670   6.896 -0.2664  0.6831  0.6578
  131OSM    C3F14179   3.838   4.636   6.895 -0.5341  0.1377 -0.1998
  131OSM    H3F14180   3.929   4.630   6.958  0.3147 -0.0855 -1.4061
  131OSM    H3G14181   3.855   4.725   6.831  2.2674  0.7197  1.2086
  131OSM    C4F14182   3.840   4.519   6.800 -0.3393 -0.1760  0.5888
  131OSM    H4F14183   3.766   4.541   6.720 -1.7655 -0.6298  1.7376
  131OSM    H4G14184   3.806   4.419   6.834 -2.4457  0.3064  0.0496
  131OSM    C5F14185   3.979   4.509   6.735  0.4910 -0.5997  0.1779
  131OSM    H5F14186   4.051   4.496   6.818  0.8529  3.8197  0.8125
  131OSM    H5G14187   4.003   4.604   6.684  0.1392 -0.5244  0.1508
  131OSM    C6F14188   3.981   4.391   6.634  0.0848  0.2698  0.1248
  131OSM    H6F14189   3.940   4.307   6.694  1.2301 -0.0090  0.5500
  131OSM    H6G14190   4.085   4.355   6.623  0.6042  1.7931 -0.2730
  131OSM    C7F14191   3.912   4.413   6.493 -0.1176 -0.8443 -0.5736
  131OSM    H7F14192   3.965   4.494   6.438 -2.3925  1.0595 -0.1197
  131OSM    H7G14193   3.805   4.441   6.506 -0.8036 -3.2987 -0.4312
  131OSM    C8F14194   3.918   4.282   6.405 -0.2044 -0.7901 -0.6784
  131OSM    H8F14195   3.828   4.291   6.342 -0.9904 -2.6017  0.1155
  131OSM    H8G14196   3.895   4.198   6.475 -1.8224 -0.0891 -0.3423
  131OSM    C9F14197   4.047   4.268   6.320 -0.1381  0.3088 -0.0432
  131OSM    H9F14198   4.125   4.206   6.367  0.4078  1.6113  0.8058
  131OSM   C10F14199   4.068   4.289   6.187 -0.0742 -0.0622  0.7150
  131OSM   H10F14200   4.169   4.274   6.147  0.0624 -0.6308  1.2590
  131OSM   C11F14201   3.970   4.361   6.098 -0.3910 -0.1371 -0.8151
  131OSM   H11F14202   4.016   4.453   6.055  1.1286 -0.2118  0.5435
  131OSM   H11G14203   3.884   4.403   6.156  2.0317 -0.5516  3.4838
  131OSM   C12F14204   3.934   4.277   5.974 -0.7307 -0.8253  0.1659
  131OSM   H12F14205   4.024   4.245   5.918 -0.3093  2.0904 -0.9727
  131OSM   H12G14206   3.878   4.352   5.915  0.9182  0.5217  0.2349
  131OSM   C13F14207   3.847   4.159   6.006  0.3911  0.3501  0.5198
  131OSM   H13F14208   3.769   4.188   6.080  1.3421  0.4160  1.5223
  131OSM   H13G14209   3.913   4.089   6.063  0.1130 -0.6380 -0.3407
  131OSM   C14F14210   3.782   4.078   5.890 -0.2609  0.1967 -0.6127
  131OSM   H14F14211   3.705   4.138   5.836 -0.0871 -0.6804 -1.8913
  131OSM   H14G14212   3.725   3.988   5.919 -0.2849 -0.2478 -1.9508
  131OSM   C15F14213   3.893   4.031   5.796 -0.7830 -0.0106  0.0385
  131OSM   H15F14214   3.960   3.965   5.855 -0.0362  0.3261 -0.4256
  131OSM   H15G14215   3.944   4.124   5.761 -2.4941  0.1074 -2.4082
  131OSM   C16F14216   3.841   3.970   5.666  0.8790 -0.5554  0.1412
  131OSM   H16F14217   3.774   3.889   5.703 -0.7546  0.1796 -1.1109
  131OSM   H16G14218   3.926   3.916   5.618  0.0488 -1.7529 -0.0278
  131OSM   C17F14219   3.771   4.068   5.576  0.5249 -0.1588  0.2076
  131OSM   H17F14220   3.847   4.147   5.559 -0.3461  0.4160 -1.1345
  131OSM   H17G14221   3.689   4.128   5.620 -0.7448 -0.0556 -2.1118
  131OSM   C18F14222   3.726   4.020   5.444  0.2664 -0.3729 -0.1625
  131OSM   H18F14223   3.662   4.088   5.383  1.3392  0.0867 -0.8005
  131OSM   H18G14224   3.668   3.926   5.459  1.8057 -1.7753 -2.3535
  131OSM   H18H14225   3.812   3.990   5.381  0.5072 -2.3768  1.0295
  132OSM      N14226   4.549   1.275   7.840 -0.2390  0.3978  0.1612
  132OSM    C1514227   4.493   1.400   7.774 -0.2391 -0.3180 -0.1022
  132OSM   H15A14228   4.413   1.439   7.834  0.2632 -0.2821  0.5504
  132OSM   H15B14229   4.457   1.385   7.673 -1.6594  1.6476  0.0652
  132OSM   H15C14230   4.567   1.478   7.767  0.0326 -0.6314 -0.9377
  132OSM    C1414231   4.683   1.261   7.792 -0.3160 -0.0465 -0.5419
  132OSM   H14A14232   4.691   1.258   7.684  1.2412  1.4937 -0.5056
  132OSM   H14B14233   4.711   1.162   7.827 -2.9098 -0.8428 -0.4999
  132OSM   H14C14234   4.759   1.335   7.814 -0.9391  0.0500  1.5066
  132OSM    C1314235   4.549   1.299   7.995  0.4862 -0.5317  0.4471
  132OSM   H13A14236   4.618   1.228   8.036  0.8252 -1.2167 -1.2319
  132OSM   H13B14237   4.449   1.296   8.038  0.9102  0.0884  1.5198
  132OSM   H13C14238   4.587   1.395   8.028 -2.8927 -0.1411  3.9033
  132OSM    C1214239   4.463   1.151   7.812  0.0194 -0.1089  0.3380
  132OSM   H12A14240   4.370   1.174   7.863 -0.7834  1.5048 -1.6854
  132OSM   H12B14241   4.510   1.063   7.852  0.6815 -1.5559 -3.2472
  132OSM    C1114242   4.432   1.114   7.666 -0.0202  0.7715 -0.0438
  132OSM   H11A14243   4.397   1.201   7.606  0.9526  0.6636 -0.7961
  132OSM   H11B14244   4.347   1.044   7.656 -1.4719  2.4253  0.2619
  132OSM      P14245   4.610   0.923   7.651 -0.1587 -0.2110  0.1672
  132OSM    O1314246   4.757   0.931   7.649  0.1287 -0.2255 -0.5097
  132OSM    O1414247   4.549   0.874   7.775 -0.4498  0.0470 -0.2804
  132OSM    O1114248   4.571   0.820   7.537  0.1567  0.4072 -0.0261
  132OSM    O1214249   4.548   1.063   7.599  0.0396 -0.0187 -0.1729
  132OSM    C1S14250   4.596   0.859   7.402  0.8874 -0.2984 -0.0507
  132OSM    H1S14251   4.595   0.968   7.382  0.9416 -0.3247 -0.1970
  132OSM    H1T14252   4.512   0.830   7.336  1.9880 -0.9490 -1.2157
  132OSM     NF14253   4.717   0.833   7.193 -0.0834  0.3236  0.2789
  132OSM    HNF14254   4.724   0.750   7.138  1.7487  0.7143 -0.1316
  132OSM    C2S14255   4.722   0.803   7.335 -0.0771  0.8968  0.2397
  132OSM    H2S14256   4.802   0.862   7.383 -0.4981 -0.7703  3.2609
  132OSM    C3S14257   4.743   0.652   7.376 -0.4168  0.4998  0.2763
  132OSM    H3S14258   4.657   0.597   7.330  1.2645 -1.3271 -0.8308
  132OSM     O314259   4.743   0.623   7.515  0.3614  0.4119  0.3671
  132OSM    HO314260   4.688   0.698   7.542  0.2643  0.2798  0.5394
  132OSM    C4S14261   4.872   0.599   7.322 -0.3208 -0.3725  0.1164
  132OSM    H4S14262   4.957   0.632   7.384 -0.3352  0.1057 -0.1168
  132OSM    C5S14263   4.885   0.509   7.228 -0.5554 -0.0464  0.0972
  132OSM    H5S14264   4.797   0.464   7.180 -0.5952 -0.7672  0.8218
  132OSM    C6S14265   5.016   0.444   7.186  0.7217 -0.4827 -0.3843
  132OSM    H6S14266   5.005   0.334   7.194 -0.7270 -0.3231  0.1968
  132OSM    H6T14267   5.102   0.480   7.246  0.7027  1.2103 -1.2986
  132OSM    C7S14268   5.084   0.475   7.044  0.6440 -0.1641 -0.7828
  132OSM    H7S14269   5.173   0.409   7.030 -0.2782 -1.7712  0.4684
  132OSM    H7T14270   5.115   0.581   7.049  2.6364 -0.6859  4.8011
  132OSM    C8S14271   4.997   0.448   6.914  0.0251 -0.2682 -0.0892
  132OSM    H8S14272   4.898   0.498   6.917  0.1504 -0.0529  0.9602
  132OSM    H8T14273   4.985   0.337   6.918  0.2793 -0.3055 -0.3900
  132OSM    C9S14274   5.057   0.488   6.779 -0.2675 -0.1229 -0.0013
  132OSM    H9S14275   5.160   0.445   6.777 -1.2285 -2.6126  0.0387
  132OSM    H9T14276   5.059   0.599   6.779 -2.8925 -0.0018 -1.0517
  132OSM   C10S14277   4.964   0.442   6.670 -0.2989  0.5909  0.1097
  132OSM   H10S14278   4.865   0.489   6.684  0.1070  1.4753  0.0942
  132OSM   H10T14279   4.946   0.333   6.665  3.6974 -0.2340  0.5724
  132OSM   C11S14280   5.014   0.494   6.535 -1.0638 -0.1674  0.2829
  132OSM   H11S14281   5.099   0.426   6.515 -1.7322 -0.8393 -0.3203
  132OSM   H11T14282   5.053   0.598   6.544 -0.4101 -0.2315 -1.4533
  132OSM   C12S14283   4.905   0.481   6.427  0.4201  0.8952 -0.1140
  132OSM   H12S14284   4.815   0.529   6.472  0.2182 -0.4085  0.9606
  132OSM   H12T14285   4.885   0.372   6.421 -0.8500  1.0919  0.2622
  132OSM   C13S14286   4.941   0.539   6.286 -0.0140  0.0949 -0.2576
  132OSM   H13S14287   5.039   0.495   6.256 -0.5989 -1.3383 -0.1297
  132OSM   H13T14288   4.965   0.647   6.297  0.8261 -0.0950 -0.1221
  132OSM   C14S14289   4.833   0.516   6.180  0.3512  0.5095  0.0777
  132OSM   H14S14290   4.733   0.560   6.203  0.7738  0.4578  2.1330
  132OSM   H14T14291   4.813   0.407   6.172 -1.6957  0.8673 -0.5270
  132OSM   C15S14292   4.872   0.553   6.034 -0.0539 -0.3225  0.0557
  132OSM   H15S14293   4.954   0.484   6.003 -0.1277  0.7975 -2.9254
  132OSM   H15T14294   4.919   0.653   6.040  0.4941 -0.6663  2.9533
  132OSM   C16S14295   4.767   0.551   5.929 -0.1183 -0.6096  0.0338
  132OSM   H16S14296   4.688   0.621   5.963 -0.3244 -0.8723  0.0974
  132OSM   H16T14297   4.732   0.446   5.916  0.7221 -0.8269 -0.6092
  132OSM   C17S14298   4.812   0.604   5.785  0.5732 -0.2536 -0.0373
  132OSM   H17S14299   4.891   0.537   5.745  0.0510  0.0418 -1.6215
  132OSM   H17T14300   4.861   0.701   5.808 -0.6681  0.2636  0.5088
  132OSM   C18S14301   4.704   0.620   5.676  0.2483  0.4592  0.0495
  132OSM   H18S14302   4.645   0.531   5.645  2.2024 -0.8086 -0.1836
  132OSM   H18T14303   4.739   0.661   5.579 -1.4196 -0.6564 -1.0874
  132OSM   H18U14304   4.639   0.704   5.710 -0.6847 -0.9374  1.8757
  132OSM    C1F14305   4.706   0.954   7.134  0.0878  0.1984  0.6062
  132OSM     OF14306   4.718   1.053   7.205 -0.3212  0.0407  0.2192
  132OSM    C2F14307   4.672   0.960   6.987 -0.4975  0.6183  0.1654
  132OSM    H2F14308   4.580   0.903   6.962  1.6692 -2.5554 -1.0677
  132OSM    H2G14309   4.760   0.924   6.930 -0.0266  1.6833  0.2004
  132OSM    C3F14310   4.653   1.103   6.938 -0.1350  0.0244  0.6043
  132OSM    H3F14311   4.719   1.179   6.983 -1.2380  0.6339  1.2155
  132OSM    H3G14312   4.547   1.138   6.939 -0.0609  0.2813 -0.0931
  132OSM    C4F14313   4.674   1.116   6.784 -0.1202 -0.4103  0.0633
  132OSM    H4F14314   4.781   1.086   6.774 -0.6267 -1.8274 -1.8754
  132OSM    H4G14315   4.670   1.223   6.755  1.2898 -0.6425 -1.0862
  132OSM    C5F14316   4.591   1.015   6.697  0.8668  0.4835  0.1736
  132OSM    H5F14317   4.483   1.031   6.720 -0.3130 -1.7545 -3.1088
  132OSM    H5G14318   4.618   0.911   6.724 -1.0492 -0.1311 -0.1268
  132OSM    C6F14319   4.599   1.039   6.551  0.2623  0.4593 -0.1045
  132OSM    H6F14320   4.696   1.019   6.501  0.0215  2.0891 -1.3166
  132OSM    H6G14321   4.593   1.150   6.552 -1.7495  0.3806 -0.4535
  132OSM    C7F14322   4.482   0.966   6.481  0.1808  0.1199 -0.5502
  132OSM    H7F14323   4.458   1.021   6.387 -1.1026 -0.5164 -0.6122
  132OSM    H7G14324   4.383   0.960   6.532 -0.2308 -0.3556 -1.3849
  132OSM    C8F14325   4.516   0.826   6.439 -0.4159  0.2543 -0.1204
  132OSM    H8F14326   4.426   0.781   6.392  0.6050 -3.0358  0.7625
  132OSM    H8G14327   4.533   0.759   6.526  2.5451 -1.8508 -2.0904
  132OSM    C9F14328   4.626   0.808   6.345 -0.0610  0.8083  0.3109
  132OSM    H9F14329   4.725   0.779   6.383  0.3904  0.3610 -1.1477
  132OSM   C10F14330   4.611   0.817   6.209  0.0939 -0.2780  0.5458
  132OSM   H10F14331   4.701   0.794   6.149  0.2844  2.9043 -0.5775
  132OSM   C11F14332   4.480   0.852   6.136 -0.3791 -0.2009  0.3078
  132OSM   H11F14333   4.404   0.903   6.200 -0.9886  0.2579 -0.7536
  132OSM   H11G14334   4.441   0.760   6.088  0.3051 -0.5007  0.3143
  132OSM   C12F14335   4.534   0.955   6.025  0.4747 -0.3225  0.5280
  132OSM   H12F14336   4.613   0.911   5.961  0.3169 -0.2719  0.2953
  132OSM   H12G14337   4.593   1.040   6.067 -0.9017  0.6471  0.5816
  132OSM   C13F14338   4.427   1.008   5.929 -0.6029  0.3762 -0.5625
  132OSM   H13F14339   4.353   1.058   5.995  2.2762  1.3855  2.1201
  132OSM   H13G14340   4.379   0.927   5.871 -0.5871 -0.1520  0.1546
  132OSM   C14F14341   4.476   1.110   5.831  0.0157  0.5245 -0.3677
  132OSM   H14F14342   4.388   1.152   5.778 -0.5824  0.9043  0.8944
  132OSM   H14G14343   4.542   1.067   5.752 -0.1263  0.6909 -0.5786
  132OSM   C15F14344   4.529   1.238   5.897 -0.1439 -1.3840  0.3257
  132OSM   H15F14345   4.636   1.215   5.915  0.1866  0.0731  0.3871
  132OSM   H15G14346   4.483   1.239   5.999  0.6266 -1.5833  0.6799
  132OSM   C16F14347   4.522   1.367   5.813  0.0698 -0.0265  0.1160
  132OSM   H16F14348   4.580   1.449   5.861 -1.3995  1.1260 -0.0006
  132OSM   H16G14349   4.419   1.408   5.805  0.0409 -0.1040  0.0874
  132OSM   C17F14350   4.560   1.352   5.667  0.0654  0.6138 -0.2119
  132OSM   H17F14351   4.483   1.284   5.624  0.6887 -0.2844  0.0417
  132OSM   H17G14352   4.660   1.303   5.662  0.3289  1.1406 -0.2002
  132OSM   C18F14353   4.575   1.486   5.597 -0.2191  0.0153 -0.0314
  132OSM   H18F14354   4.489   1.549   5.629 -1.0939 -0.8516 -0.5919
  132OSM   H18G14355   4.595   1.482   5.488  0.1947 -1.9387  0.0768
  132OSM   H18H14356   4.665   1.536   5.637  0.5366  0.6342 -2.3876
  133OSM      N14357   2.786   3.123   7.663  0.2359  0.2415  0.8560
  133OSM    C1514358   2.650   3.079   7.622 -0.1489  0.5224  0.1645
  133OSM   H15A14359   2.646   3.081   7.514  1.3427  0.8642  0.0916
  133OSM   H15B14360   2.582   3.161   7.639 -0.3669  0.3088  0.3360
  133OSM   H15C14361   2.621   2.980   7.653  0.8345  0.1252 -0.1367
  133OSM    C1414362   2.805   3.263   7.627  0.0039 -0.8743 -0.2727
  133OSM   H14A14363   2.767   3.333   7.701 -1.5355  2.1422 -3.6346
  133OSM   H14B14364   2.758   3.289   7.533 -2.2353 -0.2188  0.9346
  133OSM   H14C14365   2.910   3.285   7.618 -0.6027  2.3600 -0.9619
  133OSM    C1314366   2.787   3.105   7.812 -0.2753  0.4696 -0.5324
  133OSM   H13A14367   2.765   3.004   7.843 -0.9893  1.0238  0.8477
  133OSM   H13B14368   2.715   3.173   7.856  0.5547  0.9732  0.0752
  133OSM   H13C14369   2.885   3.138   7.843 -0.1062  0.5097 -1.1065
  133OSM    C1214370   2.891   3.032   7.601  0.5142 -0.2365  0.3297
  133OSM   H12A14371   2.875   2.933   7.639  2.5734  0.1705  2.4617
  133OSM   H12B14372   2.987   3.063   7.639  0.4076  0.4289  0.0802
  133OSM    C1114373   2.900   3.031   7.448 -0.1321 -0.4567  0.5711
  133OSM   H11A14374   2.989   2.977   7.408  0.1671  1.8949 -2.3307
  133OSM   H11B14375   2.926   3.134   7.414  0.7549 -0.9470 -0.2674
  133OSM      P14376   2.757   2.849   7.332 -0.2783 -0.1926  0.0394
  133OSM    O1314377   2.849   2.759   7.410  0.8982 -0.0098 -0.2887
  133OSM    O1414378   2.612   2.814   7.334 -0.3558 -0.4366 -0.6092
  133OSM    O1114379   2.807   2.850   7.184  0.3207  0.1861 -0.4707
  133OSM    O1214380   2.773   3.001   7.379  0.4474 -0.4398  0.1544
  133OSM    C1S14381   2.900   2.940   7.130  0.1625  0.1466 -0.1715
  133OSM    H1S14382   2.945   3.013   7.201 -0.1428 -0.0213  0.2005
  133OSM    H1T14383   2.861   2.994   7.041  1.8370 -1.4168 -1.9752
  133OSM     NF14384   3.088   2.941   6.962 -0.4315  0.1275  0.2267
  133OSM    HNF14385   3.079   2.910   6.867  0.3011 -0.1590  0.2420
  133OSM    C2S14386   3.010   2.860   7.056  0.3743 -0.5021  0.2806
  133OSM    H2S14387   3.083   2.829   7.134 -1.0727  1.4584  2.5633
  133OSM    C3S14388   2.945   2.729   7.002  0.1622  0.5278  0.5567
  133OSM    H3S14389   2.857   2.756   6.940  0.7247  0.3148 -0.3721
  133OSM     O314390   2.898   2.630   7.092  0.1709  0.8766  0.1378
  133OSM    HO314391   2.851   2.685   7.154  1.6856  2.6655 -0.1998
  133OSM    C4S14392   3.053   2.657   6.917  0.2371  0.4294  0.6911
  133OSM    H4S14393   3.138   2.617   6.973 -0.3246 -1.2156  0.4333
  133OSM    C5S14394   3.052   2.642   6.786 -0.5016  0.0661 -0.5245
  133OSM    H5S14395   2.972   2.697   6.735 -1.0024  0.9192  1.0975
  133OSM    C6S14396   3.155   2.558   6.709 -0.2235 -0.5852 -0.3197
  133OSM    H6S14397   3.197   2.479   6.775 -1.2589  0.1342  1.2572
  133OSM    H6T14398   3.241   2.617   6.671 -0.3550  0.4606  0.9458
  133OSM    C7S14399   3.094   2.485   6.589  0.4127 -0.2647  0.2166
  133OSM    H7S14400   3.058   2.552   6.508 -0.8726  0.8059  1.6279
  133OSM    H7T14401   3.007   2.427   6.626 -0.2957  0.6191 -0.0365
  133OSM    C8S14402   3.211   2.389   6.542 -0.2859  0.4382  0.2596
  133OSM    H8S14403   3.228   2.308   6.615  0.2578  0.7974  0.5410
  133OSM    H8T14404   3.306   2.447   6.544  0.5937 -0.9882  1.8049
  133OSM    C9S14405   3.192   2.327   6.405 -0.6660 -0.1647  0.0553
  133OSM    H9S14406   3.097   2.270   6.393 -0.8810  0.1664  0.1598
  133OSM    H9T14407   3.281   2.263   6.387 -0.5649 -1.0218  3.0233
  133OSM   C10S14408   3.195   2.436   6.296 -0.1388  0.3349  0.7268
  133OSM   H10S14409   3.267   2.518   6.316  1.7543 -1.3480  1.1549
  133OSM   H10T14410   3.092   2.479   6.300 -0.1993  0.1333  1.4519
  133OSM   C11S14411   3.220   2.378   6.158  0.1455 -0.1445 -0.4045
  133OSM   H11S14412   3.325   2.340   6.155  0.6557  1.2066 -0.5846
  133OSM   H11T14413   3.207   2.456   6.080 -0.7189  0.1781  0.0446
  133OSM   C12S14414   3.136   2.259   6.120 -0.2405 -0.0914 -0.3288
  133OSM   H12S14415   3.031   2.282   6.151  0.2852 -0.4792  1.9121
  133OSM   H12T14416   3.158   2.170   6.183  0.1139 -1.3773 -2.1798
  133OSM   C13S14417   3.149   2.223   5.970  0.6948  0.0182 -0.9807
  133OSM   H13S14418   3.256   2.199   5.955  1.2758  1.9348 -0.1896
  133OSM   H13T14419   3.104   2.312   5.921 -0.6856 -0.8934 -1.4394
  133OSM   C14S14420   3.062   2.106   5.932  0.7081 -0.3898  0.1066
  133OSM   H14S14421   2.959   2.136   5.960  2.0906  2.5299  2.6297
  133OSM   H14T14422   3.073   2.014   5.993  0.5497 -0.4681  0.0164
  133OSM   C15S14423   3.078   2.070   5.775 -0.6843  0.1064 -0.4463
  133OSM   H15S14424   3.175   2.017   5.760  0.3556  0.5927  3.3405
  133OSM   H15T14425   3.082   2.166   5.719  0.3984  0.7262  0.6404
  133OSM   C16S14426   2.960   1.982   5.723 -0.2353  0.0146 -0.1942
  133OSM   H16S14427   2.874   2.051   5.736 -0.3846 -0.1054 -0.5319
  133OSM   H16T14428   2.954   1.887   5.781  1.7656 -0.4720 -0.7024
  133OSM   C17S14429   2.993   1.945   5.582 -1.0773  0.0742  0.7743
  133OSM   H17S14430   3.098   1.909   5.587 -1.8150 -2.2041  1.1809
  133OSM   H17T14431   3.009   2.042   5.529 -3.1229 -0.5882 -1.1955
  133OSM   C18S14432   2.903   1.855   5.497 -0.4380  0.7686 -0.0803
  133OSM   H18S14433   2.805   1.908   5.502 -0.7853  0.4649 -2.5021
  133OSM   H18T14434   2.889   1.753   5.540 -2.1667  0.7792 -0.5471
  133OSM   H18U14435   2.936   1.848   5.392  1.8503 -1.0066  0.6736
  133OSM    C1F14436   3.150   3.060   6.993  0.8489  0.5036  0.1852
  133OSM     OF14437   3.150   3.101   7.108  0.4155  0.4053  0.0558
  133OSM    C2F14438   3.222   3.125   6.885 -0.4341 -0.1168  0.2828
  133OSM    H2F14439   3.166   3.210   6.840 -0.0597  1.6199  2.8932
  133OSM    H2G14440   3.271   3.053   6.816 -0.0051 -0.3407  0.8214
  133OSM    C3F14441   3.345   3.205   6.947 -0.1200  0.0061  0.7264
  133OSM    H3F14442   3.406   3.129   7.001 -0.4871  0.9150  2.4866
  133OSM    H3G14443   3.321   3.283   7.022  0.4703 -0.0089  0.9422
  133OSM    C4F14444   3.428   3.290   6.851 -0.3776  0.1858  0.0753
  133OSM    H4F14445   3.527   3.316   6.895 -0.6133  0.7720  0.2691
  133OSM    H4G14446   3.368   3.378   6.821 -1.8589 -0.1942  1.7737
  133OSM    C5F14447   3.466   3.202   6.729  1.0768  0.2474 -0.7821
  133OSM    H5F14448   3.380   3.192   6.660  1.0230 -2.4617 -0.4341
  133OSM    H5G14449   3.484   3.094   6.750 -0.1932  0.2580  0.4995
  133OSM    C6F14450   3.574   3.272   6.637 -0.4994  0.6661 -0.1246
  133OSM    H6F14451   3.669   3.281   6.696  0.5259 -1.2011 -1.3881
  133OSM    H6G14452   3.544   3.376   6.613  1.3240  1.7149  1.6852
  133OSM    C7F14453   3.601   3.192   6.512 -0.5206 -0.5020 -0.6272
  133OSM    H7F14454   3.504   3.158   6.470 -2.4702  2.9040  0.7148
  133OSM    H7G14455   3.650   3.094   6.530  1.4527  0.8255  2.1015
  133OSM    C8F14456   3.661   3.285   6.404  0.0182 -0.6747 -0.0636
  133OSM    H8F14457   3.757   3.332   6.436 -0.9294 -0.6893  3.1743
  133OSM    H8G14458   3.587   3.367   6.396 -2.2621 -2.4473  1.5529
  133OSM    C9F14459   3.687   3.208   6.276 -0.6681 -0.4280  0.1162
  133OSM    H9F14460   3.763   3.128   6.284  0.1866  0.2820 -0.5938
  133OSM   C10F14461   3.659   3.253   6.156 -0.0460  0.4570  0.1066
  133OSM   H10F14462   3.687   3.183   6.077 -0.6586  0.1228  0.1783
  133OSM   C11F14463   3.569   3.364   6.119 -0.6110 -0.8584 -0.3112
  133OSM   H11F14464   3.599   3.449   6.185  2.8070 -0.5791 -1.9726
  133OSM   H11G14465   3.462   3.335   6.130 -0.6075 -0.3141  1.5107
  133OSM   C12F14466   3.571   3.424   5.985  0.2814  0.2076 -0.3368
  133OSM   H12F14467   3.673   3.461   5.962 -0.1356  0.9687 -1.0372
  133OSM   H12G14468   3.495   3.505   5.972 -3.2270 -2.6190  0.9704
  133OSM   C13F14469   3.564   3.325   5.864 -0.1771 -0.2343 -0.2269
  133OSM   H13F14470   3.488   3.250   5.897 -0.4998  0.0812 -0.2512
  133OSM   H13G14471   3.654   3.260   5.860 -0.0490 -0.3889  2.7122
  133OSM   C14F14472   3.530   3.383   5.729 -0.1761 -0.2899 -0.1648
  133OSM   H14F14473   3.609   3.460   5.717 -1.2450  1.0284  0.9173
  133OSM   H14G14474   3.435   3.440   5.733 -0.3524 -0.6065  0.3381
  133OSM   C15F14475   3.519   3.269   5.624  0.1758  0.0357  0.5737
  133OSM   H15F14476   3.443   3.192   5.648  1.2002 -1.1359  0.1585
  133OSM   H15G14477   3.617   3.217   5.620 -1.9373 -4.3191 -0.1042
  133OSM   C16F14478   3.483   3.326   5.490  0.0017 -0.1464 -0.3984
  133OSM   H16F14479   3.572   3.388   5.465  1.0799 -2.2719 -2.2320
  133OSM   H16G14480   3.394   3.393   5.493 -0.3255 -0.5769 -0.3571
  133OSM   C17F14481   3.472   3.220   5.377 -0.0291 -0.2299  0.3154
  133OSM   H17F14482   3.386   3.152   5.394  1.1569 -1.3806  1.9675
  133OSM   H17G14483   3.569   3.166   5.376  1.3847  2.1790 -0.2561
  133OSM   C18F14484   3.459   3.295   5.242 -0.2709  0.3843 -0.4603
  133OSM   H18F14485   3.552   3.354   5.225  1.7508 -2.0900  1.2225
  133OSM   H18G14486   3.379   3.371   5.240 -0.9930 -0.2269  2.0893
  133OSM   H18H14487   3.446   3.217   5.163  1.0765 -0.3075 -0.0388
  134OSM      N14488   1.183   2.003   7.428  0.6113 -0.5018 -0.3898
  134OSM    C1514489   1.313   1.927   7.428  0.0086  0.0340  0.7183
  134OSM   H15A14490   1.313   1.854   7.507 -3.2897 -1.3108 -0.3637
  134OSM   H15B14491   1.400   1.991   7.417 -0.9791  1.0027 -3.3816
  134OSM   H15C14492   1.308   1.874   7.334 -1.6142 -0.2815  0.9546
  134OSM    C1414493   1.192   2.089   7.553  0.1703 -0.2302 -0.9170
  134OSM   H14A14494   1.191   2.021   7.637 -2.8995 -0.0947 -0.7503
  134OSM   H14B14495   1.116   2.165   7.565  1.6227  1.4815 -2.0465
  134OSM   H14C14496   1.284   2.145   7.555  0.0187  0.0353  1.4498
  134OSM    C1314497   1.178   2.089   7.304 -0.3158 -0.4664  0.2249
  134OSM   H13A14498   1.083   2.138   7.315 -0.7937 -1.4718  0.6991
  134OSM   H13B14499   1.190   2.028   7.216  0.6393 -0.0716  0.0686
  134OSM   H13C14500   1.257   2.163   7.298  0.3830 -1.2921 -1.6994
  134OSM    C1214501   1.060   1.913   7.440 -0.4546  0.2799  0.2621
  134OSM   H12A14502   0.972   1.975   7.429  0.5079  1.3930 -1.8185
  134OSM   H12B14503   1.061   1.871   7.539  0.4042 -0.5823 -0.0953
  134OSM    C1114504   1.037   1.809   7.333  0.6648 -0.4816 -0.4278
  134OSM   H11A14505   1.033   1.861   7.234 -1.0820 -0.6915 -0.4965
  134OSM   H11B14506   0.940   1.759   7.353  1.4807 -2.1462 -0.4481
  134OSM      P14507   1.143   1.606   7.452  0.1389 -0.2574 -0.5362
  134OSM    O1314508   1.274   1.538   7.472  0.0288  0.6844  0.1974
  134OSM    O1414509   1.078   1.664   7.575  0.2617  0.0601 -0.5867
  134OSM    O1114510   1.038   1.492   7.405 -0.6350 -0.3765  0.2171
  134OSM    O1214511   1.141   1.714   7.330  0.4952 -0.7555 -0.3385
  134OSM    C1S14512   1.037   1.447   7.265 -0.4868  0.9346 -0.6676
  134OSM    H1S14513   1.061   1.526   7.191  1.6363  0.0906 -0.9448
  134OSM    H1T14514   0.934   1.412   7.242  0.0016  0.0963 -1.6897
  134OSM     NF14515   1.085   1.284   7.099 -0.1428  0.1759  0.1203
  134OSM    HNF14516   1.029   1.203   7.087  0.3889 -0.3850  1.2537
  134OSM    C2S14517   1.126   1.327   7.233  0.5558 -0.3584 -0.0636
  134OSM    H2S14518   1.230   1.367   7.223  0.8490  0.2787  3.9068
  134OSM    C3S14519   1.126   1.219   7.346  0.5214  1.3256 -0.0711
  134OSM    H3S14520   1.020   1.202   7.375  0.0373  2.5909 -1.0067
  134OSM     O314521   1.201   1.251   7.466 -0.0375  0.7990  0.2374
  134OSM    HO314522   1.221   1.345   7.465  1.9261  0.4474  1.2453
  134OSM    C4S14523   1.184   1.095   7.284  0.4524  0.4564 -0.1965
  134OSM    H4S14524   1.118   1.033   7.222  1.0270 -0.5237  0.1487
  134OSM    C5S14525   1.308   1.047   7.286  1.6065 -0.4629  0.0024
  134OSM    H5S14526   1.378   1.113   7.339 -1.2808  0.4665  3.0433
  134OSM    C6S14527   1.355   0.931   7.199  0.1774  0.1325  0.3177
  134OSM    H6S14528   1.300   0.839   7.228  1.2694 -0.5484  0.2999
  134OSM    H6T14529   1.463   0.903   7.206 -0.0078 -1.0475 -1.1542
  134OSM    C7S14530   1.328   0.962   7.050 -0.0303  0.1965  0.1457
  134OSM    H7S14531   1.227   1.000   7.021 -0.3474  0.4295  1.4669
  134OSM    H7T14532   1.337   0.861   7.005 -0.2819 -1.0642  2.6894
  134OSM    C8S14533   1.434   1.046   6.980  0.5200  0.6561 -0.1881
  134OSM    H8S14534   1.526   1.017   7.036  0.2724 -0.6459 -0.4227
  134OSM    H8T14535   1.408   1.153   6.997  1.9365  0.8520  0.9727
  134OSM    C9S14536   1.456   1.023   6.823 -0.0751  0.6568  0.6804
  134OSM    H9S14537   1.363   1.043   6.766  0.4257  0.2489 -0.3141
  134OSM    H9T14538   1.490   0.919   6.804 -1.1001  0.3998  0.1671
  134OSM   C10S14539   1.572   1.105   6.756  0.9639 -0.0191 -0.7561
  134OSM   H10S14540   1.658   1.089   6.825  1.9514  1.3154 -1.6379
  134OSM   H10T14541   1.568   1.216   6.761  1.4368  0.0209 -1.1887
  134OSM   C11S14542   1.592   1.063   6.608 -0.1593  0.5136  0.1991
  134OSM   H11S14543   1.495   1.029   6.565  0.9153 -0.9914 -1.1747
  134OSM   H11T14544   1.668   0.984   6.592 -0.6656  0.0593  0.0006
  134OSM   C12S14545   1.633   1.173   6.504  0.2292  0.2998 -0.5711
  134OSM   H12S14546   1.710   1.233   6.557 -1.1405  1.5051  0.1169
  134OSM   H12T14547   1.546   1.238   6.482  0.7755  1.1176 -0.3298
  134OSM   C13S14548   1.679   1.115   6.365 -0.2917  0.3814  0.2949
  134OSM   H13S14549   1.783   1.078   6.376 -0.7911 -1.8138 -1.6207
  134OSM   H13T14550   1.678   1.201   6.294  2.7494  2.3104  2.3337
  134OSM   C14S14551   1.601   0.998   6.311 -0.2052 -0.2417 -0.2359
  134OSM   H14S14552   1.557   0.932   6.389  2.8956  0.3667  2.2042
  134OSM   H14T14553   1.673   0.944   6.246  0.8190  0.7606  0.0289
  134OSM   C15S14554   1.487   1.055   6.224 -0.3134  0.0631  0.4139
  134OSM   H15S14555   1.445   1.143   6.276  3.1775  1.9111  0.3852
  134OSM   H15T14556   1.399   0.987   6.226  0.0494 -0.4113  0.4470
  134OSM   C16S14557   1.527   1.083   6.078  0.6766 -0.5493 -0.1144
  134OSM   H16S14558   1.550   0.982   6.037 -0.7032 -1.9993  2.4461
  134OSM   H16T14559   1.616   1.145   6.055  0.6198 -0.9442 -1.5204
  134OSM   C17S14560   1.397   1.143   6.019 -0.1695  0.1321  0.4208
  134OSM   H17S14561   1.370   1.240   6.065 -1.4996 -0.5053  1.0341
  134OSM   H17T14562   1.317   1.068   6.036  0.7716 -0.5901  1.9190
  134OSM   C18S14563   1.409   1.176   5.864  0.2918  0.5377 -0.6337
  134OSM   H18S14564   1.433   1.083   5.807 -3.6287  0.6953 -2.9166
  134OSM   H18T14565   1.487   1.253   5.844 -0.8402  1.8044 -0.2932
  134OSM   H18U14566   1.310   1.207   5.823 -0.3521 -0.9433 -0.2531
  134OSM    C1F14567   1.110   1.359   6.985 -0.7473  0.5479 -0.0435
  134OSM     OF14568   1.197   1.442   6.992  0.3190 -0.0400 -0.1812
  134OSM    C2F14569   1.039   1.324   6.855  0.1554  0.1377  0.3323
  134OSM    H2F14570   0.958   1.250   6.878  0.0849 -1.1268 -3.3278
  134OSM    H2G14571   1.113   1.281   6.784 -0.2098 -1.0051  0.6089
  134OSM    C3F14572   0.971   1.440   6.782 -0.8261 -0.0097 -1.0706
  134OSM    H3F14573   1.045   1.522   6.796  0.4764 -1.3947  0.6386
  134OSM    H3G14574   0.882   1.467   6.844  0.8789  2.3520  0.5217
  134OSM    C4F14575   0.927   1.417   6.640 -0.7930 -0.4237  0.0057
  134OSM    H4F14576   0.853   1.490   6.601 -0.3616  0.1597  0.2826
  134OSM    H4G14577   0.880   1.316   6.638  0.0343 -0.8030 -0.8634
  134OSM    C5F14578   1.046   1.413   6.536 -0.2826  0.3603  0.7856
  134OSM    H5F14579   1.108   1.325   6.562  1.8741  0.9900 -1.7905
  134OSM    H5G14580   1.106   1.501   6.569 -2.2120  0.0943  5.9812
  134OSM    C6F14581   0.994   1.416   6.395  0.6057  0.3292  0.4780
  134OSM    H6F14582   0.963   1.518   6.362  0.0465 -0.0574 -0.2184
  134OSM    H6G14583   0.903   1.353   6.389  1.2207 -0.5900  0.5338
  134OSM    C7F14584   1.107   1.352   6.303  0.0135 -0.1954  0.0972
  134OSM    H7F14585   1.099   1.242   6.302 -2.9264 -0.0688  0.5989
  134OSM    H7G14586   1.206   1.382   6.343 -0.5759  0.3971  1.1700
  134OSM    C8F14587   1.097   1.408   6.161 -1.4498  0.1238 -0.2522
  134OSM    H8F14588   1.001   1.377   6.115 -1.3847 -0.4983  0.0206
  134OSM    H8G14589   1.173   1.352   6.102 -2.0452 -2.0831  0.9711
  134OSM    C9F14590   1.140   1.552   6.143 -0.1225  0.4946  0.1458
  134OSM    H9F14591   1.227   1.581   6.204  0.2135  1.5180 -0.7974
  134OSM   C10F14592   1.065   1.641   6.071 -1.3980  0.0191 -0.1435
  134OSM   H10F14593   1.098   1.743   6.048 -1.1809  0.3365  1.4502
  134OSM   C11F14594   0.934   1.618   6.003  0.0780 -0.2058 -0.0801
  134OSM   H11F14595   0.876   1.562   6.078  0.4423  0.1843  0.5003
  134OSM   H11G14596   0.951   1.558   5.911 -0.8818  0.5207 -0.7622
  134OSM   C12F14597   0.853   1.740   5.957 -0.1917 -0.2075  0.0945
  134OSM   H12F14598   0.829   1.804   6.045 -1.8484  1.7274 -1.6523
  134OSM   H12G14599   0.759   1.701   5.913  0.1903 -0.7424 -0.2601
  134OSM   C13F14600   0.927   1.840   5.859 -0.0543  0.8557  0.3151
  134OSM   H13F14601   1.037   1.848   5.874 -0.2479  0.7392  2.0632
  134OSM   H13G14602   0.879   1.940   5.859 -2.4405 -0.1936  2.1769
  134OSM   C14F14603   0.913   1.794   5.714 -0.7392  0.1821 -0.3215
  134OSM   H14F14604   0.808   1.791   5.678 -0.1489 -2.5273 -2.1204
  134OSM   H14G14605   0.959   1.693   5.711  0.8791  0.8316  0.9666
  134OSM   C15F14606   0.992   1.887   5.612  0.1276 -0.3379  0.4801
  134OSM   H15F14607   1.004   1.821   5.523  0.2065  0.7929 -0.3707
  134OSM   H15G14608   1.098   1.908   5.636  1.0294 -0.5448 -2.8389
  134OSM   C16F14609   0.918   2.023   5.583 -0.0662  0.2640 -0.0995
  134OSM   H16F14610   0.934   2.084   5.674 -0.4553  1.1293 -0.5984
  134OSM   H16G14611   0.812   1.998   5.562 -0.3491  1.8153 -0.6559
  134OSM   C17F14612   0.972   2.103   5.459 -0.0059  0.1726 -0.4024
  134OSM   H17F14613   0.898   2.185   5.450 -0.8143 -0.7012 -2.5881
  134OSM   H17G14614   0.965   2.033   5.372 -0.6837 -0.2859  0.0126
  134OSM   C18F14615   1.115   2.157   5.491  0.1079 -0.2557 -0.5512
  134OSM   H18F14616   1.126   2.198   5.594 -0.0948  0.6168 -0.8671
  134OSM   H18G14617   1.146   2.229   5.412  0.7256 -0.0798 -0.1531
  134OSM   H18H14618   1.185   2.071   5.488 -1.8735 -1.9198 -1.1571
  135OSM      N14619   1.240   5.823   7.519  0.3171  0.7197 -0.3199
  135OSM    C1514620   1.299   5.956   7.535 -0.2702  0.3817  0.6925
  135OSM   H15A14621   1.275   6.019   7.451  0.2919  0.0534  0.2706
  135OSM   H15B14622   1.407   5.956   7.532 -0.2327  2.5295  0.5176
  135OSM   H15C14623   1.265   6.005   7.624  0.2929 -0.2410  1.2642
  135OSM    C1414624   1.308   5.724   7.613  0.1417 -0.8687  0.2467
  135OSM   H14A14625   1.257   5.629   7.618 -0.6500 -0.4560  0.2169
  135OSM   H14B14626   1.340   5.760   7.710  0.6951  0.2283 -0.3267
  135OSM   H14C14627   1.411   5.713   7.585  0.5801 -2.0784  2.1181
  135OSM    C1314628   1.091   5.834   7.549 -0.4554  0.1331 -0.4149
  135OSM   H13A14629   1.039   5.899   7.480 -2.1230 -0.5335  0.1685
  135OSM   H13B14630   1.083   5.869   7.651 -0.1211  1.0467 -0.6863
  135OSM   H13C14631   1.047   5.737   7.536  1.9986 -0.9335 -1.3337
  135OSM    C1214632   1.254   5.775   7.374  0.3826  0.1506  0.0633
  135OSM   H12A14633   1.277   5.670   7.371  0.4714  0.1839 -0.5071
  135OSM   H12B14634   1.343   5.816   7.327 -0.9769 -1.0461 -3.9174
  135OSM    C1114635   1.150   5.802   7.265  0.6916  0.7947 -0.0792
  135OSM   H11A14636   1.198   5.774   7.169  2.3794  2.3400  0.2422
  135OSM   H11B14637   1.145   5.913   7.269 -1.1149  0.7430 -0.0402
  135OSM      P14638   0.982   5.609   7.226  0.0058 -0.5623 -0.0227
  135OSM    O1314639   1.081   5.519   7.286 -0.1328 -0.2628 -0.5903
  135OSM    O1414640   0.839   5.578   7.240  0.0064 -0.0736 -0.2522
  135OSM    O1114641   1.024   5.624   7.078  0.0945 -0.6532 -0.2711
  135OSM    O1214642   1.019   5.747   7.290 -0.3958  0.1023  0.2093
  135OSM    C1S14643   0.947   5.715   6.997 -0.5756  0.2601 -0.0973
  135OSM    H1S14644   0.969   5.820   7.025  2.1151 -0.8742  2.5164
  135OSM    H1T14645   0.836   5.710   7.007 -0.9345 -0.9709 -3.3888
  135OSM     NF14646   0.922   5.801   6.765  0.4078 -0.0232 -0.1196
  135OSM    HNF14647   0.835   5.786   6.719 -0.0392 -1.1838  1.0136
  135OSM    C2S14648   0.972   5.690   6.846  0.7647 -0.2783  0.3383
  135OSM    H2S14649   1.082   5.701   6.839  0.7213 -0.4390 -0.7941
  135OSM    C3S14650   0.929   5.544   6.796 -0.4206 -0.2947 -0.2451
  135OSM    H3S14651   0.820   5.561   6.786 -0.1367  0.8820 -1.6654
  135OSM     O314652   0.950   5.441   6.893  0.3629 -0.1019  0.4693
  135OSM    HO314653   1.000   5.476   6.967 -2.7676  1.5438  1.9984
  135OSM    C4S14654   0.975   5.500   6.664 -0.2605 -0.5238  0.3577
  135OSM    H4S14655   0.903   5.524   6.585 -2.6631  0.4371  2.7145
  135OSM    C5S14656   1.095   5.453   6.632  0.0459  0.3613 -0.5963
  135OSM    H5S14657   1.167   5.428   6.711 -0.3289  1.8010  0.2379
  135OSM    C6S14658   1.145   5.414   6.490 -0.4085 -0.0294 -0.9003
  135OSM    H6S14659   1.176   5.308   6.502  0.7639  0.4353  0.5033
  135OSM    H6T14660   1.241   5.468   6.475  0.0156 -1.0060 -1.8096
  135OSM    C7S14661   1.049   5.442   6.381 -0.2349 -0.0342  0.1454
  135OSM    H7S14662   1.049   5.553   6.372  0.1166 -0.1670 -2.6206
  135OSM    H7T14663   0.943   5.409   6.383  0.0268 -0.9186 -0.1659
  135OSM    C8S14664   1.094   5.401   6.243  0.0984  0.1068 -0.5484
  135OSM    H8S14665   1.103   5.290   6.236 -1.3295  0.0229 -1.6177
  135OSM    H8T14666   1.198   5.436   6.229  0.7684 -1.0095  1.3144
  135OSM    C9S14667   1.014   5.464   6.129  0.2167 -0.0450 -0.0017
  135OSM    H9S14668   1.032   5.573   6.132 -0.9121  0.1395  1.0817
  135OSM    H9T14669   0.906   5.445   6.147  0.3333 -0.0662  0.7127
  135OSM   C10S14670   1.070   5.413   5.997 -0.5106 -0.1115 -0.1794
  135OSM   H10S14671   1.078   5.303   5.997 -0.5685 -0.1811  2.6189
  135OSM   H10T14672   1.176   5.444   5.991 -0.7098  0.6896  0.1679
  135OSM   C11S14673   0.979   5.449   5.873 -1.1763 -0.0244  0.0396
  135OSM   H11S14674   0.950   5.556   5.877 -0.8174  0.0294  2.6751
  135OSM   H11T14675   0.884   5.393   5.890  0.0680 -2.5431 -0.6986
  135OSM   C12S14676   1.063   5.399   5.749 -0.2249  0.2508 -0.0967
  135OSM   H12S14677   1.087   5.291   5.752  0.9938  0.5029 -0.2690
  135OSM   H12T14678   1.160   5.452   5.740 -0.6276  1.6015  2.4377
  135OSM   C13S14679   0.998   5.423   5.613  0.0555  0.4765 -0.0322
  135OSM   H13S14680   0.963   5.529   5.608  0.5399  0.6920  0.8692
  135OSM   H13T14681   0.911   5.355   5.604  0.4890 -0.1299  0.3230
  135OSM   C14S14682   1.091   5.374   5.501 -0.5419 -0.3506  0.0321
  135OSM   H14S14683   1.128   5.271   5.522  0.3541 -0.1863 -0.6677
  135OSM   H14T14684   1.179   5.439   5.486  0.7729 -2.0099  0.1988
  135OSM   C15S14685   1.018   5.368   5.366 -0.1680 -1.4550  0.0070
  135OSM   H15S14686   0.965   5.464   5.352 -1.0062 -1.9174 -0.0516
  135OSM   H15T14687   0.944   5.285   5.361 -0.1783 -1.4727  0.4011
  135OSM   C16S14688   1.114   5.365   5.246  0.0359  0.2861 -0.0784
  135OSM   H16S14689   1.058   5.317   5.164  0.7479  0.6102 -0.7695
  135OSM   H16T14690   1.198   5.298   5.276  0.3386  0.8120  0.2938
  135OSM   C17S14691   1.166   5.499   5.197  0.1161  0.9960  0.2299
  135OSM   H17S14692   1.222   5.552   5.277  2.2494  0.6120 -0.9060
  135OSM   H17T14693   1.079   5.564   5.173 -1.1143 -0.5783  0.2501
  135OSM   C18S14694   1.264   5.495   5.076  0.1204 -0.3222 -0.2202
  135OSM   H18S14695   1.360   5.447   5.104  0.4978 -0.6588 -1.9313
  135OSM   H18T14696   1.289   5.601   5.051  0.6692 -0.3191  0.3244
  135OSM   H18U14697   1.224   5.451   4.982  1.4325 -2.2630  0.0772
  135OSM    C1F14698   0.969   5.924   6.783 -0.2105  0.6980  0.7175
  135OSM     OF14699   1.083   5.946   6.833  0.4505  0.4474  0.2223
  135OSM    C2F14700   0.886   6.034   6.726  0.4347  0.1640  0.4046
  135OSM    H2F14701   0.931   6.129   6.762 -0.6961  0.8414  0.0926
  135OSM    H2G14702   0.790   6.028   6.782 -0.0095  0.0706 -0.3610
  135OSM    C3F14703   0.881   6.044   6.567 -0.7241  0.3808  0.1804
  135OSM    H3F14704   0.840   5.952   6.520 -2.1325  2.5395 -3.1917
  135OSM    H3G14705   0.982   6.070   6.528  0.3732 -2.2972  0.9975
  135OSM    C4F14706   0.772   6.149   6.525 -0.1362  0.6418 -0.1980
  135OSM    H4F14707   0.671   6.107   6.542 -0.9183  2.8186  0.9848
  135OSM    H4G14708   0.767   6.244   6.581 -0.7949  0.8021 -0.5196
  135OSM    C5F14709   0.775   6.196   6.377 -0.0650 -0.6473 -0.4249
  135OSM    H5F14710   0.791   6.109   6.309  0.5618 -0.0354 -1.0798
  135OSM    H5G14711   0.867   6.258   6.375  1.6817 -3.0452 -0.2518
  135OSM    C6F14712   0.656   6.281   6.325  0.8888  0.1907 -0.9675
  135OSM    H6F14713   0.643   6.358   6.404 -1.0137  0.4798 -1.5056
  135OSM    H6G14714   0.567   6.213   6.329  2.0029 -1.3791  3.5495
  135OSM    C7F14715   0.662   6.329   6.183 -0.3343 -0.1642 -1.2184
  135OSM    H7F14716   0.569   6.385   6.155 -0.1279  0.1684 -1.2480
  135OSM    H7G14717   0.664   6.233   6.127  0.0948  0.4432 -2.2689
  135OSM    C8F14718   0.785   6.400   6.140 -0.0397 -0.3546 -0.5609
  135OSM    H8F14719   0.874   6.337   6.120  0.8994  0.7536  0.0353
  135OSM    H8G14720   0.813   6.469   6.221 -0.3181 -3.2882  2.2356
  135OSM    C9F14721   0.759   6.495   6.026 -0.3100 -0.8653  0.5321
  135OSM    H9F14722   0.688   6.569   6.064  0.9447  0.4613  0.4242
  135OSM   C10F14723   0.806   6.492   5.903  0.3304  0.4387 -0.5089
  135OSM   H10F14724   0.771   6.573   5.837  0.3697  0.8972  0.0187
  135OSM   C11F14725   0.893   6.387   5.848 -0.3231  0.1035  0.0550
  135OSM   H11F14726   0.936   6.319   5.925  0.1477 -1.8665 -1.8583
  135OSM   H11G14727   0.976   6.442   5.799 -1.7325  0.0296 -2.5671
  135OSM   C12F14728   0.827   6.307   5.734 -0.6236  0.4991  0.0607
  135OSM   H12F14729   0.775   6.375   5.663 -1.3059 -1.0470 -0.9772
  135OSM   H12G14730   0.741   6.252   5.778 -1.3889  2.1019  0.6301
  135OSM   C13F14731   0.922   6.235   5.649 -0.1722  0.2616  0.4947
  135OSM   H13F14732   0.943   6.137   5.698  0.2119  0.9884  1.8427
  135OSM   H13G14733   1.018   6.291   5.646 -0.6093  1.0460  0.8870
  135OSM   C14F14734   0.864   6.216   5.503 -0.1902 -0.3247 -0.6899
  135OSM   H14F14735   0.758   6.185   5.511 -0.7015  1.1570 -1.3286
  135OSM   H14G14736   0.915   6.129   5.457 -2.0273 -2.8913  1.8546
  135OSM   C15F14737   0.877   6.336   5.410  0.8084 -0.1087 -0.1230
  135OSM   H15F14738   0.985   6.357   5.391  1.2494 -1.2212  1.0101
  135OSM   H15G14739   0.834   6.414   5.476  3.4986  0.0211  1.6758
  135OSM   C16F14740   0.798   6.315   5.280  0.2715 -0.1014  0.2702
  135OSM   H16F14741   0.694   6.282   5.304  0.3347 -1.5782 -1.3375
  135OSM   H16G14742   0.851   6.239   5.219  1.5587  0.7592  0.2828
  135OSM   C17F14743   0.799   6.444   5.189 -0.7166 -0.4121  1.0647
  135OSM   H17F14744   0.758   6.420   5.088  0.5188 -1.5022  0.8040
  135OSM   H17G14745   0.907   6.457   5.167 -0.7516 -2.2388 -0.4806
  135OSM   C18F14746   0.729   6.566   5.254 -0.1331  0.0108  0.1855
  135OSM   H18F14747   0.618   6.557   5.258 -0.0137 -2.0649 -0.1958
  135OSM   H18G14748   0.749   6.662   5.202 -1.8847 -0.6735 -1.9192
  135OSM   H18H14749   0.760   6.563   5.360  1.8549  1.0346 -0.3095
  136OSM      N14750   4.384   6.176   7.826  0.0893 -0.0994  0.4009
  136OSM    C1514751   4.414   6.035   7.842  0.3708  0.0114 -0.5739
  136OSM   H15A14752   4.353   5.981   7.772  3.0435  0.7159 -3.6599
  136OSM   H15B14753   4.414   5.984   7.937  1.4728  2.3338  0.7700
  136OSM   H15C14754   4.502   6.012   7.785  0.2663  0.3842 -0.8914
  136OSM    C1414755   4.263   6.204   7.912 -0.0560 -0.2385 -0.4355
  136OSM   H14A14756   4.233   6.308   7.899  2.4351  0.7255  0.9085
  136OSM   H14B14757   4.279   6.187   8.018  2.5019  2.2439 -0.3186
  136OSM   H14C14758   4.176   6.146   7.886 -0.2614 -1.2381  2.1413
  136OSM    C1314759   4.499   6.248   7.887 -0.2151 -0.0336  0.4988
  136OSM   H13A14760   4.491   6.355   7.883  1.0274  0.0772  0.6614
  136OSM   H13B14761   4.593   6.212   7.848  0.1166  0.8197  0.4978
  136OSM   H13C14762   4.498   6.218   7.991 -0.5630 -0.4835  0.3694
  136OSM    C1214763   4.368   6.216   7.677 -0.0884  0.1527 -0.3450
  136OSM   H12A14764   4.284   6.160   7.640  0.2442  0.3571 -1.4328
  136OSM   H12B14765   4.458   6.190   7.624  0.1025  0.7007 -0.3015
  136OSM    C1114766   4.350   6.362   7.642 -0.7924  0.0002  0.8344
  136OSM   H11A14767   4.350   6.366   7.531 -1.7277  0.5168  0.8402
  136OSM   H11B14768   4.448   6.405   7.670  0.1972 -0.1641 -2.0329
  136OSM      P14769   4.206   6.572   7.683  0.2815  0.2231  0.4166
  136OSM    O1314770   4.069   6.593   7.741 -0.2687 -0.1379  0.6861
  136OSM    O1414771   4.318   6.648   7.748 -0.3497  0.4965 -0.4434
  136OSM    O1114772   4.204   6.602   7.523  0.3307  0.1547 -0.6731
  136OSM    O1214773   4.234   6.422   7.693 -0.1257  0.0917  0.3772
  136OSM    C1S14774   4.113   6.515   7.446 -0.4197  0.4415  0.7932
  136OSM    H1S14775   4.007   6.540   7.466 -0.6515  0.7521 -0.7034
  136OSM    H1T14776   4.121   6.408   7.476  0.6109  0.3343  0.2020
  136OSM     NF14777   4.067   6.409   7.230 -0.1643  0.3200 -0.1427
  136OSM    HNF14778   4.130   6.341   7.193  0.5940  2.1841 -2.5174
  136OSM    C2S14779   4.136   6.520   7.294  0.4348 -0.1667  0.2208
  136OSM    H2S14780   4.090   6.616   7.264  0.6915 -0.0550  0.1872
  136OSM    C3S14781   4.284   6.536   7.255 -0.0068  0.7370  0.2925
  136OSM    H3S14782   4.311   6.429   7.262 -1.2479  0.4245  0.5402
  136OSM     O314783   4.376   6.608   7.333 -0.2138  0.1390  0.4849
  136OSM    HO314784   4.330   6.604   7.418  0.9493 -2.5912  1.1157
  136OSM    C4S14785   4.314   6.554   7.107 -0.4130  0.6235 -0.7071
  136OSM    H4S14786   4.317   6.460   7.050  0.4714  0.6743 -0.7691
  136OSM    C5S14787   4.360   6.663   7.042  0.2386  0.1933  0.0988
  136OSM    H5S14788   4.381   6.749   7.108  1.4421 -1.1674  1.5841
  136OSM    C6S14789   4.397   6.661   6.899 -0.0215 -0.4466  0.4757
  136OSM    H6S14790   4.504   6.679   6.877 -0.1250 -2.1803 -1.6732
  136OSM    H6T14791   4.371   6.763   6.864  2.1575 -0.5046 -1.5845
  136OSM    C7S14792   4.334   6.559   6.808 -0.4153  0.4467 -0.3679
  136OSM    H7S14793   4.227   6.541   6.833  0.1563 -1.2532  1.0308
  136OSM    H7T14794   4.390   6.464   6.820 -0.2284  0.5039 -0.7658
  136OSM    C8S14795   4.325   6.618   6.669  0.2157  0.2642 -0.0304
  136OSM    H8S14796   4.420   6.644   6.616 -0.9545  0.5908 -2.0819
  136OSM    H8T14797   4.264   6.710   6.677 -1.7915 -0.8960 -1.3458
  136OSM    C9S14798   4.231   6.534   6.569 -0.9270  0.1132  0.1636
  136OSM    H9S14799   4.138   6.502   6.621 -0.9289  0.0607  0.1269
  136OSM    H9T14800   4.287   6.442   6.543  0.1419  0.8035 -0.0325
  136OSM   C10S14801   4.205   6.587   6.425  0.5139  0.1659  0.0979
  136OSM   H10S14802   4.302   6.620   6.384  0.1490  1.3916  0.1756
  136OSM   H10T14803   4.150   6.683   6.431  0.7107  0.2929 -0.1156
  136OSM   C11S14804   4.144   6.476   6.340  0.1963  0.3528  0.4025
  136OSM   H11S14805   4.055   6.436   6.393  1.6071 -1.7828  1.2904
  136OSM   H11T14806   4.221   6.396   6.334 -0.9132 -0.6727 -0.5579
  136OSM   C12S14807   4.114   6.523   6.195  0.1992  0.4274  0.6360
  136OSM   H12S14808   4.210   6.557   6.149 -0.7470 -0.2287 -1.9520
  136OSM   H12T14809   4.047   6.612   6.196  0.9378  0.9986  0.6390
  136OSM   C13S14810   4.048   6.415   6.106 -0.1231  0.5952 -0.3799
  136OSM   H13S14811   3.956   6.384   6.159  0.3452 -0.7237 -0.2944
  136OSM   H13T14812   4.115   6.326   6.105  0.1300  0.7928 -1.1860
  136OSM   C14S14813   4.003   6.451   5.971  0.6127 -0.0825  0.0113
  136OSM   H14S14814   3.926   6.531   5.972 -0.2210 -0.8664  0.2870
  136OSM   H14T14815   3.943   6.369   5.925 -1.7864  1.3107  0.4574
  136OSM   C15S14816   4.121   6.478   5.891 -0.6011  0.3585 -0.5059
  136OSM   H15S14817   4.195   6.398   5.913  0.5339  1.6620  0.6746
  136OSM   H15T14818   4.168   6.573   5.927  0.7475 -1.1298  1.9247
  136OSM   C16S14819   4.096   6.492   5.741 -0.4274 -0.1702  0.0143
  136OSM   H16S14820   4.051   6.396   5.707 -1.7557  0.2475  0.5357
  136OSM   H16T14821   4.195   6.504   5.691 -1.5603  0.4327 -2.2044
  136OSM   C17S14822   3.992   6.601   5.700 -0.4191 -0.6988 -0.0589
  136OSM   H17S14823   4.034   6.697   5.735  1.7896 -1.7361  0.3094
  136OSM   H17T14824   3.900   6.588   5.761 -1.3790  0.2921 -1.2282
  136OSM   C18S14825   3.968   6.610   5.550 -0.5604 -0.6526  0.0384
  136OSM   H18S14826   4.067   6.636   5.507 -0.3208 -0.4217  0.7127
  136OSM   H18T14827   3.901   6.689   5.510  0.2586 -0.0326 -0.1312
  136OSM   H18U14828   3.925   6.518   5.505 -1.1839  0.1590 -1.0689
  136OSM    C1F14829   3.936   6.392   7.230 -0.1234 -0.4816 -0.3331
  136OSM     OF14830   3.861   6.482   7.270 -0.1096 -0.2023 -0.5533
  136OSM    C2F14831   3.880   6.254   7.186 -0.6643 -0.2146 -0.2776
  136OSM    H2F14832   3.877   6.181   7.270  0.2340  1.7001  1.4872
  136OSM    H2G14833   3.957   6.221   7.113 -0.3952 -0.4877  0.1235
  136OSM    C3F14834   3.738   6.261   7.129 -0.9655 -0.0015  0.7087
  136OSM    H3F14835   3.723   6.350   7.064 -0.5558 -1.9343 -2.2475
  136OSM    H3G14836   3.667   6.270   7.214 -0.2774  2.3030  1.0932
  136OSM    C4F14837   3.694   6.140   7.050 -0.1385 -0.2298  0.4969
  136OSM    H4F14838   3.584   6.149   7.051 -0.3639 -2.5021  1.0506
  136OSM    H4G14839   3.715   6.056   7.119  1.5570  0.9722  1.5067
  136OSM    C5F14840   3.754   6.115   6.913  0.1417 -0.4096  0.5188
  136OSM    H5F14841   3.850   6.060   6.926 -0.3435 -1.4505 -0.1924
  136OSM    H5G14842   3.765   6.210   6.857 -1.1096 -0.9883 -0.7728
  136OSM    C6F14843   3.682   6.010   6.811 -0.2618 -0.1994 -0.2090
  136OSM    H6F14844   3.664   5.920   6.872 -0.4860  0.5928  0.9259
  136OSM    H6G14845   3.744   6.006   6.719 -1.3764 -0.6908 -0.9616
  136OSM    C7F14846   3.547   6.055   6.753  0.5043 -0.4405 -0.3667
  136OSM    H7F14847   3.553   6.157   6.709 -0.4704 -1.0499 -1.9939
  136OSM    H7G14848   3.467   6.059   6.830 -1.2322 -0.6999 -2.0998
  136OSM    C8F14849   3.512   5.958   6.646 -0.0566  0.0673  0.0207
  136OSM    H8F14850   3.595   5.945   6.574 -0.1909 -2.3106  0.2118
  136OSM    H8G14851   3.424   5.991   6.587 -0.6263  0.2780  0.9714
  136OSM    C9F14852   3.481   5.821   6.707 -0.5355  0.1386 -0.4937
  136OSM    H9F14853   3.477   5.827   6.817  1.5184  0.7155 -0.4105
  136OSM   C10F14854   3.452   5.711   6.629  0.4098 -0.6122  0.4541
  136OSM   H10F14855   3.431   5.614   6.675 -1.5746  0.5273  2.0888
  136OSM   C11F14856   3.455   5.703   6.475  0.0539 -0.4310 -0.2199
  136OSM   H11F14857   3.462   5.808   6.439  0.0324  1.2135  3.9576
  136OSM   H11G14858   3.358   5.667   6.436 -0.3049  0.1816  0.0810
  136OSM   C12F14859   3.572   5.636   6.403  0.0235 -0.6413 -0.4046
  136OSM   H12F14860   3.579   5.535   6.449  1.4253  1.1659  3.8118
  136OSM   H12G14861   3.666   5.693   6.414 -0.4780  0.0952  0.1718
  136OSM   C13F14862   3.548   5.623   6.250  0.0998  0.0954  0.0026
  136OSM   H13F14863   3.641   5.655   6.197  1.3357  2.0441  3.0514
  136OSM   H13G14864   3.472   5.699   6.220  2.6626  2.4010 -1.1096
  136OSM   C14F14865   3.497   5.490   6.199 -0.5048  0.0136 -0.0294
  136OSM   H14F14866   3.414   5.455   6.263  0.6472 -2.2603  0.3588
  136OSM   H14G14867   3.575   5.412   6.213 -0.3794  0.0884 -0.2943
  136OSM   C15F14868   3.457   5.496   6.052 -0.5459 -0.3279  0.5392
  136OSM   H15F14869   3.389   5.584   6.041  1.8462  1.5129 -0.6635
  136OSM   H15G14870   3.408   5.401   6.024  1.0812 -0.7579 -1.0555
  136OSM   C16F14871   3.570   5.522   5.950 -0.3636  0.4413  0.5927
  136OSM   H16F14872   3.664   5.466   5.971 -1.5799 -2.2970 -0.8470
  136OSM   H16G14873   3.599   5.629   5.954  1.8911 -0.0316 -1.0047
  136OSM   C17F14874   3.525   5.466   5.807  0.0787  0.4186 -0.7127
  136OSM   H17F14875   3.418   5.494   5.796 -0.3308 -0.5357  0.5481
  136OSM   H17G14876   3.534   5.356   5.819  3.3997  0.5189 -1.3840
  136OSM   C18F14877   3.611   5.511   5.685  0.2768  0.3962  0.7460
  136OSM   H18F14878   3.581   5.459   5.592 -1.5197 -0.8980  1.9975
  136OSM   H18G14879   3.719   5.487   5.695  1.0320  1.9688 -2.2426
  136OSM   H18H14880   3.619   5.622   5.676  1.3879  0.2114 -1.0306
  137OSM      N14881   0.409   5.614   7.070  0.4398  0.1040  0.6262
  137OSM    C1514882   0.531   5.651   6.987 -0.0241  0.0691 -0.1110
  137OSM   H15A14883   0.520   5.611   6.888 -1.5653  2.6123 -1.0836
  137OSM   H15B14884   0.622   5.612   7.029 -0.5316 -1.5994 -0.5117
  137OSM   H15C14885   0.533   5.758   6.968 -2.0066  0.1165 -0.3457
  137OSM    C1414886   0.398   5.464   7.088  0.5729  0.4032  0.6315
  137OSM   H14A14887   0.413   5.412   6.994  2.8109  0.2230  1.0261
  137OSM   H14B14888   0.299   5.429   7.112 -0.0585 -2.2052 -4.3114
  137OSM   H14C14889   0.477   5.427   7.151  0.9684  1.1008  0.5511
  137OSM    C1314890   0.410   5.676   7.203 -0.7353 -0.0133  0.5815
  137OSM   H13A14891   0.496   5.639   7.258 -0.2465  0.8066  0.3857
  137OSM   H13B14892   0.319   5.641   7.248 -1.1072 -0.9290 -0.8320
  137OSM   H13C14893   0.403   5.784   7.193 -0.2172  0.2526  2.5501
  137OSM    C1214894   0.277   5.658   6.994 -0.3979  0.0078  0.3923
  137OSM   H12A14895   0.196   5.614   7.051 -0.4987 -2.1985 -1.3236
  137OSM   H12B14896   0.280   5.598   6.905 -0.8875  1.1010 -0.3858
  137OSM    C1114897   0.256   5.801   6.948  0.9936 -0.2099  0.6034
  137OSM   H11A14898   0.155   5.816   6.906  1.1891  2.3453  0.8774
  137OSM   H11B14899   0.319   5.818   6.858 -3.2755 -1.1599 -2.8701
  137OSM      P14900   0.175   5.931   7.154 -0.1004 -0.5207 -0.9512
  137OSM    O1314901   0.122   5.804   7.197 -0.6313 -0.3873 -0.3723
  137OSM    O1414902   0.245   6.008   7.262 -0.2264  0.0300 -0.0022
  137OSM    O1114903   0.072   6.009   7.063  0.0619 -0.1667  0.2401
  137OSM    O1214904   0.285   5.899   7.046 -0.1518 -0.0042  0.5392
  137OSM    C1S14905   0.121   6.133   7.003 -0.0634 -0.3369 -0.5511
  137OSM    H1S14906   0.231   6.137   6.986 -0.0303 -1.1421 -0.5988
  137OSM    H1T14907   0.115   6.215   7.078 -1.0489 -2.3773  1.7576
  137OSM     NF14908   0.115   6.299   6.832 -0.2749  0.0534 -0.4554
  137OSM    HNF14909   0.071   6.387   6.848  1.2650  0.6680  0.7230
  137OSM    C2S14910   0.052   6.173   6.871 -0.1373 -0.7903  0.3055
  137OSM    H2S14911   0.078   6.088   6.804 -0.3180  0.8463 -1.9471
  137OSM    C3S14912  -0.105   6.178   6.885 -0.1427 -0.1426 -0.0336
  137OSM    H3S14913  -0.120   6.251   6.968  2.2657 -1.8155  2.0572
  137OSM     O314914  -0.152   6.052   6.932 -0.0166 -0.0235 -0.4143
  137OSM    HO314915  -0.070   6.014   6.964 -0.5652 -1.8144 -0.9934
  137OSM    C4S14916  -0.172   6.222   6.755  0.8359  0.2098 -0.0012
  137OSM    H4S14917  -0.169   6.332   6.745  0.1635  0.2547  0.1949
  137OSM    C5S14918  -0.227   6.143   6.662 -0.7010  0.1938  0.4411
  137OSM    H5S14919  -0.225   6.034   6.678  0.4222 -0.2590 -2.1546
  137OSM    C6S14920  -0.282   6.188   6.530 -0.0788  0.5988 -0.5199
  137OSM    H6S14921  -0.388   6.219   6.537 -0.2641 -0.1764  0.2476
  137OSM    H6T14922  -0.289   6.102   6.459  0.3063  1.2147 -1.3217
  137OSM    C7S14923  -0.202   6.299   6.468  0.3633  0.0660 -0.3968
  137OSM    H7S14924  -0.091   6.289   6.466  0.4539  1.1437 -1.1592
  137OSM    H7T14925  -0.227   6.385   6.534  2.2064  1.0911 -0.9713
  137OSM    C8S14926  -0.256   6.329   6.326 -0.1299  0.3870  0.4777
  137OSM    H8S14927  -0.205   6.424   6.300  1.6417  0.2911  3.2692
  137OSM    H8T14928  -0.367   6.334   6.334 -0.0818  1.3846  0.6666
  137OSM    C9S14929  -0.218   6.222   6.217  0.0898 -0.0485 -0.2535
  137OSM    H9S14930  -0.280   6.129   6.219  0.9156 -0.6753 -1.7859
  137OSM    H9T14931  -0.113   6.188   6.232 -0.6788 -2.3023  0.5070
  137OSM   C10S14932  -0.244   6.264   6.075  0.6566  0.1817  0.0420
  137OSM   H10S14933  -0.224   6.372   6.057  0.3068  0.0013 -1.5823
  137OSM   H10T14934  -0.349   6.248   6.046  1.2362 -1.3842 -1.3187
  137OSM   C11S14935  -0.154   6.187   5.988  0.7379  0.7188  0.5592
  137OSM   H11S14936  -0.170   6.080   6.011  0.4476  0.4043 -0.9830
  137OSM   H11T14937  -0.048   6.215   6.008  0.2083  2.5488  0.9767
  137OSM   C12S14938  -0.193   6.225   5.839 -0.2350  0.5519 -0.6305
  137OSM   H12S14939  -0.303   6.243   5.840 -0.3343 -0.0362 -0.5820
  137OSM   H12T14940  -0.172   6.150   5.759 -1.4755 -0.5296  0.0276
  137OSM   C13S14941  -0.119   6.351   5.789 -0.8661  0.3447 -0.4958
  137OSM   H13S14942  -0.013   6.361   5.823 -0.5388 -0.0859 -1.3327
  137OSM   H13T14943  -0.174   6.438   5.829 -1.7211 -1.2301  1.9934
  137OSM   C14S14944  -0.103   6.344   5.638  0.2827  0.4143  0.6646
  137OSM   H14S14945  -0.054   6.248   5.609  2.7342  0.7412  3.2865
  137OSM   H14T14946  -0.040   6.427   5.602 -1.3655  1.7326  0.6997
  137OSM   C15S14947  -0.237   6.362   5.568 -0.2579  0.1982  0.0939
  137OSM   H15S14948  -0.278   6.456   5.612 -1.6771 -0.9947  1.4643
  137OSM   H15T14949  -0.311   6.286   5.601 -1.3312  1.2807  0.2874
  137OSM   C16S14950  -0.227   6.374   5.417 -0.0038  0.1811  0.3779
  137OSM   H16S14951  -0.213   6.271   5.377  0.7724 -0.5348  2.3630
  137OSM   H16T14952  -0.133   6.425   5.388 -0.4750  0.0845 -1.4335
  137OSM   C17S14953  -0.347   6.441   5.350 -0.1627  0.4494 -0.5867
  137OSM   H17S14954  -0.429   6.372   5.379  1.2198 -1.8846 -1.9643
  137OSM   H17T14955  -0.337   6.449   5.240 -1.5769 -0.3091 -0.7981
  137OSM   C18S14956  -0.381   6.577   5.394 -0.3947 -0.6135 -0.1819
  137OSM   H18S14957  -0.469   6.618   5.340  0.9622  1.6190 -0.8324
  137OSM   H18T14958  -0.291   6.641   5.379 -0.6685 -0.4697 -1.2438
  137OSM   H18U14959  -0.423   6.573   5.497  2.1875 -0.7940  0.9656
  137OSM    C1F14960   0.225   6.302   6.761  0.2783 -0.0293  0.4097
  137OSM     OF14961   0.277   6.195   6.718 -0.3833 -0.4246 -0.5276
  137OSM    C2F14962   0.283   6.440   6.723 -0.4038 -0.2501  0.2099
  137OSM    H2F14963   0.344   6.471   6.810 -0.7284 -0.5365  0.5408
  137OSM    H2G14964   0.203   6.517   6.723  0.3763  0.5779 -0.2275
  137OSM    C3F14965   0.364   6.441   6.587  0.2799 -0.2649 -0.5540
  137OSM    H3F14966   0.439   6.358   6.584 -0.9951 -1.5149  0.8855
  137OSM    H3G14967   0.418   6.538   6.586 -0.7850  0.5027  2.9207
  137OSM    C4F14968   0.266   6.428   6.471 -0.1367 -0.4610  0.0244
  137OSM    H4F14969   0.173   6.486   6.486 -0.0802 -0.7111  1.4763
  137OSM    H4G14970   0.232   6.322   6.466  2.2328 -1.2561 -0.6059
  137OSM    C5F14971   0.320   6.457   6.330 -0.7781 -0.2073 -0.4553
  137OSM    H5F14972   0.395   6.378   6.308  0.9320  0.9486  0.9186
  137OSM    H5G14973   0.376   6.553   6.327 -0.3944 -0.4201 -0.2216
  137OSM    C6F14974   0.222   6.453   6.216 -0.1576  0.6432  0.1500
  137OSM    H6F14975   0.150   6.537   6.226 -0.5596  0.1628  1.3597
  137OSM    H6G14976   0.185   6.349   6.213  3.1511 -0.6386 -0.8577
  137OSM    C7F14977   0.272   6.478   6.068 -0.0644 -0.3228  0.1253
  137OSM    H7F14978   0.360   6.546   6.065 -0.6867  0.4631 -0.6511
  137OSM    H7G14979   0.203   6.525   5.995  0.8019 -1.7332 -1.6858
  137OSM    C8F14980   0.299   6.348   5.996  0.5254 -0.4765 -0.2307
  137OSM    H8F14981   0.202   6.317   5.950  0.6275  0.6664 -1.2521
  137OSM    H8G14982   0.340   6.278   6.072  3.0628 -0.2669 -1.3275
  137OSM    C9F14983   0.406   6.373   5.892 -0.1325 -0.1081 -0.4406
  137OSM    H9F14984   0.490   6.440   5.914 -0.6668  0.7446 -0.9125
  137OSM   C10F14985   0.397   6.336   5.764  0.4291 -0.0790  0.1425
  137OSM   H10F14986   0.479   6.366   5.697  1.1123  0.7084  1.2887
  137OSM   C11F14987   0.289   6.241   5.708  0.9860 -0.0258  0.3021
  137OSM   H11F14988   0.187   6.279   5.729 -0.1940 -2.3285 -0.8927
  137OSM   H11G14989   0.302   6.142   5.756 -1.5013 -0.1143  0.9005
  137OSM   C12F14990   0.283   6.232   5.549 -0.6950  0.4173 -0.0274
  137OSM   H12F14991   0.211   6.153   5.522 -1.1741  0.0100  2.2599
  137OSM   H12G14992   0.383   6.198   5.514 -0.2616  1.3126  0.3107
  137OSM   C13F14993   0.258   6.365   5.477  1.2500 -1.0179  1.1490
  137OSM   H13F14994   0.347   6.430   5.493  1.4006 -0.6783 -0.8040
  137OSM   H13G14995   0.183   6.421   5.536  1.9410 -0.6185  1.6633
  137OSM   C14F14996   0.230   6.355   5.328 -0.4902 -0.6098 -0.3454
  137OSM   H14F14997   0.243   6.460   5.291 -0.2235  0.0110  1.4386
  137OSM   H14G14998   0.120   6.342   5.319 -1.3049  4.7137 -1.5545
  137OSM   C15F14999   0.309   6.260   5.243  0.3174  0.1031 -0.0198
  137OSM   H15F15000   0.284   6.157   5.276 -0.5561  1.2545  3.3133
  137OSM   H15G15001   0.419   6.267   5.253 -0.0132  2.6272  3.5354
  137OSM   C16F15002   0.254   6.267   5.100 -0.0020 -0.3081 -0.0598
  137OSM   H16F15003   0.312   6.191   5.042  1.5403  0.5735  0.2656
  137OSM   H16G15004   0.288   6.362   5.055  3.4507 -1.7669 -0.8662
  137OSM   C17F15005   0.101   6.227   5.083 -0.3870  0.9280 -0.3214
  137OSM   H17F15006   0.036   6.299   5.138  0.6144  0.9919  0.8216
  137OSM   H17G15007   0.095   6.134   5.144 -1.1222  1.1317 -0.0723
  137OSM   C18F15008   0.056   6.208   4.938  0.5038 -0.2312  0.2781
  137OSM   H18F15009   0.054   6.293   4.866  1.2896 -0.7553 -0.3793
  137OSM   H18G15010  -0.051   6.179   4.928 -0.0074  1.9115 -1.1352
  137OSM   H18H15011   0.122   6.130   4.893 -0.9600 -1.2982 -0.0984
  138OSM      N15012   2.691   4.960   7.244 -0.1897  0.3218  0.3763
  138OSM    C1515013   2.817   5.042   7.246  0.1397  0.6148  0.8325
  138OSM   H15A15014   2.831   5.117   7.170 -0.4850  1.5020  1.5706
  138OSM   H15B15015   2.900   4.973   7.244 -0.6770 -0.4701  2.4660
  138OSM   H15C15016   2.824   5.091   7.342  0.8661 -1.7457  2.0404
  138OSM    C1415017   2.563   5.046   7.267  0.1017  1.0420 -0.1972
  138OSM   H14A15018   2.561   5.095   7.363  0.8718  1.1808 -0.2410
  138OSM   H14B15019   2.481   4.976   7.273  2.0119 -1.6495 -2.4748
  138OSM   H14C15020   2.536   5.120   7.193 -1.7410  1.5062  0.8851
  138OSM    C1315021   2.672   4.895   7.111 -0.2146 -0.0904 -0.1853
  138OSM   H13A15022   2.587   4.829   7.112 -0.7017  0.5217  1.0571
  138OSM   H13B15023   2.752   4.828   7.085  0.0837 -0.0892  0.7085
  138OSM   H13C15024   2.648   4.972   7.039 -1.0178 -1.1660 -1.1020
  138OSM    C1215025   2.685   4.855   7.355 -0.4640 -0.0732 -0.2700
  138OSM   H12A15026   2.591   4.804   7.342  0.0253 -0.4598 -2.9497
  138OSM   H12B15027   2.684   4.910   7.448 -0.3257  0.2885 -0.4784
  138OSM    C1115028   2.804   4.753   7.358  0.7343 -0.0885  0.0550
  138OSM   H11A15029   2.787   4.684   7.272 -0.0655 -2.0816  1.7219
  138OSM   H11B15030   2.790   4.697   7.453  1.3127 -0.1289  0.1211
  138OSM      P15031   3.064   4.731   7.352 -0.0465  0.3168  0.1431
  138OSM    O1315032   3.182   4.819   7.330  1.7151  0.4655 -0.1122
  138OSM    O1415033   3.079   4.633   7.461 -0.1370 -0.5676  0.8421
  138OSM    O1115034   3.041   4.645   7.217  0.2529  0.0580  0.7639
  138OSM    O1215035   2.932   4.812   7.367  0.2764 -0.1015  0.0772
  138OSM    C1S15036   3.086   4.704   7.090 -0.2516 -0.5746  0.0820
  138OSM    H1S15037   3.194   4.730   7.095 -0.5046  0.5938 -0.1817
  138OSM    H1T15038   3.027   4.796   7.071  1.4682  0.9806  1.8351
  138OSM     NF15039   3.134   4.672   6.854  0.0261 -0.8538 -0.5708
  138OSM    HNF15040   3.071   4.713   6.789  0.6204  0.2041 -0.4994
  138OSM    C2S15041   3.073   4.607   6.970 -0.1992  0.2881 -0.2353
  138OSM    H2S15042   3.129   4.516   7.000 -0.4429 -0.3464 -1.6146
  138OSM    C3S15043   2.928   4.574   6.949 -0.3036 -1.2260 -0.1982
  138OSM    H3S15044   2.890   4.675   6.921  2.5566  0.6721  2.1066
  138OSM     O315045   2.852   4.538   7.064  0.2127  0.3902 -0.5054
  138OSM    HO315046   2.916   4.554   7.134 -0.2274 -0.8874  0.2436
  138OSM    C4S15047   2.900   4.476   6.832  0.1621 -0.4574 -0.1096
  138OSM    H4S15048   2.872   4.523   6.737 -0.5537  0.2061  0.4161
  138OSM    C5S15049   2.911   4.341   6.842  0.4112 -0.2885 -0.8538
  138OSM    H5S15050   2.928   4.294   6.940  0.6803  2.1687  0.3504
  138OSM    C6S15051   2.903   4.230   6.738  0.2414 -0.0602  0.3283
  138OSM    H6S15052   2.810   4.169   6.751  1.0691 -1.2875  0.6907
  138OSM    H6T15053   2.988   4.160   6.752 -0.9575 -2.1558 -2.0541
  138OSM    C7S15054   2.899   4.281   6.588 -0.9712  0.4272 -0.3792
  138OSM    H7S15055   2.991   4.343   6.578 -0.9453  0.0943 -2.8327
  138OSM    H7T15056   2.808   4.341   6.566 -2.1710 -0.2103  2.4289
  138OSM    C8S15057   2.899   4.162   6.490 -1.1946  0.1877 -0.8309
  138OSM    H8S15058   2.852   4.196   6.396 -1.8606 -1.9216 -1.3265
  138OSM    H8T15059   2.837   4.085   6.541 -1.1681  0.3822 -0.4994
  138OSM    C9S15060   3.047   4.100   6.473  1.4843 -0.3152 -0.3670
  138OSM    H9S15061   3.093   4.112   6.573 -0.0165 -0.7643  0.4049
  138OSM    H9T15062   3.115   4.163   6.411  0.8553  1.6269  0.8129
  138OSM   C10S15063   3.049   3.957   6.419  0.2618  0.1738 -0.1527
  138OSM   H10S15064   3.005   3.895   6.500 -0.4946  0.3048 -0.4562
  138OSM   H10T15065   3.157   3.932   6.416 -0.3710 -2.9110 -0.5015
  138OSM   C11S15066   2.981   3.933   6.293  1.2211 -0.4221  0.3707
  138OSM   H11S15067   2.871   3.935   6.307  1.1500  0.5982 -0.2987
  138OSM   H11T15068   3.007   3.830   6.259 -1.6313 -0.8649 -0.7992
  138OSM   C12S15069   3.009   4.038   6.180 -0.0561  0.3293 -0.0509
  138OSM   H12S15070   3.120   4.041   6.173 -0.0417 -0.2963 -0.1816
  138OSM   H12T15071   2.959   4.133   6.209 -1.7710 -0.7511  0.7375
  138OSM   C13S15072   2.952   3.983   6.046  0.5574  0.0174  0.2613
  138OSM   H13S15073   2.846   3.968   6.074  0.6141  1.2688  1.2581
  138OSM   H13T15074   2.994   3.882   6.027 -0.2064 -0.0405 -1.2921
  138OSM   C14S15075   2.970   4.086   5.929  0.2035 -0.0103  0.4520
  138OSM   H14S15076   3.073   4.129   5.933  1.6217 -3.2001  1.0045
  138OSM   H14T15077   2.886   4.156   5.948 -0.9016 -1.1048 -0.3062
  138OSM   C15S15078   2.941   4.010   5.793  0.3662 -0.4410 -0.3799
  138OSM   H15S15079   2.839   3.967   5.807  1.2247 -2.6622 -0.5337
  138OSM   H15T15080   3.014   3.928   5.776  2.0449  1.0425 -0.6280
  138OSM   C16S15081   2.933   4.102   5.670  0.2204 -0.6770  0.3684
  138OSM   H16S15082   2.843   4.167   5.673  0.7034  0.1065 -0.8707
  138OSM   H16T15083   2.916   4.048   5.575  2.0249 -0.4587 -0.1264
  138OSM   C17S15084   3.052   4.192   5.649 -0.1675 -0.1823 -0.0767
  138OSM   H17S15085   3.079   4.235   5.748  2.0651 -3.8159  1.1054
  138OSM   H17T15086   3.016   4.256   5.566 -1.3899 -2.8021 -1.6871
  138OSM   C18S15087   3.170   4.105   5.608 -1.1151 -0.0476 -1.1425
  138OSM   H18S15088   3.264   4.165   5.618  0.2265 -2.2904  0.7730
  138OSM   H18T15089   3.155   4.067   5.505 -0.9859 -1.5689 -0.6295
  138OSM   H18U15090   3.182   4.022   5.681  0.3969  1.4093  0.3626
  138OSM    C1F15091   3.262   4.655   6.823  0.0440 -0.1897 -0.5583
  138OSM     OF15092   3.340   4.626   6.913 -0.6180 -0.3445  0.3791
  138OSM    C2F15093   3.295   4.658   6.684 -0.4655 -0.1895  0.7358
  138OSM    H2F15094   3.250   4.749   6.640  1.7092  0.6998  0.2226
  138OSM    H2G15095   3.237   4.579   6.631 -0.8334 -0.0705  0.9550
  138OSM    C3F15096   3.439   4.666   6.665 -0.3237 -0.2234  0.0388
  138OSM    H3F15097   3.490   4.578   6.710  0.8463  0.5571  0.2765
  138OSM    H3G15098   3.484   4.759   6.705  2.5691 -0.9922 -1.1331
  138OSM    C4F15099   3.470   4.670   6.509  0.4459  0.2653 -0.1527
  138OSM    H4F15100   3.416   4.754   6.461  1.7576  0.2910 -1.6481
  138OSM    H4G15101   3.425   4.580   6.462 -1.4964  0.6029  0.9540
  138OSM    C5F15102   3.616   4.659   6.479 -0.2111  0.7535  0.6665
  138OSM    H5F15103   3.654   4.582   6.549 -1.4192  0.4775  1.0287
  138OSM    H5G15104   3.670   4.752   6.508  1.6036 -0.6700  2.1404
  138OSM    C6F15105   3.657   4.613   6.341 -0.1852 -0.3838  0.3141
  138OSM    H6F15106   3.627   4.509   6.318  1.1365 -0.5413 -0.8316
  138OSM    H6G15107   3.768   4.610   6.339 -0.1991 -1.1210  0.3807
  138OSM    C7F15108   3.594   4.690   6.228 -0.2338 -1.0870  0.0836
  138OSM    H7F15109   3.608   4.799   6.246 -0.4594 -1.4706  3.0926
  138OSM    H7G15110   3.483   4.686   6.230 -0.2519 -1.2105 -0.7546
  138OSM    C8F15111   3.654   4.641   6.097 -0.1149  0.6902  0.5950
  138OSM    H8F15112   3.624   4.534   6.101  1.9118  0.1109  2.3256
  138OSM    H8G15113   3.764   4.652   6.092 -0.2667  1.6895 -1.2264
  138OSM    C9F15114   3.591   4.707   5.972  0.6795  0.0519 -1.0134
  138OSM    H9F15115   3.487   4.741   5.976  0.9128  0.7104 -0.4659
  138OSM   C10F15116   3.658   4.756   5.868 -0.1030  0.1086 -0.5258
  138OSM   H10F15117   3.591   4.805   5.796 -2.0157  0.9981  1.6961
  138OSM   C11F15118   3.806   4.751   5.843 -0.6950 -0.2231 -0.2138
  138OSM   H11F15119   3.856   4.713   5.935  0.1445  0.9349 -0.1750
  138OSM   H11G15120   3.845   4.852   5.819 -3.1618  0.7370 -0.4431
  138OSM   C12F15121   3.850   4.659   5.729  0.1501  0.1153  0.2574
  138OSM   H12F15122   3.798   4.700   5.640  1.7779 -1.6172 -1.6074
  138OSM   H12G15123   3.811   4.555   5.731 -0.0076  0.1863  0.8661
  138OSM   C13F15124   4.008   4.643   5.730 -0.2509 -0.3260 -0.0533
  138OSM   H13F15125   4.046   4.637   5.835  1.3022 -0.0479 -0.5750
  138OSM   H13G15126   4.069   4.723   5.683 -0.1386 -0.2966  0.1431
  138OSM   C14F15127   4.057   4.514   5.661 -1.1813  0.3771 -0.4196
  138OSM   H14F15128   4.038   4.507   5.551  0.5399 -1.5259 -0.6504
  138OSM   H14G15129   3.994   4.432   5.701  1.4558 -1.3263  0.4498
  138OSM   C15F15130   4.200   4.489   5.689 -0.2750  0.3896  0.6795
  138OSM   H15F15131   4.221   4.380   5.691 -0.9490  0.2575  0.9850
  138OSM   H15G15132   4.230   4.517   5.792  2.4162 -0.5438  0.2293
  138OSM   C16F15133   4.298   4.541   5.584  0.8706  0.4994 -0.0241
  138OSM   H16F15134   4.276   4.650   5.579 -0.9028  0.1945  0.5585
  138OSM   H16G15135   4.284   4.487   5.488  0.7518  0.7951 -0.1742
  138OSM   C17F15136   4.439   4.523   5.626 -0.6601  0.4362 -0.3836
  138OSM   H17F15137   4.475   4.417   5.623 -0.7739  0.3903 -0.1131
  138OSM   H17G15138   4.435   4.557   5.732 -4.2560 -0.7958  0.0124
  138OSM   C18F15139   4.535   4.611   5.550 -0.3700 -0.8511  0.1859
  138OSM   H18F15140   4.566   4.559   5.457 -1.1831 -2.8343  0.9754
  138OSM   H18G15141   4.627   4.648   5.602  1.1686 -0.9789 -2.2924
  138OSM   H18H15142   4.477   4.704   5.530  0.4344 -0.6592 -1.4092
  139OSM      N15143   5.910   0.166   7.837 -0.5854  0.7121 -0.0713
  139OSM    C1515144   5.881   0.201   7.978 -0.2187  0.1160  1.2259
  139OSM   H15A15145   5.774   0.211   7.977 -0.3270 -0.7152 -0.9471
  139OSM   H15B15146   5.933   0.293   8.000  0.1681  0.5244 -1.1150
  139OSM   H15C15147   5.903   0.118   8.044 -0.0470 -1.2874 -0.5003
  139OSM    C1415148   5.820   0.244   7.745 -0.3531 -0.3144 -0.7747
  139OSM   H14A15149   5.845   0.348   7.761  0.1842 -0.3446 -1.3600
  139OSM   H14B15150   5.718   0.234   7.778 -0.4018  0.2343 -0.7468
  139OSM   H14C15151   5.840   0.218   7.642  1.3093 -1.4179 -0.2116
  139OSM    C1315152   6.049   0.203   7.801 -0.0265  0.3410 -0.9000
  139OSM   H13A15153   6.097   0.140   7.727  1.5793  2.4341 -1.7289
  139OSM   H13B15154   6.115   0.187   7.884 -1.2320 -1.2253 -0.1645
  139OSM   H13C15155   6.062   0.303   7.762 -2.0994  1.0764  0.1122
  139OSM    C1215156   5.882   0.020   7.807 -0.5849  0.0895  0.3262
  139OSM   H12A15157   5.780   0.001   7.837 -1.9375  2.9462 -1.9667
  139OSM   H12B15158   5.952  -0.037   7.866  0.4208 -1.0177 -1.8250
  139OSM    C1115159   5.903  -0.037   7.659  0.5362  0.3720  0.3655
  139OSM   H11A15160   5.824  -0.002   7.588  0.7642  1.3586  0.5831
  139OSM   H11B15161   5.898  -0.147   7.649  2.0237  0.3604 -0.6131
  139OSM      P15162   6.144  -0.066   7.531  0.2490 -0.0168  0.4497
  139OSM    O1315163   6.272  -0.006   7.572  0.1422 -0.4762  0.5937
  139OSM    O1415164   6.135  -0.211   7.548  0.0764  0.2118 -0.0888
  139OSM    O1115165   6.137  -0.038   7.368  0.0870  0.1041 -0.3260
  139OSM    O1215166   6.025   0.007   7.607 -0.1992  0.3842  0.2551
  139OSM    C1S15167   6.085   0.078   7.312 -0.3491 -0.3858 -0.4129
  139OSM    H1S15168   6.172   0.147   7.299 -2.0756  1.8056 -1.0427
  139OSM    H1T15169   6.007   0.133   7.369  0.4460  1.9502 -1.4230
  139OSM     NF15170   5.935   0.156   7.129 -0.1695 -0.2607  0.2715
  139OSM    HNF15171   5.839   0.165   7.156 -0.0056  0.1683  0.7364
  139OSM    C2S15172   6.004   0.040   7.185  0.5386 -0.5470  0.3913
  139OSM    H2S15173   6.069   0.009   7.101 -1.3542 -1.6454 -0.7457
  139OSM    C3S15174   5.918  -0.090   7.203  0.2730  0.2453 -0.3399
  139OSM    H3S15175   5.847  -0.068   7.286  0.7323 -0.3813  0.2331
  139OSM     O315176   5.991  -0.206   7.245 -0.1007  0.1541  0.4774
  139OSM    HO315177   6.072  -0.165   7.275  1.2132 -2.8844  1.5441
  139OSM    C4S15178   5.831  -0.118   7.082  0.0732  0.0532  0.0560
  139OSM    H4S15179   5.737  -0.061   7.084 -0.0815 -0.1234 -1.1702
  139OSM    C5S15180   5.869  -0.186   6.971  0.1544 -0.0488 -0.5616
  139OSM    H5S15181   5.966  -0.238   6.977 -0.7930 -1.7120  2.0712
  139OSM    C6S15182   5.783  -0.196   6.849  0.7070 -0.4846 -0.2191
  139OSM    H6S15183   5.784  -0.302   6.816 -0.9755 -0.5162 -0.2456
  139OSM    H6T15184   5.823  -0.144   6.760 -2.9604  0.8846 -1.2483
  139OSM    C7S15185   5.635  -0.156   6.843 -0.1068 -0.1665  0.2926
  139OSM    H7S15186   5.618  -0.047   6.843 -0.9052 -0.2456 -1.6389
  139OSM    H7T15187   5.570  -0.199   6.921 -0.4160 -2.9186 -1.3467
  139OSM    C8S15188   5.583  -0.189   6.703  0.9470  0.5864 -0.1527
  139OSM    H8S15189   5.472  -0.183   6.708  0.9772  0.5949  0.8554
  139OSM    H8T15190   5.602  -0.295   6.675 -0.4862 -0.0915  1.2787
  139OSM    C9S15191   5.619  -0.090   6.596  0.4003  0.1057 -0.0667
  139OSM    H9S15192   5.730  -0.096   6.584  0.5002 -0.7611  1.1428
  139OSM    H9T15193   5.589   0.010   6.634 -1.9309 -1.3239  2.1650
  139OSM   C10S15194   5.550  -0.104   6.453 -0.0753  0.0202 -0.1318
  139OSM   H10S15195   5.447  -0.066   6.468  1.1438  2.1761  4.9155
  139OSM   H10T15196   5.549  -0.213   6.434  0.9210 -0.1673  0.7780
  139OSM   C11S15197   5.625  -0.034   6.338 -0.6876  0.1322  0.0226
  139OSM   H11S15198   5.727  -0.078   6.334 -0.8968 -0.4073  0.5470
  139OSM   H11T15199   5.648   0.071   6.366 -0.6347 -0.0851  0.8138
  139OSM   C12S15200   5.556  -0.037   6.198 -0.0018 -0.3574  0.1015
  139OSM   H12S15201   5.470   0.031   6.213  0.3886  0.0408  0.5702
  139OSM   H12T15202   5.520  -0.140   6.179 -0.2921 -0.2973  0.3306
  139OSM   C13S15203   5.644   0.011   6.080  0.3709 -0.1027 -0.4496
  139OSM   H13S15204   5.588   0.010   5.984  0.4837 -0.1380 -0.5146
  139OSM   H13T15205   5.733  -0.055   6.082 -0.6123 -1.5752  3.0515
  139OSM   C14S15206   5.693   0.150   6.097  0.2425 -0.4735  0.7709
  139OSM   H14S15207   5.736   0.175   6.197 -2.0363 -0.0145  1.6861
  139OSM   H14T15208   5.607   0.218   6.084 -0.0138 -0.8755  0.3502
  139OSM   C15S15209   5.797   0.189   5.990 -0.2074  0.1257 -0.9675
  139OSM   H15S15210   5.874   0.109   5.982 -1.1578 -0.6910 -2.5370
  139OSM   H15T15211   5.851   0.275   6.034  1.3951 -0.3315 -1.9704
  139OSM   C16S15212   5.744   0.210   5.852  0.0283  0.4056 -0.4087
  139OSM   H16S15213   5.661   0.282   5.864 -0.1125  0.0526  0.8715
  139OSM   H16T15214   5.696   0.120   5.806  0.8398 -1.4463  2.1576
  139OSM   C17S15215   5.836   0.274   5.748  0.3678  0.4011 -0.2740
  139OSM   H17S15216   5.933   0.222   5.757  0.5256  0.3329 -2.0238
  139OSM   H17T15217   5.866   0.381   5.761  0.7752  1.3356 -6.1715
  139OSM   C18S15218   5.773   0.266   5.612  0.0320  0.1824  0.5106
  139OSM   H18S15219   5.678   0.324   5.605 -0.6512 -0.9152  0.2608
  139OSM   H18T15220   5.747   0.162   5.581  0.5692  0.2064 -0.0387
  139OSM   H18U15221   5.843   0.302   5.534  0.2596  0.4410  0.8380
  139OSM    C1F15222   5.995   0.276   7.103  0.0580 -0.7476 -0.0087
  139OSM     OF15223   6.113   0.292   7.115  0.4529 -0.2387  0.0328
  139OSM    C2F15224   5.904   0.399   7.070 -0.4900  0.3716  0.1633
  139OSM    H2F15225   5.849   0.418   7.164 -1.7572 -1.2420 -0.1940
  139OSM    H2G15226   5.820   0.377   7.000 -0.3830 -0.5366  0.3092
  139OSM    C3F15227   5.991   0.514   7.020  0.0163  0.3017 -0.0574
  139OSM    H3F15228   6.048   0.488   6.929 -0.0226  0.3189 -0.0870
  139OSM    H3G15229   6.061   0.533   7.105 -1.6335 -0.8392  1.6303
  139OSM    C4F15230   5.905   0.638   6.992 -0.0383 -0.0183  0.1455
  139OSM    H4F15231   5.855   0.648   7.091  0.1892 -2.5376  0.5959
  139OSM    H4G15232   5.820   0.624   6.922 -0.0396  1.2701 -0.1384
  139OSM    C5F15233   5.989   0.760   6.944 -0.1238 -0.4040  0.7247
  139OSM    H5F15234   6.077   0.771   7.010 -0.3755  0.0369  0.9890
  139OSM    H5G15235   5.942   0.860   6.952  1.8738  1.3966 -5.0011
  139OSM    C6F15236   6.032   0.761   6.796 -0.2651 -0.2846  0.5671
  139OSM    H6F15237   5.943   0.724   6.742 -2.0246  0.3447  2.8773
  139OSM    H6G15238   6.124   0.700   6.782 -0.4723 -0.2628 -1.0933
  139OSM    C7F15239   6.046   0.905   6.732  0.0298  0.4148  0.6077
  139OSM    H7F15240   6.103   0.964   6.806  1.8111 -0.3342 -0.1199
  139OSM    H7G15241   5.946   0.953   6.722  0.2828  0.8240  0.0127
  139OSM    C8F15242   6.123   0.897   6.603 -0.6422 -0.0202 -0.7661
  139OSM    H8F15243   6.228   0.863   6.619 -0.6762  1.0705  2.4753
  139OSM    H8G15244   6.135   1.005   6.583 -2.7959  0.6332  1.0702
  139OSM    C9F15245   6.044   0.835   6.486 -0.6475 -0.3014 -0.6847
  139OSM    H9F15246   5.936   0.855   6.493 -0.7520 -1.3345  1.3612
  139OSM   C10F15247   6.096   0.763   6.393  0.0230  0.2764  0.2569
  139OSM   H10F15248   6.024   0.742   6.312 -0.7569  2.3796  0.3322
  139OSM   C11F15249   6.240   0.721   6.368  0.0867 -0.2693  0.5698
  139OSM   H11F15250   6.307   0.735   6.456  1.4773 -1.3981 -0.2653
  139OSM   H11G15251   6.274   0.779   6.280  2.2006  0.8181  2.0099
  139OSM   C12F15252   6.237   0.575   6.327  0.3155  0.4209 -0.3804
  139OSM   H12F15253   6.339   0.555   6.288 -0.2059 -1.8873 -0.7182
  139OSM   H12G15254   6.174   0.558   6.237  0.0319  1.2955 -0.3547
  139OSM   C13F15255   6.220   0.480   6.454 -0.6770  0.4250 -0.9199
  139OSM   H13F15256   6.132   0.514   6.514 -0.3093 -0.2068  0.0007
  139OSM   H13G15257   6.314   0.498   6.512  0.3681  0.2684 -2.5165
  139OSM   C14F15258   6.242   0.335   6.433 -1.1392  0.2767 -0.2566
  139OSM   H14F15259   6.345   0.308   6.401 -1.4045 -0.8433 -0.2325
  139OSM   H14G15260   6.167   0.303   6.357  0.6249 -0.2836 -1.8476
  139OSM   C15F15261   6.217   0.254   6.561  0.3263 -0.3279 -0.2944
  139OSM   H15F15262   6.129   0.291   6.618 -0.1411 -1.5150 -0.2169
  139OSM   H15G15263   6.298   0.274   6.634 -2.0743  0.0609  2.4344
  139OSM   C16F15264   6.206   0.108   6.535  0.5921  0.0013  0.1025
  139OSM   H16F15265   6.307   0.074   6.504  2.0429  1.7576  2.5972
  139OSM   H16G15266   6.123   0.102   6.460 -1.0517  2.0643  1.6152
  139OSM   C17F15267   6.173   0.023   6.658  0.4196 -0.2589 -0.3053
  139OSM   H17F15268   6.241   0.048   6.742 -0.3720 -0.8586  0.5290
  139OSM   H17G15269   6.202  -0.081   6.634  0.7698 -0.2245 -0.0401
  139OSM   C18F15270   6.030   0.052   6.711 -0.3448 -0.4005 -0.1802
  139OSM   H18F15271   6.021   0.001   6.810 -0.5509  0.9867  0.5376
  139OSM   H18G15272   5.955   0.007   6.643 -0.8348 -0.1986  0.2155
  139OSM   H18H15273   6.018   0.162   6.725  1.8597 -0.3508  2.2884
  140OSM      N15274   6.070   5.343   7.519 -0.5284 -0.2387 -0.4266
  140OSM    C1515275   6.018   5.482   7.483  0.4127  0.6426  0.1301
  140OSM   H15A15276   5.926   5.482   7.427 -1.0351  3.1620  2.2468
  140OSM   H15B15277   6.097   5.528   7.425  1.7885  1.3739  2.4289
  140OSM   H15C15278   5.992   5.542   7.569  1.2977 -0.7485  1.4331
  140OSM    C1415279   6.187   5.373   7.612  1.2319 -0.0297  0.4847
  140OSM   H14A15280   6.234   5.284   7.653  0.7429 -0.3433  0.3758
  140OSM   H14B15281   6.165   5.435   7.697  0.8839  0.4052  0.0829
  140OSM   H14C15282   6.269   5.424   7.564  1.4959  0.1872  1.1475
  140OSM    C1315283   5.959   5.267   7.588 -0.1234 -0.4190  0.0782
  140OSM   H13A15284   5.902   5.325   7.659 -0.2566  0.6786 -0.8899
  140OSM   H13B15285   5.997   5.174   7.628  0.8500 -1.5274 -3.1369
  140OSM   H13C15286   5.889   5.230   7.516  0.2705 -0.0589 -0.4936
  140OSM    C1215287   6.116   5.267   7.400 -0.0521 -0.3211  0.3044
  140OSM   H12A15288   6.193   5.324   7.350 -1.0576 -0.7796 -1.9043
  140OSM   H12B15289   6.039   5.267   7.324  0.6278 -4.1239 -0.5784
  140OSM    C1115290   6.170   5.124   7.408  0.0300  0.4519 -0.7452
  140OSM   H11A15291   6.174   5.077   7.308  1.1582  0.1730 -0.5741
  140OSM   H11B15292   6.092   5.061   7.456 -0.8125  1.2811 -0.9690
  140OSM      P15293   6.429   5.063   7.419 -0.3722  0.0726 -0.2835
  140OSM    O1315294   6.542   5.161   7.451  0.3594  1.1660 -0.4537
  140OSM    O1415295   6.460   4.925   7.462 -0.1500 -0.0256 -0.0966
  140OSM    O1115296   6.407   5.050   7.261  0.4198  0.3663 -0.6219
  140OSM    O1215297   6.292   5.108   7.482 -0.1907 -0.1133  0.1484
  140OSM    C1S15298   6.398   5.170   7.184 -0.0167  0.2533  0.3305
  140OSM    H1S15299   6.477   5.239   7.220  1.1926 -0.3500 -1.0493
  140OSM    H1T15300   6.302   5.221   7.203  0.1548  0.1716  1.4613
  140OSM     NF15301   6.348   5.239   6.949  0.0734 -0.3808 -0.1168
  140OSM    HNF15302   6.276   5.189   6.901 -1.1846 -0.2482  1.5202
  140OSM    C2S15303   6.425   5.150   7.028  0.4441  0.9881 -0.2011
  140OSM    H2S15304   6.530   5.184   7.019  1.5131 -1.5139  1.5019
  140OSM    C3S15305   6.411   5.008   6.977  0.3468  0.1256  0.0103
  140OSM    H3S15306   6.300   4.997   6.968  0.2798  1.2033 -0.6788
  140OSM     O315307   6.450   4.901   7.064 -0.1370 -0.2676 -0.4322
  140OSM    HO315308   6.427   4.944   7.146  0.1283  2.0593 -1.4957
  140OSM    C4S15309   6.471   5.000   6.834 -0.0478  0.3207 -0.2124
  140OSM    H4S15310   6.396   5.013   6.755 -1.8282 -1.2312  1.1274
  140OSM    C5S15311   6.597   4.960   6.812  0.5864  0.0319 -0.6855
  140OSM    H5S15312   6.653   4.928   6.901  0.9630 -1.3344 -1.3943
  140OSM    C6S15313   6.654   4.948   6.677  0.2967  1.1181 -0.0446
  140OSM    H6S15314   6.713   4.854   6.668 -2.1692 -0.5415  0.0908
  140OSM    H6T15315   6.718   5.038   6.663  1.2740  0.2895 -1.1469
  140OSM    C7S15316   6.546   4.943   6.566  0.9560 -0.4265 -0.3838
  140OSM    H7S15317   6.480   5.033   6.571  0.0954 -1.0301 -0.7047
  140OSM    H7T15318   6.481   4.859   6.597  0.2041  1.1430  2.6881
  140OSM    C8S15319   6.595   4.931   6.424  0.1886  0.1005  0.0517
  140OSM    H8S15320   6.641   4.832   6.403  0.4242  0.0235  0.8997
  140OSM    H8T15321   6.674   5.008   6.412  0.6844 -0.2625  0.9021
  140OSM    C9S15322   6.481   4.947   6.321  0.0127  0.0632 -0.5974
  140OSM    H9S15323   6.438   5.049   6.331  2.7457  1.1232  1.4019
  140OSM    H9T15324   6.403   4.869   6.335 -0.3769  0.2653 -1.5652
  140OSM   C10S15325   6.538   4.923   6.184  0.0184  0.1389  0.4468
  140OSM   H10S15326   6.531   4.812   6.177 -3.1069  0.0028  3.4851
  140OSM   H10T15327   6.641   4.961   6.165 -0.5609  1.3117 -0.5225
  140OSM   C11S15328   6.440   4.952   6.071  0.2454  0.4266  0.5600
  140OSM   H11S15329   6.390   5.051   6.074 -1.0475 -0.1445 -0.8837
  140OSM   H11T15330   6.352   4.888   6.095  1.4366 -0.9418  1.4454
  140OSM   C12S15331   6.501   4.937   5.926 -0.0909  0.5004  0.0917
  140OSM   H12S15332   6.544   4.835   5.929  0.8390  0.7673 -2.1649
  140OSM   H12T15333   6.590   5.003   5.917  1.1841 -1.2384 -0.4239
  140OSM   C13S15334   6.386   4.950   5.823 -0.1223  0.1640 -0.3021
  140OSM   H13S15335   6.347   5.047   5.861  1.4112  0.1655  1.4145
  140OSM   H13T15336   6.315   4.867   5.840 -1.1259  1.3240  1.4750
  140OSM   C14S15337   6.432   4.949   5.686 -0.1736  0.2771  0.6151
  140OSM   H14S15338   6.496   4.862   5.661  0.7443  0.4823  2.1453
  140OSM   H14T15339   6.499   5.038   5.684  0.9119 -0.2316  5.1797
  140OSM   C15S15340   6.324   4.962   5.578  0.4103  0.5073 -0.7715
  140OSM   H15S15341   6.266   5.045   5.623  1.1974 -0.2123  1.7810
  140OSM   H15T15342   6.262   4.870   5.574  2.3109 -0.8707 -0.0369
  140OSM   C16S15343   6.379   4.978   5.438  0.6354 -0.2201  0.2398
  140OSM   H16S15344   6.443   4.891   5.409  1.4623 -0.1393  1.7180
  140OSM   H16T15345   6.448   5.065   5.442 -0.4834  0.8893 -2.4417
  140OSM   C17S15346   6.282   5.006   5.328  0.8708 -0.1244 -0.4972
  140OSM   H17S15347   6.198   4.934   5.340 -0.2097  1.1573 -0.0736
  140OSM   H17T15348   6.334   4.986   5.232  0.9278 -1.3089 -0.2322
  140OSM   C18S15349   6.235   5.152   5.331  0.2153 -0.0463 -0.6337
  140OSM   H18S15350   6.150   5.160   5.260 -0.7667 -0.2475  0.5024
  140OSM   H18T15351   6.311   5.228   5.303 -1.4084  1.7763 -0.3336
  140OSM   H18U15352   6.191   5.176   5.430  0.6476  1.8165 -0.8445
  140OSM    C1F15353   6.359   5.367   6.948  0.2507 -1.0323 -0.1636
  140OSM     OF15354   6.448   5.429   7.001 -0.1869 -0.3078 -0.1432
  140OSM    C2F15355   6.260   5.449   6.855 -0.0584  0.2149  0.0433
  140OSM    H2F15356   6.243   5.541   6.914  2.9727  1.6370 -1.1169
  140OSM    H2G15357   6.159   5.404   6.842 -0.1503  0.6223 -0.7510
  140OSM    C3F15358   6.337   5.483   6.724  0.9559 -0.0802 -0.0036
  140OSM    H3F15359   6.444   5.512   6.730  1.2678 -0.4670 -2.4557
  140OSM    H3G15360   6.275   5.559   6.671 -1.3330 -0.7378  1.5942
  140OSM    C4F15361   6.356   5.367   6.624  0.1415  0.0866 -0.7172
  140OSM    H4F15362   6.261   5.309   6.619 -0.3121  0.6571  0.8585
  140OSM    H4G15363   6.439   5.306   6.665  0.7505  0.8871 -0.7320
  140OSM    C5F15364   6.388   5.415   6.476 -0.0409 -0.2663 -0.1902
  140OSM    H5F15365   6.458   5.501   6.466  1.2918 -0.8876  2.7967
  140OSM    H5G15366   6.289   5.452   6.441 -1.3280 -1.4027  1.9888
  140OSM    C6F15367   6.439   5.309   6.382 -0.0335  1.6366 -0.0148
  140OSM    H6F15368   6.384   5.218   6.416  1.5972  1.1583  1.5407
  140OSM    H6G15369   6.545   5.280   6.396 -0.1700 -0.1621 -2.2192
  140OSM    C7F15370   6.422   5.333   6.234  0.8431 -0.5197  0.0161
  140OSM    H7F15371   6.316   5.360   6.216  1.3503  1.1973 -0.6205
  140OSM    H7G15372   6.446   5.239   6.180  0.8544 -1.2835  1.3030
  140OSM    C8F15373   6.517   5.442   6.179  0.3145  0.1241  0.3232
  140OSM    H8F15374   6.616   5.406   6.215  1.1057  0.9828 -0.9093
  140OSM    H8G15375   6.483   5.527   6.240  2.0099  1.6477 -0.7592
  140OSM    C9F15376   6.519   5.465   6.030  0.4398  0.1962  0.0877
  140OSM    H9F15377   6.425   5.500   5.985 -0.9573 -2.0600  1.0903
  140OSM   C10F15378   6.622   5.437   5.951 -0.2303 -0.1824 -0.1202
  140OSM   H10F15379   6.620   5.466   5.845  1.9701  1.5249  0.2041
  140OSM   C11F15380   6.754   5.366   5.983 -0.9600 -0.5880  0.2055
  140OSM   H11F15381   6.746   5.256   5.972  0.7795 -0.5493 -2.2023
  140OSM   H11G15382   6.775   5.373   6.092  1.0507 -0.9254 -0.1250
  140OSM   C12F15383   6.873   5.413   5.896 -0.0072 -0.0272  0.4639
  140OSM   H12F15384   6.958   5.352   5.932  0.8376  0.2586 -0.9590
  140OSM   H12G15385   6.891   5.521   5.913  3.1977 -0.2973 -0.6319
  140OSM   C13F15386   6.855   5.395   5.747  0.6471  0.2801  0.0422
  140OSM   H13F15387   6.911   5.479   5.701 -1.9134  2.0741  0.0167
  140OSM   H13G15388   6.751   5.416   5.714  0.5426 -0.3528 -0.0540
  140OSM   C14F15389   6.877   5.254   5.696  0.2882 -0.3686  0.1187
  140OSM   H14F15390   6.832   5.172   5.755  3.2301 -1.1609  1.4866
  140OSM   H14G15391   6.985   5.235   5.718  0.0362 -0.4395  1.3336
  140OSM   C15F15392   6.837   5.238   5.550  0.9804  0.2234 -0.3519
  140OSM   H15F15393   6.743   5.295   5.533  1.6676  1.9177  1.1762
  140OSM   H15G15394   6.831   5.132   5.516  1.0282 -0.2646  1.1138
  140OSM   C16F15395   6.942   5.302   5.455 -0.0410 -0.1411  0.2248
  140OSM   H16F15396   7.035   5.241   5.455 -0.1563 -0.3544 -1.2550
  140OSM   H16G15397   6.973   5.405   5.483  3.0515 -1.2382  1.2201
  140OSM   C17F15398   6.892   5.298   5.310  0.6067 -0.0614 -0.5586
  140OSM   H17F15399   6.796   5.351   5.292  0.8489  0.3291 -0.7137
  140OSM   H17G15400   6.860   5.193   5.289  2.0939 -1.0755  1.8705
  140OSM   C18F15401   6.998   5.348   5.209  0.2479  0.0946  0.6071
  140OSM   H18F15402   6.956   5.342   5.106 -0.7966  1.3587  0.9265
  140OSM   H18G15403   7.096   5.296   5.214  0.2352  0.0917  0.8061
  140OSM   H18H15404   7.021   5.451   5.242  1.9827  0.0832 -0.4435
  141OSM      N15405   6.498   6.033   7.395 -0.1175 -0.3112  0.0978
  141OSM    C1515406   6.606   5.972   7.475  0.0437  0.1115 -0.2989
  141OSM   H15A15407   6.568   5.896   7.542 -3.2770  1.2961 -0.6533
  141OSM   H15B15408   6.653   6.046   7.538  0.6580 -0.8975  0.4525
  141OSM   H15C15409   6.685   5.938   7.410  1.2848 -1.3511  1.8394
  141OSM    C1415410   6.403   6.108   7.475 -0.4721 -0.1261  0.0674
  141OSM   H14A15411   6.317   6.134   7.415 -0.4745 -0.7094 -0.1890
  141OSM   H14B15412   6.455   6.192   7.520  4.6549 -1.4900 -2.5323
  141OSM   H14C15413   6.362   6.045   7.552 -1.8262  2.2456  1.4024
  141OSM    C1315414   6.559   6.118   7.296 -0.2885  0.2723  0.1730
  141OSM   H13A15415   6.488   6.167   7.231  1.4376  0.8481 -1.3664
  141OSM   H13B15416   6.613   6.057   7.224  1.1110 -1.7161  2.7458
  141OSM   H13C15417   6.613   6.202   7.336  1.3550 -0.1183 -1.1192
  141OSM    C1215418   6.418   5.921   7.337  0.1797 -0.6406  0.4325
  141OSM   H12A15419   6.388   5.859   7.420  0.9916 -1.4688  0.1207
  141OSM   H12B15420   6.469   5.857   7.267 -2.8058 -1.7273 -0.9112
  141OSM    C1115421   6.296   5.965   7.258 -0.4340 -0.4527  0.3856
  141OSM   H11A15422   6.328   6.042   7.185 -2.8381  1.1241  0.8774
  141OSM   H11B15423   6.224   6.021   7.321  1.3217  2.0364  0.3718
  141OSM      P15424   6.126   5.774   7.266  0.4499  0.4221 -0.2883
  141OSM    O1315425   6.148   5.630   7.263 -0.2200  0.0332  0.4203
  141OSM    O1415426   6.096   5.832   7.401 -0.5843  0.2658 -0.0762
  141OSM    O1115427   6.009   5.792   7.170 -0.2721  0.1362 -0.5132
  141OSM    O1215428   6.240   5.856   7.187  0.0497 -0.4065  0.2903
  141OSM    C1S15429   6.032   5.791   7.026  0.2421  0.5137 -0.3540
  141OSM    H1S15430   6.073   5.691   6.998 -1.6264 -0.6346  0.7642
  141OSM    H1T15431   6.101   5.871   6.994  0.7072 -0.2369 -1.2749
  141OSM     NF15432   5.897   5.750   6.820  0.1337 -0.1412  0.2335
  141OSM    HNF15433   5.932   5.799   6.740  0.3348  0.2865  0.5783
  141OSM    C2S15434   5.892   5.805   6.959  0.1995  0.1108  0.5430
  141OSM    H2S15435   5.818   5.742   7.015  0.3256 -1.2710 -0.7671
  141OSM    C3S15436   5.831   5.947   6.969  0.4526 -0.8454  0.3166
  141OSM    H3S15437   5.897   6.018   6.916 -1.1244  0.8660  0.5527
  141OSM     O315438   5.844   5.999   7.103  0.3667  0.4111 -0.7056
  141OSM    HO315439   5.885   5.928   7.152 -1.4636  0.2070  0.6301
  141OSM    C4S15440   5.690   5.956   6.916 -0.5262  0.6838 -1.0061
  141OSM    H4S15441   5.617   5.938   6.996  0.4430  0.3657 -0.1672
  141OSM    C5S15442   5.649   6.012   6.799 -0.7323  0.2796  0.1172
  141OSM    H5S15443   5.721   6.058   6.730  1.6734  0.2702  2.4754
  141OSM    C6S15444   5.502   6.038   6.774 -0.0995  0.8239  0.3325
  141OSM    H6S15445   5.497   6.149   6.763  3.7661  1.0025 -1.5026
  141OSM    H6T15446   5.432   6.015   6.857  0.2583 -0.1374  0.3756
  141OSM    C7S15447   5.443   5.994   6.636 -0.3845  0.3640 -0.0167
  141OSM    H7S15448   5.338   6.029   6.629  0.1236  1.7817 -0.9136
  141OSM    H7T15449   5.426   5.884   6.630 -0.7259  0.4678 -1.6055
  141OSM    C8S15450   5.526   6.047   6.522 -0.3689 -0.1877  0.7199
  141OSM    H8S15451   5.630   6.008   6.509  0.0846  1.3099 -0.3339
  141OSM    H8T15452   5.537   6.154   6.550 -3.8187  0.4442  0.0587
  141OSM    C9S15453   5.454   6.031   6.384 -1.0224 -0.0584  0.1157
  141OSM    H9S15454   5.346   6.052   6.403 -0.5619  0.6794  2.2023
  141OSM    H9T15455   5.453   5.924   6.354  0.0958 -0.1778  0.4732
  141OSM   C10S15456   5.518   6.131   6.280 -0.7174  0.6894  0.0230
  141OSM   H10S15457   5.624   6.102   6.272 -0.3410  2.1774 -0.7626
  141OSM   H10T15458   5.517   6.232   6.326  1.2720  0.5986  0.3385
  141OSM   C11S15459   5.458   6.145   6.135  0.2802 -0.3677  0.2799
  141OSM   H11S15460   5.356   6.188   6.138 -0.0718 -1.2143  1.1009
  141OSM   H11T15461   5.451   6.048   6.081  0.2722 -0.2022 -0.0148
  141OSM   C12S15462   5.551   6.243   6.054  0.1387 -1.1734  0.6385
  141OSM   H12S15463   5.655   6.209   6.070  0.9899  1.7994  1.9700
  141OSM   H12T15464   5.546   6.344   6.098  2.1430 -0.6176 -0.3427
  141OSM   C13S15465   5.519   6.225   5.900 -1.3785  0.0311 -0.5018
  141OSM   H13S15466   5.526   6.118   5.873  1.0493 -0.1025  0.4119
  141OSM   H13T15467   5.613   6.276   5.868 -0.7301  0.5627  2.0868
  141OSM   C14S15468   5.391   6.299   5.856  0.2087  0.6701  0.0071
  141OSM   H14S15469   5.316   6.274   5.935  2.4081  0.7858  2.2226
  141OSM   H14T15470   5.358   6.251   5.761  0.1523 -0.4505  0.5687
  141OSM   C15S15471   5.409   6.449   5.845  0.2765 -0.8140 -0.0782
  141OSM   H15S15472   5.421   6.484   5.950  1.2068 -2.2165  0.3131
  141OSM   H15T15473   5.314   6.483   5.798  0.3529 -1.5451 -0.7745
  141OSM   C16S15474   5.527   6.499   5.755 -0.5595  0.0899  0.1131
  141OSM   H16S15475   5.626   6.459   5.786  0.3482  1.9718 -0.2272
  141OSM   H16T15476   5.519   6.610   5.757 -1.1301  0.0552  1.6596
  141OSM   C17S15477   5.501   6.454   5.608 -0.1952  0.1692 -0.7451
  141OSM   H17S15478   5.412   6.512   5.576  0.9789  1.2725 -2.1295
  141OSM   H17T15479   5.478   6.347   5.589 -0.3402  0.2395 -0.9658
  141OSM   C18S15480   5.619   6.487   5.516  0.5825  0.2646  0.0157
  141OSM   H18S15481   5.652   6.593   5.524 -2.6437  1.6752 -2.8075
  141OSM   H18T15482   5.587   6.469   5.411  1.3624  0.6883 -0.2996
  141OSM   H18U15483   5.705   6.423   5.544  0.6444 -0.1035 -0.9862
  141OSM    C1F15484   5.913   5.618   6.800 -0.5465  0.7740  0.2276
  141OSM     OF15485   5.934   5.537   6.893  0.5533  0.8198  0.6248
  141OSM    C2F15486   5.910   5.574   6.658 -0.3631 -0.3917  0.3133
  141OSM    H2F15487   6.002   5.607   6.607  0.4922 -1.6759  0.9703
  141OSM    H2G15488   5.823   5.624   6.611 -0.3219  0.8255  1.4670
  141OSM    C3F15489   5.892   5.420   6.653  0.5977  0.8260  1.0577
  141OSM    H3F15490   5.801   5.394   6.712 -1.1572  1.7725 -1.0929
  141OSM    H3G15491   5.985   5.370   6.688  2.2973  1.7439 -1.8539
  141OSM    C4F15492   5.861   5.347   6.514 -0.0604  0.3601 -0.3480
  141OSM    H4F15493   5.786   5.411   6.464 -1.8070 -3.7165 -3.4941
  141OSM    H4G15494   5.822   5.247   6.542 -2.6266  1.7869  1.6427
  141OSM    C5F15495   5.979   5.340   6.416  0.0777  0.1695 -0.1277
  141OSM    H5F15496   6.070   5.308   6.471  1.3760 -0.6470 -2.6042
  141OSM    H5G15497   5.983   5.444   6.377 -2.1438  0.4043  0.1526
  141OSM    C6F15498   5.941   5.248   6.290  0.3328  0.2140 -0.1484
  141OSM    H6F15499   5.851   5.301   6.252  0.0581 -1.2326 -1.6678
  141OSM    H6G15500   5.914   5.144   6.316 -0.2058  0.4296  0.1673
  141OSM    C7F15501   6.053   5.259   6.184  0.0560  0.4187 -0.2211
  141OSM    H7F15502   6.148   5.240   6.238 -0.7377  1.7446  1.7997
  141OSM    H7G15503   6.056   5.368   6.162 -2.5238  0.7489  0.6875
  141OSM    C8F15504   6.039   5.174   6.058  0.1173  0.4465  0.3330
  141OSM    H8F15505   6.006   5.075   6.095  3.1175  0.3801  3.2595
  141OSM    H8G15506   6.137   5.155   6.009  0.3500  0.3850  0.8212
  141OSM    C9F15507   5.936   5.230   5.961  0.3959 -0.0391  0.5164
  141OSM    H9F15508   5.842   5.247   6.014  0.5660 -0.4562  0.9639
  141OSM   C10F15509   5.945   5.263   5.831 -0.2927  0.3688  0.2790
  141OSM   H10F15510   5.858   5.304   5.778  0.8950  2.3585 -0.2432
  141OSM   C11F15511   6.063   5.240   5.746 -1.0706  0.1492 -0.2369
  141OSM   H11F15512   6.028   5.226   5.641 -0.3781  2.3486 -0.8060
  141OSM   H11G15513   6.122   5.148   5.766  0.0648  0.1408 -3.0972
  141OSM   C12F15514   6.147   5.371   5.741 -0.0206 -0.2006 -0.0702
  141OSM   H12F15515   6.191   5.384   5.842  1.9924  1.9210 -1.1254
  141OSM   H12G15516   6.088   5.463   5.718 -0.4016 -0.9611 -2.4849
  141OSM   C13F15517   6.259   5.362   5.642  0.3217 -0.3667  0.1679
  141OSM   H13F15518   6.209   5.367   5.543  0.0773  1.3680  0.3434
  141OSM   H13G15519   6.309   5.263   5.643 -1.5676 -1.3852 -0.3278
  141OSM   C14F15520   6.357   5.479   5.654  0.4792  0.1578 -0.2617
  141OSM   H14F15521   6.404   5.480   5.755 -0.1335  2.3991  0.0459
  141OSM   H14G15522   6.293   5.569   5.654  0.0250 -0.1425  1.1803
  141OSM   C15F15523   6.480   5.474   5.556  0.4278 -0.1593  0.8590
  141OSM   H15F15524   6.552   5.391   5.570 -0.5374 -1.3449 -0.8262
  141OSM   H15G15525   6.530   5.572   5.575  1.0194  0.0523 -1.4613
  141OSM   C16F15526   6.432   5.492   5.414  0.2516  0.0423  0.1394
  141OSM   H16F15527   6.351   5.568   5.418 -0.2702 -0.5407  1.5634
  141OSM   H16G15528   6.387   5.394   5.388  0.3306  0.3622 -1.2938
  141OSM   C17F15529   6.547   5.543   5.321  0.5166 -0.3555 -0.7615
  141OSM   H17F15530   6.646   5.527   5.369  0.6995  1.4918 -0.4612
  141OSM   H17G15531   6.536   5.652   5.305  1.6744 -0.0181  0.5319
  141OSM   C18F15532   6.548   5.474   5.183  0.5297  0.1782  0.2287
  141OSM   H18F15533   6.455   5.500   5.127  1.4054 -0.9140 -1.8575
  141OSM   H18G15534   6.561   5.365   5.201  0.5736  0.2285  0.4963
  141OSM   H18H15535   6.636   5.520   5.132  0.2112  0.8256  0.2495
  142OSM      N15536   6.247   4.008   7.258  0.0210  0.8985 -0.4675
  142OSM    C1515537   6.367   3.952   7.310 -0.6966  0.1651 -0.8645
  142OSM   H15A15538   6.456   3.984   7.259 -0.1100 -0.0852 -0.0094
  142OSM   H15B15539   6.364   3.844   7.307  1.4802  0.0591 -0.8585
  142OSM   H15C15540   6.382   3.985   7.411 -0.8219  1.4746 -1.2545
  142OSM    C1415541   6.133   3.930   7.300  0.1940 -0.0172  0.0587
  142OSM   H14A15542   6.046   3.972   7.251  0.6824 -0.9852 -1.7702
  142OSM   H14B15543   6.125   3.928   7.407 -0.0152  2.6090  0.1633
  142OSM   H14C15544   6.123   3.832   7.255 -0.7145  1.4732 -3.3183
  142OSM    C1315545   6.235   4.155   7.304  0.4465  1.1257  0.0543
  142OSM   H13A15546   6.167   4.206   7.238  0.2564  0.9691  0.1264
  142OSM   H13B15547   6.331   4.202   7.287  1.4088  0.1473  2.2772
  142OSM   H13C15548   6.198   4.169   7.405  1.4060  1.5540  0.3602
  142OSM    C1215549   6.260   4.005   7.101  0.4672  0.2812 -0.3659
  142OSM   H12A15550   6.276   3.903   7.069  1.6070 -0.0256  1.0885
  142OSM   H12B15551   6.347   4.061   7.072  0.8894  0.3600  0.9644
  142OSM    C1115552   6.128   4.039   7.028  0.2645  0.9313  0.5129
  142OSM   H11A15553   6.047   3.970   7.060  0.0490  0.8169 -0.2593
  142OSM   H11B15554   6.137   4.018   6.919 -0.1448  0.4778  0.5636
  142OSM      P15555   5.948   4.238   7.043  0.3108 -0.0694  0.0462
  142OSM    O1315556   5.864   4.146   7.121  0.7839  0.4038  0.3855
  142OSM    O1415557   5.959   4.377   7.095 -0.1947 -0.3138 -0.4719
  142OSM    O1115558   5.907   4.232   6.894 -0.3216  0.8144  0.3213
  142OSM    O1215559   6.095   4.179   7.046  0.5307 -0.5717  0.0499
  142OSM    C1S15560   6.005   4.250   6.792 -0.8346 -0.1395  0.1916
  142OSM    H1S15561   6.048   4.151   6.769 -0.8764 -0.4631  1.4211
  142OSM    H1T15562   6.087   4.319   6.821 -0.6650 -0.2924  0.0792
  142OSM     NF15563   6.027   4.326   6.564 -0.0807 -0.2437  0.0615
  142OSM    HNF15564   6.085   4.407   6.573 -0.5761 -0.0759  2.4038
  142OSM    C2S15565   5.932   4.314   6.668 -0.1982 -0.2470  0.0961
  142OSM    H2S15566   5.852   4.242   6.642 -0.9810  0.7845 -0.4275
  142OSM    C3S15567   5.875   4.451   6.699  0.1968 -0.7172 -0.2347
  142OSM    H3S15568   5.953   4.518   6.743  0.2868 -0.1375 -1.2522
  142OSM     O315569   5.785   4.451   6.813 -0.5005  0.1178  0.2637
  142OSM    HO315570   5.811   4.371   6.860 -1.2107 -0.5140 -0.4070
  142OSM    C4S15571   5.823   4.513   6.576  0.2574 -0.4147  1.2251
  142OSM    H4S15572   5.900   4.553   6.509 -0.4750 -0.8926  0.0581
  142OSM    C5S15573   5.689   4.526   6.545 -0.3781 -1.0951  0.1668
  142OSM    H5S15574   5.613   4.496   6.619  0.7021 -0.9619  1.3579
  142OSM    C6S15575   5.632   4.580   6.422  0.0270  0.6191  0.8498
  142OSM    H6S15576   5.578   4.677   6.434 -1.2099 -0.0526  0.8947
  142OSM    H6T15577   5.561   4.503   6.386  0.9198  0.0900  0.1862
  142OSM    C7S15578   5.732   4.607   6.303  0.4606  0.2229 -0.0562
  142OSM    H7S15579   5.787   4.512   6.285 -1.2059 -1.1362  1.6600
  142OSM    H7T15580   5.803   4.685   6.336 -0.1850  1.2117 -0.9310
  142OSM    C8S15581   5.659   4.654   6.177 -0.0958 -0.4494 -0.1001
  142OSM    H8S15582   5.600   4.746   6.196  0.5385  0.3687 -1.8818
  142OSM    H8T15583   5.603   4.570   6.130  0.3088 -0.2001 -1.0573
  142OSM    C9S15584   5.765   4.693   6.068 -0.6726 -0.0404  0.0591
  142OSM    H9S15585   5.846   4.618   6.065  2.3848  3.0546 -0.8594
  142OSM    H9T15586   5.814   4.787   6.099  1.5416 -1.0948 -0.0391
  142OSM   C10S15587   5.695   4.713   5.931  0.4992 -0.0315  0.0366
  142OSM   H10S15588   5.631   4.803   5.939  0.6631  0.2373 -1.3435
  142OSM   H10T15589   5.635   4.623   5.905  1.5520 -0.8328  0.2780
  142OSM   C11S15590   5.785   4.740   5.816  0.4470 -0.0886  0.3108
  142OSM   H11S15591   5.738   4.686   5.732 -0.8206  1.0855  0.2231
  142OSM   H11T15592   5.883   4.692   5.837  0.6430  0.1873  0.0356
  142OSM   C12S15593   5.802   4.888   5.788  0.3845  0.3901  0.0260
  142OSM   H12S15594   5.839   4.940   5.880  0.4351 -0.5769  0.5626
  142OSM   H12T15595   5.700   4.916   5.754  0.5279 -0.7629 -1.4181
  142OSM   C13S15596   5.902   4.912   5.673  0.6719 -0.1298  0.1962
  142OSM   H13S15597   5.985   4.838   5.682  0.9230  0.3691  2.6902
  142OSM   H13T15598   5.936   5.016   5.693 -1.4787  0.6998 -0.2071
  142OSM   C14S15599   5.832   4.918   5.534  0.6639  0.2878  0.6387
  142OSM   H14S15600   5.749   4.991   5.537 -1.3404 -1.8602  0.5059
  142OSM   H14T15601   5.786   4.820   5.508 -0.9596  1.1062  0.3635
  142OSM   C15S15602   5.939   4.939   5.420 -0.3893  0.1453  0.0760
  142OSM   H15S15603   6.004   4.849   5.422  0.4268  0.7201 -0.2539
  142OSM   H15T15604   5.994   5.034   5.435 -1.2689  0.6431  0.2397
  142OSM   C16S15605   5.875   4.948   5.280 -0.4256 -0.1099  0.8223
  142OSM   H16S15606   5.825   5.047   5.281  0.9230  0.6098  0.2010
  142OSM   H16T15607   5.795   4.872   5.270 -0.7290  0.4472 -1.4811
  142OSM   C17S15608   5.976   4.929   5.163 -0.0441  0.1673  0.3380
  142OSM   H17S15609   6.024   4.830   5.174 -0.8747 -0.6973 -2.8573
  142OSM   H17T15610   6.061   4.997   5.183 -0.0736 -0.5026  3.2260
  142OSM   C18S15611   5.920   4.924   5.016 -0.2698 -0.3278 -0.5600
  142OSM   H18S15612   5.855   5.012   4.996 -0.3832 -0.0279  1.0107
  142OSM   H18T15613   5.860   4.833   4.996  0.5601 -1.2573  0.9788
  142OSM   H18U15614   6.006   4.941   4.949 -1.0023  0.6810 -1.2857
  142OSM    C1F15615   6.065   4.220   6.487  0.6194 -0.0143 -0.0541
  142OSM     OF15616   6.010   4.108   6.502 -0.5357 -0.1856  0.0512
  142OSM    C2F15617   6.178   4.234   6.398  0.0148 -0.7321  0.0767
  142OSM    H2F15618   6.242   4.145   6.413 -0.3065 -1.3239 -1.7818
  142OSM    H2G15619   6.232   4.327   6.425 -2.4229  1.1430 -1.1440
  142OSM    C3F15620   6.136   4.225   6.247 -0.1980 -0.8000  0.5638
  142OSM    H3F15621   6.078   4.316   6.223 -1.5933 -1.4959  1.1856
  142OSM    H3G15622   6.071   4.137   6.226 -1.3665 -0.1324  1.2991
  142OSM    C4F15623   6.251   4.222   6.146  0.0792  0.1935 -0.5909
  142OSM    H4F15624   6.330   4.154   6.186  0.7933 -0.1859 -2.5279
  142OSM    H4G15625   6.294   4.325   6.142 -0.3339  0.4867  1.3727
  142OSM    C5F15626   6.190   4.178   6.015 -0.5394 -0.2016  0.7750
  142OSM    H5F15627   6.132   4.270   5.993  0.8472  0.9511  1.7800
  142OSM    H5G15628   6.119   4.092   6.019 -0.3765 -0.4376 -0.9570
  142OSM    C6F15629   6.301   4.139   5.914 -0.8679 -0.4183 -0.6190
  142OSM    H6F15630   6.339   4.036   5.929  2.3875  0.8780  1.1666
  142OSM    H6G15631   6.388   4.207   5.925 -1.8547  1.1040 -1.8175
  142OSM    C7F15632   6.251   4.160   5.773 -0.1489 -0.2582  0.4946
  142OSM    H7F15633   6.205   4.260   5.758 -0.5283 -0.3204  1.1809
  142OSM    H7G15634   6.169   4.088   5.755  0.8029 -1.5405  1.1588
  142OSM    C8F15635   6.362   4.159   5.663  0.7935 -0.0048  0.3590
  142OSM    H8F15636   6.430   4.071   5.661 -1.6488 -1.9801 -0.9050
  142OSM    H8G15637   6.422   4.248   5.693 -0.6080  1.7024 -1.6077
  142OSM    C9F15638   6.299   4.170   5.529  0.0864 -0.5205 -0.7488
  142OSM    H9F15639   6.234   4.258   5.517  1.6425  0.6674 -0.6962
  142OSM   C10F15640   6.325   4.099   5.422 -0.1917 -0.9137  0.9571
  142OSM   H10F15641   6.266   4.116   5.331  0.4196 -1.5551  0.4296
  142OSM   C11F15642   6.409   3.975   5.414  0.3383  0.1079  0.1218
  142OSM   H11F15643   6.354   3.904   5.349  1.3081  0.4641 -1.1279
  142OSM   H11G15644   6.407   3.924   5.512 -0.4138  0.8282  0.4880
  142OSM   C12F15645   6.557   4.002   5.367  0.6893  0.4215 -0.2819
  142OSM   H12F15646   6.607   3.903   5.359 -1.9132 -1.1037  0.8256
  142OSM   H12G15647   6.601   4.065   5.447 -0.3237 -0.3239  0.9074
  142OSM   C13F15648   6.566   4.065   5.231  0.2753 -0.0396 -0.1834
  142OSM   H13F15649   6.676   4.074   5.218  0.2733 -0.4801 -0.5137
  142OSM   H13G15650   6.519   4.165   5.245 -0.0865  0.0289 -1.7397
  142OSM   C14F15651   6.495   3.996   5.121 -0.5249 -0.0931  0.4494
  142OSM   H14F15652   6.521   4.045   5.025 -0.9136 -0.9883 -0.1284
  142OSM   H14G15653   6.384   3.988   5.124 -0.6402  1.0458 -0.1924
  142OSM   C15F15654   6.546   3.857   5.100 -0.1497  0.3171  0.5497
  142OSM   H15F15655   6.507   3.782   5.173 -0.8842  1.2554  1.1349
  142OSM   H15G15656   6.657   3.861   5.101 -0.1755  2.2102 -0.2381
  142OSM   C16F15657   6.505   3.812   4.965 -0.1207 -1.1379  0.2168
  142OSM   H16F15658   6.533   3.885   4.886 -1.0150 -0.7627  0.2371
  142OSM   H16G15659   6.395   3.801   4.952 -0.1057 -0.0458 -1.1573
  142OSM   C17F15660   6.583   3.692   4.911 -0.3102  0.0996  0.6461
  142OSM   H17F15661   6.556   3.598   4.963 -0.5927 -1.1496 -1.6291
  142OSM   H17G15662   6.692   3.705   4.929  0.0332  0.4459 -1.3949
  142OSM   C18F15663   6.564   3.664   4.761 -0.4104  0.2265 -0.2521
  142OSM   H18F15664   6.457   3.657   4.732 -1.1712  1.4055  2.0185
  142OSM   H18G15665   6.601   3.561   4.742 -0.6399 -0.4056  2.2706
  142OSM   H18H15666   6.612   3.748   4.707 -0.7573  1.0909  0.7419
  143OSM      N15667   6.440   1.008   7.520 -0.4715  0.0747  0.5681
  143OSM    C1515668   6.372   0.910   7.430  0.4105 -0.5101  0.5800
  143OSM   H15A15669   6.408   0.813   7.464  1.3786 -1.0979 -1.9078
  143OSM   H15B15670   6.389   0.936   7.327 -0.1786 -0.8614  0.3885
  143OSM   H15C15671   6.266   0.920   7.448  0.4782 -0.6992  1.1082
  143OSM    C1415672   6.575   1.021   7.470  0.7576 -1.0854 -0.3027
  143OSM   H14A15673   6.623   1.103   7.521 -0.6445  1.1983 -2.4158
  143OSM   H14B15674   6.550   1.051   7.369 -2.2583 -0.8917  0.3841
  143OSM   H14C15675   6.623   0.927   7.489  1.5066 -0.4913  0.8879
  143OSM    C1315676   6.379   1.142   7.518 -0.0545 -0.2999  1.0816
  143OSM   H13A15677   6.273   1.132   7.533  0.1885 -1.9794  1.9429
  143OSM   H13B15678   6.387   1.199   7.427  0.0089 -1.2028  0.5092
  143OSM   H13C15679   6.429   1.207   7.589 -0.4779  3.5930 -1.8425
  143OSM    C1215680   6.438   0.947   7.656  0.0105  0.2837  0.7234
  143OSM   H12A15681   6.344   0.979   7.699  0.2966  1.6898  0.3474
  143OSM   H12B15682   6.521   1.003   7.696 -0.6948  3.0697 -1.3929
  143OSM    C1115683   6.462   0.797   7.661 -0.1947 -0.3249 -0.1653
  143OSM   H11A15684   6.367   0.744   7.641  0.5643 -0.9241 -2.4956
  143OSM   H11B15685   6.479   0.770   7.768  0.5085 -1.8632 -0.6391
  143OSM      P15686   6.649   0.625   7.622  0.1969  0.0349  0.2421
  143OSM    O1315687   6.763   0.650   7.709 -0.0644 -0.5998  0.1520
  143OSM    O1415688   6.561   0.518   7.671  0.4746 -0.1131 -1.3278
  143OSM    O1115689   6.708   0.584   7.479  1.4800 -0.6458 -0.3283
  143OSM    O1215690   6.575   0.757   7.583  0.1777 -0.3898 -0.3458
  143OSM    C1S15691   6.749   0.688   7.389 -0.2016 -0.0580  0.2215
  143OSM    H1S15692   6.860   0.689   7.383 -0.2638  1.1423 -1.4046
  143OSM    H1T15693   6.716   0.786   7.430  0.7527 -0.6910  2.6298
  143OSM     NF15694   6.714   0.805   7.178  0.0677 -0.2336  0.5349
  143OSM    HNF15695   6.633   0.854   7.147  1.8312  1.2211 -2.1568
  143OSM    C2S15696   6.695   0.679   7.248 -0.1670 -0.4388  0.2504
  143OSM    H2S15697   6.759   0.612   7.186  1.0912  0.1061  0.9463
  143OSM    C3S15698   6.542   0.640   7.239 -0.4687 -0.4395 -0.4055
  143OSM    H3S15699   6.475   0.724   7.268 -1.5104 -1.2098 -0.5293
  143OSM     O315700   6.500   0.534   7.322  0.3356  0.1562  0.5297
  143OSM    HO315701   6.559   0.526   7.398 -1.4657  0.3514  2.0224
  143OSM    C4S15702   6.515   0.599   7.100 -0.0135 -0.3609  0.4951
  143OSM    H4S15703   6.598   0.549   7.048 -2.3015 -2.1940 -1.5972
  143OSM    C5S15704   6.403   0.613   7.027 -0.5248  0.0440 -0.0208
  143OSM    H5S15705   6.320   0.662   7.079  0.0196  1.5620 -0.5428
  143OSM    C6S15706   6.384   0.573   6.884  0.5697 -0.0200 -0.5970
  143OSM    H6S15707   6.281   0.536   6.864  0.8283 -1.1865  0.1496
  143OSM    H6T15708   6.458   0.492   6.867  0.3137 -0.1126 -1.3258
  143OSM    C7S15709   6.407   0.691   6.787  0.5013 -0.3927 -0.5937
  143OSM    H7S15710   6.358   0.783   6.825  0.1652 -0.0719 -1.7818
  143OSM    H7T15711   6.360   0.668   6.689 -2.5467 -0.2070  0.7197
  143OSM    C8S15712   6.555   0.716   6.759 -0.3228 -0.1269 -0.1918
  143OSM    H8S15713   6.592   0.617   6.724  0.0621  0.1424 -0.5587
  143OSM    H8T15714   6.619   0.740   6.846 -1.3190  0.3232  0.4267
  143OSM    C9S15715   6.573   0.824   6.658  0.1259  0.0096  0.3439
  143OSM    H9S15716   6.525   0.915   6.701 -1.3492 -1.6047  2.3162
  143OSM    H9T15717   6.514   0.799   6.567 -1.1973 -0.9551  1.4248
  143OSM   C10S15718   6.719   0.852   6.634 -0.7853  0.2413 -0.3797
  143OSM   H10S15719   6.772   0.758   6.610 -0.8692  0.3149 -0.8602
  143OSM   H10T15720   6.764   0.870   6.734 -1.3260 -0.5332  0.0119
  143OSM   C11S15721   6.762   0.958   6.533 -0.5281  0.2868  0.5147
  143OSM   H11S15722   6.867   0.991   6.550 -0.8853  2.6733 -1.3472
  143OSM   H11T15723   6.702   1.051   6.539 -3.4808 -1.4198 -0.5454
  143OSM   C12S15724   6.771   0.895   6.389  0.0477  0.4580  0.0109
  143OSM   H12S15725   6.665   0.901   6.355  0.1333  2.7210  0.0072
  143OSM   H12T15726   6.800   0.788   6.399 -1.3727 -0.0547 -0.9407
  143OSM   C13S15727   6.868   0.975   6.301 -0.5158 -0.1475 -0.0933
  143OSM   H13S15728   6.968   0.926   6.295 -0.1036  0.6447  0.1181
  143OSM   H13T15729   6.887   1.067   6.361  4.1696 -1.4044  0.7960
  143OSM   C14S15730   6.827   1.011   6.155 -0.3915 -0.1109  0.1812
  143OSM   H14S15731   6.752   1.093   6.162  0.5514  0.9682 -1.7182
  143OSM   H14T15732   6.784   0.924   6.101 -1.8540 -0.2514  1.4844
  143OSM   C15S15733   6.944   1.073   6.074  0.1032 -0.2824  0.2740
  143OSM   H15S15734   7.002   0.982   6.049 -0.8451 -0.6034 -0.8391
  143OSM   H15T15735   7.003   1.148   6.131  1.6702 -0.8184 -0.5798
  143OSM   C16S15736   6.894   1.144   5.941 -0.2088 -0.5123  0.1260
  143OSM   H16S15737   6.970   1.210   5.893 -1.2882 -0.2235 -1.2325
  143OSM   H16T15738   6.805   1.202   5.976 -0.2386  0.0571 -0.8669
  143OSM   C17S15739   6.877   1.049   5.823  0.0920  0.1011  0.4236
  143OSM   H17S15740   6.816   0.962   5.855 -0.7000  1.3692  2.5840
  143OSM   H17T15741   6.972   0.995   5.803 -0.3082 -0.6279  0.4573
  143OSM   C18S15742   6.829   1.125   5.700 -0.0300 -0.1809 -0.1474
  143OSM   H18S15743   6.844   1.065   5.608  0.3250 -0.3747  0.0347
  143OSM   H18T15744   6.896   1.212   5.687  1.2843 -0.9401  1.1772
  143OSM   H18U15745   6.723   1.156   5.712  0.0629 -0.3137  1.1899
  143OSM    C1F15746   6.836   0.842   7.137 -0.7837 -0.0524  0.3652
  143OSM     OF15747   6.935   0.766   7.140  0.7778 -0.2091  0.2175
  143OSM    C2F15748   6.844   0.977   7.091 -0.8549 -1.1082  0.3845
  143OSM    H2F15749   6.837   1.049   7.175 -0.7060 -1.6243  0.8412
  143OSM    H2G15750   6.753   1.001   7.032 -1.3986 -1.3932  1.0926
  143OSM    C3F15751   6.984   1.015   7.028 -0.2966  0.1295 -0.1715
  143OSM    H3F15752   7.066   0.982   7.097 -0.2276 -1.4884 -0.9918
  143OSM    H3G15753   6.990   1.126   7.029 -0.1398  0.1272 -0.6117
  143OSM    C4F15754   7.000   0.981   6.877 -0.1969 -0.5533 -0.2920
  143OSM    H4F15755   6.911   1.018   6.821  0.2003 -0.7278 -1.0513
  143OSM    H4G15756   6.999   0.870   6.868  0.0092 -0.4416 -2.1069
  143OSM    C5F15757   7.135   1.024   6.826 -0.4563 -0.3986 -1.1202
  143OSM    H5F15758   7.219   0.959   6.860  0.2424  0.7870 -0.5186
  143OSM    H5G15759   7.165   1.122   6.868 -1.3205  0.3222 -2.1496
  143OSM    C6F15760   7.137   1.038   6.677  0.3547 -0.3285  0.1007
  143OSM    H6F15761   7.051   1.096   6.638  1.1397  1.4079  0.8273
  143OSM    H6G15762   7.141   0.945   6.617  1.4172  0.4369 -1.0532
  143OSM    C7F15763   7.259   1.127   6.630 -0.0205  0.5245  0.2244
  143OSM    H7F15764   7.344   1.056   6.631 -0.2758  0.1890  1.9571
  143OSM    H7G15765   7.270   1.207   6.707 -0.0496  2.3170 -1.5465
  143OSM    C8F15766   7.249   1.185   6.487 -0.0257  0.0868 -0.2234
  143OSM    H8F15767   7.341   1.244   6.467 -0.8800  1.6151  0.1815
  143OSM    H8G15768   7.162   1.254   6.497 -1.1988 -1.5977  2.2268
  143OSM    C9F15769   7.209   1.084   6.384  0.0674 -0.5455 -0.5111
  143OSM    H9F15770   7.120   1.026   6.411 -1.6780  2.0930 -0.1811
  143OSM   C10F15771   7.256   1.076   6.263 -0.1037  0.6713 -0.0512
  143OSM   H10F15772   7.221   0.994   6.199  0.4338  1.1777 -1.0227
  143OSM   C11F15773   7.372   1.152   6.207  0.0515  0.1541  0.5489
  143OSM   H11F15774   7.464   1.090   6.201  1.0146  1.4552  1.4399
  143OSM   H11G15775   7.397   1.241   6.267  1.1732 -0.0565  0.4264
  143OSM   C12F15776   7.333   1.215   6.072 -0.2057  0.2104 -0.1375
  143OSM   H12F15777   7.413   1.281   6.032 -0.6966 -1.0324 -3.5670
  143OSM   H12G15778   7.247   1.286   6.069 -0.9594 -0.6594  0.5318
  143OSM   C13F15779   7.310   1.114   5.960 -0.4316  0.2464 -0.2168
  143OSM   H13F15780   7.228   1.043   5.981  0.1351  0.1998  2.0700
  143OSM   H13G15781   7.400   1.048   5.956 -0.7746 -0.1628 -1.9862
  143OSM   C14F15782   7.281   1.173   5.818  0.0209  0.5535  0.4647
  143OSM   H14F15783   7.368   1.239   5.796 -0.2494  0.4864 -0.8903
  143OSM   H14G15784   7.191   1.238   5.824  0.2336  0.9401 -0.3881
  143OSM   C15F15785   7.275   1.084   5.689 -0.3126 -0.7306 -0.4374
  143OSM   H15F15786   7.175   1.038   5.692  0.3483 -2.2451 -0.7100
  143OSM   H15G15787   7.354   1.006   5.700  0.2447 -0.1064  0.1471
  143OSM   C16F15788   7.285   1.159   5.556 -0.0153 -0.1560 -0.3586
  143OSM   H16F15789   7.375   1.224   5.549 -1.4023  1.6710 -3.6642
  143OSM   H16G15790   7.197   1.228   5.549 -2.4469 -3.1977 -2.8383
  143OSM   C17F15791   7.279   1.067   5.430 -0.0576 -0.6970 -0.7685
  143OSM   H17F15792   7.176   1.027   5.434 -2.2157  3.8740 -2.8774
  143OSM   H17G15793   7.359   0.992   5.450 -0.4474 -0.6108  1.3980
  143OSM   C18F15794   7.304   1.139   5.293  0.5145  0.6022 -0.5627
  143OSM   H18F15795   7.231   1.221   5.274  0.8252  0.9096 -0.4319
  143OSM   H18G15796   7.299   1.053   5.222  2.7873  0.5260 -0.6932
  143OSM   H18H15797   7.407   1.181   5.295  0.8172 -0.0520 -1.5265
  144OSM      N15798   0.108   0.211   7.562 -0.0148  0.4102  0.5498
  144OSM    C1515799   0.149   0.326   7.468 -0.3163 -0.2345  0.0004
  144OSM   H15A15800   0.106   0.298   7.373  0.8712 -1.5820 -0.1791
  144OSM   H15B15801   0.257   0.327   7.460 -0.3756 -0.5371 -1.0927
  144OSM   H15C15802   0.112   0.422   7.501  0.6558 -0.0786  0.6678
  144OSM    C1415803   0.186   0.232   7.684 -0.4871  0.1052 -0.2948
  144OSM   H14A15804   0.168   0.153   7.755  1.8263 -0.2530 -0.0258
  144OSM   H14B15805   0.171   0.330   7.727 -1.6072 -0.1720 -0.0085
  144OSM   H14C15806   0.291   0.224   7.664 -0.0004 -0.0613  1.9767
  144OSM    C1315807  -0.037   0.215   7.583  0.3252 -0.2368 -0.5743
  144OSM   H13A15808  -0.068   0.305   7.635  0.0410  0.0687 -1.2641
  144OSM   H13B15809  -0.067   0.129   7.641 -2.3182  0.4334 -0.8493
  144OSM   H13C15810  -0.080   0.220   7.484  1.3535 -1.9337 -1.1360
  144OSM    C1215811   0.143   0.079   7.492 -0.3744  0.0471  0.2374
  144OSM   H12A15812   0.129  -0.013   7.547  1.7145 -1.3421 -1.4186
  144OSM   H12B15813   0.248   0.069   7.471 -0.8087 -0.3296 -2.0784
  144OSM    C1115814   0.077   0.048   7.355 -0.8138 -0.2979 -0.3736
  144OSM   H11A15815   0.126   0.115   7.281 -0.4448 -0.5371 -0.3460
  144OSM   H11B15816  -0.033   0.065   7.365 -0.8007 -0.8663  0.8750
  144OSM      P15817  -0.009  -0.206   7.362 -0.2950  0.0470 -0.1373
  144OSM    O1315818   0.038  -0.338   7.306 -0.2210 -0.0034  0.5460
  144OSM    O1415819  -0.028  -0.198   7.506  0.5036 -0.0632  0.3984
  144OSM    O1115820  -0.145  -0.166   7.299 -0.1011 -0.4671  0.3793
  144OSM    O1215821   0.099  -0.092   7.324  0.1829 -0.1760  0.0732
  144OSM    C1S15822  -0.150  -0.102   7.168 -0.1644  0.9037 -0.8609
  144OSM    H1S15823  -0.048  -0.083   7.128  0.5209  1.4029  1.0387
  144OSM    H1T15824  -0.184   0.001   7.191 -1.2499  0.5240 -0.7368
  144OSM     NF15825  -0.230  -0.090   6.942 -0.0394  0.5858 -0.7189
  144OSM    HNF15826  -0.292  -0.012   6.947 -0.0708  0.4866  1.2185
  144OSM    C2S15827  -0.229  -0.176   7.057 -0.0986 -1.2401 -0.2127
  144OSM    H2S15828  -0.178  -0.273   7.041  1.7224 -0.6918  1.7499
  144OSM    C3S15829  -0.374  -0.211   7.106  0.2677 -0.0061  0.2089
  144OSM    H3S15830  -0.423  -0.112   7.122 -2.1091 -0.5723 -2.7111
  144OSM     O315831  -0.365  -0.279   7.232 -0.0558 -0.3430 -0.1556
  144OSM    HO315832  -0.276  -0.264   7.264  0.1936  0.0443 -1.0034
  144OSM    C4S15833  -0.440  -0.295   7.001 -0.1795  0.0252  0.4561
  144OSM    H4S15834  -0.444  -0.244   6.904 -2.8345 -1.2732 -0.2159
  144OSM    C5S15835  -0.469  -0.425   7.013  0.5019  1.0459  0.2078
  144OSM    H5S15836  -0.460  -0.481   7.107  0.0763  0.1182 -0.2870
  144OSM    C6S15837  -0.540  -0.502   6.901  0.3462 -0.0721  0.3028
  144OSM    H6S15838  -0.626  -0.552   6.951 -0.3425 -0.6900 -1.3926
  144OSM    H6T15839  -0.470  -0.576   6.857  0.1787  0.1063 -0.2813
  144OSM    C7S15840  -0.599  -0.421   6.785 -0.6682 -0.1584 -0.6251
  144OSM    H7S15841  -0.513  -0.358   6.753 -0.1853 -0.0795  0.7747
  144OSM    H7T15842  -0.682  -0.357   6.821 -2.7295 -3.4089  0.8251
  144OSM    C8S15843  -0.640  -0.497   6.662  0.0256  0.8337  0.9039
  144OSM    H8S15844  -0.704  -0.574   6.710  2.7611 -1.4433  1.1703
  144OSM    H8T15845  -0.549  -0.550   6.628 -0.6274 -0.4936  1.1543
  144OSM    C9S15846  -0.717  -0.432   6.544  0.6298  0.1223 -0.1809
  144OSM    H9S15847  -0.819  -0.397   6.568  0.8056 -0.3544  1.3351
  144OSM    H9T15848  -0.714  -0.516   6.471  1.2869  0.4825 -0.5886
  144OSM   C10S15849  -0.629  -0.313   6.493 -0.3918  0.8586  0.7789
  144OSM   H10S15850  -0.530  -0.348   6.457 -0.5105  0.3064  0.9836
  144OSM   H10T15851  -0.626  -0.251   6.586 -0.9270  0.9222  0.7610
  144OSM   C11S15852  -0.687  -0.227   6.380 -0.0811  0.7306 -0.0397
  144OSM   H11S15853  -0.618  -0.141   6.393  0.9267 -0.4451  3.4382
  144OSM   H11T15854  -0.793  -0.192   6.382  0.3324  2.1134 -0.9176
  144OSM   C12S15855  -0.674  -0.291   6.247 -0.4034  0.2734 -0.6680
  144OSM   H12S15856  -0.726  -0.389   6.241 -0.3073  0.1503  0.3753
  144OSM   H12T15857  -0.564  -0.306   6.235 -0.3663 -0.4089  0.3830
  144OSM   C13S15858  -0.714  -0.202   6.130 -0.1298 -0.0139 -0.2288
  144OSM   H13S15859  -0.662  -0.105   6.140 -2.2519  1.5399 -2.8974
  144OSM   H13T15860  -0.820  -0.170   6.139  0.4463  2.7654 -1.9236
  144OSM   C14S15861  -0.681  -0.254   5.985  0.4660 -0.7239  0.5038
  144OSM   H14S15862  -0.775  -0.291   5.938  1.0664  0.8021 -2.1163
  144OSM   H14T15863  -0.612  -0.341   5.979  0.9017 -0.3312 -0.3985
  144OSM   C15S15864  -0.631  -0.132   5.891 -0.1908  0.5630  0.0004
  144OSM   H15S15865  -0.555  -0.075   5.948  1.9378 -2.1908  0.1336
  144OSM   H15T15866  -0.716  -0.061   5.878 -0.2810  0.5448  0.4536
  144OSM   C16S15867  -0.575  -0.183   5.755 -0.0417  0.4998  0.2254
  144OSM   H16S15868  -0.518  -0.278   5.764 -1.5759 -0.6597 -1.4085
  144OSM   H16T15869  -0.500  -0.111   5.717 -2.4868  3.8783  1.3338
  144OSM   C17S15870  -0.679  -0.220   5.657 -0.0728  0.7731 -0.3266
  144OSM   H17S15871  -0.749  -0.292   5.704  3.4995 -1.1059  2.6028
  144OSM   H17T15872  -0.635  -0.282   5.576 -0.1028 -2.3649  1.8805
  144OSM   C18S15873  -0.757  -0.106   5.604  0.1505 -0.5180 -0.1494
  144OSM   H18S15874  -0.692  -0.023   5.570  1.1305 -1.8059 -1.5493
  144OSM   H18T15875  -0.826  -0.072   5.684 -0.3292 -1.1237 -0.3049
  144OSM   H18U15876  -0.816  -0.136   5.515 -1.5157 -0.9728  1.0555
  144OSM    C1F15877  -0.126  -0.080   6.854 -0.0025 -0.9325  0.0694
  144OSM     OF15878  -0.034  -0.163   6.865  0.0870 -0.9835  0.6191
  144OSM    C2F15879  -0.133   0.031   6.754  0.1873 -0.9113  0.0781
  144OSM    H2F15880  -0.070   0.112   6.795  2.9593 -2.1694 -1.3740
  144OSM    H2G15881  -0.238   0.061   6.735  0.9660  2.0852  0.0977
  144OSM    C3F15882  -0.089  -0.021   6.615  0.2870 -0.7602 -1.1355
  144OSM    H3F15883  -0.154  -0.104   6.579 -1.6822 -0.2373  0.9742
  144OSM    H3G15884   0.013  -0.061   6.632  0.3429  0.2028  1.2654
  144OSM    C4F15885  -0.080   0.085   6.507 -0.0211  0.2093  0.0556
  144OSM    H4F15886   0.011   0.147   6.520  2.0043 -2.9317  2.0497
  144OSM    H4G15887  -0.170   0.141   6.542  0.1441 -0.7057  2.0917
  144OSM    C5F15888  -0.092   0.017   6.370 -0.2653 -0.5383  0.4007
  144OSM    H5F15889  -0.166  -0.066   6.372 -0.2465 -0.5379  1.5686
  144OSM    H5G15890   0.005  -0.029   6.341  0.3765  1.9571 -1.7780
  144OSM    C6F15891  -0.111   0.123   6.259 -0.8200  0.0738  0.0925
  144OSM    H6F15892  -0.008   0.164   6.250 -0.5345 -0.7757 -0.7860
  144OSM    H6G15893  -0.177   0.201   6.301 -1.1216 -1.3570  2.4494
  144OSM    C7F15894  -0.151   0.065   6.121  0.0319 -0.2712 -0.0655
  144OSM    H7F15895  -0.069  -0.001   6.085  0.2790 -0.1141  0.2037
  144OSM    H7G15896  -0.159   0.151   6.052 -0.1572  2.5323  3.1749
  144OSM    C8F15897  -0.284  -0.016   6.125 -0.2093 -0.8167  0.6300
  144OSM    H8F15898  -0.269  -0.107   6.186 -0.2716  0.9360  3.4222
  144OSM    H8G15899  -0.309  -0.032   6.018  1.1351 -0.1178  0.1864
  144OSM    C9F15900  -0.392   0.063   6.188  0.2340  0.3596 -0.2034
  144OSM    H9F15901  -0.404   0.054   6.297 -2.2172  0.8732 -0.3581
  144OSM   C10F15902  -0.474   0.153   6.125  0.7317  0.1504 -0.5993
  144OSM   H10F15903  -0.555   0.204   6.180 -0.0183 -0.1787 -1.3710
  144OSM   C11F15904  -0.485   0.191   5.978 -0.2714  0.2491  0.6108
  144OSM   H11F15905  -0.589   0.206   5.943 -0.8013  1.0948  2.4299
  144OSM   H11G15906  -0.439   0.113   5.913 -0.8320 -0.0721  0.5988
  144OSM   C12F15907  -0.430   0.332   5.949  1.0921 -0.3533  0.4651
  144OSM   H12F15908  -0.327   0.338   5.990  1.1425  0.2362  0.2579
  144OSM   H12G15909  -0.489   0.405   6.009  0.2549 -0.7279  0.1220
  144OSM   C13F15910  -0.430   0.361   5.795  0.1250  0.2442 -0.9744
  144OSM   H13F15911  -0.382   0.460   5.780 -2.0444  1.8404  1.5961
  144OSM   H13G15912  -0.530   0.384   5.753 -0.8382 -0.5398  0.7517
  144OSM   C14F15913  -0.371   0.263   5.696  0.7346  0.7240 -0.6466
  144OSM   H14F15914  -0.367   0.309   5.595 -1.6745 -0.4262 -1.3427
  144OSM   H14G15915  -0.441   0.176   5.688  2.1636 -0.5995  0.5838
  144OSM   C15F15916  -0.231   0.212   5.729  0.2626 -0.0643 -0.3665
  144OSM   H15F15917  -0.230   0.142   5.816 -2.2555 -0.9242 -0.9379
  144OSM   H15G15918  -0.170   0.302   5.749  2.3176 -1.1884 -1.1966
  144OSM   C16F15919  -0.152   0.145   5.606  0.3902 -0.0937  0.3290
  144OSM   H16F15920  -0.174   0.204   5.514  2.9431  1.3141  0.5229
  144OSM   H16G15921  -0.195   0.043   5.600  0.4421 -0.0791 -0.2897
  144OSM   C17F15922  -0.007   0.123   5.643  0.3874 -0.4407  0.4061
  144OSM   H17F15923   0.028   0.227   5.630 -1.5582  0.3167  0.9400
  144OSM   H17G15924   0.043   0.062   5.564  0.6679 -0.3143  0.4850
  144OSM   C18F15925   0.022   0.054   5.783  0.7339 -0.1978 -0.0817
  144OSM   H18F15926   0.005   0.121   5.870  0.1753 -1.6975  1.0035
  144OSM   H18G15927   0.130   0.030   5.796  0.3742 -2.5338 -0.8114
  144OSM   H18H15928  -0.038  -0.038   5.800  0.9530 -0.4764 -0.7504
  145OSM      N15929   1.098   3.803   7.186 -0.3287 -0.0828 -0.3444
  145OSM    C1515930   1.181   3.927   7.206 -0.6978  0.4050  0.0466
  145OSM   H15A15931   1.148   3.988   7.289 -1.5395 -0.0495  0.0583
  145OSM   H15B15932   1.167   3.990   7.119  0.6321 -0.2627 -0.6848
  145OSM   H15C15933   1.285   3.897   7.213 -0.7485  0.0258 -0.7038
  145OSM    C1415934   1.148   3.724   7.069 -0.3825 -0.5514  0.3455
  145OSM   H14A15935   1.103   3.626   7.058  2.0951 -1.5662 -1.7689
  145OSM   H14B15936   1.255   3.715   7.066 -0.4993 -2.4774 -3.3013
  145OSM   H14C15937   1.139   3.784   6.980  0.4898 -2.2458 -0.9295
  145OSM    C1315938   1.108   3.720   7.309  0.4618  0.0302 -0.4822
  145OSM   H13A15939   1.213   3.702   7.327  0.1568 -0.7610  0.6468
  145OSM   H13B15940   1.057   3.628   7.286 -0.9276  0.9745 -1.2505
  145OSM   H13C15941   1.054   3.757   7.395 -0.0814 -2.7063  0.4791
  145OSM    C1215942   0.954   3.840   7.162  0.0515 -0.3255 -0.5086
  145OSM   H12A15943   0.912   3.893   7.246 -0.1781 -0.1669 -0.7220
  145OSM   H12B15944   0.893   3.751   7.152  0.0635 -0.7570  2.4192
  145OSM    C1115945   0.905   3.928   7.045 -0.5426 -0.5937 -0.2304
  145OSM   H11A15946   0.794   3.933   7.050 -0.6134 -0.6782 -1.3686
  145OSM   H11B15947   0.927   3.875   6.949 -0.4426 -0.2492 -0.3988
  145OSM      P15948   0.904   4.172   7.110 -0.3312  0.5001  0.6369
  145OSM    O1315949   0.887   4.137   7.253  0.1828 -0.9174  0.2439
  145OSM    O1415950   0.970   4.300   7.080 -1.0429 -0.4333 -0.4405
  145OSM    O1115951   0.770   4.179   7.020  0.7785 -0.0725 -0.3709
  145OSM    O1215952   0.972   4.054   7.033  0.0585  0.6393  0.5186
  145OSM    C1S15953   0.777   4.204   6.882  0.4228 -0.1996  0.8867
  145OSM    H1S15954   0.879   4.183   6.844  0.4054 -0.1472  0.8100
  145OSM    H1T15955   0.761   4.310   6.852  0.3141 -1.0414 -2.3678
  145OSM     NF15956   0.693   4.135   6.662 -0.1403 -0.1599 -0.3622
  145OSM    HNF15957   0.654   4.220   6.629 -1.0809  0.3557  1.9444
  145OSM    C2S15958   0.665   4.125   6.803 -0.4813  0.1225 -0.6363
  145OSM    H2S15959   0.670   4.016   6.821  0.8513 -0.1593 -2.4165
  145OSM    C3S15960   0.525   4.178   6.842 -0.1644 -0.5457  0.8573
  145OSM    H3S15961   0.509   4.276   6.792  1.0276 -1.7590 -2.1214
  145OSM     O315962   0.506   4.190   6.983  0.1839 -0.0351 -0.0797
  145OSM    HO315963   0.595   4.171   7.014  0.2542 -0.0643 -0.2946
  145OSM    C4S15964   0.416   4.082   6.801 -0.5231  0.4335  0.1685
  145OSM    H4S15965   0.410   3.997   6.871 -2.5189  0.7756  0.4882
  145OSM    C5S15966   0.337   4.092   6.701  0.4018  1.2451  0.1768
  145OSM    H5S15967   0.341   4.190   6.651 -1.1848  0.2798 -2.0742
  145OSM    C6S15968   0.230   3.998   6.653 -0.2572 -0.6842  0.0893
  145OSM    H6S15969   0.134   4.053   6.636 -1.2829 -1.4835  2.7590
  145OSM    H6T15970   0.204   3.937   6.742 -2.4073 -1.0271 -0.6927
  145OSM    C7S15971   0.287   3.921   6.533 -0.2272  0.3999  0.0641
  145OSM    H7S15972   0.208   3.846   6.510 -1.0678  0.5822  2.1764
  145OSM    H7T15973   0.379   3.868   6.564  1.0921  1.3150 -2.0416
  145OSM    C8S15974   0.339   4.004   6.408 -0.0255 -0.1548 -0.0707
  145OSM    H8S15975   0.420   4.074   6.438  1.5105 -1.2018 -1.6503
  145OSM    H8T15976   0.252   4.062   6.369  1.4576  1.4625 -1.1253
  145OSM    C9S15977   0.394   3.919   6.295 -0.3467  0.4019  0.1669
  145OSM    H9S15978   0.332   3.829   6.272  1.7435 -0.9489 -0.4445
  145OSM    H9T15979   0.495   3.882   6.321  0.2099  1.8363  0.1309
  145OSM   C10S15980   0.405   3.995   6.162 -1.0120  0.1586 -0.1996
  145OSM   H10S15981   0.475   4.081   6.163 -2.1554  1.2901 -3.4662
  145OSM   H10T15982   0.306   4.033   6.127 -0.6384  0.5094 -0.9119
  145OSM   C11S15983   0.441   3.900   6.054 -0.4572 -0.2315 -0.1015
  145OSM   H11S15984   0.364   3.820   6.050  1.0153 -1.6811 -0.9198
  145OSM   H11T15985   0.536   3.845   6.073  1.8006  3.5717  0.8453
  145OSM   C12S15986   0.451   3.969   5.911 -0.2526  0.2262 -1.1061
  145OSM   H12S15987   0.551   4.016   5.916 -0.9436  1.8666  4.5966
  145OSM   H12T15988   0.372   4.047   5.911 -1.0433 -0.4335  1.8384
  145OSM   C13S15989   0.427   3.860   5.806 -0.7438  0.1056  0.2777
  145OSM   H13S15990   0.332   3.810   5.834 -0.8388 -0.9014 -1.6642
  145OSM   H13T15991   0.504   3.781   5.808 -1.1351 -0.4099 -2.0412
  145OSM   C14S15992   0.415   3.909   5.662  0.4156 -0.3132 -0.7630
  145OSM   H14S15993   0.482   3.996   5.646  1.5531 -0.7208  1.3654
  145OSM   H14T15994   0.318   3.958   5.642 -1.0548 -2.1387  1.3453
  145OSM   C15S15995   0.433   3.807   5.548 -0.0721 -0.0276  0.0248
  145OSM   H15S15996   0.350   3.734   5.542  0.6015 -0.8601  0.6992
  145OSM   H15T15997   0.536   3.769   5.563 -0.3057 -0.1905  1.3524
  145OSM   C16S15998   0.426   3.874   5.416 -0.2958 -0.6496 -0.4167
  145OSM   H16S15999   0.488   3.967   5.415 -0.6155 -0.4196  0.4374
  145OSM   H16T16000   0.318   3.887   5.391  0.2947 -0.9056 -3.4593
  145OSM   C17S16001   0.470   3.774   5.309 -0.7538 -0.4708 -0.7859
  145OSM   H17S16002   0.405   3.685   5.319  0.0620 -1.0061 -0.1972
  145OSM   H17T16003   0.575   3.747   5.332 -0.7943  1.5321  2.2762
  145OSM   C18S16004   0.474   3.837   5.172 -0.3881 -0.3168 -0.3030
  145OSM   H18S16005   0.547   3.920   5.181 -0.8267  0.1771 -1.1534
  145OSM   H18T16006   0.380   3.890   5.145  0.2205  0.7260 -0.4270
  145OSM   H18U16007   0.497   3.775   5.083 -1.9742 -0.5351 -0.5958
  145OSM    C1F16008   0.785   4.066   6.600  0.7830  0.5747  0.1200
  145OSM     OF16009   0.874   4.003   6.658 -0.0645 -0.1062 -0.3068
  145OSM    C2F16010   0.756   4.048   6.446 -0.0534 -0.5114  0.3101
  145OSM    H2F16011   0.671   4.109   6.409 -0.1567 -0.7700  0.1144
  145OSM    H2G16012   0.733   3.939   6.439  5.4294 -1.9505 -0.6969
  145OSM    C3F16013   0.877   4.067   6.346 -0.0816 -0.2061  0.2847
  145OSM    H3F16014   0.946   3.986   6.377  2.3274  1.9344  0.9024
  145OSM    H3G16015   0.919   4.169   6.360 -1.4273  0.2128  1.4824
  145OSM    C4F16016   0.857   4.042   6.199 -0.1622 -0.5706 -0.7849
  145OSM    H4F16017   0.946   4.093   6.156  0.1772 -0.2581  0.2502
  145OSM    H4G16018   0.768   4.105   6.177  0.4693  1.9597  2.9947
  145OSM    C5F16019   0.824   3.897   6.157 -0.2125  0.6223  0.0256
  145OSM    H5F16020   0.725   3.871   6.200 -0.4395  0.7549 -0.4095
  145OSM    H5G16021   0.902   3.830   6.199  0.8687  2.2635  0.7589
  145OSM    C6F16022   0.818   3.896   6.001 -0.3755 -0.1331  0.3801
  145OSM    H6F16023   0.748   3.973   5.962 -3.2496 -2.5283  0.4305
  145OSM    H6G16024   0.780   3.797   5.968  2.2993 -0.7785 -1.0686
  145OSM    C7F16025   0.964   3.899   5.941  0.3497  0.4051  0.0223
  145OSM    H7F16026   1.027   3.813   5.973 -0.2421 -0.3952 -0.9219
  145OSM    H7G16027   1.006   3.996   5.974 -0.9296  1.1475 -0.4464
  145OSM    C8F16028   0.961   3.910   5.789  0.0343 -0.2607  0.0661
  145OSM    H8F16029   1.067   3.907   5.756 -0.5419  1.5595 -2.2236
  145OSM    H8G16030   0.913   4.005   5.757 -0.0084 -0.4068 -0.3089
  145OSM    C9F16031   0.892   3.795   5.715  0.2820 -0.0263  0.0595
  145OSM    H9F16032   0.854   3.718   5.783  0.1770 -0.4272 -0.4450
  145OSM   C10F16033   0.889   3.784   5.581 -0.4058  0.4839 -0.0265
  145OSM   H10F16034   0.830   3.702   5.538  0.5603  0.6769 -1.7923
  145OSM   C11F16035   0.941   3.884   5.483  0.0176  0.4440  0.5866
  145OSM   H11F16036   0.997   3.830   5.404 -0.0278  2.9464 -1.2904
  145OSM   H11G16037   1.010   3.959   5.528  1.3800 -0.5409  0.1957
  145OSM   C12F16038   0.834   3.972   5.413  0.8477 -0.1017  0.0560
  145OSM   H12F16039   0.754   4.008   5.481 -0.1635 -2.1737  0.0553
  145OSM   H12G16040   0.775   3.911   5.341 -1.0013  2.1899 -0.4832
  145OSM   C13F16041   0.880   4.092   5.326  0.1398  0.0416  0.0798
  145OSM   H13F16042   0.985   4.071   5.296 -0.3435 -0.0221 -1.6576
  145OSM   H13G16043   0.892   4.174   5.400 -1.2244 -1.5187  2.1653
  145OSM   C14F16044   0.785   4.135   5.216  0.5028  0.3887  0.5779
  145OSM   H14F16045   0.686   4.151   5.264 -0.1163 -1.0032 -0.1737
  145OSM   H14G16046   0.777   4.058   5.136 -1.4442  2.3727 -1.2693
  145OSM   C15F16047   0.819   4.274   5.165  0.4272  0.4104  0.2749
  145OSM   H15F16048   0.815   4.349   5.247  0.1892  1.4077 -0.6216
  145OSM   H15G16049   0.737   4.287   5.090  0.9329 -1.5956 -0.6974
  145OSM   C16F16050   0.943   4.283   5.086 -0.9880  0.7599 -0.0505
  145OSM   H16F16051   1.032   4.272   5.151 -0.9340 -1.5800 -0.4457
  145OSM   H16G16052   0.954   4.387   5.047 -0.8167  0.5052 -0.7019
  145OSM   C17F16053   0.975   4.192   4.968  0.5219 -0.2554  0.3067
  145OSM   H17F16054   0.956   4.088   5.002 -1.5525 -0.0908 -0.1829
  145OSM   H17G16055   1.079   4.213   4.934 -0.0496  1.3588 -0.5427
  145OSM   C18F16056   0.884   4.222   4.846 -0.1319  0.2993  0.1295
  145OSM   H18F16057   0.890   4.329   4.819  3.0504  0.4642  1.0254
  145OSM   H18G16058   0.782   4.193   4.877 -0.9810  0.3837 -2.4108
  145OSM   H18H16059   0.910   4.149   4.766 -1.7580  0.3014 -0.4274
  146OSM      N16060   5.797   3.284   6.848 -0.4604 -0.5991 -0.1303
  146OSM    C1516061   5.777   3.195   6.964  0.6205 -0.5361 -0.0231
  146OSM   H15A16062   5.848   3.116   6.983 -0.7458 -1.3130  2.3108
  146OSM   H15B16063   5.677   3.155   6.956  0.5080 -0.3455  0.4243
  146OSM   H15C16064   5.778   3.251   7.056 -1.0391 -0.8271  0.2071
  146OSM    C1416065   5.800   3.199   6.724  0.1108  0.3305 -0.1902
  146OSM   H14A16066   5.714   3.135   6.714  0.2245  0.3049 -1.0032
  146OSM   H14B16067   5.885   3.133   6.727  0.4252  0.7598  0.9776
  146OSM   H14C16068   5.798   3.263   6.637 -1.6347 -2.0033 -1.9974
  146OSM    C1316069   5.693   3.392   6.839  0.1015 -0.1660  0.6629
  146OSM   H13A16070   5.608   3.341   6.796  0.1148  0.5829 -0.2923
  146OSM   H13B16071   5.720   3.475   6.775 -0.0525  0.3693  1.2750
  146OSM   H13C16072   5.677   3.433   6.938 -1.2331 -2.7038  1.5927
  146OSM    C1216073   5.939   3.345   6.860 -0.5891 -0.4840  0.3935
  146OSM   H12A16074   5.959   3.392   6.766  2.3013 -0.6502  0.8314
  146OSM   H12B16075   6.015   3.268   6.867  0.2034  0.4093  2.8675
  146OSM    C1116076   5.964   3.433   6.986 -0.4513  0.6726 -1.0393
  146OSM   H11A16077   5.967   3.367   7.076  0.2874  1.7542 -0.2443
  146OSM   H11B16078   5.880   3.501   7.013  0.8590  1.3016  1.7628
  146OSM      P16079   6.116   3.645   7.006  0.0416 -0.3281  0.1168
  146OSM    O1316080   6.074   3.666   7.144  0.5845  0.0038 -0.3253
  146OSM    O1416081   6.260   3.673   6.988 -0.3714  0.6157 -0.0228
  146OSM    O1116082   6.025   3.727   6.913 -0.5383 -0.1878 -0.3767
  146OSM    O1216083   6.090   3.493   6.961 -0.0668 -0.2475 -0.2409
  146OSM    C1S16084   6.038   3.735   6.773  0.8785  0.3115 -0.6132
  146OSM    H1S16085   6.080   3.638   6.738 -0.5397 -1.1389  1.5086
  146OSM    H1T16086   6.124   3.805   6.763  2.5546 -0.9568  3.1253
  146OSM     NF16087   5.943   3.828   6.571  0.2667  0.9656 -0.2855
  146OSM    HNF16088   5.928   3.926   6.561 -1.9739  0.8857  1.5112
  146OSM    C2S16089   5.909   3.777   6.703  0.2832  0.6635  0.8205
  146OSM    H2S16090   5.845   3.688   6.684  1.4016 -0.1362  0.6385
  146OSM    C3S16091   5.822   3.864   6.801 -0.8226 -0.3262  0.1559
  146OSM    H3S16092   5.884   3.938   6.856 -0.6477  0.4936 -1.0964
  146OSM     O316093   5.759   3.792   6.910 -0.1611  0.5897  0.2453
  146OSM    HO316094   5.842   3.747   6.931  0.6617  1.0334 -1.8294
  146OSM    C4S16095   5.716   3.940   6.726  0.1349 -0.0562 -0.1944
  146OSM    H4S16096   5.682   3.872   6.646  1.9688 -0.3951 -0.7496
  146OSM    C5S16097   5.661   4.066   6.739  0.2530  0.2211 -0.1914
  146OSM    H5S16098   5.704   4.124   6.822 -1.1150 -2.4942  2.6200
  146OSM    C6S16099   5.561   4.135   6.660  0.3812 -0.6371  0.4834
  146OSM    H6S16100   5.569   4.245   6.672  0.4356 -0.2811 -2.3389
  146OSM    H6T16101   5.461   4.114   6.703 -0.8237  2.9659 -0.2024
  146OSM    C7S16102   5.569   4.088   6.515 -0.5701 -0.0058  0.3036
  146OSM    H7S16103   5.472   4.103   6.463  0.1947  0.7069 -0.9519
  146OSM    H7T16104   5.607   3.984   6.507  2.1398  1.0640 -1.9575
  146OSM    C8S16105   5.657   4.179   6.428 -0.0279  0.2177  0.1049
  146OSM    H8S16106   5.759   4.175   6.473 -0.7244 -2.4401  1.7059
  146OSM    H8T16107   5.617   4.281   6.444 -1.1225  0.5656 -3.7483
  146OSM    C9S16108   5.661   4.143   6.276  1.0840 -0.0070 -0.4170
  146OSM    H9S16109   5.555   4.148   6.242  0.5368 -2.4532  0.6585
  146OSM    H9T16110   5.694   4.038   6.259  3.0282  1.0647 -4.4163
  146OSM   C10S16111   5.748   4.230   6.188 -0.6833  0.5316  0.3308
  146OSM   H10S16112   5.854   4.219   6.219  0.2684 -0.0170 -2.7259
  146OSM   H10T16113   5.726   4.336   6.211 -1.3056  0.7041 -0.9367
  146OSM   C11S16114   5.735   4.200   6.037 -0.2404 -0.0388  0.5999
  146OSM   H11S16115   5.628   4.191   6.010  0.4043 -2.0487 -1.7316
  146OSM   H11T16116   5.783   4.101   6.016  1.7674  0.8023  0.9725
  146OSM   C12S16117   5.803   4.309   5.951 -0.1373 -0.4676  0.7474
  146OSM   H12S16118   5.898   4.339   5.999  1.8906 -0.8024 -2.7510
  146OSM   H12T16119   5.744   4.403   5.954 -1.2279 -1.1494  2.0584
  146OSM   C13S16120   5.844   4.269   5.806  0.0112 -0.5416 -0.1517
  146OSM   H13S16121   5.769   4.202   5.759 -0.8604 -1.9650  2.9669
  146OSM   H13T16122   5.934   4.206   5.815 -0.2719 -0.7446  1.6238
  146OSM   C14S16123   5.861   4.387   5.712  0.3846 -0.4216  0.0147
  146OSM   H14S16124   5.939   4.455   5.750  0.8376  0.3574 -2.1682
  146OSM   H14T16125   5.778   4.460   5.723 -0.8007 -2.0311  2.9549
  146OSM   C15S16126   5.888   4.358   5.562  0.0777 -0.0420  0.5443
  146OSM   H15S16127   5.808   4.295   5.515  2.1018 -1.7333 -0.8295
  146OSM   H15T16128   5.984   4.304   5.572  0.7083  1.2194  1.5180
  146OSM   C16S16129   5.889   4.490   5.485 -0.0352  0.2194  0.5339
  146OSM   H16S16130   5.955   4.564   5.535  1.0770  0.3226 -1.0343
  146OSM   H16T16131   5.788   4.536   5.490 -0.4438 -0.7639  2.2862
  146OSM   C17S16132   5.947   4.465   5.340  1.2566 -0.2219  0.5299
  146OSM   H17S16133   5.910   4.366   5.306  1.4415 -0.5320  1.2120
  146OSM   H17T16134   6.058   4.472   5.344  1.2718  1.2818 -1.2025
  146OSM   C18S16135   5.906   4.573   5.235 -0.6559  0.2358  0.4698
  146OSM   H18S16136   5.799   4.577   5.207 -0.5258  1.5246  0.0643
  146OSM   H18T16137   5.967   4.570   5.142 -0.2134  3.1488  0.5536
  146OSM   H18U16138   5.920   4.669   5.290  1.9674 -0.2189  0.7660
  146OSM    C1F16139   5.983   3.758   6.465  0.7052 -0.4993 -0.0568
  146OSM     OF16140   5.994   3.638   6.482  0.4190  0.1490  0.1889
  146OSM    C2F16141   6.013   3.825   6.337  0.0870 -0.7330 -0.0816
  146OSM    H2F16142   6.097   3.894   6.358  0.5920 -1.9441  2.2370
  146OSM    H2G16143   5.936   3.900   6.309 -0.1692 -1.3674 -1.1182
  146OSM    C3F16144   6.045   3.739   6.220  0.2276 -0.0420 -0.2672
  146OSM    H3F16145   5.973   3.655   6.210  1.7900 -1.3306 -0.9992
  146OSM    H3G16146   6.143   3.688   6.224 -1.3565 -3.4358 -1.1286
  146OSM    C4F16147   6.029   3.822   6.088 -0.0847  0.1506 -0.0491
  146OSM    H4F16148   6.073   3.921   6.110  1.0457 -0.2620 -0.3799
  146OSM    H4G16149   5.921   3.844   6.075  0.0569  1.0314  0.2393
  146OSM    C5F16150   6.105   3.774   5.964  0.3189  0.1483  0.3007
  146OSM    H5F16151   6.104   3.663   5.970 -0.0163  0.1959  1.4081
  146OSM    H5G16152   6.206   3.819   5.969 -0.0656  0.9311  1.8783
  146OSM    C6F16153   6.031   3.813   5.835  0.1683 -0.3950 -0.8119
  146OSM    H6F16154   6.104   3.807   5.751  1.1460 -1.7067  0.0968
  146OSM    H6G16155   6.007   3.922   5.841 -5.5458 -1.3845 -0.4058
  146OSM    C7F16156   5.908   3.727   5.814  0.3999 -0.2345 -0.6232
  146OSM    H7F16157   5.838   3.744   5.899  3.2605 -0.3589  1.9105
  146OSM    H7G16158   5.931   3.618   5.816  2.2500  0.0920  3.0352
  146OSM    C8F16159   5.836   3.759   5.681  0.2477  0.0449 -0.5104
  146OSM    H8F16160   5.742   3.699   5.685  0.9642 -1.1104 -0.4340
  146OSM    H8G16161   5.904   3.739   5.595 -0.5643  2.2417 -1.7293
  146OSM    C9F16162   5.788   3.904   5.677  0.0037  0.5293  0.3776
  146OSM    H9F16163   5.717   3.941   5.753 -2.3007  0.0780 -1.4286
  146OSM   C10F16164   5.817   3.983   5.576 -0.6749  0.4651  0.6295
  146OSM   H10F16165   5.772   4.084   5.577 -0.5694  0.6586 -2.4090
  146OSM   C11F16166   5.916   3.951   5.461  0.1943 -0.3812 -0.1630
  146OSM   H11F16167   5.863   3.876   5.400 -0.2750 -0.0957 -0.1179
  146OSM   H11G16168   6.014   3.903   5.484 -0.0876 -1.3897 -0.9965
  146OSM   C12F16169   5.932   4.070   5.368 -1.1179 -0.0743  1.1647
  146OSM   H12F16170   5.993   4.134   5.436 -1.3396 -0.2500  1.5343
  146OSM   H12G16171   5.834   4.120   5.352 -1.8799 -1.7481  0.3362
  146OSM   C13F16172   6.012   4.040   5.243  0.0614 -0.7262  0.5504
  146OSM   H13F16173   5.949   3.981   5.173  0.2456 -1.7274  1.1995
  146OSM   H13G16174   6.104   3.979   5.255  0.2734 -1.0066 -2.0096
  146OSM   C14F16175   6.051   4.168   5.170  0.2674 -0.5293 -0.4775
  146OSM   H14F16176   5.959   4.229   5.162  1.0623  1.0877  1.6530
  146OSM   H14G16177   6.113   4.226   5.242 -1.6239  0.1114  0.7008
  146OSM   C15F16178   6.134   4.153   5.051 -0.0210  0.7223  0.4363
  146OSM   H15F16179   6.080   4.152   4.954  0.1986 -2.6577  0.2543
  146OSM   H15G16180   6.175   4.050   5.043  0.8939  1.0768  0.3980
  146OSM   C16F16181   6.257   4.256   5.029 -0.6007  0.6202 -0.2582
  146OSM   H16F16182   6.350   4.217   5.076 -1.8054 -1.3675  0.6192
  146OSM   H16G16183   6.226   4.348   5.083  0.3425  1.9062 -1.8209
  146OSM   C17F16184   6.276   4.295   4.883  0.5723 -0.1352  0.1761
  146OSM   H17F16185   6.351   4.377   4.891 -0.7647  1.1692 -0.3778
  146OSM   H17G16186   6.177   4.340   4.863  0.4257 -1.3814 -2.3378
  146OSM   C18F16187   6.299   4.185   4.768  0.4455 -0.1271 -0.8513
  146OSM   H18F16188   6.299   4.233   4.667  0.1915  0.6950 -0.4687
  146OSM   H18G16189   6.215   4.112   4.771 -1.0922  1.6008 -0.4494
  146OSM   H18H16190   6.388   4.119   4.782 -0.4116 -0.8997  1.3882
  147OSM      N16191   6.600   5.204   2.294  0.0529 -0.2845 -0.0896
  147OSM    C1516192   6.480   5.273   2.357 -0.0509  0.7354  0.2397
  147OSM   H15A16193   6.416   5.326   2.287 -3.3987 -1.3122  1.4956
  147OSM   H15B16194   6.498   5.349   2.431 -1.4746  1.0175  0.3359
  147OSM   H15C16195   6.421   5.199   2.409  1.5753 -1.2576 -0.6461
  147OSM    C1416196   6.540   5.102   2.216 -0.1969  0.3557 -0.3943
  147OSM   H14A16197   6.604   5.036   2.161 -1.8965 -1.6519 -0.0740
  147OSM   H14B16198   6.479   5.148   2.140 -2.3929 -1.1884  0.3240
  147OSM   H14C16199   6.474   5.045   2.281  0.7822  1.4941  1.6957
  147OSM    C1316200   6.666   5.312   2.206 -0.2057 -0.2899  0.8106
  147OSM   H13A16201   6.745   5.269   2.146 -1.6050  0.2929 -1.5358
  147OSM   H13B16202   6.722   5.384   2.265  1.7490  0.2140 -1.4793
  147OSM   H13C16203   6.595   5.363   2.144  0.1313  0.2730  0.8759
  147OSM    C1216204   6.697   5.153   2.396 -0.3396  0.2421 -0.1394
  147OSM   H12A16205   6.785   5.112   2.348  0.7671 -0.1573  2.1051
  147OSM   H12B16206   6.642   5.070   2.436 -1.9112  1.2668 -0.0821
  147OSM    C1116207   6.747   5.263   2.493 -0.2291  0.3112 -0.6807
  147OSM   H11A16208   6.772   5.359   2.442 -2.4544  0.9784 -0.6438
  147OSM   H11B16209   6.847   5.236   2.534 -0.6817 -0.1763  0.1467
  147OSM      P16210   6.707   5.401   2.714 -0.2724  0.4642 -0.4250
  147OSM    O1316211   6.809   5.488   2.656  0.1145  0.1959  0.1301
  147OSM    O1416212   6.597   5.469   2.776 -0.0813  0.3110 -0.1058
  147OSM    O1116213   6.770   5.305   2.821 -0.5447  0.0132  0.0321
  147OSM    O1216214   6.654   5.302   2.597  0.1177  0.5357 -0.4990
  147OSM    C1S16215   6.703   5.198   2.890  0.4789 -0.2872 -0.2854
  147OSM    H1S16216   6.702   5.109   2.824  2.7140 -0.6002  0.0444
  147OSM    H1T16217   6.595   5.219   2.908  0.8833  1.1178  0.6479
  147OSM     NF16218   6.708   5.035   3.057  0.5586 -0.6625 -0.2615
  147OSM    HNF16219   6.648   5.049   3.135  0.2121  1.5649 -0.8695
  147OSM    C2S16220   6.769   5.160   3.018  0.2493 -0.3819  1.1526
  147OSM    H2S16221   6.874   5.138   2.991  0.6326 -2.0719  3.6446
  147OSM    C3S16222   6.759   5.277   3.125 -0.2284 -0.2368 -0.0810
  147OSM    H3S16223   6.654   5.290   3.159  0.2482 -0.1348  1.4399
  147OSM     O316224   6.796   5.407   3.082 -0.1900  0.2879  0.4082
  147OSM    HO316225   6.814   5.403   2.987 -0.4023  0.1889  0.3709
  147OSM    C4S16226   6.836   5.235   3.258 -0.4443  0.3395  1.1953
  147OSM    H4S16227   6.754   5.213   3.329 -1.3304  2.4104  0.8805
  147OSM    C5S16228   6.967   5.239   3.290  0.0344 -1.3493  0.1113
  147OSM    H5S16229   7.038   5.292   3.225 -0.1674 -1.9756 -0.6389
  147OSM    C6S16230   7.007   5.194   3.424 -0.7580 -0.3046 -0.1627
  147OSM    H6S16231   7.075   5.107   3.418 -0.3521  0.0411 -0.7471
  147OSM    H6T16232   6.920   5.164   3.485 -0.2841 -0.4875  0.4312
  147OSM    C7S16233   7.084   5.305   3.496 -0.6236  0.7008 -0.6967
  147OSM    H7S16234   7.021   5.393   3.519  0.4891  0.8557  2.2002
  147OSM    H7T16235   7.176   5.323   3.438  0.7564  0.2035  1.2368
  147OSM    C8S16236   7.142   5.263   3.634  0.0043 -0.2469  0.0817
  147OSM    H8S16237   7.233   5.325   3.649  0.2198 -0.2362 -1.1636
  147OSM    H8T16238   7.177   5.157   3.626 -1.2046 -0.6638  0.1020
  147OSM    C9S16239   7.048   5.264   3.748  0.0657 -0.3624  0.5240
  147OSM    H9S16240   6.949   5.226   3.715  1.0479 -2.4197 -0.2036
  147OSM    H9T16241   7.024   5.366   3.784  0.7839  0.3445 -0.8899
  147OSM   C10S16242   7.105   5.193   3.874 -0.5633  0.0722 -0.1763
  147OSM   H10S16243   7.130   5.089   3.843 -0.6944 -0.0241  0.0417
  147OSM   H10T16244   7.028   5.200   3.954  0.7407 -0.2234  1.1597
  147OSM   C11S16245   7.236   5.258   3.906  0.0299 -0.6375  0.1801
  147OSM   H11S16246   7.210   5.363   3.928 -2.1645 -0.5682 -2.2537
  147OSM   H11T16247   7.306   5.243   3.821  0.3540 -1.5471  0.5829
  147OSM   C12S16248   7.292   5.195   4.036  0.1568 -0.2581 -1.2729
  147OSM   H12S16249   7.297   5.089   4.004 -0.0987 -0.7079  0.1312
  147OSM   H12T16250   7.211   5.204   4.111 -0.0173 -1.9617 -1.2225
  147OSM   C13S16251   7.426   5.259   4.081  0.0818 -0.3229 -0.2135
  147OSM   H13S16252   7.420   5.370   4.080 -0.2527 -0.2984  1.6871
  147OSM   H13T16253   7.508   5.235   4.010 -0.9250 -1.3513 -1.0695
  147OSM   C14S16254   7.475   5.216   4.224  0.7273 -0.4593 -0.3248
  147OSM   H14S16255   7.572   5.267   4.241  1.0965 -1.7497  1.8141
  147OSM   H14T16256   7.487   5.106   4.229  0.9242 -0.4124  0.4278
  147OSM   C15S16257   7.381   5.253   4.339 -0.1471 -0.5602 -0.5241
  147OSM   H15S16258   7.279   5.221   4.311  0.6259 -0.6616 -3.5099
  147OSM   H15T16259   7.380   5.364   4.338  1.2031 -0.5202 -0.3212
  147OSM   C16S16260   7.428   5.209   4.478  0.5962 -0.3922 -0.1679
  147OSM   H16S16261   7.372   5.268   4.555  0.9864  1.1956 -1.0645
  147OSM   H16T16262   7.535   5.237   4.487  0.2458  1.1399 -0.5228
  147OSM   C17S16263   7.404   5.058   4.503 -0.2747  0.3677  0.1887
  147OSM   H17S16264   7.467   5.002   4.431 -0.7120  0.5252 -0.3242
  147OSM   H17T16265   7.300   5.023   4.485 -0.6035  0.1290  2.3046
  147OSM   C18S16266   7.442   5.008   4.646  0.4166  0.1970  0.6334
  147OSM   H18S16267   7.380   5.068   4.717 -1.7761 -0.8368 -0.3101
  147OSM   H18T16268   7.552   5.009   4.661  0.5025  0.9407  0.0543
  147OSM   H18U16269   7.405   4.904   4.657  2.9595 -1.1364 -2.1159
  147OSM    C1F16270   6.723   4.920   2.993  0.3237  0.5996  0.3144
  147OSM     OF16271   6.801   4.909   2.901  0.5346 -0.0565  0.1525
  147OSM    C2F16272   6.635   4.805   3.037  0.6345 -0.3386  0.2623
  147OSM    H2F16273   6.613   4.748   2.944 -2.2552  1.5519 -0.3413
  147OSM    H2G16274   6.541   4.842   3.083  0.3608 -1.8435  0.9685
  147OSM    C3F16275   6.711   4.719   3.138 -0.2644 -0.6591  0.2338
  147OSM    H3F16276   6.797   4.674   3.085 -0.5572 -0.6201 -0.2762
  147OSM    H3G16277   6.644   4.635   3.170 -0.4441 -0.9224 -0.8020
  147OSM    C4F16278   6.750   4.783   3.272 -0.3651 -0.2024 -0.4337
  147OSM    H4F16279   6.658   4.829   3.316  0.8375  2.2523 -0.3312
  147OSM    H4G16280   6.826   4.864   3.273 -0.3251 -0.1448  2.6801
  147OSM    C5F16281   6.803   4.688   3.375 -0.0719  0.0182 -0.0918
  147OSM    H5F16282   6.913   4.678   3.364 -0.3501 -1.7274 -1.9890
  147OSM    H5G16283   6.763   4.587   3.352  3.2556 -1.1416 -1.3532
  147OSM    C6F16284   6.770   4.733   3.514  0.2237 -0.7357  0.6123
  147OSM    H6F16285   6.791   4.649   3.583  0.3365  0.0798  1.5940
  147OSM    H6G16286   6.664   4.760   3.529 -0.2724 -2.4632  0.3724
  147OSM    C7F16287   6.855   4.861   3.548  0.1479 -0.0533 -0.2475
  147OSM    H7F16288   6.812   4.940   3.482 -0.5752  0.2536  0.5637
  147OSM    H7G16289   6.952   4.836   3.501  1.0794 -2.5145  2.6634
  147OSM    C8F16290   6.861   4.909   3.692 -0.0924  0.3623  0.1584
  147OSM    H8F16291   6.930   4.995   3.694  0.6462 -0.2228  0.4865
  147OSM    H8G16292   6.914   4.838   3.760 -0.7822 -0.6769 -0.3509
  147OSM    C9F16293   6.728   4.955   3.750  0.1871  0.9318  0.0560
  147OSM    H9F16294   6.649   4.968   3.673 -2.2805  0.8144  2.4162
  147OSM   C10F16295   6.691   4.945   3.881 -0.0404 -1.1937  0.3022
  147OSM   H10F16296   6.583   4.957   3.896  0.0192  3.5192 -1.5314
  147OSM   C11F16297   6.781   4.907   3.997  0.5961  0.0298  0.2132
  147OSM   H11F16298   6.886   4.890   3.963  0.1975 -1.3895 -0.3855
  147OSM   H11G16299   6.750   4.810   4.042 -0.9733  0.1741 -0.4952
  147OSM   C12F16300   6.775   5.026   4.099 -0.1382 -0.1784 -1.4256
  147OSM   H12F16301   6.668   5.016   4.127  0.0297  1.1475 -0.2113
  147OSM   H12G16302   6.775   5.127   4.052 -1.5087 -0.2913 -1.7073
  147OSM   C13F16303   6.876   5.015   4.210  0.2482 -0.1993 -0.3902
  147OSM   H13F16304   6.965   4.973   4.158  1.3124  0.3314  0.9480
  147OSM   H13G16305   6.842   4.947   4.291  0.9896 -0.8925 -0.6426
  147OSM   C14F16306   6.920   5.149   4.283  0.3992  0.2295  0.3701
  147OSM   H14F16307   6.831   5.205   4.319 -1.3378 -0.9709 -1.7564
  147OSM   H14G16308   6.972   5.212   4.207  1.4991 -3.9942 -2.8004
  147OSM   C15F16309   7.005   5.124   4.410  0.7986 -0.7304 -0.2581
  147OSM   H15F16310   7.108   5.134   4.369  0.3811 -0.5264 -1.2935
  147OSM   H15G16311   6.987   5.021   4.448  1.1701  0.3134  3.0475
  147OSM   C16F16312   6.978   5.212   4.527  0.0891 -1.0810 -0.4661
  147OSM   H16F16313   6.876   5.187   4.564 -0.4570 -1.7752 -2.3045
  147OSM   H16G16314   6.983   5.317   4.490 -0.1719 -0.3557  1.4148
  147OSM   C17F16315   7.068   5.189   4.640 -0.1528  0.2242  0.0062
  147OSM   H17F16316   7.167   5.214   4.598 -1.2569 -0.8413 -3.6358
  147OSM   H17G16317   7.049   5.088   4.682  1.8565 -1.1650 -2.1775
  147OSM   C18F16318   7.045   5.282   4.761 -0.3084 -0.3256 -0.4309
  147OSM   H18F16319   6.971   5.247   4.836  0.1987  0.2217  0.3364
  147OSM   H18G16320   7.050   5.392   4.751  0.0470 -0.0845  1.8426
  147OSM   H18H16321   7.140   5.270   4.817 -0.1003 -1.1768 -0.9438
  148OSM      N16322   4.854   5.427   2.470  0.1765  0.4922 -0.0291
  148OSM    C1516323   4.976   5.410   2.384 -0.1024  0.3369  0.5215
  148OSM   H15A16324   5.059   5.389   2.450  0.5735 -0.8368 -0.6578
  148OSM   H15B16325   4.989   5.498   2.322 -0.4085  0.1677  0.2114
  148OSM   H15C16326   4.965   5.329   2.314  0.0581 -1.3444  2.3704
  148OSM    C1416327   4.855   5.568   2.535 -0.2903  0.4883  0.2360
  148OSM   H14A16328   4.948   5.607   2.576  0.1973  0.9776 -1.2481
  148OSM   H14B16329   4.794   5.570   2.623 -0.1445  3.5103  0.4007
  148OSM   H14C16330   4.808   5.639   2.468 -1.2989  0.6584  1.1014
  148OSM    C1316331   4.727   5.416   2.390 -0.3022  0.0245  0.4085
  148OSM   H13A16332   4.709   5.508   2.338 -0.9711 -0.0601  0.4809
  148OSM   H13B16333   4.644   5.396   2.457  2.7992 -0.9747  4.3538
  148OSM   H13C16334   4.730   5.340   2.313  1.1432 -0.7176  1.1353
  148OSM    C1216335   4.858   5.328   2.576  0.5026  0.3260  0.5814
  148OSM   H12A16336   4.844   5.228   2.535  0.7083 -1.1477  3.8084
  148OSM   H12B16337   4.778   5.355   2.643  0.0304  0.7435 -0.1267
  148OSM    C1116338   4.987   5.316   2.659 -1.1326  0.1249 -0.1806
  148OSM   H11A16339   4.959   5.286   2.762 -0.4422  1.1973  0.3374
  148OSM   H11B16340   5.030   5.418   2.668 -1.6766  0.4282 -1.0040
  148OSM      P16341   5.062   5.073   2.579 -0.3674  0.1641  0.2721
  148OSM    O1316342   4.936   5.053   2.512  0.6724  0.3572 -0.7854
  148OSM    O1416343   5.185   5.020   2.514  0.5016 -0.5555  0.0343
  148OSM    O1116344   5.056   5.019   2.725  0.0379  0.4780 -0.2251
  148OSM    O1216345   5.084   5.231   2.604  0.3520 -0.7121  0.4418
  148OSM    C1S16346   5.166   5.034   2.821 -0.1215  0.5422 -0.4436
  148OSM    H1S16347   5.194   5.142   2.819 -1.1662  0.8582  0.6853
  148OSM    H1T16348   5.256   4.980   2.785  0.9585  2.3262 -0.5925
  148OSM     NF16349   5.254   4.987   3.035 -0.2149  0.2626 -0.7365
  148OSM    HNF16350   5.248   4.909   3.096  0.8006  2.1427  1.9445
  148OSM    C2S16351   5.131   5.006   2.965  0.2475 -0.9153  0.1845
  148OSM    H2S16352   5.072   5.094   2.998 -0.6694 -1.7431  0.8101
  148OSM    C3S16353   5.034   4.886   2.975  0.4682  1.1648  0.0399
  148OSM    H3S16354   5.081   4.792   2.939 -0.1933  1.3509 -1.3636
  148OSM     O316355   4.916   4.887   2.895  0.0538 -0.2257 -0.7933
  148OSM    HO316356   4.936   4.951   2.826 -2.9523 -1.5437 -3.0947
  148OSM    C4S16357   5.010   4.838   3.114  0.1896  0.0714 -0.7366
  148OSM    H4S16358   5.081   4.765   3.155 -0.1806  0.1834  0.1329
  148OSM    C5S16359   4.916   4.889   3.195 -1.1863 -0.1535  0.2912
  148OSM    H5S16360   4.860   4.977   3.161  1.6954  2.0518  0.8230
  148OSM    C6S16361   4.896   4.858   3.341  0.3961 -0.7101  0.0760
  148OSM    H6S16362   4.791   4.846   3.375  0.5545  0.4756  1.0579
  148OSM    H6T16363   4.927   4.942   3.408  1.5957 -1.7558  0.8893
  148OSM    C7S16364   4.967   4.730   3.394  0.6476 -0.4130  0.0280
  148OSM    H7S16365   5.076   4.737   3.373  0.9474 -1.2174  1.2089
  148OSM    H7T16366   4.925   4.642   3.342  1.2574 -0.5441 -0.2411
  148OSM    C8S16367   4.941   4.719   3.545 -0.4088 -0.2863 -0.0252
  148OSM    H8S16368   4.830   4.726   3.540 -0.5810 -1.8495  1.0158
  148OSM    H8T16369   4.995   4.798   3.601  1.0385 -2.6991  2.2013
  148OSM    C9S16370   4.971   4.575   3.591  0.1524  0.1865  0.1666
  148OSM    H9S16371   5.063   4.531   3.546 -0.5055  0.8099 -1.9022
  148OSM    H9T16372   4.893   4.506   3.553 -1.1991  2.5807 -1.6546
  148OSM   C10S16373   4.994   4.563   3.741 -0.2863  0.0582 -0.5524
  148OSM   H10S16374   5.060   4.650   3.766 -2.0420  1.2639  0.1452
  148OSM   H10T16375   5.056   4.472   3.753  0.7017  0.1128 -4.0950
  148OSM   C11S16376   4.865   4.562   3.824  0.2016  0.5658 -0.5422
  148OSM   H11S16377   4.793   4.497   3.769  0.8950 -0.3014 -0.4539
  148OSM   H11T16378   4.826   4.666   3.814  0.1867  0.3748 -3.3687
  148OSM   C12S16379   4.887   4.519   3.972 -0.2015 -0.4026 -0.4548
  148OSM   H12S16380   4.928   4.416   3.973  1.8145  0.3531 -0.9391
  148OSM   H12T16381   4.788   4.514   4.023 -0.5091  1.5657 -0.7671
  148OSM   C13S16382   4.965   4.624   4.058 -0.1477 -0.1016 -0.1273
  148OSM   H13S16383   4.936   4.731   4.052  1.3455  0.4408  1.6124
  148OSM   H13T16384   5.068   4.626   4.016  0.0961 -0.2676  0.4644
  148OSM   C14S16385   4.982   4.577   4.195 -0.7873  0.9712 -0.8698
  148OSM   H14S16386   5.076   4.620   4.236  0.3377 -0.7293 -1.5497
  148OSM   H14T16387   4.990   4.466   4.202  2.9290  1.0320 -1.9334
  148OSM   C15S16388   4.868   4.625   4.292 -0.5234 -0.1755  0.0978
  148OSM   H15S16389   4.772   4.599   4.243 -1.4190 -1.2858  2.2942
  148OSM   H15T16390   4.877   4.736   4.283 -0.9052 -0.2372 -1.2620
  148OSM   C16S16391   4.889   4.588   4.435  0.3570 -0.5331  0.0582
  148OSM   H16S16392   4.880   4.478   4.448  2.9474 -0.8452 -0.3257
  148OSM   H16T16393   4.810   4.641   4.493  2.4550  1.5608  1.1944
  148OSM   C17S16394   5.025   4.632   4.503 -0.3266 -0.1565  0.2807
  148OSM   H17S16395   5.056   4.736   4.478  1.5145 -0.5961  0.5957
  148OSM   H17T16396   5.107   4.571   4.460  1.1529 -0.0939  2.8692
  148OSM   C18S16397   5.043   4.614   4.657  0.1872 -0.2100 -0.0837
  148OSM   H18S16398   5.000   4.696   4.718 -0.8274  0.0284 -1.1020
  148OSM   H18T16399   5.150   4.610   4.689  0.1551  1.3305  0.2901
  148OSM   H18U16400   4.992   4.519   4.684 -0.8921  0.3325 -0.1778
  148OSM    C1F16401   5.359   5.076   3.035 -0.5929  0.2890 -0.7120
  148OSM     OF16402   5.344   5.184   2.990 -0.1547 -0.4782  0.3673
  148OSM    C2F16403   5.490   5.028   3.103  0.5373 -1.3701 -0.0819
  148OSM    H2F16404   5.524   4.926   3.075  3.3300 -0.7038  0.5504
  148OSM    H2G16405   5.467   5.024   3.211  1.6631  0.2129  0.2473
  148OSM    C3F16406   5.604   5.129   3.076 -0.6762 -0.7424  0.5052
  148OSM    H3F16407   5.591   5.235   3.108 -0.1827 -0.5226 -0.0035
  148OSM    H3G16408   5.607   5.132   2.965  1.2175 -0.6750  0.5209
  148OSM    C4F16409   5.739   5.080   3.130 -0.5140  0.2796 -0.0817
  148OSM    H4F16410   5.817   5.150   3.093  2.0508 -2.2248  0.2190
  148OSM    H4G16411   5.759   4.982   3.081 -1.6708 -0.5448  1.0377
  148OSM    C5F16412   5.747   5.069   3.280 -0.8401  0.1866 -0.0284
  148OSM    H5F16413   5.646   5.050   3.322 -0.8420  2.7176  1.2486
  148OSM    H5G16414   5.764   5.170   3.322 -1.2643 -0.4540  1.7804
  148OSM    C6F16415   5.849   4.961   3.326 -0.0599 -0.5792  0.2415
  148OSM    H6F16416   5.942   4.965   3.265  0.7258  0.6982  1.4573
  148OSM    H6G16417   5.799   4.862   3.314 -1.6743  0.4672 -2.5837
  148OSM    C7F16418   5.885   4.979   3.481 -0.5729 -0.0328 -0.4109
  148OSM    H7F16419   5.794   4.993   3.544  0.9187  2.2572  1.4495
  148OSM    H7G16420   5.958   5.063   3.483 -0.4165 -0.0653 -2.5721
  148OSM    C8F16421   5.946   4.856   3.551  0.5661 -0.3735 -0.0132
  148OSM    H8F16422   5.997   4.894   3.643 -0.6488  1.3224  0.0063
  148OSM    H8G16423   6.026   4.814   3.487  0.8269  0.7579 -0.4449
  148OSM    C9F16424   5.857   4.744   3.601  0.3373  0.6355 -0.0405
  148OSM    H9F16425   5.761   4.740   3.549 -0.6982  0.5996  1.7791
  148OSM   C10F16426   5.872   4.672   3.713 -0.5861  0.0081 -0.5853
  148OSM   H10F16427   5.800   4.589   3.727 -0.3770 -0.0398  0.2251
  148OSM   C11F16428   5.980   4.674   3.816 -0.3036 -0.5983 -0.9539
  148OSM   H11F16429   6.060   4.744   3.785 -1.0882  0.6388 -0.2820
  148OSM   H11G16430   6.026   4.573   3.830 -2.2918 -1.4026  0.2165
  148OSM   C12F16431   5.941   4.714   3.959  0.3175 -0.0151 -0.2149
  148OSM   H12F16432   5.876   4.632   3.996  1.3678  0.0298  1.9074
  148OSM   H12G16433   5.901   4.817   3.966 -0.7351 -0.4457  0.2351
  148OSM   C13F16434   6.066   4.711   4.050  0.1077  0.1481  0.3785
  148OSM   H13F16435   6.136   4.795   4.032  0.2032 -0.1924 -0.9353
  148OSM   H13G16436   6.111   4.616   4.013 -1.5587 -0.1473 -1.0084
  148OSM   C14F16437   6.035   4.705   4.194 -0.0379  0.3783  0.1453
  148OSM   H14F16438   6.127   4.727   4.251  0.9006  0.4303 -1.3436
  148OSM   H14G16439   6.007   4.602   4.224 -2.8575  1.1831  0.5783
  148OSM   C15F16440   5.945   4.813   4.252  0.7110  0.0604 -0.3671
  148OSM   H15F16441   5.841   4.791   4.219  0.0243 -0.6690  2.0604
  148OSM   H15G16442   5.972   4.913   4.212 -1.2716  1.0185  0.5656
  148OSM   C16F16443   5.949   4.817   4.406  0.1342  0.0267 -0.1492
  148OSM   H16F16444   6.052   4.846   4.435  0.1714 -1.5788  1.5665
  148OSM   H16G16445   5.933   4.712   4.441  1.0838  0.1029  0.5546
  148OSM   C17F16446   5.843   4.908   4.469 -0.0470 -0.3442 -0.0695
  148OSM   H17F16447   5.747   4.899   4.414 -0.5693 -1.5931  0.9794
  148OSM   H17G16448   5.881   5.012   4.457  0.5243 -0.6094 -0.6391
  148OSM   C18F16449   5.826   4.877   4.615 -0.0796  0.3401  0.2563
  148OSM   H18F16450   5.774   4.779   4.628 -0.8117  0.6522 -0.2066
  148OSM   H18G16451   5.779   4.958   4.674  2.0657  0.6886  1.5976
  148OSM   H18H16452   5.921   4.872   4.672 -0.4784  0.3529  0.9307
  149OSM      N16453   1.101   3.062   2.636 -0.0288 -0.1892 -0.0448
  149OSM    C1516454   1.210   2.973   2.687 -0.4061  0.3731 -0.2693
  149OSM   H15A16455   1.292   2.975   2.616 -1.3232  3.1068 -1.3953
  149OSM   H15B16456   1.182   2.871   2.710  0.8908  0.5687  2.6732
  149OSM   H15C16457   1.246   3.014   2.780  1.4662  2.1714 -1.6927
  149OSM    C1416458   1.171   3.180   2.580 -0.3664 -0.7518  0.5273
  149OSM   H14A16459   1.241   3.150   2.503 -0.0290  0.0283  0.5122
  149OSM   H14B16460   1.219   3.242   2.654  0.1807  0.3144 -0.6762
  149OSM   H14C16461   1.095   3.239   2.530 -0.0481 -1.5287 -0.9328
  149OSM    C1316462   1.032   2.995   2.521 -0.3079 -0.3472  0.0324
  149OSM   H13A16463   1.096   2.984   2.435 -1.4749 -0.1754 -0.8665
  149OSM   H13B16464   0.956   3.065   2.488 -2.6453 -1.3525  2.8852
  149OSM   H13C16465   0.990   2.899   2.545  1.3371 -0.9213  0.7737
  149OSM    C1216466   1.003   3.092   2.748 -0.3177 -0.2389  0.3396
  149OSM   H12A16467   1.064   3.131   2.828  1.9119  1.6268 -2.1122
  149OSM   H12B16468   0.964   2.998   2.785  0.9344 -1.4666 -1.2843
  149OSM    C1116469   0.892   3.197   2.726  0.5078  0.4125 -0.3893
  149OSM   H11A16470   0.923   3.289   2.673 -0.5884  1.8812  1.4030
  149OSM   H11B16471   0.860   3.228   2.828  0.1233 -0.2435 -0.3045
  149OSM      P16472   0.678   3.202   2.582 -0.4027  0.5571  0.3747
  149OSM    O1316473   0.745   3.307   2.496 -0.3750 -0.7759  0.1153
  149OSM    O1416474   0.587   3.106   2.514 -0.0488  0.1392  0.2477
  149OSM    O1116475   0.594   3.268   2.698 -0.1757  0.0034  0.3750
  149OSM    O1216476   0.779   3.118   2.667 -0.2943  0.0886 -0.0915
  149OSM    C1S16477   0.513   3.192   2.785 -0.1826  0.2725  0.3007
  149OSM    H1S16478   0.480   3.095   2.743  1.1404 -1.5550  3.1539
  149OSM    H1T16479   0.423   3.255   2.800  1.0194  2.0901  0.2015
  149OSM     NF16480   0.478   3.098   3.007  0.7572 -0.0768  0.3090
  149OSM    HNF16481   0.399   3.142   3.050  0.9754  1.1001 -0.4413
  149OSM    C2S16482   0.567   3.183   2.934  0.5094 -0.0340 -0.2809
  149OSM    H2S16483   0.671   3.142   2.928  1.0074  1.1829 -0.2530
  149OSM    C3S16484   0.587   3.330   2.999 -0.0374  0.4150  0.1658
  149OSM    H3S16485   0.488   3.380   2.996  1.7173  4.4006  1.5002
  149OSM     O316486   0.666   3.418   2.912  0.3181  0.0692  0.4009
  149OSM    HO316487   0.654   3.388   2.822  1.0657  0.2457  0.2412
  149OSM    C4S16488   0.635   3.333   3.143 -0.6539 -1.0112  0.1879
  149OSM    H4S16489   0.548   3.331   3.211 -0.5705 -0.4373  0.3152
  149OSM    C5S16490   0.764   3.339   3.187  0.2087  0.1133  0.2202
  149OSM    H5S16491   0.844   3.351   3.112  1.2011 -1.4015  0.9778
  149OSM    C6S16492   0.817   3.333   3.327  0.5229 -0.2343  0.2900
  149OSM    H6S16493   0.907   3.268   3.325  0.6139 -0.2172  2.0349
  149OSM    H6T16494   0.741   3.283   3.391 -0.5710 -2.2031 -2.3440
  149OSM    C7S16495   0.874   3.465   3.388 -0.7927  0.7561 -0.8501
  149OSM    H7S16496   0.798   3.546   3.390 -0.0645  1.4560 -1.4481
  149OSM    H7T16497   0.960   3.509   3.333 -1.5987  1.6066 -1.4642
  149OSM    C8S16498   0.917   3.441   3.536 -0.0964 -0.8543 -0.3839
  149OSM    H8S16499   0.962   3.537   3.569  0.6408 -0.9650 -1.0501
  149OSM    H8T16500   0.995   3.364   3.554 -0.0028 -0.5594  0.5310
  149OSM    C9S16501   0.799   3.407   3.634 -0.6196 -0.0623 -0.6259
  149OSM    H9S16502   0.732   3.322   3.608  0.7367 -1.0343 -1.0729
  149OSM    H9T16503   0.738   3.500   3.636  0.9248  0.9968 -0.7704
  149OSM   C10S16504   0.859   3.386   3.776 -0.4389 -0.1015 -0.1960
  149OSM   H10S16505   0.933   3.465   3.800  1.9033 -1.9012 -1.0915
  149OSM   H10T16506   0.923   3.295   3.772  1.4810  1.1222  1.0374
  149OSM   C11S16507   0.749   3.381   3.888  0.7940 -0.3006 -0.0044
  149OSM   H11S16508   0.672   3.301   3.889 -3.0666  2.9930  2.7835
  149OSM   H11T16509   0.689   3.475   3.898  0.6255 -0.5578  1.7034
  149OSM   C12S16510   0.817   3.385   4.026  0.1627 -0.2718 -0.2379
  149OSM   H12S16511   0.893   3.465   4.034  0.7505 -0.9362  1.0001
  149OSM   H12T16512   0.875   3.296   4.056  0.2810 -0.7283 -1.7131
  149OSM   C13S16513   0.720   3.428   4.137 -0.0598  0.3691  0.4034
  149OSM   H13S16514   0.629   3.364   4.129 -0.7102  1.3901 -0.6500
  149OSM   H13T16515   0.676   3.528   4.114 -1.0198  0.3673  2.0254
  149OSM   C14S16516   0.776   3.439   4.279 -0.2893  0.3544 -0.4591
  149OSM   H14S16517   0.685   3.465   4.337  0.6620  0.3135  1.1081
  149OSM   H14T16518   0.836   3.532   4.291 -0.6142  0.6490 -1.1067
  149OSM   C15S16519   0.839   3.311   4.326  0.3741 -0.7122 -0.6259
  149OSM   H15S16520   0.931   3.284   4.271  1.6207  0.8421  0.5584
  149OSM   H15T16521   0.761   3.232   4.326 -0.3266 -0.0508  0.5229
  149OSM   C16S16522   0.885   3.329   4.471 -0.2263 -0.8440  0.1615
  149OSM   H16S16523   0.790   3.331   4.529  1.1997 -0.2373  2.5756
  149OSM   H16T16524   0.940   3.425   4.468 -0.0597 -0.9485 -2.1243
  149OSM   C17S16525   0.959   3.208   4.521  0.1245  0.1285 -0.2022
  149OSM   H17S16526   1.050   3.192   4.460 -0.7338 -1.5860 -1.0970
  149OSM   H17T16527   0.899   3.115   4.511 -0.3439  0.1006  2.2519
  149OSM   C18S16528   0.987   3.216   4.670  0.8082 -1.3755  0.2364
  149OSM   H18S16529   1.045   3.310   4.688  0.4884 -1.1439  0.0655
  149OSM   H18T16530   1.061   3.142   4.708  1.2771 -1.3107 -0.5324
  149OSM   H18U16531   0.891   3.212   4.725  0.8644 -1.0436  0.3663
  149OSM    C1F16532   0.475   2.967   2.983 -0.6607 -0.3166 -0.1317
  149OSM     OF16533   0.566   2.920   2.913 -0.1153  0.2260  0.2052
  149OSM    C2F16534   0.348   2.886   3.022 -0.8289 -0.4139 -0.7506
  149OSM    H2F16535   0.347   2.812   2.940 -0.9449 -0.2418 -0.9038
  149OSM    H2G16536   0.256   2.949   3.020 -0.6362  0.4027  4.1128
  149OSM    C3F16537   0.352   2.808   3.159  0.0732 -0.4901 -1.0979
  149OSM    H3F16538   0.431   2.733   3.177 -0.6279 -0.7673  1.0530
  149OSM    H3G16539   0.259   2.749   3.174 -0.6349  0.6324 -0.9238
  149OSM    C4F16540   0.369   2.908   3.276 -0.3380 -0.1393 -0.0762
  149OSM    H4F16541   0.302   2.994   3.258  0.9970  1.0218  0.3958
  149OSM    H4G16542   0.471   2.949   3.282  0.0833 -0.7801 -2.0732
  149OSM    C5F16543   0.354   2.841   3.420  0.4142  0.0647 -0.7465
  149OSM    H5F16544   0.448   2.784   3.433  1.6370  2.0883 -0.3290
  149OSM    H5G16545   0.263   2.777   3.421 -0.8157  1.5913  2.5954
  149OSM    C6F16546   0.334   2.946   3.529 -0.3228 -0.2019  0.9093
  149OSM    H6F16547   0.239   2.997   3.501 -0.3127 -1.0706 -0.8115
  149OSM    H6G16548   0.417   3.019   3.518 -1.7972  1.3672 -0.4739
  149OSM    C7F16549   0.340   2.890   3.670 -0.1622  0.1341 -0.5196
  149OSM    H7F16550   0.439   2.840   3.680  0.6562  1.6669 -0.6005
  149OSM    H7G16551   0.259   2.816   3.683 -0.0697 -0.2895 -2.1664
  149OSM    C8F16552   0.318   3.000   3.775  0.3841 -0.1702 -0.3362
  149OSM    H8F16553   0.229   3.060   3.747  1.3990  1.0220 -1.0863
  149OSM    H8G16554   0.403   3.071   3.775  0.6764 -0.4472  1.7623
  149OSM    C9F16555   0.292   2.937   3.913  0.1395 -0.5436 -0.1218
  149OSM    H9F16556   0.277   2.829   3.927 -2.1183 -0.7726 -3.0935
  149OSM   C10F16557   0.289   3.009   4.024 -0.2439  0.4644  0.0391
  149OSM   H10F16558   0.269   2.959   4.120 -1.7897 -1.1963 -1.0873
  149OSM   C11F16559   0.315   3.159   4.019 -0.0839 -0.6128 -0.5232
  149OSM   H11F16560   0.250   3.206   3.942  1.8090  0.8572 -1.2664
  149OSM   H11G16561   0.420   3.184   3.995  0.0480  0.5075  1.0308
  149OSM   C12F16562   0.279   3.228   4.155 -0.0315  0.0841 -0.1294
  149OSM   H12F16563   0.171   3.215   4.177 -0.4034 -2.7309 -2.9791
  149OSM   H12G16564   0.295   3.335   4.132  0.3285 -0.2852 -1.6994
  149OSM   C13F16565   0.350   3.161   4.274 -0.0340 -0.2360  0.0655
  149OSM   H13F16566   0.459   3.181   4.282  0.0537 -0.3729 -0.7302
  149OSM   H13G16567   0.332   3.052   4.290  1.0319 -0.5192 -0.6289
  149OSM   C14F16568   0.290   3.215   4.409 -0.0200 -0.5084  1.2214
  149OSM   H14F16569   0.192   3.168   4.431 -0.6957  0.8297  1.1437
  149OSM   H14G16570   0.271   3.324   4.396  1.0237 -0.4837 -0.2764
  149OSM   C15F16571   0.372   3.190   4.532  0.5154  0.2538 -0.4936
  149OSM   H15F16572   0.464   3.252   4.522  1.0024 -0.5859 -1.2777
  149OSM   H15G16573   0.394   3.081   4.539  0.8379  0.4101  1.6677
  149OSM   C16F16574   0.306   3.232   4.667 -0.2123  0.1048 -0.1654
  149OSM   H16F16575   0.385   3.209   4.742  1.2320 -2.5756 -2.3419
  149OSM   H16G16576   0.222   3.163   4.687 -1.4647  1.1230 -1.6495
  149OSM   C17F16577   0.275   3.382   4.670 -0.2413  0.7912 -0.3273
  149OSM   H17F16578   0.187   3.407   4.606  0.0898 -1.2669 -1.6966
  149OSM   H17G16579   0.358   3.439   4.623 -0.8332  0.4426 -1.8653
  149OSM   C18F16580   0.269   3.434   4.816  0.0253 -0.0553 -0.0425
  149OSM   H18F16581   0.199   3.520   4.816  0.7877  0.5881  0.9297
  149OSM   H18G16582   0.370   3.468   4.847 -0.5148  0.6692  0.9482
  149OSM   H18H16583   0.235   3.353   4.884  0.7576  0.3454  0.8310
  150OSM      N16584   2.698   5.074   1.944  0.0530  0.2916 -0.4220
  150OSM    C1516585   2.692   4.965   1.838 -0.0871 -0.0024 -0.7714
  150OSM   H15A16586   2.708   5.015   1.743 -2.0610 -0.1971 -1.2468
  150OSM   H15B16587   2.604   4.904   1.850 -0.9764  1.6883  1.9464
  150OSM   H15C16588   2.768   4.890   1.855  0.3770  0.8180  1.0013
  150OSM    C1416589   2.831   5.144   1.943 -0.2891 -0.0865  0.6182
  150OSM   H14A16590   2.909   5.069   1.942 -1.0689 -0.9130  1.0217
  150OSM   H14B16591   2.851   5.201   2.032  1.7896 -0.5996  0.5264
  150OSM   H14C16592   2.847   5.213   1.861 -1.4836  0.1676  0.5847
  150OSM    C1316593   2.597   5.176   1.924 -0.1272  0.5413  1.0034
  150OSM   H13A16594   2.616   5.259   1.990 -0.7505  1.7621 -0.3064
  150OSM   H13B16595   2.496   5.140   1.938 -0.1475 -0.0202 -0.4107
  150OSM   H13C16596   2.607   5.217   1.825 -0.2356 -0.9082  0.3555
  150OSM    C1216597   2.673   5.009   2.081 -0.1739 -0.4399  1.0953
  150OSM   H12A16598   2.585   4.947   2.078 -1.1846  0.9731 -0.3215
  150OSM   H12B16599   2.646   5.085   2.153  1.3150  2.4255 -1.1462
  150OSM    C1116600   2.790   4.929   2.142  0.1075  0.0505  0.3204
  150OSM   H11A16601   2.831   4.856   2.069 -0.4805 -2.6862  2.5557
  150OSM   H11B16602   2.766   4.863   2.228  1.4481 -0.1862  0.5430
  150OSM      P16603   2.882   5.099   2.310 -0.0051  0.4435  0.0082
  150OSM    O1316604   3.009   5.076   2.385  0.2534 -0.4133 -0.1755
  150OSM    O1416605   2.852   5.233   2.259 -0.3711  0.2428  0.1368
  150OSM    O1116606   2.760   5.053   2.400 -0.1104  0.3858  0.7153
  150OSM    O1216607   2.898   5.008   2.185  0.1454  0.8252  0.1127
  150OSM    C1S16608   2.778   4.950   2.498  0.0900  0.6319 -0.3337
  150OSM    H1S16609   2.874   4.894   2.497 -0.9159 -1.5661  4.0234
  150OSM    H1T16610   2.698   4.878   2.472  0.6406  0.1814 -0.8164
  150OSM     NF16611   2.818   4.922   2.750  0.0961 -0.6398  0.1368
  150OSM    HNF16612   2.747   4.885   2.810  0.4833  0.8130  1.5590
  150OSM    C2S16613   2.762   5.007   2.641 -0.0522 -0.1907 -0.2035
  150OSM    H2S16614   2.830   5.095   2.643  0.0388 -0.1965 -2.0013
  150OSM    C3S16615   2.611   5.046   2.663 -0.1519 -0.4349  0.2125
  150OSM    H3S16616   2.555   4.954   2.636 -1.6809  0.6235 -0.4370
  150OSM     O316617   2.576   5.145   2.567 -0.1546 -0.1697  0.0351
  150OSM    HO316618   2.632   5.126   2.492  0.4724  0.1511  0.4152
  150OSM    C4S16619   2.593   5.098   2.801 -0.3433 -0.1139  0.3416
  150OSM    H4S16620   2.538   5.031   2.869  0.8729  0.5224  2.0175
  150OSM    C5S16621   2.632   5.222   2.845  0.1007  0.2869 -0.0995
  150OSM    H5S16622   2.680   5.280   2.764  0.1952  0.5045  0.1134
  150OSM    C6S16623   2.627   5.289   2.980 -0.5560  0.8055  0.2805
  150OSM    H6S16624   2.551   5.369   2.970 -0.8283  0.7363  1.6243
  150OSM    H6T16625   2.725   5.331   3.012 -0.8437  0.6712  1.3740
  150OSM    C7S16626   2.591   5.194   3.099 -0.3882  0.7476 -0.3959
  150OSM    H7S16627   2.671   5.119   3.116 -1.6194 -0.2461  1.2166
  150OSM    H7T16628   2.507   5.128   3.069  0.7008 -1.5107  1.2601
  150OSM    C8S16629   2.551   5.276   3.220  0.1223 -0.5567 -0.6278
  150OSM    H8S16630   2.456   5.332   3.207 -0.2270 -0.5373  1.6158
  150OSM    H8T16631   2.634   5.347   3.241  0.8043 -1.6248  0.3691
  150OSM    C9S16632   2.533   5.183   3.337  0.3045 -0.3318 -0.5761
  150OSM    H9S16633   2.621   5.116   3.352  0.8711  0.4901 -0.1693
  150OSM    H9T16634   2.449   5.115   3.311 -0.8541  1.6482 -2.3515
  150OSM   C10S16635   2.512   5.263   3.473 -0.0543 -0.6955 -0.0299
  150OSM   H10S16636   2.428   5.333   3.453  1.5783  0.9673 -1.4723
  150OSM   H10T16637   2.601   5.329   3.474 -2.0238  2.1745 -1.4098
  150OSM   C11S16638   2.508   5.169   3.593  0.1149  0.1139 -0.8169
  150OSM   H11S16639   2.585   5.090   3.581  0.2459  0.3762 -1.7924
  150OSM   H11T16640   2.408   5.120   3.593 -0.7166  1.7238 -0.2131
  150OSM   C12S16641   2.506   5.243   3.728 -0.4759  0.2675 -0.2097
  150OSM   H12S16642   2.432   5.323   3.704 -1.3788  0.0573  1.7592
  150OSM   H12T16643   2.604   5.289   3.752  0.4158 -1.9736  0.7107
  150OSM   C13S16644   2.459   5.155   3.848  0.3649 -0.4513  0.3672
  150OSM   H13S16645   2.554   5.104   3.876  1.2744  0.8191 -0.2863
  150OSM   H13T16646   2.389   5.077   3.811 -0.0826  0.3768 -0.5836
  150OSM   C14S16647   2.369   5.231   3.944  0.0302  0.1763 -0.8540
  150OSM   H14S16648   2.268   5.248   3.900 -1.3013 -0.8749  1.5934
  150OSM   H14T16649   2.409   5.334   3.957  0.8792  0.0328 -2.1304
  150OSM   C15S16650   2.337   5.151   4.075  0.2768  0.7975 -0.5516
  150OSM   H15S16651   2.309   5.051   4.036 -0.9988  0.1852  1.7689
  150OSM   H15T16652   2.246   5.202   4.112  0.7629  2.6323 -1.7161
  150OSM   C16S16653   2.438   5.153   4.186  1.0542 -0.1544  0.0428
  150OSM   H16S16654   2.460   5.262   4.194  0.2755 -0.0186  0.3788
  150OSM   H16T16655   2.527   5.098   4.148  0.4460 -0.1473 -1.4626
  150OSM   C17S16656   2.388   5.085   4.318  0.1824  0.0619 -0.2015
  150OSM   H17S16657   2.351   4.983   4.293  1.7993 -0.5907 -0.1064
  150OSM   H17T16658   2.300   5.132   4.366 -0.7127 -0.9744 -0.7742
  150OSM   C18S16659   2.506   5.080   4.414 -0.5753  0.7191 -0.5663
  150OSM   H18S16660   2.580   5.007   4.376 -1.1944 -0.7567  0.9146
  150OSM   H18T16661   2.472   5.039   4.512 -1.6506 -0.1538 -1.2726
  150OSM   H18U16662   2.550   5.181   4.425 -0.7032  0.9208 -1.7700
  150OSM    C1F16663   2.942   4.890   2.775 -0.8416  0.1946 -0.3511
  150OSM     OF16664   3.031   4.927   2.699  0.0463  0.2276  0.5648
  150OSM    C2F16665   2.965   4.812   2.907  0.0382 -0.3043 -0.3420
  150OSM    H2F16666   2.901   4.721   2.900 -1.0715  0.3851  0.4578
  150OSM    H2G16667   2.916   4.876   2.984 -0.9212  0.0530 -1.2258
  150OSM    C3F16668   3.113   4.783   2.949  0.2095 -0.8512 -0.4264
  150OSM    H3F16669   3.165   4.876   2.981  1.3932 -0.3412 -3.5271
  150OSM    H3G16670   3.168   4.765   2.854 -0.0045 -1.3126 -0.4665
  150OSM    C4F16671   3.123   4.662   3.044  0.2995 -0.0692  0.4132
  150OSM    H4F16672   3.068   4.580   2.992  0.8897 -0.2168  0.0146
  150OSM    H4G16673   3.068   4.665   3.141  1.4078 -0.5288  1.0707
  150OSM    C5F16674   3.266   4.615   3.059 -0.4202 -0.3530  1.1539
  150OSM    H5F16675   3.319   4.619   2.962 -0.2998 -0.8301  1.1994
  150OSM    H5G16676   3.265   4.510   3.095 -1.3670  0.5372  4.0092
  150OSM    C6F16677   3.360   4.693   3.154  0.4720  0.2267 -0.3169
  150OSM    H6F16678   3.384   4.791   3.107  0.7794  0.7548  0.8771
  150OSM    H6G16679   3.446   4.623   3.153 -1.1512 -2.0435  2.4671
  150OSM    C7F16680   3.299   4.722   3.295  0.3989  0.0124 -0.8922
  150OSM    H7F16681   3.234   4.809   3.273  0.7976  0.5884  0.1503
  150OSM    H7G16682   3.383   4.754   3.360 -1.4342  0.4871  1.3728
  150OSM    C8F16683   3.235   4.602   3.369 -0.5243 -0.7161  0.5738
  150OSM    H8F16684   3.306   4.519   3.393 -1.6954 -1.5759  1.1642
  150OSM    H8G16685   3.163   4.557   3.298  0.3515 -1.3933  0.0978
  150OSM    C9F16686   3.161   4.664   3.496  0.3882  0.0265  0.6432
  150OSM    H9F16687   3.106   4.757   3.473  1.9582  0.9867  0.5822
  150OSM   C10F16688   3.161   4.620   3.621  0.0787  0.0390  0.1198
  150OSM   H10F16689   3.091   4.669   3.690 -0.4257  1.4618 -1.3349
  150OSM   C11F16690   3.251   4.519   3.674 -0.3508  0.2182  0.5227
  150OSM   H11F16691   3.334   4.494   3.604 -0.8115 -0.5375  0.2446
  150OSM   H11G16692   3.198   4.422   3.674 -1.7921  0.9748  1.1374
  150OSM   C12F16693   3.294   4.547   3.820  0.0595 -0.3041  1.0074
  150OSM   H12F16694   3.330   4.652   3.826 -0.1636 -0.2194  0.8541
  150OSM   H12G16695   3.371   4.472   3.847 -0.0574 -0.7498  0.1406
  150OSM   C13F16696   3.194   4.534   3.933 -0.1280 -0.9056 -0.6018
  150OSM   H13F16697   3.124   4.448   3.932  0.8205 -1.7212 -2.4798
  150OSM   H13G16698   3.132   4.625   3.941 -0.8527 -1.5606  2.2657
  150OSM   C14F16699   3.274   4.542   4.073 -0.4442  0.7749 -0.6724
  150OSM   H14F16700   3.309   4.646   4.086  1.5652  0.1742 -0.8124
  150OSM   H14G16701   3.353   4.466   4.055 -1.4155  0.0268 -2.0354
  150OSM   C15F16702   3.194   4.492   4.193  0.0417 -0.0461  0.0788
  150OSM   H15F16703   3.148   4.396   4.162 -0.9528  0.0252  1.2680
  150OSM   H15G16704   3.110   4.562   4.211 -0.3751 -0.6216  0.3946
  150OSM   C16F16705   3.279   4.482   4.323 -0.0992  0.5167 -0.8055
  150OSM   H16F16706   3.303   4.588   4.346 -3.3040  1.1589  0.1314
  150OSM   H16G16707   3.363   4.412   4.302 -0.8350 -0.3492 -0.9403
  150OSM   C17F16708   3.200   4.430   4.444  0.0276  0.1430  0.1082
  150OSM   H17F16709   3.177   4.326   4.412  2.5310 -0.1092 -1.0991
  150OSM   H17G16710   3.102   4.478   4.465  0.2424  0.1943  1.0344
  150OSM   C18F16711   3.262   4.415   4.581  0.6071 -0.4643  0.2009
  150OSM   H18F16712   3.279   4.515   4.627 -0.1334 -0.1929 -0.0876
  150OSM   H18G16713   3.363   4.372   4.566  0.0701 -1.1890 -1.6406
  150OSM   H18H16714   3.191   4.354   4.641 -1.2782  0.4278 -0.9895
  151OSM      N16715   2.366   3.084   2.861  0.0758 -0.1156  0.2818
  151OSM    C1516716   2.407   3.022   2.737  0.7120 -0.5756  0.1304
  151OSM   H15A16717   2.442   3.092   2.663 -1.5521  0.9362  0.3651
  151OSM   H15B16718   2.322   2.984   2.682  0.6861  0.7084 -0.7879
  151OSM   H15C16719   2.483   2.946   2.748 -0.1135 -1.1700  2.1075
  151OSM    C1416720   2.266   3.180   2.814  0.0930  0.4023  0.5319
  151OSM   H14A16721   2.316   3.257   2.757  1.0736 -0.2717  0.4688
  151OSM   H14B16722   2.215   3.229   2.896 -0.4972 -1.3491  1.2511
  151OSM   H14C16723   2.192   3.130   2.754  1.1521 -0.4609 -0.0917
  151OSM    C1316724   2.304   2.977   2.951 -0.5263  0.2670  0.7891
  151OSM   H13A16725   2.281   3.023   3.046 -1.7149 -1.7171  1.5042
  151OSM   H13B16726   2.370   2.892   2.941 -1.0595  0.1138 -2.7022
  151OSM   H13C16727   2.214   2.949   2.898 -0.8595  0.9589  0.9747
  151OSM    C1216728   2.480   3.151   2.932 -0.6889 -0.3313  1.3203
  151OSM   H12A16729   2.551   3.076   2.964  2.8880  1.6886 -1.0659
  151OSM   H12B16730   2.436   3.214   3.007 -1.4283 -1.2928  1.7050
  151OSM    C1116731   2.565   3.254   2.848  0.3855  0.1413 -0.1736
  151OSM   H11A16732   2.622   3.201   2.769  0.1799  2.1361 -1.7298
  151OSM   H11B16733   2.637   3.295   2.922  0.6358 -0.8395  0.1383
  151OSM      P16734   2.541   3.487   2.760  0.3437  0.5906  0.2344
  151OSM    O1316735   2.666   3.458   2.689 -0.4651 -0.5966  0.0666
  151OSM    O1416736   2.444   3.570   2.683 -0.2689  0.3249 -0.4729
  151OSM    O1116737   2.554   3.550   2.904  0.4477  0.3747  0.0675
  151OSM    O1216738   2.479   3.351   2.795  0.4050  0.6745 -0.8435
  151OSM    C1S16739   2.447   3.558   3.001 -0.2979 -0.0309  0.1543
  151OSM    H1S16740   2.405   3.457   3.019  0.5254 -0.7610 -1.7027
  151OSM    H1T16741   2.363   3.623   2.968 -1.0397 -1.2387 -0.3822
  151OSM     NF16742   2.427   3.604   3.248  1.4552 -0.0436  0.0341
  151OSM    HNF16743   2.369   3.679   3.280  0.0523 -1.7373  1.7138
  151OSM    C2S16744   2.512   3.619   3.130  0.5808  0.4841 -0.3339
  151OSM    H2S16745   2.603   3.555   3.141  0.6840  0.8506  1.1980
  151OSM    C3S16746   2.550   3.771   3.095 -0.3455 -0.4683  0.0933
  151OSM    H3S16747   2.449   3.813   3.075 -1.1795 -1.0801  2.5650
  151OSM     O316748   2.630   3.780   2.975 -0.0769 -0.1091 -0.2908
  151OSM    HO316749   2.613   3.696   2.932  0.8575 -1.3059  1.5876
  151OSM    C4S16750   2.617   3.840   3.213 -0.1515  0.1525 -0.1252
  151OSM    H4S16751   2.689   3.769   3.256 -1.2684 -0.0947  1.4185
  151OSM    C5S16752   2.581   3.947   3.287 -0.2311 -0.5089 -0.6040
  151OSM    H5S16753   2.486   4.002   3.281  0.3683  0.8031  0.9842
  151OSM    C6S16754   2.664   3.993   3.412 -0.0282 -0.1946 -0.2686
  151OSM    H6S16755   2.595   3.997   3.499 -0.3327  0.6400 -0.5350
  151OSM    H6T16756   2.711   4.094   3.406  2.5565 -1.2168  0.9311
  151OSM    C7S16757   2.779   3.898   3.457  0.5938  0.3384  0.1047
  151OSM    H7S16758   2.828   3.952   3.540  1.9268  0.1416 -0.5290
  151OSM    H7T16759   2.855   3.885   3.377  2.0901  1.1707  1.3576
  151OSM    C8S16760   2.724   3.771   3.527 -0.9550 -0.6314  0.2010
  151OSM    H8S16761   2.805   3.695   3.519  2.3353  2.7192 -0.9526
  151OSM    H8T16762   2.634   3.734   3.473  0.1534  0.3815 -2.5130
  151OSM    C9S16763   2.701   3.788   3.680  0.5952 -0.3691 -0.5017
  151OSM    H9S16764   2.618   3.859   3.702 -0.0798 -1.2196 -0.2635
  151OSM    H9T16765   2.790   3.831   3.732 -1.1757  3.7555 -0.4378
  151OSM   C10S16766   2.668   3.656   3.751  0.6109  0.2076  0.0536
  151OSM   H10S16767   2.751   3.590   3.717 -0.8874 -0.4331 -2.6299
  151OSM   H10T16768   2.573   3.610   3.716 -0.3857  1.2498  1.2753
  151OSM   C11S16769   2.657   3.666   3.903 -0.5051  0.1892 -0.4372
  151OSM   H11S16770   2.675   3.771   3.935  0.9525  0.1088 -0.9523
  151OSM   H11T16771   2.733   3.607   3.959  0.8783  2.4475  0.1710
  151OSM   C12S16772   2.521   3.631   3.962 -0.4093  0.2162 -0.2032
  151OSM   H12S16773   2.445   3.631   3.882  1.2748 -1.4395 -1.9112
  151OSM   H12T16774   2.482   3.690   4.048  0.1232 -0.3434  0.4323
  151OSM   C13S16775   2.524   3.488   4.019  0.4581 -0.5687  1.2902
  151OSM   H13S16776   2.577   3.424   3.946 -0.0265  0.3879  0.0584
  151OSM   H13T16777   2.415   3.467   4.018  0.3507 -0.0408  0.2714
  151OSM   C14S16778   2.575   3.490   4.160  0.0357 -0.0898  0.3223
  151OSM   H14S16779   2.516   3.559   4.225  0.5973 -1.7667  2.7780
  151OSM   H14T16780   2.682   3.520   4.162 -0.8732  3.5695  0.4701
  151OSM   C15S16781   2.567   3.343   4.211 -0.0500  0.3634 -0.7923
  151OSM   H15S16782   2.608   3.277   4.131  0.7402  0.4215 -0.4453
  151OSM   H15T16783   2.463   3.317   4.241 -0.1865  3.2264  1.7088
  151OSM   C16S16784   2.650   3.331   4.341 -0.4447  0.4998 -0.6417
  151OSM   H16S16785   2.656   3.432   4.387 -2.1298  0.6950 -0.7945
  151OSM   H16T16786   2.753   3.292   4.329 -1.0478 -2.0048  1.3040
  151OSM   C17S16787   2.585   3.237   4.451 -0.1421 -0.1993  0.5832
  151OSM   H17S16788   2.586   3.141   4.396 -2.2031  1.2909 -2.4179
  151OSM   H17T16789   2.479   3.267   4.466 -0.6651 -0.2114 -2.4124
  151OSM   C18S16790   2.656   3.230   4.587  0.0349 -0.0639 -0.0679
  151OSM   H18S16791   2.761   3.200   4.569  0.3456  0.6622  0.5138
  151OSM   H18T16792   2.612   3.154   4.655  0.7809 -0.1785  0.2859
  151OSM   H18U16793   2.674   3.330   4.630 -0.9553  1.4683 -2.9217
  151OSM    C1F16794   2.405   3.484   3.307 -0.7391 -0.4912  0.8751
  151OSM     OF16795   2.454   3.383   3.253 -0.3639  0.0896 -0.0450
  151OSM    C2F16796   2.336   3.478   3.438  0.0747 -0.9708  0.4605
  151OSM    H2F16797   2.231   3.459   3.410  0.2589 -0.2647 -0.7701
  151OSM    H2G16798   2.341   3.582   3.475 -2.1053 -0.4516 -0.5400
  151OSM    C3F16799   2.384   3.362   3.530 -0.8490 -0.1542 -0.5070
  151OSM    H3F16800   2.484   3.389   3.570 -1.8228  1.4993  0.9820
  151OSM    H3G16801   2.385   3.265   3.476 -0.0231 -0.7620  0.5541
  151OSM    C4F16802   2.308   3.357   3.663 -0.2710 -0.4589  0.2621
  151OSM    H4F16803   2.201   3.338   3.642  0.1763 -0.6063 -2.2464
  151OSM    H4G16804   2.328   3.455   3.711 -0.5971 -1.1112  1.7922
  151OSM    C5F16805   2.373   3.242   3.744  0.3357  0.2229  0.4112
  151OSM    H5F16806   2.387   3.280   3.847  1.0337 -0.3447  0.5380
  151OSM    H5G16807   2.471   3.218   3.697  0.4115  0.6851  0.3314
  151OSM    C6F16808   2.285   3.116   3.734 -0.2707 -0.0337  0.4231
  151OSM    H6F16809   2.286   3.073   3.631  0.1651  1.3000 -0.1511
  151OSM    H6G16810   2.182   3.150   3.756 -0.4493 -0.6230  0.5240
  151OSM    C7F16811   2.313   2.996   3.828 -0.1036  0.2861 -0.1663
  151OSM    H7F16812   2.419   2.964   3.817  0.1612  1.0795  0.0348
  151OSM    H7G16813   2.252   2.905   3.806 -0.4798  0.2264  1.0536
  151OSM    C8F16814   2.293   3.032   3.976  0.1403 -0.0712 -0.6410
  151OSM    H8F16815   2.357   3.121   3.997  2.8964 -1.5248 -2.3547
  151OSM    H8G16816   2.336   2.953   4.040  1.5991  0.1431 -1.3225
  151OSM    C9F16817   2.150   3.062   4.004 -0.3943 -0.1595 -0.2187
  151OSM    H9F16818   2.079   3.024   3.929 -0.2472  0.9118 -0.9078
  151OSM   C10F16819   2.096   3.112   4.118 -0.0659 -0.0624 -0.5546
  151OSM   H10F16820   1.989   3.129   4.133 -0.2904 -0.0226 -2.0394
  151OSM   C11F16821   2.160   3.169   4.245  0.8898 -0.1667  0.5858
  151OSM   H11F16822   2.270   3.183   4.232  1.1683 -1.3289  1.5169
  151OSM   H11G16823   2.138   3.086   4.316 -1.5383 -0.9473 -0.9745
  151OSM   C12F16824   2.090   3.299   4.285 -1.2341 -0.3422 -1.0161
  151OSM   H12F16825   1.988   3.272   4.320 -1.3837 -0.0546 -1.2260
  151OSM   H12G16826   2.077   3.368   4.199 -0.2137  0.4793 -0.5356
  151OSM   C13F16827   2.165   3.383   4.394  0.0549 -0.3884  0.3885
  151OSM   H13F16828   2.107   3.478   4.398 -2.3626 -1.6948 -1.3605
  151OSM   H13G16829   2.272   3.393   4.365  0.3432 -2.1705  0.6959
  151OSM   C14F16830   2.166   3.322   4.531 -0.0480  0.2421  0.1666
  151OSM   H14F16831   2.243   3.243   4.541  0.1339  0.3776 -0.1403
  151OSM   H14G16832   2.067   3.275   4.550  0.4522 -0.8540  0.1374
  151OSM   C15F16833   2.182   3.422   4.644  0.1156 -0.1435  0.1600
  151OSM   H15F16834   2.181   3.364   4.739  1.7047 -0.4500  0.0263
  151OSM   H15G16835   2.095   3.490   4.637  0.8572  0.7974 -0.0081
  151OSM   C16F16836   2.304   3.519   4.650  0.5667 -0.4225  0.5017
  151OSM   H16F16837   2.266   3.621   4.674  0.8050 -0.5279  1.3716
  151OSM   H16G16838   2.345   3.538   4.549 -0.5885  0.7705  0.2206
  151OSM   C17F16839   2.411   3.465   4.746 -0.3593  0.4718 -0.9023
  151OSM   H17F16840   2.448   3.369   4.704 -0.5597  0.1242 -0.2935
  151OSM   H17G16841   2.389   3.440   4.852 -0.4565  0.7861 -0.8463
  151OSM   C18F16842   2.525   3.565   4.746  0.1432  0.3739 -0.2083
  151OSM   H18F16843   2.551   3.585   4.640 -3.8695 -2.2004 -1.9182
  151OSM   H18G16844   2.617   3.525   4.794 -0.6725  1.0726  2.0983
  151OSM   H18H16845   2.487   3.666   4.776 -0.2561  0.5719 -1.3299
  152OSM      N16846   5.999   5.959   2.313  0.2939  0.5295  0.5632
  152OSM    C1516847   5.985   6.030   2.441  0.1393  0.0703  0.1563
  152OSM   H15A16848   6.023   5.975   2.526 -3.0157 -0.1386  1.5568
  152OSM   H15B16849   5.882   6.058   2.456 -0.6824 -1.7615 -1.6735
  152OSM   H15C16850   6.038   6.124   2.435 -1.3071  1.1036  2.1968
  152OSM    C1416851   5.940   6.038   2.202 -0.3750 -0.5630  0.2570
  152OSM   H14A16852   5.997   6.129   2.212 -1.6907  0.2414  0.6401
  152OSM   H14B16853   5.835   6.062   2.208 -0.2517  0.8802 -2.3792
  152OSM   H14C16854   5.950   5.996   2.103 -4.5524 -2.3689  0.3814
  152OSM    C1316855   6.142   5.929   2.297 -0.0250  0.2126 -0.2129
  152OSM   H13A16856   6.196   6.023   2.294 -0.1654  0.3820  1.3838
  152OSM   H13B16857   6.170   5.886   2.202  1.4977 -1.5088  0.9540
  152OSM   H13C16858   6.177   5.869   2.380 -0.7862 -0.0514 -0.0756
  152OSM    C1216859   5.925   5.829   2.322  0.1919  0.2452  0.4602
  152OSM   H12A16860   5.973   5.763   2.393 -0.7056 -0.8428  0.0841
  152OSM   H12B16861   5.910   5.782   2.226 -1.2062  2.2048 -0.3475
  152OSM    C1116862   5.784   5.835   2.383 -0.2431  0.0357  0.2682
  152OSM   H11A16863   5.720   5.746   2.368 -1.4280  0.8177  0.5179
  152OSM   H11B16864   5.730   5.906   2.317  1.3244  0.6557 -0.4129
  152OSM      P16865   5.663   5.944   2.586  0.2436  0.2377  0.1860
  152OSM    O1316866   5.707   5.995   2.719  0.2662  0.5396  0.0856
  152OSM    O1416867   5.609   6.037   2.481  0.0356 -0.1133  0.1982
  152OSM    O1116868   5.551   5.833   2.610 -0.4146 -0.3538  0.5711
  152OSM    O1216869   5.785   5.855   2.528  0.3744 -0.6864  0.1110
  152OSM    C1S16870   5.580   5.721   2.704  0.7129  0.5993 -0.6411
  152OSM    H1S16871   5.687   5.704   2.731  1.0374  2.0024 -0.9965
  152OSM    H1T16872   5.544   5.625   2.661  2.3479 -0.5619  0.4190
  152OSM     NF16873   5.555   5.639   2.938  0.1710  0.3703  0.6475
  152OSM    HNF16874   5.522   5.546   2.923 -0.2109  0.3273  1.7255
  152OSM    C2S16875   5.511   5.741   2.847  0.9546 -0.7462  0.8134
  152OSM    H2S16876   5.534   5.846   2.877 -2.9548  0.7853 -0.8182
  152OSM    C3S16877   5.360   5.744   2.822 -0.5532  0.4457  0.0738
  152OSM    H3S16878   5.318   5.653   2.775 -0.2360  0.2768  0.1131
  152OSM     O316879   5.322   5.850   2.732 -0.0690 -0.0069  0.7154
  152OSM    HO316880   5.405   5.869   2.687 -0.8296  1.8258  0.0046
  152OSM    C4S16881   5.288   5.755   2.957 -0.3393 -0.4889 -0.6649
  152OSM    H4S16882   5.249   5.660   2.995 -1.6117  0.6249  0.9525
  152OSM    C5S16883   5.242   5.868   3.020 -0.0649  0.2522  0.3116
  152OSM    H5S16884   5.258   5.967   2.975  0.7259  0.7151  1.5413
  152OSM    C6S16885   5.169   5.866   3.155 -0.3150  0.5104 -0.9795
  152OSM    H6S16886   5.194   5.959   3.211  1.2011  0.3586 -1.3856
  152OSM    H6T16887   5.199   5.775   3.211  1.5761  1.4283 -0.4336
  152OSM    C7S16888   5.011   5.856   3.138  0.4607 -0.0371 -0.3284
  152OSM    H7S16889   4.993   5.772   3.067 -2.6920 -1.3727  1.8292
  152OSM    H7T16890   4.969   5.949   3.093 -0.1837 -0.5566 -0.8177
  152OSM    C8S16891   4.940   5.830   3.275  0.3404 -0.1046 -0.0745
  152OSM    H8S16892   4.966   5.731   3.317  0.1520  0.1157  0.5803
  152OSM    H8T16893   4.829   5.831   3.262  0.4459  0.3242 -1.0346
  152OSM    C9S16894   4.977   5.945   3.367  0.9860 -0.2062 -0.5766
  152OSM    H9S16895   4.974   6.046   3.320 -1.4374  1.0374  1.9809
  152OSM    H9T16896   5.074   5.933   3.418 -0.2579  0.6619  2.1661
  152OSM   C10S16897   4.883   5.968   3.484  0.4952 -0.3850 -0.1091
  152OSM   H10S16898   4.779   6.004   3.468  0.6628 -0.2080 -0.8397
  152OSM   H10T16899   4.925   6.050   3.545 -0.6114  0.6868 -0.7449
  152OSM   C11S16900   4.874   5.834   3.566  0.0928 -0.6673 -0.6496
  152OSM   H11S16901   4.969   5.807   3.618 -0.1980 -1.9908 -0.7544
  152OSM   H11T16902   4.847   5.746   3.504  2.6239 -1.8888 -0.1542
  152OSM   C12S16903   4.778   5.855   3.678  0.4427  0.5040 -0.5701
  152OSM   H12S16904   4.680   5.878   3.632 -0.0376  0.7882  0.5535
  152OSM   H12T16905   4.799   5.945   3.739 -0.9271  0.3642  0.1455
  152OSM   C13S16906   4.753   5.729   3.778  0.1815 -0.2027 -0.3626
  152OSM   H13S16907   4.850   5.721   3.831 -0.5376  2.9804  1.6960
  152OSM   H13T16908   4.718   5.637   3.726  2.0334 -0.5747 -1.0445
  152OSM   C14S16909   4.653   5.769   3.892 -0.5464 -0.5277  0.3983
  152OSM   H14S16910   4.548   5.779   3.856 -1.2805 -1.9185  2.0277
  152OSM   H14T16911   4.690   5.870   3.919 -0.7306 -0.5206  0.6292
  152OSM   C15S16912   4.669   5.669   4.000  0.3483 -0.2428 -0.0198
  152OSM   H15S16913   4.776   5.659   4.032  0.2283  1.1968  0.8888
  152OSM   H15T16914   4.637   5.568   3.965 -1.7396  0.4293 -0.1493
  152OSM   C16S16915   4.582   5.705   4.113  0.0807  0.6454 -0.1619
  152OSM   H16S16916   4.478   5.729   4.081  0.0611 -0.7679 -1.2219
  152OSM   H16T16917   4.619   5.797   4.164 -0.6674 -0.0595  1.7599
  152OSM   C17S16918   4.561   5.588   4.221 -0.0961  0.3395  0.3403
  152OSM   H17S16919   4.540   5.500   4.155 -1.1610  0.1988  0.8452
  152OSM   H17T16920   4.474   5.597   4.288 -2.4173 -0.1487 -2.4133
  152OSM   C18S16921   4.693   5.563   4.300  0.2142 -0.9680  0.2050
  152OSM   H18S16922   4.774   5.525   4.235 -1.4229 -2.2725 -1.1734
  152OSM   H18T16923   4.673   5.493   4.383 -1.3074 -0.7796  0.0278
  152OSM   H18U16924   4.733   5.659   4.341  2.7955 -1.9968  0.2737
  152OSM    C1F16925   5.677   5.652   2.999 -0.2594  0.0328 -0.1670
  152OSM     OF16926   5.744   5.753   2.999 -0.2635 -0.4693  0.2995
  152OSM    C2F16927   5.708   5.541   3.086  0.0985 -0.3593 -0.7254
  152OSM    H2F16928   5.640   5.456   3.064 -1.1285  0.5839 -0.6784
  152OSM    H2G16929   5.677   5.583   3.184 -0.0743  0.7099 -1.2178
  152OSM    C3F16930   5.856   5.496   3.090  0.5303  0.0020  0.4727
  152OSM    H3F16931   5.935   5.572   3.076  2.0359 -1.6561 -0.4846
  152OSM    H3G16932   5.860   5.436   2.996 -2.9365  1.2410 -0.6454
  152OSM    C4F16933   5.895   5.420   3.220  0.3340 -0.3883  0.4248
  152OSM    H4F16934   5.984   5.355   3.203 -0.3311 -1.5644  1.2376
  152OSM    H4G16935   5.804   5.364   3.251 -0.9441  0.5185 -1.5301
  152OSM    C5F16936   5.931   5.510   3.345 -0.1164  0.0026  1.2363
  152OSM    H5F16937   5.854   5.590   3.346 -0.8799 -0.6909  0.6587
  152OSM    H5G16938   6.028   5.561   3.332  0.5064 -0.9824  1.9241
  152OSM    C6F16939   5.934   5.421   3.470  0.0746 -0.7146 -0.2786
  152OSM    H6F16940   5.990   5.490   3.537  0.0783  1.6077 -2.5153
  152OSM    H6G16941   6.004   5.338   3.449  1.3992  0.5272 -0.9181
  152OSM    C7F16942   5.799   5.391   3.535 -0.4719 -0.0385 -0.2505
  152OSM    H7F16943   5.749   5.303   3.488  0.0845 -0.9463  0.7950
  152OSM    H7G16944   5.736   5.481   3.523  0.9344  1.2838  1.5875
  152OSM    C8F16945   5.803   5.372   3.686  0.6951 -0.1048 -0.5508
  152OSM    H8F16946   5.700   5.343   3.717  0.3147 -0.5954 -2.1958
  152OSM    H8G16947   5.834   5.464   3.740  2.6485 -2.0352  1.8523
  152OSM    C9F16948   5.900   5.268   3.713 -0.1084 -0.1356  0.1106
  152OSM    H9F16949   5.989   5.274   3.648 -0.5426  1.4804 -0.4075
  152OSM   C10F16950   5.900   5.179   3.812 -0.1673  0.3956  0.4513
  152OSM   H10F16951   5.979   5.102   3.817 -3.0764 -2.7676  2.0725
  152OSM   C11F16952   5.800   5.153   3.914 -0.1347  0.1494  0.4980
  152OSM   H11F16953   5.750   5.057   3.889  1.1220 -0.3506 -0.1823
  152OSM   H11G16954   5.713   5.222   3.908  0.2788  0.6397 -0.0346
  152OSM   C12F16955   5.855   5.135   4.059  0.2932  0.4022  0.7516
  152OSM   H12F16956   5.951   5.078   4.056  0.3579  0.5561 -0.6139
  152OSM   H12G16957   5.791   5.076   4.128 -1.3519  0.7038 -0.4784
  152OSM   C13F16958   5.860   5.269   4.130 -0.3179  0.4492 -0.0349
  152OSM   H13F16959   5.766   5.326   4.123 -1.1400 -0.1776  3.6625
  152OSM   H13G16960   5.940   5.330   4.082 -0.4026 -0.4364 -1.3616
  152OSM   C14F16961   5.878   5.257   4.282 -0.3110  0.1949  0.2509
  152OSM   H14F16962   5.812   5.177   4.323 -2.6496  1.8962 -0.0431
  152OSM   H14G16963   5.836   5.353   4.316 -0.5817  0.3632 -0.5437
  152OSM   C15F16964   6.025   5.247   4.336  0.4662 -0.0194 -0.0780
  152OSM   H15F16965   6.076   5.341   4.307 -1.3731  0.6188 -1.4502
  152OSM   H15G16966   6.067   5.155   4.291  0.1090  0.1537 -0.7741
  152OSM   C16F16967   6.045   5.240   4.493  0.5926  0.2514 -0.0060
  152OSM   H16F16968   6.153   5.230   4.515 -0.0960 -2.9504  2.9403
  152OSM   H16G16969   5.991   5.149   4.528  0.6642 -0.6761 -2.1835
  152OSM   C17F16970   5.972   5.358   4.580  0.3949  0.2982  0.2537
  152OSM   H17F16971   5.867   5.365   4.547  0.6157  1.5313 -0.2514
  152OSM   H17G16972   6.028   5.451   4.554  0.5065  0.1617  0.0091
  152OSM   C18F16973   5.964   5.333   4.726 -0.5126  0.2162 -0.0633
  152OSM   H18F16974   5.897   5.252   4.761  0.8692  0.0446  2.3664
  152OSM   H18G16975   5.925   5.429   4.765 -3.1230 -0.0421 -1.7787
  152OSM   H18H16976   6.061   5.304   4.771 -0.7626 -1.5872 -0.5990
  153OSM      N16977   3.135   6.188   2.111  0.0628  0.1131 -0.3469
  153OSM    C1516978   3.129   6.173   1.964 -0.3072 -0.8192 -0.3087
  153OSM   H15A16979   3.225   6.179   1.915 -0.3272 -0.8722 -0.3560
  153OSM   H15B16980   3.068   6.247   1.916  0.8579  2.5901  3.0381
  153OSM   H15C16981   3.086   6.077   1.937 -2.3857 -0.8083  2.5722
  153OSM    C1416982   3.179   6.327   2.146  0.6755 -0.4769  0.4123
  153OSM   H14A16983   3.103   6.402   2.132  1.6536  0.1415 -1.9788
  153OSM   H14B16984   3.259   6.361   2.083 -1.8561  0.1254 -2.7277
  153OSM   H14C16985   3.208   6.331   2.250  0.3111  0.5349  0.4873
  153OSM    C1316986   2.990   6.163   2.157 -0.4275 -0.2083  0.4331
  153OSM   H13A16987   2.931   6.239   2.108 -0.1663 -0.2662  0.0273
  153OSM   H13B16988   2.982   6.162   2.265  0.5494  0.6632  0.5305
  153OSM   H13C16989   2.962   6.064   2.124  3.8695 -1.8396  1.0951
  153OSM    C1216990   3.224   6.090   2.176 -0.3471  0.2462 -0.0861
  153OSM   H12A16991   3.325   6.126   2.160 -1.1998  1.7406 -2.8284
  153OSM   H12B16992   3.239   5.995   2.128  2.7261  1.4005 -1.6770
  153OSM    C1116993   3.212   6.057   2.329  0.0581 -0.0790  0.5524
  153OSM   H11A16994   3.298   5.991   2.356 -1.1146 -1.0296  2.1265
  153OSM   H11B16995   3.124   5.990   2.338  1.0942 -1.6860 -0.7981
  153OSM      P16996   3.328   6.254   2.470 -0.4332  0.4604  0.0766
  153OSM    O1316997   3.438   6.154   2.501  0.3415  0.1694  0.6075
  153OSM    O1416998   3.360   6.378   2.396  0.0426  0.4977 -0.0562
  153OSM    O1116999   3.269   6.294   2.612 -0.5436  0.4683 -0.1399
  153OSM    O1217000   3.203   6.178   2.407 -0.5817  0.5022 -0.4295
  153OSM    C1S17001   3.239   6.190   2.705  0.2049  0.5785  0.5918
  153OSM    H1S17002   3.306   6.102   2.698 -1.1275 -0.3739 -0.6960
  153OSM    H1T17003   3.135   6.156   2.689  0.8338  0.1353 -3.7877
  153OSM     NF17004   3.278   6.118   2.943  0.4609 -0.5896  0.5802
  153OSM    HNF17005   3.198   6.077   2.986  0.6958 -2.2454 -0.4953
  153OSM    C2S17006   3.253   6.235   2.858 -0.5523 -0.4027  0.7573
  153OSM    H2S17007   3.349   6.291   2.864 -0.4529 -0.4867  0.0232
  153OSM    C3S17008   3.131   6.317   2.893 -0.0126  0.4943 -0.0367
  153OSM    H3S17009   3.044   6.248   2.891 -0.8892  1.4336  2.2679
  153OSM     O317010   3.105   6.415   2.794  0.7140  0.3130 -0.0871
  153OSM    HO317011   3.166   6.387   2.725 -0.6374 -1.9188 -0.4849
  153OSM    C4S17012   3.126   6.380   3.028  0.0964 -0.3872 -0.0560
  153OSM    H4S17013   3.071   6.317   3.099 -0.8081  0.7306  0.2696
  153OSM    C5S17014   3.152   6.509   3.066  0.3933  0.4034  0.1623
  153OSM    H5S17015   3.169   6.581   2.985  0.4208 -0.5584 -0.7018
  153OSM    C6S17016   3.106   6.566   3.201 -0.6623 -0.2120  0.4176
  153OSM    H6S17017   3.005   6.606   3.180 -0.9359 -1.0268  0.1310
  153OSM    H6T17018   3.179   6.642   3.236 -0.8228  0.5948 -0.9227
  153OSM    C7S17019   3.085   6.462   3.314 -0.5918  0.6932 -0.6892
  153OSM    H7S17020   3.179   6.403   3.318 -2.1112 -1.7709  2.0465
  153OSM    H7T17021   3.001   6.394   3.290  0.8575 -0.1566 -3.8568
  153OSM    C8S17022   3.067   6.540   3.448  0.4087 -0.7464 -0.7605
  153OSM    H8S17023   2.982   6.612   3.451  1.3119  0.3788 -1.4382
  153OSM    H8T17024   3.143   6.618   3.466 -0.0110 -0.7335  1.1811
  153OSM    C9S17025   3.056   6.446   3.563 -0.3817  0.0472 -0.5558
  153OSM    H9S17026   3.110   6.350   3.551 -1.2385 -0.3356 -1.4981
  153OSM    H9T17027   2.960   6.392   3.554  0.4252 -1.4296 -0.5940
  153OSM   C10S17028   3.087   6.510   3.700 -0.0871  0.0824 -0.4022
  153OSM   H10S17029   3.015   6.588   3.731  1.3126  1.3938 -0.3299
  153OSM   H10T17030   3.189   6.554   3.696  0.1823 -0.5464 -0.5114
  153OSM   C11S17031   3.076   6.409   3.811  0.3148 -0.3751  0.0796
  153OSM   H11S17032   3.152   6.330   3.796 -0.6149 -1.0977 -0.9821
  153OSM   H11T17033   2.978   6.359   3.796  0.9701 -1.4093 -0.9235
  153OSM   C12S17034   3.085   6.473   3.948 -0.5375  0.0306 -0.2804
  153OSM   H12S17035   3.001   6.545   3.965  0.3931  0.9093  0.7522
  153OSM   H12T17036   3.175   6.538   3.953 -0.1237 -0.5883  0.3619
  153OSM   C13S17037   3.095   6.377   4.069 -0.2780 -0.0416  0.0706
  153OSM   H13S17038   3.190   6.319   4.075 -0.9468 -1.0593  1.2932
  153OSM   H13T17039   3.012   6.303   4.063 -0.8034  0.6039 -0.7689
  153OSM   C14S17040   3.075   6.466   4.190 -0.6553 -0.0397 -0.2883
  153OSM   H14S17041   2.982   6.527   4.187 -0.6679  0.3015  3.1182
  153OSM   H14T17042   3.148   6.550   4.186 -1.2662  0.4508 -1.8923
  153OSM   C15S17043   3.092   6.388   4.320 -0.0225 -0.6595 -0.9640
  153OSM   H15S17044   3.194   6.364   4.356 -0.5605  1.4812  2.4933
  153OSM   H15T17045   3.044   6.291   4.296  0.7204 -0.8516 -1.7401
  153OSM   C16S17046   3.017   6.444   4.438  0.1985 -0.3619 -0.7665
  153OSM   H16S17047   2.908   6.448   4.418 -0.2906 -0.1650  1.6373
  153OSM   H16T17048   3.064   6.542   4.464 -1.6138 -0.0072  1.4058
  153OSM   C17S17049   3.031   6.345   4.556  0.9205 -1.2317  0.1921
  153OSM   H17S17050   3.138   6.339   4.583  1.5507  2.1375 -1.1088
  153OSM   H17T17051   2.992   6.246   4.523 -1.1921 -1.5547  3.2463
  153OSM   C18S17052   2.946   6.392   4.676  0.7294 -1.1019 -0.0101
  153OSM   H18S17053   2.968   6.500   4.690 -2.1790 -0.2453 -1.3205
  153OSM   H18T17054   2.974   6.339   4.770 -0.2613 -0.0744  0.9017
  153OSM   H18U17055   2.839   6.387   4.649  0.1222  2.7291  1.0402
  153OSM    C1F17056   3.398   6.061   2.941 -0.3687  0.7956 -0.3475
  153OSM     OF17057   3.490   6.093   2.864  0.2477  0.4271 -0.6595
  153OSM    C2F17058   3.420   5.936   3.026 -0.0241  0.8779  0.4890
  153OSM    H2F17059   3.396   5.853   2.956 -0.2588  0.1591  1.4031
  153OSM    H2G17060   3.342   5.926   3.105  0.6065  2.0378  1.2911
  153OSM    C3F17061   3.562   5.933   3.092 -0.7970  0.4708 -0.0080
  153OSM    H3F17062   3.564   6.008   3.173 -1.1652 -1.9741  2.3880
  153OSM    H3G17063   3.641   5.954   3.015 -1.8488  0.1674 -1.2067
  153OSM    C4F17064   3.593   5.810   3.172  0.3619  0.6104 -0.1155
  153OSM    H4F17065   3.703   5.800   3.178  0.2486 -2.7971 -1.4578
  153OSM    H4G17066   3.550   5.722   3.118 -0.7651  1.3891 -0.5123
  153OSM    C5F17067   3.536   5.810   3.321 -0.1335 -0.7109 -0.0128
  153OSM    H5F17068   3.520   5.705   3.354 -1.8632 -0.2532  0.7210
  153OSM    H5G17069   3.435   5.855   3.315  0.3588  0.8635  2.4417
  153OSM    C6F17070   3.629   5.880   3.429  0.0965 -0.0561  0.4397
  153OSM    H6F17071   3.639   5.988   3.401  2.1116 -0.3708 -0.2431
  153OSM    H6G17072   3.732   5.841   3.416  1.2423  2.8895 -0.2660
  153OSM    C7F17073   3.576   5.867   3.572 -0.6522  0.0300  0.5209
  153OSM    H7F17074   3.467   5.852   3.565 -0.7677  0.5273  1.1463
  153OSM    H7G17075   3.587   5.964   3.625  0.6358  0.3974 -0.3624
  153OSM    C8F17076   3.624   5.744   3.659  0.1217 -0.0166 -0.4354
  153OSM    H8F17077   3.617   5.664   3.582  0.3495  1.6600 -2.3045
  153OSM    H8G17078   3.561   5.729   3.749  0.8137 -0.5792 -0.0302
  153OSM    C9F17079   3.764   5.770   3.702  0.0486  0.6177  1.1474
  153OSM    H9F17080   3.841   5.773   3.624  0.2772  1.5800  1.3930
  153OSM   C10F17081   3.810   5.796   3.827  0.0211  0.4896 -0.6096
  153OSM   H10F17082   3.917   5.818   3.839 -0.1503  1.8120 -1.2563
  153OSM   C11F17083   3.719   5.815   3.948 -0.1819 -0.1551  0.5752
  153OSM   H11F17084   3.625   5.871   3.925 -0.7274  0.0745  3.1000
  153OSM   H11G17085   3.771   5.877   4.023  2.8043 -1.0548 -0.6245
  153OSM   C12F17086   3.680   5.684   4.014  0.5115 -0.2209  0.3387
  153OSM   H12F17087   3.777   5.648   4.055  0.7229  0.0921  0.1152
  153OSM   H12G17088   3.635   5.606   3.949  1.1374  0.7213 -1.2742
  153OSM   C13F17089   3.584   5.704   4.129 -0.1712  0.7168  0.4481
  153OSM   H13F17090   3.572   5.601   4.170  0.8282  0.6122  0.5249
  153OSM   H13G17091   3.491   5.748   4.088 -0.8741 -1.5220 -0.5473
  153OSM   C14F17092   3.639   5.784   4.241 -0.1392 -0.7080 -0.3157
  153OSM   H14F17093   3.635   5.889   4.207  2.3136 -1.1117 -2.0725
  153OSM   H14G17094   3.746   5.769   4.266 -0.3888  2.0929  3.2691
  153OSM   C15F17095   3.550   5.767   4.371  0.1106 -0.4223 -0.4941
  153OSM   H15F17096   3.546   5.658   4.394 -0.3222 -0.7417 -1.9830
  153OSM   H15G17097   3.452   5.816   4.353 -2.1489 -2.9019  3.5363
  153OSM   C16F17098   3.609   5.839   4.483 -0.5666 -0.4728  0.0401
  153OSM   H16F17099   3.634   5.941   4.448 -0.0941 -0.1224  1.3602
  153OSM   H16G17100   3.701   5.786   4.518 -0.8173  0.0565  1.5785
  153OSM   C17F17101   3.519   5.860   4.607 -0.2247 -0.8294 -0.4376
  153OSM   H17F17102   3.489   5.764   4.654 -1.7578  0.9701  2.6119
  153OSM   H17G17103   3.433   5.913   4.560  1.2535 -0.2304 -2.6168
  153OSM   C18F17104   3.591   5.951   4.710 -0.7175  0.2452  0.1983
  153OSM   H18F17105   3.525   6.015   4.774  0.5111  0.6542  1.0873
  153OSM   H18G17106   3.664   6.023   4.669 -0.6879 -0.5777 -1.2489
  153OSM   H18H17107   3.649   5.883   4.775 -1.3170 -0.5445 -0.0785
  154OSM      N17108   2.477   4.331   2.444 -0.1507  0.0286  0.5767
  154OSM    C1517109   2.610   4.366   2.377  0.0399  0.2569  0.8554
  154OSM   H15A17110   2.683   4.287   2.386 -2.1949 -2.0766 -0.4814
  154OSM   H15B17111   2.650   4.448   2.436  0.5195  0.4901  0.2214
  154OSM   H15C17112   2.596   4.396   2.274 -1.5888 -0.7778  0.7474
  154OSM    C1417113   2.392   4.446   2.409  0.8191 -0.3852  0.6848
  154OSM   H14A17114   2.291   4.428   2.441  1.0621 -3.8054 -0.1741
  154OSM   H14B17115   2.383   4.460   2.302  1.2906  0.6601  0.7690
  154OSM   H14C17116   2.432   4.539   2.447 -1.4090  1.0031 -0.1476
  154OSM    C1317117   2.429   4.205   2.379  0.1858  0.3333  0.6889
  154OSM   H13A17118   2.348   4.156   2.431 -1.0132  0.4184 -1.0042
  154OSM   H13B17119   2.513   4.137   2.375 -1.5430 -1.8896  0.4930
  154OSM   H13C17120   2.394   4.216   2.277 -0.0170  0.2706  0.7519
  154OSM    C1217121   2.499   4.311   2.591  0.3888  0.3286 -0.0367
  154OSM   H12A17122   2.544   4.402   2.627 -2.3532  1.5337  0.5921
  154OSM   H12B17123   2.567   4.228   2.601 -2.3672 -2.0159  0.5243
  154OSM    C1117124   2.375   4.280   2.679  0.6304  0.0274  0.1004
  154OSM   H11A17125   2.294   4.355   2.690  0.1833 -0.4650  0.2529
  154OSM   H11B17126   2.424   4.280   2.778  0.5957  0.4373  0.1201
  154OSM      P17127   2.351   4.027   2.730  0.0240 -0.6362  0.0401
  154OSM    O1317128   2.239   3.933   2.698  0.3105 -0.0375  0.7632
  154OSM    O1417129   2.483   3.983   2.684 -0.2346 -0.4518  0.4044
  154OSM    O1117130   2.342   4.061   2.887  0.0707 -0.1043  0.2597
  154OSM    O1217131   2.310   4.159   2.652  0.4276 -0.1299 -0.0620
  154OSM    C1S17132   2.214   4.068   2.949 -0.8980 -0.0050 -0.1281
  154OSM    H1S17133   2.169   3.967   2.957  1.3004 -1.1775 -1.6194
  154OSM    H1T17134   2.148   4.132   2.888  0.8321  0.2370 -1.8373
  154OSM     NF17135   2.090   4.178   3.130 -0.2956 -0.4394  1.6734
  154OSM    HNF17136   2.073   4.270   3.095  0.2111 -1.5217 -1.8341
  154OSM    C2S17137   2.223   4.133   3.094  0.3181  0.8657 -0.3205
  154OSM    H2S17138   2.255   4.050   3.161  3.3897  1.6879 -0.5915
  154OSM    C3S17139   2.334   4.239   3.095 -0.2687 -1.0631  0.1657
  154OSM    H3S17140   2.315   4.316   3.018 -1.3632 -3.5665 -2.2485
  154OSM     O317141   2.462   4.190   3.068 -0.7456 -0.1440 -0.1092
  154OSM    HO317142   2.445   4.116   3.009  1.3884 -1.0287  0.2654
  154OSM    C4S17143   2.336   4.297   3.233 -0.0571 -0.1634  0.3505
  154OSM    H4S17144   2.336   4.215   3.307  1.1659 -0.7626 -0.2888
  154OSM    C5S17145   2.337   4.428   3.261 -0.1545  0.2942  0.0658
  154OSM    H5S17146   2.347   4.491   3.171  1.5074 -2.4595 -1.8086
  154OSM    C6S17147   2.336   4.486   3.400 -0.0014  0.1903  0.0739
  154OSM    H6S17148   2.239   4.535   3.420 -1.4450 -2.9165  1.2242
  154OSM    H6T17149   2.416   4.563   3.399  0.2188 -0.0375 -0.7647
  154OSM    C7S17150   2.366   4.394   3.522  0.0757 -0.0596  0.3237
  154OSM    H7S17151   2.460   4.339   3.498  0.1278  0.3443 -0.4136
  154OSM    H7T17152   2.292   4.311   3.531  0.8571 -0.6578  1.5982
  154OSM    C8S17153   2.372   4.462   3.659 -0.5151 -0.7611 -0.4346
  154OSM    H8S17154   2.287   4.533   3.663  0.3059  0.2057  2.5322
  154OSM    H8T17155   2.466   4.520   3.676 -1.2538 -0.1684  2.0062
  154OSM    C9S17156   2.352   4.369   3.784  0.0653  0.0292  0.4537
  154OSM    H9S17157   2.435   4.297   3.771  1.2252  1.4599 -0.3959
  154OSM    H9T17158   2.257   4.315   3.764  0.5493 -0.7770  0.3053
  154OSM   C10S17159   2.354   4.440   3.911 -0.3384 -0.2335 -0.3676
  154OSM   H10S17160   2.273   4.515   3.921 -1.7182 -1.9454  3.3237
  154OSM   H10T17161   2.440   4.508   3.928  1.1149 -1.7291 -1.4434
  154OSM   C11S17162   2.343   4.347   4.029 -0.1029 -0.2861  0.0050
  154OSM   H11S17163   2.418   4.268   4.010 -0.6212 -0.3941 -1.7778
  154OSM   H11T17164   2.243   4.300   4.014 -0.2701  0.3949 -1.1615
  154OSM   C12S17165   2.330   4.414   4.175 -0.2763 -0.8132 -0.8823
  154OSM   H12S17166   2.436   4.445   4.188 -0.3880 -0.3992 -0.9432
  154OSM   H12T17167   2.298   4.335   4.246  0.4451 -0.5270 -0.2173
  154OSM   C13S17168   2.234   4.534   4.186  0.0426 -0.2413 -0.8433
  154OSM   H13S17169   2.261   4.611   4.110  1.8420 -0.6160 -0.6130
  154OSM   H13T17170   2.256   4.586   4.281  0.2644 -0.1123 -0.9662
  154OSM   C14S17171   2.085   4.488   4.170  0.4920 -0.7561  0.0143
  154OSM   H14S17172   2.096   4.421   4.082  1.0817 -1.0589  0.3039
  154OSM   H14T17173   2.028   4.580   4.146 -1.3891 -1.5020  1.4028
  154OSM   C15S17174   2.018   4.420   4.288  0.3628  0.6184  0.3898
  154OSM   H15S17175   2.077   4.336   4.328 -1.2282 -1.2356 -0.9491
  154OSM   H15T17176   1.922   4.380   4.247  0.5482  1.5136 -1.0055
  154OSM   C16S17177   1.988   4.513   4.409 -0.1834  0.3134  0.2667
  154OSM   H16S17178   1.926   4.603   4.388  0.4513  0.6965  0.0127
  154OSM   H16T17179   2.086   4.557   4.437  2.0220 -2.8936 -1.7588
  154OSM   C17S17180   1.929   4.445   4.532 -0.0284 -0.5414  0.2044
  154OSM   H17S17181   2.012   4.374   4.548  1.4155  0.5542 -1.9240
  154OSM   H17T17182   1.835   4.397   4.496 -0.1842 -0.2468  0.2157
  154OSM   C18S17183   1.902   4.534   4.652  1.5018 -0.5331 -0.2819
  154OSM   H18S17184   1.995   4.574   4.696  0.4587 -1.2013  2.8395
  154OSM   H18T17185   1.862   4.464   4.729 -2.8599  0.4247 -1.3987
  154OSM   H18U17186   1.815   4.598   4.628  1.3156 -0.3761  0.7589
  154OSM    C1F17187   2.001   4.093   3.165  0.2515 -0.0766 -0.3096
  154OSM     OF17188   2.032   3.978   3.197  0.5251 -0.0498  0.0343
  154OSM    C2F17189   1.865   4.150   3.191  0.1611  0.6895 -0.1391
  154OSM    H2F17190   1.799   4.071   3.149 -1.0527  1.4310  0.3217
  154OSM    H2G17191   1.842   4.240   3.130 -2.4245  0.6485  0.6481
  154OSM    C3F17192   1.847   4.179   3.343  0.1448  1.0916 -0.3518
  154OSM    H3F17193   1.920   4.251   3.386 -2.0926  1.4861  3.2656
  154OSM    H3G17194   1.851   4.081   3.395  0.9108  0.4949 -1.4879
  154OSM    C4F17195   1.713   4.236   3.379  0.7062 -0.1258 -0.5896
  154OSM    H4F17196   1.632   4.222   3.304 -1.1548 -0.3763  1.3602
  154OSM    H4G17197   1.731   4.345   3.365 -1.9297  0.4558 -0.0750
  154OSM    C5F17198   1.661   4.227   3.522  0.3938  0.0205  0.0046
  154OSM    H5F17199   1.563   4.278   3.531 -1.9030 -3.8397 -0.7693
  154OSM    H5G17200   1.720   4.290   3.593 -0.8502  2.4947 -1.0570
  154OSM    C6F17201   1.636   4.080   3.584 -0.4837 -0.5433  0.6573
  154OSM    H6F17202   1.735   4.032   3.595 -0.1296  0.0877  0.2774
  154OSM    H6G17203   1.570   4.018   3.519 -1.7887  0.7840  0.6451
  154OSM    C7F17204   1.557   4.094   3.715  0.6822 -0.4495 -0.2497
  154OSM    H7F17205   1.454   4.128   3.692 -0.3708  0.0737  4.4224
  154OSM    H7G17206   1.597   4.184   3.766 -1.0993 -0.6164  1.5387
  154OSM    C8F17207   1.542   3.969   3.802  0.1170  0.2268 -0.1815
  154OSM    H8F17208   1.642   3.932   3.835 -0.5955  1.5477  3.9353
  154OSM    H8G17209   1.501   3.888   3.738 -1.5995  1.6662 -0.9685
  154OSM    C9F17210   1.447   3.989   3.915 -0.2800 -0.6389 -0.0610
  154OSM    H9F17211   1.360   4.051   3.890 -1.4787 -2.4561 -0.6437
  154OSM   C10F17212   1.462   3.957   4.044  0.1038 -0.0406  0.5006
  154OSM   H10F17213   1.393   3.989   4.123  0.0433  0.0691  0.4016
  154OSM   C11F17214   1.585   3.890   4.095  0.0048  0.1613  0.6827
  154OSM   H11F17215   1.673   3.944   4.054 -2.1318  2.6031 -0.9805
  154OSM   H11G17216   1.591   3.784   4.060  1.3429  0.9614 -1.8105
  154OSM   C12F17217   1.609   3.897   4.247  0.1055 -0.5747 -0.1501
  154OSM   H12F17218   1.711   3.856   4.264  0.0206 -0.8982 -0.4205
  154OSM   H12G17219   1.529   3.835   4.293  0.2581 -1.1059 -0.5835
  154OSM   C13F17220   1.613   4.034   4.308 -0.2105  0.4563 -0.1329
  154OSM   H13F17221   1.539   4.102   4.260 -0.6978 -0.3884 -0.5922
  154OSM   H13G17222   1.714   4.077   4.292 -0.0847  0.3226  0.2845
  154OSM   C14F17223   1.592   4.020   4.460 -0.0678  0.1408 -0.4084
  154OSM   H14F17224   1.589   4.125   4.494 -1.2870  0.5545 -1.6964
  154OSM   H14G17225   1.676   3.965   4.508 -0.9060 -0.2785  0.6306
  154OSM   C15F17226   1.459   3.956   4.513 -0.5193 -0.0012  0.1528
  154OSM   H15F17227   1.446   3.962   4.623  0.1559 -1.3090  0.3240
  154OSM   H15G17228   1.457   3.850   4.480 -0.9858 -0.0155  0.2241
  154OSM   C16F17229   1.326   4.011   4.461  0.5776  0.0746 -0.1757
  154OSM   H16F17230   1.260   3.928   4.497  2.0973 -2.0743 -2.1035
  154OSM   H16G17231   1.315   4.009   4.351 -2.3456 -2.1662  0.0225
  154OSM   C17F17232   1.281   4.140   4.537 -0.2330  0.0564 -1.1671
  154OSM   H17F17233   1.376   4.198   4.542 -0.2594  0.0331  2.3939
  154OSM   H17G17234   1.272   4.110   4.644  5.2699  1.4517 -0.0111
  154OSM   C18F17235   1.159   4.211   4.479 -0.0064 -0.1584  0.3184
  154OSM   H18F17236   1.110   4.281   4.549  0.0916  0.1840  0.0457
  154OSM   H18G17237   1.071   4.150   4.450 -1.0162 -0.1549  3.0209
  154OSM   H18H17238   1.176   4.261   4.382 -2.2897  0.1328  0.0156
  155OSM      N17239   5.188   0.866   2.841  0.3820 -0.1694  0.0365
  155OSM    C1517240   5.220   0.829   2.979 -0.5198  0.1933 -0.2092
  155OSM   H15A17241   5.146   0.765   3.023 -1.4302  0.8715 -0.7172
  155OSM   H15B17242   5.231   0.915   3.044  0.1467  0.6509 -0.8978
  155OSM   H15C17243   5.306   0.765   2.993 -0.9814 -0.2400  0.7306
  155OSM    C1417244   5.307   0.941   2.781 -0.2122  0.1181 -0.2361
  155OSM   H14A17245   5.396   0.896   2.822 -0.4156  0.5864  0.7554
  155OSM   H14B17246   5.297   1.045   2.809  0.4455 -0.0319  0.5798
  155OSM   H14C17247   5.307   0.926   2.674 -0.4142  1.3873 -0.4293
  155OSM    C1317248   5.173   0.735   2.768  0.9100  0.4890 -0.6374
  155OSM   H13A17249   5.165   0.749   2.662  0.2955  0.3520 -0.6094
  155OSM   H13B17250   5.086   0.686   2.809  0.5521  2.2341  0.8098
  155OSM   H13C17251   5.266   0.680   2.778  0.2398 -0.4319  1.0968
  155OSM    C1217252   5.061   0.948   2.824 -0.0784 -0.5983  0.0246
  155OSM   H12A17253   4.976   0.886   2.848 -1.8542  2.1197  1.2602
  155OSM   H12B17254   5.050   0.987   2.724 -0.9943 -1.2940 -0.1608
  155OSM    C1117255   5.042   1.078   2.900 -1.2558  0.2244  0.8819
  155OSM   H11A17256   5.041   1.068   3.010 -0.2580  0.5538  0.9252
  155OSM   H11B17257   4.948   1.108   2.849 -0.7342 -1.8543 -1.5315
  155OSM      P17258   5.159   1.305   2.948 -0.1378 -0.4691 -0.1470
  155OSM    O1317259   5.268   1.388   2.889  0.0417  0.2639 -0.9619
  155OSM    O1417260   5.023   1.361   2.963 -0.0628 -0.0581 -0.4535
  155OSM    O1117261   5.219   1.248   3.082  0.1007  0.1299  0.0516
  155OSM    O1217262   5.141   1.174   2.863  0.4723 -0.0108 -0.0040
  155OSM    C1S17263   5.235   1.326   3.198 -0.3269 -0.3675  0.4465
  155OSM    H1S17264   5.185   1.425   3.193  0.0930 -0.1919 -0.6206
  155OSM    H1T17265   5.344   1.347   3.195 -0.6024  1.2013 -2.9429
  155OSM     NF17266   5.213   1.321   3.447  0.8304 -0.2774  0.6059
  155OSM    HNF17267   5.291   1.318   3.509  0.9127  0.6930  0.5712
  155OSM    C2S17268   5.198   1.237   3.324  0.3888 -0.4353 -0.4275
  155OSM    H2S17269   5.092   1.206   3.313  1.0465 -2.5071 -1.4290
  155OSM    C3S17270   5.286   1.105   3.326 -0.1415 -0.0734  0.1012
  155OSM    H3S17271   5.388   1.134   3.360 -0.8187  2.2183  0.3509
  155OSM     O317272   5.304   1.037   3.199 -0.9500 -0.2909  0.0833
  155OSM    HO317273   5.267   1.098   3.135  0.4031 -0.7743 -1.2262
  155OSM    C4S17274   5.223   1.000   3.417 -0.3830 -0.4081 -0.0917
  155OSM    H4S17275   5.289   0.985   3.504  1.4261 -4.3913 -1.9047
  155OSM    C5S17276   5.116   0.919   3.401  0.1603  0.6362  0.2030
  155OSM    H5S17277   5.065   0.922   3.304  0.9168 -2.7799 -0.4158
  155OSM    C6S17278   5.059   0.817   3.495  0.4595 -0.0314 -0.0391
  155OSM    H6S17279   5.015   0.732   3.438  1.5862  0.1556 -1.2215
  155OSM    H6T17280   4.986   0.868   3.561  2.7428 -0.3505  2.9414
  155OSM    C7S17281   5.146   0.757   3.605 -0.2090  0.6637 -0.2600
  155OSM    H7S17282   5.193   0.833   3.672 -1.2114 -1.7118  3.3955
  155OSM    H7T17283   5.227   0.693   3.564  0.8680  2.4736 -1.0835
  155OSM    C8S17284   5.064   0.670   3.705 -0.1109  0.0907 -0.3512
  155OSM    H8S17285   5.000   0.597   3.651 -2.4889  1.1987  0.8337
  155OSM    H8T17286   4.985   0.731   3.753  0.9103  0.9534  0.2937
  155OSM    C9S17287   5.154   0.600   3.813  0.3873  0.3066  0.3261
  155OSM    H9S17288   5.200   0.680   3.875 -0.8079  1.2943 -0.0376
  155OSM    H9T17289   5.239   0.550   3.762 -0.3641 -0.8022  0.1300
  155OSM   C10S17290   5.090   0.515   3.925  0.0613 -0.5990 -0.1553
  155OSM   H10S17291   5.016   0.449   3.873 -1.0172  2.4070 -2.7876
  155OSM   H10T17292   5.033   0.584   3.990 -0.1832 -0.6670 -0.2944
  155OSM   C11S17293   5.192   0.433   4.003 -0.1466  0.3289 -0.4684
  155OSM   H11S17294   5.265   0.501   4.052  0.4359 -2.1477  2.4949
  155OSM   H11T17295   5.252   0.368   3.935 -1.3291  0.2632 -1.4883
  155OSM   C12S17296   5.109   0.347   4.103 -0.1233 -0.4393  0.9108
  155OSM   H12S17297   5.108   0.244   4.062 -0.1896 -0.9166  2.0895
  155OSM   H12T17298   5.010   0.395   4.114 -0.1454 -0.5545  1.2046
  155OSM   C13S17299   5.171   0.343   4.240 -0.2537  0.4082  0.2212
  155OSM   H13S17300   5.198   0.447   4.268  1.3792  0.3905 -1.1617
  155OSM   H13T17301   5.268   0.289   4.232  0.0038  0.9976 -0.7098
  155OSM   C14S17302   5.081   0.279   4.345  0.2408 -0.0660 -0.2609
  155OSM   H14S17303   5.072   0.172   4.315 -0.5378 -0.9971  2.9375
  155OSM   H14T17304   4.979   0.321   4.335  0.2667 -0.4960 -3.2013
  155OSM   C15S17305   5.146   0.309   4.487  0.1993  0.2459  0.0428
  155OSM   H15S17306   5.103   0.399   4.536 -0.6259  0.3065 -0.7513
  155OSM   H15T17307   5.255   0.321   4.477  0.0439  0.2001 -2.1118
  155OSM   C16S17308   5.119   0.194   4.581 -0.6943  0.0567  0.6970
  155OSM   H16S17309   5.179   0.104   4.559  0.1241  0.3587  1.6155
  155OSM   H16T17310   5.009   0.181   4.575 -1.2027  2.7092  2.4787
  155OSM   C17S17311   5.152   0.222   4.732 -0.4553  0.7027 -0.2109
  155OSM   H17S17312   5.098   0.319   4.742  0.3647  0.9575  2.8085
  155OSM   H17T17313   5.260   0.247   4.740 -0.6579  1.5276  0.0199
  155OSM   C18S17314   5.105   0.123   4.839 -0.0575 -0.5282  0.6302
  155OSM   H18S17315   5.148   0.021   4.832  2.5471  0.4096  1.6648
  155OSM   H18T17316   4.995   0.128   4.854 -0.1479 -2.0874  0.6408
  155OSM   H18U17317   5.146   0.152   4.938  0.9388  0.7839 -0.1400
  155OSM    C1F17318   5.137   1.430   3.470  0.2252 -0.4284  0.1897
  155OSM     OF17319   5.027   1.447   3.413  0.1373  0.5198  0.0937
  155OSM    C2F17320   5.191   1.517   3.584  0.8175 -0.0048  0.6469
  155OSM    H2F17321   5.204   1.623   3.552  0.0694 -0.3826 -0.9952
  155OSM    H2G17322   5.295   1.486   3.608  2.7755  3.7765 -1.8340
  155OSM    C3F17323   5.110   1.487   3.709 -0.6537 -0.2089 -0.9290
  155OSM    H3F17324   5.105   1.377   3.727 -0.8747  0.1148  1.2138
  155OSM    H3G17325   5.008   1.530   3.702 -1.5334 -2.0888 -0.1934
  155OSM    C4F17326   5.176   1.539   3.838 -0.4413  1.2865 -0.2682
  155OSM    H4F17327   5.152   1.647   3.849 -0.6457  1.1003  1.4545
  155OSM    H4G17328   5.284   1.515   3.827 -0.8660 -0.0021 -2.1499
  155OSM    C5F17329   5.130   1.476   3.974  0.1509  0.5528  0.4063
  155OSM    H5F17330   5.147   1.367   3.978 -0.4576  0.5012  2.0953
  155OSM    H5G17331   5.021   1.495   3.976  0.1756  1.3234 -2.1189
  155OSM    C6F17332   5.200   1.545   4.096 -0.2174  0.5127  0.4807
  155OSM    H6F17333   5.190   1.656   4.091 -2.3428  0.3372 -0.0375
  155OSM    H6G17334   5.308   1.520   4.096  0.1318  1.9407  0.4627
  155OSM    C7F17335   5.153   1.485   4.230 -0.5254  0.4353 -0.2462
  155OSM    H7F17336   5.147   1.375   4.234 -1.0876  0.4687 -0.0099
  155OSM    H7G17337   5.050   1.522   4.253 -0.9064 -0.9954  0.4520
  155OSM    C8F17338   5.255   1.539   4.340 -0.0429  0.3898 -0.3505
  155OSM    H8F17339   5.281   1.643   4.310  0.3094  0.5577  0.5281
  155OSM    H8G17340   5.340   1.467   4.339 -1.9341 -2.0402  0.9683
  155OSM    C9F17341   5.184   1.533   4.473  0.8425  0.0170 -0.4326
  155OSM    H9F17342   5.074   1.540   4.464  0.8670  0.4499 -0.4431
  155OSM   C10F17343   5.232   1.555   4.590 -0.3142  0.3188  0.4064
  155OSM   H10F17344   5.168   1.555   4.680  0.3386 -1.5296  0.9257
  155OSM   C11F17345   5.377   1.584   4.631 -0.6195 -0.3130  1.3972
  155OSM   H11F17346   5.385   1.638   4.728  1.4267  1.9514  0.0753
  155OSM   H11G17347   5.436   1.653   4.568 -0.3301 -0.5559  1.4012
  155OSM   C12F17348   5.458   1.454   4.645  0.3651  0.5630 -0.1835
  155OSM   H12F17349   5.562   1.487   4.666  1.0853 -0.5245 -1.7701
  155OSM   H12G17350   5.459   1.395   4.550 -1.9868  0.6646 -0.3192
  155OSM   C13F17351   5.409   1.372   4.767 -0.4958 -0.4145  0.9086
  155OSM   H13F17352   5.313   1.324   4.738 -0.3522 -0.5196  0.6065
  155OSM   H13G17353   5.382   1.436   4.854 -0.3161  0.9528 -0.0169
  155OSM   C14F17354   5.517   1.268   4.809 -0.3673 -0.3989  0.0726
  155OSM   H14F17355   5.615   1.317   4.827 -0.7540  0.0575  1.0205
  155OSM   H14G17356   5.532   1.190   4.732 -1.9714  1.0650 -1.8228
  155OSM   C15F17357   5.470   1.192   4.940 -0.4921  0.3500  0.1146
  155OSM   H15F17358   5.372   1.148   4.914 -0.0270 -0.1367 -0.8753
  155OSM   H15G17359   5.463   1.259   5.028 -0.0038 -1.9555  2.0147
  155OSM   C16F17360   5.564   1.071   4.974  0.1245 -0.9354  1.0357
  155OSM   H16F17361   5.604   1.016   4.886  0.3231 -0.6914  0.9713
  155OSM   H16G17362   5.501   1.003   5.035 -0.1958 -0.5870  1.0930
  155OSM   C17F17363   5.685   1.092   5.063  0.2928  0.1857 -0.0409
  155OSM   H17F17364   5.653   1.158   5.146 -0.8895  0.0576 -0.3785
  155OSM   H17G17365   5.757   1.141   4.994 -0.1768  0.3692 -0.4078
  155OSM   C18F17366   5.755   0.965   5.115 -0.0134 -0.1096 -0.6648
  155OSM   H18F17367   5.836   0.998   5.183  0.1232  0.5038 -1.1138
  155OSM   H18G17368   5.812   0.912   5.036  1.5813 -0.3167  0.5820
  155OSM   H18H17369   5.689   0.910   5.185 -1.5886  2.2501 -0.1450
  156OSM      N17370   0.973   1.038   3.015  1.1221  0.5671 -0.8027
  156OSM    C1517371   0.879   1.127   2.939  1.2334 -0.9104  0.3845
  156OSM   H15A17372   0.864   1.222   2.989  0.5150 -0.1005 -1.3002
  156OSM   H15B17373   0.780   1.087   2.921 -0.1526  1.3832  2.3043
  156OSM   H15C17374   0.910   1.149   2.838  2.2509 -0.2502  0.8222
  156OSM    C1417375   1.103   1.095   3.044  0.2709 -0.2221  0.5345
  156OSM   H14A17376   1.170   1.027   3.094  0.3446 -0.3903  0.2117
  156OSM   H14B17377   1.101   1.186   3.102  2.1378  0.6660 -0.7062
  156OSM   H14C17378   1.147   1.114   2.947 -0.9742  1.2431  0.2253
  156OSM    C1317379   0.903   1.018   3.149 -0.1220 -0.0213  0.5646
  156OSM   H13A17380   0.978   0.980   3.216  2.0371  2.2753 -0.4057
  156OSM   H13B17381   0.806   0.971   3.137 -1.5366  3.4211 -4.1473
  156OSM   H13C17382   0.878   1.110   3.201 -1.0980  0.1895 -0.2420
  156OSM    C1217383   0.986   0.905   2.936  0.6176  0.6772  0.1453
  156OSM   H12A17384   1.026   0.942   2.843  2.2360  0.5852  0.7694
  156OSM   H12B17385   0.890   0.857   2.925  1.5588 -2.5267  3.6576
  156OSM    C1117386   1.086   0.793   2.983 -0.9987  0.0463  0.1566
  156OSM   H11A17387   1.078   0.701   2.921  1.8703 -1.3302  1.6641
  156OSM   H11B17388   1.046   0.766   3.084  1.7827 -2.5348  0.7107
  156OSM      P17389   1.322   0.850   2.873 -0.1116  0.2816  0.2159
  156OSM    O1317390   1.347   0.714   2.812 -0.0904  0.1683 -0.9228
  156OSM    O1417391   1.261   0.945   2.778 -0.2599 -0.3806 -0.3657
  156OSM    O1117392   1.451   0.910   2.934  0.1367  0.1558 -0.0882
  156OSM    O1217393   1.223   0.835   2.999 -0.8134 -0.2339  0.8925
  156OSM    C1S17394   1.460   0.982   3.057  0.1168 -0.0744  0.2773
  156OSM    H1S17395   1.367   1.044   3.064 -0.1859 -0.6558  1.7295
  156OSM    H1T17396   1.548   1.050   3.051  1.6336 -2.0235 -0.5584
  156OSM     NF17397   1.465   0.982   3.305 -0.1230  0.1336 -0.0439
  156OSM    HNF17398   1.550   1.013   3.347 -0.1031  2.1643 -1.4374
  156OSM    C2S17399   1.475   0.896   3.186 -0.1905 -1.0135  0.6267
  156OSM    H2S17400   1.383   0.834   3.194 -1.2911  0.4252 -0.2523
  156OSM    C3S17401   1.594   0.803   3.181 -0.3713  0.1820  0.0907
  156OSM    H3S17402   1.691   0.858   3.183 -0.5849  0.6031 -0.7178
  156OSM     O317403   1.602   0.723   3.060 -0.3109 -0.3838 -0.2885
  156OSM    HO317404   1.554   0.766   2.989  0.6179  0.8913 -0.1939
  156OSM    C4S17405   1.587   0.715   3.298  0.4465  0.4409 -0.1244
  156OSM    H4S17406   1.519   0.629   3.282 -1.4671  1.7563  0.5665
  156OSM    C5S17407   1.678   0.727   3.399 -0.9596  1.1223 -0.2262
  156OSM    H5S17408   1.756   0.796   3.364 -0.9245 -0.0492 -2.7262
  156OSM    C6S17409   1.684   0.651   3.528  0.2516 -0.0876  0.4038
  156OSM    H6S17410   1.719   0.547   3.514 -0.4412  0.0171 -2.9305
  156OSM    H6T17411   1.581   0.654   3.569 -0.5417  0.5286 -1.5023
  156OSM    C7S17412   1.776   0.717   3.633  0.9647  0.1377  0.5730
  156OSM    H7S17413   1.739   0.813   3.674 -1.3317 -0.8301  0.9130
  156OSM    H7T17414   1.878   0.729   3.590  0.1601  1.3054 -1.1180
  156OSM    C8S17415   1.793   0.629   3.762 -0.3923 -0.2342  0.2859
  156OSM    H8S17416   1.883   0.565   3.754 -1.1110 -1.0602 -2.1156
  156OSM    H8T17417   1.708   0.557   3.765  0.2408 -1.0038 -0.1807
  156OSM    C9S17418   1.772   0.701   3.894  0.3719 -0.7638 -0.4285
  156OSM    H9S17419   1.675   0.756   3.888 -0.2991 -2.0184 -1.7555
  156OSM    H9T17420   1.853   0.775   3.910 -1.3657  1.6696 -2.0821
  156OSM   C10S17421   1.772   0.619   4.018  0.5971  0.5440  0.1638
  156OSM   H10S17422   1.843   0.534   4.014  2.3096  1.9712 -0.9990
  156OSM   H10T17423   1.680   0.557   4.028  1.0652 -0.5234 -1.7104
  156OSM   C11S17424   1.795   0.694   4.145 -0.1944  0.4254 -1.0007
  156OSM   H11S17425   1.712   0.764   4.166 -1.0470 -1.1896  1.5884
  156OSM   H11T17426   1.884   0.759   4.133  1.1460 -1.5670 -2.5745
  156OSM   C12S17427   1.794   0.600   4.266 -0.8766  0.3426 -0.6712
  156OSM   H12S17428   1.856   0.509   4.253  0.1088  0.7872  0.7246
  156OSM   H12T17429   1.692   0.556   4.268 -0.4666 -0.5919  1.2257
  156OSM   C13S17430   1.821   0.660   4.400 -0.5210  0.1903  0.4831
  156OSM   H13S17431   1.749   0.740   4.427 -1.6101  0.7030 -3.3550
  156OSM   H13T17432   1.907   0.731   4.399  2.0520 -2.6952 -1.6185
  156OSM   C14S17433   1.841   0.554   4.506 -0.8053  0.2800 -0.1209
  156OSM   H14S17434   1.947   0.522   4.495 -0.1582  2.3958 -0.3943
  156OSM   H14T17435   1.771   0.468   4.495 -0.4994  0.0315 -0.1501
  156OSM   C15S17436   1.837   0.593   4.661 -0.2854 -0.1264  0.1780
  156OSM   H15S17437   1.753   0.663   4.680  1.2527  1.6373  0.7654
  156OSM   H15T17438   1.921   0.662   4.684 -1.4230  0.9703  1.1745
  156OSM   C16S17439   1.814   0.470   4.749 -0.4202  0.7976 -0.0446
  156OSM   H16S17440   1.904   0.407   4.738  2.0099  4.0770 -0.4165
  156OSM   H16T17441   1.723   0.414   4.718  0.3871 -1.0736  0.8015
  156OSM   C17S17442   1.794   0.497   4.896 -0.0601 -0.1737  0.2472
  156OSM   H17S17443   1.754   0.402   4.936  1.1922 -1.1652 -0.7692
  156OSM   H17T17444   1.718   0.577   4.908 -0.1809  0.0509 -1.7639
  156OSM   C18S17445   1.925   0.551   4.964 -0.2765  0.3764 -0.6796
  156OSM   H18S17446   1.901   0.584   5.067  1.0180 -0.9372  0.0826
  156OSM   H18T17447   1.967   0.635   4.905  1.4899  0.6445  0.8730
  156OSM   H18U17448   1.999   0.469   4.976 -0.8873 -0.0557  0.2449
  156OSM    C1F17449   1.350   1.051   3.332 -0.6186  0.2700 -0.5469
  156OSM     OF17450   1.240   1.011   3.281  0.6360 -0.7370  0.0120
  156OSM    C2F17451   1.358   1.165   3.428  0.2308  0.7407 -0.2152
  156OSM    H2F17452   1.298   1.249   3.387  0.4673  1.1391  0.2423
  156OSM    H2G17453   1.463   1.198   3.439  0.5056 -0.5281  1.3306
  156OSM    C3F17454   1.312   1.092   3.561  0.7861 -0.2202  0.3310
  156OSM    H3F17455   1.363   0.993   3.566  1.7618  0.1400 -1.4679
  156OSM    H3G17456   1.202   1.086   3.555  0.5696  2.1857  0.9565
  156OSM    C4F17457   1.334   1.179   3.684 -0.3989  0.5153  0.0219
  156OSM    H4F17458   1.294   1.278   3.652 -1.5984  0.3536  0.9643
  156OSM    H4G17459   1.443   1.183   3.705 -0.2803  1.3670 -0.6857
  156OSM    C5F17460   1.267   1.130   3.811  0.4622 -0.5180 -0.4198
  156OSM    H5F17461   1.296   1.028   3.841 -1.6741 -1.1140 -0.2117
  156OSM    H5G17462   1.157   1.124   3.796  0.4250 -1.1514  0.0855
  156OSM    C6F17463   1.299   1.229   3.928  0.4483  0.0406  0.9412
  156OSM    H6F17464   1.276   1.335   3.900  1.8789  0.3946  0.9900
  156OSM    H6G17465   1.409   1.234   3.942  0.6464 -1.4047  0.0723
  156OSM    C7F17466   1.218   1.203   4.054  0.1391 -1.3841 -1.0124
  156OSM    H7F17467   1.220   1.097   4.088  1.8550 -0.9472  0.4176
  156OSM    H7G17468   1.118   1.234   4.018  0.2571 -1.2182 -1.1948
  156OSM    C8F17469   1.268   1.287   4.176  0.1194  0.4084 -0.5273
  156OSM    H8F17470   1.288   1.391   4.143 -0.1901  0.9916  1.0543
  156OSM    H8G17471   1.365   1.237   4.198  0.2325  1.7448  2.3562
  156OSM    C9F17472   1.172   1.283   4.295  0.5769  0.2287  0.0359
  156OSM    H9F17473   1.072   1.327   4.279  1.4596  1.8372 -1.3185
  156OSM   C10F17474   1.194   1.237   4.420 -0.1482 -0.1992  0.1974
  156OSM   H10F17475   1.105   1.239   4.484 -0.4922 -1.2573 -0.2276
  156OSM   C11F17476   1.327   1.191   4.477 -0.0888  0.5452 -0.3000
  156OSM   H11F17477   1.398   1.276   4.488  2.1943 -1.3337  0.3597
  156OSM   H11G17478   1.385   1.127   4.407  0.4142  1.5463 -0.8021
  156OSM   C12F17479   1.302   1.111   4.606  0.7469  0.9246  0.2565
  156OSM   H12F17480   1.387   1.055   4.651 -0.7295 -1.7198 -0.0013
  156OSM   H12G17481   1.219   1.036   4.606  0.9637  0.6801  1.0846
  156OSM   C13F17482   1.269   1.205   4.719  0.3589 -0.5087  0.0189
  156OSM   H13F17483   1.196   1.282   4.685  1.0710  0.8749  1.4949
  156OSM   H13G17484   1.367   1.254   4.738  0.0982  0.1565 -0.3153
  156OSM   C14F17485   1.222   1.130   4.839  0.0748 -0.2630  0.5800
  156OSM   H14F17486   1.290   1.050   4.874 -1.3838 -1.3499  1.0344
  156OSM   H14G17487   1.130   1.074   4.811 -0.9797  0.1201  2.9782
  156OSM   C15F17488   1.191   1.222   4.960  0.1004  0.0342  0.1620
  156OSM   H15F17489   1.124   1.300   4.919  0.6881  0.7236  0.4768
  156OSM   H15G17490   1.282   1.273   4.998 -0.0541  0.7910 -0.4757
  156OSM   C16F17491   1.113   1.150   5.068 -0.1929 -0.6396 -0.6920
  156OSM   H16F17492   1.175   1.078   5.126 -1.2952 -2.6900 -1.9199
  156OSM   H16G17493   1.027   1.094   5.024  0.2392 -0.2606 -2.0771
  156OSM   C17F17494   1.056   1.243   5.172  0.0004 -0.5645 -0.2851
  156OSM   H17F17495   0.999   1.324   5.122  1.1596 -0.2195 -1.0926
  156OSM   H17G17496   1.143   1.295   5.218 -1.1433  2.7811 -1.6089
  156OSM   C18F17497   0.981   1.172   5.278 -0.2122  0.1659  0.0821
  156OSM   H18F17498   1.042   1.104   5.341 -0.8308  0.2805  0.8203
  156OSM   H18G17499   0.894   1.119   5.233 -0.7859  1.5955 -0.5668
  156OSM   H18H17500   0.941   1.254   5.341 -0.4293  1.1433 -1.2833
  157OSM      N17501   0.905   2.436   2.846  0.2691  0.3774  0.2255
  157OSM    C1517502   0.988   2.537   2.910 -0.1060 -0.4754  0.1444
  157OSM   H15A17503   0.928   2.605   2.970 -1.3918 -2.2281  0.9437
  157OSM   H15B17504   1.045   2.582   2.830 -0.2885 -1.1063 -0.3504
  157OSM   H15C17505   1.054   2.488   2.979 -1.4416 -0.5167  1.4509
  157OSM    C1417506   0.840   2.482   2.726 -0.6081 -0.4111 -0.1426
  157OSM   H14A17507   0.781   2.570   2.744 -1.1844 -0.8473  0.1089
  157OSM   H14B17508   0.765   2.412   2.692  1.1273 -2.6101  0.3205
  157OSM   H14C17509   0.904   2.501   2.640  1.1631 -3.4461  0.3537
  157OSM    C1317510   0.992   2.319   2.811  0.1344 -0.7912 -0.5505
  157OSM   H13A17511   1.085   2.358   2.772 -0.3426 -0.5048 -1.4184
  157OSM   H13B17512   0.941   2.264   2.734  0.8498 -0.1602 -1.4936
  157OSM   H13C17513   1.001   2.258   2.900 -0.1999  1.6830  1.3114
  157OSM    C1217514   0.784   2.382   2.938  0.0472  0.6290 -0.0931
  157OSM   H12A17515   0.721   2.317   2.879  0.7638  1.6797 -2.1160
  157OSM   H12B17516   0.720   2.463   2.968  0.4525  1.9615 -2.5295
  157OSM    C1117517   0.828   2.300   3.067 -1.0099 -0.7928  0.4011
  157OSM   H11A17518   0.750   2.296   3.146 -0.0145  1.2685  1.5862
  157OSM   H11B17519   0.902   2.361   3.124  0.8398 -0.2835 -2.3619
  157OSM      P17520   0.816   2.046   3.020 -0.0217 -0.2755  0.2006
  157OSM    O1317521   0.720   2.056   2.908 -0.6611 -0.4192 -0.5515
  157OSM    O1417522   0.927   1.952   2.999  0.0284  0.6246  0.2264
  157OSM    O1117523   0.734   2.028   3.156  0.2537 -0.3114 -0.2818
  157OSM    O1217524   0.897   2.181   3.038  0.4328 -0.2095  0.4171
  157OSM    C1S17525   0.606   1.958   3.157 -0.6120 -0.4239  0.5744
  157OSM    H1S17526   0.624   1.856   3.116  3.0261  0.3323 -0.0718
  157OSM    H1T17527   0.532   2.004   3.089  0.8859  0.5006 -0.4924
  157OSM     NF17528   0.443   1.827   3.286  0.0074 -0.3312 -0.2170
  157OSM    HNF17529   0.349   1.859   3.279 -0.7153 -1.4662  2.9086
  157OSM    C2S17530   0.547   1.927   3.296 -0.4064  0.6386  0.0425
  157OSM    H2S17531   0.628   1.892   3.363 -2.1756 -0.3539  1.7534
  157OSM    C3S17532   0.500   2.062   3.355  0.1593 -0.7436 -0.1707
  157OSM    H3S17533   0.421   2.111   3.295  0.0529 -1.1545 -0.3725
  157OSM     O317534   0.608   2.151   3.381  0.2221 -0.0867  0.2051
  157OSM    HO317535   0.675   2.102   3.333 -1.6214 -2.8249  0.1850
  157OSM    C4S17536   0.432   2.036   3.485 -0.2202  0.7854  0.2640
  157OSM    H4S17537   0.324   2.014   3.477  0.1461 -1.0508 -0.1605
  157OSM    C5S17538   0.484   2.020   3.606  0.5051  1.0673 -0.6122
  157OSM    H5S17539   0.587   2.053   3.629  0.7715 -0.3646  0.3726
  157OSM    C6S17540   0.406   1.989   3.739  0.1084  0.1524 -0.4706
  157OSM    H6S17541   0.466   2.035   3.820 -1.6872  1.2356  0.3176
  157OSM    H6T17542   0.403   1.880   3.756  0.2888  0.5432  2.6501
  157OSM    C7S17543   0.263   2.042   3.761  0.3289 -0.6510  0.4854
  157OSM    H7S17544   0.207   1.987   3.682  0.9509 -1.3598  0.5298
  157OSM    H7T17545   0.246   2.150   3.739  0.6524  0.0077  3.1792
  157OSM    C8S17546   0.191   1.996   3.889 -0.6025  0.1906  0.0208
  157OSM    H8S17547   0.094   2.045   3.912  0.2825  3.2706 -2.0634
  157OSM    H8T17548   0.255   2.030   3.973  0.3933 -1.4861 -0.0260
  157OSM    C9S17549   0.170   1.845   3.905 -0.1861  0.3211  0.0098
  157OSM    H9S17550   0.256   1.785   3.870  0.1427  1.4840 -1.2719
  157OSM    H9T17551   0.089   1.813   3.837  2.3715 -0.9325 -2.6453
  157OSM   C10S17552   0.126   1.815   4.052  0.0364  0.4808 -0.7245
  157OSM   H10S17553   0.207   1.871   4.104  0.4971  0.1721 -1.0969
  157OSM   H10T17554   0.134   1.708   4.081 -0.8533 -0.3734 -3.3700
  157OSM   C11S17555  -0.010   1.878   4.093  0.5886 -0.3012  0.2352
  157OSM   H11S17556  -0.095   1.848   4.029 -2.1400  3.1683  1.8664
  157OSM   H11T17557   0.001   1.989   4.094 -2.9660  0.1508  0.2811
  157OSM   C12S17558  -0.054   1.845   4.237 -0.2756 -0.0829 -0.4787
  157OSM   H12S17559  -0.067   1.734   4.236 -0.9659 -0.0242  0.5924
  157OSM   H12T17560  -0.157   1.882   4.255 -0.7717 -1.6108 -0.0408
  157OSM   C13S17561   0.047   1.865   4.344 -0.7552  0.4266 -0.4828
  157OSM   H13S17562   0.062   1.973   4.367 -3.3026  1.0227 -1.2606
  157OSM   H13T17563   0.144   1.814   4.326 -1.2611 -0.7930  0.0999
  157OSM   C14S17564  -0.008   1.814   4.472 -0.4289  0.3346 -0.5899
  157OSM   H14S17565  -0.022   1.704   4.459 -1.0209  0.5019 -1.4429
  157OSM   H14T17566  -0.112   1.850   4.484 -0.6201 -0.6336  1.1552
  157OSM   C15S17567   0.065   1.851   4.603 -0.0703  0.5603 -0.2171
  157OSM   H15S17568   0.052   1.961   4.616  0.4444  0.5980  0.0051
  157OSM   H15T17569   0.173   1.828   4.603 -0.4356 -1.2767 -0.6005
  157OSM   C16S17570   0.018   1.777   4.730 -0.0473  0.7021 -0.2943
  157OSM   H16S17571   0.028   1.668   4.708 -1.4635  0.7169 -1.1143
  157OSM   H16T17572  -0.091   1.794   4.741 -0.3165 -0.5952 -0.7209
  157OSM   C17S17573   0.079   1.817   4.865  0.6615 -0.1062 -0.0652
  157OSM   H17S17574   0.015   1.767   4.941  3.2875 -0.0111  2.4068
  157OSM   H17T17575   0.083   1.928   4.869  0.1369 -0.0524 -0.8363
  157OSM   C18S17576   0.221   1.754   4.860  0.4779 -0.4716  0.4187
  157OSM   H18S17577   0.286   1.782   4.946  2.2303  4.0745 -1.9991
  157OSM   H18T17578   0.278   1.779   4.768  2.3007 -0.3305  1.5168
  157OSM   H18U17579   0.217   1.643   4.865 -2.2469 -0.5053 -0.9260
  157OSM    C1F17580   0.463   1.702   3.245 -0.8590  0.2011 -0.1191
  157OSM     OF17581   0.574   1.649   3.229  0.8815 -0.3084  0.0500
  157OSM    C2F17582   0.344   1.624   3.207 -0.0229 -0.1439  0.5442
  157OSM    H2F17583   0.353   1.554   3.121 -0.6329  0.4871 -0.0483
  157OSM    H2G17584   0.261   1.693   3.181  0.4185  0.9751  2.0118
  157OSM    C3F17585   0.302   1.517   3.314 -0.5766 -0.3780  0.0721
  157OSM    H3F17586   0.392   1.453   3.327 -0.0379  0.4242  0.3929
  157OSM    H3G17587   0.223   1.452   3.271  1.4403 -2.9956  0.0338
  157OSM    C4F17588   0.269   1.589   3.444  0.3058  0.1310  0.3671
  157OSM    H4F17589   0.169   1.633   3.460  0.4562  0.4758  0.3763
  157OSM    H4G17590   0.334   1.678   3.458  0.1807  0.1730  0.6806
  157OSM    C5F17591   0.302   1.489   3.560 -0.6892 -0.0867 -0.0639
  157OSM    H5F17592   0.413   1.486   3.559 -0.6692  0.1442  0.6579
  157OSM    H5G17593   0.261   1.388   3.539 -0.3692  0.0891 -1.6720
  157OSM    C6F17594   0.253   1.544   3.696  0.3651  0.0722  1.0111
  157OSM    H6F17595   0.142   1.546   3.695  0.3579  0.2530 -0.5687
  157OSM    H6G17596   0.289   1.647   3.716 -0.2174  0.5350 -0.1949
  157OSM    C7F17597   0.293   1.440   3.805 -0.0209 -0.2365 -0.3510
  157OSM    H7F17598   0.399   1.464   3.827  0.0884  0.0892 -1.1947
  157OSM    H7G17599   0.291   1.336   3.766 -0.1080 -0.4013  0.0849
  157OSM    C8F17600   0.201   1.455   3.928 -0.6593 -0.5426 -0.2659
  157OSM    H8F17601   0.098   1.426   3.898 -0.7108 -1.4170  0.6913
  157OSM    H8G17602   0.208   1.555   3.975  1.1390  0.0229 -1.6291
  157OSM    C9F17603   0.225   1.335   4.018 -0.2233 -1.0488 -1.1712
  157OSM    H9F17604   0.224   1.243   3.958 -0.4347 -1.0862 -1.1097
  157OSM   C10F17605   0.265   1.334   4.149  0.1496  0.2680 -0.0243
  157OSM   H10F17606   0.288   1.234   4.188 -1.5258  0.2579  1.0569
  157OSM   C11F17607   0.300   1.451   4.242 -1.0949  0.2226 -0.0147
  157OSM   H11F17608   0.315   1.547   4.187  0.7603 -0.0795 -0.0939
  157OSM   H11G17609   0.405   1.431   4.271 -1.3372 -1.9777 -0.5312
  157OSM   C12F17610   0.223   1.455   4.378 -0.4176 -0.2131  0.4098
  157OSM   H12F17611   0.216   1.356   4.427 -0.0129 -0.1145  0.6743
  157OSM   H12G17612   0.121   1.492   4.356  0.1293  0.1900 -1.6808
  157OSM   C13F17613   0.292   1.528   4.503 -0.3158 -0.4153 -1.0754
  157OSM   H13F17614   0.225   1.535   4.591  3.0073  0.1274  1.6097
  157OSM   H13G17615   0.313   1.629   4.461  0.1724 -0.3084 -0.5793
  157OSM   C14F17616   0.420   1.458   4.550  0.0373  0.2907  0.1296
  157OSM   H14F17617   0.504   1.465   4.478  0.2556 -0.0022  0.3529
  157OSM   H14G17618   0.401   1.352   4.575 -1.3279  0.6541  0.7445
  157OSM   C15F17619   0.473   1.518   4.688  0.1269 -0.6348  0.5844
  157OSM   H15F17620   0.393   1.557   4.755 -0.3086 -0.4415 -0.0370
  157OSM   H15G17621   0.533   1.605   4.655  0.5599 -1.1684 -0.0746
  157OSM   C16F17622   0.555   1.406   4.764 -0.1512 -0.0163  0.5863
  157OSM   H16F17623   0.626   1.375   4.685  0.0366 -0.0769  0.7760
  157OSM   H16G17624   0.487   1.322   4.790  0.1490 -1.0867 -1.8740
  157OSM   C17F17625   0.627   1.463   4.889  0.1206 -0.1815  0.1636
  157OSM   H17F17626   0.559   1.534   4.940 -1.3766 -0.3152 -1.5660
  157OSM   H17G17627   0.711   1.520   4.845  0.3185 -0.4020  0.2497
  157OSM   C18F17628   0.677   1.349   4.980 -0.4336  0.1427 -0.0751
  157OSM   H18F17629   0.707   1.395   5.076 -2.8001 -0.5544  1.0656
  157OSM   H18G17630   0.766   1.302   4.933 -0.1995  0.2305  0.2717
  157OSM   H18H17631   0.594   1.277   4.999 -0.5106  0.3334  0.3100
  158OSM      N17632   4.436   0.538   2.641 -0.4653  0.4604  0.1239
  158OSM    C1517633   4.499   0.680   2.658 -0.6362  0.2048 -0.3584
  158OSM   H15A17634   4.446   0.742   2.729  0.2900  0.9657 -0.3207
  158OSM   H15B17635   4.503   0.735   2.566  3.5851 -1.1972 -1.2388
  158OSM   H15C17636   4.606   0.678   2.667 -0.6788  0.8783  0.4805
  158OSM    C1417637   4.288   0.567   2.624 -0.0408  0.2175 -0.2092
  158OSM   H14A17638   4.244   0.619   2.708  1.7925  1.3467  0.1339
  158OSM   H14B17639   4.232   0.475   2.621 -0.3832  0.4370 -1.8223
  158OSM   H14C17640   4.276   0.627   2.534 -0.0839  0.9130  0.2524
  158OSM    C1317641   4.482   0.487   2.517 -0.4928 -0.0732  0.0660
  158OSM   H13A17642   4.424   0.534   2.439  2.3292  0.7571 -1.6774
  158OSM   H13B17643   4.473   0.380   2.515 -1.0855 -0.0249  0.0755
  158OSM   H13C17644   4.589   0.496   2.506 -0.1402 -2.4465  1.0278
  158OSM    C1217645   4.473   0.454   2.759  0.6321 -0.1025  0.0599
  158OSM   H12A17646   4.415   0.501   2.837 -1.7702 -2.1375 -0.3448
  158OSM   H12B17647   4.577   0.472   2.778  0.6457 -0.8943  0.7866
  158OSM    C1117648   4.426   0.305   2.752 -0.1001 -1.3618  0.0539
  158OSM   H11A17649   4.474   0.247   2.834  1.5640  1.0908  0.9284
  158OSM   H11B17650   4.470   0.265   2.658  0.4553 -0.8661  0.1024
  158OSM      P17651   4.198   0.285   2.868  0.1385 -0.3036  0.0181
  158OSM    O1317652   4.068   0.325   2.817  0.1661 -0.3479 -0.2613
  158OSM    O1417653   4.222   0.166   2.942  0.3774  0.2923 -0.2989
  158OSM    O1117654   4.256   0.399   2.968  0.0258 -0.0719  0.3953
  158OSM    O1217655   4.287   0.286   2.743 -0.0367 -0.1644 -0.6248
  158OSM    C1S17656   4.189   0.433   3.089  0.3980  0.1155 -0.1493
  158OSM    H1S17657   4.080   0.438   3.073  0.0912 -0.5000  1.5189
  158OSM    H1T17658   4.217   0.539   3.109 -1.3401  0.9404 -1.8416
  158OSM     NF17659   4.120   0.372   3.318  0.0718 -0.8188 -0.3126
  158OSM    HNF17660   4.146   0.430   3.395 -0.8568  2.1072 -2.0287
  158OSM    C2S17661   4.216   0.346   3.210 -0.6075 -1.0215  0.3683
  158OSM    H2S17662   4.210   0.238   3.184  0.8086 -0.7655 -1.2646
  158OSM    C3S17663   4.366   0.356   3.254  0.1569  0.4969  0.5845
  158OSM    H3S17664   4.391   0.462   3.276 -1.6833  0.7657  1.5746
  158OSM     O317665   4.453   0.304   3.154 -0.0291  0.0677  0.1477
  158OSM    HO317666   4.396   0.293   3.077  1.5438 -1.8614 -0.8398
  158OSM    C4S17667   4.391   0.280   3.384  0.0264 -0.3464  1.1636
  158OSM    H4S17668   4.419   0.175   3.368  0.8353  0.1246 -0.8436
  158OSM    C5S17669   4.410   0.331   3.506  0.0282 -0.5295  0.1259
  158OSM    H5S17670   4.396   0.440   3.518 -0.3302 -0.3037 -1.9572
  158OSM    C6S17671   4.465   0.263   3.635  0.2228  0.0151  0.0079
  158OSM    H6S17672   4.390   0.250   3.716  2.4655 -0.2915  2.1401
  158OSM    H6T17673   4.540   0.328   3.686  1.5020  0.1332 -1.9287
  158OSM    C7S17674   4.522   0.127   3.615  0.1571  0.0558 -0.0253
  158OSM    H7S17675   4.612   0.117   3.552  0.0437  0.1254 -0.1987
  158OSM    H7T17676   4.455   0.061   3.556  0.9629 -0.4816 -0.3485
  158OSM    C8S17677   4.552   0.073   3.759 -0.5987  0.1047  0.2185
  158OSM    H8S17678   4.565  -0.036   3.745  4.2333  0.1035  2.6235
  158OSM    H8T17679   4.477   0.100   3.837 -0.4350  1.7571 -0.1556
  158OSM    C9S17680   4.691   0.115   3.805 -0.4055 -1.0207  0.4475
  158OSM    H9S17681   4.699   0.225   3.811 -1.9424 -0.7766 -1.1049
  158OSM    H9T17682   4.766   0.083   3.729 -0.0597 -0.4036  0.5235
  158OSM   C10S17683   4.736   0.041   3.936 -0.2364  0.2560 -0.2309
  158OSM   H10S17684   4.844   0.028   3.955 -0.8217 -0.4620  3.3080
  158OSM   H10T17685   4.693  -0.059   3.910 -1.3008  1.2883 -2.7564
  158OSM   C11S17686   4.680   0.097   4.063  0.9039  0.3871  0.1017
  158OSM   H11S17687   4.681   0.019   4.142 -1.4383 -0.6514 -0.7887
  158OSM   H11T17688   4.578   0.129   4.033  1.2855  1.3876 -0.1448
  158OSM   C12S17689   4.746   0.234   4.096 -0.1222 -0.8621  0.7053
  158OSM   H12S17690   4.777   0.274   3.997  1.2199 -1.1979  0.9781
  158OSM   H12T17691   4.841   0.212   4.148 -0.1355 -0.1277  1.0373
  158OSM   C13S17692   4.667   0.331   4.182 -0.3716 -0.6650 -0.0400
  158OSM   H13S17693   4.595   0.381   4.114  2.2394  2.3837 -0.7941
  158OSM   H13T17694   4.730   0.415   4.218 -2.5703  1.0458  0.0112
  158OSM   C14S17695   4.597   0.260   4.300 -0.0293  0.4249  0.2588
  158OSM   H14S17696   4.511   0.198   4.267 -0.3705  0.7785  0.4761
  158OSM   H14T17697   4.561   0.341   4.367  3.5189  1.3288  1.2764
  158OSM   C15S17698   4.692   0.176   4.394 -0.4882  0.4956 -0.1528
  158OSM   H15S17699   4.786   0.230   4.418  0.0214 -0.6682  0.5192
  158OSM   H15T17700   4.717   0.081   4.342 -3.1127 -0.8218  0.8219
  158OSM   C16S17701   4.633   0.147   4.532  0.4612 -0.5947  0.7456
  158OSM   H16S17702   4.558   0.069   4.510 -0.4450  0.4588 -0.0541
  158OSM   H16T17703   4.588   0.236   4.582  1.5468  0.1710  0.3912
  158OSM   C17S17704   4.735   0.083   4.626 -0.0491 -0.4539  2.2063
  158OSM   H17S17705   4.829   0.141   4.638 -0.0232  0.1518 -0.2772
  158OSM   H17T17706   4.770  -0.015   4.587  0.8847 -0.2314  2.4631
  158OSM   C18S17707   4.670   0.069   4.761  0.4638 -0.1661  0.0069
  158OSM   H18S17708   4.601   0.155   4.774 -1.0853 -1.4297  0.3800
  158OSM   H18T17709   4.750   0.059   4.837 -1.0796 -1.6246  1.5316
  158OSM   H18U17710   4.606  -0.021   4.769 -0.0953  0.3779  2.1682
  158OSM    C1F17711   3.990   0.329   3.319 -0.5092 -0.4180  0.0606
  158OSM     OF17712   3.941   0.291   3.221 -0.1228  0.0444  0.7140
  158OSM    C2F17713   3.920   0.318   3.452 -0.2914  0.0384  0.3556
  158OSM    H2F17714   3.904   0.421   3.491 -1.3633  0.5049 -1.1768
  158OSM    H2G17715   3.990   0.261   3.516 -1.9419 -0.8244  1.4504
  158OSM    C3F17716   3.792   0.233   3.440  0.2194  0.0456 -0.2236
  158OSM    H3F17717   3.822   0.144   3.381  0.3821 -1.9613  2.6966
  158OSM    H3G17718   3.715   0.291   3.384  1.5066  0.3630 -1.7541
  158OSM    C4F17719   3.743   0.182   3.581  0.0033  0.3902 -0.4461
  158OSM    H4F17720   3.817   0.108   3.618 -0.5596  0.0462  0.0192
  158OSM    H4G17721   3.655   0.123   3.547  0.3162  0.8621 -2.1761
  158OSM    C5F17722   3.712   0.303   3.674 -0.0306  0.1679 -0.7309
  158OSM    H5F17723   3.649   0.378   3.621 -0.8774  0.1554  0.2308
  158OSM    H5G17724   3.804   0.360   3.701 -0.1062 -0.6086  1.4099
  158OSM    C6F17725   3.660   0.249   3.806 -0.2207  0.8544 -0.0797
  158OSM    H6F17726   3.726   0.165   3.838 -0.3068  0.0623 -1.8817
  158OSM    H6G17727   3.567   0.189   3.793  0.5555 -0.4578  0.2724
  158OSM    C7F17728   3.632   0.356   3.914 -0.0690 -0.4173  0.0518
  158OSM    H7F17729   3.535   0.400   3.881  0.8818  1.8045  0.0266
  158OSM    H7G17730   3.709   0.436   3.915  0.3220 -0.7866 -0.4248
  158OSM    C8F17731   3.604   0.289   4.052  0.0142 -0.2721  0.4722
  158OSM    H8F17732   3.522   0.214   4.048 -2.9641  2.7252  0.8484
  158OSM    H8G17733   3.581   0.374   4.120  2.1345  0.1941  0.6674
  158OSM    C9F17734   3.736   0.229   4.097 -0.8341 -0.4294 -0.5160
  158OSM    H9F17735   3.792   0.157   4.035  0.9762  1.0905 -0.7607
  158OSM   C10F17736   3.793   0.245   4.220  0.0436  0.2985  0.4508
  158OSM   H10F17737   3.897   0.211   4.230 -0.5095 -1.4212  0.7059
  158OSM   C11F17738   3.747   0.332   4.334 -0.2757  0.4766  0.2270
  158OSM   H11F17739   3.661   0.399   4.315 -0.0923  0.5174 -0.4900
  158OSM   H11G17740   3.829   0.399   4.366  0.2948  0.0106 -0.2336
  158OSM   C12F17741   3.717   0.224   4.445 -0.1737 -0.2318 -0.1748
  158OSM   H12F17742   3.812   0.170   4.466  1.2828  1.2881 -2.4562
  158OSM   H12G17743   3.635   0.157   4.413  1.0772 -1.9926  0.1806
  158OSM   C13F17744   3.668   0.287   4.575  0.2826 -0.4918  0.1965
  158OSM   H13F17745   3.565   0.323   4.554  0.6870 -0.5682 -2.0851
  158OSM   H13G17746   3.740   0.372   4.582  0.5993 -0.8231  1.1776
  158OSM   C14F17747   3.678   0.196   4.691 -0.0530  0.6551 -0.9481
  158OSM   H14F17748   3.782   0.157   4.689  0.4526  1.9482 -1.2536
  158OSM   H14G17749   3.597   0.120   4.691 -1.1294  1.7327  0.7785
  158OSM   C15F17750   3.669   0.270   4.825 -0.1190 -0.4812  0.2136
  158OSM   H15F17751   3.583   0.340   4.828  0.6637  0.4775  0.8201
  158OSM   H15G17752   3.754   0.341   4.837 -1.9291  2.3088 -2.2298
  158OSM   C16F17753   3.655   0.182   4.950  0.3106 -0.6132 -0.0206
  158OSM   H16F17754   3.563   0.122   4.932 -1.3170  0.6970  3.0651
  158OSM   H16G17755   3.634   0.240   5.043 -0.3013 -0.7171 -0.0915
  158OSM   C17F17756   3.761   0.073   4.970 -0.5533  0.4031  0.6428
  158OSM   H17F17757   3.855   0.130   4.988 -0.3505  0.4577 -0.5102
  158OSM   H17G17758   3.772   0.008   4.880  2.1373 -0.0317  1.1825
  158OSM   C18F17759   3.730  -0.013   5.094 -0.2774 -0.3242 -1.3498
  158OSM   H18F17760   3.821  -0.073   5.117 -2.1933 -2.1517  2.3259
  158OSM   H18G17761   3.648  -0.086   5.074 -0.5902 -0.6177  0.7527
  158OSM   H18H17762   3.708   0.050   5.182 -0.3504 -2.3463  0.1661
  159OSM      N17763   0.379   1.579   2.757 -0.5537 -0.2567  0.1869
  159OSM    C1517764   0.483   1.470   2.737 -0.4539  0.3005 -0.2116
  159OSM   H15A17765   0.541   1.497   2.650 -0.4720  3.6562  0.6844
  159OSM   H15B17766   0.449   1.368   2.730  2.5245 -0.7111 -1.1009
  159OSM   H15C17767   0.551   1.470   2.820 -0.8481 -0.6643  0.1213
  159OSM    C1417768   0.307   1.598   2.627  0.5295  0.5733  0.3802
  159OSM   H14A17769   0.380   1.626   2.552  0.5812  1.1997  0.6631
  159OSM   H14B17770   0.225   1.667   2.637 -1.8070 -2.2194  1.9605
  159OSM   H14C17771   0.269   1.503   2.593  0.2654  1.0359 -0.6651
  159OSM    C1317772   0.284   1.540   2.852  0.2912 -0.1718 -0.0118
  159OSM   H13A17773   0.327   1.524   2.949  1.9286 -0.3557 -0.7435
  159OSM   H13B17774   0.235   1.449   2.820 -0.4911  0.5921 -1.0775
  159OSM   H13C17775   0.216   1.624   2.861 -0.5623 -0.4701 -2.7408
  159OSM    C1217776   0.452   1.703   2.804  0.1348 -1.1284  0.2264
  159OSM   H12A17777   0.502   1.736   2.714  2.1307 -0.8656  1.3809
  159OSM   H12B17778   0.527   1.669   2.873  0.1471  0.0439  0.8199
  159OSM    C1117779   0.367   1.818   2.860 -0.2013  0.3510 -0.4214
  159OSM   H11A17780   0.441   1.895   2.891  0.7103 -0.6851  0.0550
  159OSM   H11B17781   0.320   1.784   2.955 -0.2938 -0.1699 -0.6500
  159OSM      P17782   0.307   2.026   2.719 -0.1226 -0.0535 -0.1414
  159OSM    O1317783   0.440   2.026   2.650 -0.0248  0.6666  0.2602
  159OSM    O1417784   0.195   2.076   2.637  0.5945  0.7226 -1.0241
  159OSM    O1117785   0.311   2.099   2.853 -0.1598 -0.8350 -0.1652
  159OSM    O1217786   0.272   1.879   2.764 -0.2944 -0.7497 -0.7250
  159OSM    C1S17787   0.199   2.092   2.949 -0.3791 -0.8841 -0.7091
  159OSM    H1S17788   0.181   1.987   2.980  1.5982 -1.2284 -0.6313
  159OSM    H1T17789   0.105   2.129   2.902 -1.0139 -0.5223  0.7728
  159OSM     NF17790   0.108   2.158   3.176  0.5374 -0.9075 -0.8811
  159OSM    HNF17791   0.047   2.235   3.188  1.8399 -0.2124  2.2908
  159OSM    C2S17792   0.221   2.174   3.085  0.3120  0.3865  0.1124
  159OSM    H2S17793   0.317   2.130   3.117 -0.0308  0.1283  0.7949
  159OSM    C3S17794   0.251   2.322   3.061 -0.8990 -0.1490  0.0375
  159OSM    H3S17795   0.162   2.377   3.022 -0.5042  0.5775  0.1441
  159OSM     O317796   0.357   2.346   2.968  0.5794 -0.7668 -0.5479
  159OSM    HO317797   0.391   2.258   2.949  1.3052 -0.4639 -0.6579
  159OSM    C4S17798   0.273   2.390   3.194  0.1647  0.0053  0.0067
  159OSM    H4S17799   0.181   2.418   3.248 -0.1677 -3.0819  1.2587
  159OSM    C5S17800   0.391   2.408   3.267 -0.1667 -0.5307  0.5209
  159OSM    H5S17801   0.487   2.372   3.229  0.1544  0.2121  0.6043
  159OSM    C6S17802   0.408   2.463   3.411  0.2035  0.2786 -0.3219
  159OSM    H6S17803   0.432   2.572   3.405 -0.8012  0.6089  1.0130
  159OSM    H6T17804   0.486   2.404   3.463 -0.6023 -1.3291 -0.8566
  159OSM    C7S17805   0.279   2.449   3.492 -0.2042  0.1173 -0.0966
  159OSM    H7S17806   0.241   2.345   3.489 -1.0077  0.4020 -0.2803
  159OSM    H7T17807   0.208   2.514   3.436 -0.3430 -0.9239 -1.1703
  159OSM    C8S17808   0.305   2.507   3.638  0.2854 -0.0511 -0.6654
  159OSM    H8S17809   0.338   2.613   3.642  2.5886 -0.6102 -2.5707
  159OSM    H8T17810   0.388   2.448   3.681 -0.5180 -1.7219 -1.3514
  159OSM    C9S17811   0.185   2.487   3.727  0.1292  0.2664  0.1549
  159OSM    H9S17812   0.135   2.389   3.712 -2.9493  1.5625  1.2544
  159OSM    H9T17813   0.101   2.548   3.690 -0.0821 -1.7000 -2.9693
  159OSM   C10S17814   0.211   2.495   3.880 -0.1071  0.4763 -0.2765
  159OSM   H10S17815   0.120   2.497   3.943  0.0483 -3.9197  0.3628
  159OSM   H10T17816   0.263   2.594   3.882  1.1202 -0.0941  3.2250
  159OSM   C11S17817   0.292   2.379   3.938 -0.2309  0.0437 -0.5062
  159OSM   H11S17818   0.390   2.360   3.889 -0.0037 -1.1671  0.3769
  159OSM   H11T17819   0.236   2.285   3.923  0.6315 -0.3582 -1.3065
  159OSM   C12S17820   0.319   2.407   4.091  0.1281  0.6020  0.5231
  159OSM   H12S17821   0.220   2.421   4.139  0.6158  0.1101  1.6928
  159OSM   H12T17822   0.383   2.498   4.101 -1.7129  2.2145 -1.3378
  159OSM   C13S17823   0.388   2.282   4.156 -0.0081  0.8964 -0.2652
  159OSM   H13S17824   0.498   2.279   4.150  0.1491  2.1483  1.1970
  159OSM   H13T17825   0.340   2.187   4.125 -1.8778  0.6999  2.7892
  159OSM   C14S17826   0.345   2.286   4.306  0.3099  0.3921  0.3028
  159OSM   H14S17827   0.387   2.195   4.353 -1.3940 -1.4318 -1.4943
  159OSM   H14T17828   0.235   2.275   4.320  0.3725  1.4515  1.8360
  159OSM   C15S17829   0.389   2.404   4.388 -0.0727 -1.0137  0.4608
  159OSM   H15S17830   0.352   2.496   4.337  1.1868 -0.6837  0.1046
  159OSM   H15T17831   0.499   2.419   4.385 -0.1276 -0.3619  1.4435
  159OSM   C16S17832   0.339   2.383   4.534 -0.1972 -0.4206  0.2099
  159OSM   H16S17833   0.374   2.287   4.578 -1.2045 -0.6844  0.4533
  159OSM   H16T17834   0.228   2.381   4.534 -0.2360 -0.5987 -1.9476
  159OSM   C17S17835   0.381   2.497   4.623  0.2896 -0.5764  0.4389
  159OSM   H17S17836   0.340   2.590   4.578  0.9750  1.6929  4.1203
  159OSM   H17T17837   0.490   2.519   4.616  0.1721  0.2080  0.9370
  159OSM   C18S17838   0.356   2.494   4.769  0.8247  0.2570  1.0215
  159OSM   H18S17839   0.404   2.583   4.816 -0.8689  0.9946  1.4290
  159OSM   H18T17840   0.398   2.400   4.811  1.9594  0.7074  0.9389
  159OSM   H18U17841   0.246   2.501   4.785  0.6224  0.3888 -0.2893
  159OSM    C1F17842   0.085   2.046   3.244 -0.5828 -0.8080  0.0820
  159OSM     OF17843   0.162   1.948   3.226  0.6297  0.0120  0.3738
  159OSM    C2F17844  -0.038   2.037   3.327  0.3394  0.1192 -0.9053
  159OSM    H2F17845  -0.057   1.928   3.336  2.2392 -0.1437  0.9263
  159OSM    H2G17846  -0.121   2.099   3.286 -0.6532 -0.2065  0.5290
  159OSM    C3F17847  -0.015   2.094   3.473 -0.1014 -0.1330  0.0149
  159OSM    H3F17848  -0.024   2.204   3.466 -0.3827 -0.1612 -0.0736
  159OSM    H3G17849   0.088   2.068   3.508 -1.3878 -0.8786  3.6477
  159OSM    C4F17850  -0.113   2.051   3.586  0.3705  0.7783  0.1685
  159OSM    H4F17851  -0.216   2.090   3.568  0.7903  1.4366 -0.9281
  159OSM    H4G17852  -0.072   2.089   3.682 -0.0634  1.7742 -0.0229
  159OSM    C5F17853  -0.114   1.892   3.586  0.5140 -0.6910  0.2706
  159OSM    H5F17854  -0.016   1.854   3.550  0.4269 -2.3879  1.6829
  159OSM    H5G17855  -0.199   1.863   3.521  0.6867  0.6589 -0.5914
  159OSM    C6F17856  -0.147   1.841   3.723  0.1334  0.3289  0.1804
  159OSM    H6F17857  -0.243   1.873   3.768 -0.4895 -0.6769 -0.4107
  159OSM    H6G17858  -0.069   1.891   3.785 -0.2074 -1.4748  2.1489
  159OSM    C7F17859  -0.148   1.686   3.729 -0.2576  0.2135  0.2093
  159OSM    H7F17860  -0.047   1.657   3.692  0.8401  1.9385  1.6686
  159OSM    H7G17861  -0.231   1.644   3.668  0.3015 -1.4687  0.5702
  159OSM    C8F17862  -0.171   1.628   3.875  0.3004  0.0915  0.4676
  159OSM    H8F17863  -0.082   1.640   3.941  0.1014  0.2992  0.7006
  159OSM    H8G17864  -0.171   1.517   3.868  1.3899  0.1103  0.0255
  159OSM    C9F17865  -0.298   1.676   3.937 -0.0924  0.4174  0.4073
  159OSM    H9F17866  -0.306   1.786   3.933  1.7876  0.6176  1.1200
  159OSM   C10F17867  -0.393   1.603   4.002  0.1644 -0.2744  0.4323
  159OSM   H10F17868  -0.485   1.654   4.035 -0.5262 -2.0304  1.3592
  159OSM   C11F17869  -0.393   1.454   4.028 -0.1776 -0.5251 -1.1819
  159OSM   H11F17870  -0.297   1.404   4.004 -0.1105 -1.0037  0.0096
  159OSM   H11G17871  -0.472   1.406   3.967 -1.3662 -1.0650  0.6963
  159OSM   C12F17872  -0.446   1.419   4.170  0.0522 -0.2540 -0.4981
  159OSM   H12F17873  -0.452   1.308   4.178 -0.6517 -0.1541  0.6728
  159OSM   H12G17874  -0.548   1.462   4.179  0.0745 -0.2875 -0.0233
  159OSM   C13F17875  -0.368   1.483   4.289  0.3147  0.1954  0.9695
  159OSM   H13F17876  -0.329   1.585   4.265  0.6412 -0.0919  0.2578
  159OSM   H13G17877  -0.287   1.410   4.309  0.3820 -0.0682 -0.1809
  159OSM   C14F17878  -0.450   1.482   4.416  0.0836 -0.4745  0.1077
  159OSM   H14F17879  -0.458   1.377   4.453 -0.4386 -0.6944 -0.6015
  159OSM   H14G17880  -0.550   1.526   4.394 -0.1687 -1.5802 -1.0560
  159OSM   C15F17881  -0.382   1.566   4.529 -0.2656  0.3116 -0.2031
  159OSM   H15F17882  -0.342   1.662   4.493  0.2634 -0.7085 -2.5327
  159OSM   H15G17883  -0.280   1.532   4.554  0.1518  2.1839  0.8146
  159OSM   C16F17884  -0.462   1.583   4.648 -0.2252  0.3519 -0.0883
  159OSM   H16F17885  -0.464   1.492   4.713 -1.4739 -0.2721 -0.9552
  159OSM   H16G17886  -0.566   1.610   4.621 -0.0649  0.5343 -0.5235
  159OSM   C17F17887  -0.400   1.705   4.734  0.8697  0.0390  0.2406
  159OSM   H17F17888  -0.364   1.780   4.660 -0.3620 -0.0715 -0.4952
  159OSM   H17G17889  -0.320   1.655   4.793  3.2072  3.7010  0.4392
  159OSM   C18F17890  -0.512   1.761   4.818 -0.0322 -0.7457 -1.0452
  159OSM   H18F17891  -0.608   1.707   4.810  0.3656 -1.3359 -2.0217
  159OSM   H18G17892  -0.536   1.864   4.781 -1.7985 -1.1281 -1.0329
  159OSM   H18H17893  -0.484   1.779   4.924 -0.9258  1.3384 -1.1068
  160OSM      N17894   4.009   2.588   2.904 -0.5560 -0.3147  0.2597
  160OSM    C1517895   4.124   2.577   2.806  0.4688 -0.4279  0.2374
  160OSM   H15A17896   4.118   2.473   2.778  0.9127 -1.2908  3.0491
  160OSM   H15B17897   4.214   2.582   2.866  0.7268 -0.3156 -0.1521
  160OSM   H15C17898   4.114   2.657   2.733  1.6114  1.7079  2.2812
  160OSM    C1417899   4.043   2.705   2.988  0.9833 -0.2036  0.7814
  160OSM   H14A17900   4.071   2.780   2.917 -0.8046  0.0663  0.3137
  160OSM   H14B17901   4.134   2.685   3.044  0.6602 -1.7555  0.8155
  160OSM   H14C17902   3.967   2.735   3.059 -0.0818 -2.8811  0.9198
  160OSM    C1317903   3.872   2.610   2.836  0.2138  0.1780 -0.4792
  160OSM   H13A17904   3.806   2.643   2.914 -0.3396 -1.0802 -0.4017
  160OSM   H13B17905   3.836   2.524   2.782  1.2532  0.5397 -1.8034
  160OSM   H13C17906   3.870   2.696   2.769 -1.5948  0.2143 -0.4145
  160OSM    C1217907   3.995   2.473   2.997  0.2459  0.3241  0.1777
  160OSM   H12A17908   3.993   2.381   2.940  0.9239 -0.0120  0.6850
  160OSM   H12B17909   3.897   2.471   3.042 -0.4347  0.7055 -1.2168
  160OSM    C1117910   4.100   2.439   3.108 -0.4473 -0.0352  0.0723
  160OSM   H11A17911   4.075   2.347   3.164  1.9887 -0.9602 -0.2326
  160OSM   H11B17912   4.093   2.523   3.180 -0.1543 -0.9216  1.1610
  160OSM      P17913   4.278   2.284   2.998  0.3216  0.1435 -0.3951
  160OSM    O1317914   4.166   2.190   2.973 -0.4900 -0.3568  0.2144
  160OSM    O1417915   4.373   2.300   2.890 -0.1802 -0.5694 -0.6380
  160OSM    O1117916   4.349   2.229   3.134 -0.4119  0.4158 -0.1216
  160OSM    O1217917   4.231   2.425   3.048 -0.3344 -0.0066  0.5509
  160OSM    C1S17918   4.486   2.272   3.169 -0.9245  0.7868  0.1765
  160OSM    H1S17919   4.519   2.372   3.132  4.4891 -0.8736 -0.3843
  160OSM    H1T17920   4.571   2.208   3.136 -2.8027 -1.7630  0.0029
  160OSM     NF17921   4.605   2.353   3.364 -0.2543 -0.0978 -0.0139
  160OSM    HNF17922   4.694   2.308   3.362  0.4508  1.2556 -0.1825
  160OSM    C2S17923   4.489   2.279   3.324  0.3073  0.9122  0.4661
  160OSM    H2S17924   4.405   2.343   3.359  0.1763  0.5617  0.7971
  160OSM    C3S17925   4.473   2.137   3.391  0.0908 -0.4217 -0.2629
  160OSM    H3S17926   4.564   2.075   3.378  0.5970 -0.0934  1.5516
  160OSM     O317927   4.362   2.051   3.336 -0.0679 -0.6327  0.1015
  160OSM    HO317928   4.336   2.113   3.267  1.4318  0.7796  0.7349
  160OSM    C4S17929   4.471   2.154   3.543 -0.3766 -0.3488 -0.1907
  160OSM    H4S17930   4.567   2.192   3.581 -0.1623 -0.5645 -0.5075
  160OSM    C5S17931   4.364   2.150   3.621 -0.0144 -0.2663 -0.1021
  160OSM    H5S17932   4.266   2.130   3.575  1.3270 -0.8183 -2.9440
  160OSM    C6S17933   4.380   2.178   3.766  0.0705 -0.0218 -0.7922
  160OSM    H6S17934   4.280   2.181   3.814  0.8259  1.2870  0.7948
  160OSM    H6T17935   4.426   2.277   3.783 -1.8943  0.8209 -0.2329
  160OSM    C7S17936   4.463   2.076   3.838  0.6469  0.6524 -0.1464
  160OSM    H7S17937   4.559   2.053   3.786  1.0046 -1.0907  1.1884
  160OSM    H7T17938   4.423   1.973   3.840  1.4964  0.3235  0.8839
  160OSM    C8S17939   4.505   2.124   3.974 -0.0368 -0.0532  0.3336
  160OSM    H8S17940   4.406   2.150   4.017 -1.7376 -1.1702 -2.6060
  160OSM    H8T17941   4.567   2.215   3.971 -0.2209  0.0866  0.6378
  160OSM    C9S17942   4.575   2.007   4.048 -0.2754  0.0866 -0.0014
  160OSM    H9S17943   4.676   1.982   4.008  0.9003  0.3374  2.5677
  160OSM    H9T17944   4.520   1.911   4.035 -0.2442  0.1835 -0.8642
  160OSM   C10S17945   4.594   2.024   4.204 -0.1049  0.5965 -1.0240
  160OSM   H10S17946   4.493   2.062   4.232 -0.3354 -1.1235  0.6979
  160OSM   H10T17947   4.670   2.104   4.217 -1.1497  1.2734  1.5214
  160OSM   C11S17948   4.613   1.891   4.279 -0.3522 -0.3875 -0.7829
  160OSM   H11S17949   4.707   1.842   4.247 -0.0615 -1.1863  1.1461
  160OSM   H11T17950   4.518   1.836   4.259 -2.6774  2.9553  0.1286
  160OSM   C12S17951   4.609   1.915   4.431 -0.2545  0.4682 -0.1447
  160OSM   H12S17952   4.506   1.916   4.473  0.1254  1.6271  0.8339
  160OSM   H12T17953   4.637   2.019   4.457  2.1118  0.1545 -1.2393
  160OSM   C13S17954   4.692   1.807   4.505  0.0598  0.5508  0.0225
  160OSM   H13S17955   4.797   1.803   4.469  0.2611  2.1555  0.3523
  160OSM   H13T17956   4.646   1.709   4.481 -0.8760  1.1963 -0.9030
  160OSM   C14S17957   4.700   1.823   4.654 -0.6428  0.1850  0.1023
  160OSM   H14S17958   4.603   1.815   4.708 -0.9416  2.6615  0.0519
  160OSM   H14T17959   4.747   1.922   4.671  0.0809  0.1222 -1.3630
  160OSM   C15S17960   4.798   1.716   4.703  0.8393  0.1437 -0.0412
  160OSM   H15S17961   4.899   1.718   4.656  0.0324  0.4911 -1.8559
  160OSM   H15T17962   4.748   1.618   4.682  0.1460  0.5876 -0.4882
  160OSM   C16S17963   4.823   1.720   4.855  0.4012 -0.2985 -0.2791
  160OSM   H16S17964   4.727   1.708   4.910 -0.7258  0.1661 -2.0706
  160OSM   H16T17965   4.853   1.825   4.877  1.1370 -0.8057  1.3354
  160OSM   C17S17966   4.921   1.612   4.894  0.1112 -0.4487  0.6771
  160OSM   H17S17967   5.002   1.620   4.818 -1.6075  0.4089 -1.1491
  160OSM   H17T17968   4.864   1.521   4.866  0.0260 -0.2382  0.1538
  160OSM   C18S17969   4.962   1.623   5.036  0.7177 -0.3295  0.5902
  160OSM   H18S17970   5.032   1.543   5.067 -0.3756 -1.4683  0.1806
  160OSM   H18T17971   4.878   1.620   5.108 -0.1261 -1.9350 -0.4104
  160OSM   H18U17972   5.015   1.720   5.051  0.1724  0.0459  0.1615
  160OSM    C1F17973   4.604   2.487   3.366  0.0573  0.3257 -0.3420
  160OSM     OF17974   4.505   2.552   3.329 -0.3135 -0.1516 -0.4470
  160OSM    C2F17975   4.727   2.551   3.412 -0.0543 -0.3124 -1.2602
  160OSM    H2F17976   4.743   2.635   3.341 -0.0222 -0.5696 -1.5612
  160OSM    H2G17977   4.818   2.487   3.414  1.7531  2.1494 -0.3475
  160OSM    C3F17978   4.716   2.607   3.555  0.2916 -0.0919 -0.1235
  160OSM    H3F17979   4.627   2.674   3.553  1.0186  1.2820  3.9038
  160OSM    H3G17980   4.809   2.666   3.571 -0.9519  1.8755  0.2533
  160OSM    C4F17981   4.689   2.507   3.670  0.1611  0.6431  0.1599
  160OSM    H4F17982   4.587   2.464   3.670 -1.0427  3.2713  0.0562
  160OSM    H4G17983   4.696   2.563   3.765  0.6587 -2.6931  2.2401
  160OSM    C5F17984   4.787   2.393   3.665 -0.3236  0.1886 -0.1179
  160OSM    H5F17985   4.890   2.431   3.652 -0.2236  0.3471  0.9902
  160OSM    H5G17986   4.778   2.320   3.582  1.8098 -2.3703  1.7311
  160OSM    C6F17987   4.785   2.317   3.798  0.0933 -0.3561 -0.4154
  160OSM    H6F17988   4.695   2.254   3.814  0.3491 -0.3439  1.2586
  160OSM    H6G17989   4.787   2.393   3.879  1.1023 -1.6626  0.8283
  160OSM    C7F17990   4.904   2.222   3.816  0.0902 -0.3853  0.6195
  160OSM    H7F17991   4.936   2.210   3.922  2.1783  2.0040  0.3531
  160OSM    H7G17992   4.986   2.277   3.766  1.0805 -2.0047  0.3754
  160OSM    C8F17993   4.899   2.092   3.744 -0.4462 -0.4570  0.0148
  160OSM    H8F17994   4.877   2.118   3.639  1.5126  1.5546  0.0461
  160OSM    H8G17995   4.811   2.032   3.780  0.0769 -1.4880 -0.3788
  160OSM    C9F17996   5.034   2.026   3.764 -0.5311 -0.3355 -0.4879
  160OSM    H9F17997   5.115   2.070   3.705 -0.0064  0.3450  0.7142
  160OSM   C10F17998   5.059   1.936   3.859  0.4761 -0.3378 -0.4012
  160OSM   H10F17999   5.162   1.897   3.861 -0.2697 -2.7752 -2.6292
  160OSM   C11F18000   4.962   1.868   3.956  0.4052 -0.6439 -0.2677
  160OSM   H11F18001   4.960   1.758   3.939  2.2598 -0.5566 -1.4049
  160OSM   H11G18002   4.859   1.908   3.946 -0.2118 -2.0423  0.1881
  160OSM   C12F18003   5.015   1.901   4.101 -0.8403 -0.1427  0.2687
  160OSM   H12F18004   5.124   1.877   4.102 -1.0872 -1.3162  0.5038
  160OSM   H12G18005   4.957   1.849   4.180 -0.8685  1.0652  1.0825
  160OSM   C13F18006   5.011   2.054   4.143  0.3864 -0.0970 -0.1113
  160OSM   H13F18007   4.910   2.098   4.141  0.6422  0.4927 -0.3071
  160OSM   H13G18008   5.064   2.122   4.072 -0.2406 -1.2166 -1.7060
  160OSM   C14F18009   5.053   2.089   4.288  0.1619 -0.0323 -0.7236
  160OSM   H14F18010   5.161   2.064   4.292  0.5658  1.3269 -2.0404
  160OSM   H14G18011   4.993   2.032   4.361 -0.0819  1.8228  0.5771
  160OSM   C15F18012   5.018   2.232   4.314  0.0999 -0.3318 -0.5190
  160OSM   H15F18013   4.909   2.250   4.304  0.1570 -0.6936 -2.0078
  160OSM   H15G18014   5.060   2.287   4.227  1.3336  0.4867  0.5496
  160OSM   C16F18015   5.086   2.285   4.440  0.3908  0.7786  0.1321
  160OSM   H16F18016   5.190   2.248   4.457  0.0946  0.3028  1.0056
  160OSM   H16G18017   5.018   2.253   4.522 -2.5423  1.2058 -1.9654
  160OSM   C17F18018   5.083   2.434   4.443  0.2143 -0.1297 -0.3457
  160OSM   H17F18019   4.993   2.473   4.391 -0.2274 -1.8819 -0.9716
  160OSM   H17G18020   5.171   2.479   4.393 -0.2116  0.9675 -0.1515
  160OSM   C18F18021   5.091   2.477   4.589  0.3640 -0.1022  0.6553
  160OSM   H18F18022   5.001   2.450   4.649  0.3251 -0.9095  0.2361
  160OSM   H18G18023   5.113   2.584   4.610 -0.2099  0.7028 -2.3846
  160OSM   H18H18024   5.175   2.420   4.634  0.5668 -0.7558 -0.5094
  161OSM      N18025   1.913   1.426   2.606  0.3200  0.1568 -0.4095
  161OSM    C1518026   1.884   1.572   2.605 -0.4063  0.4691 -0.0377
  161OSM   H15A18027   1.893   1.605   2.502 -0.6669 -0.6906 -0.4493
  161OSM   H15B18028   1.954   1.615   2.675 -0.5793 -0.3528  0.6559
  161OSM   H15C18029   1.783   1.586   2.638  0.3384  2.0330  1.7731
  161OSM    C1418030   1.843   1.348   2.502 -0.0809 -0.9722  0.1353
  161OSM   H14A18031   1.737   1.371   2.495  0.2994  1.2784  0.8563
  161OSM   H14B18032   1.848   1.244   2.530 -0.4789 -1.1278 -0.3524
  161OSM   H14C18033   1.887   1.362   2.404  0.5423  2.1168  0.7470
  161OSM    C1318034   2.060   1.415   2.571 -0.7927 -0.1514 -0.1168
  161OSM   H13A18035   2.106   1.481   2.643 -1.4474 -2.3237  2.4403
  161OSM   H13B18036   2.080   1.454   2.473 -1.8985  0.3828 -0.1477
  161OSM   H13C18037   2.104   1.317   2.583  1.1152  0.7563  0.5907
  161OSM    C1218038   1.891   1.372   2.748  0.0002 -0.0732 -0.3688
  161OSM   H12A18039   1.944   1.435   2.817  0.4321 -0.5009 -0.3052
  161OSM   H12B18040   1.926   1.270   2.754 -2.0561 -0.7274  2.6965
  161OSM    C1118041   1.739   1.366   2.795 -0.0054  0.4052 -0.0655
  161OSM   H11A18042   1.735   1.328   2.899  1.2326  1.2308  0.3107
  161OSM   H11B18043   1.681   1.289   2.740 -1.2580  0.9342  0.4884
  161OSM      P18044   1.544   1.539   2.839  0.1734  0.0688 -0.3927
  161OSM    O1318045   1.539   1.688   2.840 -0.3078  0.0303 -0.4216
  161OSM    O1418046   1.424   1.474   2.778  0.0614  0.0624 -0.3243
  161OSM    O1118047   1.551   1.493   2.991  0.2427  0.3947  0.0770
  161OSM    O1218048   1.674   1.493   2.775 -0.3366 -0.2075 -0.3539
  161OSM    C1S18049   1.667   1.529   3.064  0.2082  0.4983  0.1371
  161OSM    H1S18050   1.724   1.613   3.018 -1.0361  0.4614 -1.5445
  161OSM    H1T18051   1.727   1.438   3.088  0.4957  0.8624  0.8047
  161OSM     NF18052   1.753   1.647   3.255 -0.1733  0.4079 -0.1454
  161OSM    HNF18053   1.808   1.599   3.324 -0.5600 -0.1073 -0.1918
  161OSM    C2S18054   1.633   1.587   3.199 -0.3767 -0.0392  0.8249
  161OSM    H2S18055   1.551   1.659   3.180 -1.1485 -0.9834  0.5058
  161OSM    C3S18056   1.569   1.479   3.292  0.0618 -0.5447  1.4516
  161OSM    H3S18057   1.651   1.407   3.312 -0.3822 -0.9228  1.9173
  161OSM     O318058   1.469   1.400   3.222 -0.0646 -0.0266  0.1421
  161OSM    HO318059   1.494   1.407   3.129 -3.6171  2.2489 -0.8315
  161OSM    C4S18060   1.513   1.538   3.418 -0.4784 -0.1638 -0.0667
  161OSM    H4S18061   1.465   1.637   3.416 -0.4003 -0.1307 -1.5121
  161OSM    C5S18062   1.510   1.477   3.539  0.3184  0.3744  0.1770
  161OSM    H5S18063   1.539   1.371   3.541 -3.0283 -0.7084 -0.9018
  161OSM    C6S18064   1.443   1.533   3.667 -0.3759 -0.1191 -0.2966
  161OSM    H6S18065   1.355   1.469   3.691 -0.8741  1.1986  1.5929
  161OSM    H6T18066   1.418   1.640   3.656  2.3699  0.4027 -2.4989
  161OSM    C7S18067   1.545   1.527   3.782 -0.4944 -0.5901 -0.3042
  161OSM    H7S18068   1.639   1.577   3.751 -0.6804 -0.3093 -0.4188
  161OSM    H7T18069   1.594   1.428   3.795  3.0037  1.0779  0.3786
  161OSM    C8S18070   1.497   1.582   3.918  0.4343  0.1835 -0.0606
  161OSM    H8S18071   1.390   1.557   3.931  0.7371 -0.6596  1.0071
  161OSM    H8T18072   1.520   1.690   3.920 -0.5215  0.4215 -0.9944
  161OSM    C9S18073   1.560   1.505   4.038 -0.7980 -0.2803 -0.0082
  161OSM    H9S18074   1.667   1.486   4.017 -0.8576 -0.8128  0.1687
  161OSM    H9T18075   1.519   1.403   4.050  1.8165 -1.2900  1.0235
  161OSM   C10S18076   1.532   1.558   4.181  0.3491  0.3192 -0.0424
  161OSM   H10S18077   1.422   1.551   4.196  0.1606 -0.3310 -1.5745
  161OSM   H10T18078   1.555   1.666   4.183  2.0732 -0.0018 -0.5588
  161OSM   C11S18079   1.601   1.490   4.292 -0.5870 -0.7097 -0.3883
  161OSM   H11S18080   1.706   1.524   4.298 -0.8507 -0.0170  0.6791
  161OSM   H11T18081   1.599   1.379   4.286 -0.1001 -0.8135  1.0303
  161OSM   C12S18082   1.540   1.537   4.421  0.2499 -0.0108  0.1536
  161OSM   H12S18083   1.434   1.511   4.440  0.9538 -1.9298  1.8226
  161OSM   H12T18084   1.547   1.647   4.436  1.7728  0.1178 -1.2060
  161OSM   C13S18085   1.620   1.476   4.540 -0.3499  0.3526  0.2880
  161OSM   H13S18086   1.724   1.512   4.534 -0.3647  0.2831 -0.4643
  161OSM   H13T18087   1.610   1.366   4.535 -3.1870  0.5569 -0.9860
  161OSM   C14S18088   1.570   1.535   4.673  0.7158 -0.9036 -0.2274
  161OSM   H14S18089   1.465   1.502   4.691  1.2022 -1.1373  2.6461
  161OSM   H14T18090   1.586   1.645   4.676  0.4138 -0.8745  0.6414
  161OSM   C15S18091   1.638   1.468   4.788 -0.4512 -0.6097  0.2952
  161OSM   H15S18092   1.739   1.508   4.807 -1.3547  0.5562  3.0268
  161OSM   H15T18093   1.651   1.358   4.775  3.0976 -0.2637 -0.1038
  161OSM   C16S18094   1.567   1.493   4.919  0.1946  0.2835 -0.4629
  161OSM   H16S18095   1.458   1.477   4.908  0.0839  0.4442  0.3828
  161OSM   H16T18096   1.572   1.601   4.941 -1.3023  0.0250  1.3430
  161OSM   C17S18097   1.629   1.404   5.035  0.4830  0.1376 -0.0618
  161OSM   H17S18098   1.734   1.426   5.063  0.4503  0.2508 -0.0313
  161OSM   H17T18099   1.644   1.298   5.005  1.0497 -0.2220  1.4082
  161OSM   C18S18100   1.539   1.412   5.159  0.4307 -0.0436 -0.6488
  161OSM   H18S18101   1.435   1.418   5.121 -1.5932  0.2596  4.2178
  161OSM   H18T18102   1.541   1.511   5.211 -0.2608  0.5863 -1.7801
  161OSM   H18U18103   1.551   1.322   5.223  0.4025  0.7765  0.5437
  161OSM    C1F18104   1.797   1.762   3.210  0.6585 -0.1427 -0.0221
  161OSM     OF18105   1.732   1.825   3.125 -0.1074 -0.0705  0.0632
  161OSM    C2F18106   1.927   1.812   3.264  0.3085  0.1687  0.4457
  161OSM    H2F18107   1.923   1.921   3.247 -1.1712 -0.0531 -0.8682
  161OSM    H2G18108   2.009   1.763   3.207  1.1920  1.4429  0.5751
  161OSM    C3F18109   1.967   1.773   3.407  0.0438 -0.7537 -0.5757
  161OSM    H3F18110   2.057   1.831   3.435  1.1401 -3.5248  2.2970
  161OSM    H3G18111   2.000   1.667   3.412  0.6149 -0.5787 -0.5587
  161OSM    C4F18112   1.866   1.801   3.518  0.0539 -1.0183 -0.5796
  161OSM    H4F18113   1.782   1.728   3.512  0.8925 -2.0420 -0.1805
  161OSM    H4G18114   1.825   1.904   3.509 -1.7812 -1.3838  2.4386
  161OSM    C5F18115   1.929   1.794   3.661  0.1795  0.8786  0.0518
  161OSM    H5F18116   2.008   1.871   3.669  1.8485 -0.8966  1.8875
  161OSM    H5G18117   1.977   1.697   3.686 -2.4887 -0.4489  0.4300
  161OSM    C6F18118   1.830   1.827   3.774  0.5632 -0.2685  0.5524
  161OSM    H6F18119   1.748   1.753   3.779 -0.5389  0.9929  3.6910
  161OSM    H6G18120   1.780   1.923   3.751  0.0353 -0.5463  0.5354
  161OSM    C7F18121   1.904   1.834   3.907 -0.2839  0.0946  0.3743
  161OSM    H7F18122   1.958   1.931   3.909 -0.4439  0.1999 -0.1983
  161OSM    H7G18123   1.976   1.751   3.894  0.7538  0.9751  0.3849
  161OSM    C8F18124   1.832   1.816   4.036 -0.3781 -0.2722 -0.4512
  161OSM    H8F18125   1.899   1.807   4.124  1.7542  1.3861 -1.7956
  161OSM    H8G18126   1.771   1.724   4.023 -0.3012 -0.2195 -1.1997
  161OSM    C9F18127   1.729   1.934   4.050 -0.5249  0.8635  0.2616
  161OSM    H9F18128   1.636   1.899   4.004  0.0139 -0.2497 -0.0360
  161OSM   C10F18129   1.741   2.039   4.125 -0.8831  0.4038 -0.6291
  161OSM   H10F18130   1.666   2.119   4.119  0.5240  1.6705 -3.5380
  161OSM   C11F18131   1.863   2.072   4.210 -0.1375 -0.5674  0.2980
  161OSM   H11F18132   1.897   2.175   4.186  0.4887 -1.1186 -1.3311
  161OSM   H11G18133   1.946   2.005   4.178  0.9056  0.6915  0.2578
  161OSM   C12F18134   1.830   2.048   4.353  0.4670 -0.1564  0.0793
  161OSM   H12F18135   1.733   2.098   4.373 -1.3489 -3.1143 -0.6970
  161OSM   H12G18136   1.909   2.091   4.418 -1.9120  0.7387  2.5366
  161OSM   C13F18137   1.812   1.900   4.394 -0.0436 -0.1259 -0.2674
  161OSM   H13F18138   1.914   1.858   4.380  0.7286  1.6481 -0.2005
  161OSM   H13G18139   1.727   1.858   4.335 -0.4463 -1.8934  1.4734
  161OSM   C14F18140   1.780   1.886   4.543  0.0079 -0.3970  0.1024
  161OSM   H14F18141   1.727   1.789   4.557 -0.6575 -0.2736 -1.2863
  161OSM   H14G18142   1.701   1.960   4.567  0.2254  0.8122 -2.5216
  161OSM   C15F18143   1.903   1.905   4.630 -0.5703 -0.2688 -0.0700
  161OSM   H15F18144   1.936   2.011   4.633 -0.2525 -0.1056 -4.0950
  161OSM   H15G18145   1.987   1.840   4.600  0.5155  1.7506 -1.5902
  161OSM   C16F18146   1.875   1.876   4.783 -0.1077 -0.1626 -0.6330
  161OSM   H16F18147   1.970   1.905   4.832 -0.3169 -2.4913  1.3133
  161OSM   H16G18148   1.869   1.768   4.805  0.4407 -0.7899 -3.1843
  161OSM   C17F18149   1.740   1.920   4.834  0.4742 -0.2467  0.2912
  161OSM   H17F18150   1.665   1.867   4.772  0.5936 -0.7180  0.5431
  161OSM   H17G18151   1.711   2.027   4.826 -1.2226 -0.5987  1.1452
  161OSM   C18F18152   1.706   1.868   4.979 -0.0786  0.6478  0.6691
  161OSM   H18F18153   1.755   1.768   4.979  0.6224  0.9794  0.9113
  161OSM   H18G18154   1.599   1.865   5.006 -0.6605  1.4992 -1.3675
  161OSM   H18H18155   1.763   1.934   5.049  2.4686  0.6946 -1.2840
  162OSM      N18156   3.356   1.973   3.293 -0.5160 -0.0613 -0.0526
  162OSM    C1518157   3.500   1.996   3.328  0.8415  0.5707  0.1930
  162OSM   H15A18158   3.509   2.075   3.401 -2.9151 -0.1363  1.6872
  162OSM   H15B18159   3.546   2.020   3.233 -2.5752 -0.3837 -1.8943
  162OSM   H15C18160   3.554   1.909   3.361  0.5232 -0.4824 -1.8928
  162OSM    C1418161   3.264   1.966   3.413  0.0357 -0.0769 -0.4194
  162OSM   H14A18162   3.256   2.065   3.455 -1.8154  0.9108 -2.8675
  162OSM   H14B18163   3.300   1.900   3.490 -2.2149  0.0634  0.8151
  162OSM   H14C18164   3.164   1.940   3.382 -0.8049  1.7539  0.6479
  162OSM    C1318165   3.318   2.084   3.204  0.0904 -0.1776  0.3308
  162OSM   H13A18166   3.321   2.185   3.244  0.7746 -0.1433  0.1942
  162OSM   H13B18167   3.219   2.060   3.166 -0.4989  1.8663  0.4522
  162OSM   H13C18168   3.381   2.089   3.117  0.1424  2.3611  0.4261
  162OSM    C1218169   3.350   1.846   3.215 -0.3517 -0.7947  0.0974
  162OSM   H12A18170   3.386   1.771   3.283 -0.9826 -2.0980 -0.9669
  162OSM   H12B18171   3.416   1.844   3.129  0.6407  0.0950  0.8086
  162OSM    C1118172   3.205   1.803   3.171 -0.2264 -0.3501 -0.7351
  162OSM   H11A18173   3.152   1.791   3.268  1.6662 -0.0089  0.3858
  162OSM   H11B18174   3.214   1.702   3.126  0.7517 -1.2507  1.3482
  162OSM      P18175   2.996   1.864   3.027 -0.0052  0.4125 -0.2304
  162OSM    O1318176   2.944   1.971   2.943 -0.6270 -0.2332  0.7872
  162OSM    O1418177   2.989   1.722   2.978  0.2425 -0.3346  0.1447
  162OSM    O1118178   2.910   1.864   3.160  0.2623 -0.3484  0.2060
  162OSM    O1218179   3.137   1.899   3.086  0.2649 -0.1160 -0.0180
  162OSM    C1S18180   2.890   1.985   3.237  0.0446  0.5995  1.1518
  162OSM    H1S18181   2.830   2.053   3.173 -0.7998 -1.3805 -0.2425
  162OSM    H1T18182   2.982   2.040   3.264 -1.0600  1.4741  3.4280
  162OSM     NF18183   2.791   2.078   3.438  0.7607 -0.2276 -0.2970
  162OSM    HNF18184   2.843   2.120   3.512 -1.0507 -0.0596  0.9295
  162OSM    C2S18185   2.822   1.950   3.371 -0.1841  0.1503  0.1116
  162OSM    H2S18186   2.725   1.897   3.364 -1.1062  1.5295  1.6384
  162OSM    C3S18187   2.924   1.851   3.447  0.1684 -0.1511 -0.3360
  162OSM    H3S18188   3.020   1.905   3.454 -0.1905  0.4271  0.3055
  162OSM     O318189   2.954   1.732   3.382  0.1759  0.2891  0.2492
  162OSM    HO318190   2.952   1.753   3.288 -0.2319 -1.1624 -0.0976
  162OSM    C4S18191   2.900   1.831   3.588  0.5575  0.3203 -0.2913
  162OSM    H4S18192   2.977   1.872   3.656  3.2341 -3.5736 -0.6421
  162OSM    C5S18193   2.813   1.740   3.646  0.1812 -0.5603 -0.3073
  162OSM    H5S18194   2.756   1.677   3.576  0.1153 -0.4547 -0.3494
  162OSM    C6S18195   2.786   1.705   3.790  0.3467 -0.5002  0.0449
  162OSM    H6S18196   2.824   1.606   3.824 -1.1246 -0.8216  0.8456
  162OSM    H6T18197   2.677   1.701   3.809  0.4928 -1.6419  0.7243
  162OSM    C7S18198   2.843   1.815   3.893 -0.8047  0.2304 -0.4965
  162OSM    H7S18199   2.788   1.910   3.873  0.9048  1.5687  0.8869
  162OSM    H7T18200   2.953   1.830   3.890 -0.7561 -0.2203 -1.7961
  162OSM    C8S18201   2.800   1.775   4.039  0.1477 -0.1221  0.6638
  162OSM    H8S18202   2.847   1.680   4.074  0.3840 -0.3102 -0.1392
  162OSM    H8T18203   2.689   1.769   4.043 -0.0428  1.9870 -0.2350
  162OSM    C9S18204   2.828   1.887   4.137 -0.3022  0.0505  0.0950
  162OSM    H9S18205   2.770   1.981   4.124  1.5492  1.5190  1.9414
  162OSM    H9T18206   2.934   1.918   4.137 -0.3591  0.2680 -0.4455
  162OSM   C10S18207   2.792   1.853   4.283  0.5342  0.3912 -0.3541
  162OSM   H10S18208   2.839   1.752   4.294  0.7024  0.5739  0.7757
  162OSM   H10T18209   2.683   1.845   4.301  0.4988  1.6868  0.1147
  162OSM   C11S18210   2.856   1.943   4.386  0.3226 -0.3594 -0.9031
  162OSM   H11S18211   2.809   2.043   4.381 -0.1991 -0.5864 -0.6297
  162OSM   H11T18212   2.963   1.948   4.357  0.5348 -0.4037 -0.1530
  162OSM   C12S18213   2.838   1.894   4.532  0.0730  0.2050 -0.1875
  162OSM   H12S18214   2.740   1.911   4.580 -0.4393  0.5464 -1.3166
  162OSM   H12T18215   2.888   1.956   4.610 -1.2360 -1.4087  2.0409
  162OSM   C13S18216   2.902   1.754   4.553  0.0535  0.1603  0.4963
  162OSM   H13S18217   3.002   1.737   4.508  0.3596 -1.9585  1.7926
  162OSM   H13T18218   2.835   1.678   4.507  1.9470 -0.9036 -0.6388
  162OSM   C14S18219   2.915   1.714   4.694  0.0132 -0.0429  0.1016
  162OSM   H14S18220   2.937   1.797   4.764 -1.2308  0.9977 -0.6931
  162OSM   H14T18221   2.999   1.641   4.696 -1.8808 -2.4101 -1.1166
  162OSM   C15S18222   2.796   1.639   4.756  0.0892 -0.0801 -0.2777
  162OSM   H15S18223   2.762   1.548   4.702 -1.5123 -0.8714  1.8905
  162OSM   H15T18224   2.708   1.705   4.743 -0.4757 -0.4632  1.3740
  162OSM   C16S18225   2.817   1.611   4.908 -0.5668 -0.2592 -0.3812
  162OSM   H16S18226   2.846   1.708   4.956  0.5832 -0.6230 -0.3046
  162OSM   H16T18227   2.899   1.538   4.925  1.7779  2.5928  1.7625
  162OSM   C17S18228   2.681   1.574   4.972  0.4365 -0.6012  0.7621
  162OSM   H17S18229   2.638   1.486   4.920 -2.1780 -0.2338  2.0975
  162OSM   H17T18230   2.614   1.663   4.970  1.0381 -0.1489  0.2503
  162OSM   C18S18231   2.684   1.534   5.126 -0.4545  0.3675 -0.2981
  162OSM   H18S18232   2.773   1.470   5.146  0.3708  0.7999 -2.2758
  162OSM   H18T18233   2.585   1.496   5.158 -0.4413 -1.3754 -2.0764
  162OSM   H18U18234   2.695   1.631   5.177  0.2479  0.1689 -0.0588
  162OSM    C1F18235   2.680   2.143   3.396  0.3977 -0.4612 -0.4664
  162OSM     OF18236   2.612   2.105   3.299 -0.4236 -0.1206 -0.0515
  162OSM    C2F18237   2.647   2.276   3.455 -0.6859  0.0623 -0.3813
  162OSM    H2F18238   2.676   2.356   3.383 -0.8809 -0.5214 -1.1172
  162OSM    H2G18239   2.711   2.273   3.546 -1.1017  1.0942 -0.0263
  162OSM    C3F18240   2.505   2.276   3.509 -0.5724 -0.0707  0.3824
  162OSM    H3F18241   2.504   2.196   3.585  0.5252  1.1245  1.7102
  162OSM    H3G18242   2.437   2.245   3.427  0.9557 -2.2735 -0.1433
  162OSM    C4F18243   2.456   2.403   3.573  0.3859  0.5055 -0.3552
  162OSM    H4F18244   2.351   2.388   3.605  0.6330  0.4869  0.4802
  162OSM    H4G18245   2.453   2.491   3.506 -0.1826  0.4061 -0.4607
  162OSM    C5F18246   2.538   2.447   3.696  0.6954 -0.2369 -0.1085
  162OSM    H5F18247   2.625   2.505   3.660 -0.3206  2.2906  1.2655
  162OSM    H5G18248   2.568   2.365   3.764 -0.6030  1.3208  2.4767
  162OSM    C6F18249   2.455   2.530   3.793 -0.5749 -0.4045  0.4291
  162OSM    H6F18250   2.398   2.443   3.832 -0.4621 -2.9724 -4.3990
  162OSM    H6G18251   2.383   2.599   3.745 -0.5926 -1.5134 -1.2060
  162OSM    C7F18252   2.529   2.603   3.906 -0.4809 -0.1131  0.7992
  162OSM    H7F18253   2.565   2.693   3.852 -2.5302  0.7739  0.8253
  162OSM    H7G18254   2.610   2.562   3.970  1.4201 -0.5844 -1.7283
  162OSM    C8F18255   2.426   2.666   4.005 -0.0768  0.4470  0.3136
  162OSM    H8F18256   2.368   2.579   4.043 -0.0885 -0.5799 -1.8938
  162OSM    H8G18257   2.348   2.730   3.958 -1.5707 -0.2726  1.6885
  162OSM    C9F18258   2.491   2.738   4.121 -0.8388  0.2801 -0.4661
  162OSM    H9F18259   2.583   2.790   4.093 -0.4942 -0.3797 -0.5764
  162OSM   C10F18260   2.464   2.725   4.251 -0.4277  0.6350 -1.0486
  162OSM   H10F18261   2.534   2.771   4.323 -0.8319  0.4921 -0.5522
  162OSM   C11F18262   2.356   2.645   4.313  0.3483 -0.8136 -0.0977
  162OSM   H11F18263   2.401   2.605   4.406  1.8212 -1.8779 -1.2135
  162OSM   H11G18264   2.331   2.554   4.256 -0.9504  0.2481 -1.2931
  162OSM   C12F18265   2.239   2.739   4.341  0.0534  0.4407 -0.1910
  162OSM   H12F18266   2.166   2.672   4.392  1.5599 -1.8781 -0.9081
  162OSM   H12G18267   2.193   2.755   4.242 -0.1331 -0.4818 -0.2630
  162OSM   C13F18268   2.257   2.870   4.416  0.5235 -0.6979  0.3099
  162OSM   H13F18269   2.153   2.910   4.423  0.2493  0.2792 -5.1334
  162OSM   H13G18270   2.314   2.934   4.346 -0.8699 -0.0093 -0.2496
  162OSM   C14F18271   2.333   2.864   4.547  0.5484 -0.4037 -0.5215
  162OSM   H14F18272   2.442   2.843   4.549  0.4890 -0.6448  0.3687
  162OSM   H14G18273   2.279   2.782   4.599  0.0051  1.1633  1.5113
  162OSM   C15F18274   2.306   2.993   4.629 -0.5598  0.6846  0.3635
  162OSM   H15F18275   2.197   3.017   4.632 -1.1556 -0.8977 -3.4084
  162OSM   H15G18276   2.348   3.079   4.574  2.2041 -0.3299  0.7442
  162OSM   C16F18277   2.370   2.990   4.771 -0.2048 -0.2299 -0.2681
  162OSM   H16F18278   2.406   3.092   4.795  0.0568 -0.7301  1.6528
  162OSM   H16G18279   2.460   2.925   4.771 -0.1532 -0.1625 -0.0072
  162OSM   C17F18280   2.278   2.951   4.886  0.3361 -0.3474 -0.8717
  162OSM   H17F18281   2.322   2.897   4.973  2.2473  3.0793  0.4935
  162OSM   H17G18282   2.205   2.880   4.842 -0.1950 -0.0785 -0.4431
  162OSM   C18F18283   2.202   3.073   4.961  0.1008  0.6966 -0.1910
  162OSM   H18F18284   2.140   3.038   5.046 -0.7522  2.8690  0.1406
  162OSM   H18G18285   2.132   3.126   4.894  0.8872  1.4337 -0.4544
  162OSM   H18H18286   2.277   3.146   4.999  0.0289  1.2365 -1.0649
  163OSM      N18287   1.258   2.253   2.414  0.0151 -0.7925  0.2124
  163OSM    C1518288   1.166   2.150   2.355  0.4592  0.4509 -0.0410
  163OSM   H15A18289   1.182   2.049   2.391  2.9931  1.2654  1.3450
  163OSM   H15B18290   1.175   2.162   2.248  2.1688  1.9660  0.2107
  163OSM   H15C18291   1.063   2.169   2.378 -0.0596 -0.5990 -1.3484
  163OSM    C1418292   1.395   2.226   2.365  0.1926  0.4586  0.4504
  163OSM   H14A18293   1.434   2.145   2.425  0.0896 -0.3326 -0.5121
  163OSM   H14B18294   1.465   2.308   2.370  0.5394  0.2626 -0.7090
  163OSM   H14C18295   1.387   2.194   2.262 -1.3543 -0.1743  0.7281
  163OSM    C1318296   1.210   2.393   2.376  0.0512 -0.5662 -0.5218
  163OSM   H13A18297   1.259   2.456   2.449 -1.8675 -0.5344  0.7996
  163OSM   H13B18298   1.103   2.403   2.376 -0.1503 -2.3080  0.1494
  163OSM   H13C18299   1.240   2.425   2.277 -0.3062  0.3875 -0.3305
  163OSM    C1218300   1.244   2.245   2.566 -0.0534 -0.6826 -0.4745
  163OSM   H12A18301   1.260   2.142   2.596 -0.0418 -0.9163 -1.2577
  163OSM   H12B18302   1.137   2.253   2.580  0.0796 -0.5423  0.4817
  163OSM    C1118303   1.327   2.332   2.659  0.2253 -0.6296  0.0088
  163OSM   H11A18304   1.430   2.340   2.618  1.4452 -1.2481  2.7119
  163OSM   H11B18305   1.335   2.291   2.762  2.0776  1.1318  0.6374
  163OSM      P18306   1.351   2.575   2.731  0.3432  0.3852 -0.1057
  163OSM    O1318307   1.489   2.526   2.766 -0.0419 -0.0930 -0.2176
  163OSM    O1418308   1.348   2.689   2.636  0.2840  0.1708 -0.5838
  163OSM    O1118309   1.277   2.611   2.865  0.4562  0.0146 -0.3258
  163OSM    O1218310   1.266   2.459   2.667  0.0856  0.1956 -0.4295
  163OSM    C1S18311   1.341   2.676   2.975 -0.1210  0.6168  0.2383
  163OSM    H1S18312   1.301   2.780   2.976 -1.0681  0.3926 -2.9514
  163OSM    H1T18313   1.451   2.690   2.970 -0.0467 -0.1711 -0.5171
  163OSM     NF18314   1.355   2.699   3.220 -0.1002  0.3526  0.3807
  163OSM    HNF18315   1.439   2.675   3.268  1.1465  2.1071 -0.7833
  163OSM    C2S18316   1.301   2.611   3.113 -0.7556  0.2664 -0.0647
  163OSM    H2S18317   1.190   2.620   3.112 -0.8171 -0.0369 -2.1696
  163OSM    C3S18318   1.341   2.464   3.121  0.2779 -0.5592 -0.1795
  163OSM    H3S18319   1.452   2.463   3.128  0.4298  0.4360 -1.8459
  163OSM     O318320   1.323   2.384   3.010 -0.1614 -0.0338  1.2210
  163OSM    HO318321   1.329   2.444   2.935  1.6024 -0.3375  1.0756
  163OSM    C4S18322   1.264   2.403   3.243  0.0882 -0.1197  0.4401
  163OSM    H4S18323   1.334   2.377   3.325  0.2096 -0.0607  0.3553
  163OSM    C5S18324   1.147   2.341   3.249 -0.3114  1.0971  0.3084
  163OSM    H5S18325   1.097   2.321   3.153  3.3177 -0.8454 -1.3902
  163OSM    C6S18326   1.106   2.266   3.372 -0.2410 -0.2378 -1.4672
  163OSM    H6S18327   1.177   2.278   3.456 -1.2048 -0.6945 -0.5512
  163OSM    H6T18328   1.113   2.156   3.363  1.5895 -0.1269 -1.6375
  163OSM    C7S18329   0.966   2.310   3.419  0.3618  0.2558 -0.4882
  163OSM    H7S18330   0.902   2.298   3.329 -1.8152 -1.9970  1.2057
  163OSM    H7T18331   0.971   2.417   3.448  4.3080  0.0414  0.1153
  163OSM    C8S18332   0.906   2.227   3.533  0.3578  0.1828 -0.0273
  163OSM    H8S18333   0.924   2.123   3.501 -0.0344 -0.6222  2.2011
  163OSM    H8T18334   0.798   2.252   3.526  0.7294  1.6051 -1.2455
  163OSM    C9S18335   0.978   2.271   3.658  0.6718  0.1401 -0.0005
  163OSM    H9S18336   0.981   2.382   3.660  1.2812  0.1175  0.9957
  163OSM    H9T18337   1.085   2.241   3.655  0.6449 -0.0178 -2.8763
  163OSM   C10S18338   0.919   2.210   3.788 -0.0785 -0.5933 -0.2057
  163OSM   H10S18339   0.929   2.099   3.780 -1.0092 -0.7717  0.8817
  163OSM   H10T18340   0.812   2.236   3.802 -0.1219 -0.7880 -0.1646
  163OSM   C11S18341   0.990   2.256   3.916  0.2950 -0.0057 -0.6486
  163OSM   H11S18342   0.960   2.362   3.937 -0.8850 -0.0134 -2.1386
  163OSM   H11T18343   1.100   2.245   3.918  0.2804 -0.2171  1.1224
  163OSM   C12S18344   0.940   2.191   4.050  0.1500  0.6709 -0.0146
  163OSM   H12S18345   0.999   2.229   4.136 -1.3372 -1.8595  2.2803
  163OSM   H12T18346   0.971   2.085   4.038 -1.3248  0.1893  0.2270
  163OSM   C13S18347   0.796   2.203   4.075  0.4530 -0.4638  0.4921
  163OSM   H13S18348   0.748   2.129   4.007  1.9557 -0.9250 -0.1051
  163OSM   H13T18349   0.764   2.304   4.043  0.7051 -0.2996  0.7540
  163OSM   C14S18350   0.766   2.183   4.225 -0.8936  0.6854 -0.1845
  163OSM   H14S18351   0.835   2.102   4.258 -1.6487 -0.5443 -1.5194
  163OSM   H14T18352   0.666   2.140   4.247 -0.6851  0.1820 -0.1900
  163OSM   C15S18353   0.789   2.306   4.312  0.5712  0.0857 -0.5689
  163OSM   H15S18354   0.700   2.373   4.311  0.3045 -0.1296  1.8604
  163OSM   H15T18355   0.875   2.371   4.284 -0.2564  1.8616  0.8301
  163OSM   C16S18356   0.811   2.269   4.466 -0.3257  0.1301  0.0667
  163OSM   H16S18357   0.897   2.198   4.457 -0.0853  0.6845 -2.7256
  163OSM   H16T18358   0.713   2.222   4.491 -1.3918  1.0567 -2.1748
  163OSM   C17S18359   0.825   2.395   4.554 -0.6136  0.3315  0.4718
  163OSM   H17S18360   0.730   2.442   4.519  0.5654  0.7499 -2.4503
  163OSM   H17T18361   0.915   2.452   4.525 -0.3251  1.1765  2.7957
  163OSM   C18S18362   0.843   2.367   4.703 -0.3212 -0.0861  0.2114
  163OSM   H18S18363   0.767   2.295   4.738  1.0810 -1.8418 -0.2147
  163OSM   H18T18364   0.828   2.455   4.770  1.1048  1.1521 -1.0192
  163OSM   H18U18365   0.940   2.327   4.740 -2.4391 -2.7973  3.5523
  163OSM    C1F18366   1.303   2.820   3.253 -0.4463  1.1230  0.8353
  163OSM     OF18367   1.214   2.864   3.184  0.8835 -0.3315  0.0327
  163OSM    C2F18368   1.357   2.894   3.370 -0.5141 -0.1357  0.2488
  163OSM    H2F18369   1.439   2.957   3.331 -0.2941  0.6898  1.9832
  163OSM    H2G18370   1.400   2.821   3.442  1.6287  0.6928 -0.1055
  163OSM    C3F18371   1.244   2.973   3.429  0.1638 -0.2999  0.6286
  163OSM    H3F18372   1.148   2.917   3.427 -1.5390  2.3883 -2.9317
  163OSM    H3G18373   1.207   3.053   3.362 -1.3837 -0.9984  0.5849
  163OSM    C4F18374   1.283   3.042   3.558  0.0256  0.3650  0.0508
  163OSM    H4F18375   1.365   3.115   3.539  1.6647 -0.7335  2.4784
  163OSM    H4G18376   1.325   2.963   3.623  2.0720 -0.2232 -1.8634
  163OSM    C5F18377   1.162   3.107   3.635  0.7317  0.2519  0.2572
  163OSM    H5F18378   1.086   3.027   3.646  0.1154  0.7886 -0.0201
  163OSM    H5G18379   1.114   3.194   3.583 -2.2256 -0.3269  1.7796
  163OSM    C6F18380   1.202   3.160   3.773  1.0333  0.0447 -0.1661
  163OSM    H6F18381   1.129   3.224   3.827  0.3135 -1.2022  0.3970
  163OSM    H6G18382   1.299   3.214   3.771  1.2459 -0.2806  0.6649
  163OSM    C7F18383   1.229   3.038   3.873 -0.5798 -0.5337  0.3272
  163OSM    H7F18384   1.320   2.986   3.837  1.0873  2.4090 -0.0411
  163OSM    H7G18385   1.144   2.967   3.880 -1.0052  0.1385  3.3427
  163OSM    C8F18386   1.275   3.073   4.017  0.5552 -0.2756 -0.5153
  163OSM    H8F18387   1.336   3.165   4.005  0.3268  0.1345  1.1835
  163OSM    H8G18388   1.344   2.995   4.057  1.1060 -0.3075 -1.5069
  163OSM    C9F18389   1.158   3.110   4.106  0.0631  0.1976 -0.6193
  163OSM    H9F18390   1.096   3.198   4.083  0.1352  0.8903  1.5378
  163OSM   C10F18391   1.120   3.032   4.219 -0.9241  0.3422 -0.2330
  163OSM   H10F18392   1.020   3.055   4.259 -0.3028  1.2392  0.8607
  163OSM   C11F18393   1.176   2.900   4.247 -0.4132  0.4666 -0.5357
  163OSM   H11F18394   1.195   2.850   4.150  0.3171 -0.2951 -0.0132
  163OSM   H11G18395   1.107   2.834   4.304  1.9268  0.1550  2.1774
  163OSM   C12F18396   1.300   2.899   4.341 -0.2807 -0.6620 -0.4882
  163OSM   H12F18397   1.371   2.972   4.297  0.3622 -0.0642  1.4027
  163OSM   H12G18398   1.340   2.795   4.336  2.8573  0.4130 -0.1108
  163OSM   C13F18399   1.270   2.937   4.490 -1.0120 -0.5671  0.2170
  163OSM   H13F18400   1.174   2.883   4.504 -3.0458  2.8349  0.5902
  163OSM   H13G18401   1.244   3.044   4.503 -0.0385 -0.5224  2.3119
  163OSM   C14F18402   1.378   2.902   4.595  0.0893  0.4239  0.3733
  163OSM   H14F18403   1.371   2.965   4.686  3.1211  1.9506 -0.3381
  163OSM   H14G18404   1.477   2.922   4.548  0.8050 -1.4403  0.9970
  163OSM   C15F18405   1.382   2.755   4.631  0.5618 -0.1438 -0.7047
  163OSM   H15F18406   1.470   2.742   4.698  0.3715  0.7055 -0.2809
  163OSM   H15G18407   1.393   2.677   4.553 -0.4457 -1.2039  0.1737
  163OSM   C16F18408   1.254   2.719   4.712  0.0751  0.1330 -0.3213
  163OSM   H16F18409   1.168   2.702   4.645 -0.5879  0.9592  0.2964
  163OSM   H16G18410   1.228   2.797   4.786  0.0950  0.5487 -0.7438
  163OSM   C17F18411   1.278   2.581   4.780 -0.8086  0.1315  0.6040
  163OSM   H17F18412   1.382   2.562   4.815  0.3268 -0.4582 -2.7471
  163OSM   H17G18413   1.265   2.505   4.700 -0.5358 -1.4375  1.9700
  163OSM   C18F18414   1.176   2.546   4.894  0.2541 -0.4428  0.8628
  163OSM   H18F18415   1.182   2.634   4.962  0.7038  0.0469  0.2096
  163OSM   H18G18416   1.196   2.451   4.946 -1.9389 -2.2153 -1.2987
  163OSM   H18H18417   1.081   2.537   4.838  0.0876 -0.1831  1.1038
  164OSM      N18418   3.615   2.108   2.700 -0.1813 -0.5486 -0.7055
  164OSM    C1518419   3.729   2.117   2.602  1.0400  0.5198 -0.9835
  164OSM   H15A18420   3.718   2.191   2.524  1.2366  1.1579 -0.4081
  164OSM   H15B18421   3.745   2.027   2.543  1.4370 -0.1782  0.1531
  164OSM   H15C18422   3.823   2.151   2.642  1.3038  1.6663 -2.4644
  164OSM    C1418423   3.487   2.101   2.618  0.3248 -0.1920  0.0551
  164OSM   H14A18424   3.477   2.185   2.550 -2.4013  0.3492  0.9937
  164OSM   H14B18425   3.408   2.091   2.690  0.6725  1.6615  0.7292
  164OSM   H14C18426   3.489   2.008   2.562 -1.8316 -1.4952  1.9599
  164OSM    C1318427   3.615   1.992   2.790  0.0339 -0.7667  0.4233
  164OSM   H13A18428   3.705   1.989   2.851  1.2732  0.5536 -1.2531
  164OSM   H13B18429   3.624   1.899   2.737  0.5622 -0.8047  0.5729
  164OSM   H13C18430   3.524   1.998   2.848 -0.2727  0.6089 -0.1825
  164OSM    C1218431   3.622   2.236   2.783  0.3941 -0.4572 -0.3551
  164OSM   H12A18432   3.610   2.319   2.714 -1.3894 -1.1341 -0.9291
  164OSM   H12B18433   3.720   2.249   2.825  0.4467 -0.1655 -0.5596
  164OSM    C1118434   3.526   2.257   2.913 -0.6282 -0.1916  0.6847
  164OSM   H11A18435   3.423   2.236   2.878 -0.2688  1.3282 -1.4524
  164OSM   H11B18436   3.524   2.367   2.927  2.5974  0.5236 -2.7401
  164OSM      P18437   3.705   2.221   3.089  0.4862 -0.0912  0.0732
  164OSM    O1318438   3.747   2.115   3.187  0.7513  0.0933 -0.3057
  164OSM    O1418439   3.806   2.263   2.988 -0.3733  0.4345  0.8088
  164OSM    O1118440   3.661   2.352   3.169 -0.5392  0.0525 -0.0780
  164OSM    O1218441   3.568   2.177   3.022 -0.2680  0.2363 -0.4377
  164OSM    C1S18442   3.753   2.404   3.268 -0.1586  0.2990  0.0381
  164OSM    H1S18443   3.830   2.473   3.225 -1.3051  1.6050  0.0157
  164OSM    H1T18444   3.804   2.324   3.327  2.0600  2.5702  1.4145
  164OSM     NF18445   3.785   2.505   3.480 -0.3535  0.0075 -0.0005
  164OSM    HNF18446   3.777   2.431   3.547  1.6774  0.8855  1.3241
  164OSM    C2S18447   3.683   2.492   3.376  0.0119  0.1177  0.1265
  164OSM    H2S18448   3.654   2.593   3.340 -0.3870  1.0691  2.9407
  164OSM    C3S18449   3.551   2.429   3.428 -0.0498  0.6525  0.6734
  164OSM    H3S18450   3.578   2.334   3.478  1.1558  0.2523 -0.6823
  164OSM     O318451   3.448   2.392   3.336  0.0421  0.3460  0.0678
  164OSM    HO318452   3.500   2.385   3.255 -0.1530  0.6092 -0.0808
  164OSM    C4S18453   3.478   2.530   3.521  0.6459  0.3030 -0.2788
  164OSM    H4S18454   3.420   2.613   3.478 -0.0865 -0.1414 -0.1801
  164OSM    C5S18455   3.492   2.519   3.656 -0.6065 -0.3754  0.3097
  164OSM    H5S18456   3.557   2.440   3.698  1.7204  1.7221  0.9081
  164OSM    C6S18457   3.430   2.607   3.761  0.0210  0.4519 -0.9743
  164OSM    H6S18458   3.406   2.705   3.716 -1.3063 -0.4907 -2.4500
  164OSM    H6T18459   3.517   2.616   3.830  1.7366 -0.8464 -2.8427
  164OSM    C7S18460   3.309   2.551   3.831 -0.7422 -0.5143  0.1605
  164OSM    H7S18461   3.233   2.539   3.751 -1.1288  1.4768  0.1728
  164OSM    H7T18462   3.270   2.625   3.904  1.9784  1.7155 -0.4862
  164OSM    C8S18463   3.323   2.411   3.891  0.3155 -0.4864  0.6042
  164OSM    H8S18464   3.346   2.339   3.809  2.3857 -0.8657  1.4382
  164OSM    H8T18465   3.219   2.386   3.922  0.6066 -0.7365  1.4312
  164OSM    C9S18466   3.418   2.409   4.008  0.3489 -0.0505 -0.2160
  164OSM    H9S18467   3.511   2.464   3.981  0.7791 -0.1541  1.0198
  164OSM    H9T18468   3.423   2.300   4.028 -1.2245 -0.1704 -0.3251
  164OSM   C10S18469   3.351   2.482   4.128 -0.2381 -0.2562  0.8366
  164OSM   H10S18470   3.251   2.436   4.143 -0.2910 -1.4411 -2.4363
  164OSM   H10T18471   3.337   2.590   4.104 -0.1320 -0.5917 -0.8510
  164OSM   C11S18472   3.439   2.464   4.249 -0.3227  0.1780 -0.0777
  164OSM   H11S18473   3.541   2.502   4.226 -0.5835 -0.4845 -2.5834
  164OSM   H11T18474   3.440   2.355   4.267 -2.0891  0.2855  1.0004
  164OSM   C12S18475   3.390   2.513   4.385 -0.4564 -0.3559 -0.4708
  164OSM   H12S18476   3.294   2.462   4.409 -0.8961  0.8641  0.4572
  164OSM   H12T18477   3.362   2.620   4.383 -0.0702 -0.2568 -0.7954
  164OSM   C13S18478   3.484   2.473   4.497  0.1124  0.2045  0.0463
  164OSM   H13S18479   3.579   2.530   4.499  0.0160  0.3449  0.6512
  164OSM   H13T18480   3.522   2.369   4.482  1.2958  0.7391 -0.7941
  164OSM   C14S18481   3.408   2.485   4.634  0.9268  0.5550  0.3459
  164OSM   H14S18482   3.312   2.429   4.635  0.1564  1.8016 -1.3475
  164OSM   H14T18483   3.373   2.589   4.621 -0.0858  0.3732  1.4377
  164OSM   C15S18484   3.498   2.463   4.762  0.2438 -0.0288 -0.0226
  164OSM   H15S18485   3.556   2.370   4.740  1.4511  1.3600 -3.3103
  164OSM   H15T18486   3.423   2.453   4.844 -1.9001  2.2195 -1.5613
  164OSM   C16S18487   3.597   2.579   4.785 -0.3603 -0.0376 -0.5358
  164OSM   H16S18488   3.594   2.611   4.892  0.4352 -1.5569 -0.0316
  164OSM   H16T18489   3.567   2.662   4.717  2.4358 -0.8967 -3.0002
  164OSM   C17S18490   3.746   2.547   4.750 -0.2390 -0.4020  0.0208
  164OSM   H17S18491   3.748   2.508   4.647 -1.6043 -0.3206 -0.0577
  164OSM   H17T18492   3.791   2.477   4.824  0.9849 -0.6066 -0.8978
  164OSM   C18S18493   3.834   2.673   4.756 -0.2391 -0.2313 -0.4701
  164OSM   H18S18494   3.811   2.756   4.685 -0.1326  0.2284  0.0236
  164OSM   H18T18495   3.940   2.647   4.738  0.3620  1.3686  0.5499
  164OSM   H18U18496   3.822   2.712   4.860 -0.5500 -0.6710 -0.3356
  164OSM    C1F18497   3.903   2.564   3.462  0.4190 -0.1287 -0.0286
  164OSM     OF18498   3.921   2.631   3.359 -0.6635  0.3873 -0.0665
  164OSM    C2F18499   4.013   2.524   3.547 -0.3113  0.3006 -0.1173
  164OSM    H2F18500   4.018   2.413   3.544 -0.3491  0.3118 -0.8276
  164OSM    H2G18501   3.968   2.554   3.644 -1.2294  0.0437 -0.4441
  164OSM    C3F18502   4.144   2.599   3.515 -0.4281 -0.0472  0.1193
  164OSM    H3F18503   4.132   2.709   3.526 -0.0398 -0.1080  1.3463
  164OSM    H3G18504   4.183   2.573   3.414 -1.0527 -0.0247 -0.1291
  164OSM    C4F18505   4.256   2.565   3.610  0.4866  0.0315 -0.3124
  164OSM    H4F18506   4.345   2.621   3.576 -0.3330  0.3491 -2.0557
  164OSM    H4G18507   4.277   2.456   3.600 -1.7425 -0.4055 -0.7531
  164OSM    C5F18508   4.237   2.593   3.762 -0.0824 -0.3259 -0.0770
  164OSM    H5F18509   4.150   2.536   3.802  1.4363 -2.4739  0.3554
  164OSM    H5G18510   4.203   2.699   3.765 -1.3183 -0.6852 -0.6747
  164OSM    C6F18511   4.363   2.573   3.856  0.7847  0.4096  0.0335
  164OSM    H6F18512   4.433   2.648   3.814 -0.6696  1.8066 -0.0072
  164OSM    H6G18513   4.399   2.469   3.849  0.2003  0.2543 -0.8872
  164OSM    C7F18514   4.334   2.619   4.000 -0.0955  0.5325  0.0562
  164OSM    H7F18515   4.237   2.573   4.028  0.1032  0.3671  0.4741
  164OSM    H7G18516   4.331   2.729   3.990  1.7006  0.6975  0.9667
  164OSM    C8F18517   4.447   2.583   4.095  0.0218 -1.0738  0.3204
  164OSM    H8F18518   4.440   2.662   4.172 -0.6197 -0.5569 -0.2541
  164OSM    H8G18519   4.545   2.593   4.044 -0.7940 -0.9452 -1.3079
  164OSM    C9F18520   4.424   2.452   4.156 -0.4912  0.3804  0.2479
  164OSM    H9F18521   4.331   2.402   4.124 -1.7093  3.4561 -1.4279
  164OSM   C10F18522   4.516   2.387   4.225  0.0795 -0.3589 -0.6680
  164OSM   H10F18523   4.498   2.281   4.249 -1.9971  0.2295  0.5692
  164OSM   C11F18524   4.659   2.432   4.260  0.7022  0.1878 -0.2626
  164OSM   H11F18525   4.702   2.513   4.196 -0.2222  0.1531 -0.9422
  164OSM   H11G18526   4.732   2.349   4.251  1.3743  0.6590  0.6534
  164OSM   C12F18527   4.648   2.492   4.403  0.4990 -0.7516 -0.0835
  164OSM   H12F18528   4.569   2.571   4.403  0.3444 -0.9042 -0.2186
  164OSM   H12G18529   4.741   2.548   4.427 -0.6600  0.5133  1.7889
  164OSM   C13F18530   4.603   2.395   4.513 -1.0674  0.1953 -1.7196
  164OSM   H13F18531   4.643   2.295   4.486  0.7850  0.7930 -1.3397
  164OSM   H13G18532   4.494   2.379   4.521 -1.2787  1.7943 -0.8697
  164OSM   C14F18533   4.652   2.431   4.650  0.1754  0.5528 -0.0198
  164OSM   H14F18534   4.607   2.523   4.693 -3.0759 -0.9217  0.0192
  164OSM   H14G18535   4.761   2.451   4.650  0.2080  0.3763 -0.5300
  164OSM   C15F18536   4.621   2.322   4.760  0.1178  0.3162 -0.2764
  164OSM   H15F18537   4.512   2.316   4.745 -0.2638  1.6017  1.6428
  164OSM   H15G18538   4.649   2.368   4.858  2.2558  0.4428 -0.8934
  164OSM   C16F18539   4.685   2.185   4.737 -0.2372  0.3703  0.1295
  164OSM   H16F18540   4.663   2.170   4.629  2.1788  0.1147 -0.3815
  164OSM   H16G18541   4.641   2.108   4.804 -1.8465 -0.6895 -2.0037
  164OSM   C17F18542   4.834   2.188   4.738 -0.3192  0.1536 -0.0737
  164OSM   H17F18543   4.863   2.269   4.667 -0.3786  1.1598  1.0228
  164OSM   H17G18544   4.873   2.094   4.694 -0.9602  0.7836 -2.1447
  164OSM   C18F18545   4.901   2.231   4.875  0.2258 -0.0519  0.8487
  164OSM   H18F18546   4.923   2.138   4.932  2.8448  0.3858  0.6790
  164OSM   H18G18547   4.823   2.288   4.930 -1.0176 -2.6698  1.9271
  164OSM   H18H18548   4.991   2.294   4.858 -0.4463  0.8830  0.6800
  165SAPS     N18549   3.510   0.942   7.944  0.4512 -0.1218  0.0648
  165SAPS   HN118550   3.567   1.027   7.925 -0.3387  0.2402 -0.7634
  165SAPS   HN218551   3.487   0.895   7.854  2.5100  1.1439 -1.2150
  165SAPS   HN318552   3.418   0.973   7.983  1.4706  0.9602  1.7315
  165SAPS   C1218553   3.573   0.855   8.045  0.0215 -0.9874  0.7694
  165SAPS  H12A18554   3.678   0.853   8.020 -0.4380 -0.5520 -1.4414
  165SAPS   C1318555   3.569   0.911   8.188 -0.2459  0.5127 -0.9638
  165SAPS  O13A18556   3.500   1.010   8.208 -0.0271  0.4196 -0.5040
  165SAPS  O13B18557   3.617   0.836   8.281 -0.1867 -0.3145  1.0639
  165SAPS   C1118558   3.517   0.705   8.039 -0.3482 -0.0895  0.0196
  165SAPS  H11A18559   3.406   0.701   8.046 -0.3195 -2.9003 -0.1850
  165SAPS  H11B18560   3.555   0.656   8.131  1.0650  1.2775  0.2096
  165SAPS     P18561   3.497   0.614   7.797  0.5373 -0.2125  0.0277
  165SAPS   O1318562   3.386   0.516   7.809 -0.3737  0.0205  0.0015
  165SAPS   O1418563   3.465   0.748   7.754  0.7005 -0.2225  0.1546
  165SAPS   O1218564   3.574   0.632   7.932 -0.0227  0.0574 -0.0795
  165SAPS   O1118565   3.605   0.549   7.710  0.5652 -0.2871  0.4937
  165SAPS    C118566   3.739   0.587   7.703 -0.0623  0.6867  0.3227
  165SAPS    HA18567   3.783   0.618   7.800 -1.4900  2.1149  0.5620
  165SAPS    HB18568   3.804   0.503   7.670 -0.0398  0.6959  0.3439
  165SAPS    C218569   3.757   0.703   7.598 -0.3942 -0.1776 -0.0696
  165SAPS    HS18570   3.723   0.791   7.657  2.1778 -0.7125  2.4641
  165SAPS   O2118571   3.683   0.686   7.477 -0.4698  0.4586  1.1360
  165SAPS   C2118572   3.657   0.799   7.413 -0.0534  0.1825  0.0358
  165SAPS   O2218573   3.678   0.910   7.462  0.0098  0.0040  0.1441
  165SAPS   C2218574   3.577   0.759   7.290  0.4176 -0.0180 -0.0593
  165SAPS   H2R18575   3.597   0.652   7.269  2.7397  0.1991  0.8116
  165SAPS   H2S18576   3.469   0.771   7.316  0.0016 -0.0631 -1.6748
  165SAPS    C318577   3.910   0.710   7.583  0.0986  0.8101  0.1076
  165SAPS    HX18578   3.933   0.607   7.549 -1.0608  0.3021  0.8217
  165SAPS    HY18579   3.972   0.713   7.675 -1.5019  0.5929  1.2289
  165SAPS   O3118580   3.951   0.808   7.487 -0.3158  0.1390 -0.0032
  165SAPS   C3118581   3.965   0.929   7.522 -0.2192 -0.2142  0.0420
  165SAPS   O3218582   3.964   0.968   7.641  0.1506  0.9343 -0.0074
  165SAPS   C3218583   3.996   1.020   7.400  1.1252 -0.5189 -0.2775
  165SAPS   H2X18584   3.932   1.110   7.399  1.2907 -0.3868 -1.6448
  165SAPS   H2Y18585   3.964   0.967   7.308 -1.8647 -0.6394  0.7337
  165SAPS   C2318586   3.617   0.856   7.174  0.3732  0.7761 -0.2594
  165SAPS   H3R18587   3.726   0.867   7.161  0.7969 -1.9969  0.3064
  165SAPS   H3S18588   3.586   0.958   7.204  0.0059 -0.0674  2.6072
  165SAPS   C2418589   3.544   0.807   7.046  0.1477 -0.6096 -0.5234
  165SAPS   H4R18590   3.434   0.802   7.063 -0.0084  0.4264 -1.1372
  165SAPS   H4S18591   3.573   0.700   7.035  1.8914 -0.1715 -0.4389
  165SAPS   C2518592   3.590   0.886   6.919 -0.3124 -0.1930 -0.2017
  165SAPS   H5R18593   3.700   0.884   6.911 -0.1669 -0.9226  1.4524
  165SAPS   C2618594   3.519   0.962   6.835 -0.5179  0.0654 -0.6159
  165SAPS   H6R18595   3.564   1.013   6.749 -0.8400  0.8602 -0.3176
  165SAPS   C2718596   3.366   0.975   6.842  0.0334  0.6209 -0.2272
  165SAPS   H7R18597   3.342   1.038   6.930  1.3015 -0.0340  0.6258
  165SAPS   H7S18598   3.315   0.879   6.866 -2.7663  2.1796  0.4090
  165SAPS   C2818599   3.305   1.035   6.718  0.1614 -0.2041  0.5621
  165SAPS   H8R18600   3.269   1.137   6.738 -0.0809 -0.2819  0.5217
  165SAPS   C2918601   3.288   0.977   6.598 -0.0153 -0.4142 -0.1287
  165SAPS   H9R18602   3.241   1.033   6.516  2.5674  2.0827 -0.0372
  165SAPS  C21018603   3.349   0.848   6.546 -0.9416 -0.7387 -0.2048
  165SAPS  H10R18604   3.289   0.824   6.455 -2.8066  0.0448  0.7735
  165SAPS  H10S18605   3.337   0.767   6.621  1.4451 -0.7205  0.2662
  165SAPS  C21118606   3.495   0.838   6.513 -0.5700 -0.0295 -0.1493
  165SAPS  H11R18607   3.552   0.790   6.594  2.0381  0.1047 -1.7586
  165SAPS  C21218608   3.573   0.881   6.410  0.1335  0.2103 -0.1583
  165SAPS  H12R18609   3.681   0.864   6.406 -0.2376 -2.6709 -0.0243
  165SAPS  C21318610   3.526   0.961   6.298  0.4342 -0.1334 -0.1167
  165SAPS  H13R18611   3.621   0.991   6.250  0.7593 -2.6914 -1.2353
  165SAPS  H13S18612   3.478   1.054   6.335 -0.7645 -1.2114  1.1585
  165SAPS  C21418613   3.434   0.901   6.195 -1.0604 -0.1452  0.2040
  165SAPS  H14R18614   3.371   0.816   6.225  0.4425 -1.9692 -1.5347
  165SAPS  C21518615   3.406   0.958   6.076 -0.6276 -0.3442  1.1885
  165SAPS  H15R18616   3.331   0.914   6.009  1.8983 -0.2803 -1.9130
  165SAPS  C21618617   3.474   1.085   6.022  0.6853  0.3034 -0.7897
  165SAPS  H16R18618   3.523   1.138   6.106  1.2345 -2.7977  0.9905
  165SAPS  H16S18619   3.407   1.159   5.973  0.6834  0.9847  0.2216
  165SAPS  C21718620   3.573   1.038   5.914 -0.2139 -0.6419 -0.3032
  165SAPS  H17R18621   3.531   0.960   5.846 -1.9155 -1.5615  1.6998
  165SAPS  H17S18622   3.670   1.009   5.958 -0.9164 -0.3003  1.5261
  165SAPS  C21818623   3.610   1.159   5.823  0.0635  0.3665 -0.5240
  165SAPS  H18R18624   3.618   1.247   5.890 -1.1952  0.5292 -0.5651
  165SAPS  H18S18625   3.516   1.177   5.766 -2.2904 -1.9330  2.2701
  165SAPS  C21918626   3.731   1.125   5.731  0.6188 -0.0559 -0.1116
  165SAPS  H19R18627   3.813   1.072   5.784  1.0740 -1.1826 -1.8403
  165SAPS  H19S18628   3.768   1.215   5.679 -0.6320  1.1238  0.9679
  165SAPS  C22018629   3.702   1.027   5.621  0.2279  0.7959  0.0534
  165SAPS  H20R18630   3.675   0.925   5.653 -1.6114  1.1666 -0.2228
  165SAPS  H20S18631   3.790   1.024   5.552  0.0103  2.1572 -0.3239
  165SAPS  H20T18632   3.615   1.073   5.570  0.3017 -0.7689 -1.5644
  165SAPS   C3318633   4.137   1.077   7.404  0.0601 -0.0177 -0.1615
  165SAPS   H3X18634   4.153   1.122   7.504 -0.8039  0.9169 -0.4213
  165SAPS   H3Y18635   4.141   1.161   7.331 -0.0783  1.3283  1.3246
  165SAPS   C3418636   4.247   0.972   7.371  0.0137  0.8861 -0.2068
  165SAPS   H4X18637   4.261   0.894   7.449  2.4327  1.2539 -0.1757
  165SAPS   H4Y18638   4.343   1.029   7.375  0.2648  0.4440  2.8410
  165SAPS   C3518639   4.236   0.903   7.235 -0.5590 -0.2708  0.3864
  165SAPS   H5X18640   4.157   0.827   7.249  1.1859 -1.8591  2.1419
  165SAPS   H5Y18641   4.324   0.839   7.212 -1.2895 -0.0207 -3.7962
  165SAPS   C3618642   4.232   1.005   7.125 -0.2821 -0.2305  0.1768
  165SAPS   H6X18643   4.313   1.080   7.136 -0.0531 -0.4194 -0.1890
  165SAPS   H6Y18644   4.136   1.061   7.131  0.1330  0.4791  0.2953
  165SAPS   C3718645   4.261   0.924   6.997  0.0047 -0.2110 -0.9637
  165SAPS   H7X18646   4.355   0.865   7.006 -0.2278 -0.4478  0.1170
  165SAPS   H7Y18647   4.284   1.000   6.919  1.4690 -2.3833 -2.7918
  165SAPS   C3818648   4.147   0.824   6.968  0.6009 -0.1036 -0.0615
  165SAPS   H8X18649   4.055   0.887   6.964 -0.0840 -1.1211 -1.0719
  165SAPS   H8Y18650   4.143   0.752   7.053  2.9330 -2.3362 -1.7011
  165SAPS   C3918651   4.173   0.745   6.842  0.1703  0.9121 -0.7461
  165SAPS   H9X18652   4.110   0.654   6.837  1.2853 -0.1112  1.9267
  165SAPS   H9Y18653   4.271   0.693   6.838 -0.6113 -0.8122  0.7614
  165SAPS  C31018654   4.148   0.833   6.719 -0.2412  1.3522 -0.5477
  165SAPS  H10X18655   4.232   0.905   6.707 -1.0215  2.0614 -1.9999
  165SAPS  H10Y18656   4.056   0.894   6.710  0.3539  2.1222 -1.7832
  165SAPS  C31118657   4.149   0.753   6.583  0.8240 -0.4294  0.9476
  165SAPS  H11X18658   4.091   0.659   6.591  0.8104 -0.4069  1.1127
  165SAPS  H11Y18659   4.259   0.747   6.566  1.4172  2.8968  2.7826
  165SAPS  C31218660   4.086   0.833   6.468 -0.1900 -0.0309  0.5996
  165SAPS  H12X18661   4.131   0.935   6.468  0.1929 -0.2021  0.6336
  165SAPS  H12Y18662   3.975   0.846   6.471 -0.1650  0.6694 -0.8543
  165SAPS  C31318663   4.113   0.789   6.324 -0.6415  1.2577  0.3546
  165SAPS  H13X18664   4.072   0.686   6.322  1.2822  0.4271 -2.2402
  165SAPS  H13Y18665   4.224   0.780   6.317 -0.8198 -0.4538 -0.9628
  165SAPS  C31418666   4.065   0.880   6.215  0.9047  0.2682 -0.3204
  165SAPS  H14X18667   4.111   0.980   6.223  0.7230  0.3180  0.1534
  165SAPS  H14Y18668   3.955   0.889   6.207  1.0802  2.7520 -0.6074
  165SAPS  C31518669   4.098   0.826   6.075  0.9362 -0.1667 -0.3268
  165SAPS  H15X18670   4.035   0.737   6.055 -2.3788  1.7280  0.9277
  165SAPS  H15Y18671   4.207   0.807   6.065  1.0737  0.9979 -1.2844
  165SAPS  C31618672   4.059   0.918   5.952  0.6624 -0.1636 -0.3198
  165SAPS  H16X18673   4.087   1.024   5.971  1.7772 -0.6214  0.7130
  165SAPS  H16Y18674   3.948   0.921   5.965  0.6221 -1.9936  0.0216
  165SAPS  C31718675   4.108   0.867   5.816 -0.4425  0.3356  0.1325
  165SAPS  H17X18676   4.207   0.819   5.831 -1.0994 -0.5800  1.8139
  165SAPS  H17Y18677   4.131   0.951   5.747  2.8388  1.3637  2.2108
  165SAPS  C31818678   4.010   0.774   5.746  0.9095 -0.2959  0.6092
  165SAPS  H18X18679   3.990   0.678   5.798 -0.5609  1.3732  3.3596
  165SAPS  H18Y18680   4.050   0.747   5.646 -3.2468  0.5299 -1.4479
  165SAPS  H18Z18681   3.916   0.824   5.716  2.4067  1.4217 -1.5459
  166SAPS     N18682   0.861   3.423   7.628  0.0607  0.2250  0.0724
  166SAPS   HN118683   0.868   3.414   7.524 -0.8016 -0.9542  0.1000
  166SAPS   HN218684   0.881   3.522   7.652  3.2491 -0.1553 -0.5197
  166SAPS   HN318685   0.933   3.357   7.663  0.3158  0.2795 -0.3447
  166SAPS   C1218686   0.732   3.370   7.668  0.3650  0.6080  0.3078
  166SAPS  H12A18687   0.741   3.355   7.774 -0.1354  1.0576  0.4214
  166SAPS   C1318688   0.599   3.448   7.645 -0.8459  0.2869 -0.1089
  166SAPS  O13A18689   0.605   3.543   7.566 -0.0332 -0.0284 -0.4741
  166SAPS  O13B18690   0.488   3.409   7.690 -0.3165  0.7439 -0.0213
  166SAPS   C1118691   0.709   3.223   7.602 -0.6351  0.3434  0.6939
  166SAPS  H11A18692   0.700   3.226   7.491  1.2143  1.3495  0.5274
  166SAPS  H11B18693   0.614   3.187   7.648 -0.8024  3.2525  2.9126
  166SAPS     P18694   0.803   2.984   7.601 -0.3452 -0.2629 -0.1700
  166SAPS   O1318695   0.940   2.931   7.610 -0.4903  0.4820 -0.4896
  166SAPS   O1418696   0.698   2.912   7.677 -0.5306 -0.9001  0.3694
  166SAPS   O1218697   0.818   3.135   7.643  0.2760  0.2515  0.1010
  166SAPS   O1118698   0.751   2.987   7.445 -0.4457 -0.1530  0.0064
  166SAPS    C118699   0.821   3.069   7.351  0.3234  0.4460 -0.4498
  166SAPS    HA18700   0.752   3.144   7.306  0.5523  1.0799  0.2334
  166SAPS    HB18701   0.909   3.117   7.399  1.0156 -0.9120 -0.2927
  166SAPS    C218702   0.873   2.975   7.239 -0.4860 -0.5550  0.3448
  166SAPS    HS18703   0.790   2.907   7.209 -1.6341  1.2373 -0.7394
  166SAPS   O2118704   0.992   2.909   7.298 -0.0391  0.5199  0.3727
  166SAPS   C2118705   1.003   2.782   7.285  0.4542 -1.5435  0.9508
  166SAPS   O2218706   0.916   2.708   7.238  1.0012  0.4901 -0.6135
  166SAPS   C2218707   1.142   2.742   7.326 -0.1743 -0.1426  0.5106
  166SAPS   H2R18708   1.213   2.800   7.262 -0.7103 -0.8491 -0.7643
  166SAPS   H2S18709   1.164   2.782   7.427 -0.3391 -1.8423  1.2374
  166SAPS    C318710   0.921   3.047   7.113  0.0684  0.2756 -0.0333
  166SAPS    HX18711   1.002   3.112   7.153  1.0895 -1.2220  0.4482
  166SAPS    HY18712   0.845   3.115   7.069  0.2444 -1.0393 -2.5565
  166SAPS   O3118713   0.973   2.956   7.022 -0.8756 -0.8405 -0.4525
  166SAPS   C3118714   0.900   2.920   6.916 -0.1778  0.1452  0.8239
  166SAPS   O3218715   0.786   2.960   6.891 -0.2106 -0.1356 -0.2035
  166SAPS   C3218716   0.977   2.820   6.829 -0.5216  0.0151  0.3647
  166SAPS   H2X18717   0.974   2.721   6.879 -0.3956 -0.0911  0.1667
  166SAPS   H2Y18718   1.085   2.848   6.824 -0.1251 -1.5828 -2.0411
  166SAPS   C2318719   1.178   2.597   7.313  0.3508  0.4617  0.1062
  166SAPS   H3R18720   1.096   2.552   7.374  1.8431 -0.2592  1.6655
  166SAPS   H3S18721   1.277   2.586   7.362 -0.2911  0.6270  1.5019
  166SAPS   C2418722   1.193   2.548   7.166  0.0711  0.8005  0.6665
  166SAPS   H4R18723   1.264   2.611   7.108 -0.0652 -1.7281 -2.5212
  166SAPS   H4S18724   1.093   2.550   7.119  0.1777  0.4752  0.4182
  166SAPS   C2518725   1.234   2.402   7.164 -0.5389  0.5006  0.0463
  166SAPS   H5R18726   1.291   2.372   7.253 -3.4033  0.5256  2.0345
  166SAPS   C2618727   1.234   2.334   7.052  0.0117  0.2616 -0.3092
  166SAPS   H6R18728   1.284   2.236   7.053 -1.6500 -0.6284  1.5205
  166SAPS   C2718729   1.179   2.387   6.924  0.0000  0.7511  0.1184
  166SAPS   H7R18730   1.253   2.442   6.862  0.1808 -0.3807 -0.7037
  166SAPS   H7S18731   1.088   2.449   6.937  0.4701  1.1356  1.8105
  166SAPS   C2818732   1.136   2.275   6.828  0.0843 -0.1173  0.1332
  166SAPS   H8R18733   1.092   2.191   6.882  2.1614 -0.5824  1.2237
  166SAPS   C2918734   1.161   2.261   6.693  0.0123  0.1744 -0.3701
  166SAPS   H9R18735   1.132   2.169   6.640  0.9137  1.0644 -2.5347
  166SAPS  C21018736   1.237   2.361   6.600 -0.3041  0.2343 -0.1315
  166SAPS  H10R18737   1.347   2.346   6.589 -0.5320 -1.8780  0.0775
  166SAPS  H10S18738   1.223   2.460   6.649 -1.8161  0.0340 -0.1011
  166SAPS  C21118739   1.173   2.361   6.465  0.1127  0.0388  1.2058
  166SAPS  H11R18740   1.160   2.261   6.420  0.5667  0.7715 -0.6502
  166SAPS  C21218741   1.156   2.461   6.375  0.5469  0.3143 -0.3126
  166SAPS  H12R18742   1.103   2.451   6.280  1.9730 -0.6443 -1.0409
  166SAPS  C21318743   1.180   2.608   6.410  0.0028  0.8403  0.5131
  166SAPS  H13R18744   1.202   2.623   6.518  1.9678 -2.7945  0.7899
  166SAPS  H13S18745   1.085   2.656   6.379 -1.4106 -1.1784  1.4985
  166SAPS  C21418746   1.287   2.670   6.326 -0.1743 -0.4426  0.1139
  166SAPS  H14R18747   1.379   2.670   6.386  1.8783  2.7789 -2.6718
  166SAPS  C21518748   1.275   2.716   6.200  0.3739  0.3872  0.1101
  166SAPS  H15R18749   1.356   2.776   6.158 -0.3968  1.6315  0.3419
  166SAPS  C21618750   1.158   2.688   6.113 -0.1570  0.7918 -0.6686
  166SAPS  H16R18751   1.070   2.750   6.142 -0.2694 -0.0570  0.8846
  166SAPS  H16S18752   1.136   2.580   6.100 -2.0044  0.7931  1.8763
  166SAPS  C21718753   1.199   2.737   5.981  0.2670  0.7857  0.5005
  166SAPS  H17R18754   1.289   2.689   5.937  1.3715  3.2113 -0.1071
  166SAPS  H17S18755   1.225   2.846   5.980 -0.1544  0.9094 -1.7143
  166SAPS  C21818756   1.085   2.731   5.875 -0.4655  0.4881  0.6111
  166SAPS  H18R18757   0.987   2.768   5.913 -1.6065 -0.2765 -1.4267
  166SAPS  H18S18758   1.062   2.623   5.858 -3.1965  0.6969  2.3183
  166SAPS  C21918759   1.118   2.806   5.746 -0.1141 -0.4905  0.4776
  166SAPS  H19R18760   1.145   2.911   5.771 -1.6330 -0.1883  0.9389
  166SAPS  H19S18761   1.024   2.807   5.686 -0.1459  1.2585  0.5062
  166SAPS  C22018762   1.237   2.747   5.666  0.4651  0.3499  0.8230
  166SAPS  H20R18763   1.231   2.773   5.558 -1.2071  0.6587  0.9619
  166SAPS  H20S18764   1.217   2.638   5.666 -1.5583  0.6192 -1.8161
  166SAPS  H20T18765   1.330   2.788   5.710 -1.0580  0.1767  4.5451
  166SAPS   C3318766   0.930   2.813   6.685  0.9769  0.5321 -0.1786
  166SAPS   H3X18767   0.820   2.799   6.690  1.1782 -0.7596  1.6658
  166SAPS   H3Y18768   0.973   2.732   6.623 -2.1129 -1.4184 -0.0010
  166SAPS   C3418769   0.952   2.948   6.611  0.8103  0.7496 -0.2932
  166SAPS   H4X18770   1.058   2.981   6.613  0.8184  0.6779  0.5774
  166SAPS   H4Y18771   0.892   3.031   6.654  0.8483  1.3177 -1.2811
  166SAPS   C3518772   0.918   2.937   6.458  0.0257 -0.4878  0.0629
  166SAPS   H5X18773   0.808   2.923   6.457  0.0340 -0.9724  2.0383
  166SAPS   H5Y18774   0.962   2.844   6.416 -0.3208 -0.9874  0.7893
  166SAPS   C3618775   0.966   3.064   6.384  0.4478 -0.2498  0.3227
  166SAPS   H6X18776   1.060   3.105   6.424 -0.2955  0.0890  1.7904
  166SAPS   H6Y18777   0.887   3.140   6.404  1.4606  1.0968 -0.6537
  166SAPS   C3718778   0.982   3.049   6.226  0.2727  0.3769  0.0196
  166SAPS   H7X18779   1.051   2.974   6.183 -0.8484  0.0620 -1.3027
  166SAPS   H7Y18780   1.022   3.151   6.212  0.3945  0.7050  2.3874
  166SAPS   C3818781   0.851   3.039   6.145  0.1936  0.6449  0.0892
  166SAPS   H8X18782   0.780   3.118   6.176  1.6507  1.8512  0.4567
  166SAPS   H8Y18783   0.807   2.940   6.170  1.2701  0.3204  0.7889
  166SAPS   C3918784   0.887   3.039   5.993 -0.2130 -0.2470  0.2104
  166SAPS   H9X18785   0.966   2.964   5.970  0.4286 -0.1288  1.8912
  166SAPS   H9Y18786   0.937   3.134   5.964  0.7991 -1.1288 -1.0656
  166SAPS  C31018787   0.776   3.016   5.889 -0.2992  0.4203  0.1433
  166SAPS  H10X18788   0.678   3.068   5.894 -0.6485 -0.3345  1.4524
  166SAPS  H10Y18789   0.754   2.908   5.897  0.1929  0.2094 -1.0445
  166SAPS  C31118790   0.839   3.066   5.757  0.1742 -0.0654  0.2641
  166SAPS  H11X18791   0.939   3.018   5.748  0.2957 -0.0326  1.3181
  166SAPS  H11Y18792   0.844   3.177   5.747  1.3152 -0.3251 -3.8725
  166SAPS  C31218793   0.775   3.007   5.627 -0.3319  0.0199 -0.6880
  166SAPS  H12X18794   0.674   3.051   5.613 -1.4070 -1.7451  1.1542
  166SAPS  H12Y18795   0.751   2.899   5.630  2.3919 -0.7221 -2.1017
  166SAPS  C31318796   0.851   3.053   5.503 -0.2960 -0.0347 -0.4819
  166SAPS  H13X18797   0.955   3.017   5.512 -1.1595 -2.7008 -0.0717
  166SAPS  H13Y18798   0.842   3.163   5.494  0.0752  0.1637  1.2533
  166SAPS  C31418799   0.788   2.992   5.376 -0.7194  0.6541 -0.6211
  166SAPS  H14X18800   0.682   3.024   5.383 -0.8271  0.4281 -1.1797
  166SAPS  H14Y18801   0.797   2.883   5.397  1.0667  1.4066  3.4264
  166SAPS  C31518802   0.842   3.045   5.246  0.5242  0.3699 -0.6380
  166SAPS  H15X18803   0.859   3.155   5.249  0.4178  0.3632  1.6099
  166SAPS  H15Y18804   0.766   3.009   5.173 -0.3583 -2.2452  1.3983
  166SAPS  C31618805   0.971   2.963   5.212  0.0911 -1.2117  0.8634
  166SAPS  H16X18806   0.952   2.854   5.212  0.0622 -1.2321 -0.8137
  166SAPS  H16Y18807   1.050   2.967   5.290  1.6897 -1.6847 -0.6760
  166SAPS  C31718808   1.021   2.980   5.070  0.3441 -0.1564 -0.5918
  166SAPS  H17X18809   0.963   2.905   5.013 -2.6943 -0.2666  2.3445
  166SAPS  H17Y18810   1.123   2.937   5.080 -0.0458 -0.8263  0.6201
  166SAPS  C31818811   1.025   3.122   5.020 -0.1265  0.0476 -0.4231
  166SAPS  H18X18812   0.924   3.153   4.985 -0.9505  2.8983  3.7255
  166SAPS  H18Y18813   1.101   3.134   4.939 -1.1080  2.4044 -1.0818
  166SAPS  H18Z18814   1.055   3.191   5.101 -1.2154  0.7111 -0.5581
  167SAPS     N18815   6.044   1.905   7.637  0.1947 -0.6362  0.3974
  167SAPS   HN118816   6.072   1.970   7.713 -0.1774  0.1239 -0.0947
  167SAPS   HN218817   6.127   1.887   7.576 -0.7756  0.2910 -1.2981
  167SAPS   HN318818   5.979   1.960   7.577 -0.2789 -1.8300 -0.2300
  167SAPS   C1218819   5.973   1.780   7.685 -0.2884 -0.5963 -0.1225
  167SAPS  H12A18820   5.960   1.715   7.599 -0.9366  2.0735 -2.1689
  167SAPS   C1318821   6.039   1.700   7.792 -0.1606 -0.7812  0.1002
  167SAPS  O13A18822   6.147   1.746   7.847  0.5716 -0.0320  0.1536
  167SAPS  O13B18823   5.980   1.597   7.837 -0.1249  0.4720  0.7122
  167SAPS   C1118824   5.826   1.834   7.735 -0.1850  0.0227  0.0272
  167SAPS  H11A18825   5.849   1.920   7.802 -1.3263  0.5489 -0.2240
  167SAPS  H11B18826   5.777   1.751   7.789  1.6593 -1.4647 -0.4786
  167SAPS     P18827   5.586   1.883   7.648  0.0184  0.0926 -0.2181
  167SAPS   O1318828   5.554   1.821   7.779 -0.4147 -0.2114 -0.6722
  167SAPS   O1418829   5.558   2.029   7.629  0.0319  0.2965  0.0782
  167SAPS   O1218830   5.741   1.877   7.625  0.4828  0.8001  0.2249
  167SAPS   O1118831   5.526   1.797   7.527  0.9736 -0.3853 -0.7155
  167SAPS    C118832   5.591   1.678   7.482 -0.2565 -0.4266  0.2085
  167SAPS    HA18833   5.673   1.637   7.546  2.3438  0.7223 -2.1465
  167SAPS    HB18834   5.518   1.597   7.468 -1.3175  0.2295  1.6616
  167SAPS    C218835   5.647   1.713   7.338  0.0217  0.0988  0.2884
  167SAPS    HS18836   5.716   1.799   7.348  0.1712 -0.1545  1.6053
  167SAPS   O2118837   5.529   1.742   7.259  0.2744 -0.4510  0.4077
  167SAPS   C2118838   5.560   1.799   7.141 -0.4085  1.4141  0.2569
  167SAPS   O2218839   5.663   1.859   7.116  0.4267 -0.1514 -0.3632
  167SAPS   C2218840   5.438   1.772   7.053 -0.2463  0.8481 -0.8937
  167SAPS   H2R18841   5.456   1.670   7.012 -1.8939 -0.1139  0.6479
  167SAPS   H2S18842   5.345   1.775   7.114 -0.0264  1.3532 -0.5785
  167SAPS    C318843   5.725   1.593   7.280 -0.7467  0.5838  0.0076
  167SAPS    HX18844   5.660   1.503   7.288 -0.5850  0.6469  3.0761
  167SAPS    HY18845   5.804   1.569   7.354 -0.2381  0.8476 -0.4503
  167SAPS   O3118846   5.780   1.623   7.148 -0.1243  0.8676  0.1361
  167SAPS   C3118847   5.786   1.519   7.057  0.5675 -0.1548  0.4307
  167SAPS   O3218848   5.767   1.404   7.085  0.1528 -0.2574  0.1029
  167SAPS   C3218849   5.818   1.559   6.915  0.0717  0.0668  0.2058
  167SAPS   H2X18850   5.926   1.581   6.929  0.6941 -3.2938  1.5788
  167SAPS   H2Y18851   5.756   1.646   6.883  1.3666  1.5578  1.5654
  167SAPS   C2318852   5.431   1.872   6.937  0.3227 -0.1001  0.0263
  167SAPS   H3R18853   5.527   1.868   6.880  0.7296 -0.5773  0.7350
  167SAPS   H3S18854   5.408   1.976   6.969  0.6336  1.1440 -3.3227
  167SAPS   C2418855   5.329   1.832   6.825  0.9574  0.1442 -0.2749
  167SAPS   H4R18856   5.239   1.821   6.890  1.2657 -0.2564  0.0879
  167SAPS   H4S18857   5.351   1.733   6.780 -3.3931 -1.9241  1.5204
  167SAPS   C2518858   5.297   1.945   6.728 -0.1689 -0.3053  0.2582
  167SAPS   H5R18859   5.267   2.043   6.767 -0.4381 -0.4636  0.4564
  167SAPS   C2618860   5.301   1.935   6.594 -0.1354  0.8138 -0.3894
  167SAPS   H6R18861   5.270   2.028   6.543  0.2378  1.5187  0.6372
  167SAPS   C2718862   5.312   1.802   6.509  0.4725  0.0526 -0.0383
  167SAPS   H7R18863   5.212   1.753   6.507  0.4530  0.1086 -1.0279
  167SAPS   H7S18864   5.380   1.729   6.559  0.4358 -0.0961 -0.2055
  167SAPS   C2818865   5.348   1.834   6.362  0.7970  0.0470  0.1953
  167SAPS   H8R18866   5.291   1.916   6.317  1.6686  0.8680  0.5428
  167SAPS   C2918867   5.449   1.787   6.284  0.0840 -0.1982  0.2805
  167SAPS   H9R18868   5.467   1.824   6.182 -1.7258  0.0999  0.0345
  167SAPS  C21018869   5.568   1.697   6.317  0.4388  0.3006  0.5963
  167SAPS  H10R18870   5.582   1.695   6.427 -2.5062 -1.2641  1.0498
  167SAPS  H10S18871   5.666   1.724   6.272 -0.5281  0.4596 -1.5517
  167SAPS  C21118872   5.524   1.557   6.269 -0.5663  0.6580  0.4608
  167SAPS  H11R18873   5.436   1.517   6.322 -1.3765  1.0259 -0.5742
  167SAPS  C21218874   5.579   1.493   6.160  0.2754 -0.0336  0.1973
  167SAPS  H12R18875   5.545   1.395   6.123  0.7669  0.1793 -0.8466
  167SAPS  C21318876   5.699   1.543   6.086  0.1922  0.0562 -0.7628
  167SAPS  H13R18877   5.721   1.477   6.000  1.8798  0.4994 -0.7136
  167SAPS  H13S18878   5.786   1.536   6.155  0.2991  1.7596 -0.6866
  167SAPS  C21418879   5.715   1.677   6.015 -0.5958 -0.4720 -0.3305
  167SAPS  H14R18880   5.802   1.731   6.054 -0.1835  0.3952 -2.2985
  167SAPS  C21518881   5.643   1.738   5.914  0.1065  0.9539 -0.5530
  167SAPS  H15R18882   5.675   1.839   5.886  2.8716  0.7699  1.5159
  167SAPS  C21618883   5.524   1.672   5.854 -0.5509 -0.3400  0.6448
  167SAPS  H16R18884   5.436   1.683   5.920 -0.5592 -0.4203  0.6468
  167SAPS  H16S18885   5.545   1.563   5.857  1.1796 -0.0272  1.5018
  167SAPS  C21718886   5.480   1.719   5.708 -0.3602 -0.8066 -0.1137
  167SAPS  H17R18887   5.398   1.648   5.683 -1.4902  0.7147 -0.8531
  167SAPS  H17S18888   5.568   1.695   5.644  1.2941  1.3159  1.2196
  167SAPS  C21818889   5.433   1.861   5.702  0.2989 -0.2719  0.0022
  167SAPS  H18R18890   5.511   1.930   5.741 -1.5094  2.4707 -0.9315
  167SAPS  H18S18891   5.347   1.883   5.768 -1.0001 -0.1292 -1.6723
  167SAPS  C21918892   5.381   1.903   5.557 -0.4999 -0.0350 -0.8379
  167SAPS  H19R18893   5.344   2.008   5.563 -0.4571 -0.0854  0.7461
  167SAPS  H19S18894   5.297   1.834   5.535  0.2267 -1.7844  1.4809
  167SAPS  C22018895   5.478   1.884   5.439  0.6964  0.0432 -0.3073
  167SAPS  H20R18896   5.449   1.961   5.365  1.0900  0.0073 -0.4997
  167SAPS  H20S18897   5.459   1.784   5.395  0.2014 -0.2122  0.4580
  167SAPS  H20T18898   5.585   1.900   5.461  1.1936  0.6604 -2.8085
  167SAPS   C3318899   5.810   1.452   6.799 -0.3130  0.2433 -0.5462
  167SAPS   H3X18900   5.706   1.417   6.781  0.2503 -1.6617 -0.3122
  167SAPS   H3Y18901   5.864   1.358   6.823 -1.3942 -0.0825  0.7707
  167SAPS   C3418902   5.873   1.517   6.669  0.4937 -0.3052 -0.0097
  167SAPS   H4X18903   5.980   1.538   6.691 -0.0297  3.6154 -0.5640
  167SAPS   H4Y18904   5.818   1.612   6.654  0.5023 -0.6919 -3.2597
  167SAPS   C3518905   5.861   1.444   6.534 -0.1497  0.7875 -0.6597
  167SAPS   H5X18906   5.894   1.512   6.453 -2.2290  0.7915 -1.5784
  167SAPS   H5Y18907   5.753   1.423   6.513  0.2731 -0.1279 -2.0693
  167SAPS   C3618908   5.938   1.312   6.528  0.0270 -0.2454  0.4042
  167SAPS   H6X18909   5.940   1.248   6.619 -0.0977 -1.7363 -0.6025
  167SAPS   H6Y18910   6.042   1.352   6.532 -0.6865  1.5909  2.6303
  167SAPS   C3718911   5.904   1.229   6.404 -0.3395  0.3829  0.1593
  167SAPS   H7X18912   5.803   1.246   6.362 -0.3384  0.8840  0.3570
  167SAPS   H7Y18913   5.915   1.121   6.427  2.1388  0.2746 -1.1915
  167SAPS   C3818914   6.001   1.264   6.289 -0.4203  0.7343 -0.2185
  167SAPS   H8X18915   6.094   1.211   6.316 -1.7732 -1.9027 -0.3890
  167SAPS   H8Y18916   6.034   1.370   6.292  1.7851  0.1133 -0.9827
  167SAPS   C3918917   5.946   1.214   6.157  0.5919 -0.0151 -0.5235
  167SAPS   H9X18918   5.844   1.255   6.140  0.1005 -1.7570 -2.1563
  167SAPS   H9Y18919   5.929   1.104   6.159  1.9580 -0.2467  1.1121
  167SAPS  C31018920   6.030   1.239   6.036 -0.0656 -0.6432  0.0155
  167SAPS  H10X18921   6.132   1.206   6.064  0.7514  1.6022 -0.0696
  167SAPS  H10Y18922   6.033   1.349   6.018 -1.4639 -0.6268 -0.1981
  167SAPS  C31118923   5.982   1.177   5.903 -0.1054 -0.2359 -0.0051
  167SAPS  H11X18924   5.905   1.099   5.920 -0.7640  0.7650  1.8565
  167SAPS  H11Y18925   6.068   1.123   5.858 -0.1169  0.8801 -1.4001
  167SAPS  C31218926   5.924   1.285   5.808  0.1203  0.2320 -0.1763
  167SAPS  H12X18927   5.847   1.342   5.866 -1.0319 -1.0967 -0.3510
  167SAPS  H12Y18928   5.875   1.228   5.727 -0.5642 -2.1645  1.8167
  167SAPS  C31318929   6.041   1.367   5.743  0.2792 -0.1815 -0.3075
  167SAPS  H13X18930   6.116   1.293   5.706  0.3455 -0.8570  1.1114
  167SAPS  H13Y18931   6.094   1.419   5.826 -1.0220 -0.6158  0.8336
  167SAPS  C31418932   5.998   1.473   5.637 -0.6502  0.7626 -0.6580
  167SAPS  H14X18933   5.928   1.413   5.575 -0.4536 -2.3609  1.8712
  167SAPS  H14Y18934   6.080   1.512   5.573  0.0880  0.9979  0.4029
  167SAPS  C31518935   5.921   1.587   5.695 -0.0851  0.2891  0.3337
  167SAPS  H15X18936   5.978   1.652   5.765 -2.1693 -0.2850  2.7106
  167SAPS  H15Y18937   5.836   1.552   5.756 -2.6611 -0.4099 -3.3279
  167SAPS  C31618938   5.860   1.686   5.593 -0.5619  0.1774 -0.6475
  167SAPS  H16X18939   5.789   1.747   5.653 -0.5698 -0.6702  0.2332
  167SAPS  H16Y18940   5.798   1.641   5.513 -0.2168 -1.1792 -0.1904
  167SAPS  C31718941   5.965   1.774   5.539 -0.0101 -0.0118  0.5050
  167SAPS  H17X18942   6.043   1.709   5.495 -0.2124 -0.8295  1.3329
  167SAPS  H17Y18943   6.022   1.823   5.621  1.1372  1.7334 -1.2458
  167SAPS  C31818944   5.918   1.866   5.429  0.3493 -0.4365  0.1578
  167SAPS  H18X18945   6.006   1.915   5.383 -1.1420  0.7852 -1.5385
  167SAPS  H18Y18946   5.851   1.948   5.463 -0.7778 -1.3410  0.1777
  167SAPS  H18Z18947   5.857   1.800   5.364  1.4724 -0.8881 -0.4548
  168SAPS     N18948   3.072   2.617   7.418  0.2229 -0.2734  0.6819
  168SAPS   HN118949   2.984   2.673   7.425  0.5626  0.2216  1.0510
  168SAPS   HN218950   3.155   2.676   7.397 -0.2371  1.0253  2.3094
  168SAPS   HN318951   3.064   2.540   7.349  0.2686 -1.7890  2.3253
  168SAPS   C1218952   3.092   2.557   7.553  0.4374  0.1651 -0.2658
  168SAPS  H12A18953   3.113   2.634   7.625  0.6567  0.5680 -0.7564
  168SAPS   C1318954   2.972   2.465   7.606  0.5481  0.7361 -1.2657
  168SAPS  O13A18955   2.874   2.439   7.530 -0.9589  0.4642  0.2043
  168SAPS  O13B18956   2.957   2.433   7.726 -0.3331 -0.2860  0.2245
  168SAPS   C1118957   3.217   2.467   7.550  0.1485 -0.2005 -0.3725
  168SAPS  H11A18958   3.305   2.525   7.513  1.5519 -1.2396  1.1740
  168SAPS  H11B18959   3.197   2.378   7.487 -0.0375 -2.9237  3.1917
  168SAPS     P18960   3.386   2.426   7.745  0.2852  0.4280  0.2225
  168SAPS   O1318961   3.425   2.565   7.770  0.9079  0.0088  0.9978
  168SAPS   O1418962   3.396   2.344   7.866 -0.4097  0.7826  0.2835
  168SAPS   O1218963   3.240   2.416   7.685 -0.3136  0.1703 -0.2623
  168SAPS   O1118964   3.478   2.375   7.626  0.0098  0.2408 -0.2450
  168SAPS    C118965   3.527   2.239   7.628  0.1085  0.0811 -0.8623
  168SAPS    HA18966   3.603   2.220   7.707  0.0470  1.3822 -0.4612
  168SAPS    HB18967   3.447   2.162   7.626  0.0560  0.1213 -0.4328
  168SAPS    C218968   3.610   2.212   7.504  0.1830  0.0537  0.2634
  168SAPS    HS18969   3.711   2.258   7.512  0.6692 -0.8428 -0.4345
  168SAPS   O2118970   3.546   2.267   7.388 -0.4436  0.4614  0.2319
  168SAPS   C2118971   3.440   2.208   7.326 -0.7622  0.2927 -0.0669
  168SAPS   O2218972   3.383   2.109   7.362 -0.4721 -0.2629 -0.1343
  168SAPS   C2218973   3.383   2.297   7.211 -0.6641  0.6328  0.4106
  168SAPS   H2R18974   3.302   2.352   7.263 -0.7113  0.1223  0.8839
  168SAPS   H2S18975   3.464   2.367   7.178 -1.1799 -0.5223 -3.9040
  168SAPS    C318976   3.646   2.061   7.487 -0.3424  0.5409 -0.0223
  168SAPS    HX18977   3.555   1.998   7.499  0.1297 -0.0150  0.6592
  168SAPS    HY18978   3.721   2.027   7.561 -2.5281  1.9231  3.0511
  168SAPS   O3118979   3.700   2.054   7.350 -0.5545  0.1174  0.4451
  168SAPS   C3118980   3.716   1.918   7.305  0.7751 -0.4060 -0.1774
  168SAPS   O3218981   3.667   1.828   7.367  0.0551 -0.3590 -0.4542
  168SAPS   C3218982   3.782   1.908   7.170  0.6287 -0.3974 -1.1314
  168SAPS   H2X18983   3.882   1.861   7.183  0.0044 -1.7907 -1.0954
  168SAPS   H2Y18984   3.802   2.003   7.117  1.3073 -1.1825 -2.3471
  168SAPS   C2318985   3.332   2.217   7.086  0.3332 -0.4388  0.1974
  168SAPS   H3R18986   3.305   2.287   7.004  0.2803  0.1628  0.7224
  168SAPS   H3S18987   3.249   2.151   7.122  0.0783  0.8775  2.1939
  168SAPS   C2418988   3.445   2.124   7.029  0.3448 -0.2959 -0.1082
  168SAPS   H4R18989   3.401   2.080   6.938  1.5091 -0.8729 -0.4122
  168SAPS   H4S18990   3.465   2.044   7.104  3.0670  0.9364  0.6270
  168SAPS   C2518991   3.579   2.178   6.997 -0.2288  0.5388 -0.0241
  168SAPS   H5R18992   3.626   2.229   7.082 -0.3468 -1.9734  1.6623
  168SAPS   C2618993   3.653   2.157   6.892 -0.4602  0.8083  0.2670
  168SAPS   H6R18994   3.750   2.205   6.872  0.7197 -1.4419  0.1659
  168SAPS   C2718995   3.612   2.081   6.769 -0.3269 -0.3910 -0.0567
  168SAPS   H7R18996   3.557   1.989   6.797  2.2362 -1.4328  1.9092
  168SAPS   H7S18997   3.704   2.055   6.712  1.3667  0.4299  2.1719
  168SAPS   C2818998   3.520   2.171   6.689  0.0031 -0.0037  0.1116
  168SAPS   H8R18999   3.454   2.226   6.758  1.2004  1.4679  0.1449
  168SAPS   C2919000   3.510   2.173   6.557  0.5272  0.3262  0.0332
  168SAPS   H9R19001   3.443   2.251   6.517 -0.1555  0.0050  0.5232
  168SAPS  C21019002   3.601   2.108   6.459  0.1816  0.4858  0.4188
  168SAPS  H10R19003   3.705   2.101   6.497  1.2019 -1.2680 -2.3532
  168SAPS  H10S19004   3.598   2.154   6.358 -0.9311  2.4768  1.3201
  168SAPS  C21119005   3.570   1.955   6.440 -0.9149  0.2137 -0.1397
  168SAPS  H11R19006   3.541   1.897   6.529  1.6584 -1.4236 -0.2781
  168SAPS  C21219007   3.560   1.890   6.318  0.3705  0.3206 -1.2390
  168SAPS  H12R19008   3.530   1.784   6.320 -0.5921  0.5880 -0.9323
  168SAPS  C21319009   3.603   1.946   6.187  0.3527 -0.3093 -0.0050
  168SAPS  H13R19010   3.670   1.877   6.131  0.2204 -0.8041  0.4397
  168SAPS  H13S19011   3.671   2.032   6.205 -0.8948  0.6257  0.3686
  168SAPS  C21419012   3.478   1.983   6.111  0.4483  0.3743  0.3745
  168SAPS  H14R19013   3.389   2.018   6.166 -1.0478  1.6921 -2.6222
  168SAPS  C21519014   3.458   1.960   5.978 -0.8142  0.6670  0.3937
  168SAPS  H15R19015   3.364   1.998   5.937 -1.5935 -2.4912 -1.1005
  168SAPS  C21619016   3.552   1.897   5.879  0.3060 -0.3516 -0.2798
  168SAPS  H16R19017   3.588   1.797   5.911 -0.8748 -1.0254 -1.0026
  168SAPS  H16S19018   3.629   1.974   5.855  1.4154 -0.8741  1.3669
  168SAPS  C21719019   3.487   1.865   5.740  0.1625  0.4662  0.2655
  168SAPS  H17R19020   3.441   1.956   5.693  0.3906 -0.2758 -1.4854
  168SAPS  H17S19021   3.410   1.793   5.775  2.1834 -1.3314  1.1823
  168SAPS  C21819022   3.585   1.795   5.657 -0.5734 -0.1243  0.3025
  168SAPS  H18R19023   3.545   1.700   5.615 -0.7891 -0.3214  0.9352
  168SAPS  H18S19024   3.670   1.763   5.721 -1.5043  0.4534  1.8680
  168SAPS  C21919025   3.641   1.885   5.541 -0.3974 -0.8376  0.5474
  168SAPS  H19R19026   3.550   1.917   5.487 -0.6269  0.8446  1.8184
  168SAPS  H19S19027   3.706   1.829   5.471  0.8477  3.1746 -1.8747
  168SAPS  C22019028   3.708   2.015   5.580 -0.2063  0.3553  0.3454
  168SAPS  H20R19029   3.738   2.067   5.487 -1.7639 -0.4552 -0.6451
  168SAPS  H20S19030   3.800   1.993   5.638 -0.4164 -0.6577  0.3034
  168SAPS  H20T19031   3.629   2.072   5.633  0.6113 -0.3803  2.4731
  168SAPS   C3319032   3.698   1.821   7.070  0.4373 -0.0849  0.3783
  168SAPS   H3X19033   3.608   1.883   7.055 -0.5617 -1.0054  2.2223
  168SAPS   H3Y19034   3.677   1.734   7.135 -0.4280  1.2617  1.9707
  168SAPS   C3419035   3.777   1.782   6.944 -0.1139  0.1879  0.0089
  168SAPS   H4X19036   3.862   1.713   6.964 -1.0645 -1.3990 -1.1723
  168SAPS   H4Y19037   3.805   1.877   6.894  0.5630  0.2195  0.4298
  168SAPS   C3519038   3.682   1.698   6.864 -0.8064  0.3276  0.5316
  168SAPS   H5X19039   3.606   1.771   6.828  0.4646 -0.0457 -3.3852
  168SAPS   H5Y19040   3.639   1.614   6.923 -1.8260  0.5494  0.1218
  168SAPS   C3619041   3.747   1.634   6.743  0.1840 -0.8657 -0.0894
  168SAPS   H6X19042   3.665   1.590   6.681 -0.2148 -1.2696  0.7103
  168SAPS   H6Y19043   3.815   1.555   6.780  1.0118 -0.4450 -0.6913
  168SAPS   C3719044   3.825   1.740   6.664  0.5784  0.5404 -0.0685
  168SAPS   H7X19045   3.928   1.753   6.703  0.5887  2.0820 -0.5401
  168SAPS   H7Y19046   3.778   1.840   6.676 -3.1573 -1.1603  0.9235
  168SAPS   C3819047   3.836   1.700   6.518 -0.5996 -0.0962  0.0284
  168SAPS   H8X19048   3.731   1.690   6.483 -0.5139 -1.5479  0.1280
  168SAPS   H8Y19049   3.866   1.593   6.518 -1.2072 -0.2753  0.3695
  168SAPS   C3919050   3.923   1.788   6.430 -0.1548  0.2803  0.2589
  168SAPS   H9X19051   4.028   1.782   6.466 -0.4941  0.9019  1.4203
  168SAPS   H9Y19052   3.897   1.896   6.434  1.5985  0.7389  0.0214
  168SAPS  C31019053   3.921   1.771   6.275  0.0735 -0.3936 -0.6055
  168SAPS  H10X19054   3.817   1.749   6.243  0.0133 -2.1043  0.6050
  168SAPS  H10Y19055   3.985   1.684   6.247  0.4871  0.1489 -1.3768
  168SAPS  C31119056   3.973   1.896   6.210 -0.0904  0.1093 -0.5440
  168SAPS  H11X19057   4.079   1.913   6.240  0.3145 -0.6857 -1.4754
  168SAPS  H11Y19058   3.911   1.979   6.251 -0.3780  1.7174 -3.9453
  168SAPS  C31219059   3.976   1.886   6.059 -0.2962  0.5665 -0.5132
  168SAPS  H12X19060   3.972   1.990   6.018  0.7006  0.3348 -1.2355
  168SAPS  H12Y19061   3.880   1.838   6.028  0.8859 -1.9817 -0.4453
  168SAPS  C31319062   4.095   1.808   6.003  0.6264 -0.0808 -0.1452
  168SAPS  H13X19063   4.084   1.704   6.039  0.8786 -0.5645 -1.3963
  168SAPS  H13Y19064   4.182   1.872   6.031 -0.4809  0.8457  1.3079
  168SAPS  C31419065   4.103   1.808   5.845  0.9993  0.1871  0.1492
  168SAPS  H14X19066   3.997   1.782   5.823  0.3938  1.5694  1.2088
  168SAPS  H14Y19067   4.169   1.726   5.813 -0.1072 -1.8855  2.7577
  168SAPS  C31519068   4.116   1.939   5.780 -0.2397  0.1150  0.3081
  168SAPS  H15X19069   4.224   1.967   5.785 -0.4516  0.8118  1.0862
  168SAPS  H15Y19070   4.076   2.032   5.826  0.0621 -0.0098  0.8237
  168SAPS  C31619071   4.077   1.938   5.628  0.0027  0.5462  0.4600
  168SAPS  H16X19072   3.985   1.875   5.619 -0.0040  0.6329 -0.1174
  168SAPS  H16Y19073   4.150   1.877   5.570 -0.1193  0.7064  0.1378
  168SAPS  C31719074   4.077   2.075   5.556  0.3896 -0.2116 -0.6165
  168SAPS  H17X19075   4.181   2.114   5.556  0.5387 -0.5016  1.0492
  168SAPS  H17Y19076   4.017   2.146   5.616  1.2290  0.8990 -1.0575
  168SAPS  C31819077   4.026   2.077   5.416 -0.1782 -0.3060 -0.1021
  168SAPS  H18X19078   4.098   2.029   5.347  0.3445 -0.0590  0.2664
  168SAPS  H18Y19079   4.021   2.185   5.392 -0.6385 -0.2730  0.1211
  168SAPS  H18Z19080   3.924   2.038   5.395  0.2975 -1.3704 -0.4739
  169SAPS     N19081   4.779   4.139   7.247 -0.3391 -0.2231  0.4151
  169SAPS   HN119082   4.830   4.050   7.228 -0.1115  0.1293 -0.6665
  169SAPS   HN219083   4.679   4.117   7.270 -0.2050 -2.0782 -0.6001
  169SAPS   HN319084   4.781   4.199   7.163 -0.8151 -1.2725 -0.3649
  169SAPS   C1219085   4.846   4.209   7.365 -0.8372  0.6570  0.3168
  169SAPS  H12A19086   4.806   4.308   7.379 -2.6765 -0.1538  1.1427
  169SAPS   C1319087   4.836   4.118   7.496 -0.0668 -0.1390  0.0409
  169SAPS  O13A19088   4.779   4.003   7.481  0.3408 -0.1115  0.3393
  169SAPS  O13B19089   4.863   4.164   7.609  0.1886 -0.1740 -0.1352
  169SAPS   C1119090   4.998   4.226   7.326  0.6959 -0.7322  0.1450
  169SAPS  H11A19091   5.064   4.270   7.404  0.3429  2.3114 -1.1007
  169SAPS  H11B19092   4.974   4.304   7.250  2.3344  0.4303  0.7649
  169SAPS     P19093   5.195   4.113   7.210  0.0759 -0.0305  0.6221
  169SAPS   O1319094   5.296   4.159   7.306 -0.3821  0.0504 -0.4781
  169SAPS   O1419095   5.230   3.991   7.143 -0.6989 -0.0618 -0.0736
  169SAPS   O1219096   5.056   4.105   7.282 -0.6034 -1.0376  0.8459
  169SAPS   O1119097   5.178   4.227   7.103 -0.3366 -0.1357  0.2994
  169SAPS    C119098   5.098   4.206   6.982 -0.5925 -0.7090 -0.4924
  169SAPS    HA19099   5.161   4.152   6.908  0.1507  0.4650 -0.7552
  169SAPS    HB19100   5.011   4.140   7.001 -0.1901 -1.8312 -2.3369
  169SAPS    C219101   5.048   4.339   6.918  0.4146 -0.1642 -0.5210
  169SAPS    HS19102   4.999   4.408   6.991 -0.6627  0.0575 -1.4343
  169SAPS   O2119103   4.945   4.319   6.821  0.6881 -0.1824 -0.1526
  169SAPS   C2119104   4.823   4.289   6.880 -0.1309 -0.4806 -0.2049
  169SAPS   O2219105   4.803   4.291   7.001  0.1442  0.0367 -0.4412
  169SAPS   C2219106   4.712   4.258   6.785  0.4429  0.9021  0.4109
  169SAPS   H2R19107   4.673   4.355   6.746 -1.9648 -1.4783 -3.8153
  169SAPS   H2S19108   4.740   4.202   6.693  1.4098  1.3412  0.4295
  169SAPS    C319109   5.162   4.428   6.863 -0.1662  0.1677  0.2572
  169SAPS    HX19110   5.229   4.446   6.950  0.9854  0.4140 -0.6403
  169SAPS    HY19111   5.116   4.521   6.822 -0.8347 -1.5425 -3.2422
  169SAPS   O3119112   5.243   4.358   6.763 -0.5259 -0.1423 -0.2433
  169SAPS   C3119113   5.191   4.380   6.642 -0.2943 -0.1665 -0.6445
  169SAPS   O3219114   5.097   4.453   6.617 -0.4145 -0.5082  0.7919
  169SAPS   C3219115   5.267   4.309   6.531  0.4374 -0.2990 -0.8196
  169SAPS   H2X19116   5.259   4.203   6.564  0.6373  0.1432  0.7625
  169SAPS   H2Y19117   5.372   4.345   6.522  0.7118 -0.7272  0.4636
  169SAPS   C2319118   4.608   4.171   6.863  0.2376  0.4125  0.2234
  169SAPS   H3R19119   4.578   4.219   6.959 -2.0055  0.0667 -0.2634
  169SAPS   H3S19120   4.654   4.073   6.888  0.0427  0.2965  0.1239
  169SAPS   C2419121   4.483   4.140   6.783 -1.1618 -0.1985 -0.0582
  169SAPS   H4R19122   4.419   4.068   6.839 -1.1851 -1.3544 -1.5042
  169SAPS   H4S19123   4.511   4.085   6.691  0.9151  1.1482 -0.3000
  169SAPS   C2519124   4.402   4.253   6.736  0.1630 -0.9229 -0.0708
  169SAPS   H5R19125   4.341   4.295   6.817 -0.1917 -1.6815  0.0683
  169SAPS   C2619126   4.425   4.330   6.625  0.4758  0.5550 -0.8480
  169SAPS   H6R19127   4.356   4.414   6.608 -0.2333  0.3751  0.9282
  169SAPS   C2719128   4.502   4.289   6.506  0.2181  0.1655 -0.0200
  169SAPS   H7R19129   4.441   4.223   6.441  1.4723 -2.1779  1.0725
  169SAPS   H7S19130   4.591   4.228   6.531 -0.2098 -0.2478  0.5234
  169SAPS   C2819131   4.544   4.403   6.421  0.0641  0.4199 -0.3202
  169SAPS   H8R19132   4.619   4.475   6.456  0.3926 -0.5213  0.9994
  169SAPS   C2919133   4.507   4.440   6.295 -0.2118 -0.5000 -0.5890
  169SAPS   H9R19134   4.564   4.522   6.250  0.5652 -0.7967 -0.1640
  169SAPS  C21019135   4.416   4.360   6.206  0.0594 -0.1626  0.5393
  169SAPS  H10R19136   4.351   4.424   6.144 -0.4947  1.8451  3.0102
  169SAPS  H10S19137   4.352   4.289   6.262 -0.5740 -0.9549 -1.1267
  169SAPS  C21119138   4.506   4.275   6.126 -0.4189  0.2962 -0.0255
  169SAPS  H11R19139   4.568   4.212   6.192  1.8100  2.6609  0.2994
  169SAPS  C21219140   4.500   4.245   5.994 -0.0453  0.0582  0.5369
  169SAPS  H12R19141   4.560   4.162   5.955 -2.2020 -1.6904  0.8151
  169SAPS  C21319142   4.396   4.288   5.895 -1.1136 -0.8552  0.2534
  169SAPS  H13R19143   4.437   4.298   5.793  0.7430  1.1641  1.1024
  169SAPS  H13S19144   4.353   4.387   5.923 -0.2003 -1.1580  3.0427
  169SAPS  C21419145   4.295   4.177   5.896  0.0969  0.3985  0.6335
  169SAPS  H14R19146   4.235   4.163   5.987  0.9943 -1.2726  1.0109
  169SAPS  C21519147   4.266   4.099   5.785  0.4899 -0.4895 -0.3870
  169SAPS  H15R19148   4.208   4.007   5.804  0.8801 -0.6700 -0.0535
  169SAPS  C21619149   4.302   4.107   5.640  0.3343 -0.4943 -0.7170
  169SAPS  H16R19150   4.369   4.020   5.624  3.1170  1.6021 -1.0752
  169SAPS  H16S19151   4.361   4.200   5.628 -0.2320 -0.0787 -0.3645
  169SAPS  C21719152   4.178   4.096   5.550  0.5102 -0.1646  0.1587
  169SAPS  H17R19153   4.108   4.183   5.557  2.5145  1.7247 -1.5625
  169SAPS  H17S19154   4.124   4.003   5.576 -1.1757  0.5558 -0.6112
  169SAPS  C21819155   4.221   4.100   5.400 -0.0811  0.1524  0.7114
  169SAPS  H18R19156   4.305   4.029   5.382 -0.4583 -0.2365  0.4660
  169SAPS  H18S19157   4.253   4.200   5.364 -1.4461 -0.0908 -1.3370
  169SAPS  C21919158   4.094   4.060   5.315  0.2240 -0.1159 -0.3222
  169SAPS  H19R19159   4.005   4.124   5.333  0.2129 -0.0488 -0.6137
  169SAPS  H19S19160   4.066   3.964   5.364 -0.9328  1.4946  2.3635
  169SAPS  C22019161   4.114   4.041   5.169  0.0999 -0.7908  0.2851
  169SAPS  H20R19162   4.150   4.136   5.123 -0.4146 -0.5607  0.3452
  169SAPS  H20S19163   4.016   4.015   5.124 -0.8961  3.0123 -0.1002
  169SAPS  H20T19164   4.179   3.954   5.146 -0.4928 -1.1964  0.1272
  169SAPS   C3319165   5.209   4.334   6.386  0.7843 -0.1686 -0.7497
  169SAPS   H3X19166   5.161   4.434   6.389 -2.0761 -1.4360  2.1356
  169SAPS   H3Y19167   5.126   4.261   6.368  0.1466  0.6218 -1.0908
  169SAPS   C3419168   5.304   4.336   6.269  0.5423  0.2410  0.6164
  169SAPS   H4X19169   5.350   4.236   6.278 -2.5997 -1.2576  1.6184
  169SAPS   H4Y19170   5.386   4.410   6.263  2.5207 -1.8268  0.7087
  169SAPS   C3519171   5.242   4.328   6.128  0.6639 -0.7218 -0.6476
  169SAPS   H5X19172   5.172   4.411   6.103  0.8311 -0.2719  0.3397
  169SAPS   H5Y19173   5.185   4.233   6.118  0.7508 -0.8816  0.3400
  169SAPS   C3619174   5.342   4.327   6.018  1.1801  0.2327 -0.4222
  169SAPS   H6X19175   5.396   4.231   6.029 -0.0409 -0.3482  0.7719
  169SAPS   H6Y19176   5.410   4.415   6.028 -0.6094  1.7831 -1.1949
  169SAPS   C3719177   5.287   4.343   5.872 -0.4217 -0.2697  0.4458
  169SAPS   H7X19178   5.250   4.448   5.868  1.4855  0.4180 -0.0761
  169SAPS   H7Y19179   5.195   4.281   5.871 -0.3475 -0.3926 -0.8982
  169SAPS   C3819180   5.383   4.316   5.757  0.0942 -0.2886  0.5479
  169SAPS   H8X19181   5.421   4.212   5.767  1.3375  0.2325  1.4928
  169SAPS   H8Y19182   5.472   4.383   5.766  1.9502 -2.8873  3.3807
  169SAPS   C3919183   5.316   4.352   5.622  0.4516 -0.3864 -0.5322
  169SAPS   H9X19184   5.255   4.445   5.627 -1.7097 -1.7855  1.2906
  169SAPS   H9Y19185   5.250   4.265   5.604 -0.5803 -0.2678  2.2202
  169SAPS  C31019186   5.416   4.357   5.502  0.0930  0.1634 -0.5222
  169SAPS  H10X19187   5.455   4.254   5.497  1.6602  0.6545  0.6829
  169SAPS  H10Y19188   5.509   4.417   5.509  0.6034 -0.4216 -1.8764
  169SAPS  C31119189   5.349   4.383   5.367 -0.1508  0.1823  0.0537
  169SAPS  H11X19190   5.329   4.492   5.375 -2.9452 -0.3748  1.8820
  169SAPS  H11Y19191   5.256   4.324   5.356 -0.4178  0.9337 -2.1755
  169SAPS  C31219192   5.444   4.357   5.244 -0.3172 -0.0123 -0.1762
  169SAPS  H12X19193   5.548   4.390   5.268 -1.3669  3.0897  0.5744
  169SAPS  H12Y19194   5.407   4.413   5.156  0.5354 -0.6471 -0.9642
  169SAPS  C31319195   5.466   4.205   5.206 -0.2200  0.0264 -0.8966
  169SAPS  H13X19196   5.364   4.166   5.186 -0.9427  0.9841  0.7452
  169SAPS  H13Y19197   5.502   4.157   5.299  0.2288  0.8604 -0.6327
  169SAPS  C31419198   5.554   4.168   5.090  0.2678 -1.1930  0.3798
  169SAPS  H14X19199   5.659   4.192   5.116 -0.6314  1.4822  1.9570
  169SAPS  H14Y19200   5.530   4.239   5.008 -1.0987 -3.0138 -0.8856
  169SAPS  C31519201   5.523   4.029   5.048 -0.0278 -0.4427  0.4649
  169SAPS  H15X19202   5.549   4.018   4.941 -0.5446 -0.8312  0.3778
  169SAPS  H15Y19203   5.415   4.006   5.062  0.0108  0.1270  1.9000
  169SAPS  C31619204   5.609   3.930   5.126  0.4584  0.4369 -0.5690
  169SAPS  H16X19205   5.614   3.953   5.235  3.3324 -1.1095 -0.2751
  169SAPS  H16Y19206   5.714   3.936   5.092  1.3355 -2.8437  1.0910
  169SAPS  C31719207   5.566   3.784   5.109  0.1497 -0.2011  0.1781
  169SAPS  H17X19208   5.467   3.756   5.152  0.5591  1.4102  2.3488
  169SAPS  H17Y19209   5.645   3.728   5.163 -0.2251 -0.4577  0.4658
  169SAPS  C31819210   5.565   3.736   4.964 -0.2297 -0.4753  0.1477
  169SAPS  H18X19211   5.494   3.797   4.903 -1.8591  0.2336  2.6212
  169SAPS  H18Y19212   5.536   3.630   4.953  1.9571 -1.1021 -0.1429
  169SAPS  H18Z19213   5.668   3.751   4.925  0.8358  1.1767  3.2407
  170SAPS     N19214   0.445   1.804   7.531 -0.1839 -0.7203 -0.3529
  170SAPS   HN119215   0.428   1.822   7.632  0.3185  1.2803 -0.5746
  170SAPS   HN219216   0.543   1.821   7.502  0.8489 -1.4862  2.4183
  170SAPS   HN319217   0.381   1.872   7.484 -0.4138 -0.1254  0.7804
  170SAPS   C1219218   0.400   1.669   7.493 -0.2319 -0.5030  0.1936
  170SAPS  H12A19219   0.467   1.588   7.517 -0.5351 -0.6521  0.5466
  170SAPS   C1319220   0.274   1.614   7.559 -0.5361 -0.1995  0.2169
  170SAPS  O13A19221   0.229   1.681   7.650 -0.2534 -0.7352 -0.0524
  170SAPS  O13B19222   0.255   1.485   7.554  0.0092 -0.0202 -0.1643
  170SAPS   C1119223   0.398   1.659   7.339 -0.2151 -0.1529 -0.6198
  170SAPS  H11A19224   0.387   1.552   7.310 -1.3495  0.0900 -1.1453
  170SAPS  H11B19225   0.501   1.688   7.312  0.4502 -0.0181  1.8528
  170SAPS     P19226   0.177   1.685   7.194 -0.1566 -0.4521 -0.3380
  170SAPS   O1319227   0.058   1.697   7.287 -0.0433 -0.3819  0.0291
  170SAPS   O1419228   0.178   1.760   7.067  0.1383  0.0143  0.0117
  170SAPS   O1219229   0.297   1.736   7.277 -0.0747  0.5093  0.2305
  170SAPS   O1119230   0.203   1.530   7.173 -0.5309  0.0053  0.4622
  170SAPS    C119231   0.101   1.444   7.120 -0.4280 -0.1638 -0.4225
  170SAPS    HA19232   0.100   1.351   7.181 -1.9086  1.2973  1.9173
  170SAPS    HB19233   0.005   1.500   7.117 -0.1268  0.4361  0.5659
  170SAPS    C219234   0.123   1.407   6.974  0.3062 -0.0458  0.2045
  170SAPS    HS19235   0.226   1.364   6.971  0.7873  1.0236  1.0023
  170SAPS   O2119236   0.122   1.520   6.888  0.3657  0.0630  0.7925
  170SAPS   C2119237   0.154   1.492   6.761  0.5743  0.5714 -0.3401
  170SAPS   O2219238   0.200   1.388   6.716  0.1300 -0.1222 -1.2990
  170SAPS   C2219239   0.143   1.611   6.673  0.0105 -0.2753  0.2786
  170SAPS   H2R19240   0.081   1.688   6.724 -1.2271 -0.9436 -0.1707
  170SAPS   H2S19241   0.243   1.650   6.646 -0.9231  2.4651  0.5511
  170SAPS    C319242   0.025   1.293   6.928  0.5930  0.3563 -0.6581
  170SAPS    HX19243   0.034   1.210   7.002  2.6180 -1.1228 -2.4050
  170SAPS    HY19244   0.049   1.239   6.833 -0.7210 -0.0361 -0.7773
  170SAPS   O3119245  -0.108   1.354   6.925  0.5609 -0.3393 -0.7917
  170SAPS   C3119246  -0.209   1.291   6.990  0.3479  0.1219  0.6821
  170SAPS   O3219247  -0.202   1.184   7.051 -0.5960  0.5875 -0.1858
  170SAPS   C3219248  -0.341   1.371   6.969 -0.4861 -0.1090  0.0039
  170SAPS   H2X19249  -0.324   1.466   6.914 -2.6564 -1.2762 -2.9102
  170SAPS   H2Y19250  -0.394   1.406   7.060  1.6023  2.9432  0.1938
  170SAPS   C2319251   0.083   1.577   6.532  0.4218  0.2723  0.1303
  170SAPS   H3R19252   0.047   1.676   6.495 -3.0658  0.5019  3.4906
  170SAPS   H3S19253  -0.012   1.527   6.561 -0.7724  1.7844 -1.0080
  170SAPS   C2419254   0.191   1.511   6.441 -0.0200 -0.1399  0.5389
  170SAPS   H4R19255   0.271   1.459   6.497 -0.2092 -0.8300  0.1745
  170SAPS   H4S19256   0.242   1.582   6.373  2.0764 -1.6546  0.4530
  170SAPS   C2519257   0.135   1.400   6.353 -0.4000  0.4856 -0.8228
  170SAPS   H5R19258   0.167   1.297   6.379 -2.8990 -0.9731 -2.9860
  170SAPS   C2619259   0.061   1.417   6.250 -0.0151 -0.0349 -0.1159
  170SAPS   H6R19260   0.024   1.336   6.185  2.4723 -0.2544 -1.3506
  170SAPS   C2719261   0.020   1.554   6.191 -0.4792  0.1936  0.0253
  170SAPS   H7R19262   0.074   1.572   6.096  0.6825  1.5759  0.9117
  170SAPS   H7S19263   0.057   1.640   6.250  1.7781 -0.5124 -0.2511
  170SAPS   C2819264  -0.128   1.568   6.164  0.1171 -0.3143 -0.3678
  170SAPS   H8R19265  -0.187   1.591   6.254  0.6670 -1.5996  0.3496
  170SAPS   C2919266  -0.199   1.563   6.050  0.4537 -0.3438 -0.2099
  170SAPS   H9R19267  -0.308   1.572   6.057  0.6390  1.1668  1.3654
  170SAPS  C21019268  -0.142   1.531   5.914  0.6859 -0.5051 -0.6064
  170SAPS  H10R19269  -0.078   1.440   5.922 -1.0197 -1.6197  2.4650
  170SAPS  H10S19270  -0.092   1.619   5.871 -0.3099 -0.5799 -1.9755
  170SAPS  C21119271  -0.251   1.504   5.820 -0.1737 -0.1408 -0.2579
  170SAPS  H11R19272  -0.351   1.541   5.847  0.5415  2.2540 -0.6139
  170SAPS  C21219273  -0.228   1.452   5.702 -0.6586 -0.1709 -0.1542
  170SAPS  H12R19274  -0.309   1.450   5.628 -0.2403 -0.6892 -0.6111
  170SAPS  C21319275  -0.092   1.396   5.663  0.5785 -0.2265 -0.1598
  170SAPS  H13R19276  -0.088   1.286   5.646 -0.9706 -0.2589 -0.4243
  170SAPS  H13S19277  -0.007   1.421   5.732  0.5875  0.2570 -0.3424
  170SAPS  C21419278  -0.039   1.473   5.545  0.2079  0.3999 -0.3535
  170SAPS  H14R19279  -0.012   1.577   5.568  2.1582 -0.5230  2.0846
  170SAPS  C21519280  -0.020   1.432   5.422  0.1888 -0.7499 -0.1415
  170SAPS  H15R19281   0.035   1.501   5.356  0.5996 -0.7240  0.2270
  170SAPS  C21619282  -0.043   1.289   5.373  0.4887 -0.7136  0.0161
  170SAPS  H16R19283   0.014   1.217   5.436 -1.8635 -0.9627  2.0168
  170SAPS  H16S19284   0.011   1.288   5.276  0.9924  0.9815  0.2499
  170SAPS  C21719285  -0.184   1.236   5.345 -0.3970  0.4826 -0.5129
  170SAPS  H17R19286  -0.245   1.291   5.270 -0.2468  0.7074 -0.4730
  170SAPS  H17S19287  -0.233   1.238   5.445 -0.2031  1.3967 -0.4220
  170SAPS  C21819288  -0.187   1.088   5.290  0.3895 -0.2555  1.0680
  170SAPS  H18R19289  -0.140   1.020   5.364  0.6944  0.0719  1.1797
  170SAPS  H18S19290  -0.121   1.083   5.201  2.8607  1.8038  2.6181
  170SAPS  C21919291  -0.329   1.045   5.255  0.7537 -0.1813  0.2692
  170SAPS  H19R19292  -0.366   1.126   5.189  1.8307  0.6868  0.6980
  170SAPS  H19S19293  -0.396   1.028   5.342 -0.4515  0.5695 -0.4841
  170SAPS  C22019294  -0.322   0.907   5.179  0.3027  0.8778 -0.7273
  170SAPS  H20R19295  -0.253   0.837   5.231 -1.4633 -0.7421 -0.4223
  170SAPS  H20S19296  -0.286   0.918   5.075 -0.0316 -0.6320 -1.0286
  170SAPS  H20T19297  -0.418   0.853   5.165  0.9525 -0.5571  0.0961
  170SAPS   C3319298  -0.447   1.284   6.893 -0.0575 -0.5680  0.0560
  170SAPS   H3X19299  -0.537   1.349   6.881  0.1341  0.2580  2.4832
  170SAPS   H3Y19300  -0.478   1.191   6.944 -1.2250 -1.4297 -2.0929
  170SAPS   C3419301  -0.393   1.239   6.755  0.0983  0.4595  0.5691
  170SAPS   H4X19302  -0.456   1.163   6.705 -0.7233  0.9983  0.7560
  170SAPS   H4Y19303  -0.292   1.193   6.759  0.3302  0.9140  0.0550
  170SAPS   C3519304  -0.387   1.355   6.656  0.6041  0.0317 -0.6587
  170SAPS   H5X19305  -0.310   1.432   6.680  1.0546 -0.5672 -0.1360
  170SAPS   H5Y19306  -0.481   1.413   6.646  0.9073  0.8613  0.9517
  170SAPS   C3619307  -0.345   1.319   6.509  0.0728  0.0447  0.2376
  170SAPS   H6X19308  -0.343   1.410   6.446 -1.2446  0.2787  0.4974
  170SAPS   H6Y19309  -0.432   1.257   6.478 -0.2642  0.3896  0.4867
  170SAPS   C3719310  -0.216   1.230   6.485  0.1051 -0.0708 -0.3765
  170SAPS   H7X19311  -0.226   1.135   6.542 -0.8941 -0.0458 -0.5022
  170SAPS   H7Y19312  -0.128   1.291   6.516 -0.1456  1.9829 -3.2669
  170SAPS   C3819313  -0.204   1.199   6.336 -0.9317  0.6562  0.1191
  170SAPS   H8X19314  -0.099   1.161   6.332 -0.3563  1.8829  2.1335
  170SAPS   H8Y19315  -0.200   1.293   6.277 -0.1510  0.9708  0.6531
  170SAPS   C3919316  -0.308   1.103   6.279 -0.2590 -0.5025 -0.0991
  170SAPS   H9X19317  -0.404   1.154   6.259 -1.3205 -1.4724  2.1869
  170SAPS   H9Y19318  -0.338   1.024   6.351 -0.3977 -0.2200  0.1560
  170SAPS  C31019319  -0.261   1.032   6.146  0.7629  0.5041  0.5303
  170SAPS  H10X19320  -0.340   0.961   6.112  0.4209  1.9814 -1.9532
  170SAPS  H10Y19321  -0.171   0.973   6.174 -1.3076 -2.1572  2.1026
  170SAPS  C31119322  -0.226   1.131   6.032 -0.9212 -0.4880 -0.4670
  170SAPS  H11X19323  -0.153   1.209   6.065 -0.9633  0.0305 -1.5431
  170SAPS  H11Y19324  -0.321   1.179   6.000 -0.3817  1.0573  0.1423
  170SAPS  C31219325  -0.167   1.058   5.905  0.7285 -0.7376  0.0251
  170SAPS  H12X19326  -0.074   1.002   5.929  0.3884 -1.7369 -0.8893
  170SAPS  H12Y19327  -0.146   1.150   5.846 -0.0465 -0.1632  0.6322
  170SAPS  C31319328  -0.273   0.970   5.837 -0.3327 -0.2283 -0.2755
  170SAPS  H13X19329  -0.377   1.008   5.846 -1.1563 -1.8220 -2.2583
  170SAPS  H13Y19330  -0.277   0.873   5.891  2.1683  0.4726  1.3289
  170SAPS  C31419331  -0.243   0.958   5.686  0.2867  0.6004  0.8556
  170SAPS  H14X19332  -0.139   0.924   5.669  0.1239 -0.4638  1.8692
  170SAPS  H14Y19333  -0.259   1.057   5.638 -1.4045 -0.2048 -0.3203
  170SAPS  C31519334  -0.343   0.864   5.617  0.5598  0.6834  0.3394
  170SAPS  H15X19335  -0.352   0.767   5.671  0.4283 -1.8716 -3.8490
  170SAPS  H15Y19336  -0.297   0.829   5.522 -0.2186 -2.2065  0.9079
  170SAPS  C31619337  -0.481   0.926   5.591 -0.7105 -0.4318  0.0451
  170SAPS  H16X19338  -0.460   1.026   5.547  0.8899 -0.5368  0.5342
  170SAPS  H16Y19339  -0.528   0.943   5.690  1.0953  3.2904  0.4247
  170SAPS  C31719340  -0.573   0.858   5.490  0.2897  0.2647  0.3777
  170SAPS  H17X19341  -0.598   0.758   5.531 -1.3940  0.0497 -1.0523
  170SAPS  H17Y19342  -0.512   0.828   5.402  0.5719 -0.8956  0.9488
  170SAPS  C31819343  -0.697   0.939   5.436 -0.2561 -0.5414 -0.3277
  170SAPS  H18X19344  -0.752   0.981   5.523 -0.2119  0.1899 -0.6510
  170SAPS  H18Y19345  -0.764   0.868   5.382 -0.7996  0.4581 -0.9947
  170SAPS  H18Z19346  -0.663   1.020   5.368  0.2635 -0.8518 -0.4398
  171SAPS     N19347   0.398   2.266   7.360 -0.4152 -0.0608 -0.0316
  171SAPS   HN119348   0.408   2.299   7.262 -0.8641  4.0196  1.0979
  171SAPS   HN219349   0.452   2.334   7.417  1.0363 -0.4260 -0.9041
  171SAPS   HN319350   0.444   2.173   7.363 -0.6314 -0.2227 -1.1318
  171SAPS   C1219351   0.253   2.237   7.378 -0.2306 -0.2896 -0.1779
  171SAPS  H12A19352   0.207   2.236   7.281 -0.0267  0.9694 -0.3038
  171SAPS   C1319353   0.217   2.106   7.449 -0.1358  0.2230 -0.0246
  171SAPS  O13A19354   0.310   2.024   7.464 -0.2959  0.5462  0.3648
  171SAPS  O13B19355   0.095   2.070   7.458 -0.2349 -0.2102  0.1753
  171SAPS   C1119356   0.185   2.351   7.460 -0.2806 -1.0799 -0.2037
  171SAPS  H11A19357   0.212   2.359   7.568 -0.9798  1.7506 -0.1706
  171SAPS  H11B19358   0.075   2.342   7.452 -0.5480  1.0035  0.5277
  171SAPS     P19359   0.128   2.590   7.357 -0.3342  0.0322  0.1460
  171SAPS   O1319360  -0.002   2.571   7.424  0.4368  0.1921  0.5995
  171SAPS   O1419361   0.188   2.727   7.351 -0.3313  0.1441  0.2159
  171SAPS   O1219362   0.229   2.481   7.411  0.3693  0.0154  0.1591
  171SAPS   O1119363   0.117   2.538   7.210  0.2411 -0.1323  0.2569
  171SAPS    C119364   0.006   2.505   7.128  0.6130  0.2507 -0.4921
  171SAPS    HA19365  -0.084   2.482   7.188  1.7074 -1.3193  0.6234
  171SAPS    HB19366  -0.012   2.589   7.057 -2.8247  0.5780  0.5862
  171SAPS    C219367   0.032   2.369   7.054 -0.3589 -0.2107 -0.0736
  171SAPS    HS19368   0.091   2.314   7.130  0.6399  1.8939  0.7671
  171SAPS   O2119369   0.123   2.404   6.946  0.2125  0.2410 -0.4082
  171SAPS   C2119370   0.171   2.293   6.882  0.1314  0.0745  0.4397
  171SAPS   O2219371   0.157   2.179   6.917 -0.1338  0.3090  0.5408
  171SAPS   C2219372   0.251   2.340   6.758  0.2417  0.0646 -1.1748
  171SAPS   H2R19373   0.180   2.391   6.689  2.6354  1.1651 -2.9470
  171SAPS   H2S19374   0.310   2.431   6.782  0.3501 -0.0546 -0.9840
  171SAPS    C319375  -0.100   2.317   7.010  0.9199  0.3215  0.2559
  171SAPS    HX19376  -0.145   2.276   7.103  1.9890  2.3559  1.7392
  171SAPS    HY19377  -0.090   2.226   6.947  0.4287  0.2011  0.3509
  171SAPS   O3119378  -0.188   2.419   6.955  0.0352 -0.2300  0.1673
  171SAPS   C3119379  -0.198   2.419   6.827  0.6300 -1.0287  0.3558
  171SAPS   O3219380  -0.141   2.346   6.751  0.0464 -0.2668  0.8217
  171SAPS   C3219381  -0.307   2.518   6.783  0.3963  0.1971 -0.6091
  171SAPS   H2X19382  -0.266   2.621   6.797  0.1960  0.1804  0.1212
  171SAPS   H2Y19383  -0.392   2.507   6.853  0.3922 -0.5517 -0.7274
  171SAPS   C2319384   0.339   2.234   6.693  0.2459 -1.0132 -0.5608
  171SAPS   H3R19385   0.370   2.161   6.770 -0.9452 -1.5210 -0.5335
  171SAPS   H3S19386   0.429   2.287   6.656 -0.9298  2.4419  1.0717
  171SAPS   C2419387   0.258   2.154   6.585 -0.0470  0.3658  0.0128
  171SAPS   H4R19388   0.228   2.220   6.501  0.7573  0.9921  0.2071
  171SAPS   H4S19389   0.166   2.122   6.639  1.3496  1.1332  3.0284
  171SAPS   C2519390   0.342   2.036   6.531 -0.1537  0.4366  0.1699
  171SAPS   H5R19391   0.372   1.958   6.603  0.6843 -1.1541 -1.7968
  171SAPS   C2619392   0.404   2.028   6.410 -0.1256  1.4674  0.4541
  171SAPS   H6R19393   0.448   1.932   6.379 -1.1409  0.7559  1.1396
  171SAPS   C2719394   0.408   2.128   6.292 -0.5669  0.3758 -1.1406
  171SAPS   H7R19395   0.515   2.154   6.272 -0.2626 -0.1880 -0.2949
  171SAPS   H7S19396   0.353   2.219   6.324 -0.2857  0.2291 -0.2124
  171SAPS   C2819397   0.354   2.075   6.165  0.3876 -0.2321 -0.7653
  171SAPS   H8R19398   0.262   2.016   6.183  0.0833  0.2322 -0.7794
  171SAPS   C2919399   0.399   2.074   6.038  0.5860  0.5229 -0.0222
  171SAPS   H9R19400   0.343   2.016   5.963 -0.8475  1.8519 -0.0331
  171SAPS  C21019401   0.521   2.142   5.978  1.3858  0.1276 -0.2958
  171SAPS  H10R19402   0.579   2.179   6.066  0.4225 -1.9569  1.3119
  171SAPS  H10S19403   0.475   2.220   5.914  0.5098 -0.1760 -0.0403
  171SAPS  C21119404   0.596   2.046   5.889  0.1715 -0.3120  0.0469
  171SAPS  H11R19405   0.668   1.984   5.942 -1.7855 -1.9991  0.8668
  171SAPS  C21219406   0.571   2.038   5.756  0.5586  0.6574  0.4839
  171SAPS  H12R19407   0.634   1.985   5.682 -0.8659  0.5440 -0.7081
  171SAPS  C21319408   0.476   2.102   5.665  0.7691  0.6499 -0.3176
  171SAPS  H13R19409   0.379   2.131   5.710 -0.1192 -0.7389 -1.2426
  171SAPS  H13S19410   0.450   2.023   5.591  1.6456 -1.4232  1.4860
  171SAPS  C21419411   0.530   2.222   5.592 -0.8633 -0.0146  0.0987
  171SAPS  H14R19412   0.561   2.298   5.665 -0.7782 -1.3229  1.4521
  171SAPS  C21519413   0.546   2.243   5.460  0.3150 -0.0175  0.5618
  171SAPS  H15R19414   0.616   2.324   5.436  1.3058 -1.7494 -3.0383
  171SAPS  C21619415   0.528   2.125   5.359  0.1126 -0.6268  0.7697
  171SAPS  H16R19416   0.527   2.021   5.397  0.4691 -0.7404  0.4760
  171SAPS  H16S19417   0.616   2.122   5.290 -0.2457  0.0893  0.2632
  171SAPS  C21719418   0.391   2.153   5.278 -0.1096  0.4605 -0.3440
  171SAPS  H17R19419   0.389   2.263   5.260  3.4131  0.5996 -0.7540
  171SAPS  H17S19420   0.306   2.112   5.335 -1.3708  1.0161 -1.7627
  171SAPS  C21819421   0.400   2.088   5.132 -0.0773  0.3069  0.5661
  171SAPS  H18R19422   0.332   2.000   5.132 -1.2630  1.1846  1.1775
  171SAPS  H18S19423   0.503   2.056   5.105  0.6974  1.0704  2.4078
  171SAPS  C21919424   0.335   2.185   5.029  0.1488 -0.7076  0.6586
  171SAPS  H19R19425   0.388   2.283   5.033 -3.0429  1.1539  1.7813
  171SAPS  H19S19426   0.227   2.204   5.049  0.4516 -0.4470  2.1156
  171SAPS  C22019427   0.353   2.126   4.889  0.0406  0.0654 -0.3371
  171SAPS  H20R19428   0.460   2.138   4.859  1.0310 -1.7332  2.1676
  171SAPS  H20S19429   0.293   2.187   4.818 -1.2721 -1.8498 -0.9522
  171SAPS  H20T19430   0.331   2.019   4.874  2.3350 -0.2258 -2.2361
  171SAPS   C3319431  -0.357   2.505   6.636  0.0909 -0.0704 -0.1953
  171SAPS   H3X19432  -0.274   2.487   6.565  0.3915  0.9834 -0.1254
  171SAPS   H3Y19433  -0.414   2.593   6.601  3.0423  2.1908  0.2646
  171SAPS   C3419434  -0.452   2.389   6.631 -0.0622 -0.0834 -0.1902
  171SAPS   H4X19435  -0.538   2.407   6.699 -0.0580  3.3968 -0.8900
  171SAPS   H4Y19436  -0.413   2.293   6.669 -0.9173 -1.1541 -1.9038
  171SAPS   C3519437  -0.518   2.370   6.490  0.2751 -0.9050 -0.0289
  171SAPS   H5X19438  -0.604   2.439   6.480  0.7451 -0.3902 -0.6551
  171SAPS   H5Y19439  -0.541   2.262   6.499 -0.1005 -0.8076  0.1602
  171SAPS   C3619440  -0.424   2.379   6.366 -0.2487 -0.1242  0.2748
  171SAPS   H6X19441  -0.339   2.308   6.362  0.1272  0.2433  1.3184
  171SAPS   H6Y19442  -0.375   2.478   6.359 -1.8610  0.6158 -1.0018
  171SAPS   C3719443  -0.507   2.362   6.234 -0.0590 -0.2858 -0.2921
  171SAPS   H7X19444  -0.600   2.417   6.261 -0.8158 -0.7802 -1.7829
  171SAPS   H7Y19445  -0.542   2.256   6.230 -1.8967  0.3066 -0.9535
  171SAPS   C3819446  -0.442   2.400   6.105  0.8756 -0.7336  0.3856
  171SAPS   H8X19447  -0.353   2.336   6.091  1.1748 -0.5063  1.1644
  171SAPS   H8Y19448  -0.396   2.501   6.110 -1.9567  0.6280  2.1447
  171SAPS   C3919449  -0.524   2.371   5.980 -0.9693  0.0759 -1.2850
  171SAPS   H9X19450  -0.619   2.426   5.989 -0.6272  0.6966 -1.4265
  171SAPS   H9Y19451  -0.547   2.262   5.979 -1.4281  0.1734 -2.1221
  171SAPS  C31019452  -0.456   2.412   5.850 -0.3040  0.8781 -0.1533
  171SAPS  H10X19453  -0.355   2.369   5.867 -1.1197 -0.5815  1.4781
  171SAPS  H10Y19454  -0.446   2.521   5.835 -0.2040  0.7193 -1.3414
  171SAPS  C31119455  -0.531   2.362   5.727  0.4691 -0.9914  0.1206
  171SAPS  H11X19456  -0.625   2.421   5.713  2.1854  1.5095 -1.7760
  171SAPS  H11Y19457  -0.563   2.257   5.743  0.5665 -0.6902  2.8231
  171SAPS  C31219458  -0.450   2.385   5.600 -0.2837 -0.3586 -0.4441
  171SAPS  H12X19459  -0.350   2.338   5.612  0.6728  1.4352 -1.0759
  171SAPS  H12Y19460  -0.432   2.494   5.590 -1.8678 -0.0843 -0.5029
  171SAPS  C31319461  -0.511   2.320   5.474  0.4066  0.4403 -0.1008
  171SAPS  H13X19462  -0.620   2.342   5.476  0.7237  2.0472  0.3741
  171SAPS  H13Y19463  -0.483   2.212   5.470 -0.1324  0.1650  2.1185
  171SAPS  C31419464  -0.463   2.384   5.354  0.2221 -0.0538  0.1144
  171SAPS  H14X19465  -0.353   2.383   5.342  0.1088 -1.5981 -1.2188
  171SAPS  H14Y19466  -0.503   2.488   5.355 -0.3116 -0.2599  0.7530
  171SAPS  C31519467  -0.513   2.326   5.212 -0.0590  0.0196 -0.4530
  171SAPS  H15X19468  -0.624   2.326   5.212 -0.1012  1.4637  0.9919
  171SAPS  H15Y19469  -0.474   2.222   5.198 -0.3014 -0.2873  0.9854
  171SAPS  C31619470  -0.479   2.424   5.096  0.6464 -0.0040  0.4459
  171SAPS  H16X19471  -0.368   2.429   5.093  0.6990 -0.1557  1.6075
  171SAPS  H16Y19472  -0.529   2.521   5.116  1.0122 -0.4421  4.2383
  171SAPS  C31719473  -0.527   2.363   4.962  0.5273  0.2456  0.2730
  171SAPS  H17X19474  -0.635   2.339   4.969  0.4694  0.3963 -0.0881
  171SAPS  H17Y19475  -0.477   2.264   4.966 -0.5141 -0.3023  0.0289
  171SAPS  C31819476  -0.508   2.455   4.834 -0.6919  0.3224 -0.3901
  171SAPS  H18X19477  -0.403   2.465   4.800 -0.4189 -1.4088 -0.1344
  171SAPS  H18Y19478  -0.537   2.560   4.860 -0.1679  0.7932 -1.6446
  171SAPS  H18Z19479  -0.571   2.430   4.746 -1.5994 -1.2753  0.6710
  172SAPS     N19480   0.625   3.789   7.642 -0.3837 -0.7597  0.4440
  172SAPS   HN119481   0.530   3.819   7.610  0.2930  0.0349 -0.8724
  172SAPS   HN219482   0.632   3.688   7.622  0.1534 -0.7004  0.3364
  172SAPS   HN319483   0.635   3.818   7.742  3.3307  0.6788 -0.1815
  172SAPS   C1219484   0.737   3.865   7.565  0.3694  0.8839 -0.5252
  172SAPS  H12A19485   0.743   3.963   7.610 -0.3487 -0.6989  3.5019
  172SAPS   C1319486   0.877   3.795   7.588 -0.5966 -0.7118  0.1928
  172SAPS  O13A19487   0.891   3.696   7.659  0.0172  0.1862  0.2363
  172SAPS  O13B19488   0.975   3.862   7.541  0.5833  0.4754  0.4163
  172SAPS   C1119489   0.703   3.861   7.414  0.3250  0.0937  0.2159
  172SAPS  H11A19490   0.697   3.758   7.372 -1.5645  0.1131  0.3257
  172SAPS  H11B19491   0.787   3.914   7.365 -1.3754  3.3759  0.5975
  172SAPS     P19492   0.449   3.858   7.351  0.0269 -0.4258 -0.0282
  172SAPS   O1319493   0.403   3.797   7.475  0.1569  0.4643 -0.1541
  172SAPS   O1419494   0.352   3.949   7.279  0.2928  0.1735 -0.7693
  172SAPS   O1219495   0.584   3.938   7.390 -0.1829  0.5247  0.5266
  172SAPS   O1119496   0.505   3.756   7.252  0.0023  0.3216  0.0596
  172SAPS    C119497   0.558   3.806   7.131  0.3981 -0.3193 -1.0060
  172SAPS    HA19498   0.533   3.912   7.109 -0.3148  0.4588  2.8890
  172SAPS    HB19499   0.667   3.803   7.152  0.0968  1.0024  1.0804
  172SAPS    C219500   0.508   3.718   7.015  0.0204 -0.2525  0.4455
  172SAPS    HS19501   0.533   3.614   7.046 -1.0341  0.1141  2.7325
  172SAPS   O2119502   0.595   3.754   6.901  0.3605  0.2292 -0.1500
  172SAPS   C2119503   0.596   3.664   6.805 -0.6961 -0.0028  0.5022
  172SAPS   O2219504   0.533   3.559   6.797  0.1722 -0.7152  0.1852
  172SAPS   C2219505   0.704   3.710   6.701  0.3258 -0.4313  0.1569
  172SAPS   H2R19506   0.670   3.807   6.660  0.1492  0.6855  2.7258
  172SAPS   H2S19507   0.794   3.720   6.765 -0.6005  2.3204  1.1689
  172SAPS    C319508   0.359   3.747   6.994 -0.0814  0.0799  0.0534
  172SAPS    HX19509   0.349   3.857   7.001  1.8248  0.3612 -0.9687
  172SAPS    HY19510   0.302   3.711   7.082 -1.1442  1.8392  0.1364
  172SAPS   O3119511   0.314   3.692   6.869  0.1430 -0.3039 -0.4756
  172SAPS   C3119512   0.233   3.585   6.875 -0.0672 -0.3926 -0.4362
  172SAPS   O3219513   0.169   3.548   6.973 -0.8150  0.4171 -0.4419
  172SAPS   C3219514   0.224   3.529   6.734  0.2149  0.4547  0.9285
  172SAPS   H2X19515   0.315   3.470   6.708 -1.6432 -1.5155 -1.7661
  172SAPS   H2Y19516   0.219   3.608   6.656  3.8603 -2.9660 -3.3964
  172SAPS   C2319517   0.728   3.616   6.580  0.5747 -0.4942 -0.2316
  172SAPS   H3R19518   0.742   3.509   6.606  1.6733 -0.1417  0.7340
  172SAPS   H3S19519   0.815   3.655   6.523  0.4500 -0.3705 -0.3388
  172SAPS   C2419520   0.637   3.641   6.463  0.7860 -0.4019 -0.6562
  172SAPS   H4R19521   0.687   3.584   6.382  1.0166 -1.8416  0.4549
  172SAPS   H4S19522   0.631   3.746   6.427  0.9660  1.3698  3.7854
  172SAPS   C2519523   0.498   3.591   6.502 -0.3768  0.4292  0.2179
  172SAPS   H5R19524   0.458   3.630   6.597  2.3967  0.2225  1.5753
  172SAPS   C2619525   0.424   3.507   6.434  0.2620  0.0215 -0.1647
  172SAPS   H6R19526   0.323   3.489   6.472  1.4563  0.6368  3.8074
  172SAPS   C2719527   0.447   3.442   6.300 -0.3589 -0.1179  0.9204
  172SAPS   H7R19528   0.351   3.391   6.278 -0.3157  0.3983 -0.6180
  172SAPS   H7S19529   0.517   3.355   6.304 -0.8639 -0.5417  0.7069
  172SAPS   C2819530   0.472   3.544   6.189  0.1523 -0.2619  0.1876
  172SAPS   H8R19531   0.472   3.650   6.218  0.1288 -0.5618  1.3505
  172SAPS   C2919532   0.493   3.511   6.058  0.2305 -0.6105 -0.0170
  172SAPS   H9R19533   0.480   3.587   5.980 -2.1165 -0.0519  0.8336
  172SAPS  C21019534   0.494   3.374   5.990 -0.6917  0.4495  0.1989
  172SAPS  H10R19535   0.385   3.360   5.971 -0.7031 -0.2049  0.6972
  172SAPS  H10S19536   0.515   3.294   6.065  0.9533 -1.5092 -2.1978
  172SAPS  C21119537   0.591   3.362   5.873  0.5396 -0.7445  0.6213
  172SAPS  H11R19538   0.693   3.332   5.901  1.2590  0.1683 -0.9120
  172SAPS  C21219539   0.581   3.393   5.738 -0.0896  0.4976 -0.0164
  172SAPS  H12R19540   0.667   3.361   5.678  1.0861  2.6636  0.4326
  172SAPS  C21319541   0.456   3.429   5.668  0.6161  0.1427  0.1877
  172SAPS  H13R19542   0.472   3.518   5.603 -1.9607  0.9906  0.6097
  172SAPS  H13S19543   0.380   3.465   5.741  0.6954  0.6749  0.0129
  172SAPS  C21419544   0.395   3.314   5.588  0.0044 -0.6199 -0.9491
  172SAPS  H14R19545   0.314   3.253   5.631 -0.4644  0.5863 -0.0890
  172SAPS  C21519546   0.439   3.269   5.470 -0.3523 -0.5782  0.0712
  172SAPS  H15R19547   0.379   3.188   5.426 -0.2552  0.5842 -2.3703
  172SAPS  C21619548   0.554   3.333   5.392  0.0640 -0.2526  0.1314
  172SAPS  H16R19549   0.647   3.272   5.400  0.1142 -0.2894 -0.6969
  172SAPS  H16S19550   0.582   3.435   5.426  4.2073 -1.9763  2.7076
  172SAPS  C21719551   0.529   3.343   5.245 -0.5766 -0.0111  0.0148
  172SAPS  H17R19552   0.436   3.399   5.222  0.4751  1.3409 -1.1771
  172SAPS  H17S19553   0.533   3.242   5.198  1.7898  0.8189 -1.8340
  172SAPS  C21819554   0.652   3.408   5.170  0.0786 -0.3075 -0.6238
  172SAPS  H18R19555   0.749   3.358   5.192  0.4102  0.2848 -0.7451
  172SAPS  H18S19556   0.662   3.505   5.223  1.0920  0.0923 -1.5215
  172SAPS  C21919557   0.638   3.428   5.018 -0.0482 -0.4905 -0.3320
  172SAPS  H19R19558   0.723   3.493   4.989  0.5288 -1.0584  0.0509
  172SAPS  H19S19559   0.542   3.482   5.005  0.2504  0.2475  0.4558
  172SAPS  C22019560   0.641   3.301   4.930 -0.5391 -0.7055  0.6220
  172SAPS  H20R19561   0.542   3.252   4.923 -0.8022 -0.3159  1.4912
  172SAPS  H20S19562   0.719   3.229   4.961  2.3003  1.6102 -0.6784
  172SAPS  H20T19563   0.657   3.337   4.826 -0.1365  0.4148  1.0579
  172SAPS   C3319564   0.104   3.436   6.717 -0.1090  0.0204  0.1158
  172SAPS   H3X19565   0.003   3.481   6.720 -1.2929 -2.3474 -1.2127
  172SAPS   H3Y19566   0.118   3.362   6.799  0.1079  0.5782  0.5935
  172SAPS   C3419567   0.100   3.356   6.587  0.7313 -0.2181 -0.4969
  172SAPS   H4X19568   0.182   3.282   6.574  0.2028 -0.7852 -0.6091
  172SAPS   H4Y19569   0.117   3.424   6.501  1.3134  0.3955  0.0959
  172SAPS   C3519570  -0.025   3.275   6.557 -0.0455  0.6749  0.0717
  172SAPS   H5X19571  -0.120   3.331   6.562  0.0433  0.8995 -0.6545
  172SAPS   H5Y19572  -0.036   3.201   6.640  0.6847 -0.5616 -0.8981
  172SAPS   C3619573  -0.007   3.190   6.432 -0.1576 -0.3471  0.0766
  172SAPS   H6X19574  -0.073   3.103   6.449 -1.3345  0.2266 -1.3269
  172SAPS   H6Y19575   0.089   3.134   6.427 -0.3502 -0.9766  2.2797
  172SAPS   C3719576  -0.035   3.259   6.298 -0.0463 -0.0023 -0.3345
  172SAPS   H7X19577   0.039   3.340   6.283  1.2030 -0.8516  1.0582
  172SAPS   H7Y19578  -0.142   3.290   6.298  0.0842  0.8191  3.2272
  172SAPS   C3819579  -0.029   3.168   6.177  0.0941 -0.3558 -0.3894
  172SAPS   H8X19580  -0.122   3.108   6.164  0.7810 -1.1856 -1.6818
  172SAPS   H8Y19581   0.044   3.092   6.210 -0.3177 -1.4744 -1.8993
  172SAPS   C3919582   0.014   3.220   6.041  0.4362  0.0289 -0.3194
  172SAPS   H9X19583   0.117   3.262   6.041  0.5692 -0.2740 -1.4509
  172SAPS   H9Y19584  -0.046   3.308   6.012  2.4295  1.0504 -1.5208
  172SAPS  C31019585  -0.003   3.119   5.920 -0.2548 -0.0045  0.3135
  172SAPS  H10X19586  -0.084   3.047   5.940  0.2306  0.0204  2.6284
  172SAPS  H10Y19587   0.091   3.063   5.898  0.1431  0.1589  1.5309
  172SAPS  C31119588  -0.052   3.183   5.787 -0.1968  0.0473 -0.4438
  172SAPS  H11X19589   0.008   3.274   5.764 -0.3738 -0.3099 -2.4431
  172SAPS  H11Y19590  -0.159   3.213   5.793 -0.3378 -0.5814  0.4325
  172SAPS  C31219591  -0.031   3.090   5.665 -0.6052  0.0064  0.4593
  172SAPS  H12X19592  -0.118   3.022   5.654 -0.7915  0.4189 -0.7462
  172SAPS  H12Y19593   0.044   3.014   5.698 -0.1019 -1.1468 -2.9245
  172SAPS  C31319594   0.021   3.152   5.536  0.1690  0.2696  0.2647
  172SAPS  H13X19595   0.100   3.228   5.547 -1.7061  2.4403 -0.5450
  172SAPS  H13Y19596  -0.060   3.216   5.495  0.8682  1.4756  0.7107
  172SAPS  C31419597   0.081   3.045   5.437 -0.1078  0.2160 -0.4210
  172SAPS  H14X19598   0.002   2.968   5.427 -0.9001  0.9095  0.3243
  172SAPS  H14Y19599   0.167   2.994   5.484 -1.3992  0.3732  2.3078
  172SAPS  C31519600   0.107   3.110   5.302 -0.1677  0.1052  0.0371
  172SAPS  H15X19601   0.158   3.206   5.326  0.8793 -0.7515  1.4486
  172SAPS  H15Y19602   0.014   3.132   5.246  0.2736 -0.5242 -0.9858
  172SAPS  C31619603   0.193   3.031   5.206 -0.0040  0.5589  0.0461
  172SAPS  H16X19604   0.297   3.010   5.239 -0.9124 -2.4456  1.3478
  172SAPS  H16Y19605   0.144   2.932   5.198 -2.1711  1.6303 -1.2721
  172SAPS  C31719606   0.192   3.085   5.062 -0.4176  0.6442  0.4693
  172SAPS  H17X19607   0.249   3.180   5.073 -1.0819  1.1696 -0.5121
  172SAPS  H17Y19608   0.092   3.109   5.022 -0.2201  0.3495 -0.2142
  172SAPS  C31819609   0.264   2.992   4.962  0.2681  0.0445  0.1351
  172SAPS  H18X19610   0.236   2.887   4.982  0.1791  0.1815  0.7433
  172SAPS  H18Y19611   0.375   2.995   4.975  0.3940 -1.8725 -0.2708
  172SAPS  H18Z19612   0.227   3.018   4.860 -0.2182 -2.5101 -0.4004
  173SAPS     N19613   0.039   0.345   2.521 -0.1329 -0.3962 -0.7705
  173SAPS   HN119614  -0.009   0.399   2.595 -0.3364 -2.7805  0.9585
  173SAPS   HN219615   0.080   0.412   2.452 -0.2662  0.3174 -0.1621
  173SAPS   HN319616  -0.028   0.281   2.473 -1.9314  1.4992 -0.8933
  173SAPS   C1219617   0.155   0.271   2.578  0.9003  0.4583 -0.6465
  173SAPS  H12A19618   0.231   0.243   2.507  1.8803  0.4543  0.3772
  173SAPS   C1319619   0.233   0.339   2.692  0.8806  0.3291  0.3408
  173SAPS  O13A19620   0.200   0.452   2.738  0.0789 -0.6319  0.3680
  173SAPS  O13B19621   0.346   0.299   2.726 -0.1059  0.4283  0.4734
  173SAPS   C1119622   0.103   0.133   2.627 -0.5120 -0.0899 -0.6105
  173SAPS  H11A19623   0.011   0.148   2.688  0.7125  1.1355  1.0319
  173SAPS  H11B19624   0.172   0.085   2.700 -2.4147 -0.0287  1.3425
  173SAPS     P19625   0.004  -0.092   2.542  0.0335  0.0382  0.0228
  173SAPS   O1319626  -0.136  -0.053   2.535  0.0864  0.4380 -0.7767
  173SAPS   O1419627   0.063  -0.196   2.453 -0.3683 -0.3091  0.0397
  173SAPS   O1219628   0.088   0.039   2.517  0.0521  0.2446 -0.1024
  173SAPS   O1119629   0.034  -0.109   2.696  0.2515  0.3815 -0.9448
  173SAPS    C119630   0.054  -0.244   2.739  0.0057  0.0226  0.2224
  173SAPS    HA19631  -0.042  -0.275   2.786 -0.4982  3.1634  1.5131
  173SAPS    HB19632   0.086  -0.320   2.664  0.7744 -0.7553  1.2920
  173SAPS    C219633   0.154  -0.255   2.865  0.5964  0.3326  0.8866
  173SAPS    HS19634   0.155  -0.363   2.890  0.1769  0.6894  2.5813
  173SAPS   O2119635   0.112  -0.182   2.982  0.4550 -0.4797  0.3122
  173SAPS   C2119636   0.025  -0.250   3.055 -0.0113  0.9988 -0.1972
  173SAPS   O2219637  -0.026  -0.360   3.024  0.2328 -0.1574  0.7461
  173SAPS   C2219638   0.000  -0.188   3.188  0.2846 -0.2317 -0.1293
  173SAPS   H2R19639   0.005  -0.079   3.169  2.4959 -0.5803 -2.1035
  173SAPS   H2S19640  -0.087  -0.236   3.237 -0.7132  0.0476 -1.5563
  173SAPS    C319641   0.300  -0.202   2.833  0.2378  0.1699 -0.2808
  173SAPS    HX19642   0.291  -0.092   2.819 -0.5020  0.0173 -1.0610
  173SAPS    HY19643   0.338  -0.242   2.737  1.3529  0.3202  0.0893
  173SAPS   O3119644   0.384  -0.241   2.940  0.3696 -0.7038 -0.3502
  173SAPS   C3119645   0.432  -0.133   3.010  0.3907 -0.1020  0.5005
  173SAPS   O3219646   0.425  -0.015   2.976  0.2528  0.0143  0.1111
  173SAPS   C3219647   0.499  -0.183   3.140  0.5111 -0.2657  0.7056
  173SAPS   H2X19648   0.600  -0.220   3.109  0.6929  0.9668 -0.2423
  173SAPS   H2Y19649   0.439  -0.264   3.186 -0.6162 -0.5807 -1.2457
  173SAPS   C2319650   0.126  -0.205   3.277  0.9465  0.2309  0.0160
  173SAPS   H3R19651   0.118  -0.132   3.360  2.1157  1.5159 -0.9548
  173SAPS   H3S19652   0.218  -0.175   3.222  0.7367  1.7330  0.4374
  173SAPS   C2419653   0.133  -0.344   3.347  0.4245 -1.4219  0.5643
  173SAPS   H4R19654   0.233  -0.327   3.393  0.5242  2.3440 -0.6740
  173SAPS   H4S19655   0.133  -0.429   3.275 -0.1666 -0.4417 -0.6261
  173SAPS   C2519656   0.025  -0.377   3.448 -0.1707 -0.4250 -0.3874
  173SAPS   H5R19657  -0.062  -0.421   3.398  1.6949 -1.9646 -2.4960
  173SAPS   C2619658   0.039  -0.348   3.584 -0.6357  0.0798  0.9600
  173SAPS   H6R19659  -0.047  -0.382   3.643  0.1754 -1.7780  1.1306
  173SAPS   C2719660   0.146  -0.279   3.663 -0.2422 -0.4559 -0.6072
  173SAPS   H7R19661   0.233  -0.254   3.597  0.3726  0.1924  0.4322
  173SAPS   H7S19662   0.187  -0.344   3.743 -1.0908 -2.1256 -1.4691
  173SAPS   C2819663   0.102  -0.146   3.730  0.7734  0.2589  0.7470
  173SAPS   H8R19664   0.059  -0.070   3.663 -0.4746  0.1610  1.3953
  173SAPS   C2919665   0.087  -0.113   3.858  0.0204  0.8715 -0.1340
  173SAPS   H9R19666   0.065  -0.008   3.879  0.5721  0.8975  0.3554
  173SAPS  C21019667   0.133  -0.194   3.984  0.6121 -0.5237  0.5337
  173SAPS  H10R19668   0.220  -0.148   4.035  0.6777  0.6539 -0.6118
  173SAPS  H10S19669   0.176  -0.292   3.955 -0.3272 -1.2658  1.5695
  173SAPS  C21119670   0.028  -0.228   4.081 -0.4315 -0.0990 -0.4035
  173SAPS  H11R19671  -0.066  -0.248   4.029  0.0507 -0.4529 -1.1647
  173SAPS  C21219672   0.035  -0.247   4.212 -0.2951  0.2999  0.1743
  173SAPS  H12R19673  -0.060  -0.266   4.264 -0.4433 -0.8555 -0.4614
  173SAPS  C21319674   0.149  -0.235   4.306 -0.4490  0.2504  0.3294
  173SAPS  H13R19675   0.126  -0.168   4.391  2.5639 -0.6065  1.9888
  173SAPS  H13S19676   0.232  -0.178   4.259  0.4270 -2.3974 -1.6155
  173SAPS  C21419677   0.220  -0.360   4.347  0.6666  0.0422 -0.0731
  173SAPS  H14R19678   0.292  -0.387   4.268  0.7181  0.9435 -0.3524
  173SAPS  C21519679   0.188  -0.444   4.452  0.1846 -0.4055 -0.1303
  173SAPS  H15R19680   0.243  -0.539   4.460  1.4670 -0.0788 -3.2632
  173SAPS  C21619681   0.082  -0.415   4.557  0.7116 -0.7320  0.0868
  173SAPS  H16R19682   0.040  -0.312   4.553  1.1064 -0.5452  0.7024
  173SAPS  H16S19683   0.121  -0.417   4.660 -2.1186 -0.4045  1.2571
  173SAPS  C21719684  -0.036  -0.516   4.567  0.3327 -0.0470 -0.0739
  173SAPS  H17R19685  -0.068  -0.501   4.461 -0.6082 -0.5726  0.1213
  173SAPS  H17S19686  -0.115  -0.472   4.633  0.0464  2.2504 -1.7966
  173SAPS  C21819687   0.017  -0.657   4.603 -0.3206  0.7136 -0.2442
  173SAPS  H18R19688   0.064  -0.657   4.704 -1.7369 -0.4385  0.4442
  173SAPS  H18S19689   0.097  -0.685   4.531 -0.6684  1.1691 -0.8211
  173SAPS  C21919690  -0.085  -0.776   4.581 -0.5507  0.9670 -0.0299
  173SAPS  H19R19691  -0.168  -0.765   4.655 -2.7772 -2.7618 -1.6918
  173SAPS  H19S19692  -0.026  -0.866   4.609  0.2993  1.4010 -0.4076
  173SAPS  C22019693  -0.144  -0.805   4.442 -1.2847 -0.1546 -0.1955
  173SAPS  H20R19694  -0.230  -0.735   4.431 -0.9478  0.4431  0.8761
  173SAPS  H20S19695  -0.193  -0.904   4.437  0.7834 -1.1949 -0.8903
  173SAPS  H20T19696  -0.079  -0.790   4.353 -1.0206 -0.7904 -0.1116
  173SAPS   C3319697   0.513  -0.077   3.254  0.2337  0.3763 -0.3190
  173SAPS   H3X19698   0.441   0.007   3.241  0.7094  0.7441 -0.6080
  173SAPS   H3Y19699   0.613  -0.031   3.249 -0.2757  1.5375 -0.1955
  173SAPS   C3419700   0.509  -0.148   3.391  0.3060  0.7138  0.9224
  173SAPS   H4X19701   0.600  -0.211   3.397 -0.4440 -0.5186 -0.0925
  173SAPS   H4Y19702   0.418  -0.212   3.397  0.5362  0.3549  0.6571
  173SAPS   C3519703   0.492  -0.055   3.503  1.2806  0.0404 -0.2896
  173SAPS   H5X19704   0.387  -0.022   3.488  2.0088  1.8364 -1.8826
  173SAPS   H5Y19705   0.565   0.028   3.488  1.5419 -0.2719 -0.7382
  173SAPS   C3619706   0.497  -0.130   3.637 -0.2855  0.2667  0.6364
  173SAPS   H6X19707   0.598  -0.176   3.642 -0.3511  0.0905  0.3097
  173SAPS   H6Y19708   0.436  -0.223   3.643  0.7530 -0.5550 -0.9038
  173SAPS   C3719709   0.478  -0.038   3.759 -0.5297  0.1704  0.1634
  173SAPS   H7X19710   0.372  -0.013   3.780 -0.2238  0.5136  1.3214
  173SAPS   H7Y19711   0.529   0.059   3.741 -1.6217  0.5879 -0.8021
  173SAPS   C3819712   0.529  -0.106   3.887 -0.3088 -0.1804 -0.2577
  173SAPS   H8X19713   0.636  -0.132   3.878  0.1140  0.8665  1.2617
  173SAPS   H8Y19714   0.483  -0.203   3.919  2.2614 -2.1688 -2.1960
  173SAPS   C3919715   0.512  -0.006   3.999  0.2627  0.3921 -0.5902
  173SAPS   H9X19716   0.407   0.028   4.005  0.1392  0.1834 -1.5015
  173SAPS   H9Y19717   0.575   0.078   3.962  1.7092 -0.3285  0.1407
  173SAPS  C31019718   0.546  -0.061   4.133 -0.3610  0.1884 -0.2202
  173SAPS  H10X19719   0.635  -0.126   4.124  0.1588  0.8029  0.3917
  173SAPS  H10Y19720   0.462  -0.125   4.170  0.5692  0.1663  2.0443
  173SAPS  C31119721   0.585   0.042   4.233  0.1775 -0.2610 -0.2827
  173SAPS  H11X19722   0.510   0.125   4.231 -1.3633 -1.5779  0.4619
  173SAPS  H11Y19723   0.685   0.078   4.200  0.8649 -1.7600  0.1066
  173SAPS  C31219724   0.598  -0.001   4.379  0.5212  0.2403 -0.5324
  173SAPS  H12X19725   0.695   0.040   4.413  2.4096 -3.1024 -1.4357
  173SAPS  H12Y19726   0.606  -0.112   4.371  0.0826  0.2886 -1.7780
  173SAPS  C31319727   0.475   0.013   4.472 -0.2950  0.2708 -0.3093
  173SAPS  H13X19728   0.388  -0.039   4.426  0.1387 -1.1004  0.3749
  173SAPS  H13Y19729   0.464   0.124   4.472 -0.4988  0.2569 -1.1721
  173SAPS  C31419730   0.478  -0.048   4.618  0.3613  0.5056  0.1781
  173SAPS  H14X19731   0.410   0.006   4.688  0.8989  0.9437  0.3757
  173SAPS  H14Y19732   0.584  -0.041   4.650  1.1133  1.2816 -2.2708
  173SAPS  C31519733   0.451  -0.203   4.628 -0.3897 -0.5295 -0.6931
  173SAPS  H15X19734   0.504  -0.266   4.554 -1.1945 -1.3375 -0.5954
  173SAPS  H15Y19735   0.342  -0.221   4.628 -0.4089 -0.4425 -0.1339
  173SAPS  C31619736   0.497  -0.249   4.768  0.1344 -0.1703  0.7049
  173SAPS  H16X19737   0.449  -0.182   4.842  0.1307 -0.7144  1.1995
  173SAPS  H16Y19738   0.606  -0.230   4.775  0.5678 -1.8172 -0.7911
  173SAPS  C31719739   0.468  -0.396   4.802 -0.3791 -0.0332 -0.5873
  173SAPS  H17X19740   0.514  -0.464   4.727  0.0143  1.5888 -1.8722
  173SAPS  H17Y19741   0.358  -0.405   4.809 -0.3435  0.3713  0.9171
  173SAPS  C31819742   0.541  -0.427   4.933  0.5275 -0.0266  1.3457
  173SAPS  H18X19743   0.528  -0.340   5.002  0.3484  0.5928  0.5530
  173SAPS  H18Y19744   0.648  -0.445   4.910  0.5489 -0.7434  1.9736
  173SAPS  H18Z19745   0.500  -0.521   4.975  0.2034 -2.3101 -3.4107
  174SAPS     N19746   4.914   3.742   2.879 -0.2078 -0.8510  0.7700
  174SAPS   HN119747   5.008   3.785   2.870 -0.8716  0.1950 -2.4131
  174SAPS   HN219748   4.892   3.718   2.978 -1.7043 -1.6420  0.2849
  174SAPS   HN319749   4.927   3.655   2.824 -0.9565  0.3888 -1.4991
  174SAPS   C1219750   4.809   3.823   2.814  0.7946  0.0863  0.9288
  174SAPS  H12A19751   4.795   3.919   2.862 -0.8377  0.2761  0.1423
  174SAPS   C1319752   4.836   3.862   2.667  0.0249 -0.9115  0.4995
  174SAPS  O13A19753   4.940   3.818   2.616  0.5672  0.3971 -0.7606
  174SAPS  O13B19754   4.764   3.948   2.603  0.5021  0.0496  0.4412
  174SAPS   C1119755   4.673   3.750   2.822  0.0719  0.4255  0.1299
  174SAPS  H11A19756   4.678   3.648   2.777 -2.9280  2.3281 -5.6376
  174SAPS  H11B19757   4.604   3.800   2.750  0.7233  2.2163  0.7076
  174SAPS     P19758   4.483   3.689   2.991 -0.1611  0.1864 -0.3503
  174SAPS   O1319759   4.386   3.783   2.935 -0.0749  0.4456  0.3280
  174SAPS   O1419760   4.476   3.541   2.951  0.3439 -0.8077  0.0991
  174SAPS   O1219761   4.630   3.745   2.961 -0.1484 -0.0316  0.0834
  174SAPS   O1119762   4.471   3.709   3.140 -0.4977 -0.5763 -0.0890
  174SAPS    C119763   4.367   3.638   3.215 -0.2786  0.1605 -0.4415
  174SAPS    HA19764   4.313   3.556   3.164 -0.6375 -0.7575  1.3483
  174SAPS    HB19765   4.424   3.584   3.294  0.7269  1.2479 -0.3821
  174SAPS    C219766   4.286   3.742   3.300 -0.0837  0.2956  0.1188
  174SAPS    HS19767   4.216   3.683   3.362  0.1761 -0.1230  0.0166
  174SAPS   O2119768   4.210   3.823   3.214  0.1089 -0.3447 -0.0141
  174SAPS   C2119769   4.126   3.773   3.124  0.4940  0.0396  0.1313
  174SAPS   O2219770   4.100   3.653   3.105  0.1391 -0.4669 -0.0688
  174SAPS   C2219771   4.047   3.874   3.041  0.8546 -0.5102  0.7704
  174SAPS   H2R19772   4.123   3.895   2.962 -0.8298 -0.9700 -1.0344
  174SAPS   H2S19773   3.961   3.822   2.994  1.0142 -1.4111  1.4526
  174SAPS    C319774   4.376   3.824   3.395 -1.2632  0.0493  0.1327
  174SAPS    HX19775   4.443   3.893   3.339  0.4413 -1.2314  0.5222
  174SAPS    HY19776   4.441   3.751   3.448 -1.1279 -1.3343 -1.8361
  174SAPS   O3119777   4.286   3.889   3.489 -0.1260 -0.1868  0.2310
  174SAPS   C3119778   4.265   4.023   3.465 -0.2786  0.6073 -0.3733
  174SAPS   O3219779   4.310   4.088   3.372  0.7917  0.0855 -0.4233
  174SAPS   C3219780   4.196   4.084   3.588 -0.2482 -0.0256 -0.1483
  174SAPS   H2X19781   4.192   4.016   3.676 -1.1013  0.7527  0.4399
  174SAPS   H2Y19782   4.088   4.091   3.562 -0.3173 -1.4166 -0.3082
  174SAPS   C2319783   4.010   4.008   3.108  0.0989  0.9025 -0.3930
  174SAPS   H3R19784   3.963   4.076   3.034  0.6271  1.6053 -0.0929
  174SAPS   H3S19785   4.102   4.053   3.150  0.3584 -0.9056  1.1260
  174SAPS   C2419786   3.925   3.987   3.241 -0.0514 -0.2201  0.4628
  174SAPS   H4R19787   3.900   4.083   3.292  2.4752 -0.1483  1.7302
  174SAPS   H4S19788   4.005   3.952   3.310  2.4098  0.3543 -1.8840
  174SAPS   C2519789   3.812   3.892   3.220  0.4298 -0.0905  0.2075
  174SAPS   H5R19790   3.761   3.895   3.123  0.9831 -0.4292 -0.0939
  174SAPS   C2619791   3.778   3.811   3.324  0.6067 -0.0244 -0.4869
  174SAPS   H6R19792   3.685   3.754   3.314 -0.0456  0.4313  2.1886
  174SAPS   C2719793   3.849   3.795   3.456 -0.0890  0.0870  0.3279
  174SAPS   H7R19794   3.933   3.867   3.466 -1.1135  1.5593 -1.0237
  174SAPS   H7S19795   3.894   3.696   3.476  0.7229  0.4247  0.2047
  174SAPS   C2819796   3.762   3.817   3.568  0.9772  0.2777 -0.5686
  174SAPS   H8R19797   3.655   3.836   3.547  0.7510  0.6364  0.7976
  174SAPS   C2919798   3.795   3.832   3.696 -0.5150  0.1494  0.8500
  174SAPS   H9R19799   3.712   3.842   3.768 -1.2636 -1.3504  0.2179
  174SAPS  C21019800   3.931   3.824   3.764 -0.3786  0.0969  0.4986
  174SAPS  H10R19801   4.012   3.862   3.698 -0.6222 -0.6748 -0.2599
  174SAPS  H10S19802   3.941   3.716   3.789 -3.0086  0.1157  2.0739
  174SAPS  C21119803   3.940   3.907   3.885 -0.1538  0.2690  0.2070
  174SAPS  H11R19804   3.949   4.014   3.860  0.5343  0.0009 -0.7491
  174SAPS  C21219805   3.957   3.872   4.016 -0.2038  0.4472  0.0067
  174SAPS  H12R19806   3.974   3.951   4.090 -0.9231  0.6685 -0.0572
  174SAPS  C21319807   3.984   3.735   4.063  0.2399  0.8498  0.5152
  174SAPS  H13R19808   4.090   3.724   4.092  0.0457  0.1317  0.9808
  174SAPS  H13S19809   3.984   3.661   3.981  1.4147 -0.1508  1.3882
  174SAPS  C21419810   3.888   3.705   4.177  0.0288 -0.1858  0.3809
  174SAPS  H14R19811   3.783   3.691   4.148 -0.2703  3.1498 -0.4934
  174SAPS  C21519812   3.923   3.705   4.310 -0.3568 -0.7948 -0.0486
  174SAPS  H15R19813   3.846   3.704   4.388 -0.9298  5.1493 -0.0349
  174SAPS  C21619814   4.060   3.731   4.372 -0.5544  0.1173  0.4876
  174SAPS  H16R19815   4.130   3.792   4.312 -0.3262 -1.1386 -0.5701
  174SAPS  H16S19816   4.114   3.637   4.394  0.8797  1.2682  2.2041
  174SAPS  C21719817   4.042   3.792   4.517 -0.1035 -0.6590  0.2095
  174SAPS  H17R19818   3.961   3.735   4.568 -2.2349  1.8490 -0.1449
  174SAPS  H17S19819   4.020   3.900   4.506  0.3253 -0.4648  1.1595
  174SAPS  C21819820   4.170   3.794   4.599  0.0249  0.3782 -1.2336
  174SAPS  H18R19821   4.246   3.867   4.564  1.6166  0.6543  2.3384
  174SAPS  H18S19822   4.217   3.693   4.598  0.1078  0.3530  0.7150
  174SAPS  C21919823   4.138   3.807   4.747 -0.0918 -0.2013  0.1421
  174SAPS  H19R19824   4.238   3.796   4.795  1.5942 -1.8842 -3.4115
  174SAPS  H19S19825   4.088   3.718   4.790  1.3936 -0.5360  1.2910
  174SAPS  C22019826   4.062   3.938   4.787  0.1039  0.0378  0.2315
  174SAPS  H20R19827   4.012   3.931   4.885  0.2046  1.3360  0.3969
  174SAPS  H20S19828   3.975   3.953   4.720  0.4043 -1.5980 -0.5664
  174SAPS  H20T19829   4.129   4.027   4.788  0.1957 -0.0179  2.3305
  174SAPS   C3319830   4.260   4.219   3.636  1.1075  0.2255 -0.0848
  174SAPS   H3X19831   4.268   4.293   3.553 -1.2023  0.4398 -0.1575
  174SAPS   H3Y19832   4.361   4.187   3.671 -0.6009 -5.8489  0.4718
  174SAPS   C3419833   4.182   4.285   3.748 -0.3265  0.2648 -0.4998
  174SAPS   H4X19834   4.073   4.295   3.728 -0.4483 -2.4728 -1.5593
  174SAPS   H4Y19835   4.227   4.387   3.754  0.4221  0.0640 -2.1219
  174SAPS   C3519836   4.209   4.219   3.886  0.0958 -0.1550 -0.8654
  174SAPS   H5X19837   4.318   4.221   3.908 -0.3095 -0.2599  1.3739
  174SAPS   H5Y19838   4.181   4.112   3.880 -1.5609  0.3268 -3.1370
  174SAPS   C3619839   4.125   4.281   4.005  0.3438  1.4121  0.1715
  174SAPS   H6X19840   4.018   4.257   3.987  0.6994 -1.5962  1.5229
  174SAPS   H6Y19841   4.132   4.391   3.992 -0.6082  1.5627  0.8904
  174SAPS   C3719842   4.168   4.224   4.140  0.0967 -0.7079  0.2938
  174SAPS   H7X19843   4.273   4.260   4.145  0.2788 -1.2694  0.6517
  174SAPS   H7Y19844   4.162   4.113   4.142 -1.8745 -0.6385  2.4660
  174SAPS   C3819845   4.081   4.286   4.250  0.1045  0.7283  0.1288
  174SAPS   H8X19846   3.981   4.239   4.245  0.7426 -0.5814 -1.1650
  174SAPS   H8Y19847   4.066   4.395   4.243 -2.4601  0.7081  3.2095
  174SAPS   C3919848   4.140   4.252   4.387  0.3622  0.1061  0.5839
  174SAPS   H9X19849   4.244   4.290   4.391  0.2260  0.6007 -0.3624
  174SAPS   H9Y19850   4.142   4.140   4.387  0.8024  0.1030  1.5763
  174SAPS  C31019851   4.044   4.300   4.495 -0.3389 -0.3414 -1.1309
  174SAPS  H10X19852   3.955   4.234   4.486  0.1213 -1.1860  0.1720
  174SAPS  H10Y19853   4.018   4.407   4.479 -0.4473  0.2827  2.3365
  174SAPS  C31119854   4.099   4.294   4.642 -0.0429  0.1423 -0.0101
  174SAPS  H11X19855   4.185   4.364   4.651 -0.8768  1.8373 -3.4358
  174SAPS  H11Y19856   4.130   4.189   4.664  1.2488  0.3021 -0.9520
  174SAPS  C31219857   4.000   4.335   4.747 -0.6078 -0.3549  0.3369
  174SAPS  H12X19858   3.909   4.273   4.736 -0.4543 -0.8452  1.6329
  174SAPS  H12Y19859   3.980   4.439   4.713 -0.5723  0.6180  3.0701
  174SAPS  C31319860   4.044   4.344   4.890 -0.2771  0.3877  0.1562
  174SAPS  H13X19861   4.142   4.398   4.892 -0.2927  0.4589  2.7325
  174SAPS  H13Y19862   4.050   4.238   4.923 -0.2634 -0.8120 -3.3228
  174SAPS  C31419863   3.946   4.414   4.985  0.1432 -0.0874  0.2837
  174SAPS  H14X19864   3.848   4.363   4.993  1.5879 -3.0729  0.1116
  174SAPS  H14Y19865   3.923   4.517   4.948  1.8797  0.1866 -0.1414
  174SAPS  C31519866   4.002   4.434   5.125  0.8556  0.1220  0.1740
  174SAPS  H15X19867   4.044   4.341   5.170  0.3563  0.5887  1.6917
  174SAPS  H15Y19868   3.916   4.458   5.191  0.0613  1.6657 -1.3632
  174SAPS  C31619869   4.112   4.541   5.134  0.2187  0.6917 -0.2857
  174SAPS  H16X19870   4.071   4.630   5.082  0.6191  1.1961  0.2477
  174SAPS  H16Y19871   4.208   4.507   5.090  0.2108 -0.3698  0.4617
  174SAPS  C31719872   4.127   4.584   5.275  0.1716 -0.4560 -0.0636
  174SAPS  H17X19873   4.135   4.494   5.339 -4.2492 -1.7924 -1.0348
  174SAPS  H17Y19874   4.040   4.644   5.308 -0.5710  1.7175 -5.0976
  174SAPS  C31819875   4.249   4.677   5.284 -0.1626 -0.2597 -0.5486
  174SAPS  H18X19876   4.341   4.615   5.280 -0.1630 -0.2998  0.0190
  174SAPS  H18Y19877   4.253   4.737   5.377  2.2201  1.3678 -1.5857
  174SAPS  H18Z19878   4.253   4.751   5.201  0.4566  1.2422  0.7769
  175SAPS     N19879   1.816   4.687   2.488  0.2706 -0.1841  0.5345
  175SAPS   HN119880   1.774   4.647   2.574 -0.2338 -0.0448  0.3558
  175SAPS   HN219881   1.875   4.764   2.525 -1.2128  1.1502  0.2709
  175SAPS   HN319882   1.737   4.721   2.429  0.2627 -0.6790  0.2544
  175SAPS   C1219883   1.899   4.593   2.412  0.0192 -0.2746 -0.3224
  175SAPS  H12A19884   1.845   4.500   2.414  0.1031 -0.3212 -0.1850
  175SAPS   C1319885   1.914   4.619   2.263  0.0749  0.1685  0.9363
  175SAPS  O13A19886   1.868   4.729   2.219  0.6290  0.3256  0.1833
  175SAPS  O13B19887   1.987   4.549   2.195 -0.0645 -0.0642  0.1834
  175SAPS   C1119888   2.029   4.572   2.489 -0.4183 -0.0886  0.0942
  175SAPS  H11A19889   2.092   4.491   2.444  0.3986  1.2848 -1.3207
  175SAPS  H11B19890   2.021   4.530   2.591  1.0481  1.1375  0.7534
  175SAPS     P19891   2.148   4.793   2.611  0.0702  0.0016  0.2540
  175SAPS   O1319892   2.284   4.838   2.596 -0.4075 -0.4434  0.0652
  175SAPS   O1419893   2.044   4.898   2.608 -0.4100  0.3402  0.0455
  175SAPS   O1219894   2.112   4.694   2.493  0.3246 -0.1873  0.1209
  175SAPS   O1119895   2.129   4.719   2.749  0.4905  0.1873 -0.4191
  175SAPS    C119896   2.210   4.612   2.786 -0.6842  0.6136  0.4716
  175SAPS    HA19897   2.153   4.517   2.784 -0.0618  0.2476 -1.6318
  175SAPS    HB19898   2.298   4.599   2.720 -0.3641 -2.4570  1.3820
  175SAPS    C219899   2.273   4.634   2.926 -0.1817 -0.2805  0.0532
  175SAPS    HS19900   2.319   4.540   2.963 -1.0074 -1.7392 -2.3379
  175SAPS   O2119901   2.160   4.675   3.006 -0.4112 -0.1639 -0.3053
  175SAPS   C2119902   2.076   4.575   3.034 -0.4036  0.3071  0.2585
  175SAPS   O2219903   2.098   4.455   3.025 -0.0069 -0.3756  0.1628
  175SAPS   C2219904   1.953   4.633   3.107 -0.1537 -0.0299 -0.2148
  175SAPS   H2R19905   1.897   4.697   3.035  0.0475  3.1363  2.2002
  175SAPS   H2S19906   1.877   4.554   3.128 -0.5608  0.0408 -1.3751
  175SAPS    C319907   2.384   4.748   2.931  0.0516  0.5592 -0.0956
  175SAPS    HX19908   2.340   4.847   2.910 -0.0244  0.4971 -0.2293
  175SAPS    HY19909   2.462   4.712   2.860 -0.4745  0.3389 -0.5671
  175SAPS   O3119910   2.436   4.746   3.065 -0.0547 -0.6296  0.1804
  175SAPS   C3119911   2.562   4.787   3.070  0.6456  1.3699  0.0612
  175SAPS   O3219912   2.628   4.832   2.977  0.2245  0.3061 -0.2169
  175SAPS   C3219913   2.615   4.728   3.205 -0.3082  0.7582  0.1781
  175SAPS   H2X19914   2.627   4.618   3.195  1.5924  0.9156  0.2978
  175SAPS   H2Y19915   2.535   4.752   3.278 -0.4798  1.8355 -0.3530
  175SAPS   C2319916   1.987   4.728   3.236  0.1047  0.5937  0.1985
  175SAPS   H3R19917   2.029   4.814   3.179 -1.9100  0.7181 -1.1916
  175SAPS   H3S19918   2.069   4.676   3.290 -0.2374 -2.9684 -2.3627
  175SAPS   C2419919   1.867   4.764   3.319 -0.3862 -0.5816  0.8128
  175SAPS   H4R19920   1.794   4.804   3.245  0.0874 -0.0698  0.6163
  175SAPS   H4S19921   1.882   4.849   3.389  0.6110 -1.0937  1.2399
  175SAPS   C2519922   1.816   4.641   3.387  0.4957  0.5712  0.2882
  175SAPS   H5R19923   1.869   4.547   3.362 -2.0794 -1.2324  1.1738
  175SAPS   C2619924   1.707   4.631   3.471  0.3181  0.0244 -0.1463
  175SAPS   H6R19925   1.675   4.533   3.508  0.1059  0.1724  0.0597
  175SAPS   C2719926   1.627   4.754   3.518 -0.1962 -0.5538 -0.0066
  175SAPS   H7R19927   1.520   4.725   3.529 -0.9290  2.0499  0.3519
  175SAPS   H7S19928   1.616   4.831   3.439 -1.5705 -1.2431 -0.5102
  175SAPS   C2819929   1.693   4.804   3.646  0.2693  0.5102 -0.0309
  175SAPS   H8R19930   1.802   4.819   3.643  0.4098 -0.0322  1.4338
  175SAPS   C2919931   1.636   4.820   3.764 -0.1214 -0.4873 -0.9477
  175SAPS   H9R19932   1.707   4.873   3.829 -0.2510  2.9256 -3.3699
  175SAPS  C21019933   1.498   4.805   3.822  0.9737  0.3359 -0.5859
  175SAPS  H10R19934   1.483   4.708   3.872  0.0021 -0.1547 -1.7888
  175SAPS  H10S19935   1.422   4.795   3.742 -0.1788  0.0096  0.5337
  175SAPS  C21119936   1.459   4.926   3.903 -0.4091  0.0191  0.6532
  175SAPS  H11R19937   1.428   5.014   3.844  1.4578 -0.2081 -0.7791
  175SAPS  C21219938   1.450   4.923   4.040  0.3695  0.6478 -0.3262
  175SAPS  H12R19939   1.425   5.018   4.091  1.5211  1.2120 -0.7746
  175SAPS  C21319940   1.462   4.803   4.126 -0.3293  0.6726  1.0858
  175SAPS  H13R19941   1.405   4.719   4.081  1.3918  1.0978 -2.2356
  175SAPS  H13S19942   1.418   4.825   4.225 -0.6413  0.5053  0.9838
  175SAPS  C21419943   1.598   4.748   4.147 -0.4288  0.4507  0.4254
  175SAPS  H14R19944   1.651   4.726   4.054 -1.8111 -1.0466 -0.0614
  175SAPS  C21519945   1.664   4.723   4.265 -0.6688 -0.8716  0.0171
  175SAPS  H15R19946   1.763   4.677   4.251 -1.4712 -2.6001 -0.1776
  175SAPS  C21619947   1.612   4.745   4.410  0.3201  0.0774 -0.1927
  175SAPS  H16R19948   1.643   4.660   4.474 -0.1425 -0.3519 -0.5288
  175SAPS  H16S19949   1.502   4.733   4.410  0.4386 -1.2527  1.1210
  175SAPS  C21719950   1.636   4.885   4.473  0.2206  0.2398 -0.7515
  175SAPS  H17R19951   1.620   4.949   4.384  0.2606  0.5301 -0.5492
  175SAPS  H17S19952   1.740   4.893   4.510 -0.1810 -1.3107  0.8275
  175SAPS  C21819953   1.525   4.915   4.582 -0.0370  0.0086  0.1522
  175SAPS  H18R19954   1.536   4.830   4.653 -0.5330 -0.7999 -0.7145
  175SAPS  H18S19955   1.420   4.907   4.546 -0.4104 -0.3015  1.2525
  175SAPS  C21919956   1.547   5.044   4.657  0.0324 -0.2710 -0.9384
  175SAPS  H19R19957   1.465   5.075   4.724  0.0258 -0.7531 -0.7200
  175SAPS  H19S19958   1.565   5.127   4.585 -0.0529  0.6342  0.0736
  175SAPS  C22019959   1.669   5.040   4.751  0.3761 -0.1937 -0.4918
  175SAPS  H20R19960   1.677   5.127   4.820  1.2732  0.4181 -1.3388
  175SAPS  H20S19961   1.765   5.030   4.695  1.7116  1.0039  1.4265
  175SAPS  H20T19962   1.673   4.948   4.813 -0.3677  0.9178  1.2826
  175SAPS   C3319963   2.757   4.791   3.244 -0.1622 -0.2157  0.5968
  175SAPS   H3X19964   2.749   4.902   3.237 -0.5980 -0.2358  0.7557
  175SAPS   H3Y19965   2.836   4.762   3.172  0.1308 -1.3677  1.3662
  175SAPS   C3419966   2.795   4.772   3.387 -0.0870  0.4129  0.3503
  175SAPS   H4X19967   2.897   4.810   3.407 -0.9544  2.8696  0.4668
  175SAPS   H4Y19968   2.800   4.663   3.407 -1.7066  0.4572  1.1701
  175SAPS   C3519969   2.698   4.833   3.488  0.0745 -0.4231 -0.6035
  175SAPS   H5X19970   2.595   4.792   3.476 -0.4440  1.0879 -1.6132
  175SAPS   H5Y19971   2.689   4.941   3.466  0.1275 -0.6569 -1.8575
  175SAPS   C3619972   2.758   4.819   3.625 -1.0323 -0.1151  0.7424
  175SAPS   H6X19973   2.863   4.854   3.632 -1.4739  1.7007 -0.8772
  175SAPS   H6Y19974   2.763   4.712   3.655  0.6616 -1.1681 -2.7047
  175SAPS   C3719975   2.688   4.890   3.734  0.5430 -0.0521 -0.4655
  175SAPS   H7X19976   2.582   4.858   3.734  0.1304  0.9710  3.2296
  175SAPS   H7Y19977   2.700   4.999   3.716  0.9401  0.0633  0.4547
  175SAPS   C3819978   2.738   4.854   3.875 -0.4268  0.1124  0.2352
  175SAPS   H8X19979   2.668   4.897   3.949  0.4700 -0.7321  1.6090
  175SAPS   H8Y19980   2.831   4.916   3.878 -1.3332  1.4749  1.6841
  175SAPS   C3919981   2.762   4.709   3.909  0.1603  0.0476 -0.0115
  175SAPS   H9X19982   2.858   4.669   3.869 -0.9226 -0.0082 -2.7254
  175SAPS   H9Y19983   2.676   4.654   3.868  1.2916 -1.6965 -0.1376
  175SAPS  C31019984   2.749   4.689   4.065  0.0546  0.3205  0.8511
  175SAPS  H10X19985   2.643   4.685   4.097 -0.6272  1.2737 -1.1628
  175SAPS  H10Y19986   2.810   4.759   4.126 -0.4748 -1.3214  3.4014
  175SAPS  C31119987   2.808   4.544   4.095  0.2209 -0.1141  0.5154
  175SAPS  H11X19988   2.908   4.541   4.047 -0.2471 -1.4364 -0.4285
  175SAPS  H11Y19989   2.733   4.472   4.058 -2.1606  2.4338  0.0375
  175SAPS  C31219990   2.823   4.503   4.243  0.3575 -0.2846 -0.2384
  175SAPS  H12X19991   2.881   4.583   4.294 -1.6524  0.7099  0.5551
  175SAPS  H12Y19992   2.879   4.408   4.261  0.3905  0.0609  1.6388
  175SAPS  C31319993   2.683   4.489   4.315  0.8567 -0.1979  0.6390
  175SAPS  H13X19994   2.614   4.419   4.264  0.0991  0.7370  0.3555
  175SAPS  H13Y19995   2.635   4.590   4.316 -1.0605 -1.0619  1.4681
  175SAPS  C31419996   2.696   4.430   4.451  0.5046 -0.6900 -0.4406
  175SAPS  H14X19997   2.750   4.500   4.518  0.3696 -1.7659  0.8107
  175SAPS  H14Y19998   2.764   4.344   4.438  1.5012  0.1290 -0.7991
  175SAPS  C31519999   2.573   4.367   4.526 -0.5953 -0.3443  0.4126
  175SAPS  H15X20000   2.615   4.314   4.614  2.2149  0.4151 -0.3713
  175SAPS  H15Y20001   2.530   4.276   4.479  0.1899  0.1783 -1.4030
  175SAPS  C31620002   2.463   4.470   4.542 -0.4985  0.2489  0.1800
  175SAPS  H16X20003   2.387   4.428   4.610  0.8460  0.0469  1.6123
  175SAPS  H16Y20004   2.416   4.486   4.443  2.4759  1.3064 -1.2001
  175SAPS  C31720005   2.512   4.609   4.603  0.1062 -0.1205 -0.0585
  175SAPS  H17X20006   2.418   4.657   4.637  0.5468 -0.5974  1.9663
  175SAPS  H17Y20007   2.562   4.668   4.524  1.2133 -0.4380  0.3858
  175SAPS  C31820008   2.604   4.602   4.730  0.1250 -0.7490 -0.1062
  175SAPS  H18X20009   2.564   4.520   4.793  1.0452 -0.9345  0.2445
  175SAPS  H18Y20010   2.599   4.700   4.782  0.1856 -0.7725 -0.0567
  175SAPS  H18Z20011   2.708   4.570   4.707  0.9871  1.3516  0.5499
  176SAPS     N20012   5.904   1.075   2.648 -0.6662 -0.0225  0.1672
  176SAPS   HN120013   5.857   1.119   2.567 -0.1655  0.2524  0.0201
  176SAPS   HN220014   6.004   1.103   2.650 -0.6524  0.7857 -4.2185
  176SAPS   HN320015   5.893   0.971   2.644 -0.0833 -0.1496  1.2433
  176SAPS   C1220016   5.831   1.106   2.771  0.2603 -1.2779 -0.3508
  176SAPS  H12A20017   5.900   1.116   2.853  1.0147  0.3713 -1.1313
  176SAPS   C1320018   5.734   1.231   2.756 -0.0626 -0.6049 -0.1637
  176SAPS  O13A20019   5.713   1.292   2.649 -0.2200  0.0476  0.4437
  176SAPS  O13B20020   5.711   1.289   2.866 -0.1655  0.1517  0.2020
  176SAPS   C1120021   5.721   1.001   2.807 -0.0486  0.1957  0.2574
  176SAPS  H11A20022   5.648   1.009   2.724  0.7327  2.5232 -0.2873
  176SAPS  H11B20023   5.662   1.042   2.892 -0.1731  0.3115  0.1165
  176SAPS     P20024   5.754   0.762   2.722 -0.2322  0.2863  0.0812
  176SAPS   O1320025   5.607   0.750   2.692 -0.0543 -0.2515 -0.2158
  176SAPS   O1420026   5.850   0.797   2.608 -0.5865  0.0754 -0.2313
  176SAPS   O1220027   5.777   0.869   2.831  0.0873 -0.3620  0.2898
  176SAPS   O1120028   5.796   0.622   2.785 -0.1095  0.1519  0.0656
  176SAPS    C120029   5.874   0.613   2.899 -0.9456 -0.0966 -0.3157
  176SAPS    HA20030   5.926   0.515   2.896 -1.0247 -0.1249 -0.7731
  176SAPS    HB20031   5.961   0.681   2.903 -0.0139 -1.2365 -0.6001
  176SAPS    C220032   5.780   0.603   3.028 -0.4533  0.3128  0.5122
  176SAPS    HS20033   5.741   0.702   3.060 -2.8154 -0.9987  1.9589
  176SAPS   O2120034   5.855   0.540   3.134  0.4436 -0.6706 -0.6080
  176SAPS   C2120035   5.937   0.617   3.200  0.1220  0.5587  0.4676
  176SAPS   O2220036   5.964   0.733   3.176  0.6149  0.6335  0.2138
  176SAPS   C2220037   6.004   0.519   3.300 -1.1662 -1.1030 -0.6083
  176SAPS   H2R20038   5.999   0.414   3.263 -1.2449 -0.8795 -1.2472
  176SAPS   H2S20039   6.109   0.547   3.320 -1.7676  0.5970  0.4128
  176SAPS    C320040   5.653   0.516   2.991 -0.0514 -0.4911  0.0511
  176SAPS    HX20041   5.694   0.414   2.972  1.7534 -0.0699  1.3851
  176SAPS    HY20042   5.605   0.554   2.898  0.4700 -1.0701 -0.4668
  176SAPS   O3120043   5.557   0.495   3.100 -0.3795 -0.1015  0.3196
  176SAPS   C3120044   5.479   0.604   3.127 -0.3890  0.9837  1.2719
  176SAPS   O3220045   5.489   0.707   3.060  0.1141 -0.6270 -0.0223
  176SAPS   C3220046   5.397   0.581   3.247 -0.9620  0.1843 -0.1229
  176SAPS   H2X20047   5.341   0.487   3.230 -3.3068  1.1598  1.6490
  176SAPS   H2Y20048   5.325   0.663   3.263 -0.2188  0.5349  1.7027
  176SAPS   C2320049   5.938   0.539   3.445 -0.5366  0.1764  0.2513
  176SAPS   H3R20050   5.833   0.502   3.435 -0.6200 -0.3847  2.6643
  176SAPS   H3S20051   5.919   0.647   3.461 -0.3576 -0.0262  1.9603
  176SAPS   C2420052   6.021   0.472   3.557  0.9427 -0.4528  0.1096
  176SAPS   H4R20053   5.958   0.493   3.646  0.2550  1.4270 -0.7575
  176SAPS   H4S20054   6.115   0.530   3.568  0.3316  0.6691 -0.3554
  176SAPS   C2520055   6.037   0.331   3.547  0.0720 -0.5545 -0.1681
  176SAPS   H5R20056   6.095   0.306   3.458  1.0769  1.8129 -0.2533
  176SAPS   C2620057   5.989   0.238   3.625  1.0777  0.5538 -0.1645
  176SAPS   H6R20058   6.016   0.138   3.589  0.9314  0.3431  0.3057
  176SAPS   C2720059   5.894   0.248   3.747  0.5847  0.0145  0.0837
  176SAPS   H7R20060   5.798   0.295   3.717  0.6547  0.2716  0.2634
  176SAPS   H7S20061   5.941   0.301   3.832  3.1872 -2.6261  0.4495
  176SAPS   C2820062   5.838   0.119   3.801 -0.3002 -0.2194 -0.8061
  176SAPS   H8R20063   5.785   0.067   3.720  1.7839 -4.0792  0.0758
  176SAPS   C2920064   5.844   0.072   3.926  0.1177  0.0630  0.0806
  176SAPS   H9R20065   5.801  -0.026   3.952 -1.6117  1.2439  2.0313
  176SAPS  C21020066   5.915   0.132   4.046  0.3360  0.0321 -0.0585
  176SAPS  H10R20067   5.926   0.242   4.036  0.2836  0.2189  1.7286
  176SAPS  H10S20068   6.010   0.080   4.069  0.2816 -0.3709 -0.7049
  176SAPS  C21120069   5.836   0.106   4.178  0.4084  0.0973  0.2186
  176SAPS  H11R20070   5.727   0.121   4.177  0.5155  0.9459  0.6056
  176SAPS  C21220071   5.869   0.036   4.287 -0.4758 -0.4451 -0.1665
  176SAPS  H12R20072   5.797   0.009   4.365  0.8106 -0.5603  1.0246
  176SAPS  C21320073   6.012  -0.020   4.312 -0.4179  0.3299 -0.2645
  176SAPS  H13R20074   6.092   0.054   4.292  0.4475 -1.0501 -2.2376
  176SAPS  H13S20075   6.031  -0.098   4.236  1.3481  0.5368 -0.0785
  176SAPS  C21420076   6.022  -0.080   4.448  0.0940 -0.3456  0.3528
  176SAPS  H14R20077   6.012  -0.001   4.525 -0.6755 -0.3824  0.3004
  176SAPS  C21520078   6.021  -0.212   4.473  0.7962  0.1282  0.1763
  176SAPS  H15R20079   6.051  -0.250   4.572 -0.9342 -2.0958 -0.0805
  176SAPS  C21620080   5.997  -0.321   4.376 -0.3451  0.4925  0.3010
  176SAPS  H16R20081   6.075  -0.314   4.298 -1.0362 -0.9308 -0.5720
  176SAPS  H16S20082   5.911  -0.295   4.311 -1.3144  4.1185  2.7649
  176SAPS  C21720083   6.011  -0.466   4.427 -0.6196 -0.0618 -0.2008
  176SAPS  H17R20084   6.119  -0.473   4.456  0.2949 -0.0247 -3.2934
  176SAPS  H17S20085   5.992  -0.538   4.345  0.5833 -0.0117 -0.5407
  176SAPS  C21820086   5.932  -0.497   4.556 -0.0795 -0.8895 -0.1814
  176SAPS  H18R20087   5.824  -0.481   4.533  0.3252 -0.2926 -1.7521
  176SAPS  H18S20088   5.960  -0.438   4.645 -0.0544  0.4360 -1.0509
  176SAPS  C21920089   5.947  -0.643   4.600  0.1220 -0.2480 -0.5140
  176SAPS  H19R20090   6.055  -0.665   4.609  1.0087  3.1709 -1.2180
  176SAPS  H19S20091   5.897  -0.703   4.520 -0.8102 -0.1592 -0.0205
  176SAPS  C22020092   5.870  -0.676   4.720 -0.2755 -0.0962  0.1596
  176SAPS  H20R20093   5.761  -0.653   4.719  0.1598  2.2217  0.0670
  176SAPS  H20S20094   5.918  -0.617   4.801  0.5624 -3.1105  1.9861
  176SAPS  H20T20095   5.876  -0.784   4.745 -0.0399  0.3791  2.3130
  176SAPS   C3320096   5.479   0.566   3.383 -0.4108 -0.2462  0.3860
  176SAPS   H3X20097   5.571   0.509   3.360  0.3597  1.1820 -0.1989
  176SAPS   H3Y20098   5.418   0.515   3.461 -2.4870  1.9836  0.3523
  176SAPS   C3420099   5.515   0.702   3.443 -1.1960 -1.3672  0.4567
  176SAPS   H4X20100   5.418   0.751   3.466 -1.0448 -1.2805  0.9296
  176SAPS   H4Y20101   5.572   0.768   3.374 -1.3350  1.3536  2.7587
  176SAPS   C3520102   5.591   0.694   3.576 -1.4070  0.2357 -0.1092
  176SAPS   H5X20103   5.628   0.796   3.598  0.5879 -0.1367 -1.4825
  176SAPS   H5Y20104   5.690   0.647   3.564 -0.5760  1.9639 -0.3159
  176SAPS   C3620105   5.511   0.630   3.693 -0.6506  0.5236 -0.4949
  176SAPS   H6X20106   5.497   0.524   3.666 -3.0843  0.6658  0.0184
  176SAPS   H6Y20107   5.413   0.683   3.697 -0.8693  0.1794 -1.2833
  176SAPS   C3720108   5.576   0.630   3.834 -0.0930  0.5718  0.0833
  176SAPS   H7X20109   5.607   0.734   3.857 -0.4801  0.1742  2.6954
  176SAPS   H7Y20110   5.664   0.565   3.815 -1.2487 -1.5634  1.5873
  176SAPS   C3820111   5.495   0.565   3.941  0.2859  0.2734 -0.4972
  176SAPS   H8X20112   5.449   0.471   3.903  1.0590 -0.2149 -0.2433
  176SAPS   H8Y20113   5.412   0.636   3.963  0.0750 -0.6931  2.2670
  176SAPS   C3920114   5.584   0.540   4.065 -0.5865 -0.0835  0.3434
  176SAPS   H9X20115   5.629   0.635   4.103 -0.4975 -0.7340  1.9365
  176SAPS   H9Y20116   5.662   0.471   4.026 -2.5164 -1.4258 -1.3295
  176SAPS  C31020117   5.517   0.483   4.183  0.0314 -0.0929  0.2068
  176SAPS  H10X20118   5.471   0.393   4.138 -1.3234  0.3523  0.6566
  176SAPS  H10Y20119   5.425   0.541   4.207 -1.1869 -0.9256 -2.1327
  176SAPS  C31120120   5.607   0.445   4.291 -0.0573 -0.1273  0.2304
  176SAPS  H11X20121   5.639   0.531   4.355  0.8031  0.9997 -1.6189
  176SAPS  H11Y20122   5.691   0.382   4.256  0.2093 -1.0655  2.4151
  176SAPS  C31220123   5.537   0.354   4.392  0.3214  0.4318 -0.5578
  176SAPS  H12X20124   5.501   0.268   4.332  1.4488  0.0396 -0.6918
  176SAPS  H12Y20125   5.453   0.413   4.434  1.3570  1.5187  0.0243
  176SAPS  C31320126   5.624   0.293   4.500 -0.0237 -0.4138  0.6910
  176SAPS  H13X20127   5.692   0.367   4.549  1.3861  0.0658 -1.7826
  176SAPS  H13Y20128   5.690   0.215   4.457  0.8957  0.8004 -0.1818
  176SAPS  C31420129   5.528   0.233   4.599  0.5126 -0.4104 -0.5944
  176SAPS  H14X20130   5.464   0.171   4.533 -1.2561  1.2928 -0.5623
  176SAPS  H14Y20131   5.475   0.316   4.649  0.8523 -0.3839 -0.2669
  176SAPS  C31520132   5.598   0.141   4.706  0.4418 -0.5464 -0.1339
  176SAPS  H15X20133   5.614   0.196   4.801 -1.0684  0.9431 -0.7087
  176SAPS  H15Y20134   5.692   0.105   4.658 -0.2814 -0.0149 -2.0379
  176SAPS  C31620135   5.529   0.013   4.758 -0.0446  0.1811  0.4448
  176SAPS  H16X20136   5.524  -0.065   4.679 -0.7856  0.3781  0.2885
  176SAPS  H16Y20137   5.424   0.049   4.767  0.0948  1.1164 -1.1859
  176SAPS  C31720138   5.579  -0.032   4.893  0.3878  0.0131 -0.5021
  176SAPS  H17X20139   5.510  -0.110   4.934 -0.6298  0.7766 -0.7400
  176SAPS  H17Y20140   5.582   0.061   4.953 -0.7754  1.0482 -1.9970
  176SAPS  C31820141   5.713  -0.093   4.883  0.4157  0.3942 -0.6198
  176SAPS  H18X20142   5.781  -0.028   4.823  0.7502 -0.2549 -0.9598
  176SAPS  H18Y20143   5.701  -0.192   4.833 -1.3432  0.7733 -1.0073
  176SAPS  H18Z20144   5.766  -0.116   4.978 -1.0604  0.0483  0.1543
  177SAPS     N20145   2.417   0.092   2.788  0.0483  0.0140  0.4642
  177SAPS   HN120146   2.479   0.155   2.842  0.3050 -0.4639  0.7300
  177SAPS   HN220147   2.334   0.145   2.754  0.7116 -0.6505 -2.4790
  177SAPS   HN320148   2.381   0.021   2.854  1.9568  0.4964  2.1471
  177SAPS   C1220149   2.497   0.042   2.671 -1.0367 -1.1986 -0.2337
  177SAPS  H12A20150   2.422  -0.016   2.619  0.8089 -2.2295 -1.8862
  177SAPS   C1320151   2.557   0.149   2.575  0.7758  0.4408  0.2478
  177SAPS  O13A20152   2.507   0.265   2.584  0.0013 -0.0139  0.0672
  177SAPS  O13B20153   2.640   0.111   2.488 -0.6773  0.4182  0.3411
  177SAPS   C1120154   2.607  -0.053   2.732 -0.1302 -0.2152 -0.2127
  177SAPS  H11A20155   2.659   0.009   2.809 -1.5271  4.4172 -2.6244
  177SAPS  H11B20156   2.679  -0.088   2.655 -2.8436 -0.3772 -2.8606
  177SAPS     P20157   2.609  -0.303   2.833  0.2305  0.3039 -0.2940
  177SAPS   O1320158   2.666  -0.344   2.707  0.3055  0.3702  0.2816
  177SAPS   O1420159   2.701  -0.288   2.953  0.8662  0.6186 -0.2036
  177SAPS   O1220160   2.540  -0.164   2.799 -0.4332  0.3037 -0.0358
  177SAPS   O1120161   2.487  -0.395   2.877  0.0379  0.0486 -0.3823
  177SAPS    C120162   2.358  -0.401   2.813  0.0387 -0.1453  0.2334
  177SAPS    HA20163   2.298  -0.310   2.836 -0.1281 -0.5087  1.2817
  177SAPS    HB20164   2.376  -0.411   2.704 -1.5354  2.0987 -0.3184
  177SAPS    C220165   2.281  -0.529   2.861  0.4719  0.0239 -0.1488
  177SAPS    HS20166   2.184  -0.535   2.808 -1.1009 -1.0831  2.6483
  177SAPS   O2120167   2.257  -0.520   3.001 -0.0047  0.6026 -0.6631
  177SAPS   C2120168   2.134  -0.550   3.047 -0.5512  0.1017  0.4509
  177SAPS   O2220169   2.036  -0.582   2.982 -0.2588  0.0852 -0.1235
  177SAPS   C2220170   2.131  -0.559   3.202 -0.4386 -1.1224 -0.3434
  177SAPS   H2R20171   2.197  -0.643   3.232  0.2775 -1.3903 -2.4837
  177SAPS   H2S20172   2.171  -0.458   3.227 -3.8755  0.0155  1.1553
  177SAPS    C320173   2.363  -0.653   2.827 -0.0845 -1.1239 -0.1603
  177SAPS    HX20174   2.463  -0.647   2.874 -1.0452  0.6203  1.8555
  177SAPS    HY20175   2.390  -0.652   2.719  1.3418 -0.3305  0.1766
  177SAPS   O3120176   2.292  -0.778   2.849  0.6855 -0.5885 -0.3713
  177SAPS   C3120177   2.303  -0.833   2.974 -0.2332  0.5627  0.1093
  177SAPS   O3220178   2.366  -0.793   3.069 -0.1098 -0.0928 -0.3280
  177SAPS   C3220179   2.216  -0.956   2.979 -0.1007  0.9454 -0.7279
  177SAPS   H2X20180   2.281  -1.041   2.948 -0.1131  0.2460  1.0640
  177SAPS   H2Y20181   2.130  -0.951   2.909 -0.7089 -0.6310 -0.1214
  177SAPS   C2320182   1.987  -0.580   3.262 -0.7803 -0.1055 -0.3613
  177SAPS   H3R20183   1.941  -0.667   3.209 -2.3890  0.5036 -0.0234
  177SAPS   H3S20184   1.929  -0.491   3.229 -2.1947 -1.1064 -0.7183
  177SAPS   C2420185   1.975  -0.597   3.414  0.1413  0.4483 -0.3280
  177SAPS   H4R20186   1.872  -0.590   3.455  1.1695  0.5500  2.4174
  177SAPS   H4S20187   2.043  -0.531   3.473 -0.3002 -0.5078  1.3113
  177SAPS   C2520188   2.010  -0.738   3.451 -0.0465 -0.0615 -0.3426
  177SAPS   H5R20189   1.981  -0.803   3.367 -3.3644  2.9285 -1.7471
  177SAPS   C2620190   2.043  -0.786   3.572 -0.2450  0.5347 -0.3900
  177SAPS   H6R20191   2.078  -0.890   3.581 -1.3788  0.0643 -1.2376
  177SAPS   C2720192   2.059  -0.712   3.703 -0.2841  0.4335  0.3091
  177SAPS   H7R20193   1.964  -0.724   3.760 -0.6907 -1.5602 -0.6885
  177SAPS   H7S20194   2.077  -0.606   3.675  3.2827 -0.8012 -2.9167
  177SAPS   C2820195   2.183  -0.752   3.784  0.1878  0.0723 -0.0832
  177SAPS   H8R20196   2.276  -0.780   3.733  0.6947  2.7731 -0.7811
  177SAPS   C2920197   2.183  -0.779   3.917  0.0933  0.1482  0.1773
  177SAPS   H9R20198   2.277  -0.815   3.961 -0.0990  1.2983  1.5770
  177SAPS  C21020199   2.066  -0.777   4.014 -0.2732 -0.4759  0.6257
  177SAPS  H10R20200   2.108  -0.842   4.094 -0.1217 -0.9475  0.1684
  177SAPS  H10S20201   1.976  -0.826   3.971 -1.2917  1.7057  0.1520
  177SAPS  C21120202   2.044  -0.631   4.049 -0.5284  0.4322 -0.3196
  177SAPS  H11R20203   2.067  -0.559   3.969  2.5988 -1.8148 -1.6639
  177SAPS  C21220204   2.013  -0.595   4.173 -0.4893  0.4056  0.7423
  177SAPS  H12R20205   1.996  -0.489   4.196  2.6173  0.6721  2.4008
  177SAPS  C21320206   1.989  -0.681   4.292 -0.0771  0.5058  0.2428
  177SAPS  H13R20207   2.089  -0.707   4.334 -0.0347  1.4883  0.7837
  177SAPS  H13S20208   1.941  -0.772   4.250 -2.2038  1.2287  0.9910
  177SAPS  C21420209   1.912  -0.617   4.402  0.2156  0.4218  0.3739
  177SAPS  H14R20210   1.862  -0.524   4.371  1.5402  1.0373 -0.0216
  177SAPS  C21520211   1.901  -0.675   4.529  0.2535 -0.1475  0.0195
  177SAPS  H15R20212   1.854  -0.614   4.608 -0.3898 -2.9694  1.9690
  177SAPS  C21620213   1.961  -0.804   4.586  0.0678  0.4613 -0.1615
  177SAPS  H16R20214   2.013  -0.867   4.510  0.9727  0.6700  0.2752
  177SAPS  H16S20215   1.879  -0.870   4.623  0.0955  2.0406  3.0408
  177SAPS  C21720216   2.060  -0.770   4.699 -0.4353 -0.3613  0.0663
  177SAPS  H17R20217   2.017  -0.697   4.771 -0.0810 -0.8722  0.8078
  177SAPS  H17S20218   2.148  -0.720   4.652  0.8336 -1.3276  1.3108
  177SAPS  C21820219   2.109  -0.888   4.785  0.3572  0.0850 -0.2504
  177SAPS  H18R20220   2.206  -0.869   4.836  0.3141 -0.1353 -0.0818
  177SAPS  H18S20221   2.137  -0.972   4.718 -0.0257  0.7067 -1.2154
  177SAPS  C21920222   2.001  -0.931   4.884 -0.1871 -0.1188 -0.3003
  177SAPS  H19R20223   1.915  -0.957   4.819  1.4479 -0.2357 -2.5606
  177SAPS  H19S20224   1.987  -0.838   4.943  1.9479  1.3720 -1.9666
  177SAPS  C22020225   2.045  -1.057   4.963 -0.3139  0.1101  0.4455
  177SAPS  H20R20226   2.047  -1.142   4.892  0.7168  1.0015 -0.6373
  177SAPS  H20S20227   1.977  -1.075   5.049 -1.0104  0.0683 -0.1080
  177SAPS  H20T20228   2.148  -1.044   5.001 -0.1481 -0.6909  0.2719
  177SAPS   C3320229   2.158  -0.983   3.122 -0.4811 -0.1792  0.4971
  177SAPS   H3X20230   2.097  -0.893   3.141 -1.2760 -0.7997  0.9555
  177SAPS   H3Y20231   2.236  -0.981   3.201  1.0352  0.6429 -0.9555
  177SAPS   C3420232   2.071  -1.111   3.139  0.4114 -0.5573  0.0369
  177SAPS   H4X20233   2.110  -1.199   3.083 -0.2253 -0.6609 -0.2503
  177SAPS   H4Y20234   1.969  -1.095   3.098  0.4520 -0.4424 -0.0176
  177SAPS   C3520235   2.048  -1.154   3.287 -1.2206  0.6846  0.1193
  177SAPS   H5X20236   1.977  -1.239   3.294  1.4189 -1.6572  0.4374
  177SAPS   H5Y20237   2.015  -1.072   3.355 -0.4907  0.9269  0.1918
  177SAPS   C3620238   2.180  -1.209   3.359 -0.2379  0.2549 -0.4068
  177SAPS   H6X20239   2.260  -1.132   3.354  1.3816 -1.3933 -1.1050
  177SAPS   H6Y20240   2.216  -1.291   3.294 -1.1100  0.9627 -1.8269
  177SAPS   C3720241   2.162  -1.274   3.491  0.1197  0.0914 -0.3804
  177SAPS   H7X20242   2.267  -1.296   3.522 -0.2232  2.4309  3.0255
  177SAPS   H7Y20243   2.101  -1.366   3.489  0.5272 -0.2099  0.6965
  177SAPS   C3820244   2.094  -1.189   3.596 -0.6266  0.2149  0.0919
  177SAPS   H8X20245   1.986  -1.191   3.573 -0.6554 -1.1675  0.2593
  177SAPS   H8Y20246   2.137  -1.086   3.591 -0.0721 -0.0400 -0.6667
  177SAPS   C3920247   2.112  -1.239   3.737 -0.6120 -0.1464 -0.0187
  177SAPS   H9X20248   2.214  -1.283   3.738 -0.5848 -0.8549 -5.2780
  177SAPS   H9Y20249   2.049  -1.326   3.763  0.5202 -0.7174  0.9127
  177SAPS  C31020250   2.108  -1.144   3.855 -0.0641  0.0361 -1.4647
  177SAPS  H10X20251   2.005  -1.105   3.872 -0.0780  0.3178 -2.1410
  177SAPS  H10Y20252   2.160  -1.047   3.842 -0.0500  0.3734  0.8235
  177SAPS  C31120253   2.157  -1.210   3.994 -0.1745 -0.1937 -0.7559
  177SAPS  H11X20254   2.268  -1.205   3.997  0.0002  0.8264 -4.1889
  177SAPS  H11Y20255   2.127  -1.317   3.998  0.9457 -0.4968 -0.1559
  177SAPS  C31220256   2.098  -1.129   4.107  0.2126  0.1576 -0.0123
  177SAPS  H12X20257   1.989  -1.107   4.103  0.3805  0.8607 -0.9717
  177SAPS  H12Y20258   2.155  -1.034   4.104  2.2169 -0.8249  2.7069
  177SAPS  C31320259   2.133  -1.185   4.248 -0.8650 -0.0084 -0.0777
  177SAPS  H13X20260   2.241  -1.208   4.259 -0.7702  0.9396  1.1679
  177SAPS  H13Y20261   2.072  -1.276   4.262 -0.7222 -0.0127  0.5413
  177SAPS  C31420262   2.088  -1.092   4.364 -0.0850 -0.1858  0.8361
  177SAPS  H14X20263   1.982  -1.076   4.335  0.4348  0.5372 -0.8165
  177SAPS  H14Y20264   2.141  -0.994   4.367 -1.7672  0.8156 -0.5295
  177SAPS  C31520265   2.087  -1.163   4.496 -0.8268 -0.4158 -1.0188
  177SAPS  H15X20266   2.030  -1.257   4.483 -0.5690 -0.6039 -0.7922
  177SAPS  H15Y20267   2.021  -1.113   4.570 -0.3190 -1.4049  0.1324
  177SAPS  C31620268   2.231  -1.190   4.552  0.0334 -0.6181  0.3157
  177SAPS  H16X20269   2.290  -1.097   4.559  1.6607 -1.5645 -0.2492
  177SAPS  H16Y20270   2.286  -1.246   4.473  0.6370  0.6605 -0.1961
  177SAPS  C31720271   2.239  -1.278   4.676  0.3336 -0.9101 -0.0295
  177SAPS  H17X20272   2.202  -1.216   4.761 -0.3544 -1.2554 -0.0722
  177SAPS  H17Y20273   2.346  -1.291   4.702  0.3548  2.2598  2.0542
  177SAPS  C31820274   2.172  -1.415   4.667  0.0762 -0.2192  0.0879
  177SAPS  H18X20275   2.198  -1.467   4.573 -0.1279  0.7892 -0.5373
  177SAPS  H18Y20276   2.062  -1.401   4.667  0.1477  0.3556 -0.3736
  177SAPS  H18Z20277   2.209  -1.480   4.750  1.1183 -1.7102 -1.4584
  178SAPS     N20278   0.135   0.703   2.847 -0.4094 -0.1120 -0.0548
  178SAPS   HN120279   0.149   0.609   2.805  0.5246  0.0618 -0.1530
  178SAPS   HN220280   0.217   0.746   2.894  0.3313 -2.7218  1.2371
  178SAPS   HN320281   0.056   0.704   2.914 -1.0874  1.8465 -0.8112
  178SAPS   C1220282   0.108   0.799   2.729  0.0163  0.8468  0.6933
  178SAPS  H12A20283   0.163   0.769   2.641 -1.9909  3.0134 -1.4260
  178SAPS   C1320284  -0.042   0.818   2.690  0.0521  0.5725  0.1623
  178SAPS  O13A20285  -0.132   0.743   2.735  0.3575 -0.5538  0.8186
  178SAPS  O13B20286  -0.069   0.880   2.581 -0.2470  0.9518 -0.2700
  178SAPS   C1120287   0.154   0.943   2.772 -0.1016 -0.0321  0.2038
  178SAPS  H11A20288   0.109   0.982   2.866  0.1718 -0.7273  0.6333
  178SAPS  H11B20289   0.128   1.006   2.684 -1.5122 -1.3756 -0.3981
  178SAPS     P20290   0.376   1.085   2.799 -0.3952 -0.0629 -0.0849
  178SAPS   O1320291   0.517   1.049   2.810  0.2091 -0.4362  0.3045
  178SAPS   O1420292   0.332   1.159   2.679 -0.3522  0.1985  0.1834
  178SAPS   O1220293   0.294   0.949   2.792 -0.4704  0.5034 -0.0701
  178SAPS   O1120294   0.327   1.158   2.927  0.1584  0.1631 -0.1370
  178SAPS    C120295   0.407   1.175   3.048 -0.1048  0.0438  0.4620
  178SAPS    HA20296   0.514   1.192   3.025 -0.5204  1.5564 -0.4608
  178SAPS    HB20297   0.358   1.255   3.107 -3.5454 -0.3513 -1.5843
  178SAPS    C220298   0.406   1.048   3.142 -0.5268  0.5353 -1.0199
  178SAPS    HS20299   0.432   0.961   3.078  0.7096 -0.9698  1.3857
  178SAPS   O2120300   0.278   1.030   3.206  0.5014 -0.1352 -0.2948
  178SAPS   C2120301   0.199   0.929   3.168  0.1486 -0.4066 -0.0083
  178SAPS   O2220302   0.210   0.859   3.072 -0.4017  0.2787 -0.4735
  178SAPS   C2220303   0.067   0.934   3.249 -0.1914 -0.1547  0.0959
  178SAPS   H2R20304   0.061   1.030   3.304  0.7326 -0.2194  0.3380
  178SAPS   H2S20305  -0.024   0.925   3.186 -0.2982 -1.5335  0.4223
  178SAPS    C320306   0.514   1.055   3.259 -0.3806  0.6586  0.1312
  178SAPS    HX20307   0.470   1.128   3.330  0.1434  1.5948 -0.4917
  178SAPS    HY20308   0.607   1.087   3.208 -1.2534  0.2279 -1.8027
  178SAPS   O3120309   0.510   0.925   3.327  0.3096  0.8780 -0.5492
  178SAPS   C3120310   0.580   0.828   3.262  0.0065 -0.7513 -0.4389
  178SAPS   O3220311   0.652   0.848   3.166  0.3652 -0.2654 -0.1780
  178SAPS   C3220312   0.552   0.693   3.334 -0.1096 -0.3596  0.3214
  178SAPS   H2X20313   0.642   0.636   3.303 -1.3098 -2.2609  0.1417
  178SAPS   H2Y20314   0.454   0.648   3.305 -0.5567 -0.3100  1.6949
  178SAPS   C2320315   0.073   0.819   3.354  0.4176 -0.2585 -0.2742
  178SAPS   H3R20316   0.085   0.725   3.296 -1.2953  0.4880 -1.9263
  178SAPS   H3S20317  -0.027   0.810   3.402  0.7177 -0.8953  0.2584
  178SAPS   C2420318   0.174   0.832   3.473 -0.2821 -0.2439  0.5456
  178SAPS   H4R20319   0.167   0.938   3.503 -0.3784 -0.0078 -0.2836
  178SAPS   H4S20320   0.269   0.821   3.416 -0.1171 -0.0498  0.7833
  178SAPS   C2520321   0.174   0.729   3.580  0.6735 -0.6101 -0.2760
  178SAPS   H5R20322   0.181   0.626   3.544 -3.3937 -1.1709  0.0497
  178SAPS   C2620323   0.155   0.758   3.710  0.5337  1.2362  0.3359
  178SAPS   H6R20324   0.173   0.677   3.782  0.1356  1.2062  0.4060
  178SAPS   C2720325   0.122   0.890   3.777  0.6760 -0.6098  0.2513
  178SAPS   H7R20326   0.048   0.882   3.860 -0.1186  1.9547 -0.1148
  178SAPS   H7S20327   0.075   0.952   3.698  2.5762  0.3958 -0.1497
  178SAPS   C2820328   0.240   0.966   3.836  0.4790 -0.2870 -0.5852
  178SAPS   H8R20329   0.312   1.009   3.766  0.1747  0.3096 -0.5455
  178SAPS   C2920330   0.277   0.972   3.967  0.4007  0.2866 -1.0727
  178SAPS   H9R20331   0.356   1.043   3.996  0.6931 -0.6419  0.5026
  178SAPS  C21020332   0.219   0.899   4.092 -0.3920 -0.4171 -0.2549
  178SAPS  H10R20333   0.112   0.925   4.073  0.0967  0.9537 -1.2809
  178SAPS  H10S20334   0.247   0.954   4.184  1.0733 -0.2365 -0.7984
  178SAPS  C21120335   0.245   0.748   4.088  0.8647 -0.3348 -0.7755
  178SAPS  H11R20336   0.239   0.709   3.985 -1.2545  0.4993 -1.0221
  178SAPS  C21220337   0.271   0.666   4.195 -0.4387  0.0259 -0.3806
  178SAPS  H12R20338   0.303   0.566   4.163 -0.1825  0.1019 -0.3661
  178SAPS  C21320339   0.290   0.710   4.334  0.0351 -0.0062 -0.5475
  178SAPS  H13R20340   0.236   0.802   4.365  1.7902  1.2068 -0.9698
  178SAPS  H13S20341   0.396   0.732   4.355 -0.2880 -0.3566  1.6748
  178SAPS  C21420342   0.256   0.586   4.423 -0.1914  0.3809 -0.4145
  178SAPS  H14R20343   0.296   0.488   4.394  0.9914 -0.1831  2.8047
  178SAPS  C21520344   0.210   0.597   4.550 -0.2091 -0.5670  0.6071
  178SAPS  H15R20345   0.183   0.507   4.607 -0.6890 -0.3190  0.7788
  178SAPS  C21620346   0.175   0.726   4.617 -0.2283 -0.6807 -0.2810
  178SAPS  H16R20347   0.096   0.776   4.558 -2.0042 -1.6413  1.1978
  178SAPS  H16S20348   0.259   0.799   4.606 -0.9002  0.3467  1.0893
  178SAPS  C21720349   0.127   0.722   4.761  0.6763  1.0192 -0.1428
  178SAPS  H17R20350   0.127   0.827   4.796 -0.9146  0.8903  0.3208
  178SAPS  H17S20351   0.197   0.671   4.830  0.1062  0.5671  0.1139
  178SAPS  C21820352  -0.012   0.667   4.783  0.5827  0.6305  0.1209
  178SAPS  H18R20353  -0.039   0.632   4.885 -3.9536 -0.4589 -1.2470
  178SAPS  H18S20354  -0.032   0.574   4.726  1.0727 -1.1855  2.7310
  178SAPS  C21920355  -0.125   0.767   4.748 -0.4580 -0.0854  0.2416
  178SAPS  H19R20356  -0.095   0.820   4.655  1.2874  0.4331  1.0706
  178SAPS  H19S20357  -0.129   0.849   4.823  1.0122  0.2613 -0.0320
  178SAPS  C22020358  -0.268   0.707   4.749  0.1637  0.6524  0.2287
  178SAPS  H20R20359  -0.342   0.781   4.712  0.1091  0.6595  0.3520
  178SAPS  H20S20360  -0.299   0.690   4.854 -3.3022 -1.0077 -0.9167
  178SAPS  H20T20361  -0.275   0.613   4.690 -0.3015  0.6803  0.2341
  178SAPS   C3320362   0.554   0.701   3.485 -0.3055 -0.1098  0.2805
  178SAPS   H3X20363   0.478   0.777   3.514 -1.0972 -0.9554  0.4751
  178SAPS   H3Y20364   0.645   0.755   3.519 -0.6075  1.4039 -1.1747
  178SAPS   C3420365   0.532   0.569   3.556 -0.0077 -0.1776 -0.7919
  178SAPS   H4X20366   0.577   0.482   3.504  0.9457 -0.4538  0.4496
  178SAPS   H4Y20367   0.424   0.543   3.561 -0.1860  0.5586 -0.6983
  178SAPS   C3520368   0.581   0.576   3.701 -0.2823  0.3577 -0.1415
  178SAPS   H5X20369   0.531   0.660   3.755 -0.5635  1.4398 -1.9976
  178SAPS   H5Y20370   0.691   0.579   3.689 -0.0335 -1.9352  0.9784
  178SAPS   C3620371   0.549   0.439   3.766 -0.7589  0.1630 -0.1018
  178SAPS   H6X20372   0.580   0.366   3.688  0.8967  2.4878 -1.7370
  178SAPS   H6Y20373   0.440   0.437   3.787 -0.4926  0.6501  1.4995
  178SAPS   C3720374   0.631   0.406   3.890  0.4039 -0.2112 -0.1208
  178SAPS   H7X20375   0.740   0.390   3.882  0.3467 -0.6399 -0.0742
  178SAPS   H7Y20376   0.585   0.311   3.925 -3.7353  0.8307 -2.0274
  178SAPS   C3820377   0.613   0.505   4.008  0.2740 -0.0289  0.0904
  178SAPS   H8X20378   0.515   0.552   4.029  0.1694 -0.8081  1.5119
  178SAPS   H8Y20379   0.679   0.591   3.985 -1.3355  1.4251  0.7662
  178SAPS   C3920380   0.655   0.428   4.140  0.1036  0.5950  0.3810
  178SAPS   H9X20381   0.761   0.397   4.126 -0.3644 -1.4371  0.8865
  178SAPS   H9Y20382   0.601   0.331   4.136  0.2489  0.4920  0.8264
  178SAPS  C31020383   0.626   0.511   4.263  0.1244 -0.3601 -0.8423
  178SAPS  H10X20384   0.520   0.543   4.268  0.7622  1.6813  1.4231
  178SAPS  H10Y20385   0.691   0.601   4.255  0.4716 -0.4280  0.9246
  178SAPS  C31120386   0.639   0.436   4.396 -0.0964  1.1393 -0.1808
  178SAPS  H11X20387   0.737   0.386   4.403 -0.7386 -0.8000 -3.3098
  178SAPS  H11Y20388   0.561   0.359   4.377  0.2146  0.4211  1.3254
  178SAPS  C31220389   0.600   0.513   4.527 -0.0893  0.1036 -0.4199
  178SAPS  H12X20390   0.497   0.552   4.514  0.3611  1.1628 -0.8894
  178SAPS  H12Y20391   0.653   0.610   4.532  1.9466 -0.7946 -2.6189
  178SAPS  C31320392   0.611   0.426   4.657  0.2180  0.2959 -0.3800
  178SAPS  H13X20393   0.539   0.342   4.648  0.1014  0.4502 -0.9123
  178SAPS  H13Y20394   0.569   0.489   4.739  2.0544 -1.6901  2.2701
  178SAPS  C31420395   0.746   0.367   4.689  0.0552 -0.4656 -0.2579
  178SAPS  H14X20396   0.817   0.450   4.711 -1.7137  0.2459  3.6201
  178SAPS  H14Y20397   0.776   0.308   4.599  0.1754 -1.8076  0.6357
  178SAPS  C31520398   0.751   0.274   4.815  0.2184  0.3859  0.2712
  178SAPS  H15X20399   0.848   0.221   4.806 -0.7802 -1.1604 -2.1841
  178SAPS  H15Y20400   0.666   0.206   4.795 -1.3163  2.1199  0.5657
  178SAPS  C31620401   0.736   0.330   4.951 -0.7117  0.3470  0.1116
  178SAPS  H16X20402   0.732   0.253   5.031 -0.5212  0.4399  0.2110
  178SAPS  H16Y20403   0.639   0.383   4.951 -1.3161 -0.6933 -1.1173
  178SAPS  C31720404   0.852   0.421   5.001  0.7119 -0.5513  1.1791
  178SAPS  H17X20405   0.830   0.464   5.101 -0.7358  0.2425  0.5400
  178SAPS  H17Y20406   0.856   0.505   4.929 -1.3414 -2.1146 -0.8925
  178SAPS  C31820407   0.980   0.342   5.008  0.3789  0.2758  0.0190
  178SAPS  H18X20408   0.969   0.240   5.049 -1.1077 -0.3162 -1.7040
  178SAPS  H18Y20409   1.053   0.389   5.077 -0.3761  1.5964 -0.0373
  178SAPS  H18Z20410   1.025   0.330   4.907  1.7616 -1.0402  0.7478
  179SAPS     N20411   3.914   3.436   3.009 -0.1746 -0.2697  0.1299
  179SAPS   HN120412   3.906   3.333   3.020 -0.1307 -0.3889 -0.8761
  179SAPS   HN220413   4.013   3.465   3.024  0.9274 -3.1589 -0.9469
  179SAPS   HN320414   3.853   3.472   3.086  0.3214  0.1073  0.3550
  179SAPS   C1220415   3.854   3.475   2.883 -0.0971 -0.0543 -0.4552
  179SAPS  H12A20416   3.784   3.554   2.904 -1.8323 -1.0206 -2.1883
  179SAPS   C1320417   3.968   3.523   2.784 -0.0707  0.3146 -0.4929
  179SAPS  O13A20418   4.086   3.479   2.805 -0.1784  0.5762  0.4295
  179SAPS  O13B20419   3.937   3.566   2.669  0.3802  0.0313  0.0181
  179SAPS   C1120420   3.777   3.350   2.821 -0.3125 -0.0291  0.5775
  179SAPS  H11A20421   3.836   3.255   2.820 -0.0615  0.1176 -1.4378
  179SAPS  H11B20422   3.755   3.382   2.717  0.9032 -2.2090 -0.4163
  179SAPS     P20423   3.517   3.382   2.856 -0.0640  0.0305 -0.2903
  179SAPS   O1320424   3.488   3.523   2.898 -0.2672  0.1416 -0.6701
  179SAPS   O1420425   3.505   3.357   2.712 -0.2835  0.2266 -0.6751
  179SAPS   O1220426   3.663   3.342   2.902 -0.8907  0.0552  0.1738
  179SAPS   O1120427   3.431   3.277   2.937  0.5505  0.3827  0.2839
  179SAPS    C120428   3.438   3.273   3.074 -0.3709  0.6320 -0.5085
  179SAPS    HA20429   3.404   3.172   3.105 -1.4567  0.8611 -0.9109
  179SAPS    HB20430   3.542   3.280   3.114  0.8557 -0.1909 -3.2683
  179SAPS    C220431   3.330   3.369   3.137 -0.3271  0.3191 -1.0824
  179SAPS    HS20432   3.349   3.478   3.129 -1.3175  0.6446  0.5934
  179SAPS   O2120433   3.310   3.334   3.273 -0.0454 -0.1986 -0.0214
  179SAPS   C2120434   3.402   3.370   3.354 -0.4093 -0.2422  0.1423
  179SAPS   O2220435   3.503   3.440   3.327  0.4531 -0.5146  0.1560
  179SAPS   C2220436   3.366   3.308   3.487 -0.0041 -0.9700 -0.6044
  179SAPS   H2R20437   3.284   3.367   3.533  1.1281  1.7642 -1.8574
  179SAPS   H2S20438   3.338   3.203   3.467 -0.9052 -1.0013  0.7302
  179SAPS    C320439   3.190   3.345   3.064 -0.3098  0.3002  0.0136
  179SAPS    HX20440   3.180   3.235   3.061  2.4073 -0.0117 -0.2591
  179SAPS    HY20441   3.205   3.385   2.961  1.4498 -1.9947 -0.6954
  179SAPS   O3120442   3.084   3.410   3.137  0.7686  0.0615 -1.0603
  179SAPS   C3120443   2.963   3.391   3.082  0.2355  0.3983 -0.1538
  179SAPS   O3220444   2.945   3.314   2.980 -0.1161  0.1443 -0.4560
  179SAPS   C3220445   2.863   3.478   3.147 -0.7190  0.3777 -0.3654
  179SAPS   H2X20446   2.767   3.421   3.142  0.9015 -2.7690  1.4977
  179SAPS   H2Y20447   2.875   3.578   3.100 -0.2659  0.9027  0.8183
  179SAPS   C2320448   3.497   3.318   3.579 -0.0769 -0.3946 -0.3756
  179SAPS   H3R20449   3.577   3.264   3.525 -1.5662 -1.1493 -1.9373
  179SAPS   H3S20450   3.456   3.255   3.661 -0.0259  0.1193  0.0552
  179SAPS   C2420451   3.525   3.454   3.648 -0.6687  0.3721  0.2096
  179SAPS   H4R20452   3.463   3.469   3.739  0.6774  3.2591  0.7648
  179SAPS   H4S20453   3.487   3.536   3.583 -0.8787  0.0493 -0.0782
  179SAPS   C2520454   3.677   3.467   3.678  0.1701  0.3087 -0.2145
  179SAPS   H5R20455   3.738   3.444   3.590  0.3580  0.4686 -0.1259
  179SAPS   C2620456   3.736   3.467   3.799 -0.4282  0.2247 -0.0605
  179SAPS   H6R20457   3.844   3.488   3.804 -0.4842  0.2156  3.2099
  179SAPS   C2720458   3.674   3.483   3.935  0.2217  0.4654 -0.7291
  179SAPS   H7R20459   3.574   3.531   3.930 -0.1912  0.0203  1.8190
  179SAPS   H7S20460   3.731   3.559   3.993 -1.5290 -0.3219  2.2312
  179SAPS   C2820461   3.658   3.356   4.018  0.4136 -0.0769  0.4168
  179SAPS   H8R20462   3.687   3.268   3.958  1.0464  1.4716 -1.7103
  179SAPS   C2920463   3.608   3.335   4.139 -0.2238 -0.2746  0.3345
  179SAPS   H9R20464   3.613   3.234   4.183 -0.7354 -1.1284 -1.4538
  179SAPS  C21020465   3.550   3.448   4.226  0.0867 -0.4747 -0.3073
  179SAPS  H10R20466   3.485   3.518   4.170 -1.6990  0.3515  2.5623
  179SAPS  H10S20467   3.639   3.503   4.265 -1.1757  0.6945  1.0355
  179SAPS  C21120468   3.462   3.395   4.337  0.1150  0.7059 -0.5746
  179SAPS  H11R20469   3.400   3.305   4.326  1.9719 -0.7751  0.5347
  179SAPS  C21220470   3.452   3.459   4.458 -0.0510  0.3477 -0.7819
  179SAPS  H12R20471   3.379   3.419   4.531  1.6871  0.7841  1.2903
  179SAPS  C21320472   3.504   3.594   4.499 -0.0464 -0.4310 -0.1963
  179SAPS  H13R20473   3.438   3.666   4.447 -0.3548  0.3506  1.2164
  179SAPS  H13S20474   3.605   3.604   4.453  0.2112 -0.2281  0.4078
  179SAPS  C21420475   3.516   3.630   4.643 -0.8086 -0.0944  0.2496
  179SAPS  H14R20476   3.457   3.718   4.674  0.0248  0.0947  1.3647
  179SAPS  C21520477   3.599   3.566   4.722 -0.5388  0.4530 -0.9528
  179SAPS  H15R20478   3.598   3.605   4.825 -0.7033  1.7129 -1.4101
  179SAPS  C21620479   3.690   3.458   4.684  0.0684 -0.3986 -0.5802
  179SAPS  H16R20480   3.688   3.438   4.575  2.1511 -2.4242 -0.2967
  179SAPS  H16S20481   3.660   3.359   4.725  0.7243 -0.6753 -0.7621
  179SAPS  C21720482   3.835   3.487   4.725  0.5688 -0.2983  0.3050
  179SAPS  H17R20483   3.838   3.536   4.824 -1.2092 -0.7159  0.5970
  179SAPS  H17S20484   3.876   3.562   4.654 -0.1998 -0.7150 -0.6013
  179SAPS  C21820485   3.921   3.357   4.709  0.3993 -0.2953 -0.1289
  179SAPS  H18R20486   3.874   3.277   4.771  0.8551  0.3916  1.1417
  179SAPS  H18S20487   4.025   3.367   4.747  0.4248  0.9783 -0.4906
  179SAPS  C21920488   3.926   3.303   4.568 -0.2392  0.1521  0.1508
  179SAPS  H19R20489   3.987   3.384   4.522 -0.7065  1.0701  1.1212
  179SAPS  H19S20490   3.822   3.297   4.528 -0.9676  0.7936  1.8894
  179SAPS  C22020491   4.012   3.175   4.543 -0.0413 -0.4347  0.0705
  179SAPS  H20R20492   4.113   3.213   4.572  0.4863 -1.7829  0.0654
  179SAPS  H20S20493   4.013   3.123   4.445  0.8315 -1.6616  0.7034
  179SAPS  H20T20494   3.985   3.089   4.608  0.0532 -1.1393 -0.8081
  179SAPS   C3320495   2.890   3.515   3.300 -0.2880 -0.4956 -0.5300
  179SAPS   H3X20496   2.819   3.592   3.338 -0.0307  0.2639 -1.5737
  179SAPS   H3Y20497   2.990   3.561   3.292 -1.3162  1.6437 -2.4440
  179SAPS   C3420498   2.883   3.395   3.397 -0.2629 -0.6814  0.2683
  179SAPS   H4X20499   2.933   3.307   3.351  1.6224  0.7962 -0.6515
  179SAPS   H4Y20500   2.782   3.357   3.421 -0.2615  0.5040  2.3754
  179SAPS   C3520501   2.966   3.421   3.520 -0.7561 -0.0248  0.1393
  179SAPS   H5X20502   2.927   3.510   3.575 -0.8127 -0.1496  0.3041
  179SAPS   H5Y20503   3.068   3.449   3.487 -1.6638 -1.0599 -4.2388
  179SAPS   C3620504   2.956   3.294   3.615 -0.1698  0.5726  1.4980
  179SAPS   H6X20505   2.985   3.202   3.559 -0.0140  1.9066 -0.7228
  179SAPS   H6Y20506   2.846   3.287   3.625 -0.4554 -0.2370 -1.2962
  179SAPS   C3720507   3.015   3.303   3.755 -0.7190  0.7467  0.2138
  179SAPS   H7X20508   3.122   3.277   3.747 -1.0741 -0.9275  0.5714
  179SAPS   H7Y20509   2.981   3.217   3.816  3.2464  0.7007  2.7147
  179SAPS   C3820510   2.989   3.427   3.835  0.2426  0.1640  0.8133
  179SAPS   H8X20511   2.881   3.453   3.840 -0.5612 -2.7579  0.4703
  179SAPS   H8Y20512   3.035   3.515   3.786 -0.9862 -0.3870 -1.4763
  179SAPS   C3920513   3.062   3.415   3.972  0.1523  0.0555  0.1012
  179SAPS   H9X20514   3.154   3.475   3.989 -2.0961  2.7025  5.1382
  179SAPS   H9Y20515   3.096   3.310   3.985  0.7091 -0.1196 -2.2830
  179SAPS  C31020516   2.966   3.462   4.080 -0.0038 -0.8469  0.1016
  179SAPS  H10X20517   2.879   3.393   4.083  0.2893 -1.3718 -2.0924
  179SAPS  H10Y20518   2.941   3.570   4.068  0.1966 -0.6259  1.4253
  179SAPS  C31120519   3.038   3.454   4.218  0.1459 -0.4692  0.5122
  179SAPS  H11X20520   3.144   3.487   4.209 -0.0424  0.1635  0.5621
  179SAPS  H11Y20521   3.044   3.348   4.252  0.5060 -0.4118  0.6363
  179SAPS  C31220522   2.979   3.539   4.330  0.6136 -0.7884 -1.3170
  179SAPS  H12X20523   2.870   3.522   4.345  0.4380  1.5904  0.9607
  179SAPS  H12Y20524   2.978   3.650   4.316  0.3633 -0.1520  2.5362
  179SAPS  C31320525   3.048   3.505   4.466 -0.1797 -0.1723  0.1493
  179SAPS  H13X20526   3.060   3.599   4.524 -0.3583  0.3162 -0.5914
  179SAPS  H13Y20527   3.149   3.475   4.431 -1.0172 -0.7131 -1.9533
  179SAPS  C31420528   2.981   3.393   4.548 -0.1766  0.1455  0.4170
  179SAPS  H14X20529   2.979   3.303   4.482  1.7963 -0.4005  1.0323
  179SAPS  H14Y20530   2.878   3.424   4.572  0.3839  0.3956  2.7660
  179SAPS  C31520531   3.049   3.342   4.674  0.1087  0.5860  0.8282
  179SAPS  H15X20532   3.070   3.432   4.737  2.4159  1.6130 -1.2294
  179SAPS  H15Y20533   3.139   3.284   4.645 -1.7036 -0.5049 -3.4052
  179SAPS  C31620534   2.959   3.248   4.751 -0.0126 -0.1561 -1.0202
  179SAPS  H16X20535   2.914   3.169   4.688  0.7260 -1.6831  0.3129
  179SAPS  H16Y20536   2.875   3.309   4.790  0.2795  0.0087 -0.6445
  179SAPS  C31720537   3.024   3.175   4.868  0.2553  0.2001  0.6440
  179SAPS  H17X20538   3.057   3.233   4.957  2.9469 -1.4363  0.8213
  179SAPS  H17Y20539   3.124   3.139   4.836 -0.0724  0.3296 -0.5469
  179SAPS  C31820540   2.945   3.051   4.915 -0.0145 -0.3678 -0.2144
  179SAPS  H18X20541   2.944   2.983   4.827  1.1825  0.0830 -0.5920
  179SAPS  H18Y20542   2.841   3.074   4.946 -0.7781 -0.5234 -2.4520
  179SAPS  H18Z20543   3.002   2.994   4.991  0.1776 -1.7120 -1.3111
  180SAPS     N20544   1.732   1.878   2.862 -0.3806 -0.4793  0.0308
  180SAPS   HN120545   1.656   1.810   2.843 -2.4788  1.4493  1.0546
  180SAPS   HN220546   1.774   1.862   2.955  0.7786  0.5915 -0.2868
  180SAPS   HN320547   1.684   1.970   2.864  0.4423 -0.0314 -0.3057
  180SAPS   C1220548   1.837   1.893   2.763  0.1312  0.4493  0.5917
  180SAPS  H12A20549   1.906   1.810   2.777 -0.1164  0.1918  0.2971
  180SAPS   C1320550   1.801   1.891   2.615  0.0686 -0.4498  0.8341
  180SAPS  O13A20551   1.676   1.883   2.583 -0.4009 -0.2451 -0.2987
  180SAPS  O13B20552   1.894   1.878   2.529  0.3014 -0.4310 -0.2198
  180SAPS   C1120553   1.922   2.017   2.797  0.0613 -0.4617  0.7962
  180SAPS  H11A20554   1.852   2.102   2.789 -0.1581 -0.7755 -1.4288
  180SAPS  H11B20555   2.006   2.026   2.724 -0.5105 -1.6540 -0.0337
  180SAPS     P20556   2.077   2.127   2.970  0.2384  0.3793  0.5629
  180SAPS   O1320557   2.205   2.059   2.986  0.1031  0.3140  0.1625
  180SAPS   O1420558   2.076   2.243   2.881  0.2824  0.4061 -0.4449
  180SAPS   O1220559   1.976   2.009   2.927  0.2156  0.2399  0.2637
  180SAPS   O1120560   2.021   2.181   3.108  0.3158  0.1325  0.3885
  180SAPS    C120561   1.884   2.185   3.143  0.3975 -0.3202 -0.3217
  180SAPS    HA20562   1.829   2.241   3.064 -0.8009  0.7544  1.2159
  180SAPS    HB20563   1.849   2.081   3.161 -0.0834 -0.1065 -0.0007
  180SAPS    C220564   1.859   2.274   3.280  0.0228  0.5381  0.2255
  180SAPS    HS20565   1.895   2.376   3.256  0.7765  0.2080 -0.0705
  180SAPS   O2120566   1.917   2.210   3.389 -0.1965 -0.3369 -0.0392
  180SAPS   C2120567   1.936   2.296   3.490 -0.7888 -0.9893  0.9814
  180SAPS   O2220568   1.911   2.415   3.484  0.5225  0.5050  0.0305
  180SAPS   C2220569   1.987   2.226   3.616  0.1802 -0.8772 -0.2101
  180SAPS   H2R20570   1.913   2.239   3.698 -2.1108 -0.5278 -2.2246
  180SAPS   H2S20571   1.985   2.117   3.598  1.9921 -0.9075 -0.4508
  180SAPS    C320572   1.705   2.293   3.288 -0.5245 -0.3281 -0.1661
  180SAPS    HX20573   1.651   2.325   3.197  0.0779 -1.6050 -1.0086
  180SAPS    HY20574   1.703   2.370   3.368  0.4957 -0.4552 -0.0014
  180SAPS   O3120575   1.642   2.176   3.345  0.0341  0.5393 -0.2485
  180SAPS   C3120576   1.580   2.095   3.264  0.3326  0.4575  0.1347
  180SAPS   O3220577   1.577   2.117   3.142 -0.1672  0.8058 -0.2720
  180SAPS   C3220578   1.520   1.972   3.327 -0.3404 -0.1991 -0.8807
  180SAPS   H2X20579   1.592   1.896   3.365 -0.6338  0.9500  2.3264
  180SAPS   H2Y20580   1.465   1.918   3.247 -0.2177 -1.8329  0.0831
  180SAPS   C2320581   2.121   2.279   3.657 -0.0748 -0.5500 -0.6769
  180SAPS   H3R20582   2.116   2.389   3.671  0.2870 -0.5278 -0.7083
  180SAPS   H3S20583   2.193   2.249   3.578 -0.2780 -1.0024 -0.6888
  180SAPS   C2420584   2.181   2.227   3.790 -0.2069 -0.2817 -0.5428
  180SAPS   H4R20585   2.291   2.215   3.779 -0.2451 -1.8515  0.4430
  180SAPS   H4S20586   2.142   2.122   3.788 -1.3386  0.1274 -0.8476
  180SAPS   C2520587   2.120   2.283   3.917  0.0569  0.3820 -0.4313
  180SAPS   H5R20588   2.010   2.291   3.908 -0.4222  1.0502  3.8530
  180SAPS   C2620589   2.177   2.309   4.041  0.0240 -0.5693  0.1599
  180SAPS   H6R20590   2.119   2.343   4.128 -1.8653  0.4396 -1.3998
  180SAPS   C2720591   2.324   2.292   4.075  0.4417 -0.0592 -0.4093
  180SAPS   H7R20592   2.355   2.389   4.118 -0.8539 -0.0867  0.6599
  180SAPS   H7S20593   2.384   2.271   3.984  0.6583 -0.6508 -0.1397
  180SAPS   C2820594   2.349   2.168   4.154  0.4319  0.1837 -0.0748
  180SAPS   H8R20595   2.335   2.077   4.095 -0.9654 -1.7953  3.0524
  180SAPS   C2920596   2.391   2.156   4.283  0.5692  1.0506  0.7592
  180SAPS   H9R20597   2.409   2.053   4.318  2.2052  1.3687  0.9160
  180SAPS  C21020598   2.411   2.272   4.377  0.0014 -0.0245 -0.7168
  180SAPS  H10R20599   2.453   2.349   4.309  0.5339  0.0082 -0.3508
  180SAPS  H10S20600   2.494   2.248   4.447  0.2356  0.1492 -0.9311
  180SAPS  C21120601   2.284   2.322   4.443 -0.2238 -0.0068  0.2169
  180SAPS  H11R20602   2.194   2.308   4.380  0.2695 -0.6260 -0.3614
  180SAPS  C21220603   2.268   2.364   4.568  0.3752 -0.3388 -0.6642
  180SAPS  H12R20604   2.170   2.403   4.600 -0.1252 -0.7820 -1.6328
  180SAPS  C21320605   2.384   2.383   4.672  0.3451 -0.4031 -0.3930
  180SAPS  H13R20606   2.391   2.489   4.704 -0.8649 -0.7842  1.2157
  180SAPS  H13S20607   2.480   2.373   4.616  0.4255 -0.1187 -0.3053
  180SAPS  C21420608   2.392   2.278   4.779  0.2767  0.4933 -0.1937
  180SAPS  H14R20609   2.452   2.189   4.760  0.1526  0.4712 -0.4871
  180SAPS  C21520610   2.330   2.280   4.898 -0.1069  0.5469  0.6670
  180SAPS  H15R20611   2.337   2.189   4.959  1.3986 -0.9867 -1.6376
  180SAPS  C21620612   2.239   2.398   4.946  0.2455 -0.5807  0.2681
  180SAPS  H16R20613   2.134   2.363   4.944 -0.5094  1.5001  0.8620
  180SAPS  H16S20614   2.228   2.488   4.882 -1.3882  0.7453  2.3037
  180SAPS  C21720615   2.264   2.457   5.082 -0.9628 -0.5505  0.4160
  180SAPS  H17R20616   2.192   2.539   5.105 -1.1706 -0.0285 -1.8682
  180SAPS  H17S20617   2.360   2.512   5.075 -2.8289  2.7455 -3.4474
  180SAPS  C21820618   2.273   2.352   5.196  0.4721  0.2505 -0.1134
  180SAPS  H18R20619   2.355   2.279   5.181 -0.0478 -0.8420  2.0132
  180SAPS  H18S20620   2.174   2.302   5.195  0.4106  0.3223  0.9772
  180SAPS  C21920621   2.299   2.399   5.344  0.4172  0.0307  0.3648
  180SAPS  H19R20622   2.210   2.460   5.373  0.2842 -0.1932  0.4278
  180SAPS  H19S20623   2.384   2.470   5.341  0.9316 -0.6145 -0.5436
  180SAPS  C22020624   2.334   2.285   5.444 -0.0465 -0.5006  0.1218
  180SAPS  H20R20625   2.356   2.340   5.538 -1.2083 -0.1738  0.2108
  180SAPS  H20S20626   2.247   2.216   5.450 -1.2752  1.0672  1.1677
  180SAPS  H20T20627   2.430   2.243   5.407  0.1471  0.4417 -0.4767
  180SAPS   C3320628   1.405   1.992   3.434  0.2752  0.5251  0.0114
  180SAPS   H3X20629   1.336   1.905   3.430  1.6303 -0.5516 -2.2368
  180SAPS   H3Y20630   1.344   2.081   3.411  0.6384  0.0039 -3.3802
  180SAPS   C3420631   1.469   2.006   3.574  0.0224  0.1177  0.3924
  180SAPS   H4X20632   1.536   2.094   3.584  0.6093 -0.1382 -0.9689
  180SAPS   H4Y20633   1.538   1.921   3.593  0.3659  0.7130  1.9468
  180SAPS   C3520634   1.365   1.995   3.688 -0.3959  0.1334 -0.6320
  180SAPS   H5X20635   1.318   1.895   3.675  1.2353 -0.5781 -1.2668
  180SAPS   H5Y20636   1.294   2.080   3.671  3.5693  3.5205 -1.9455
  180SAPS   C3620637   1.428   2.004   3.817 -0.0395 -0.2358 -1.1457
  180SAPS   H6X20638   1.506   2.083   3.820  1.0547 -1.3233  0.6285
  180SAPS   H6Y20639   1.479   1.908   3.843 -1.2551 -0.5634  0.1737
  180SAPS   C3720640   1.341   2.039   3.941  0.8259 -0.6704 -0.2439
  180SAPS   H7X20641   1.272   2.125   3.930 -0.3787 -1.5683  0.0917
  180SAPS   H7Y20642   1.419   2.058   4.018  1.6663 -2.9185 -0.4816
  180SAPS   C3820643   1.259   1.919   4.005  0.0590  0.6608 -0.5292
  180SAPS   H8X20644   1.316   1.825   3.988 -0.0462  0.6473 -0.8101
  180SAPS   H8Y20645   1.163   1.909   3.951  0.6925 -0.2130 -1.5312
  180SAPS   C3920646   1.252   1.931   4.158 -0.0646 -0.4142 -0.3398
  180SAPS   H9X20647   1.216   2.034   4.177  1.4578 -0.0537  0.8104
  180SAPS   H9Y20648   1.356   1.923   4.195 -0.9182 -1.9535  1.9493
  180SAPS  C31020649   1.170   1.813   4.226 -0.2639 -0.2000 -0.2673
  180SAPS  H10X20650   1.227   1.718   4.215  0.7994  0.4726 -0.7078
  180SAPS  H10Y20651   1.073   1.790   4.176  0.2036 -1.0691 -0.8049
  180SAPS  C31120652   1.145   1.827   4.378  0.2629  0.5160 -0.8263
  180SAPS  H11X20653   1.056   1.764   4.399 -0.6241  2.3371  1.2210
  180SAPS  H11Y20654   1.127   1.932   4.407 -2.7450 -0.0401 -0.3110
  180SAPS  C31220655   1.265   1.768   4.453 -0.3635  0.2483 -0.0975
  180SAPS  H12X20656   1.358   1.825   4.431  0.3434 -0.7832  0.1262
  180SAPS  H12Y20657   1.277   1.664   4.417 -0.8394  0.4399 -0.8336
  180SAPS  C31320658   1.250   1.779   4.609  0.0573  0.3264  0.2586
  180SAPS  H13X20659   1.206   1.874   4.646 -0.5342 -0.4536  1.6512
  180SAPS  H13Y20660   1.346   1.781   4.665 -0.9993 -3.3436  2.5625
  180SAPS  C31420661   1.158   1.668   4.677  0.3748 -0.0865  0.3193
  180SAPS  H14X20662   1.204   1.570   4.649  4.1404  1.7908 -0.7555
  180SAPS  H14Y20663   1.054   1.675   4.641  0.5189 -1.7943 -0.5375
  180SAPS  C31520664   1.143   1.685   4.822  0.3780 -0.1674  0.2123
  180SAPS  H15X20665   1.125   1.794   4.831  0.6348 -0.1508  0.5256
  180SAPS  H15Y20666   1.239   1.658   4.872  0.0315  0.0201  0.9891
  180SAPS  C31620667   1.022   1.605   4.888  0.3091  1.1123 -0.0187
  180SAPS  H16X20668   1.041   1.498   4.863 -2.5228  0.7499 -0.9801
  180SAPS  H16Y20669   0.926   1.637   4.843 -1.1436 -1.4555  1.0441
  180SAPS  C31720670   1.014   1.625   5.038  0.0625 -0.0624  0.0939
  180SAPS  H17X20671   0.942   1.552   5.081 -0.4701 -0.3380 -1.2158
  180SAPS  H17Y20672   0.979   1.729   5.054  2.3248  1.1187 -1.9894
  180SAPS  C31820673   1.146   1.616   5.118 -0.0425 -0.5364 -0.1348
  180SAPS  H18X20674   1.125   1.628   5.226 -0.0181 -0.4589 -0.1384
  180SAPS  H18Y20675   1.223   1.694   5.098 -1.1119  0.5357 -0.2163
  180SAPS  H18Z20676   1.200   1.520   5.115  3.2461  1.1763 -0.5934
  181POPC     N20677   2.646   5.390   7.905  0.4519 -0.1489  0.8031
  181POPC   C1220678   2.613   5.535   7.920  0.2549  0.0254 -0.1404
  181POPC  H12A20679   2.692   5.581   7.977 -1.6718  1.3786  1.5676
  181POPC  H12B20680   2.523   5.539   7.979 -0.2359 -1.1654 -0.7774
  181POPC   C1320681   2.646   5.312   8.032  0.4251  0.1176 -1.0789
  181POPC  H13A20682   2.673   5.208   8.016  1.5336  0.4413 -1.4184
  181POPC  H13B20683   2.714   5.345   8.109 -1.7251 -1.2288  1.5751
  181POPC  H13C20684   2.550   5.314   8.081  2.1055 -2.5144  2.8012
  181POPC   C1420685   2.541   5.323   7.825 -0.1986  0.3523 -0.3326
  181POPC  H14A20686   2.553   5.217   7.807 -0.0250  0.3686 -0.3251
  181POPC  H14B20687   2.447   5.330   7.877 -0.3370  0.0567 -0.5408
  181POPC  H14C20688   2.544   5.365   7.726  1.3037  1.6095  0.1994
  181POPC   C1520689   2.777   5.373   7.836 -0.2811 -0.0259  0.4212
  181POPC  H15A20690   2.795   5.416   7.739  0.7620  0.1520  0.6816
  181POPC  H15B20691   2.805   5.270   7.820  2.4041  0.8123 -0.8470
  181POPC  H15C20692   2.857   5.412   7.898 -0.6541  1.0674  0.2304
  181POPC   C1120693   2.604   5.627   7.792 -0.2871  0.1991  0.6768
  181POPC  H11A20694   2.567   5.725   7.827  2.2550  0.4924  2.8849
  181POPC  H11B20695   2.534   5.581   7.718  0.7107 -1.2014  0.5683
  181POPC     P20696   2.785   5.734   7.624  0.5574  0.2957 -0.1999
  181POPC   O1320697   2.910   5.680   7.565 -1.0293 -0.0315  0.0484
  181POPC   O1420698   2.795   5.865   7.692  0.2342 -0.4349  0.6285
  181POPC   O1220699   2.730   5.637   7.727 -0.6116  0.0944  1.0104
  181POPC   O1120700   2.677   5.742   7.516 -0.6357 -0.1071  0.4248
  181POPC    C120701   2.668   5.629   7.423 -0.1340 -0.5609 -1.0193
  181POPC    HA20702   2.559   5.607   7.419 -0.0878 -1.0886  0.1586
  181POPC    HB20703   2.721   5.538   7.460 -0.3283 -1.0128 -1.8352
  181POPC    C220704   2.709   5.666   7.285  0.2395 -0.4541  0.0925
  181POPC    HS20705   2.819   5.648   7.281  0.1315 -1.3130  0.7961
  181POPC   O2120706   2.662   5.799   7.257 -0.6285 -0.2444  0.8533
  181POPC   C2120707   2.766   5.888   7.249  0.1264  0.8608 -0.4333
  181POPC   O2220708   2.883   5.852   7.235 -0.0171 -0.0639 -0.2151
  181POPC   C2220709   2.721   6.028   7.257 -0.1795 -0.1370 -0.2813
  181POPC   H2R20710   2.806   6.085   7.300  0.8410 -0.6834 -1.5539
  181POPC   H2S20711   2.647   6.034   7.340  1.4238 -0.0536  1.1862
  181POPC    C320712   2.642   5.579   7.178  0.2578  0.1497 -0.9371
  181POPC    HX20713   2.535   5.605   7.165 -0.3759 -1.8945 -0.2592
  181POPC    HY20714   2.641   5.476   7.220  3.1857  1.3927  2.6734
  181POPC   O3120715   2.706   5.579   7.052 -0.4235 -0.2280 -0.1731
  181POPC   C3120716   2.819   5.507   7.050 -0.5138 -0.9441  0.2772
  181POPC   O3220717   2.861   5.442   7.140 -0.1146  0.0398  0.2097
  181POPC   C3220718   2.897   5.538   6.923 -1.4152 -0.0247  0.4024
  181POPC   H2X20719   2.829   5.513   6.839 -2.0280 -2.3915  1.5124
  181POPC   H2Y20720   2.981   5.467   6.935  1.4446  3.4826  3.7650
  181POPC   C2320721   2.666   6.072   7.122 -0.5186  0.6579  0.0512
  181POPC   H3R20722   2.636   6.178   7.136 -0.1010  1.4166 -3.7416
  181POPC   H3S20723   2.583   6.010   7.082 -2.8932  3.5198  0.1812
  181POPC   C2420724   2.760   6.083   7.004  0.2325  0.2352 -0.2964
  181POPC   H4R20725   2.814   5.989   6.980 -0.5946 -0.5851  0.9291
  181POPC   H4S20726   2.842   6.151   7.036  0.6192 -0.9840  1.4550
  181POPC   C2520727   2.688   6.144   6.880  0.7689  0.2143 -0.1687
  181POPC   H5R20728   2.667   6.246   6.920  0.0966  0.2791 -0.6714
  181POPC   H5S20729   2.595   6.089   6.852 -0.1206  1.6595 -0.1415
  181POPC   C2620730   2.792   6.162   6.770  0.3893  0.1229 -0.2889
  181POPC   H6R20731   2.805   6.070   6.709 -0.3503  0.2544 -0.6542
  181POPC   H6S20732   2.893   6.188   6.809  0.4275 -2.2767  1.4240
  181POPC   C2720733   2.755   6.273   6.666 -0.4786 -0.5831 -0.6728
  181POPC   H7R20734   2.753   6.368   6.723 -0.5329 -0.1106 -1.4490
  181POPC   H7S20735   2.653   6.251   6.629 -0.7724 -1.5875  0.6691
  181POPC   C2820736   2.852   6.283   6.554  0.0205  0.2488  0.8082
  181POPC   H8R20737   2.897   6.182   6.542 -0.8708 -0.0859  0.1588
  181POPC   H8S20738   2.932   6.352   6.587 -0.7026  2.2391 -1.2686
  181POPC   C2920739   2.783   6.333   6.429 -0.0813  0.6190  0.0144
  181POPC   H9120740   2.721   6.424   6.437 -0.7378  0.6854 -3.9600
  181POPC  C21020741   2.786   6.269   6.312  0.2989 -0.5037  0.2728
  181POPC  H10120742   2.730   6.314   6.229 -0.9059  0.8661  1.7631
  181POPC  C21120743   2.866   6.141   6.282 -0.4508  0.2679  0.1023
  181POPC  H11R20744   2.828   6.052   6.337  1.1122  0.2246  1.1932
  181POPC  H11S20745   2.973   6.155   6.310 -0.0972 -1.0416 -0.5189
  181POPC  C21220746   2.860   6.098   6.127  0.2126 -0.5654 -0.4973
  181POPC  H12R20747   2.757   6.064   6.102 -0.2939  0.3235  0.3278
  181POPC  H12S20748   2.927   6.012   6.109 -0.9471 -1.2704 -1.6084
  181POPC  C21320749   2.898   6.208   6.031  0.0358  0.1405  0.3124
  181POPC  H13R20750   3.002   6.247   6.040 -0.2600  0.9943  0.1773
  181POPC  H13S20751   2.825   6.291   6.050  0.5579  0.4457  1.0624
  181POPC  C21420752   2.896   6.158   5.885 -0.3449 -0.4446  0.1020
  181POPC  H14R20753   2.806   6.094   5.873 -0.6730 -0.6911  3.0858
  181POPC  H14S20754   2.988   6.098   5.868 -0.0869 -0.0183 -0.0509
  181POPC  C21520755   2.877   6.272   5.778 -0.3637  0.2840 -0.1100
  181POPC  H15R20756   2.960   6.344   5.791 -1.0036  1.4027 -1.8331
  181POPC  H15S20757   2.784   6.330   5.802  0.3297  2.4297 -2.1987
  181POPC  C21620758   2.884   6.218   5.640  0.4283  0.1768 -0.2685
  181POPC  H16R20759   2.808   6.143   5.609  1.0520 -1.0621  1.0688
  181POPC  H16S20760   2.986   6.178   5.625  0.0785 -0.2020 -1.8105
  181POPC  C21720761   2.877   6.329   5.533 -0.4168  0.3506  0.2776
  181POPC  H17R20762   2.957   6.403   5.553 -1.2836  0.9589  1.6045
  181POPC  H17S20763   2.784   6.386   5.552 -0.4032  0.2967  0.5133
  181POPC  C21820764   2.870   6.280   5.383 -1.0323  0.1789  0.8636
  181POPC  H18R20765   2.788   6.208   5.362  0.4494 -0.5870 -3.2189
  181POPC  H18S20766   2.969   6.231   5.368 -2.3693 -2.3375 -0.3290
  181POPC  H18T20767   2.851   6.364   5.313  1.8779 -0.4109 -0.7978
  181POPC   C3320768   2.938   5.684   6.930  0.1536  0.0498  0.3477
  181POPC   H3X20769   2.993   5.705   7.024 -0.3288 -1.8818  1.0914
  181POPC   H3Y20770   2.852   5.754   6.928  0.3512  0.2913 -0.2487
  181POPC   C3420771   3.027   5.724   6.807  0.1898 -0.9671  0.3359
  181POPC   H4X20772   2.986   5.676   6.715 -1.1721  1.7070 -0.5522
  181POPC   H4Y20773   3.129   5.682   6.821  0.8351  0.1775 -0.6762
  181POPC   C3520774   3.032   5.873   6.786 -0.1093 -0.5545 -0.6898
  181POPC   H5X20775   3.071   5.927   6.875 -0.3095 -2.1639  0.3996
  181POPC   H5Y20776   2.928   5.908   6.770  0.5432  1.2669 -1.2448
  181POPC   C3620777   3.116   5.937   6.666 -0.1917  0.1081 -0.3644
  181POPC   H6X20778   3.221   5.948   6.701 -0.7195 -0.2312  1.3765
  181POPC   H6Y20779   3.085   6.044   6.662  1.4757  0.6064 -0.6714
  181POPC   C3720780   3.109   5.866   6.532  0.2700 -0.3670  0.1354
  181POPC   H7X20781   3.002   5.845   6.514  0.0088  2.8153 -2.8412
  181POPC   H7Y20782   3.152   5.765   6.549 -0.6884 -0.8056  0.0146
  181POPC   C3820783   3.165   5.930   6.403  0.6632  0.2590 -0.2571
  181POPC   H8X20784   3.276   5.936   6.412  0.6525  1.8024 -0.9546
  181POPC   H8Y20785   3.128   6.034   6.397 -0.2183 -0.0766 -5.4522
  181POPC   C3920786   3.131   5.859   6.271 -0.4020  0.4020  0.4237
  181POPC   H9X20787   3.022   5.857   6.246 -0.8537 -1.9219  2.1335
  181POPC   H9Y20788   3.155   5.754   6.301 -2.1689  0.5348  2.6120
  181POPC  C31020789   3.209   5.904   6.142 -0.6107 -0.1147  0.2198
  181POPC  H10X20790   3.317   5.892   6.166 -0.3769 -0.3351 -0.8536
  181POPC  H10Y20791   3.185   6.011   6.126 -0.7866  0.1045  1.8446
  181POPC  C31120792   3.161   5.819   6.023 -0.4100  0.2482 -0.7071
  181POPC  H11X20793   3.053   5.795   6.018 -0.2108 -0.4667 -2.1395
  181POPC  H11Y20794   3.214   5.722   6.038 -1.3477 -0.2653 -0.6026
  181POPC  C31220795   3.217   5.876   5.895  0.6803  0.4286  0.0455
  181POPC  H12X20796   3.321   5.839   5.878 -0.0732 -1.2551 -1.1093
  181POPC  H12Y20797   3.220   5.987   5.898 -0.6945  0.4552  1.0219
  181POPC  C31320798   3.126   5.833   5.784 -0.7681 -0.1712 -0.3409
  181POPC  H13X20799   3.022   5.866   5.804 -0.9946 -0.7709 -0.5106
  181POPC  H13Y20800   3.126   5.723   5.771 -0.1183 -0.0213 -1.9162
  181POPC  C31420801   3.170   5.892   5.651  0.3564 -0.1222  0.1429
  181POPC  H14X20802   3.193   6.001   5.656  0.9568 -0.1290 -1.7545
  181POPC  H14Y20803   3.085   5.884   5.580  0.2295 -1.2273  0.4025
  181POPC  C31520804   3.286   5.813   5.597 -0.2120 -0.8135 -0.6539
  181POPC  H15X20805   3.276   5.705   5.623 -1.0892 -0.8734 -1.2107
  181POPC  H15Y20806   3.378   5.848   5.648  0.3721 -1.4928 -1.2212
  181POPC  C31620807   3.302   5.825   5.445  0.4758  0.0604  0.6548
  181POPC  H16X20808   3.206   5.807   5.393 -0.9427  1.2636  2.7287
  181POPC  H16Y20809   3.383   5.762   5.402 -0.7154  0.8964 -3.2066
  181POPC  H16Z20810   3.326   5.930   5.420 -1.3711  0.7360  1.5406
  182POPC     N20811   0.096   4.687   7.440 -0.2453 -0.0613 -0.2306
  182POPC   C1220812   0.094   4.834   7.422 -0.7846 -0.7100 -0.8338
  182POPC  H12A20813   0.174   4.885   7.474 -0.3729 -0.9943 -1.1858
  182POPC  H12B20814   0.010   4.876   7.476 -1.7641  0.6782 -3.2827
  182POPC   C1320815  -0.023   4.617   7.388 -0.3333 -0.0850 -0.3419
  182POPC  H13A20816  -0.022   4.510   7.406 -3.1178 -0.1164  0.0243
  182POPC  H13B20817  -0.109   4.674   7.420  0.5444  0.2438  1.5979
  182POPC  H13C20818  -0.029   4.625   7.281  1.3617  2.6378 -0.3377
  182POPC   C1420819   0.230   4.633   7.389  0.2114  0.4391 -0.2387
  182POPC  H14A20820   0.234   4.653   7.283 -3.8157 -0.7848 -0.7877
  182POPC  H14B20821   0.310   4.670   7.451 -1.5217  1.4883  1.4797
  182POPC  H14C20822   0.231   4.526   7.407 -0.1281  0.3106 -0.9510
  182POPC   C1520823   0.098   4.668   7.590  0.3532 -0.3708  0.2846
  182POPC  H15A20824   0.180   4.728   7.626  2.1838 -3.1948  1.1094
  182POPC  H15B20825   0.133   4.569   7.614  0.8737 -0.1954  0.2566
  182POPC  H15C20826   0.012   4.700   7.648  0.0549 -0.1708 -0.2656
  182POPC   C1120827   0.084   4.888   7.282  0.8077 -0.3045 -0.1302
  182POPC  H11A20828   0.036   4.988   7.281  0.4920 -0.4088  1.8695
  182POPC  H11B20829   0.016   4.829   7.218 -1.2469 -0.5732  2.1594
  182POPC     P20830   0.258   4.855   7.087 -0.1344 -0.2853  0.1592
  182POPC   O1320831   0.191   4.733   7.049 -0.1941 -0.0675  0.1319
  182POPC   O1420832   0.408   4.851   7.080  0.2477  0.0497  0.7119
  182POPC   O1220833   0.217   4.901   7.230  0.4838 -0.6046  0.0967
  182POPC   O1120834   0.203   4.968   6.993  0.3401  0.4196 -0.9087
  182POPC    C120835   0.265   4.983   6.861 -0.7421 -0.5421 -0.1201
  182POPC    HA20836   0.198   4.938   6.784 -1.5461 -2.5520  1.6543
  182POPC    HB20837   0.365   4.936   6.846 -0.5640 -0.2363  0.1201
  182POPC    C220838   0.303   5.127   6.811  0.0239  0.7574  0.6472
  182POPC    HS20839   0.353   5.180   6.895 -0.7327  1.8056  0.4579
  182POPC   O2120840   0.181   5.185   6.774  0.7621  0.0029 -0.1652
  182POPC   C2120841   0.182   5.313   6.771  0.1614 -1.0867 -0.8593
  182POPC   O2220842   0.279   5.384   6.806  0.5462 -0.0970 -0.3124
  182POPC   C2220843   0.051   5.365   6.702  0.3347  0.2638  0.0706
  182POPC   H2R20844  -0.039   5.344   6.764 -1.1538 -1.9320 -2.5855
  182POPC   H2S20845   0.038   5.302   6.611 -0.8515 -2.2851  1.8581
  182POPC    C320846   0.394   5.119   6.694 -0.2990 -0.2542 -0.3736
  182POPC    HX20847   0.494   5.092   6.735 -0.1767 -0.1237 -0.5882
  182POPC    HY20848   0.415   5.220   6.652  1.3421 -0.1077  0.6958
  182POPC   O3120849   0.349   5.024   6.602 -0.3279 -0.0418  0.2216
  182POPC   C3120850   0.309   5.070   6.483 -0.4209 -0.0791 -0.3746
  182POPC   O3220851   0.273   5.185   6.463 -0.3890  0.3081 -0.1761
  182POPC   C3220852   0.298   4.948   6.383 -0.2991 -0.3293 -0.3561
  182POPC   H2X20853   0.227   4.873   6.424  0.3587 -1.5396 -1.3640
  182POPC   H2Y20854   0.400   4.907   6.364 -1.3671 -3.2869 -0.2802
  182POPC   C2320855   0.042   5.512   6.650  0.3099 -0.9860 -0.9841
  182POPC   H3R20856   0.071   5.569   6.741 -1.6906 -0.1530 -0.8239
  182POPC   H3S20857  -0.063   5.533   6.623  0.5463 -0.0054 -1.1869
  182POPC   C2420858   0.119   5.535   6.526  0.3168  0.5030 -0.3604
  182POPC   H4R20859   0.100   5.457   6.449 -0.1748 -0.3854  0.6443
  182POPC   H4S20860   0.228   5.534   6.547  0.1511  2.2029  0.8169
  182POPC   C2520861   0.092   5.672   6.460  0.1676 -0.4771  0.4861
  182POPC   H5R20862  -0.013   5.680   6.425  0.7926 -0.8073 -1.6477
  182POPC   H5S20863   0.150   5.675   6.365 -2.4158  3.1601 -1.2393
  182POPC   C2620864   0.128   5.787   6.550 -0.0453 -0.5723  0.4821
  182POPC   H6R20865   0.215   5.752   6.610  1.4542  3.1302  0.7333
  182POPC   H6S20866   0.043   5.815   6.617  0.0177 -0.7186  0.6253
  182POPC   C2720867   0.181   5.896   6.458  0.5396  0.4181 -0.6577
  182POPC   H7R20868   0.269   5.861   6.401  0.7944  0.1376 -0.1063
  182POPC   H7S20869   0.227   5.985   6.507 -0.7308  1.0382 -0.5604
  182POPC   C2820870   0.081   5.948   6.345  0.7928 -0.4169  0.6727
  182POPC   H8R20871  -0.002   5.985   6.408  2.0216 -1.3495  2.9928
  182POPC   H8S20872   0.037   5.863   6.289  0.4173  1.1257 -1.4858
  182POPC   C2920873   0.150   6.054   6.252  0.1229 -0.3321  0.4431
  182POPC   H9120874   0.179   6.151   6.297 -0.4143 -0.5981  1.3800
  182POPC  C21020875   0.190   6.032   6.126 -0.5882  0.1728  0.8449
  182POPC  H10120876   0.242   6.108   6.066 -0.5635  0.3790  1.1259
  182POPC  C21120877   0.162   5.902   6.045  0.1915  0.1625  0.5471
  182POPC  H11R20878   0.069   5.853   6.080  0.5621 -0.5469  0.5570
  182POPC  H11S20879   0.255   5.843   6.037 -0.2463 -0.5322  0.5651
  182POPC  C21220880   0.114   5.937   5.904  0.0884  0.8443  0.1930
  182POPC  H12R20881   0.207   5.947   5.844  0.2202 -2.2293 -0.2792
  182POPC  H12S20882   0.057   6.032   5.896 -0.8772  0.5003  2.4102
  182POPC  C21320883   0.029   5.827   5.848  0.2847 -0.1284  0.8945
  182POPC  H13R20884  -0.063   5.834   5.909 -0.6897 -1.9502 -0.2663
  182POPC  H13S20885   0.058   5.721   5.865 -1.4040 -0.7727  0.0143
  182POPC  C21420886   0.001   5.845   5.692 -0.3167 -0.4421  0.2991
  182POPC  H14R20887  -0.044   5.947   5.693 -2.5187 -1.3332 -0.4690
  182POPC  H14S20888  -0.084   5.781   5.659 -2.9399  2.9937 -0.2860
  182POPC  C21520889   0.124   5.831   5.606  0.3053 -0.2971 -0.1339
  182POPC  H15R20890   0.166   5.729   5.620  0.8827  0.2665  3.0862
  182POPC  H15S20891   0.210   5.898   5.629 -0.1313  0.7658 -1.4679
  182POPC  C21620892   0.085   5.846   5.462  0.6789  0.8938  0.3205
  182POPC  H16R20893   0.017   5.932   5.443  1.2151  1.6585  1.7503
  182POPC  H16S20894   0.020   5.757   5.445 -1.0558  1.8382  1.6868
  182POPC  C21720895   0.209   5.837   5.364 -0.2445  0.6615  0.6729
  182POPC  H17R20896   0.299   5.893   5.398  0.5587 -0.2925  0.1461
  182POPC  H17S20897   0.177   5.879   5.267  0.0431 -0.4895  0.0682
  182POPC  C21820898   0.240   5.687   5.347 -0.5483  0.4223  0.7655
  182POPC  H18R20899   0.154   5.635   5.300  0.2358 -0.4418  0.2770
  182POPC  H18S20900   0.252   5.626   5.439 -0.9897 -3.1250 -1.3339
  182POPC  H18T20901   0.327   5.675   5.280  1.2591  1.7484  2.7611
  182POPC   C3320902   0.261   4.981   6.238  0.8451 -0.3127  0.1611
  182POPC   H3X20903   0.336   5.043   6.183  1.7994 -2.3460 -0.9725
  182POPC   H3Y20904   0.165   5.035   6.241  0.0032 -1.7960  1.0574
  182POPC   C3420905   0.244   4.861   6.143  0.0294 -0.2103  0.3236
  182POPC   H4X20906   0.171   4.796   6.196  0.4480  0.0482  1.2426
  182POPC   H4Y20907   0.337   4.800   6.136 -0.3254 -1.0515  2.3017
  182POPC   C3520908   0.208   4.904   5.998 -0.3312 -0.0919  0.1328
  182POPC   H5X20909   0.291   4.956   5.946  0.7569 -0.3151  1.5834
  182POPC   H5Y20910   0.125   4.977   6.006 -1.2724 -1.2083  0.8504
  182POPC   C3620911   0.181   4.778   5.920  0.2811 -0.6814 -0.1005
  182POPC   H6X20912   0.104   4.724   5.980  0.9480  0.8998  2.3188
  182POPC   H6Y20913   0.275   4.721   5.908  0.5190 -0.9608  2.6200
  182POPC   C3720914   0.138   4.801   5.769  0.6486  0.1641  0.3192
  182POPC   H7X20915   0.067   4.886   5.766 -1.3606 -1.3988  0.6710
  182POPC   H7Y20916   0.078   4.713   5.737  0.0585  0.9157 -0.7048
  182POPC   C3820917   0.248   4.815   5.673 -0.1790  1.0640  0.3986
  182POPC   H8X20918   0.304   4.719   5.679  0.5598  1.4150 -0.6659
  182POPC   H8Y20919   0.309   4.907   5.680  0.7465  0.4094  1.1405
  182POPC   C3920920   0.194   4.824   5.528 -0.4405 -0.0707  0.2912
  182POPC   H9X20921   0.271   4.861   5.457  0.5292 -1.2727  0.6849
  182POPC   H9Y20922   0.116   4.902   5.512 -0.2166 -0.4059 -3.2889
  182POPC  C31020923   0.154   4.687   5.473  0.3058  0.3953 -0.0876
  182POPC  H10X20924   0.063   4.655   5.527 -0.6888  2.0295 -0.7149
  182POPC  H10Y20925   0.225   4.603   5.484 -2.5044 -2.1212  0.0343
  182POPC  C31120926   0.119   4.685   5.326 -0.0612 -0.2904  0.2174
  182POPC  H11X20927   0.203   4.716   5.259  0.0499 -2.1477 -0.5679
  182POPC  H11Y20928   0.041   4.762   5.310  0.8924  0.5469 -0.5142
  182POPC  C31220929   0.085   4.544   5.270 -0.4088 -0.1368  0.1481
  182POPC  H12X20930  -0.009   4.510   5.317 -0.6651  0.5322  0.1193
  182POPC  H12Y20931   0.178   4.487   5.294  1.0950  1.9002 -0.4667
  182POPC  C31320932   0.063   4.545   5.117  0.3143  0.1952 -0.1788
  182POPC  H13X20933   0.149   4.598   5.071 -0.5394  1.6996 -0.1179
  182POPC  H13Y20934  -0.030   4.606   5.110 -0.9161 -1.2809  1.8719
  182POPC  C31420935   0.025   4.404   5.065  0.1376 -0.4373  0.3098
  182POPC  H14X20936  -0.072   4.375   5.110  0.1474  1.2179  1.4892
  182POPC  H14Y20937   0.107   4.332   5.091  0.1004 -0.4864  0.2911
  182POPC  C31520938   0.007   4.409   4.911  0.6330 -0.2263 -0.8550
  182POPC  H15X20939  -0.054   4.499   4.891 -2.2841 -1.4489  1.6768
  182POPC  H15Y20940  -0.059   4.322   4.890 -0.0358 -1.1432  3.9390
  182POPC  C31620941   0.130   4.391   4.823  0.1961 -0.1451  0.6145
  182POPC  H16X20942   0.118   4.419   4.716 -0.0710 -0.8119  0.4657
  182POPC  H16Y20943   0.159   4.285   4.840 -1.9353 -0.7031  1.0251
  182POPC  H16Z20944   0.197   4.467   4.868 -1.2321  0.7070  1.3581
  183POPC     N20945   4.009   2.379   7.750 -0.1953  0.1489 -0.3721
  183POPC   C1220946   3.900   2.477   7.790 -0.3042  0.1732 -0.3906
  183POPC  H12A20947   3.942   2.566   7.834 -0.3750 -0.3060  0.6741
  183POPC  H12B20948   3.842   2.430   7.869  0.3528 -0.5495 -0.3297
  183POPC   C1320949   4.080   2.323   7.866  0.4924  0.1467 -0.0047
  183POPC  H13A20950   4.034   2.324   7.964  2.0498 -2.0523  0.8308
  183POPC  H13B20951   4.116   2.223   7.847  0.6256 -0.0878  1.3901
  183POPC  H13C20952   4.168   2.379   7.893 -1.2442  1.9066  2.4262
  183POPC   C1420953   3.956   2.267   7.673  0.5948 -0.2147 -0.4886
  183POPC  H14A20954   4.038   2.199   7.654  1.8074  1.3839 -1.3253
  183POPC  H14B20955   3.877   2.220   7.728  1.7545 -0.1348  1.3390
  183POPC  H14C20956   3.918   2.316   7.584  2.4667  3.1482  0.3652
  183POPC   C1520957   4.108   2.458   7.668 -0.1320 -0.4082 -0.2309
  183POPC  H15A20958   4.186   2.400   7.621  1.8696  0.9082  1.2696
  183POPC  H15B20959   4.173   2.520   7.729  0.0710 -1.4390  0.6207
  183POPC  H15C20960   4.066   2.533   7.603  2.1278  0.1710 -1.1449
  183POPC   C1120961   3.805   2.522   7.677  0.3398  0.2815 -0.5614
  183POPC  H11A20962   3.712   2.572   7.712  0.7674  1.3507 -0.9160
  183POPC  H11B20963   3.774   2.431   7.622 -0.6339 -0.7922  1.6247
  183POPC     P20964   3.827   2.648   7.458  0.2755 -0.2137  0.0155
  183POPC   O1320965   3.937   2.705   7.385 -0.4186 -0.2171 -0.0471
  183POPC   O1420966   3.716   2.739   7.483  0.7811 -0.1152  0.0184
  183POPC   O1220967   3.882   2.612   7.595  0.5995  0.7877 -0.0388
  183POPC   O1120968   3.772   2.513   7.395 -0.9295  0.0401 -0.2459
  183POPC    C120969   3.857   2.423   7.325  0.3412  0.4462 -0.1158
  183POPC    HA20970   3.812   2.322   7.330  0.6481  0.3483  3.3665
  183POPC    HB20971   3.961   2.428   7.365  0.0903  2.2245  0.4156
  183POPC    C220972   3.870   2.447   7.169  0.1548  0.3120 -0.5104
  183POPC    HS20973   3.922   2.545   7.173  0.6520  0.0854 -1.2603
  183POPC   O2120974   3.743   2.449   7.099 -0.0174  0.1654  0.2135
  183POPC   C2120975   3.699   2.572   7.070  0.0108  0.1852 -0.6709
  183POPC   O2220976   3.754   2.678   7.091 -0.2374 -0.2074 -0.1461
  183POPC   C2220977   3.564   2.567   6.997  0.0436  0.2198 -0.1773
  183POPC   H2R20978   3.485   2.552   7.073 -0.8931  0.1772 -1.1402
  183POPC   H2S20979   3.569   2.471   6.939  2.0453  1.4128 -2.1643
  183POPC    C320980   3.956   2.338   7.100 -0.4898 -0.5650 -0.6019
  183POPC    HX20981   3.888   2.253   7.120  1.4622 -1.5305  2.7469
  183POPC    HY20982   4.053   2.317   7.150 -0.3582 -1.9485 -1.3982
  183POPC   O3120983   3.973   2.375   6.960  0.6093 -0.7702  0.5567
  183POPC   C3120984   4.057   2.471   6.924 -0.2444  1.0762  0.4687
  183POPC   O3220985   4.134   2.521   7.001 -0.4492 -0.5344 -0.4122
  183POPC   C3220986   4.027   2.514   6.779  0.2829  0.4536 -0.2761
  183POPC   H2X20987   4.106   2.579   6.734 -0.3394  2.7225  1.6728
  183POPC   H2Y20988   3.931   2.568   6.766 -0.5352 -0.7094  0.7307
  183POPC   C2320989   3.525   2.693   6.912  0.0381  0.3209  0.4984
  183POPC   H3R20990   3.566   2.789   6.948 -0.8052  0.3867  1.3362
  183POPC   H3S20991   3.414   2.690   6.911 -0.0398 -2.5599 -2.6906
  183POPC   C2420992   3.565   2.669   6.758  0.3036 -0.0215 -0.6768
  183POPC   H4R20993   3.514   2.572   6.739 -2.3184  0.7889  1.5900
  183POPC   H4S20994   3.674   2.649   6.752  0.0027 -1.8739 -0.6636
  183POPC   C2520995   3.497   2.778   6.680  0.2421  0.1593 -0.3235
  183POPC   H5R20996   3.551   2.875   6.682 -0.9821  0.8545  1.5500
  183POPC   H5S20997   3.397   2.795   6.725  0.0801 -0.4151 -0.4627
  183POPC   C2620998   3.486   2.733   6.530  0.1495 -0.2722 -0.1619
  183POPC   H6R20999   3.453   2.828   6.483  0.7804 -0.7641 -1.6741
  183POPC   H6S21000   3.405   2.659   6.513 -1.2556  1.3945 -1.0621
  183POPC   C2721001   3.615   2.681   6.456 -0.1040  0.2832 -0.0671
  183POPC   H7R21002   3.651   2.591   6.511 -1.2070 -0.7802 -1.0223
  183POPC   H7S21003   3.690   2.763   6.453  0.5573 -0.3458 -1.8545
  183POPC   C2821004   3.586   2.655   6.303 -0.9444  0.5482 -0.5436
  183POPC   H8R21005   3.526   2.562   6.291 -1.6949  0.8900  0.4050
  183POPC   H8S21006   3.687   2.627   6.266 -0.9451  1.8846 -1.6264
  183POPC   C2921007   3.521   2.765   6.223 -0.0047  0.7036 -0.1455
  183POPC   H9121008   3.417   2.777   6.255  0.5729 -0.8444  2.5739
  183POPC  C21021009   3.581   2.855   6.140  0.3062 -0.4307  0.9910
  183POPC  H10121010   3.517   2.931   6.094  0.3749 -0.7079  0.4227
  183POPC  C21121011   3.728   2.874   6.106  0.1628 -0.2201  0.3458
  183POPC  H11R21012   3.788   2.859   6.198  0.8992  1.1081  0.1063
  183POPC  H11S21013   3.745   2.983   6.089 -0.1083  0.4048  3.5268
  183POPC  C21221014   3.796   2.799   5.984  0.0208  0.1517  0.7788
  183POPC  H12R21015   3.775   2.690   5.990  0.9898 -0.0089  1.6905
  183POPC  H12S21016   3.905   2.800   6.005 -0.0974  0.1273  1.4062
  183POPC  C21321017   3.776   2.870   5.848  1.0194  0.5465 -0.0414
  183POPC  H13R21018   3.858   2.848   5.776 -0.9764 -0.3687 -2.1389
  183POPC  H13S21019   3.779   2.980   5.866 -0.7733  0.7301 -0.6905
  183POPC  C21421020   3.655   2.827   5.766  0.3601  0.1079  0.1377
  183POPC  H14R21021   3.560   2.822   5.824  0.2755 -0.3610 -0.0371
  183POPC  H14S21022   3.681   2.724   5.734 -3.1657 -0.7786 -0.2564
  183POPC  C21521023   3.621   2.923   5.650  0.2599 -0.0820  0.0403
  183POPC  H15R21024   3.706   2.945   5.582  1.0289 -3.0404 -0.1023
  183POPC  H15S21025   3.605   3.019   5.703  2.2724  0.9475 -1.1150
  183POPC  C21621026   3.500   2.873   5.568  0.5613  0.2181 -0.0497
  183POPC  H16R21027   3.459   2.961   5.515 -3.5525  0.2310  2.7235
  183POPC  H16S21028   3.415   2.837   5.629  0.6169 -0.7067 -0.4959
  183POPC  C21721029   3.529   2.757   5.466  0.2146  0.6449  0.0215
  183POPC  H17R21030   3.442   2.740   5.399  1.3899  0.6279 -1.5540
  183POPC  H17S21031   3.568   2.674   5.529  2.9761  0.5024 -1.7136
  183POPC  C21821032   3.627   2.792   5.357 -0.6046 -0.5201 -0.4530
  183POPC  H18R21033   3.630   2.708   5.284 -2.4440 -1.0228 -0.0015
  183POPC  H18S21034   3.728   2.801   5.403 -1.4388  2.9940  0.9810
  183POPC  H18T21035   3.610   2.883   5.297  0.7519 -0.3103 -0.5314
  183POPC   C3321036   3.999   2.398   6.678  0.2403  0.1474 -0.0311
  183POPC   H3X21037   3.913   2.342   6.721 -0.9987  2.0248  0.0391
  183POPC   H3Y21038   4.091   2.335   6.671  0.3962  0.4146 -0.3727
  183POPC   C3421039   3.970   2.447   6.539  0.7828  0.0129 -0.6729
  183POPC   H4X21040   4.052   2.508   6.495  0.8008 -0.4566 -1.3134
  183POPC   H4Y21041   3.878   2.506   6.560  0.6046 -1.1370  2.1812
  183POPC   C3521042   3.951   2.332   6.443  0.2765 -1.2008  0.0369
  183POPC   H5X21043   3.923   2.243   6.503 -0.1297 -2.7488 -2.3088
  183POPC   H5Y21044   4.051   2.306   6.403  0.2199  1.0497 -1.8215
  183POPC   C3621045   3.847   2.385   6.340  0.5307 -0.3106 -0.0640
  183POPC   H6X21046   3.872   2.487   6.305 -1.0402 -0.1183 -0.6815
  183POPC   H6Y21047   3.752   2.375   6.397  0.3697 -2.9974 -0.6642
  183POPC   C3721048   3.833   2.293   6.217 -0.3345  0.0763  0.8375
  183POPC   H7X21049   3.813   2.190   6.255  0.4661  0.2501  1.7472
  183POPC   H7Y21050   3.930   2.312   6.167 -0.2562  1.5082  1.4834
  183POPC   C3821051   3.713   2.328   6.132 -0.6716 -0.0813 -0.2534
  183POPC   H8X21052   3.711   2.439   6.119  5.0791  0.5848  1.7089
  183POPC   H8Y21053   3.626   2.295   6.193 -0.1854 -0.9449 -0.0146
  183POPC   C3921054   3.705   2.258   5.996 -0.1152 -0.2868 -0.0857
  183POPC   H9X21055   3.703   2.148   6.012  0.4212 -0.0770  1.5954
  183POPC   H9Y21056   3.797   2.271   5.936 -0.7961  0.4225 -0.9936
  183POPC  C31021057   3.575   2.291   5.916  0.3997  0.0384  0.1158
  183POPC  H10X21058   3.486   2.258   5.974  0.1825  1.9583  0.9526
  183POPC  H10Y21059   3.583   2.234   5.821 -1.6601  0.9118 -0.6204
  183POPC  C31121060   3.561   2.445   5.887 -1.2610 -0.1310 -0.9759
  183POPC  H11X21061   3.655   2.472   5.834  0.5406 -0.9236  1.6232
  183POPC  H11Y21062   3.558   2.501   5.982  2.2870 -0.0613 -0.7601
  183POPC  C31221063   3.449   2.481   5.801  0.3833 -0.6198 -0.3305
  183POPC  H12X21064   3.428   2.591   5.803  1.1116 -0.4584 -1.1859
  183POPC  H12Y21065   3.365   2.436   5.858 -0.0725  2.4526  1.7221
  183POPC  C31321066   3.453   2.420   5.659  0.0575 -0.3448 -0.0850
  183POPC  H13X21067   3.455   2.309   5.665  0.7744 -0.2330  3.0374
  183POPC  H13Y21068   3.551   2.459   5.624  1.0174 -2.9750 -0.6213
  183POPC  C31421069   3.338   2.463   5.573  0.3683 -0.2158  0.2747
  183POPC  H14X21070   3.340   2.568   5.537 -1.1129 -0.7614 -1.5490
  183POPC  H14Y21071   3.255   2.489   5.641  0.4443  1.8093 -0.3267
  183POPC  C31521072   3.317   2.390   5.445 -0.9809  0.0555 -0.1905
  183POPC  H15X21073   3.411   2.402   5.387 -1.0771  0.2531 -0.3068
  183POPC  H15Y21074   3.240   2.442   5.384  1.5284  2.8262 -1.2308
  183POPC  C31621075   3.278   2.244   5.461 -0.2399  0.0481  0.7243
  183POPC  H16X21076   3.265   2.194   5.362 -1.5492  1.3129  0.2320
  183POPC  H16Y21077   3.179   2.221   5.506 -1.9065  1.0180 -2.1733
  183POPC  H16Z21078   3.357   2.195   5.522  0.1324  0.8305  0.8749
  184POPC     N21079   4.116   4.318   7.531 -0.5532  0.5315 -0.4354
  184POPC   C1221080   4.167   4.276   7.391  0.1696 -0.5677 -0.2171
  184POPC  H12A21081   4.272   4.302   7.397  0.0265 -0.3265  2.5871
  184POPC  H12B21082   4.132   4.338   7.310  1.8652 -0.2305 -0.7508
  184POPC   C1321083   4.204   4.273   7.637 -0.0441 -0.7351  0.3716
  184POPC  H13A21084   4.293   4.334   7.643 -2.2155  2.6798  0.5155
  184POPC  H13B21085   4.151   4.287   7.730 -0.6502 -0.8671  0.0542
  184POPC  H13C21086   4.226   4.168   7.624 -1.7546 -1.0006 -0.7940
  184POPC   C1421087   4.113   4.466   7.535  0.0288 -0.1339 -0.3656
  184POPC  H14A21088   4.127   4.502   7.635  2.2175  3.1520 -1.7094
  184POPC  H14B21089   4.191   4.513   7.478  0.4979  1.3064  1.3994
  184POPC  H14C21090   4.020   4.515   7.512 -0.6604  0.5244  3.2308
  184POPC   C1521091   3.976   4.271   7.556 -0.0030  0.6998 -0.2379
  184POPC  H15A21092   3.978   4.165   7.575  2.3575  0.1342 -2.9286
  184POPC  H15B21093   3.924   4.293   7.464 -0.4426 -1.1589 -0.4609
  184POPC  H15C21094   3.931   4.329   7.635 -1.6152 -1.8937  0.8525
  184POPC   C1121095   4.162   4.127   7.368  0.3301 -0.0229 -0.2954
  184POPC  H11A21096   4.158   4.105   7.260  1.6435 -0.2814 -0.3117
  184POPC  H11B21097   4.063   4.096   7.409 -0.1487  1.0398 -0.6039
  184POPC     P21098   4.372   3.967   7.348  0.0441 -0.1266 -0.0130
  184POPC   O1321099   4.419   3.853   7.427 -0.3830  0.2831 -0.6917
  184POPC   O1421100   4.479   4.057   7.307 -0.1377 -0.1316 -0.1246
  184POPC   O1221101   4.264   4.051   7.437  0.5632 -0.1420  0.3762
  184POPC   O1121102   4.296   3.921   7.225  0.5135 -0.0307  0.5864
  184POPC    C121103   4.225   3.791   7.215  0.3969  0.1140 -0.4817
  184POPC    HA21104   4.129   3.790   7.271  0.2583 -0.4335 -0.7233
  184POPC    HB21105   4.290   3.706   7.247  0.2909 -0.0097 -0.5931
  184POPC    C221106   4.188   3.760   7.067 -0.8298  0.1382 -0.3497
  184POPC    HS21107   4.151   3.656   7.063 -0.2712 -0.0653 -0.2994
  184POPC   O2121108   4.304   3.785   6.987  0.3614  0.0151 -0.1486
  184POPC   C2121109   4.390   3.693   7.003 -0.4969 -0.3942  0.3450
  184POPC   O2221110   4.383   3.594   7.072 -0.6462  0.1900 -0.3550
  184POPC   C2221111   4.515   3.719   6.921 -1.1275  0.0525 -0.2613
  184POPC   H2R21112   4.577   3.778   6.991 -0.4239 -0.8986 -0.0664
  184POPC   H2S21113   4.491   3.782   6.832 -1.1776 -0.3662 -0.5513
  184POPC    C321114   4.083   3.868   7.028 -0.0021  0.1406 -0.0476
  184POPC    HX21115   4.130   3.966   7.051  0.6495 -0.3009  0.5618
  184POPC    HY21116   4.000   3.852   7.100  0.1765 -0.9294 -0.0726
  184POPC   O3121117   4.025   3.861   6.898 -0.2355 -0.1150 -0.3413
  184POPC   C3121118   4.082   3.947   6.811  0.0262  0.6469  0.2701
  184POPC   O3221119   4.167   4.028   6.835 -0.6783 -0.2135  0.0739
  184POPC   C3221120   4.035   3.917   6.671  0.2725  0.4893 -0.0226
  184POPC   H2X21121   3.931   3.954   6.658 -0.5552 -1.3491  0.8844
  184POPC   H2Y21122   4.031   3.806   6.668 -0.0793  0.5006 -0.0508
  184POPC   C2321123   4.593   3.594   6.859  0.2573  1.0082 -0.7416
  184POPC   H3R21124   4.596   3.511   6.933  2.2325  1.0625 -0.7167
  184POPC   H3S21125   4.697   3.627   6.838  1.2172 -0.6601  0.9986
  184POPC   C2421126   4.529   3.543   6.735 -0.7934 -0.6021 -0.9167
  184POPC   H4R21127   4.575   3.604   6.654 -1.0700 -1.8877 -2.0901
  184POPC   H4S21128   4.428   3.588   6.736 -0.4286  0.2258  0.0167
  184POPC   C2521129   4.534   3.393   6.701 -0.4072 -0.2113 -0.5961
  184POPC   H5R21130   4.478   3.321   6.765 -1.0312 -1.0655 -2.0507
  184POPC   H5S21131   4.634   3.345   6.702 -1.6466 -2.9943  1.0264
  184POPC   C2621132   4.468   3.369   6.569  0.0768  0.5793  0.2562
  184POPC   H6R21133   4.379   3.435   6.561  0.0940  0.6695  0.7585
  184POPC   H6S21134   4.428   3.265   6.573 -3.1241  1.6401 -0.5899
  184POPC   C2721135   4.551   3.385   6.440 -0.5416 -0.7501  0.3709
  184POPC   H7R21136   4.627   3.306   6.424  2.3978  1.6192  1.7022
  184POPC   H7S21137   4.595   3.486   6.449 -1.3472 -0.4043  0.5421
  184POPC   C2821138   4.450   3.389   6.314  0.5416  0.4803  0.0949
  184POPC   H8R21139   4.522   3.412   6.232  1.8219  0.2565  1.1119
  184POPC   H8S21140   4.389   3.479   6.336 -1.8303 -0.8719 -0.6659
  184POPC   C2921141   4.372   3.262   6.291  0.0058 -0.6501  0.1737
  184POPC   H9121142   4.337   3.201   6.376  0.5864  1.4428  2.0058
  184POPC  C21021143   4.327   3.219   6.174  0.1498  0.8772  0.0151
  184POPC  H10121144   4.290   3.115   6.174  1.8739  0.2086  1.4439
  184POPC  C21121145   4.346   3.286   6.042 -0.1310  0.4359  0.0509
  184POPC  H11R21146   4.429   3.245   5.980  1.0016 -2.3515  3.1219
  184POPC  H11S21147   4.383   3.389   6.062  2.2696 -0.1671 -0.9553
  184POPC  C21221148   4.221   3.279   5.962  0.2820 -0.7718  0.0933
  184POPC  H12R21149   4.227   3.340   5.870 -1.9139 -0.5421  0.0292
  184POPC  H12S21150   4.143   3.330   6.023 -1.8905 -1.3790 -1.9921
  184POPC  C21321151   4.172   3.144   5.913  0.3700  0.1647 -0.5581
  184POPC  H13R21152   4.190   3.070   5.995  0.1569 -1.1210 -1.6334
  184POPC  H13S21153   4.244   3.122   5.831  1.4306  0.7043  0.2099
  184POPC  C21421154   4.028   3.139   5.863  0.2374 -0.0626  1.1156
  184POPC  H14R21155   3.957   3.164   5.944 -0.3011 -0.1225  0.6735
  184POPC  H14S21156   4.013   3.030   5.845  1.6490 -0.3830  1.7252
  184POPC  C21521157   3.998   3.212   5.727 -0.3453  0.4701 -0.5352
  184POPC  H15R21158   4.088   3.278   5.719  0.8834 -1.2485 -1.6324
  184POPC  H15S21159   3.901   3.260   5.751 -0.1705 -0.1168  1.5291
  184POPC  C21621160   3.973   3.128   5.599 -0.0151  0.0095 -0.6271
  184POPC  H16R21161   3.876   3.075   5.603 -0.2276  0.1524 -2.6589
  184POPC  H16S21162   4.052   3.053   5.575  0.3630 -0.7569  2.5827
  184POPC  C21721163   3.975   3.225   5.480 -0.1407 -0.2676 -0.8423
  184POPC  H17R21164   4.073   3.277   5.469 -0.2730  1.3587  3.7271
  184POPC  H17S21165   3.910   3.308   5.512 -0.4650  0.3593 -2.9659
  184POPC  C21821166   3.906   3.169   5.353  0.1852 -0.3815  0.0678
  184POPC  H18R21167   3.812   3.113   5.373  0.5377 -1.6584 -1.6370
  184POPC  H18S21168   3.980   3.101   5.305 -1.2959 -2.2375  0.3035
  184POPC  H18T21169   3.886   3.246   5.276 -0.4047  0.5006  1.0827
  184POPC   C3321170   4.127   3.954   6.555  0.3906  0.1536 -0.3620
  184POPC   H3X21171   4.142   4.064   6.561 -3.7115  0.8098  1.0694
  184POPC   H3Y21172   4.085   3.950   6.452  1.3408  1.4917 -0.8320
  184POPC   C3421173   4.263   3.883   6.554 -0.5894 -0.5569  0.6620
  184POPC   H4X21174   4.251   3.773   6.567 -0.2046 -0.4573  1.9812
  184POPC   H4Y21175   4.325   3.913   6.640 -1.2705 -1.3967  1.4768
  184POPC   C3521176   4.339   3.911   6.425 -0.1008 -0.8479  0.2269
  184POPC   H5X21177   4.376   4.015   6.436 -1.9164 -0.3625  2.4000
  184POPC   H5Y21178   4.269   3.911   6.339 -2.4547 -1.2897  2.0350
  184POPC   C3621179   4.454   3.812   6.402  0.0008  1.1058  0.4447
  184POPC   H6X21180   4.407   3.714   6.378  0.3188  0.9778  0.3390
  184POPC   H6Y21181   4.511   3.811   6.498 -2.8242 -1.0566  2.2462
  184POPC   C3721182   4.535   3.839   6.281 -0.2375  0.4681 -0.9157
  184POPC   H7X21183   4.622   3.769   6.289  0.0980  1.1254  2.2767
  184POPC   H7Y21184   4.580   3.939   6.293  2.2311 -0.5612 -0.9251
  184POPC   C3821185   4.473   3.826   6.142 -0.5203  0.0489  0.0137
  184POPC   H8X21186   4.549   3.857   6.068 -1.9991  0.8103 -1.2533
  184POPC   H8Y21187   4.398   3.908   6.136 -0.1343  0.5936  1.9041
  184POPC   C3921188   4.404   3.689   6.116 -0.1679  0.2067 -0.0294
  184POPC   H9X21189   4.323   3.677   6.191 -2.0429 -1.7725 -2.1967
  184POPC   H9Y21190   4.474   3.608   6.147 -1.3634 -0.1030  1.9724
  184POPC  C31021191   4.344   3.670   5.971 -0.4554  0.0499  0.3444
  184POPC  H10X21192   4.258   3.734   5.940 -0.7554 -0.7875 -0.6152
  184POPC  H10Y21193   4.311   3.565   5.959  2.7887 -1.1547  0.9312
  184POPC  C31121194   4.455   3.684   5.863 -0.6990 -0.4248 -0.8825
  184POPC  H11X21195   4.537   3.613   5.888 -0.9522 -0.4688 -0.1539
  184POPC  H11Y21196   4.509   3.781   5.863 -0.5409 -0.5110 -0.3490
  184POPC  C31221197   4.414   3.673   5.720  0.5087  0.1026  1.1240
  184POPC  H12X21198   4.507   3.651   5.663  0.5621  0.3127  1.1276
  184POPC  H12Y21199   4.370   3.769   5.686  0.2744 -0.7725 -1.2535
  184POPC  C31321200   4.322   3.559   5.677 -0.3835  0.5448 -0.0350
  184POPC  H13X21201   4.234   3.562   5.744  0.8333 -0.9195  1.7184
  184POPC  H13Y21202   4.372   3.462   5.697  0.5676  0.4929 -2.2938
  184POPC  C31421203   4.302   3.542   5.530 -0.2485  0.7096 -0.6971
  184POPC  H14X21204   4.235   3.457   5.504 -0.3493  0.6274 -0.1713
  184POPC  H14Y21205   4.400   3.506   5.493  0.2456  1.8188 -0.4964
  184POPC  C31521206   4.246   3.668   5.462  0.8482 -0.1114  0.2606
  184POPC  H15X21207   4.317   3.746   5.495  1.6214 -0.0180 -1.5276
  184POPC  H15Y21208   4.147   3.685   5.510  0.0639 -0.1040 -1.3099
  184POPC  C31621209   4.241   3.665   5.311  0.1984  1.1420 -0.3814
  184POPC  H16X21210   4.338   3.635   5.267 -0.9940 -1.3948 -1.4591
  184POPC  H16Y21211   4.220   3.769   5.276  1.5143  1.7543  0.5486
  184POPC  H16Z21212   4.165   3.603   5.258 -0.0374  0.7465  0.3963
  185POPC     N21213   1.763   5.148   2.432 -0.2117  0.8912  0.4346
  185POPC   C1221214   1.647   5.124   2.525 -0.6246 -0.1536 -0.2617
  185POPC  H12A21215   1.618   5.213   2.578  1.7602  0.2740  0.4282
  185POPC  H12B21216   1.660   5.047   2.600 -2.1416 -1.3718 -1.1763
  185POPC   C1321217   1.878   5.149   2.522  0.5766  0.6186 -0.3016
  185POPC  H13A21218   1.973   5.156   2.472  0.8855 -0.7182  0.0641
  185POPC  H13B21219   1.870   5.230   2.594  0.9384 -0.6711  1.2495
  185POPC  H13C21220   1.898   5.053   2.567  0.0482  0.7456  0.2244
  185POPC   C1421221   1.797   5.037   2.329 -0.5848  0.7988  0.0265
  185POPC  H14A21222   1.771   4.938   2.365 -1.0645  1.2750  1.0140
  185POPC  H14B21223   1.748   5.064   2.237 -0.6551  0.6207  0.0098
  185POPC  H14C21224   1.904   5.030   2.316 -0.1356 -2.3932  3.6430
  185POPC   C1521225   1.747   5.274   2.348 -0.3773 -0.2319 -0.0642
  185POPC  H15A21226   1.656   5.285   2.291 -0.0555  0.7960 -0.4051
  185POPC  H15B21227   1.830   5.295   2.282 -0.4650 -3.9226 -1.5781
  185POPC  H15C21228   1.744   5.363   2.410 -2.8879  1.2924 -2.1840
  185POPC   C1121229   1.511   5.092   2.455 -1.0103  0.0951 -0.6091
  185POPC  H11A21230   1.444   5.049   2.533 -1.2402  3.8119  1.4495
  185POPC  H11B21231   1.510   5.014   2.376 -2.2289  0.0158 -0.5338
  185POPC     P21232   1.348   5.289   2.525  0.2761  0.2437  0.0960
  185POPC   O1321233   1.213   5.262   2.475  0.6991  0.0087 -0.1063
  185POPC   O1421234   1.375   5.434   2.525  0.4769  0.4059 -0.2054
  185POPC   O1221235   1.447   5.217   2.422  0.6095  0.3852 -0.1490
  185POPC   O1121236   1.374   5.226   2.666  0.0232 -0.0571 -0.2030
  185POPC    C121237   1.263   5.190   2.756 -1.0165  0.2924 -0.4294
  185POPC    HA21238   1.295   5.112   2.829 -2.0739 -0.1258 -0.3990
  185POPC    HB21239   1.184   5.136   2.700  0.9437 -1.4675 -1.6426
  185POPC    C221240   1.198   5.306   2.829 -0.0170 -0.3731 -0.0497
  185POPC    HS21241   1.162   5.385   2.760  2.6666 -0.7354 -2.0452
  185POPC   O2121242   1.289   5.361   2.927  0.2643  0.3525 -0.0241
  185POPC   C2121243   1.221   5.457   2.999 -0.8129 -0.1688 -0.2529
  185POPC   O2221244   1.121   5.516   2.964 -0.3175 -0.3299 -0.6420
  185POPC   C2221245   1.297   5.491   3.130  0.4895  0.1877  0.3068
  185POPC   H2R21246   1.290   5.602   3.137 -0.6976  0.3472 -2.2832
  185POPC   H2S21247   1.402   5.455   3.123 -0.6110 -3.5369  0.9143
  185POPC    C321248   1.078   5.240   2.903 -0.0644  0.1986 -0.4291
  185POPC    HX21249   1.004   5.199   2.832  0.1520  0.3754 -0.7632
  185POPC    HY21250   1.018   5.322   2.948 -0.9352 -1.5922  1.8567
  185POPC   O3121251   1.133   5.150   3.015  0.4102 -0.4834 -0.2211
  185POPC   C3121252   1.054   5.045   3.037 -0.0793  0.2305 -0.8539
  185POPC   O3221253   0.964   5.009   2.965 -0.3544 -0.4862  0.0922
  185POPC   C3221254   1.093   4.986   3.178  0.7041 -0.5163 -0.5098
  185POPC   H2X21255   1.187   5.027   3.219  0.6658 -0.2750 -0.6634
  185POPC   H2Y21256   1.110   4.878   3.155  2.8443 -0.4053  0.3435
  185POPC   C2321257   1.218   5.439   3.254 -0.2669  0.2353  0.6288
  185POPC   H3R21258   1.189   5.333   3.241  0.9810 -1.2607  6.8382
  185POPC   H3S21259   1.130   5.506   3.266 -1.2430 -0.9683  0.3836
  185POPC   C2421260   1.300   5.442   3.384  0.6500  0.0984  0.1813
  185POPC   H4R21261   1.307   5.545   3.424  1.0402  0.1062  0.1003
  185POPC   H4S21262   1.406   5.408   3.376  1.3812  2.1574  0.6154
  185POPC   C2521263   1.230   5.348   3.493 -0.0591 -0.8481  0.1033
  185POPC   H5R21264   1.261   5.243   3.482  0.1222 -0.8970  1.0437
  185POPC   H5S21265   1.120   5.363   3.479 -0.3664 -2.0838  1.0723
  185POPC   C2621266   1.275   5.393   3.632  0.1005 -0.5384 -0.0376
  185POPC   H6R21267   1.238   5.496   3.652  0.2234 -0.7512  1.4256
  185POPC   H6S21268   1.386   5.392   3.645 -0.1930 -0.5596  3.5978
  185POPC   C2721269   1.231   5.296   3.744  0.2763 -0.9781  0.2090
  185POPC   H7R21270   1.228   5.192   3.706  1.3107 -0.7137 -0.6359
  185POPC   H7S21271   1.125   5.315   3.772  0.1116  2.1889 -2.0800
  185POPC   C2821272   1.322   5.297   3.869  0.1063 -0.1002  0.1711
  185POPC   H8R21273   1.422   5.271   3.828 -0.0905  0.9054 -0.9954
  185POPC   H8S21274   1.305   5.216   3.943 -0.4141  1.0489  1.3381
  185POPC   C2921275   1.322   5.434   3.933  0.0714  0.4925 -0.0348
  185POPC   H9121276   1.358   5.519   3.873 -2.2345  0.3626 -1.7474
  185POPC  C21021277   1.276   5.456   4.061 -0.5575 -1.0332 -0.0640
  185POPC  H10121278   1.282   5.557   4.104  1.4600 -1.6145  1.1609
  185POPC  C21121279   1.225   5.343   4.150  0.4341 -1.5673  0.1732
  185POPC  H11R21280   1.171   5.257   4.104 -0.5660 -0.8214 -0.0782
  185POPC  H11S21281   1.147   5.383   4.219  1.6986  2.3231 -0.4562
  185POPC  C21221282   1.336   5.283   4.233  0.9333  0.1198 -0.3442
  185POPC  H12R21283   1.378   5.365   4.295 -3.0166  1.4420  0.8945
  185POPC  H12S21284   1.417   5.237   4.172  0.5930  0.0892 -0.7702
  185POPC  C21321285   1.276   5.164   4.321  1.0332 -0.7421 -0.1565
  185POPC  H13R21286   1.356   5.123   4.387 -2.1908 -0.5246  4.3660
  185POPC  H13S21287   1.239   5.076   4.264  0.6318 -0.0099 -1.0519
  185POPC  C21421288   1.175   5.212   4.426  0.0407  1.1379  0.6486
  185POPC  H14R21289   1.137   5.117   4.471  1.2967 -0.9597 -2.3819
  185POPC  H14S21290   1.081   5.251   4.383 -0.6470 -2.3422 -1.4422
  185POPC  C21521291   1.241   5.296   4.532  0.2370 -0.0300 -0.8012
  185POPC  H15R21292   1.280   5.395   4.498 -2.1423  1.4831  0.5190
  185POPC  H15S21293   1.332   5.241   4.564  0.0713  0.9712  1.5557
  185POPC  C21621294   1.147   5.330   4.647 -0.3584 -0.2365 -0.3808
  185POPC  H16R21295   1.218   5.359   4.728  1.3000 -2.6183 -0.8617
  185POPC  H16S21296   1.087   5.243   4.681  0.1507  0.2142  1.8448
  185POPC  C21721297   1.051   5.441   4.615 -0.0226 -0.2178 -0.1723
  185POPC  H17R21298   0.996   5.427   4.520  1.4450  0.3649 -1.1470
  185POPC  H17S21299   1.107   5.536   4.604 -4.2388  2.3993 -0.9977
  185POPC  C21821300   0.931   5.483   4.708 -0.3921  0.6079  0.8687
  185POPC  H18R21301   0.969   5.482   4.813  1.6513  1.4062  0.1944
  185POPC  H18S21302   0.849   5.408   4.710  0.6502 -0.5689  1.6956
  185POPC  H18T21303   0.887   5.583   4.691 -1.3340 -0.0757 -0.9689
  185POPC   C3321304   0.990   5.011   3.281  0.1742  0.2245  0.8004
  185POPC   H3X21305   0.885   4.994   3.250 -0.2100 -0.2556  2.2903
  185POPC   H3Y21306   0.992   5.113   3.325 -0.0258  0.2663  0.7124
  185POPC   C3421307   1.020   4.913   3.391  0.4890  0.7832 -0.0528
  185POPC   H4X21308   1.130   4.919   3.405  0.3311 -0.7699  2.3766
  185POPC   H4Y21309   0.991   4.809   3.366  0.3069  0.5732  0.9770
  185POPC   C3521310   0.960   4.953   3.533 -0.0404 -0.6769  0.1568
  185POPC   H5X21311   0.851   4.951   3.512  0.1327  3.5209 -2.4538
  185POPC   H5Y21312   0.988   5.059   3.554  0.8090 -0.8750  0.0407
  185POPC   C3621313   1.005   4.856   3.640  0.0571 -0.8012  0.0048
  185POPC   H6X21314   1.114   4.839   3.646  0.6610  2.5073  0.3878
  185POPC   H6Y21315   0.962   4.756   3.615 -2.5875 -0.0870  1.2987
  185POPC   C3721316   0.950   4.875   3.778 -0.2080  0.4719 -0.1239
  185POPC   H7X21317   0.958   4.776   3.827 -0.6941  0.0625 -0.8441
  185POPC   H7Y21318   0.845   4.910   3.773 -0.1948  0.3890 -1.1786
  185POPC   C3821319   1.039   4.979   3.858 -0.3215  0.3029 -1.2757
  185POPC   H8X21320   1.063   5.070   3.800  2.2970  1.3391  1.2322
  185POPC   H8Y21321   1.140   4.936   3.872 -0.5020  0.3978  0.5363
  185POPC   C3921322   0.982   5.008   3.998  0.2333  0.5539  0.7986
  185POPC   H9X21323   0.872   4.993   4.001 -0.1025  2.1887 -1.1305
  185POPC   H9Y21324   1.006   5.116   4.011 -2.9459  1.3522  0.7657
  185POPC  C31021325   1.059   4.922   4.099  0.7859 -0.0458  0.1155
  185POPC  H10X21326   1.162   4.963   4.112  0.2312  0.4576  5.0468
  185POPC  H10Y21327   1.070   4.818   4.060 -2.5637 -0.3173 -0.4111
  185POPC  C31121328   0.985   4.911   4.236 -0.3362  0.0143 -0.3286
  185POPC  H11X21329   0.875   4.912   4.220 -0.4040  0.4981  0.1471
  185POPC  H11Y21330   1.000   5.008   4.288  0.5431 -0.5117  0.4329
  185POPC  C31221331   1.030   4.802   4.336  0.4950  0.0554  0.6488
  185POPC  H12X21332   0.973   4.831   4.427 -1.4071 -2.9121  0.5412
  185POPC  H12Y21333   1.140   4.803   4.352  0.6183  2.0356 -0.0870
  185POPC  C31321334   0.992   4.655   4.312  0.0639 -0.0945 -0.1883
  185POPC  H13X21335   1.018   4.632   4.206 -2.5224 -0.8385 -0.7650
  185POPC  H13Y21336   0.881   4.655   4.306  0.0286 -0.3939  0.3697
  185POPC  C31421337   1.045   4.565   4.411 -0.4557  0.0616 -0.2569
  185POPC  H14X21338   1.155   4.564   4.402 -0.4095 -0.0708  0.2858
  185POPC  H14Y21339   1.015   4.458   4.399  2.6923 -1.2539  2.1146
  185POPC  C31521340   0.997   4.599   4.552  0.1021 -0.6254 -0.4031
  185POPC  H15X21341   1.053   4.690   4.584  1.3124 -1.8726  1.2067
  185POPC  H15Y21342   1.025   4.507   4.607 -0.3800 -2.1844 -2.6254
  185POPC  C31621343   0.845   4.624   4.578 -0.0634 -0.1350  0.7074
  185POPC  H16X21344   0.787   4.565   4.504 -0.4534 -0.3957  1.2153
  185POPC  H16Y21345   0.827   4.730   4.549 -0.4722 -0.3267  0.2378
  185POPC  H16Z21346   0.810   4.610   4.683 -2.0650 -0.0400  0.1012
  186POPC     N21347   1.663   0.888   2.552  0.0366 -0.6138  0.3115
  186POPC   C1221348   1.778   0.933   2.643  0.5275 -0.2554 -0.9395
  186POPC  H12A21349   1.833   1.010   2.591 -0.1154  2.4619  2.0365
  186POPC  H12B21350   1.841   0.846   2.651  0.4149 -0.3248 -0.7984
  186POPC   C1321351   1.711   0.840   2.423  0.0835 -0.4904  0.9338
  186POPC  H13A21352   1.631   0.812   2.356 -0.1614  1.9833  0.0878
  186POPC  H13B21353   1.780   0.909   2.375  0.9476 -0.5551  2.0425
  186POPC  H13C21354   1.762   0.745   2.433  0.2401 -0.2287  2.9086
  186POPC   C1421355   1.579   0.781   2.615 -0.3320 -0.1670  0.0160
  186POPC  H14A21356   1.547   0.815   2.712  1.5401 -0.3367  0.7320
  186POPC  H14B21357   1.487   0.781   2.558  0.0681  2.0110 -0.7209
  186POPC  H14C21358   1.637   0.691   2.629  0.9029  0.8567  2.0338
  186POPC   C1521359   1.573   1.003   2.521  0.2579  0.4139 -0.0053
  186POPC  H15A21360   1.532   1.035   2.615  1.2554 -0.9246  0.9303
  186POPC  H15B21361   1.493   0.985   2.451  1.0886 -1.4280 -0.5596
  186POPC  H15C21362   1.635   1.081   2.480  0.1499  0.8215  0.5965
  186POPC   C1121363   1.751   0.997   2.778 -0.5987  0.3792  0.0537
  186POPC  H11A21364   1.707   0.933   2.858  0.7202  1.3767  1.6417
  186POPC  H11B21365   1.674   1.075   2.758 -1.6587  0.2153  3.0144
  186POPC     P21366   1.990   0.999   2.896 -0.3058 -0.0714 -0.1046
  186POPC   O1321367   2.110   1.029   2.819  0.1850  0.1163  0.2348
  186POPC   O1421368   1.953   0.860   2.925 -0.2316 -0.2016  0.0719
  186POPC   O1221369   1.866   1.064   2.819 -0.7229 -0.1906 -0.2535
  186POPC   O1121370   1.986   1.076   3.028 -0.0002 -0.4708 -0.2102
  186POPC    C121371   1.883   1.173   3.063 -0.4208  0.9946  0.5899
  186POPC    HA21372   1.785   1.125   3.045  0.1853  0.4636 -1.6817
  186POPC    HB21373   1.895   1.265   3.002 -0.3393 -0.2941 -1.4470
  186POPC    C221374   1.900   1.209   3.211 -0.1022 -0.3285 -0.2941
  186POPC    HS21375   1.812   1.267   3.245  0.2145 -0.1466  0.2249
  186POPC   O2121376   2.023   1.291   3.227  0.3185  0.3819  0.6591
  186POPC   C2121377   2.023   1.382   3.321  1.0550 -0.5139  0.4894
  186POPC   O2221378   1.926   1.427   3.381 -1.1947 -0.2219 -0.5417
  186POPC   C2221379   2.169   1.430   3.355  0.4018 -0.2879 -0.1057
  186POPC   H2R21380   2.150   1.515   3.424 -2.0059  0.3761 -1.4828
  186POPC   H2S21381   2.210   1.466   3.258  2.1100 -1.2924  0.1942
  186POPC    C321382   1.909   1.085   3.298  0.0702  1.1422  0.0914
  186POPC    HX21383   2.004   1.033   3.272 -0.3072  0.2850  0.3998
  186POPC    HY21384   1.829   1.010   3.279  0.4197  0.4995  1.0632
  186POPC   O3121385   1.904   1.119   3.441  0.0625  0.1740 -0.2010
  186POPC   C3121386   1.792   1.137   3.499 -0.3213 -0.4873  0.1492
  186POPC   O3221387   1.686   1.110   3.452  0.7433  0.5131  0.1727
  186POPC   C3221388   1.803   1.193   3.637  0.2868 -0.3283 -0.5256
  186POPC   H2X21389   1.744   1.287   3.631 -1.1800 -1.1830  0.0022
  186POPC   H2Y21390   1.907   1.223   3.664 -0.6897  2.8517  0.1394
  186POPC   C2321391   2.258   1.316   3.421 -0.1198  0.3301 -0.2334
  186POPC   H3R21392   2.362   1.351   3.436 -0.6519  2.7591 -1.5211
  186POPC   H3S21393   2.264   1.222   3.362 -1.2871  0.5557 -0.7513
  186POPC   C2421394   2.209   1.271   3.560 -0.1667  0.0785  0.6000
  186POPC   H4R21395   2.281   1.193   3.592  1.1109 -0.2144 -2.6205
  186POPC   H4S21396   2.113   1.215   3.560 -0.5097  0.3352 -3.3849
  186POPC   C2521397   2.204   1.388   3.670  0.2021 -0.9180  0.1881
  186POPC   H5R21398   2.115   1.452   3.648  0.8863 -0.0976 -0.2373
  186POPC   H5S21399   2.300   1.438   3.647 -0.4023 -1.3354 -4.1919
  186POPC   C2621400   2.188   1.340   3.813  0.2173 -0.2079 -0.0282
  186POPC   H6R21401   2.246   1.246   3.825  1.3121 -0.5038 -5.1031
  186POPC   H6S21402   2.079   1.321   3.824  0.0396  1.1710  0.7777
  186POPC   C2721403   2.219   1.456   3.914 -0.1693  0.2425  0.0265
  186POPC   H7R21404   2.152   1.542   3.892  1.6275  1.7503  0.2296
  186POPC   H7S21405   2.327   1.477   3.902  0.2714 -0.7904  1.8398
  186POPC   C2821406   2.200   1.425   4.063 -0.1173  0.0615  0.4302
  186POPC   H8R21407   2.253   1.507   4.116  0.0614  0.0600  0.2573
  186POPC   H8S21408   2.255   1.330   4.081 -2.5126 -1.6662 -0.8542
  186POPC   C2921409   2.053   1.410   4.095  0.4603 -0.3639 -0.5616
  186POPC   H9121410   1.989   1.355   4.025 -3.6691  1.7102  1.2414
  186POPC  C21021411   1.997   1.463   4.209  0.0632 -0.4480  0.0850
  186POPC  H10121412   1.891   1.442   4.228 -0.0759 -0.3199 -0.5199
  186POPC  C21121413   2.070   1.549   4.303 -0.0402 -0.1703 -0.4073
  186POPC  H11R21414   2.062   1.653   4.263  2.0453 -0.3829 -1.5222
  186POPC  H11S21415   2.180   1.535   4.296 -0.0098 -0.0601 -0.1668
  186POPC  C21221416   2.014   1.534   4.445  0.4708  0.0525  0.2390
  186POPC  H12R21417   1.903   1.536   4.443  0.3743  0.0086  2.7095
  186POPC  H12S21418   2.046   1.628   4.496 -1.3079  1.6949 -1.5134
  186POPC  C21321419   2.044   1.398   4.514  0.3633  0.0247  0.1742
  186POPC  H13R21420   2.154   1.386   4.524  0.3751  0.9573  1.3076
  186POPC  H13S21421   2.013   1.312   4.451  0.4839  0.1409 -0.0480
  186POPC  C21421422   1.985   1.385   4.648 -0.1986  0.0382 -0.9814
  186POPC  H14R21423   1.974   1.277   4.671 -1.0697  0.5485  1.2219
  186POPC  H14S21424   1.881   1.423   4.653  0.5098  1.9805  0.2385
  186POPC  C21521425   2.062   1.461   4.765  0.2295 -0.2139  0.4477
  186POPC  H15R21426   2.061   1.571   4.754 -0.0758 -0.2537  0.0810
  186POPC  H15S21427   2.170   1.436   4.757  0.3810  0.2945  0.8262
  186POPC  C21621428   2.013   1.426   4.907 -0.1230 -0.2675  0.3838
  186POPC  H16R21429   1.976   1.322   4.907  0.6173 -0.6283 -2.8108
  186POPC  H16S21430   1.930   1.498   4.925  0.5045  0.7469 -0.5960
  186POPC  C21721431   2.118   1.443   5.019  0.4025  0.2083  0.3982
  186POPC  H17R21432   2.113   1.552   5.039 -1.2069  0.3666 -0.6303
  186POPC  H17S21433   2.220   1.417   4.984  0.0420 -0.4458 -0.1958
  186POPC  C21821434   2.091   1.368   5.156 -0.6189 -0.3810 -0.0862
  186POPC  H18R21435   2.079   1.259   5.145  0.2187 -0.6898  1.6220
  186POPC  H18S21436   2.184   1.378   5.217 -1.9653  0.2503  1.9977
  186POPC  H18T21437   2.010   1.399   5.225 -0.8766 -1.0196 -0.1014
  186POPC   C3321438   1.754   1.094   3.747 -0.1903 -0.9369 -0.4627
  186POPC   H3X21439   1.814   1.001   3.749  3.4098  1.2036 -0.8149
  186POPC   H3Y21440   1.644   1.086   3.738 -0.3885  0.2541  0.5987
  186POPC   C3421441   1.752   1.170   3.884 -0.4251  0.1582 -0.2871
  186POPC   H4X21442   1.650   1.213   3.895 -1.2074 -1.3046 -1.4840
  186POPC   H4Y21443   1.825   1.254   3.891 -2.3642  1.8828  0.0134
  186POPC   C3521444   1.785   1.079   4.004  0.0150  0.5218  0.4390
  186POPC   H5X21445   1.893   1.055   4.015 -0.3526 -0.3284  2.7435
  186POPC   H5Y21446   1.724   0.987   3.996  0.7818  0.1295 -1.3053
  186POPC   C3621447   1.733   1.148   4.131 -0.6931 -0.3833 -0.0784
  186POPC   H6X21448   1.631   1.184   4.105 -1.2797  0.9895  3.5769
  186POPC   H6Y21449   1.799   1.232   4.159  1.8326 -1.3883 -2.4962
  186POPC   C3721450   1.717   1.059   4.254  0.1958  0.8917  0.3269
  186POPC   H7X21451   1.797   0.981   4.250  0.3586  1.0205  0.9111
  186POPC   H7Y21452   1.624   1.000   4.236 -0.4397  2.5259 -2.2510
  186POPC   C3821453   1.704   1.119   4.392 -0.5369  0.1943 -0.9501
  186POPC   H8X21454   1.605   1.168   4.392  0.4723  2.5696  2.2389
  186POPC   H8Y21455   1.789   1.189   4.398  1.7110 -2.3406 -1.1116
  186POPC   C3921456   1.706   1.012   4.502  0.3306  0.3380  0.1684
  186POPC   H9X21457   1.799   0.953   4.487  0.3901  0.7191 -1.0615
  186POPC   H9Y21458   1.617   0.949   4.485  0.4297 -0.4582  2.3050
  186POPC  C31021459   1.694   1.068   4.640  0.0575  0.8102 -0.6846
  186POPC  H10X21460   1.585   1.079   4.659 -0.2532 -2.6605  0.2640
  186POPC  H10Y21461   1.745   1.167   4.636 -1.0259  1.3938 -0.4395
  186POPC  C31121462   1.757   0.977   4.753 -0.5156 -0.4348  0.2962
  186POPC  H11X21463   1.868   0.981   4.748 -0.4199 -1.7601  0.9619
  186POPC  H11Y21464   1.724   0.874   4.728 -2.3586  0.4542 -1.1987
  186POPC  C31221465   1.698   1.016   4.888 -0.4763 -0.5012 -0.0050
  186POPC  H12X21466   1.587   1.014   4.882 -0.5322  1.4666 -0.2586
  186POPC  H12Y21467   1.733   1.120   4.908  2.9056 -1.3911 -0.6417
  186POPC  C31321468   1.755   0.919   4.994  0.1126 -0.0705  1.0283
  186POPC  H13X21469   1.866   0.925   4.997  0.2945 -2.4243  1.0128
  186POPC  H13Y21470   1.723   0.816   4.967  1.4632 -0.5238  1.0783
  186POPC  C31421471   1.700   0.960   5.131  0.4671 -0.1726 -0.4361
  186POPC  H14X21472   1.592   0.937   5.139  0.5243 -0.4545 -0.4634
  186POPC  H14Y21473   1.696   1.069   5.150 -1.8118 -0.5142  1.5507
  186POPC  C31521474   1.783   0.894   5.247  0.6919  0.2230  0.7107
  186POPC  H15X21475   1.776   0.788   5.217 -1.6686  1.1379 -2.6270
  186POPC  H15Y21476   1.744   0.918   5.348 -1.3542  1.3972 -0.2982
  186POPC  C31621477   1.933   0.930   5.246  0.2983 -0.6047  0.0401
  186POPC  H16X21478   1.955   1.039   5.256  0.4685 -0.7913  2.1568
  186POPC  H16Y21479   1.981   0.899   5.152 -1.3056 -1.8214 -0.4247
  186POPC  H16Z21480   1.982   0.883   5.334 -1.1346 -3.2389 -0.4468
  187POPC     N21481   0.593   4.115   2.443 -0.2895  0.1155 -0.1973
  187POPC   C1221482   0.439   4.082   2.454  0.0604 -0.0289 -0.5334
  187POPC  H12A21483   0.403   4.097   2.555  0.5833 -2.6574  0.1354
  187POPC  H12B21484   0.427   3.974   2.451 -1.1488  0.0303  0.9707
  187POPC   C1321485   0.670   4.038   2.545  0.0864 -0.5255  0.1826
  187POPC  H13A21486   0.654   3.931   2.544  1.0396 -0.6690 -0.5056
  187POPC  H13B21487   0.777   4.053   2.548 -0.0642  0.5702  2.0959
  187POPC  H13C21488   0.637   4.066   2.645 -2.4039  0.1789 -0.7439
  187POPC   C1421489   0.635   4.082   2.301 -0.1663  0.6046 -0.0612
  187POPC  H14A21490   0.634   3.977   2.274 -0.0990  1.1728 -2.5682
  187POPC  H14B21491   0.583   4.135   2.222 -2.1164  1.9283  1.9849
  187POPC  H14C21492   0.737   4.115   2.297  0.3742 -0.8856  0.6319
  187POPC   C1521493   0.610   4.258   2.467  0.6398 -0.5253 -0.8868
  187POPC  H15A21494   0.575   4.332   2.397  0.6156  1.0468  0.7368
  187POPC  H15B21495   0.716   4.269   2.488  0.3824  0.7741 -0.2064
  187POPC  H15C21496   0.560   4.284   2.559  2.9225  0.2092  0.2206
  187POPC   C1121497   0.334   4.147   2.357  0.5018  0.1403 -0.0970
  187POPC  H11A21498   0.242   4.086   2.369 -0.0895  1.5720  4.4441
  187POPC  H11B21499   0.364   4.138   2.250  1.1777  1.8271 -0.0816
  187POPC     P21500   0.186   4.352   2.313 -0.2912  0.3664 -0.0574
  187POPC   O1321501   0.154   4.276   2.185 -0.4939 -0.4585  0.2399
  187POPC   O1421502   0.216   4.496   2.295 -0.0419  0.5579 -0.4338
  187POPC   O1221503   0.306   4.290   2.383  0.4069  0.3397 -0.3033
  187POPC   O1121504   0.064   4.318   2.415 -0.1250 -0.0995 -0.8046
  187POPC    C121505   0.055   4.407   2.528  0.6284  0.3798  0.0196
  187POPC    HA21506  -0.031   4.477   2.529 -0.2101 -0.6068 -0.6276
  187POPC    HB21507   0.137   4.478   2.553  0.4509  0.4079  0.5279
  187POPC    C221508   0.044   4.328   2.664 -0.4110 -0.2661 -0.6858
  187POPC    HS21509   0.145   4.286   2.680 -0.5743 -0.4736 -0.1774
  187POPC   O2121510  -0.062   4.222   2.662 -0.0916 -0.0536  0.0984
  187POPC   C2121511  -0.023   4.113   2.732  0.1981 -0.0588  0.2761
  187POPC   O2221512   0.093   4.089   2.764  0.7289 -0.0747  0.1126
  187POPC   C2221513  -0.142   4.018   2.741  0.1494  0.5284  0.4354
  187POPC   H2R21514  -0.119   3.942   2.663  0.1957  0.7247  0.2577
  187POPC   H2S21515  -0.230   4.068   2.696  0.4340  1.6201  1.0445
  187POPC    C321516   0.007   4.422   2.787  0.3503  0.4742  1.3421
  187POPC    HX21517  -0.101   4.446   2.780  0.5255  1.3255  1.4465
  187POPC    HY21518   0.070   4.510   2.763  1.3643 -0.9626 -1.7391
  187POPC   O3121519   0.036   4.358   2.912  0.3831  0.0866  0.1398
  187POPC   C3121520   0.148   4.400   2.975 -0.3688  0.9306  0.4407
  187POPC   O3221521   0.225   4.477   2.929  0.4169 -0.2245 -0.2179
  187POPC   C3221522   0.153   4.345   3.115 -0.1641  0.0719  0.0444
  187POPC   H2X21523   0.149   4.234   3.113 -2.6202  0.0024  2.5463
  187POPC   H2Y21524   0.064   4.382   3.170  1.1940  1.0778  1.6747
  187POPC   C2321525  -0.152   3.946   2.876 -0.0408 -0.6686 -0.0784
  187POPC   H3R21526  -0.048   3.909   2.896  0.9266  2.3412  0.9753
  187POPC   H3S21527  -0.228   3.866   2.883  0.7926 -1.3934  1.1158
  187POPC   C2421528  -0.185   4.043   2.989 -0.0370 -0.1899  0.4630
  187POPC   H4R21529  -0.286   4.077   2.956 -0.3966 -1.5282  0.1042
  187POPC   H4S21530  -0.107   4.121   2.978 -0.6136  0.1174 -2.1724
  187POPC   C2521531  -0.201   3.993   3.129  0.1919  0.7963  0.0248
  187POPC   H5R21532  -0.243   3.891   3.138 -1.5770  1.5126  0.2192
  187POPC   H5S21533  -0.269   4.060   3.185 -0.8292  0.2240 -0.5187
  187POPC   C2621534  -0.067   3.976   3.199  0.8548 -0.6974 -0.0499
  187POPC   H6R21535  -0.028   4.075   3.233  1.2700 -1.1830  0.9583
  187POPC   H6S21536   0.008   3.925   3.134 -1.6787  0.3154 -4.0871
  187POPC   C2721537  -0.087   3.883   3.325 -0.2322 -0.5444  0.5835
  187POPC   H7R21538  -0.122   3.782   3.295 -1.6737  0.3931 -1.0672
  187POPC   H7S21539  -0.158   3.947   3.382  0.4673  1.3562 -0.5914
  187POPC   C2821540   0.048   3.863   3.403 -0.2051 -0.6755  0.2752
  187POPC   H8R21541   0.103   3.799   3.331 -1.8812 -1.6886 -0.1509
  187POPC   H8S21542   0.044   3.807   3.499 -0.3455 -0.2853  0.4998
  187POPC   C2921543   0.124   3.983   3.443  0.1106  0.5812 -0.0890
  187POPC   H9121544   0.212   4.011   3.383  0.5728  0.3069  0.4571
  187POPC  C21021545   0.107   4.063   3.553 -0.7992 -0.0380 -0.5396
  187POPC  H10121546   0.164   4.157   3.555 -0.0805 -0.4593 -0.5438
  187POPC  C21121547   0.002   4.066   3.657 -0.1793 -0.6588  0.4296
  187POPC  H11R21548  -0.060   3.974   3.651 -1.8676  0.4991 -0.6418
  187POPC  H11S21549  -0.075   4.144   3.641  1.0482  1.2702  2.9959
  187POPC  C21221550   0.061   4.091   3.794  0.4660  0.4140 -0.7009
  187POPC  H12R21551   0.139   4.170   3.795  0.2810  0.6455 -2.0982
  187POPC  H12S21552   0.119   4.001   3.823  1.5008  1.9332  2.3284
  187POPC  C21321553  -0.039   4.116   3.898  0.4020 -0.4925 -0.0828
  187POPC  H13R21554  -0.130   4.057   3.873  0.7458 -1.2785  0.4913
  187POPC  H13S21555  -0.076   4.221   3.893 -0.2612 -0.6487  1.0337
  187POPC  C21421556   0.011   4.090   4.037 -0.1226  0.0167  0.0411
  187POPC  H14R21557   0.111   4.136   4.054  0.7867 -1.3440 -1.3154
  187POPC  H14S21558   0.030   3.981   4.044  1.5513  0.0687 -2.3843
  187POPC  C21521559  -0.090   4.130   4.146 -0.4161  0.2734  0.7472
  187POPC  H15R21560  -0.192   4.093   4.122 -0.0936 -0.5411  0.6065
  187POPC  H15S21561  -0.083   4.240   4.155 -0.2272  0.1749  2.0801
  187POPC  C21621562  -0.058   4.087   4.298  0.0886 -0.6134 -0.3307
  187POPC  H16R21563  -0.004   4.168   4.351 -2.1608  0.7857 -0.0463
  187POPC  H16S21564   0.004   3.995   4.306 -0.1659 -0.8524 -1.0301
  187POPC  C21721565  -0.179   4.069   4.383 -0.2242 -0.5354  0.1247
  187POPC  H17R21566  -0.231   3.981   4.339  0.4072 -0.8170 -0.0636
  187POPC  H17S21567  -0.241   4.160   4.365  0.7422  0.3638  1.2133
  187POPC  C21821568  -0.140   4.042   4.530  0.3814 -0.7741 -0.9138
  187POPC  H18R21569  -0.057   3.968   4.544  0.6605 -0.6274 -1.7174
  187POPC  H18S21570  -0.225   3.997   4.585  0.6829 -1.3150 -0.8851
  187POPC  H18T21571  -0.126   4.137   4.585  0.5106 -1.0510 -0.4576
  187POPC   C3321572   0.286   4.387   3.181 -0.1859  0.3324 -1.0475
  187POPC   H3X21573   0.288   4.496   3.202  1.5293  0.2738 -0.7429
  187POPC   H3Y21574   0.377   4.369   3.121 -0.2460 -1.2119 -0.7221
  187POPC   C3421575   0.302   4.327   3.317  0.2242  0.6468 -0.0455
  187POPC   H4X21576   0.334   4.221   3.317 -0.5578  0.3693  1.5194
  187POPC   H4Y21577   0.204   4.318   3.370  0.6059 -1.5978  0.3900
  187POPC   C3521578   0.405   4.408   3.402  0.4576  0.1125  0.4886
  187POPC   H5X21579   0.375   4.515   3.411  2.7641  0.9129 -0.3974
  187POPC   H5Y21580   0.494   4.414   3.335 -1.0797 -2.3523 -1.9852
  187POPC   C3621581   0.435   4.371   3.550 -0.0859 -0.2876 -0.0963
  187POPC   H6X21582   0.530   4.417   3.583  0.6678 -1.1714 -0.9545
  187POPC   H6Y21583   0.445   4.261   3.562  0.6024 -0.1096  1.0674
  187POPC   C3721584   0.325   4.426   3.637 -0.1209 -0.1925 -0.6704
  187POPC   H7X21585   0.229   4.380   3.605 -2.4456  2.4723  1.8240
  187POPC   H7Y21586   0.335   4.537   3.633  0.4802 -0.0889  2.0321
  187POPC   C3821587   0.344   4.395   3.792 -0.0776 -0.6575 -0.5233
  187POPC   H8X21588   0.437   4.442   3.828  1.1628 -2.1306 -1.6782
  187POPC   H8Y21589   0.342   4.286   3.809 -0.7902 -0.2090  3.0809
  187POPC   C3921590   0.221   4.461   3.870 -0.4768 -0.0160  0.1316
  187POPC   H9X21591   0.127   4.418   3.831 -1.5892  0.3612  2.2777
  187POPC   H9Y21592   0.227   4.571   3.861 -1.0113 -0.0449 -0.7026
  187POPC  C31021593   0.240   4.439   4.017  0.3371  0.3524 -0.5141
  187POPC  H10X21594   0.325   4.502   4.050 -0.9132  1.1575  1.3368
  187POPC  H10Y21595   0.245   4.330   4.037 -0.7037  0.5332  0.9017
  187POPC  C31121596   0.126   4.498   4.104 -0.2172  0.0899  0.5616
  187POPC  H11X21597   0.038   4.434   4.080 -0.6518  0.6052  0.7531
  187POPC  H11Y21598   0.107   4.604   4.077  0.1970  0.7276  2.5951
  187POPC  C31221599   0.152   4.483   4.254 -0.8223  0.0100  0.7284
  187POPC  H12X21600   0.244   4.542   4.273 -1.1850  0.3206  1.5727
  187POPC  H12Y21601   0.180   4.380   4.285 -1.3641 -0.4328 -0.2381
  187POPC  C31321602   0.035   4.511   4.354  0.1206  1.1867  0.1990
  187POPC  H13X21603   0.069   4.458   4.445  2.2480 -0.0254 -1.1926
  187POPC  H13Y21604  -0.049   4.458   4.304 -0.7170  1.0082  1.7474
  187POPC  C31421605   0.010   4.650   4.386  0.0596  0.1858 -0.0336
  187POPC  H14X21606  -0.060   4.687   4.308  0.3807 -1.3997 -1.1193
  187POPC  H14Y21607   0.103   4.710   4.399  1.1640 -0.8665 -2.5052
  187POPC  C31521608  -0.060   4.659   4.531  0.8942  0.1991 -0.8190
  187POPC  H15X21609  -0.083   4.765   4.552 -0.8401  0.2873 -2.7755
  187POPC  H15Y21610   0.014   4.620   4.604 -1.8725  0.5832  2.3787
  187POPC  C31621611  -0.197   4.592   4.545  0.0604  0.4250  0.0846
  187POPC  H16X21612  -0.235   4.602   4.648  1.8194  0.4664  0.7633
  187POPC  H16Y21613  -0.172   4.485   4.527  0.2495 -0.0984  3.0476
  187POPC  H16Z21614  -0.276   4.622   4.472  1.1741  0.9881 -0.9285
  188POPC     N21615   1.001   6.457   2.197  0.0720 -0.1983 -0.7097
  188POPC   C1221616   0.953   6.353   2.295  0.0791 -0.1183  0.1644
  188POPC  H12A21617   0.887   6.284   2.244 -0.9108  1.7215 -1.1478
  188POPC  H12B21618   0.903   6.395   2.381 -0.1555 -1.4706  0.7222
  188POPC   C1321619   1.042   6.397   2.071 -0.0577 -0.0632 -0.2507
  188POPC  H13A21620   1.134   6.342   2.089 -0.7391 -1.2857 -0.3714
  188POPC  H13B21621   0.966   6.328   2.035  0.6405 -1.3761  0.6982
  188POPC  H13C21622   1.066   6.470   1.995  1.1061 -0.4644 -0.2943
  188POPC   C1421623   0.882   6.545   2.173  0.2436 -0.8889 -0.2589
  188POPC  H14A21624   0.831   6.573   2.264  0.7501 -0.4784 -0.0935
  188POPC  H14B21625   0.923   6.639   2.140  0.0151 -0.0139  1.8072
  188POPC  H14C21626   0.822   6.511   2.090 -1.0664  2.6968 -0.9730
  188POPC   C1521627   1.111   6.530   2.255 -0.0369 -0.0463  0.7427
  188POPC  H15A21628   1.166   6.591   2.185 -2.0036 -0.7030 -1.5086
  188POPC  H15B21629   1.178   6.452   2.289 -0.7445 -1.8391 -1.6833
  188POPC  H15C21630   1.079   6.594   2.336 -1.8862  0.5450 -0.4021
  188POPC   C1121631   1.064   6.256   2.345 -0.3896  0.2512  0.0492
  188POPC  H11A21632   1.112   6.209   2.256 -0.0015 -2.7176  1.6996
  188POPC  H11B21633   1.003   6.175   2.392 -0.9852  0.5687 -0.1625
  188POPC     P21634   1.129   6.368   2.575  0.0738 -0.1514 -0.1866
  188POPC   O1321635   0.984   6.389   2.585 -0.1114 -0.2826 -0.3105
  188POPC   O1421636   1.216   6.488   2.604  0.8975 -0.0485 -0.1295
  188POPC   O1221637   1.163   6.305   2.435  0.0071 -0.0019 -1.0568
  188POPC   O1121638   1.156   6.254   2.677 -0.0537  0.6665  0.3064
  188POPC    C121639   1.064   6.151   2.710 -0.1889  0.4102 -0.1883
  188POPC    HA21640   1.125   6.058   2.708  2.4599  2.0545 -0.3353
  188POPC    HB21641   0.998   6.136   2.622  0.2411 -0.1941 -0.4119
  188POPC    C221642   0.985   6.169   2.836  0.2753 -0.2361 -0.0260
  188POPC    HS21643   0.938   6.270   2.841 -0.0540 -0.1762 -2.6858
  188POPC   O2121644   1.075   6.142   2.941 -0.2713  0.3690 -0.4964
  188POPC   C2121645   1.111   6.249   3.012 -0.6042 -0.0581 -0.0363
  188POPC   O2221646   1.077   6.364   3.000 -0.3597  0.3881  0.3830
  188POPC   C2221647   1.203   6.197   3.123  0.5658  0.2383  0.1626
  188POPC   H2R21648   1.302   6.170   3.082  0.0725 -1.4843  0.0224
  188POPC   H2S21649   1.152   6.110   3.170 -0.4855  0.6821 -0.1300
  188POPC    C321650   0.858   6.068   2.847  0.4476 -0.2187 -0.4242
  188POPC    HX21651   0.902   5.967   2.832  1.2160 -0.1429  1.1131
  188POPC    HY21652   0.786   6.092   2.767  1.1157  1.2123 -0.6222
  188POPC   O3121653   0.794   6.081   2.974  0.0634 -0.2682 -0.5601
  188POPC   C3121654   0.724   6.184   3.002 -0.3371  0.4102 -0.3039
  188POPC   O3221655   0.694   6.272   2.928  0.5547 -0.1004 -0.5102
  188POPC   C3221656   0.677   6.158   3.143 -0.0309 -0.0758 -0.8245
  188POPC   H2X21657   0.683   6.051   3.173  2.2256  0.6559  1.6906
  188POPC   H2Y21658   0.569   6.185   3.150 -0.0281 -0.1451 -0.4985
  188POPC   C2321659   1.223   6.307   3.231 -0.4888 -0.3135 -0.1920
  188POPC   H3R21660   1.125   6.353   3.255  0.9968  2.2846  1.4973
  188POPC   H3S21661   1.287   6.390   3.193  0.1843 -0.2475  1.0284
  188POPC   C2421662   1.275   6.248   3.362 -0.6397 -0.3086  0.5371
  188POPC   H4R21663   1.383   6.223   3.354 -0.0448  1.0459  3.1896
  188POPC   H4S21664   1.208   6.161   3.377 -1.2613 -0.1644 -1.1720
  188POPC   C2521665   1.255   6.357   3.474 -0.5415  0.0298  0.0184
  188POPC   H5R21666   1.149   6.388   3.478 -0.0195  1.8777  0.5974
  188POPC   H5S21667   1.325   6.442   3.453  1.3143 -1.2238  0.8708
  188POPC   C2621668   1.290   6.288   3.606 -0.2201 -0.1625  0.3566
  188POPC   H6R21669   1.397   6.265   3.589 -0.1096  0.7486 -0.2482
  188POPC   H6S21670   1.230   6.196   3.617 -0.1874 -0.2098  0.1422
  188POPC   C2721671   1.270   6.395   3.715  0.3365 -0.8373  0.0573
  188POPC   H7R21672   1.161   6.415   3.725  0.0174 -1.1321 -2.3373
  188POPC   H7S21673   1.322   6.491   3.693 -3.0220  1.4420  1.3245
  188POPC   C2821674   1.327   6.355   3.852  0.1883  0.0750 -0.5496
  188POPC   H8R21675   1.334   6.436   3.928 -0.0810 -1.6874  1.4445
  188POPC   H8S21676   1.432   6.317   3.845  1.3459  2.9596 -0.2984
  188POPC   C2921677   1.229   6.257   3.910 -0.3981  0.6101  0.5405
  188POPC   H9121678   1.159   6.214   3.837  0.1500  1.2251 -0.3700
  188POPC  C21021679   1.229   6.203   4.030 -0.5600  0.0668 -0.2020
  188POPC  H10121680   1.143   6.141   4.059 -1.5495  1.5652  0.2004
  188POPC  C21121681   1.327   6.235   4.146 -0.3857  0.4638  0.1867
  188POPC  H11R21682   1.420   6.276   4.101  0.4651 -1.3444  0.2217
  188POPC  H11S21683   1.366   6.145   4.197 -1.0405 -0.1528 -0.3831
  188POPC  C21221684   1.265   6.345   4.238  0.0713  0.1879 -0.0605
  188POPC  H12R21685   1.178   6.307   4.295  0.2451  0.8378  0.6674
  188POPC  H12S21686   1.232   6.429   4.174 -1.7442 -0.2631  0.2521
  188POPC  C21321687   1.365   6.394   4.346  0.4374 -0.4556  0.1472
  188POPC  H13R21688   1.320   6.480   4.401 -1.7118 -1.6065  0.3061
  188POPC  H13S21689   1.453   6.432   4.290  0.0352  0.5365  0.1715
  188POPC  C21421690   1.398   6.293   4.458  0.1209  0.7575  0.0342
  188POPC  H14R21691   1.453   6.213   4.402  3.4432  1.4494  2.0220
  188POPC  H14S21692   1.302   6.258   4.501  0.5544 -0.6207 -0.0654
  188POPC  C21521693   1.479   6.362   4.570  0.3134 -0.1824  0.0039
  188POPC  H15R21694   1.419   6.444   4.614  0.5544  0.5383 -0.9781
  188POPC  H15S21695   1.580   6.388   4.532  1.0988 -0.5522  1.7415
  188POPC  C21621696   1.511   6.258   4.680 -0.6522 -0.6952 -0.4586
  188POPC  H16R21697   1.577   6.182   4.632 -0.9265 -0.9617 -0.4161
  188POPC  H16S21698   1.417   6.209   4.713 -2.5223  2.9576  0.1864
  188POPC  C21721699   1.582   6.315   4.806  0.9258 -0.1774 -0.2357
  188POPC  H17R21700   1.496   6.370   4.850  0.9192 -0.2131 -0.2042
  188POPC  H17S21701   1.665   6.386   4.784 -1.1418  3.0254  1.5214
  188POPC  C21821702   1.621   6.206   4.907 -0.2268 -0.2273 -0.7280
  188POPC  H18R21703   1.547   6.125   4.925  1.4633 -1.6129  0.2747
  188POPC  H18S21704   1.644   6.243   5.009 -3.3947 -0.7618  0.2898
  188POPC  H18T21705   1.697   6.144   4.855  1.7520  2.3732 -1.0980
  188POPC   C3321706   0.752   6.234   3.253 -0.3075 -0.5982  0.1038
  188POPC   H3X21707   0.753   6.344   3.235  1.9841 -0.4248  0.8744
  188POPC   H3Y21708   0.860   6.210   3.243  0.3056  0.3351  3.3267
  188POPC   C3421709   0.705   6.193   3.391  0.2053  0.3449  0.2383
  188POPC   H4X21710   0.684   6.084   3.402  0.5413 -0.0248 -2.2425
  188POPC   H4Y21711   0.601   6.230   3.408 -0.6361 -0.7082 -2.2237
  188POPC   C3521712   0.792   6.257   3.501 -0.2824 -0.3839 -0.4839
  188POPC   H5X21713   0.775   6.366   3.496 -1.1203 -0.5444 -4.5018
  188POPC   H5Y21714   0.902   6.237   3.499 -0.0671  0.1294  2.6331
  188POPC   C3621715   0.733   6.218   3.638 -0.3427  0.1875 -0.6500
  188POPC   H6X21716   0.749   6.111   3.661 -0.6168  0.3611  0.3758
  188POPC   H6Y21717   0.624   6.235   3.644 -0.6752 -2.1978  2.0282
  188POPC   C3721718   0.801   6.296   3.754  0.0967 -0.3657  0.5155
  188POPC   H7X21719   0.785   6.405   3.749  0.5702 -0.3130  0.0144
  188POPC   H7Y21720   0.911   6.276   3.760  0.4691  1.8366  2.1374
  188POPC   C3821721   0.746   6.242   3.887 -0.4455  0.3535  0.0248
  188POPC   H8X21722   0.763   6.133   3.888 -0.6786  0.2914 -1.0215
  188POPC   H8Y21723   0.639   6.261   3.908  0.1419  3.8427  0.4913
  188POPC   C3921724   0.802   6.306   4.014 -0.1693  0.1535  0.4545
  188POPC   H9X21725   0.772   6.413   4.025 -3.2804 -0.7225  1.4126
  188POPC   H9Y21726   0.912   6.298   4.000 -0.0157  2.2239  0.0671
  188POPC  C31021727   0.771   6.232   4.139  0.0797 -0.0118 -1.0396
  188POPC  H10X21728   0.832   6.280   4.219 -1.4597 -1.7962  1.3693
  188POPC  H10Y21729   0.795   6.123   4.138 -0.5626 -0.2075  0.5587
  188POPC  C31121730   0.628   6.249   4.191 -0.2717 -0.1105  0.1611
  188POPC  H11X21731   0.565   6.200   4.114  2.0254 -0.3522 -1.6873
  188POPC  H11Y21732   0.596   6.355   4.198  0.8889  0.1629  2.0978
  188POPC  C31221733   0.600   6.171   4.317  0.0726 -0.0671 -0.2579
  188POPC  H12X21734   0.607   6.062   4.296  2.1747 -0.2899  1.3664
  188POPC  H12Y21735   0.493   6.193   4.338  0.1587  1.1047 -0.9546
  188POPC  C31321736   0.690   6.200   4.437  0.3763  0.0804  0.1521
  188POPC  H13X21737   0.629   6.225   4.526 -0.4945 -0.1106 -0.3741
  188POPC  H13Y21738   0.755   6.286   4.412  0.0490  0.4557  0.5696
  188POPC  C31421739   0.785   6.085   4.465  0.6904  0.9900 -0.3466
  188POPC  H14X21740   0.825   6.062   4.364  0.4073  0.0949 -0.2635
  188POPC  H14Y21741   0.725   5.992   4.481  0.1813  1.4670  0.6154
  188POPC  C31521742   0.884   6.108   4.571  0.4982 -0.2291 -0.1085
  188POPC  H15X21743   0.937   6.015   4.599  1.1243  0.9987  3.2492
  188POPC  H15Y21744   0.838   6.136   4.668  1.0420  0.8768 -0.1557
  188POPC  C31621745   0.987   6.217   4.534 -0.1486 -0.4291 -0.5503
  188POPC  H16X21746   1.026   6.193   4.433  1.5121 -0.8816  0.1537
  188POPC  H16Y21747   1.071   6.201   4.605  1.1699  0.8414 -1.7620
  188POPC  H16Z21748   0.945   6.319   4.540  0.2776 -0.3117  0.9892
  189SAPI   C1221749   2.044   5.273   7.423  0.0971 -0.3448  0.3472
  189SAPI    H221750   2.144   5.314   7.449 -0.3344  0.7371  0.3891
  189SAPI    O221751   2.027   5.141   7.466  0.4736  0.1255  0.0875
  189SAPI   HO221752   2.090   5.092   7.413  1.0685  0.9922 -0.0369
  189SAPI   C1321753   1.939   5.365   7.474 -0.2669  1.1910 -0.0865
  189SAPI    H321754   1.956   5.462   7.422 -0.8503  1.1318 -0.3950
  189SAPI    O321755   1.966   5.397   7.607  0.3577 -0.0114 -0.3110
  189SAPI   HO321756   1.938   5.329   7.668  0.2223  0.1838 -0.1515
  189SAPI   C1421757   1.800   5.307   7.449 -0.0659  0.2149 -0.6375
  189SAPI    H421758   1.796   5.222   7.520  1.3605  0.6370  0.0022
  189SAPI    O421759   1.698   5.398   7.494 -0.2001  0.5004  0.0881
  189SAPI   HO421760   1.646   5.354   7.562 -0.6709 -0.1293 -0.6594
  189SAPI   C1521761   1.779   5.251   7.307 -0.0091 -0.1170  1.3254
  189SAPI    H521762   1.737   5.341   7.255  1.7830  1.0711  1.8489
  189SAPI    O521763   1.682   5.147   7.290 -0.3109  0.0776 -0.3033
  189SAPI   HO521764   1.731   5.065   7.295  1.1369  0.9594  0.9077
  189SAPI   C1621765   1.907   5.229   7.221  0.7426  0.7975  0.2336
  189SAPI    H621766   1.909   5.118   7.220  1.9293  0.8081 -0.4958
  189SAPI    O621767   1.884   5.271   7.084  0.5988 -0.3399  0.3342
  189SAPI   HO621768   1.896   5.365   7.072  0.3452 -0.3363  0.0972
  189SAPI   C1121769   2.038   5.278   7.278  0.1738  0.2306  1.0597
  189SAPI    H121770   2.047   5.385   7.251 -1.1999  0.0077 -0.4149
  189SAPI     P21771   2.285   5.268   7.184 -0.3599 -0.1535  0.1822
  189SAPI   O1321772   2.369   5.178   7.095  0.2025  0.2939  0.4751
  189SAPI   O1421773   2.354   5.305   7.310  0.3045 -0.1582  0.2964
  189SAPI   O1221774   2.138   5.201   7.213  0.2677  0.1608  0.0330
  189SAPI   O1121775   2.259   5.403   7.104  0.4900 -0.7620 -0.3593
  189SAPI    C121776   2.189   5.393   6.976 -0.6897 -0.3154 -0.5462
  189SAPI    HA21777   2.133   5.299   6.957 -0.8823 -0.7502  1.8322
  189SAPI    HB21778   2.108   5.469   6.983 -0.3852  0.0416 -0.8801
  189SAPI    C221779   2.288   5.409   6.853  0.5679  0.2659  0.6447
  189SAPI    HS21780   2.368   5.333   6.863  0.5802  0.4082  1.7244
  189SAPI   O2121781   2.341   5.543   6.851 -0.3363  0.4843 -0.0882
  189SAPI   C2121782   2.463   5.553   6.806 -0.2701  0.3389 -0.0260
  189SAPI   O2221783   2.539   5.466   6.775 -0.8942  0.2306 -0.5924
  189SAPI   C2221784   2.492   5.703   6.810  0.2485 -0.1852 -0.0515
  189SAPI   H2R21785   2.405   5.758   6.851  0.6715 -0.4899  1.3171
  189SAPI   H2S21786   2.578   5.709   6.880  0.2665  2.0628 -0.1934
  189SAPI    C321787   2.210   5.366   6.716 -0.2042 -0.0731  0.1982
  189SAPI    HX21788   2.111   5.415   6.717  0.2791  0.9197  0.7639
  189SAPI    HY21789   2.198   5.257   6.733  0.9463 -0.1029  0.9415
  189SAPI   O3121790   2.289   5.403   6.597 -0.2024  0.6265 -0.0690
  189SAPI   C3121791   2.365   5.301   6.544 -0.2781  0.1954  0.6978
  189SAPI   O3221792   2.378   5.188   6.583  0.7845 -0.3961 -0.0608
  189SAPI   C3221793   2.419   5.351   6.412 -0.3899  0.2874 -0.4740
  189SAPI   H2X21794   2.515   5.405   6.427  0.7439 -1.4309 -1.2131
  189SAPI   H2Y21795   2.342   5.417   6.366 -2.1419 -0.5328  1.1524
  189SAPI   C2321796   2.534   5.748   6.673  0.3872  0.9440  0.1870
  189SAPI   H3R21797   2.466   5.710   6.594  1.2948  1.5260 -0.9158
  189SAPI   H3S21798   2.632   5.700   6.651 -0.1661  0.3586 -1.0881
  189SAPI   C2421799   2.567   5.894   6.657  0.0734  0.2369  0.0473
  189SAPI   H4R21800   2.645   5.930   6.727 -0.8819  0.7899  0.8520
  189SAPI   H4S21801   2.475   5.953   6.679 -1.7241 -3.1219  2.3918
  189SAPI   C2521802   2.614   5.926   6.518 -0.4479  0.4777 -0.8901
  189SAPI   H5R21803   2.721   5.951   6.513  0.0645 -0.5154  2.4796
  189SAPI   C2621804   2.555   5.895   6.401 -0.3593  1.2235 -0.6316
  189SAPI   H6R21805   2.610   5.930   6.312 -0.5467 -0.3133 -1.3981
  189SAPI   C2721806   2.412   5.842   6.389 -0.4697 -0.3487  0.4384
  189SAPI   H7R21807   2.359   5.924   6.338 -1.4317 -0.2781  1.5063
  189SAPI   H7S21808   2.350   5.837   6.482 -0.1449 -1.1294  0.6231
  189SAPI   C2821809   2.398   5.722   6.306 -0.7215  0.6406  0.1872
  189SAPI   H8R21810   2.372   5.632   6.363 -1.2296  0.4491 -0.3362
  189SAPI   C2921811   2.410   5.706   6.170  0.1169 -0.4729  0.2589
  189SAPI   H9R21812   2.374   5.614   6.121  1.0224 -0.6272 -0.1465
  189SAPI  C21021813   2.459   5.827   6.087  0.2937  0.8207 -0.0778
  189SAPI  H10R21814   2.463   5.924   6.141 -2.8855  1.9023 -1.5447
  189SAPI  H10S21815   2.383   5.848   6.009  1.0584  3.0308 -0.2969
  189SAPI  C21121816   2.596   5.814   6.028  0.0356  0.7769 -0.5751
  189SAPI  H11R21817   2.682   5.858   6.082 -1.1608  0.8879  1.3382
  189SAPI  C21221818   2.626   5.749   5.914  0.3117  0.4513  1.0566
  189SAPI  H12R21819   2.731   5.746   5.880  0.7317 -1.1978  2.3741
  189SAPI  C21321820   2.534   5.663   5.833  0.4148  0.0949 -0.5206
  189SAPI  H13R21821   2.447   5.723   5.798  0.2684 -0.1895 -0.6481
  189SAPI  H13S21822   2.491   5.591   5.906 -0.7301  0.0204 -1.2435
  189SAPI  C21421823   2.600   5.595   5.723  0.5917  0.2076  0.2660
  189SAPI  H14R21824   2.636   5.494   5.750 -1.9096 -0.8739 -0.1120
  189SAPI  C21521825   2.646   5.659   5.608  0.2832  0.4568 -0.3642
  189SAPI  H15R21826   2.708   5.611   5.531  0.3797  2.4900 -1.6349
  189SAPI  C21621827   2.630   5.808   5.579  0.8841  0.6206 -0.6771
  189SAPI  H16R21828   2.621   5.866   5.673 -0.0898  1.5353 -1.3030
  189SAPI  H16S21829   2.542   5.838   5.517  0.2907 -0.5317 -0.4198
  189SAPI  C21721830   2.756   5.874   5.515 -0.2422 -0.3907 -0.0161
  189SAPI  H17R21831   2.849   5.854   5.572  1.5110 -1.3634 -2.9734
  189SAPI  H17S21832   2.732   5.982   5.524  0.0911 -0.1883 -1.3051
  189SAPI  C21821833   2.777   5.831   5.366 -0.0633  0.2235  0.0979
  189SAPI  H18R21834   2.696   5.870   5.301  0.9657  0.6424 -0.9810
  189SAPI  H18S21835   2.788   5.720   5.361  0.2289  0.1638  1.6637
  189SAPI  C21921836   2.902   5.894   5.307 -1.1988  0.1553  0.2803
  189SAPI  H19R21837   2.985   5.835   5.352  0.8562  3.1254  0.6784
  189SAPI  H19S21838   2.903   6.001   5.336  0.6674  0.0192  0.8050
  189SAPI  C22021839   2.914   5.885   5.157  0.5506  0.2363 -0.0463
  189SAPI  H20R21840   2.904   5.783   5.113  0.3882 -0.5396  1.7253
  189SAPI  H20S21841   3.007   5.937   5.123  1.3462 -0.9153  0.2994
  189SAPI  H20T21842   2.839   5.950   5.107 -0.1562 -0.2509  0.3659
  189SAPI   C3321843   2.442   5.237   6.303  0.5247  0.2086  0.1367
  189SAPI   H3X21844   2.348   5.180   6.294  0.9779 -0.6139  0.5181
  189SAPI   H3Y21845   2.520   5.164   6.334 -0.9810 -1.1883  0.7642
  189SAPI   C3421846   2.489   5.297   6.165  0.4544 -0.0986  0.1360
  189SAPI   H4X21847   2.575   5.366   6.178  1.1831 -0.7947 -0.8664
  189SAPI   H4Y21848   2.404   5.361   6.134 -0.8002 -2.1777 -0.9325
  189SAPI   C3521849   2.504   5.186   6.057  0.6140 -0.1281  0.4140
  189SAPI   H5X21850   2.411   5.126   6.050  0.1184  0.4524  1.7582
  189SAPI   H5Y21851   2.592   5.121   6.077  1.8415  1.5570  0.7795
  189SAPI   C3621852   2.512   5.242   5.916  0.9152  0.6083 -0.3475
  189SAPI   H6X21853   2.616   5.279   5.907  1.7039 -0.8759  1.7012
  189SAPI   H6Y21854   2.430   5.309   5.884 -0.9237 -0.2821  2.2292
  189SAPI   C3721855   2.500   5.134   5.808 -0.5659 -0.2026 -0.4410
  189SAPI   H7X21856   2.405   5.077   5.814 -0.3917 -0.5407 -0.8468
  189SAPI   H7Y21857   2.581   5.059   5.827 -2.3381 -2.1288 -0.0718
  189SAPI   C3821858   2.537   5.192   5.668  0.0928 -0.9168 -0.1772
  189SAPI   H8X21859   2.642   5.229   5.674  0.0909 -0.9924  0.3194
  189SAPI   H8Y21860   2.469   5.277   5.644 -1.0814 -0.2693  4.4690
  189SAPI   C3921861   2.517   5.097   5.556 -0.6336  0.7828 -0.1264
  189SAPI   H9X21862   2.413   5.062   5.544 -0.7118  0.7673  0.5861
  189SAPI   H9Y21863   2.579   5.007   5.578  2.2239  1.4778 -4.1239
  189SAPI  C31021864   2.556   5.160   5.423 -0.0359  0.2708  0.3523
  189SAPI  H10X21865   2.533   5.268   5.412 -2.0877 -0.2681 -1.4124
  189SAPI  H10Y21866   2.491   5.121   5.341  1.4335  1.2567 -1.3522
  189SAPI  C31121867   2.702   5.137   5.371 -0.0579 -0.4446 -0.3341
  189SAPI  H11X21868   2.762   5.158   5.462 -0.4316 -0.1840 -0.1452
  189SAPI  H11Y21869   2.731   5.217   5.300  1.0647 -0.0988  0.4898
  189SAPI  C31221870   2.727   4.999   5.316  0.0724 -0.4825  0.4568
  189SAPI  H12X21871   2.652   4.965   5.241  1.8765  1.6657 -2.5463
  189SAPI  H12Y21872   2.731   4.926   5.400 -0.0251 -0.1666  0.7380
  189SAPI  C31321873   2.865   4.993   5.242 -0.2524 -0.2125 -0.1798
  189SAPI  H13X21874   2.911   4.894   5.259  0.2671  0.0775  0.1333
  189SAPI  H13Y21875   2.926   5.080   5.274 -0.6953 -0.0351  0.2007
  189SAPI  C31421876   2.845   5.003   5.092 -0.2144  0.3076 -0.3482
  189SAPI  H14X21877   2.767   5.080   5.074  0.8480  1.9272  1.5853
  189SAPI  H14Y21878   2.811   4.904   5.056 -1.7255  0.5383  0.3462
  189SAPI  C31521879   2.974   5.043   5.016 -0.1937 -0.2501 -0.0193
  189SAPI  H15X21880   2.954   5.039   4.907  0.9066  0.0297 -0.2415
  189SAPI  H15Y21881   3.049   4.965   5.042 -0.0034  0.0292  0.2800
  189SAPI  C31621882   3.032   5.184   5.062  0.1968 -0.0320  0.7002
  189SAPI  H16X21883   3.119   5.201   4.995  0.7593 -1.5639  0.9870
  189SAPI  H16Y21884   3.079   5.174   5.163  2.2331  0.5579 -0.1369
  189SAPI  C31721885   2.935   5.303   5.048  0.4939 -0.1080 -0.2558
  189SAPI  H17X21886   2.886   5.314   5.147  1.0359 -0.9151  0.1119
  189SAPI  H17Y21887   2.856   5.279   4.973 -1.3581  0.2441  1.4912
  189SAPI  C31821888   2.999   5.443   5.018 -0.7868 -0.9800  0.8519
  189SAPI  H18X21889   3.045   5.439   4.918  0.1904  0.0081  1.2444
  189SAPI  H18Y21890   3.079   5.473   5.089 -1.8885  1.7315  1.0739
  189SAPI  H18Z21891   2.921   5.521   5.003  0.0490  0.4827  3.4351
  190SAPI   C1221892   3.300   3.351   7.507  0.1404  0.2581 -0.0344
  190SAPI    H221893   3.215   3.413   7.543 -2.5334 -2.9255 -0.3414
  190SAPI    O221894   3.402   3.323   7.605 -0.2375 -0.2264  0.5326
  190SAPI   HO221895   3.389   3.392   7.671 -2.5967  0.2700 -0.3590
  190SAPI   C1321896   3.238   3.220   7.456  0.0341  0.2006  0.1477
  190SAPI    H321897   3.169   3.243   7.372  0.4651  0.6417 -0.0898
  190SAPI    O321898   3.163   3.157   7.566 -0.3892 -0.8547  0.9743
  190SAPI   HO321899   3.182   3.209   7.644 -1.7982 -1.2880  1.6485
  190SAPI   C1421900   3.347   3.128   7.402 -0.5068 -0.2158  0.3739
  190SAPI    H421901   3.399   3.076   7.486 -1.9690 -1.1473  0.7368
  190SAPI    O421902   3.290   3.022   7.326  0.1783  0.7108 -0.4545
  190SAPI   HO421903   3.244   3.054   7.248  0.9622  0.1410 -1.1647
  190SAPI   C1521904   3.463   3.201   7.326  0.5298  0.5167  0.0311
  190SAPI    H521905   3.435   3.191   7.219  1.4727 -2.9095  0.0069
  190SAPI    O521906   3.584   3.133   7.343 -0.3598  0.4545  0.1074
  190SAPI   HO521907   3.587   3.049   7.295  0.8749 -0.2857  1.4014
  190SAPI   C1621908   3.481   3.354   7.347 -0.1975  0.4815  0.1503
  190SAPI    H621909   3.550   3.366   7.433  0.4196 -1.2465 -0.0723
  190SAPI    O621910   3.537   3.421   7.234  0.9414  0.3076 -0.2818
  190SAPI   HO621911   3.513   3.513   7.247  0.0638  0.2862 -1.6013
  190SAPI   C1121912   3.355   3.420   7.380  0.2954  0.0380 -0.0351
  190SAPI    H121913   3.282   3.410   7.296  0.3347 -0.3974 -0.0238
  190SAPI     P21914   3.273   3.661   7.378  0.2545 -0.0140  0.1659
  190SAPI   O1321915   3.333   3.797   7.392 -0.2947  0.1638 -0.2517
  190SAPI   O1421916   3.150   3.634   7.451 -0.4960 -0.0461  0.4516
  190SAPI   O1221917   3.391   3.557   7.406  0.3478  0.3352 -0.4157
  190SAPI   O1121918   3.240   3.637   7.226  0.3916 -0.1454  0.6592
  190SAPI    C121919   3.343   3.667   7.127 -0.3211 -1.1003  0.0162
  190SAPI    HA21920   3.444   3.695   7.162  0.3162 -0.4044 -2.2132
  190SAPI    HB21921   3.364   3.575   7.069 -0.1430 -1.2498  0.3147
  190SAPI    C221922   3.292   3.764   7.013  0.0299  0.1123 -0.6056
  190SAPI    HS21923   3.249   3.854   7.063  0.4029  1.9874 -3.4471
  190SAPI   O2121924   3.195   3.696   6.934  0.0089  0.1809  0.1612
  190SAPI   C2121925   3.129   3.768   6.848  0.4736 -0.1083 -0.7942
  190SAPI   O2221926   3.147   3.889   6.832 -0.0539  0.0246  1.0552
  190SAPI   C2221927   3.039   3.672   6.770  0.5647  0.0577 -0.2491
  190SAPI   H2R21928   2.960   3.638   6.840  3.3673 -2.0899  2.1567
  190SAPI   H2S21929   2.987   3.725   6.687  1.1055  1.6425  0.3712
  190SAPI    C321930   3.414   3.830   6.935  0.0364 -0.5827 -0.1048
  190SAPI    HX21931   3.483   3.870   7.011  1.8507 -0.8132 -1.5636
  190SAPI    HY21932   3.371   3.920   6.885  2.4255  0.3030 -0.7204
  190SAPI   O3121933   3.475   3.729   6.853 -0.5763  0.5890  0.0681
  190SAPI   C3121934   3.598   3.756   6.810  0.0703  0.5434 -0.5077
  190SAPI   O3221935   3.660   3.854   6.846 -0.7673  0.4655 -0.4357
  190SAPI   C3221936   3.649   3.642   6.711  0.0228  0.3066 -0.4218
  190SAPI   H2X21937   3.567   3.567   6.711  0.5594 -0.3220  1.2006
  190SAPI   H2Y21938   3.736   3.590   6.755  0.6013  0.7826 -0.9820
  190SAPI   C2321939   3.120   3.546   6.719 -0.3869 -0.1828  0.0284
  190SAPI   H3R21940   3.039   3.481   6.680 -0.2232  0.9119 -2.3604
  190SAPI   H3S21941   3.173   3.482   6.793 -1.0960 -0.7700  0.0330
  190SAPI   C2421942   3.218   3.582   6.607 -0.1701  0.0699 -0.3274
  190SAPI   H4R21943   3.311   3.627   6.646  0.5424 -1.5042 -0.1593
  190SAPI   H4S21944   3.176   3.662   6.542 -2.3139  0.6919  1.6529
  190SAPI   C2521945   3.254   3.458   6.529  0.0762 -0.2359 -0.1896
  190SAPI   H5R21946   3.311   3.387   6.590  0.7191 -1.1107 -1.7446
  190SAPI   C2621947   3.238   3.426   6.394 -0.4719 -0.3218  0.3933
  190SAPI   H6R21948   3.281   3.330   6.363 -1.4389 -0.5731 -0.1899
  190SAPI   C2721949   3.166   3.511   6.286  0.1396  0.5750 -0.3873
  190SAPI   H7R21950   3.243   3.525   6.208  1.6169  0.7407  1.0610
  190SAPI   H7S21951   3.149   3.609   6.335  1.6126  0.5392  0.2367
  190SAPI   C2821952   3.038   3.454   6.236 -0.0993 -0.8785 -0.4554
  190SAPI   H8R21953   2.954   3.469   6.304  0.5446 -0.0942  0.1839
  190SAPI   C2921954   2.998   3.425   6.111  0.1381 -0.0649 -0.3565
  190SAPI   H9R21955   2.903   3.372   6.096  1.0321 -1.2523 -2.1839
  190SAPI  C21021956   3.078   3.427   5.984 -0.4481 -0.9534  0.1884
  190SAPI  H10R21957   3.036   3.358   5.908 -1.3639  0.3398 -0.5277
  190SAPI  H10S21958   3.181   3.392   6.007 -0.3126  0.1159  1.3170
  190SAPI  C21121959   3.099   3.564   5.923 -0.1852  0.1663 -0.0485
  190SAPI  H11R21960   3.141   3.637   5.994 -2.3419  1.9919 -0.5241
  190SAPI  C21221961   3.073   3.596   5.789  0.3177  0.2488  0.0088
  190SAPI  H12R21962   3.096   3.697   5.750  3.5214  0.1964  1.4024
  190SAPI  C21321963   3.006   3.504   5.687 -0.1472  0.4315 -0.1048
  190SAPI  H13R21964   2.955   3.573   5.616 -1.0940 -2.0715 -2.0039
  190SAPI  H13S21965   2.925   3.445   5.735 -1.0901  0.9800 -0.9716
  190SAPI  C21421966   3.098   3.407   5.620 -0.1210 -0.3397 -0.5487
  190SAPI  H14R21967   3.160   3.341   5.681  0.0926 -0.3420 -0.7691
  190SAPI  C21521968   3.108   3.397   5.492 -0.1466 -0.0166  0.1900
  190SAPI  H15R21969   3.186   3.329   5.455 -0.0773 -0.7839  1.6823
  190SAPI  C21621970   3.021   3.470   5.386 -0.0144 -0.1176  0.8971
  190SAPI  H16R21971   3.083   3.558   5.359  1.3233 -0.6926  1.9923
  190SAPI  H16S21972   2.921   3.513   5.408 -1.0551 -1.9918  0.0712
  190SAPI  C21721973   3.001   3.383   5.262 -0.8538  0.4395 -0.1228
  190SAPI  H17R21974   3.103   3.352   5.229 -0.8234 -1.5550  1.6311
  190SAPI  H17S21975   2.961   3.436   5.173  0.5964  2.0176  0.1183
  190SAPI  C21821976   2.918   3.251   5.285 -0.1563 -0.1106  0.6939
  190SAPI  H18R21977   2.956   3.203   5.377  0.2686  0.7592  0.9843
  190SAPI  H18S21978   2.943   3.176   5.207 -1.9195  0.2189 -0.2391
  190SAPI  C21921979   2.766   3.267   5.298 -0.7374  0.9086 -0.7594
  190SAPI  H19R21980   2.743   3.354   5.233 -2.3595 -0.4593 -2.0853
  190SAPI  H19S21981   2.734   3.296   5.400  1.5635 -0.6771  0.5138
  190SAPI  C22021982   2.677   3.153   5.248  0.3504 -0.0097  0.1894
  190SAPI  H20R21983   2.671   3.077   5.330  2.2334 -1.8785 -1.2893
  190SAPI  H20S21984   2.717   3.101   5.159 -0.5841 -0.3965 -0.0120
  190SAPI  H20T21985   2.573   3.188   5.230  0.6238  1.6896  1.6643
  190SAPI   C3321986   3.690   3.691   6.570 -0.6272  0.4647  0.2524
  190SAPI   H3X21987   3.725   3.607   6.507  1.7246  1.0106  0.7511
  190SAPI   H3Y21988   3.777   3.760   6.566 -0.4062  0.1883  0.3122
  190SAPI   C3421989   3.580   3.777   6.506 -0.0337  0.0280  0.1689
  190SAPI   H4X21990   3.581   3.881   6.544 -1.2408 -0.0920  0.5933
  190SAPI   H4Y21991   3.484   3.726   6.530  1.0488 -1.8025  0.8508
  190SAPI   C3521992   3.588   3.779   6.357  0.1640  0.2910  0.5604
  190SAPI   H5X21993   3.605   3.674   6.325 -3.0574 -0.2543  0.3021
  190SAPI   H5Y21994   3.672   3.842   6.321 -1.2543  0.6857 -2.3148
  190SAPI   C3621995   3.459   3.812   6.288  0.6854  0.3081  0.7544
  190SAPI   H6X21996   3.427   3.918   6.302  2.3226  1.1942 -1.5501
  190SAPI   H6Y21997   3.382   3.740   6.324  0.7199  0.5314  1.2938
  190SAPI   C3721998   3.472   3.790   6.137 -0.2460  0.0722 -0.2142
  190SAPI   H7X21999   3.516   3.689   6.121 -0.0757  0.1601 -0.3149
  190SAPI   H7Y22000   3.546   3.870   6.113 -0.0695  0.3698  1.2486
  190SAPI   C3822001   3.340   3.804   6.065  0.3876  0.1291  0.2469
  190SAPI   H8X22002   3.319   3.911   6.088 -1.2405 -0.3959  1.3887
  190SAPI   H8Y22003   3.257   3.741   6.104  0.9957 -2.1749 -1.9035
  190SAPI   C3922004   3.336   3.797   5.907  0.2202  0.2350  1.0788
  190SAPI   H9X22005   3.232   3.806   5.868 -0.2644  0.9594  2.4701
  190SAPI   H9Y22006   3.349   3.690   5.882 -2.3113 -0.7294  3.2732
  190SAPI  C31022007   3.427   3.898   5.829  1.1172  0.7136  0.0419
  190SAPI  H10X22008   3.516   3.927   5.889  1.1908 -0.9732  0.8246
  190SAPI  H10Y22009   3.368   3.991   5.814 -0.5613 -0.3910 -0.5141
  190SAPI  C31122010   3.473   3.838   5.702 -0.4161  0.2049 -0.1508
  190SAPI  H11X22011   3.556   3.764   5.714 -1.5794 -0.9954  0.8418
  190SAPI  H11Y22012   3.521   3.920   5.645  0.2511 -0.5926 -0.7843
  190SAPI  C31222013   3.367   3.783   5.607 -0.4359 -0.3328  0.0825
  190SAPI  H12X22014   3.270   3.836   5.611 -0.1991  0.0311  1.4357
  190SAPI  H12Y22015   3.347   3.676   5.630 -2.5159 -1.1102 -4.3181
  190SAPI  C31322016   3.414   3.785   5.456  0.5501 -0.5427 -0.4109
  190SAPI  H13X22017   3.501   3.716   5.462  0.2073 -0.9151  0.5764
  190SAPI  H13Y22018   3.444   3.889   5.432  0.2871 -0.4853 -0.4975
  190SAPI  C31422019   3.305   3.723   5.367 -0.6470  0.3118 -0.0543
  190SAPI  H14X22020   3.216   3.782   5.399 -0.2974  0.8247 -0.0208
  190SAPI  H14Y22021   3.285   3.616   5.389  1.1524  0.0193  0.3035
  190SAPI  C31522022   3.338   3.747   5.210 -0.2383  0.1870 -0.6392
  190SAPI  H15X22023   3.423   3.685   5.176  1.0036  1.5810 -0.1447
  190SAPI  H15Y22024   3.363   3.854   5.201 -2.3781  0.6614 -1.8583
  190SAPI  C31622025   3.218   3.736   5.118 -0.0937  0.5708  0.5794
  190SAPI  H16X22026   3.130   3.790   5.159 -0.1548  0.2146  0.9281
  190SAPI  H16Y22027   3.189   3.629   5.129 -1.1891  0.8574  0.5893
  190SAPI  C31722028   3.244   3.761   4.974  0.7424  0.0766  0.1982
  190SAPI  H17X22029   3.322   3.684   4.954  0.2287 -0.7867  1.3685
  190SAPI  H17Y22030   3.285   3.859   4.942 -0.1879 -0.3374 -2.5134
  190SAPI  C31822031   3.122   3.736   4.878 -0.6610 -0.1919  0.5336
  190SAPI  H18X22032   3.041   3.810   4.892  1.2966  2.2545 -0.3085
  190SAPI  H18Y22033   3.081   3.636   4.903 -0.2686 -0.1488  1.4222
  190SAPI  H18Z22034   3.160   3.730   4.774  0.1329  0.8831  0.7377
  191SAPI   C1222035   3.789   0.716   3.072  0.1425  0.0361 -0.0579
  191SAPI    H222036   3.834   0.707   3.173  1.1664  1.1239 -0.4038
  191SAPI    O222037   3.869   0.646   2.980 -0.1319 -0.2292 -0.4420
  191SAPI   HO222038   3.932   0.711   2.947  2.4423 -2.5152 -0.3610
  191SAPI   C1322039   3.648   0.655   3.088  0.1932  0.2719 -0.0802
  191SAPI    H322040   3.585   0.721   3.152 -1.1465 -0.4276 -0.6529
  191SAPI    O322041   3.659   0.524   3.149  0.0143 -0.0636  0.1333
  191SAPI   HO322042   3.595   0.522   3.220 -2.4403  1.3838 -1.8654
  191SAPI   C1422043   3.585   0.658   2.947  0.1012 -0.2884 -0.4354
  191SAPI    H422044   3.631   0.575   2.890 -0.5105  0.5002 -2.1401
  191SAPI    O422045   3.454   0.616   2.948 -0.2125 -0.2929  0.0969
  191SAPI   HO422046   3.443   0.538   2.893  2.7175 -2.5213  2.3601
  191SAPI   C1522047   3.611   0.778   2.855  0.9875  0.3945  0.1725
  191SAPI    H522048   3.530   0.853   2.865  1.2805  0.9485 -1.3663
  191SAPI    O522049   3.629   0.731   2.720  0.3562 -0.2136  0.0324
  191SAPI   HO522050   3.553   0.753   2.665  0.5475  0.2820 -0.0412
  191SAPI   C1622051   3.729   0.872   2.894  0.1941  0.5965  0.1041
  191SAPI    H622052   3.817   0.846   2.832 -0.5407  2.4718 -1.8532
  191SAPI    O622053   3.711   1.009   2.858  0.9709  0.2352  0.2469
  191SAPI   HO622054   3.790   1.059   2.877  0.8509 -0.0953  1.7814
  191SAPI   C1122055   3.765   0.866   3.045  0.3515  0.8036  0.1370
  191SAPI    H122056   3.684   0.907   3.109  1.3056  0.7600  1.4126
  191SAPI     P22057   3.924   1.017   3.205 -0.0381  0.0916 -0.3232
  191SAPI   O1322058   3.792   1.064   3.251  0.3496 -0.3185  0.2415
  191SAPI   O1422059   4.038   1.109   3.187 -0.3519 -0.5470  0.1964
  191SAPI   O1222060   3.894   0.928   3.069  0.2033  0.3741  0.4167
  191SAPI   O1122061   3.969   0.903   3.301 -0.0573  0.5039 -0.2644
  191SAPI    C122062   4.093   0.836   3.284  0.0321  0.2900  0.4024
  191SAPI    HA22063   4.076   0.728   3.263 -3.0543  0.8127 -0.2869
  191SAPI    HB22064   4.149   0.875   3.197 -0.5218  2.1041  0.8103
  191SAPI    C222065   4.179   0.858   3.419 -0.5552  0.4937 -0.4294
  191SAPI    HS22066   4.281   0.817   3.410 -1.4187 -1.4493 -2.3607
  191SAPI   O2122067   4.118   0.800   3.538  0.9082  0.5827  0.0198
  191SAPI   C2122068   4.143   0.670   3.552  0.8060 -0.7968 -0.3442
  191SAPI   O2222069   4.200   0.599   3.480 -0.0626  0.4430  0.7081
  191SAPI   C2222070   4.059   0.621   3.667  0.5007 -0.1649  0.1709
  191SAPI   H2R22071   4.039   0.705   3.737  0.9244 -0.6479  0.8853
  191SAPI   H2S22072   3.972   0.568   3.623  0.2115 -0.1158  0.6737
  191SAPI    C322073   4.215   0.998   3.450  0.7276 -0.4636  0.4300
  191SAPI    HX22074   4.125   1.053   3.488  1.4426  1.1668 -0.1413
  191SAPI    HY22075   4.260   1.047   3.361  0.7041 -0.8333  0.2146
  191SAPI   O3122076   4.322   1.002   3.543 -0.1931  0.3216  0.3419
  191SAPI   C3122077   4.356   1.116   3.600 -0.3567 -0.0014  0.6660
  191SAPI   O3222078   4.328   1.226   3.556 -0.6838  0.0327  0.1565
  191SAPI   C3222079   4.431   1.080   3.724 -0.6149  0.7155  0.4492
  191SAPI   H2X22080   4.526   1.137   3.720 -0.2353  0.0968  0.5159
  191SAPI   H2Y22081   4.466   0.975   3.724  1.2901  1.3069  1.5201
  191SAPI   C2322082   4.135   0.508   3.751  0.5133 -0.1914  0.0235
  191SAPI   H3R22083   4.148   0.434   3.669 -0.7823 -0.4013 -0.0196
  191SAPI   H3S22084   4.067   0.451   3.818  0.7361 -2.3654 -1.4668
  191SAPI   C2422085   4.262   0.564   3.822 -0.4528 -0.3064 -0.1415
  191SAPI   H4R22086   4.319   0.618   3.743 -0.3322  1.2056  0.9486
  191SAPI   H4S22087   4.307   0.472   3.864 -2.3310 -0.1564  2.3897
  191SAPI   C2522088   4.240   0.664   3.936  1.1151  0.4888 -0.1246
  191SAPI   H5R22089   4.197   0.755   3.892 -2.4228 -1.5819 -1.3960
  191SAPI   C2622090   4.269   0.655   4.068 -0.5518  0.3647 -0.1512
  191SAPI   H6R22091   4.242   0.740   4.133 -2.3755 -0.2114 -0.1004
  191SAPI   C2722092   4.335   0.537   4.141  0.1804  0.2007  0.0548
  191SAPI   H7R22093   4.413   0.581   4.206  0.7162 -1.1247  0.3378
  191SAPI   H7S22094   4.383   0.467   4.070  0.7235 -0.2203  0.8307
  191SAPI   C2822095   4.241   0.465   4.231 -0.3138 -0.6879 -1.1451
  191SAPI   H8R22096   4.158   0.418   4.176  0.4319 -0.9782 -2.0581
  191SAPI   C2922097   4.234   0.481   4.366  0.4806  0.6092 -0.3869
  191SAPI   H9R22098   4.154   0.423   4.415  0.9690 -0.7364 -1.1150
  191SAPI  C21022099   4.322   0.567   4.450 -0.0087 -0.2414 -0.4680
  191SAPI  H10R22100   4.335   0.663   4.395  2.2316 -1.1403 -1.6328
  191SAPI  H10S22101   4.416   0.509   4.460 -1.6346 -2.5902  3.4172
  191SAPI  C21122102   4.260   0.599   4.582  0.3793  0.0674  0.0490
  191SAPI  H11R22103   4.189   0.683   4.574 -0.3503 -0.4829  0.5743
  191SAPI  C21222104   4.263   0.540   4.704  0.4221  0.3734 -0.1382
  191SAPI  H12R22105   4.200   0.578   4.786 -0.1830 -2.0853  0.6427
  191SAPI  C21322106   4.359   0.433   4.758  0.1867  0.2195  0.2347
  191SAPI  H13R22107   4.413   0.475   4.845  2.2866  0.0736 -0.9177
  191SAPI  H13S22108   4.436   0.391   4.689  0.4722 -1.8999  1.7235
  191SAPI  C21422109   4.275   0.319   4.805 -0.9265 -0.6125  0.3964
  191SAPI  H14R22110   4.277   0.228   4.744  1.2460 -0.2047 -0.2334
  191SAPI  C21522111   4.206   0.310   4.926 -0.0485 -0.2407 -0.0544
  191SAPI  H15R22112   4.149   0.217   4.943  1.0609 -1.5824 -2.9560
  191SAPI  C21622113   4.207   0.402   5.047  0.4405 -1.1723  0.2823
  191SAPI  H16R22114   4.290   0.475   5.043 -2.5679  2.6596  2.0767
  191SAPI  H16S22115   4.236   0.334   5.130  0.2067  0.5904  1.8540
  191SAPI  C21722116   4.081   0.469   5.101  0.6113 -0.6836 -0.3955
  191SAPI  H17R22117   4.099   0.480   5.210 -0.1765  1.1574 -0.4288
  191SAPI  H17S22118   3.994   0.400   5.096  0.9368 -1.1966  0.5493
  191SAPI  C21822119   4.052   0.617   5.050  1.0148  0.2858 -0.8686
  191SAPI  H18R22120   4.007   0.615   4.949 -3.5306 -2.3781  0.8704
  191SAPI  H18S22121   4.148   0.673   5.044  1.3428 -0.2999 -1.2646
  191SAPI  C21922122   3.955   0.685   5.140  0.4225  0.1836  1.1046
  191SAPI  H19R22123   3.975   0.671   5.249 -2.4346 -1.8170  1.4631
  191SAPI  H19S22124   3.852   0.647   5.125  0.3239  0.9859 -0.4482
  191SAPI  C22022125   3.949   0.836   5.102 -0.0949  0.5178 -0.2048
  191SAPI  H20R22126   3.895   0.899   5.176 -1.7018  0.9546 -1.6629
  191SAPI  H20S22127   3.905   0.852   5.001 -2.5486  1.9245  0.9770
  191SAPI  H20T22128   4.054   0.871   5.092  0.4878 -0.9337  0.6609
  191SAPI   C3322129   4.355   1.095   3.851  0.4106 -0.3142 -0.5217
  191SAPI   H3X22130   4.274   1.019   3.856 -0.8382  0.7944 -2.3768
  191SAPI   H3Y22131   4.295   1.189   3.847  0.5000 -0.0767  1.8831
  191SAPI   C3422132   4.443   1.095   3.976  1.0682  0.5599  0.2970
  191SAPI   H4X22133   4.492   1.193   3.994 -0.4263  1.0824  1.7998
  191SAPI   H4Y22134   4.524   1.020   3.960  2.3938  1.4214  2.4860
  191SAPI   C3522135   4.358   1.042   4.096 -0.4389  0.2868  0.5425
  191SAPI   H5X22136   4.301   0.950   4.073  1.1516 -0.2648 -1.4271
  191SAPI   H5Y22137   4.279   1.116   4.123 -0.6398  0.8102 -1.2892
  191SAPI   C3622138   4.450   1.003   4.211  0.0610  0.7468  0.0387
  191SAPI   H6X22139   4.527   1.083   4.219  2.0903 -1.1154  0.0412
  191SAPI   H6Y22140   4.512   0.911   4.204 -0.3667  0.4512  0.0586
  191SAPI   C3722141   4.380   0.987   4.349  0.0319  0.2317  0.7888
  191SAPI   H7X22142   4.284   0.934   4.335  0.1283  0.7600 -2.6438
  191SAPI   H7Y22143   4.343   1.090   4.366  1.1428  0.7242  0.3439
  191SAPI   C3822144   4.458   0.932   4.464  0.2706 -0.2508  0.2413
  191SAPI   H8X22145   4.563   0.968   4.464 -0.5349  2.4791  2.6992
  191SAPI   H8Y22146   4.466   0.822   4.448 -0.2961 -0.0405 -1.7729
  191SAPI   C3922147   4.409   0.988   4.602  0.4419  0.1873 -0.1340
  191SAPI   H9X22148   4.307   0.946   4.615 -0.2416  1.7982 -0.0625
  191SAPI   H9Y22149   4.399   1.098   4.586 -1.6932  0.2675  1.4033
  191SAPI  C31022150   4.502   0.974   4.723 -0.2032  0.1325  0.6666
  191SAPI  H10X22151   4.601   1.024   4.726 -0.0276 -0.2785  2.5838
  191SAPI  H10Y22152   4.526   0.866   4.734 -0.2865 -0.2040 -1.8419
  191SAPI  C31122153   4.440   1.022   4.851 -0.5730 -0.2800  0.4651
  191SAPI  H11X22154   4.342   0.970   4.857 -0.3178 -0.7334  0.7483
  191SAPI  H11Y22155   4.410   1.129   4.849 -0.7941 -0.3436 -1.1881
  191SAPI  C31222156   4.515   0.984   4.981 -0.5404 -0.5383 -0.1205
  191SAPI  H12X22157   4.621   1.018   4.983 -0.4636 -0.7494 -0.4208
  191SAPI  H12Y22158   4.520   0.873   4.974  2.5564 -0.6751  2.0570
  191SAPI  C31322159   4.435   1.013   5.106  0.4449 -0.0614  0.4589
  191SAPI  H13X22160   4.348   0.943   5.106 -0.3396  0.8918  0.7065
  191SAPI  H13Y22161   4.389   1.113   5.095  0.5127 -0.1089 -0.3674
  191SAPI  C31422162   4.519   1.001   5.226  0.3591 -0.2147 -0.4914
  191SAPI  H14X22163   4.464   1.039   5.315 -0.7719 -1.2689 -0.7017
  191SAPI  H14Y22164   4.606   1.068   5.214  0.8342 -1.1133 -2.5546
  191SAPI  C31522165   4.570   0.855   5.261 -0.2149  0.2212  0.2848
  191SAPI  H15X22166   4.631   0.869   5.353 -0.9477 -2.3132  1.2513
  191SAPI  H15Y22167   4.648   0.813   5.193 -3.4272 -1.2955 -2.7734
  191SAPI  C31622168   4.459   0.757   5.270  0.6044  0.0100  0.3026
  191SAPI  H16X22169   4.484   0.658   5.313  1.7253 -0.1134 -0.5662
  191SAPI  H16Y22170   4.406   0.731   5.176  1.7939  0.6078 -0.5549
  191SAPI  C31722171   4.340   0.795   5.358  0.5313 -0.4508  0.5294
  191SAPI  H17X22172   4.267   0.711   5.357 -0.4265  0.2599  2.8138
  191SAPI  H17Y22173   4.292   0.888   5.322 -0.4278 -1.1103  0.0779
  191SAPI  C31822174   4.368   0.809   5.506 -0.6567 -0.4612  0.0161
  191SAPI  H18X22175   4.445   0.885   5.528 -1.6257  0.6398 -0.3266
  191SAPI  H18Y22176   4.395   0.712   5.553 -1.5412 -0.9982 -0.5576
  191SAPI  H18Z22177   4.276   0.847   5.555 -0.5473  0.7030 -0.6533
  192SAPI   C1222178   5.147   6.366   2.911  0.4915 -0.5899 -0.4172
  192SAPI    H222179   5.140   6.433   2.999 -3.0774 -0.5804 -0.5528
  192SAPI    O222180   5.277   6.311   2.896 -0.6194  0.6555 -0.1350
  192SAPI   HO222181   5.331   6.385   2.923 -1.8248  1.2557  0.7041
  192SAPI   C1322182   5.046   6.257   2.939  0.1945 -0.1982 -0.3027
  192SAPI    H322183   4.944   6.300   2.931  0.3309  0.2182  0.2108
  192SAPI    O322184   5.063   6.200   3.072 -0.5349 -0.8109  0.1720
  192SAPI   HO322185   5.132   6.138   3.048  0.1760  0.6677 -1.9411
  192SAPI   C1422186   5.048   6.156   2.822  0.0173 -0.8553 -0.0848
  192SAPI    H422187   5.149   6.109   2.829  0.2708 -0.2978  0.0945
  192SAPI    O422188   4.948   6.061   2.834 -0.3105 -1.0932  0.5335
  192SAPI   HO422189   4.982   5.979   2.796  1.3302 -1.1544  2.0141
  192SAPI   C1522190   5.050   6.218   2.687  0.1010  0.2465  0.2012
  192SAPI    H522191   4.943   6.218   2.659 -0.2729  0.8604  1.5249
  192SAPI    O522192   5.109   6.131   2.593 -0.0584  0.3532  0.0996
  192SAPI   HO522193   5.203   6.150   2.603 -0.2781  1.3541  0.3459
  192SAPI   C1622194   5.100   6.363   2.660  0.0746  0.1984 -0.0003
  192SAPI    H622195   5.204   6.357   2.621  0.1197 -0.7027  0.2360
  192SAPI    O622196   5.020   6.433   2.563  0.1654 -0.3540 -0.5773
  192SAPI   HO622197   4.936   6.460   2.601  0.2917  1.5670 -1.5286
  192SAPI   C1122198   5.109   6.444   2.788 -0.0622  0.1146  0.4484
  192SAPI    H122199   5.007   6.482   2.810 -0.3068 -1.1019  1.5177
  192SAPI     P22200   5.145   6.710   2.823 -0.0987  0.2029 -0.1181
  192SAPI   O1322201   5.000   6.736   2.790  0.1089  0.2157  0.8324
  192SAPI   O1422202   5.239   6.810   2.771  0.0533 -0.1552  0.1778
  192SAPI   O1222203   5.198   6.562   2.768  0.2331  0.0404  0.6604
  192SAPI   O1122204   5.161   6.689   2.985  0.0196 -0.1572 -0.1740
  192SAPI    C122205   5.216   6.795   3.060 -0.8213  0.5450 -0.0034
  192SAPI    HA22206   5.226   6.888   2.999 -0.9621 -0.8605 -2.2544
  192SAPI    HB22207   5.165   6.816   3.156  1.7802 -3.6371  2.6231
  192SAPI    C222208   5.366   6.768   3.110 -0.1006  0.5230  0.1964
  192SAPI    HS22209   5.419   6.751   3.014 -1.6436  3.2144 -1.2513
  192SAPI   O2122210   5.372   6.660   3.206  0.1328 -0.0335  0.0354
  192SAPI   C2122211   5.392   6.547   3.152  0.0626  0.0937  0.5567
  192SAPI   O2222212   5.433   6.516   3.038  0.5716  0.2517 -0.1786
  192SAPI   C2222213   5.345   6.447   3.252 -0.0918  0.0696 -0.5946
  192SAPI   H2R22214   5.367   6.478   3.356 -0.6301 -1.2250 -0.0727
  192SAPI   H2S22215   5.234   6.444   3.249 -0.0823  0.0190 -0.9868
  192SAPI    C322216   5.420   6.908   3.166  0.7252 -0.1764  0.1271
  192SAPI    HX22217   5.346   6.933   3.245  0.0443  2.7472 -1.3210
  192SAPI    HY22218   5.425   6.981   3.083  0.6655 -0.0237  0.2567
  192SAPI   O3122219   5.545   6.904   3.232 -0.5312  0.0588  0.3735
  192SAPI   C3122220   5.653   6.880   3.156 -0.3765 -0.3857  0.3012
  192SAPI   O3222221   5.652   6.852   3.037 -0.1610  0.2691 -0.0617
  192SAPI   C3222222   5.780   6.884   3.242 -0.1597  0.1563  0.0288
  192SAPI   H2X22223   5.749   6.866   3.347 -1.1823 -0.2488 -0.3274
  192SAPI   H2Y22224   5.830   6.983   3.232  0.7600  0.0304  2.5297
  192SAPI   C2322225   5.398   6.310   3.225 -0.2328 -0.4332 -0.2839
  192SAPI   H3R22226   5.508   6.315   3.243 -0.2644 -2.0018  0.5294
  192SAPI   H3S22227   5.392   6.274   3.120 -0.3410  2.3693 -1.3241
  192SAPI   C2422228   5.332   6.203   3.313  0.1554  0.1107 -0.3522
  192SAPI   H4R22229   5.232   6.174   3.276 -0.3054 -0.2053  1.0640
  192SAPI   H4S22230   5.307   6.254   3.409 -0.2310  1.8666 -1.3435
  192SAPI   C2522231   5.424   6.083   3.349 -0.0029 -0.0859 -0.4914
  192SAPI   H5R22232   5.509   6.067   3.282  1.1571  0.4625  0.7875
  192SAPI   C2622233   5.424   6.019   3.469 -0.9060 -0.0609 -0.9041
  192SAPI   H6R22234   5.500   5.940   3.480 -0.2024  0.7923  0.7536
  192SAPI   C2722235   5.345   6.056   3.594 -0.4830 -0.0780 -0.6684
  192SAPI   H7R22236   5.237   6.034   3.580 -0.5990 -0.6969  0.9352
  192SAPI   H7S22237   5.354   6.164   3.615  0.8376 -0.4526  0.9687
  192SAPI   C2822238   5.396   5.979   3.716  0.0040  0.8459  1.0534
  192SAPI   H8R22239   5.494   5.933   3.696 -0.7262  0.3828 -1.9958
  192SAPI   C2922240   5.334   5.957   3.832  0.0073  0.1416  0.3248
  192SAPI   H9R22241   5.394   5.919   3.916  2.2600  0.3697 -1.0682
  192SAPI  C21022242   5.193   5.998   3.860  0.2114 -0.8200 -0.2361
  192SAPI  H10R22243   5.152   5.912   3.916  0.3634  0.0496  1.2607
  192SAPI  H10S22244   5.133   6.002   3.767 -0.5103 -3.4498  0.0342
  192SAPI  C21122245   5.179   6.124   3.946 -0.3342 -0.7112  0.3382
  192SAPI  H11R22246   5.175   6.220   3.893 -0.5803  0.1385  1.8501
  192SAPI  C21222247   5.162   6.126   4.079 -0.6478  0.8340  0.1837
  192SAPI  H12R22248   5.161   6.224   4.130 -1.4121  1.9949 -1.9559
  192SAPI  C21322249   5.174   5.999   4.166  0.0686  0.0172  0.6810
  192SAPI  H13R22250   5.232   5.922   4.112  1.0224  0.4146  1.1246
  192SAPI  H13S22251   5.068   5.970   4.182 -0.4828 -0.4593 -2.8908
  192SAPI  C21422252   5.249   6.031   4.294  0.4183  0.2336 -0.6176
  192SAPI  H14R22253   5.338   6.088   4.263 -0.3115  0.8369 -1.6693
  192SAPI  C21522254   5.212   6.022   4.422  0.5258  0.7602 -0.1426
  192SAPI  H15R22255   5.284   6.053   4.499 -0.0356  0.7750  0.3906
  192SAPI  C21622256   5.093   5.950   4.479  0.6269  0.1893 -0.2124
  192SAPI  H16R22257   5.034   5.895   4.402  2.7828  0.3101 -2.0627
  192SAPI  H16S22258   5.032   6.035   4.516  1.2467  0.8387 -0.6628
  192SAPI  C21722259   5.124   5.856   4.605 -0.0350 -0.5550  0.4579
  192SAPI  H17R22260   5.026   5.830   4.651 -0.1813 -3.4296 -1.2210
  192SAPI  H17S22261   5.196   5.918   4.662  4.2191 -2.0137 -2.7901
  192SAPI  C21822262   5.197   5.729   4.561 -0.1487 -0.6202  0.0363
  192SAPI  H18R22263   5.288   5.757   4.504 -0.9611  1.1089 -0.4427
  192SAPI  H18S22264   5.138   5.664   4.492  0.9797 -0.3417 -1.2357
  192SAPI  C21922265   5.244   5.641   4.682  0.2367 -0.3679 -0.3405
  192SAPI  H19R22266   5.284   5.714   4.756  1.7871 -0.8818 -0.6460
  192SAPI  H19S22267   5.318   5.562   4.659  0.1158 -0.4984 -0.2787
  192SAPI  C22022268   5.137   5.565   4.763 -0.3480  0.0714  0.0478
  192SAPI  H20R22269   5.047   5.628   4.783  0.2786  0.8345  0.5206
  192SAPI  H20S22270   5.183   5.524   4.855  1.4972 -0.9222 -1.2612
  192SAPI  H20T22271   5.102   5.473   4.711  0.8159  0.3728 -1.3419
  192SAPI   C3322272   5.881   6.775   3.209 -0.0593  0.2272 -0.0975
  192SAPI   H3X22273   5.967   6.786   3.279 -1.4306  0.2274  1.6492
  192SAPI   H3Y22274   5.918   6.781   3.104  1.5461 -0.2137  0.4207
  192SAPI   C3422275   5.828   6.632   3.238 -0.4643  0.1377  0.8151
  192SAPI   H4X22276   5.912   6.565   3.212  0.9517  3.3090 -3.9534
  192SAPI   H4Y22277   5.740   6.600   3.178  0.4846 -1.0231 -0.0150
  192SAPI   C3522278   5.796   6.609   3.384 -0.0219  1.1014  0.0144
  192SAPI   H5X22279   5.696   6.648   3.413  0.0452  1.2321  0.0716
  192SAPI   H5Y22280   5.878   6.657   3.442 -0.2146  0.4526  0.8390
  192SAPI   C3622281   5.777   6.453   3.415 -0.0661  0.2418 -0.4000
  192SAPI   H6X22282   5.872   6.407   3.378 -0.3497  0.5980 -1.6061
  192SAPI   H6Y22283   5.693   6.401   3.366 -0.2453 -2.3032  2.3075
  192SAPI   C3722284   5.755   6.439   3.563 -0.4964  0.3708  0.1616
  192SAPI   H7X22285   5.806   6.520   3.621 -0.4551  1.2939 -1.1290
  192SAPI   H7Y22286   5.808   6.345   3.587 -0.8931 -0.5766 -2.3943
  192SAPI   C3822287   5.607   6.420   3.619  0.2034  0.2088  0.8491
  192SAPI   H8X22288   5.558   6.395   3.523  2.3861  0.6600 -0.4494
  192SAPI   H8Y22289   5.573   6.522   3.648  2.7652  0.7050  2.5332
  192SAPI   C3922290   5.583   6.296   3.710  0.1607  0.5014 -0.4280
  192SAPI   H9X22291   5.632   6.212   3.658 -0.3522 -1.3556  1.9277
  192SAPI   H9Y22292   5.473   6.279   3.720  0.1522  1.0239  0.4670
  192SAPI  C31022293   5.657   6.312   3.842  0.7998 -0.6196 -0.4785
  192SAPI  H10X22294   5.639   6.416   3.877 -2.5382 -0.7029 -1.5782
  192SAPI  H10Y22295   5.767   6.306   3.827  1.1029 -0.5547  1.4847
  192SAPI  C31122296   5.606   6.209   3.942 -0.0029  0.2474  0.2503
  192SAPI  H11X22297   5.606   6.116   3.881  2.1044  0.6733 -0.4791
  192SAPI  H11Y22298   5.500   6.243   3.952  0.3430  1.3386  0.3140
  192SAPI  C31222299   5.684   6.207   4.070  0.1873 -0.1641 -1.2518
  192SAPI  H12X22300   5.708   6.315   4.076  0.7690 -0.2454 -2.0209
  192SAPI  H12Y22301   5.780   6.153   4.056  1.6325  1.8975  0.0140
  192SAPI  C31322302   5.611   6.166   4.203 -0.7994  0.3762 -0.4804
  192SAPI  H13X22303   5.512   6.215   4.207 -0.8101  0.2903  0.5800
  192SAPI  H13Y22304   5.658   6.217   4.289 -2.1977 -0.4377  0.8217
  192SAPI  C31422305   5.604   6.013   4.212  0.6966 -0.3569 -0.3789
  192SAPI  H14X22306   5.694   5.976   4.160 -1.0925 -3.0151 -1.7911
  192SAPI  H14Y22307   5.513   5.975   4.161 -0.6506  1.1573  0.7672
  192SAPI  C31522308   5.605   5.957   4.357 -0.6675 -0.2586 -0.0174
  192SAPI  H15X22309   5.517   5.977   4.423  1.5541 -0.5700  3.2918
  192SAPI  H15Y22310   5.696   5.991   4.411 -1.1735  0.2177  0.5463
  192SAPI  C31622311   5.609   5.809   4.367 -0.6298  0.7650  0.0115
  192SAPI  H16X22312   5.690   5.781   4.296 -0.1691  2.8711 -0.3583
  192SAPI  H16Y22313   5.516   5.757   4.335  0.4499 -0.6866 -0.9354
  192SAPI  C31722314   5.651   5.759   4.499 -1.2924  0.2605 -0.4349
  192SAPI  H17X22315   5.587   5.790   4.585  0.6884  2.3795  0.4008
  192SAPI  H17Y22316   5.749   5.805   4.523 -0.8652 -1.5176  1.5572
  192SAPI  C31822317   5.673   5.610   4.520  1.0461 -0.7444  0.0761
  192SAPI  H18X22318   5.728   5.587   4.613  1.1081  0.8921  0.4744
  192SAPI  H18Y22319   5.719   5.574   4.425 -1.2307  0.5944 -1.6373
  192SAPI  H18Z22320   5.580   5.550   4.527  0.0866  0.3917 -2.0066
  193SOD    SOD22321   0.585   4.189   0.823  0.6675 -0.1839  0.1021
  194SOD    SOD22322   0.633   6.070   7.424 -0.1956  0.7507 -0.0098
  195SOD    SOD22323   4.867   3.823   7.900 -0.2770  0.0173 -0.4771
  196SOD    SOD22324   2.816   3.486   0.163 -0.1192  0.4357 -0.0411
  197SOD    SOD22325   0.759   1.769   1.574 -0.2916 -0.2013  0.3995
  198SOD    SOD22326   5.855   3.774   2.090 -0.2675 -0.3099 -0.0906
  199SOD    SOD22327   4.601   2.746   8.122  0.3656 -0.0999 -0.0201
  200SOD    SOD22328   1.010   2.817   0.572 -0.1043 -0.2122  0.2170
  201SOD    SOD22329   2.685   3.931   2.784 -0.5918 -0.4254 -0.3084
  202SOD    SOD22330   6.050   1.580   2.488  0.1744 -0.1327 -0.0713
  203SOD    SOD22331   3.971   5.207   2.773 -0.0328  0.4430  0.2450
  204SOD    SOD22332   5.903   1.395   8.196  0.1736 -0.2743 -0.0264
  205SOD    SOD22333   2.947   6.363   0.618  0.2716 -0.2127  0.1669
  206SOD    SOD22334   5.085   5.949   2.431 -0.3935 -0.0227 -0.2430
  207SOD    SOD22335   4.752   6.487   1.159  0.0923  0.1154  0.1013
  208SOD    SOD22336   5.446   0.371   1.943  0.2008 -0.5960 -0.1773
  209SOD    SOD22337   5.183   1.542   0.053  0.2682 -0.3451  0.4045
  210SOD    SOD22338   6.240   0.862   0.269  0.5556 -0.0841 -0.5118
  211SOD    SOD22339   0.153   1.985   7.048 -0.8502 -0.1926  0.4809
  212SOD    SOD22340   0.091   3.080   7.044  0.2770  0.0976  0.0559
  213SOD    SOD22341   0.450   4.240   8.791 -0.4945 -0.5253  0.2507
  214SOD    SOD22342   4.858   1.908   2.350  0.2428 -0.3659 -0.3848
  215SOD    SOD22343   5.911   2.328   2.141  0.1090  0.3959  0.0667
  216SOD    SOD22344   3.637   0.961   8.760  0.0153 -0.3883  0.3198
  217SOD    SOD22345   2.999   4.232   0.613  0.0366 -0.5523  0.4417
  218SOD    SOD22346   4.379   5.252   8.696  0.3161 -0.5922  0.0148
  219SOD    SOD22347   0.953   4.908   7.838  0.1756  0.0879 -0.4478
  220SOD    SOD22348   0.296   5.811   2.883 -0.4458 -0.2090 -0.0603
  221SOD    SOD22349   3.371   0.032   8.837 -0.3930 -0.5022  0.1042
  222SOD    SOD22350   1.911   0.525   2.721 -0.1148  0.1147  0.1968
  223SOD    SOD22351   5.071   2.652   2.316  0.1674 -0.2369 -0.3293
  224SOD    SOD22352   3.267   5.286   7.427  0.7060 -0.2247 -0.4526
  225SOD    SOD22353   1.153   6.254   0.936 -0.1594  0.0361 -0.7047
  226SOD    SOD22354   1.354   0.492   2.785 -0.2090  0.3844  0.0740
  227SOD    SOD22355   6.251   6.080   2.805 -0.2066 -0.0938  0.1351
  228SOD    SOD22356   3.912   5.328   7.158  0.5229 -0.0546  0.4932
  229SOD    SOD22357   0.033   0.258   8.301  0.6105 -0.3325 -0.2500
  230CLA    CLA22358   1.015   2.045   1.819  0.2970  0.4158 -0.0646
  231CLA    CLA22359   4.968   3.643   1.772  0.1254  0.1494 -0.1458
  232CLA    CLA22360   4.573   6.500   8.579  0.2091  0.2022 -0.1216
  233CLA    CLA22361   2.624   6.038   8.378  0.0862 -0.3259 -0.2410
  234CLA    CLA22362   1.164   0.747   0.692 -0.2446 -0.4387  0.0092
  235CLA    CLA22363   0.346   6.611   8.949  0.1582 -0.0248  0.1439
  236CLA    CLA22364   6.576   6.018   2.272 -0.0214 -0.1622 -0.6197
  237CLA    CLA22365   1.861   5.307   1.613  0.2507 -0.3798 -0.4643
  238CLA    CLA22366   5.455   1.368   0.869  0.2803 -0.3403  0.2347
  239CLA    CLA22367   4.895   2.374   0.045  0.5031 -0.2240  0.4158
  240CLA    CLA22368   5.660   2.078   1.600 -0.2390 -0.2354  0.1257
  241CLA    CLA22369   0.668   4.408   1.850 -0.1503 -0.2263 -0.1701
  242CLA    CLA22370   6.067   3.812   0.428  0.5923 -0.3030  0.0729
  243CLA    CLA22371   6.251   6.350   0.832  0.2100  0.1646 -0.1503
  244CLA    CLA22372   5.999   3.047   8.603  0.5448 -0.3472 -0.1431
  245CLA    CLA22373   1.828   1.851   0.440  0.0411  0.1888 -0.0592
  246CLA    CLA22374   6.353   4.409   7.909  0.2715  0.3203 -0.4713
  247TIP3   OH222375   4.665   3.039   7.326 -0.1226 -0.3592  0.0030
  247TIP3    H122376   4.574   3.066   7.336 -0.0270 -0.3200  0.8886
  247TIP3    H222377   4.705   3.059   7.411  0.4349 -1.4311  0.0104
  248TIP3   OH222378   3.475   3.835   0.363  0.0118 -0.3712  0.0226
  248TIP3    H122379   3.553   3.805   0.316  0.1779  0.6049 -0.3531
  248TIP3    H222380   3.493   3.927   0.383 -0.3463 -0.5865  1.4153
  249TIP3   OH222381   2.628   6.472   8.804  0.2159 -0.4900  0.1668
  249TIP3    H122382   2.632   6.529   8.727  2.6769 -1.3915 -0.4520
  249TIP3    H222383   2.576   6.397   8.775 -2.4447  0.9808  0.7707
  250TIP3   OH222384   5.810   4.276   1.905  0.1047 -0.0664 -0.4066
  250TIP3    H122385   5.773   4.310   1.987  0.6685 -1.0610  0.2868
  250TIP3    H222386   5.847   4.353   1.862 -0.8921  0.6015 -0.1071
  251TIP3   OH222387   6.224   0.870   1.724  0.4272  0.3010 -0.2254
  251TIP3    H122388   6.244   0.810   1.652 -0.1283 -0.7241  0.4446
  251TIP3    H222389   6.255   0.824   1.803  1.1188  1.4429  0.1941
  252TIP3   OH222390   3.237   3.353   1.904 -0.2569  0.2115 -0.5993
  252TIP3    H122391   3.277   3.295   1.840 -1.9975 -1.3185 -0.3750
  252TIP3    H222392   3.252   3.441   1.869 -1.8122 -0.5673 -3.5837
  253TIP3   OH222393   3.413   4.834   2.434  0.3867 -0.1156  0.3721
  253TIP3    H122394   3.476   4.809   2.502 -0.3660 -0.9539  0.7842
  253TIP3    H222395   3.360   4.903   2.476 -0.1544 -0.7171  0.6846
  254TIP3   OH222396   5.796   5.270   0.715 -0.0859 -0.5114  0.3148
  254TIP3    H122397   5.837   5.196   0.759  0.5836  0.0532  0.6653
  254TIP3    H222398   5.864   5.302   0.655  0.7129  1.4988  2.1203
  255TIP3   OH222399   3.602   2.871   2.067  0.1511 -0.0256 -0.8069
  255TIP3    H122400   3.542   2.919   2.125  0.4062 -1.0918  0.3897
  255TIP3    H222401   3.685   2.916   2.077 -0.2745  1.0675 -1.9784
  256TIP3   OH222402   6.138   4.553   7.013  0.2610 -0.6326 -0.0548
  256TIP3    H122403   6.112   4.635   7.055 -1.0014 -0.6519 -0.7637
  256TIP3    H222404   6.060   4.498   7.017  0.6576 -1.2669 -0.8630
  257TIP3   OH222405   2.384   3.065   1.200 -0.1085  0.1249 -0.2180
  257TIP3    H122406   2.419   2.991   1.249  0.4807  0.2822 -0.3935
  257TIP3    H222407   2.395   3.040   1.108 -0.2665  0.2633 -0.2746
  258TIP3   OH222408   6.038   6.325   1.185 -0.3015 -0.0673 -0.1006
  258TIP3    H122409   6.053   6.241   1.228  2.0517 -0.4455 -1.4871
  258TIP3    H222410   6.122   6.346   1.144 -1.2229  2.3225 -0.9100
  259TIP3   OH222411   3.723   4.945   8.696 -0.4556 -0.2465  0.5941
  259TIP3    H122412   3.705   4.958   8.789 -1.0249  1.6994  0.2550
  259TIP3    H222413   3.642   4.969   8.652  0.5814  1.4418 -0.5353
  260TIP3   OH222414   0.094   1.094   8.488  0.8977 -0.3873 -0.2713
  260TIP3    H122415   0.104   1.000   8.470  1.2137 -0.1867 -1.2350
  260TIP3    H222416   0.083   1.099   8.583  2.1115 -1.3050 -0.0467
  261TIP3   OH222417   4.491   0.545   1.127 -0.3448 -0.3793  0.1691
  261TIP3    H122418   4.463   0.633   1.100 -0.7710 -0.2084  1.1161
  261TIP3    H222419   4.439   0.486   1.073  0.4227 -0.0705 -0.9503
  262TIP3   OH222420   5.520   1.595   1.074 -0.0778 -0.1857  0.0575
  262TIP3    H122421   5.461   1.544   1.018 -1.0536  0.5304  0.4050
  262TIP3    H222422   5.606   1.587   1.032 -0.3938 -1.3148 -0.4192
  263TIP3   OH222423   0.250   1.019   7.448  0.2254 -0.1052  0.4368
  263TIP3    H122424   0.208   1.002   7.533  0.0378  0.5986  0.4901
  263TIP3    H222425   0.233   1.112   7.431 -0.0161 -0.3103 -0.5267
  264TIP3   OH222426   6.607   1.151   2.639  0.1902 -0.2639  0.3559
  264TIP3    H122427   6.511   1.151   2.643  0.1010  0.5966 -0.8942
  264TIP3    H222428   6.632   1.059   2.641 -0.5398 -0.4564  2.5087
  265TIP3   OH222429   0.717   1.907   2.305 -0.1307  0.2780  0.3167
  265TIP3    H122430   0.763   1.891   2.222  0.3684  2.7315  0.0389
  265TIP3    H222431   0.787   1.925   2.368 -0.4791 -2.0892  1.4847
  266TIP3   OH222432   1.097   2.841   0.343  0.5992 -0.6038 -0.3039
  266TIP3    H122433   1.187   2.837   0.312  1.1561  2.4330  0.5628
  266TIP3    H222434   1.047   2.870   0.267  0.9360  0.7846 -0.0289
  267TIP3   OH222435   1.375   1.544   2.231 -0.3033  0.3167 -0.0714
  267TIP3    H122436   1.421   1.591   2.301  1.7811  0.8768 -1.7027
  267TIP3    H222437   1.283   1.546   2.258  0.0910  2.6038  1.4907
  268TIP3   OH222438   4.523   1.721   1.252 -0.2243  0.3785  0.5151
  268TIP3    H122439   4.575   1.740   1.174 -0.5016  0.7280  0.4139
  268TIP3    H222440   4.563   1.642   1.288  0.9366  1.1113  0.9152
  269TIP3   OH222441   1.647   3.376   0.258  0.2452  0.4083 -0.3502
  269TIP3    H122442   1.558   3.407   0.272 -0.6976 -1.1763 -2.3422
  269TIP3    H222443   1.645   3.283   0.282  0.0617 -0.8561 -4.3904
  270TIP3   OH222444   5.141   5.647   2.068 -0.2776  0.5547  0.6764
  270TIP3    H122445   5.071   5.618   2.010  1.2478  1.2000 -1.6459
  270TIP3    H222446   5.155   5.574   2.128 -2.5481  0.2191  0.8608
  271TIP3   OH222447   6.363   3.021   8.156  0.2163  0.2803  0.2404
  271TIP3    H122448   6.329   3.110   8.155  0.1147  0.2471  0.6396
  271TIP3    H222449   6.346   2.988   8.067  1.0590  0.9565 -0.1874
  272TIP3   OH222450   2.324   5.757   8.020  0.3381 -0.4708 -0.4468
  272TIP3    H122451   2.381   5.835   8.018  1.1697 -1.0492 -0.0727
  272TIP3    H222452   2.261   5.776   8.090  1.7003 -0.8892  0.9685
  273TIP3   OH222453   4.047   5.515   1.081  0.6313 -0.1802 -0.3160
  273TIP3    H122454   4.137   5.538   1.059  1.1380 -0.5653  1.2164
  273TIP3    H222455   4.056   5.449   1.150 -0.8192 -1.1553 -1.0199
  274TIP3   OH222456   5.317   1.155   0.187  0.3323  0.0427  0.2975
  274TIP3    H122457   5.352   1.244   0.184 -0.4053  0.3171 -0.2344
  274TIP3    H222458   5.307   1.129   0.095  1.1149 -0.8294  0.4352
  275TIP3   OH222459   4.577   3.960   1.546 -0.2415  0.3360  0.0249
  275TIP3    H122460   4.565   3.909   1.466  1.1688  0.8554 -0.5426
  275TIP3    H222461   4.659   3.928   1.584 -0.4719  0.6628  0.8292
  276TIP3   OH222462   2.710   6.456   9.054 -0.0237  0.2994  0.7442
  276TIP3    H122463   2.691   6.428   8.965 -1.0178 -1.0631  1.3620
  276TIP3    H222464   2.776   6.394   9.086  0.3489  0.7959  0.9698
  277TIP3   OH222465   6.365   2.742   2.136  0.6375 -0.2387  0.0512
  277TIP3    H122466   6.354   2.686   2.213  1.4487  0.6397  0.8353
  277TIP3    H222467   6.295   2.716   2.077 -1.0774  0.2375  1.7947
  278TIP3   OH222468   1.547   0.997   9.128 -0.4486  0.3942  0.0438
  278TIP3    H122469   1.594   1.013   9.210 -0.4239 -0.1203  0.1336
  278TIP3    H222470   1.461   1.036   9.142 -0.4172  0.3834  0.2837
  279TIP3   OH222471   1.539   6.195   7.570 -0.5557 -0.0766  0.3087
  279TIP3    H122472   1.541   6.101   7.556  0.0754  0.2340 -2.0067
  279TIP3    H222473   1.446   6.218   7.571 -0.7361 -0.7849  1.6113
  280TIP3   OH222474   4.309   1.184   0.905 -0.4824  0.3282 -0.1404
  280TIP3    H122475   4.313   1.244   0.979 -0.5149 -0.7784  0.7786
  280TIP3    H222476   4.220   1.191   0.872 -0.3586  1.1081 -0.3428
  281TIP3   OH222477   5.288   2.124   8.972  0.4010  0.6310 -0.1848
  281TIP3    H122478   5.192   2.128   8.978  0.3806 -0.1430  0.1273
  281TIP3    H222479   5.312   2.205   8.927 -0.3802  0.9653 -0.0344
  282TIP3   OH222480   3.688   3.639   8.277 -0.0779 -0.4945  0.0438
  282TIP3    H122481   3.647   3.693   8.209 -1.1749  0.7990  1.6738
  282TIP3    H222482   3.648   3.668   8.359  3.8500  0.6590  1.7850
  283TIP3   OH222483   2.580   6.605   3.098 -0.0153 -0.0112 -0.1633
  283TIP3    H122484   2.651   6.550   3.064 -0.1069 -0.2865  0.0815
  283TIP3    H222485   2.532   6.547   3.157 -0.6912  0.0544 -0.6418
  284TIP3   OH222486   5.861   2.489   1.951  0.7823  0.2999  0.4569
  284TIP3    H122487   5.844   2.583   1.956  2.4062  0.6236  0.4977
  284TIP3    H222488   5.788   2.454   1.900  0.6670  1.7408 -0.4165
  285TIP3   OH222489   6.016   2.428   8.561  0.5300  0.0068  0.3223
  285TIP3    H122490   6.053   2.500   8.509  1.1637  0.3817  1.2653
  285TIP3    H222491   6.077   2.355   8.546  0.0553 -0.2515 -0.3926
  286TIP3   OH222492   2.219   2.645   1.284 -0.3106  0.4478  0.9672
  286TIP3    H122493   2.173   2.613   1.362  0.2177 -2.9118  0.0626
  286TIP3    H222494   2.311   2.624   1.301 -0.2370 -0.7257 -0.6676
  287TIP3   OH222495   3.833   3.774   7.787  0.6250 -0.0653 -0.2896
  287TIP3    H122496   3.800   3.808   7.704 -1.5068  1.3594  1.0526
  287TIP3    H222497   3.844   3.851   7.842 -1.2965 -1.2164  1.8467
  288TIP3   OH222498   2.818   4.302   7.213  0.2559  0.1901  0.2237
  288TIP3    H122499   2.740   4.251   7.236 -0.4456  1.7132  1.4141
  288TIP3    H222500   2.803   4.328   7.122  0.1377 -0.8246 -0.0651
  289TIP3   OH222501   4.418   3.941   8.611  0.1692  0.3716 -0.1738
  289TIP3    H122502   4.343   3.887   8.585 -0.5344 -0.3957  3.0881
  289TIP3    H222503   4.478   3.880   8.655  1.1630  1.5758  0.2142
  290TIP3   OH222504   3.698   4.874   1.114  0.4595  0.5752  0.5451
  290TIP3    H122505   3.675   4.782   1.107 -0.2626  0.6205  2.0395
  290TIP3    H222506   3.645   4.907   1.187  0.8068  2.1380  0.1272
  291TIP3   OH222507   1.586   5.016   8.064  0.1053 -0.0410  0.2924
  291TIP3    H122508   1.586   5.078   7.990 -0.0016  1.3037  1.3871
  291TIP3    H222509   1.533   5.058   8.131  0.1131 -1.2904  1.1167
  292TIP3   OH222510   6.610   1.381   2.809 -0.0474  0.3638  0.0263
  292TIP3    H122511   6.630   1.294   2.774 -0.8205  0.2214 -0.0615
  292TIP3    H222512   6.650   1.381   2.896 -0.0253 -0.0659  0.0177
  293TIP3   OH222513   1.401   3.333   9.127 -0.2545 -0.0788 -0.2168
  293TIP3    H122514   1.320   3.283   9.138  0.1320 -0.6675  0.0688
  293TIP3    H222515   1.469   3.274   9.160  0.2290  0.6082  0.0403
  294TIP3   OH222516   2.296   6.368   0.443 -0.4284  0.8098  0.2682
  294TIP3    H122517   2.294   6.337   0.533 -0.9549 -1.4650 -0.4669
  294TIP3    H222518   2.380   6.414   0.436  0.3560 -0.3529  1.4994
  295TIP3   OH222519   3.935   3.423   3.377 -0.0933 -0.2046 -0.0550
  295TIP3    H122520   4.029   3.406   3.384  0.2774  2.1914  3.3241
  295TIP3    H222521   3.898   3.339   3.351  2.8328 -1.5762 -0.2832
  296TIP3   OH222522   0.635   2.749   8.376 -0.7399  0.7449 -0.3085
  296TIP3    H122523   0.691   2.774   8.303  1.3872 -0.4637  0.8421
  296TIP3    H222524   0.684   2.773   8.454 -1.2413 -1.4774  0.7679
  297TIP3   OH222525   4.815   0.928   1.298  0.2662 -0.3346  0.9292
  297TIP3    H122526   4.784   0.838   1.311  0.9647 -0.5157  1.3730
  297TIP3    H222527   4.744   0.983   1.332  0.0030 -0.7204  1.0101
  298TIP3   OH222528   5.479   2.933   7.028  0.6276  0.2872  0.1070
  298TIP3    H122529   5.527   2.859   7.066  1.1055 -0.3407 -1.6219
  298TIP3    H222530   5.512   2.939   6.938 -2.8525 -0.4779 -1.3648
  299TIP3   OH222531   1.338   4.618   8.164  0.3439 -0.2840  0.4518
  299TIP3    H122532   1.284   4.541   8.179  0.9949 -0.5047  1.8538
  299TIP3    H222533   1.409   4.610   8.228  0.7614  1.1629  0.2028
  300TIP3   OH222534   0.175   4.264   8.417  0.3521 -0.1667  0.4883
  300TIP3    H122535   0.131   4.229   8.340  1.3868  1.9005 -1.1383
  300TIP3    H222536   0.128   4.344   8.438  0.3309 -0.4932  1.8052
  301TIP3   OH222537   1.527   5.956   0.269  0.5513  0.2479  0.1236
  301TIP3    H122538   1.575   5.906   0.335 -1.3333 -1.1559  0.4965
  301TIP3    H222539   1.564   6.044   0.276  2.8844 -0.6800  0.5276
  302TIP3   OH222540   4.588   1.343   2.553  1.0390  0.0172  0.2781
  302TIP3    H122541   4.610   1.432   2.581 -0.0718  0.3710  0.0734
  302TIP3    H222542   4.525   1.355   2.482 -0.1993 -0.9263  1.1605
  303TIP3   OH222543   2.157   3.964   8.923 -0.1363  0.6583  0.1983
  303TIP3    H122544   2.118   3.944   9.009 -3.7043  0.8384 -1.2005
  303TIP3    H222545   2.152   3.881   8.876 -1.6959  1.3802 -0.9852
  304TIP3   OH222546   3.525   2.742   8.308  0.5221 -0.3018  0.7120
  304TIP3    H122547   3.510   2.666   8.251  1.8984  0.0385 -0.1369
  304TIP3    H222548   3.526   2.817   8.249  3.0441 -0.0529  0.9839
  305TIP3   OH222549   1.584   0.711   9.019 -0.1054  0.4496 -0.0625
  305TIP3    H122550   1.582   0.786   9.079  1.2377  1.4263 -1.1803
  305TIP3    H222551   1.500   0.667   9.033 -2.1492  3.6219 -1.1537
  306TIP3   OH222552   4.281   2.876   9.173 -0.2408 -0.7127  0.2344
  306TIP3    H122553   4.343   2.920   9.115 -0.9036  0.1086  0.1313
  306TIP3    H222554   4.222   2.945   9.202 -0.4582 -1.2753  1.1955
  307TIP3   OH222555   5.296   0.310   9.094  0.3954  0.0706  0.6115
  307TIP3    H122556   5.208   0.309   9.133 -0.4313  0.3912 -1.1513
  307TIP3    H222557   5.298   0.391   9.043  0.3367 -1.6300 -2.2908
  308TIP3   OH222558   0.981   5.890   9.145  0.0099  0.7152 -0.0585
  308TIP3    H122559   0.938   5.975   9.139  0.9706  1.1868 -0.4759
  308TIP3    H222560   0.989   5.874   9.239 -0.0098  1.1709  0.0227
  309TIP3   OH222561   4.276   6.385   2.010  1.0242 -0.0945 -0.1858
  309TIP3    H122562   4.294   6.311   2.067 -0.3451 -0.1238  0.2574
  309TIP3    H222563   4.212   6.438   2.059 -1.3900 -0.9053 -2.2541
  310TIP3   OH222564   5.401   5.794   0.213  0.1077  0.1102 -0.3079
  310TIP3    H122565   5.383   5.754   0.298 -0.8710  0.2470 -0.4361
  310TIP3    H222566   5.314   5.812   0.177  0.5230  0.8656 -0.9490
  311TIP3   OH222567   5.501   4.644   8.080 -0.1592 -0.2807  0.2087
  311TIP3    H122568   5.559   4.714   8.051 -0.9481  0.2197 -0.2092
  311TIP3    H222569   5.560   4.572   8.103  0.5883 -0.5121 -2.0949
  312TIP3   OH222570   2.599   6.288   7.367  0.4577  0.0679  0.0591
  312TIP3    H122571   2.546   6.356   7.326  0.8846  0.0679 -0.5111
  312TIP3    H222572   2.672   6.336   7.408  0.9356 -0.0605 -0.6210
  313TIP3   OH222573   6.399   1.432   0.049  0.0662 -0.3124  0.4455
  313TIP3    H122574   6.404   1.526   0.067  0.4501 -0.1264 -0.5740
  313TIP3    H222575   6.320   1.403   0.095  0.0800  0.4567  0.9747
  314TIP3   OH222576   4.376   0.171   8.434 -0.4961  0.3679 -0.0539
  314TIP3    H122577   4.315   0.127   8.374 -0.4827  3.0268 -2.2374
  314TIP3    H222578   4.460   0.166   8.390  0.6570 -1.8389  2.1674
  315TIP3   OH222579   5.898   1.933   7.042 -0.2355  0.0432 -0.2190
  315TIP3    H122580   5.951   1.855   7.056 -0.9695 -0.3585  0.3632
  315TIP3    H222581   5.808   1.902   7.042 -0.4709  0.5826 -2.0673
  316TIP3   OH222582   6.053   0.071   8.496 -0.4143  0.2093  0.1139
  316TIP3    H122583   6.026   0.158   8.526  2.1172  0.6997  1.2278
  316TIP3    H222584   6.097   0.032   8.572 -1.0512 -1.8899 -0.5186
  317TIP3   OH222585   3.613   3.173   1.881 -0.1230  0.2926  0.0695
  317TIP3    H122586   3.591   3.223   1.960 -0.2086  0.6504 -0.1803
  317TIP3    H222587   3.533   3.172   1.829 -0.2466 -0.4572  0.2539
  318TIP3   OH222588   5.110   1.086   0.355 -0.3281 -0.0489 -0.1767
  318TIP3    H122589   5.134   1.004   0.398  0.8305  0.8881  1.0702
  318TIP3    H222590   5.180   1.102   0.293 -1.4594 -0.8534 -1.7391
  319TIP3   OH222591   5.741   0.168   1.615 -0.3843  0.3116 -1.4422
  319TIP3    H122592   5.753   0.261   1.598 -0.3005  1.2733  2.9014
  319TIP3    H222593   5.829   0.131   1.613  0.0027  1.0828  0.1888
  320TIP3   OH222594   0.869   0.265   8.607  0.4214 -0.0885 -0.1940
  320TIP3    H122595   0.779   0.232   8.612  0.2808 -0.1150 -2.2440
  320TIP3    H222596   0.906   0.244   8.693 -0.9577 -1.7526  0.0568
  321TIP3   OH222597   6.410   2.305   1.974 -0.5056  0.2289  0.1751
  321TIP3    H122598   6.439   2.292   1.884  0.1648 -3.1802  0.7796
  321TIP3    H222599   6.460   2.381   2.005  2.2339 -0.9339 -1.1236
  322TIP3   OH222600   4.591   4.503   7.123 -0.2579 -0.0685  0.0366
  322TIP3    H122601   4.681   4.489   7.094  0.3097  0.6318  1.3932
  322TIP3    H222602   4.583   4.598   7.134 -1.4946 -0.0126 -1.0462
  323TIP3   OH222603   4.377   4.448   1.825 -0.2089 -0.3784  0.3238
  323TIP3    H122604   4.405   4.375   1.769 -2.4457 -1.2806  0.2948
  323TIP3    H222605   4.365   4.407   1.911  0.0566  0.3144  0.6935
  324TIP3   OH222606   1.793   0.721   2.117 -0.0178  0.4500  0.8610
  324TIP3    H122607   1.833   0.662   2.181 -0.6414  2.6092  3.4052
  324TIP3    H222608   1.714   0.676   2.088  1.5554 -1.6629 -0.4107
  325TIP3   OH222609   0.023   3.174   9.021 -0.4228  0.2565 -0.1184
  325TIP3    H122610   0.101   3.229   9.023  0.0401 -0.4091  1.1605
  325TIP3    H222611   0.046   3.100   8.965 -0.4562  0.5081 -0.4677
  326TIP3   OH222612   2.327   5.011   9.089  0.0388  0.6382  0.0477
  326TIP3    H122613   2.321   4.922   9.124  1.0460 -0.8841 -3.2711
  326TIP3    H222614   2.382   5.058   9.152 -0.3131 -1.1239  1.7581
  327TIP3   OH222615   4.456   4.766   8.167  0.0692  0.6841 -0.0278
  327TIP3    H122616   4.447   4.735   8.077  0.3871 -1.4106  0.6152
  327TIP3    H222617   4.486   4.690   8.216 -0.4433  1.6743  1.9302
  328TIP3   OH222618   0.424   6.535   0.270 -0.0984 -0.4880 -1.0307
  328TIP3    H122619   0.438   6.442   0.256  1.7697 -0.2125 -1.2419
  328TIP3    H222620   0.378   6.565   0.192  0.1099 -1.0594 -1.3704
  329TIP3   OH222621   2.000   3.923   2.590 -0.4802 -0.6875 -0.1468
  329TIP3    H122622   2.012   3.887   2.502 -1.4701 -2.6399  0.4709
  329TIP3    H222623   2.089   3.927   2.626 -0.1574 -0.7200 -0.9083
  330TIP3   OH222624   5.758   3.997   1.317  0.2377 -0.0163  0.1798
  330TIP3    H122625   5.781   3.911   1.353  1.3739  0.6158  1.0294
  330TIP3    H222626   5.704   4.038   1.385 -0.2409 -0.0179 -0.1935
  331TIP3   OH222627   5.712   4.249   0.633  0.4420  0.0832 -0.4366
  331TIP3    H122628   5.625   4.247   0.592  0.6003 -3.0194 -0.8765
  331TIP3    H222629   5.694   4.274   0.724 -0.7191  0.8574 -0.8479
  332TIP3   OH222630   3.255   2.038   0.392 -0.2482  0.4563 -0.5010
  332TIP3    H122631   3.198   2.009   0.463 -0.3459  1.0437 -0.3363
  332TIP3    H222632   3.200   2.096   0.339 -0.7754 -1.4061 -2.1363
  333TIP3   OH222633   1.397   0.182   0.267 -0.4415  0.1451 -0.3058
  333TIP3    H122634   1.400   0.215   0.177 -0.3146 -0.3265 -0.4772
  333TIP3    H222635   1.481   0.139   0.279  0.4277  2.0316  0.7536
  334TIP3   OH222636   1.666   4.053   8.793 -0.0724  0.2087 -0.5092
  334TIP3    H122637   1.758   4.027   8.790 -0.6101 -2.2018  0.9431
  334TIP3    H222638   1.668   4.148   8.801  2.2091  0.3858 -2.1741
  335TIP3   OH222639   3.302   3.838   8.751  0.4268  0.1441 -0.1881
  335TIP3    H122640   3.328   3.930   8.753  0.7074  0.1213 -1.6148
  335TIP3    H222641   3.318   3.810   8.661 -2.1436 -0.5706 -0.5271
  336TIP3   OH222642   1.263   6.443   1.344  0.4817  0.4491 -0.6267
  336TIP3    H122643   1.358   6.452   1.336  0.5937 -0.4549 -0.4207
  336TIP3    H222644   1.228   6.523   1.304  1.3383  1.1116 -0.0968
  337TIP3   OH222645   3.937   6.443   0.579  0.2806 -0.0132 -0.0985
  337TIP3    H122646   3.915   6.434   0.486 -1.4901 -0.8208  0.3662
  337TIP3    H222647   3.886   6.519   0.608 -0.6603 -0.8821  0.6080
  338TIP3   OH222648   2.423   2.007   2.607 -0.1877 -0.0425  0.3013
  338TIP3    H122649   2.375   1.974   2.683 -0.3567  2.3156  1.2959
  338TIP3    H222650   2.357   2.054   2.555 -0.0723 -1.5789 -1.3709
  339TIP3   OH222651   6.239   1.525   7.661 -1.1783 -0.5988  0.3202
  339TIP3    H122652   6.238   1.544   7.755  1.1081  2.4318 -0.1029
  339TIP3    H222653   6.323   1.482   7.646  0.0428  1.9206 -0.6579
  340TIP3   OH222654   2.683   2.803   2.732 -0.1634  0.2626 -0.1149
  340TIP3    H122655   2.710   2.711   2.740  0.4702  0.5020  0.6788
  340TIP3    H222656   2.638   2.821   2.815  1.7207  1.2976  0.7222
  341TIP3   OH222657   4.474   3.444   1.186 -0.6269 -0.0827 -0.2551
  341TIP3    H122658   4.414   3.471   1.255  2.5755  4.3651  1.2066
  341TIP3    H222659   4.422   3.448   1.106 -3.1933 -0.4457  1.2980
  342TIP3   OH222660   5.524   6.069   1.565 -0.0220 -0.2140 -0.1340
  342TIP3    H122661   5.516   6.120   1.645  0.2632 -0.5610  0.1191
  342TIP3    H222662   5.556   6.131   1.499  1.0607 -0.2304  0.3567
  343TIP3   OH222663   1.445   2.816   2.012 -1.0072 -0.2933  0.1439
  343TIP3    H122664   1.461   2.907   2.038 -1.0761 -0.4780  0.8675
  343TIP3    H222665   1.521   2.768   2.046 -2.1364 -0.8880  2.0211
  344TIP3   OH222666   1.909   0.679   0.769  0.4915  0.2154  0.2744
  344TIP3    H122667   1.841   0.639   0.822 -0.1136  0.6164 -0.1880
  344TIP3    H222668   1.906   0.631   0.686 -0.9864  1.8756 -0.7014
  345TIP3   OH222669   5.826   4.291   1.503  0.2644 -0.3826  0.0731
  345TIP3    H122670   5.735   4.320   1.515 -0.0399 -1.2024 -0.2371
  345TIP3    H222671   5.828   4.203   1.541  0.9959 -0.2626  0.3142
  346TIP3   OH222672   4.725   5.045   1.537 -0.1646  0.3040 -0.3155
  346TIP3    H122673   4.664   4.983   1.497 -0.4029  0.5663 -0.3641
  346TIP3    H222674   4.764   5.092   1.463 -0.6182  0.8020 -0.2519
  347TIP3   OH222675   2.268   1.801   8.413  0.8574 -0.6471 -0.1016
  347TIP3    H122676   2.264   1.896   8.408  2.1076 -0.5291  0.6750
  347TIP3    H222677   2.207   1.778   8.484  0.8229 -0.3997 -0.0514
  348TIP3   OH222678   0.715   6.187   7.890 -0.2832 -0.2291  0.1547
  348TIP3    H122679   0.629   6.193   7.930 -0.3902 -1.6959  0.2086
  348TIP3    H222680   0.774   6.171   7.964 -0.0654  0.0982  0.0503
  349TIP3   OH222681   1.931   5.498   0.267  0.0624 -0.5488 -0.4599
  349TIP3    H122682   1.858   5.440   0.290  0.1961 -0.6102 -0.1916
  349TIP3    H222683   1.981   5.508   0.348  0.4894 -0.6973 -0.7030
  350TIP3   OH222684   4.623   3.320   1.570  0.5801  0.1730 -0.2179
  350TIP3    H122685   4.648   3.367   1.649 -2.1234 -1.3414  1.7027
  350TIP3    H222686   4.631   3.385   1.500  1.5027  2.0451  1.5348
  351TIP3   OH222687   6.253   0.533   8.737 -0.4418 -0.0638  0.0446
  351TIP3    H122688   6.314   0.596   8.776 -0.5600 -0.3616  0.7240
  351TIP3    H222689   6.231   0.473   8.809 -1.6412  0.1234 -0.1443
  352TIP3   OH222690   4.358   5.476   7.986 -0.0163 -0.0218 -0.4709
  352TIP3    H122691   4.439   5.442   8.023 -0.3218  0.1971  0.4306
  352TIP3    H222692   4.336   5.415   7.916  0.2117 -0.8595  0.1701
  353TIP3   OH222693   4.487   3.287   9.163 -0.2431  0.5635  0.3281
  353TIP3    H122694   4.483   3.200   9.201 -0.9672  0.1534 -0.6435
  353TIP3    H222695   4.516   3.344   9.235  0.2116 -0.4606  0.9764
  354TIP3   OH222696   2.669   0.921   3.378 -0.5772 -0.1030  0.0368
  354TIP3    H122697   2.761   0.894   3.375 -0.9511 -1.3332 -1.1135
  354TIP3    H222698   2.619   0.839   3.373 -1.7480  0.6218 -0.6059
  355TIP3   OH222699   5.702   3.247   1.309 -0.0096  0.1456 -0.2533
  355TIP3    H122700   5.608   3.231   1.321 -0.4621  0.7122 -2.5836
  355TIP3    H222701   5.708   3.341   1.292  0.7925 -0.1063 -1.4908
  356TIP3   OH222702   1.115   0.901   2.204 -0.0100  0.2710 -0.5180
  356TIP3    H122703   1.067   0.831   2.161 -0.1079  0.9176 -1.4824
  356TIP3    H222704   1.052   0.973   2.210  0.3539  0.5768 -0.3443
  357TIP3   OH222705   2.711   0.073   8.142 -0.2306  0.0585  0.7555
  357TIP3    H122706   2.680   0.104   8.057  1.2769 -0.9642 -0.2214
  357TIP3    H222707   2.710   0.151   8.198 -1.0780  0.7895 -0.2353
  358TIP3   OH222708   1.642   3.663   1.480 -0.1675 -0.3573 -0.1074
  358TIP3    H122709   1.678   3.749   1.504 -0.5251  0.4761 -2.2499
  358TIP3    H222710   1.608   3.627   1.562  1.0687  1.0057  1.0716
  359TIP3   OH222711   2.071   5.822   2.208  0.5106 -0.0297 -0.1680
  359TIP3    H122712   1.988   5.868   2.219  0.2651 -0.5379  0.1649
  359TIP3    H222713   2.062   5.774   2.126 -0.9600 -2.9366  1.5197
  360TIP3   OH222714   2.903   4.349   2.249 -0.0065 -0.3647  0.6676
  360TIP3    H122715   2.901   4.274   2.191  2.2239  0.7659 -1.0544
  360TIP3    H222716   2.909   4.312   2.337 -0.5857 -2.1410 -0.0034
  361TIP3   OH222717   2.577   4.076   0.176 -0.0144  0.7033 -0.2139
  361TIP3    H122718   2.640   4.006   0.162 -0.3396  0.6136 -1.3517
  361TIP3    H222719   2.593   4.105   0.266  1.4357  0.4807 -0.3672
  362TIP3   OH222720   3.613   2.785   1.401  0.1193 -0.3740 -0.1543
  362TIP3    H122721   3.680   2.826   1.455  1.0243  0.8522 -2.1148
  362TIP3    H222722   3.618   2.692   1.423 -0.4228  0.1880  2.7335
  363TIP3   OH222723   1.467   1.469   7.285  0.3415 -0.7537  0.8425
  363TIP3    H122724   1.408   1.511   7.222 -0.2524  0.0697  1.9259
  363TIP3    H222725   1.417   1.466   7.366  1.2435 -1.4513  1.3867
  364TIP3   OH222726   4.259   6.100   2.921  0.4347 -0.4786  0.2923
  364TIP3    H122727   4.307   6.035   2.971 -0.8477 -0.7922  1.1648
  364TIP3    H222728   4.227   6.162   2.987  0.8681  0.5505 -0.4263
  365TIP3   OH222729   2.327   3.100   8.028  0.2030  0.4483  0.1155
  365TIP3    H122730   2.393   3.050   7.981 -1.6646 -0.2048 -2.0212
  365TIP3    H222731   2.372   3.133   8.106  2.9173 -0.1755 -1.0687
  366TIP3   OH222732   4.838   4.831   8.133  0.3861  0.1609  0.6977
  366TIP3    H122733   4.849   4.738   8.155 -1.7534 -0.7291 -1.5436
  366TIP3    H222734   4.897   4.846   8.059  1.5884  0.9669  1.7715
  367TIP3   OH222735   3.948   4.280   8.408  0.9467 -0.1008 -0.0989
  367TIP3    H122736   4.023   4.238   8.450  1.3599  0.3827 -0.3428
  367TIP3    H222737   3.960   4.373   8.425 -0.4654 -0.1131  1.2613
  368TIP3   OH222738   1.262   5.120   0.205 -0.0329 -0.3862 -0.3465
  368TIP3    H122739   1.277   5.046   0.147 -1.3800 -1.9493  1.2103
  368TIP3    H222740   1.230   5.189   0.147 -1.9817 -2.0955 -1.4352
  369TIP3   OH222741   2.588   3.022   1.943 -0.5157  0.3163  0.0588
  369TIP3    H122742   2.548   3.100   1.982 -1.1822  0.4827 -0.9144
  369TIP3    H222743   2.625   2.974   2.017 -0.6043  1.2664  0.7381
  370TIP3   OH222744   0.483   4.790   7.946  0.1058 -0.2515  0.0830
  370TIP3    H122745   0.430   4.870   7.943  1.1511  0.4374 -1.1816
  370TIP3    H222746   0.421   4.720   7.923 -0.7715  0.2041  0.9737
  371TIP3   OH222747   0.194   6.175   7.456  0.3187 -0.0768 -0.0308
  371TIP3    H122748   0.159   6.254   7.415  2.3801  0.4973 -0.7928
  371TIP3    H222749   0.194   6.110   7.385 -0.5187 -0.5067  0.3523
  372TIP3   OH222750   0.881   4.208   8.122 -0.4121 -0.0643 -0.0721
  372TIP3    H122751   0.799   4.243   8.087 -0.4157  0.4372  0.4260
  372TIP3    H222752   0.947   4.273   8.098 -0.0606 -0.7087 -0.9134
  373TIP3   OH222753   5.332   3.982   1.918 -0.3163 -0.2507 -0.3386
  373TIP3    H122754   5.266   3.996   1.986  0.7249 -0.2213  0.7113
  373TIP3    H222755   5.289   3.928   1.852 -1.1413 -0.8694  0.6886
  374TIP3   OH222756   5.957   1.204   7.126 -0.1898  0.2554  0.2329
  374TIP3    H122757   5.879   1.250   7.096 -0.7526 -1.2901 -0.7829
  374TIP3    H222758   5.928   1.156   7.204 -0.2976 -0.4245 -0.2218
  375TIP3   OH222759   0.725   6.439   0.436  0.2589  0.3043 -0.3135
  375TIP3    H122760   0.709   6.521   0.483 -1.4514  0.4578 -1.0553
  375TIP3    H222761   0.638   6.400   0.426  0.9301 -1.1552 -0.7885
  376TIP3   OH222762   5.619   5.616   0.370  0.8183  0.3270 -0.6884
  376TIP3    H122763   5.533   5.574   0.378  0.8655  0.3529 -0.0179
  376TIP3    H222764   5.669   5.557   0.313  1.9347 -2.3131  2.6474
  377TIP3   OH222765   5.810   5.192   0.323 -0.5110  0.7044  0.0418
  377TIP3    H122766   5.741   5.151   0.375 -0.4460 -0.8692 -1.0470
  377TIP3    H222767   5.891   5.175   0.371 -0.5409 -0.1023 -0.1743
  378TIP3   OH222768   0.162   2.067   2.361  0.2302 -0.3773 -0.0039
  378TIP3    H122769   0.179   2.071   2.455  0.1409 -1.7950  0.0928
  378TIP3    H222770   0.236   2.112   2.321  0.9777 -0.9635  0.6933
  379TIP3   OH222771   0.595   0.611   8.918 -0.2109 -0.2664  0.1488
  379TIP3    H122772   0.528   0.679   8.926  0.9853  0.9418  0.2850
  379TIP3    H222773   0.575   0.548   8.988  0.8303  1.9029  2.5427
  380TIP3   OH222774   3.015   1.503   8.567 -0.0424  0.2524 -0.1409
  380TIP3    H122775   3.071   1.479   8.493 -0.2074  0.2797 -0.2775
  380TIP3    H222776   3.073   1.549   8.628  0.6188 -1.7812  0.8339
  381TIP3   OH222777   2.437   6.119   7.514 -0.1351  0.3282  0.3475
  381TIP3    H122778   2.411   6.037   7.473  0.5466 -0.2091  0.9679
  381TIP3    H222779   2.485   6.166   7.446  0.7248 -0.4259  0.4132
  382TIP3   OH222780   4.357   1.988   2.607 -0.1554 -0.1912  0.7285
  382TIP3    H122781   4.420   2.031   2.549 -0.3278 -0.8684  0.0136
  382TIP3    H222782   4.400   1.986   2.693 -0.2941  1.6956  0.8737
  383TIP3   OH222783   5.711   3.627   8.718 -0.2715 -0.0589  0.5553
  383TIP3    H122784   5.773   3.623   8.645 -1.1191  1.1174 -0.2766
  383TIP3    H222785   5.718   3.542   8.761 -0.9620 -1.4555 -1.9121
  384TIP3   OH222786   2.504   0.961   0.941 -0.4153  0.3186 -0.0447
  384TIP3    H122787   2.424   0.948   0.993 -1.0380  2.7559 -0.2549
  384TIP3    H222788   2.516   0.879   0.894 -0.0378 -1.9119  3.5802
  385TIP3   OH222789   2.013   3.416   1.866 -0.9197  0.0842 -0.0985
  385TIP3    H122790   2.019   3.421   1.962 -0.4365  0.9757 -0.1559
  385TIP3    H222791   2.002   3.323   1.847 -0.6473 -0.1459  0.8090
  386TIP3   OH222792   6.359   1.753   0.365  0.3662 -0.3062 -0.1199
  386TIP3    H122793   6.313   1.686   0.313  0.6897 -1.0178  0.4895
  386TIP3    H222794   6.436   1.774   0.312 -0.1426  0.1921 -0.6925
  387TIP3   OH222795   0.447   2.718   6.772 -0.5131 -0.3941  0.0419
  387TIP3    H122796   0.376   2.711   6.709  0.2366 -0.9326 -0.7569
  387TIP3    H222797   0.422   2.659   6.843 -1.6335  0.6443  0.5400
  388TIP3   OH222798   4.373   3.528   1.802  0.0399 -0.3874 -0.0192
  388TIP3    H122799   4.447   3.569   1.758 -0.2579 -0.4735 -0.6153
  388TIP3    H222800   4.339   3.464   1.738 -0.4213 -0.4914  0.3208
  389TIP3   OH222801   3.322   1.011   8.445 -0.2495  0.2471  0.2526
  389TIP3    H122802   3.364   1.031   8.362 -1.1995  2.1984  0.2052
  389TIP3    H222803   3.233   1.043   8.436 -1.1384 -1.8043  1.1578
  390TIP3   OH222804   3.464   0.230   8.444  0.0536 -0.2837  0.4773
  390TIP3    H122805   3.369   0.232   8.432  0.1002  0.6147  0.1956
  390TIP3    H222806   3.490   0.140   8.422 -0.6518 -0.3729  0.0008
  391TIP3   OH222807   5.923   6.130   0.056 -0.1249 -0.3104  0.1641
  391TIP3    H122808   5.967   6.096  -0.022 -0.4961 -0.0940 -0.1449
  391TIP3    H222809   5.981   6.199   0.088 -0.4928  0.3683 -0.5703
  392TIP3   OH222810   5.654   1.266   3.177  0.1974 -0.3861  0.8295
  392TIP3    H122811   5.629   1.178   3.150 -0.8838  0.4513 -1.0776
  392TIP3    H222812   5.591   1.324   3.133  0.5564  1.3223  2.4243
  393TIP3   OH222813   4.753   6.558   2.112 -0.1470 -0.3091  0.9053
  393TIP3    H122814   4.681   6.495   2.106  1.8578 -2.7124  0.2204
  393TIP3    H222815   4.755   6.601   2.026 -1.3029  0.4599  1.2476
  394TIP3   OH222816   2.384   3.698   8.929  0.5009  0.2569  0.2776
  394TIP3    H122817   2.362   3.727   9.017 -0.4338  0.4859 -0.0105
  394TIP3    H222818   2.457   3.638   8.940 -1.6015 -2.2749  1.5966
  395TIP3   OH222819   2.791   2.653   3.291  0.1662  0.0867  0.2428
  395TIP3    H122820   2.789   2.748   3.305 -1.4200 -0.2668  3.2864
  395TIP3    H222821   2.701   2.632   3.265  0.3580 -0.6646  0.1821
  396TIP3   OH222822   5.992   0.783   0.660 -0.5337 -0.4019 -0.8226
  396TIP3    H122823   5.920   0.723   0.674 -0.7395 -0.2439 -1.1928
  396TIP3    H222824   5.961   0.867   0.693  0.0697 -0.6789  0.4948
  397TIP3   OH222825   2.578   4.161   0.476 -0.1452 -0.4341  0.3066
  397TIP3    H122826   2.545   4.250   0.481 -0.1330 -0.4782  1.8531
  397TIP3    H222827   2.557   4.123   0.562  1.4112 -1.3538  0.3157
  398TIP3   OH222828   4.904   5.395   0.804 -0.0287 -0.0481 -0.3948
  398TIP3    H122829   4.893   5.301   0.794 -0.8223 -0.3928  2.7233
  398TIP3    H222830   4.986   5.404   0.852 -0.1777  0.8266 -0.2900
  399TIP3   OH222831   6.341   1.450   2.715  0.1901  0.2076  0.5530
  399TIP3    H122832   6.354   1.496   2.798  1.4308  0.5863  0.1634
  399TIP3    H222833   6.409   1.382   2.715 -1.0650 -1.0937  0.7329
  400TIP3   OH222834   1.368   0.514   7.232 -0.2986 -0.1034  0.6180
  400TIP3    H122835   1.284   0.559   7.234 -0.3900 -0.2995  2.4746
  400TIP3    H222836   1.363   0.450   7.303  0.6079 -1.6470 -0.6121
  401TIP3   OH222837   2.776   1.573   9.051  0.3663 -0.3209 -0.8222
  401TIP3    H122838   2.784   1.535   8.964 -0.0368 -1.2803 -0.4522
  401TIP3    H222839   2.858   1.549   9.096 -1.3139 -4.1719  0.6719
  402TIP3   OH222840   5.683   4.939   1.366 -0.0980 -0.3291 -0.4272
  402TIP3    H122841   5.662   4.846   1.366  0.2499 -0.4308 -2.1116
  402TIP3    H222842   5.747   4.950   1.436  0.4789 -1.5113 -0.7499
  403TIP3   OH222843   0.617   0.553   8.431  0.5138  0.0180 -0.4591
  403TIP3    H122844   0.559   0.595   8.495 -1.3314  1.4019 -2.9020
  403TIP3    H222845   0.672   0.624   8.398  0.9344 -0.5287 -0.9682
  404TIP3   OH222846   5.118   3.309   1.313  0.5069 -0.3672 -0.0201
  404TIP3    H122847   5.093   3.366   1.385 -0.1898  0.6330 -1.0149
  404TIP3    H222848   5.055   3.328   1.244  1.1748 -1.2649 -0.9157
  405TIP3   OH222849   6.410   5.902   8.850  0.0453  0.3506 -0.9464
  405TIP3    H122850   6.450   5.840   8.912  0.4795  0.5584 -1.0106
  405TIP3    H222851   6.457   5.886   8.768  0.0084  0.6137 -1.0187
  406TIP3   OH222852   4.520   4.952   7.587 -0.0491 -0.0382  0.4174
  406TIP3    H122853   4.486   4.903   7.512 -0.6458 -0.2282  0.8025
  406TIP3    H222854   4.455   5.020   7.604  1.4820  1.9095 -1.0469
  407TIP3   OH222855   5.243   0.293   1.528  0.3597 -0.1656 -0.9947
  407TIP3    H122856   5.196   0.372   1.553  0.2340 -0.5293  0.0031
  407TIP3    H222857   5.298   0.319   1.454 -0.0885  0.7084 -1.0303
  408TIP3   OH222858   3.180   5.398   8.677  0.7303  0.2530 -0.5805
  408TIP3    H122859   3.141   5.315   8.654 -0.0826  0.4722 -0.0307
  408TIP3    H222860   3.254   5.408   8.617 -0.2985  0.0283 -1.9262
  409TIP3   OH222861   6.204   4.825   0.282 -0.7101  0.2633  0.1298
  409TIP3    H122862   6.151   4.748   0.303  0.9399 -0.5214  1.6298
  409TIP3    H222863   6.217   4.870   0.366  0.1280  1.0087 -0.3739
  410TIP3   OH222864   2.678   3.922   1.973  0.2755 -0.0236 -0.2276
  410TIP3    H122865   2.583   3.932   1.978  0.3796  1.1304 -0.1960
  410TIP3    H222866   2.693   3.873   1.893 -0.2383  2.2226 -1.8014
  411TIP3   OH222867   3.433   3.641   8.081  0.0200  0.2114 -0.2573
  411TIP3    H122868   3.420   3.732   8.109 -0.1984  1.3513 -3.6327
  411TIP3    H222869   3.366   3.591   8.129  0.0953  1.7819  1.6121
  412TIP3   OH222870   2.394   2.763   1.603  0.3977  0.1609 -0.0667
  412TIP3    H122871   2.440   2.752   1.686 -0.1383  1.0219  0.3673
  412TIP3    H222872   2.311   2.806   1.628  0.9402  1.9774 -1.1913
  413TIP3   OH222873   2.460   2.125   0.003 -0.1859  0.3032  0.0896
  413TIP3    H122874   2.411   2.207   0.008  1.2281  1.1241  1.3166
  413TIP3    H222875   2.412   2.066   0.061 -0.4195  0.7069  0.3208
  414TIP3   OH222876   4.336   2.190   1.446 -0.8954  0.5952  0.3229
  414TIP3    H122877   4.381   2.196   1.361  0.0919  1.1119  0.8662
  414TIP3    H222878   4.397   2.143   1.502 -3.1252 -3.3543 -0.2405
  415TIP3   OH222879   4.624   2.471   1.355  0.8404 -0.0915  0.2189
  415TIP3    H122880   4.611   2.560   1.324  0.3987  0.8719  2.8505
  415TIP3    H222881   4.538   2.445   1.390  1.2095 -1.1780  0.3683
  416TIP3   OH222882   0.058   2.874   7.696 -0.0041  0.2878 -0.7304
  416TIP3    H122883  -0.030   2.887   7.661 -0.0462  0.7730 -0.4521
  416TIP3    H222884   0.116   2.906   7.626 -0.0420 -0.1560 -0.9680
  417TIP3   OH222885   1.541   0.267   8.242  0.2555  0.2631 -0.0835
  417TIP3    H122886   1.475   0.328   8.211  0.1273 -0.4873 -1.3578
  417TIP3    H222887   1.616   0.321   8.265 -1.0692  1.2310  2.2808
  418TIP3   OH222888   0.263   4.284   0.532 -0.4359  0.4722 -0.7073
  418TIP3    H122889   0.208   4.351   0.572  1.5554  1.6361  0.2358
  418TIP3    H222890   0.265   4.306   0.439 -0.8832  0.9016 -0.6175
  419TIP3   OH222891   1.253   1.832   7.098  0.1614  0.3963 -0.1261
  419TIP3    H122892   1.313   1.758   7.088 -1.0266 -0.4277 -1.7334
  419TIP3    H222893   1.189   1.802   7.164 -0.1660  0.0826 -0.5811
  420TIP3   OH222894   2.225   4.501   9.034  0.2169 -0.2229 -0.8195
  420TIP3    H122895   2.244   4.583   9.081 -0.2385 -0.9565  0.7273
  420TIP3    H222896   2.248   4.432   9.097  1.9925 -1.3633 -2.6159
  421TIP3   OH222897   0.743   1.926   0.273 -0.3233  0.4392 -0.0476
  421TIP3    H122898   0.824   1.877   0.259 -0.9108 -1.1184  1.6004
  421TIP3    H222899   0.749   2.000   0.212  1.3535 -0.7808 -1.4684
  422TIP3   OH222900   5.766   6.263   7.287  0.7874 -0.2345 -0.0170
  422TIP3    H122901   5.788   6.180   7.245  2.8486 -0.1631  0.8141
  422TIP3    H222902   5.851   6.307   7.299 -0.2883  2.4154 -1.2771
  423TIP3   OH222903   4.304   4.296   0.404  0.5867  0.0955  0.3208
  423TIP3    H122904   4.398   4.308   0.419  0.8612 -1.9784  0.4638
  423TIP3    H222905   4.298   4.242   0.326 -0.4186 -1.2103  1.2508
  424TIP3   OH222906   4.330   2.923   7.805 -0.4916  0.1442  0.1995
  424TIP3    H122907   4.371   2.929   7.719  0.5703 -1.0665  0.5867
  424TIP3    H222908   4.237   2.909   7.787 -0.4960  1.2371 -0.7178
  425TIP3   OH222909   2.633   4.686   7.704 -0.3064 -0.6873  0.0378
  425TIP3    H122910   2.548   4.712   7.669 -0.9832 -0.5765  1.6785
  425TIP3    H222911   2.641   4.593   7.681 -0.0505 -0.2960 -1.6224
  426TIP3   OH222912   0.391   1.373   8.187 -0.3647 -0.0293 -0.2582
  426TIP3    H122913   0.476   1.329   8.187 -1.1265 -1.6037 -0.5767
  426TIP3    H222914   0.386   1.416   8.272  0.4926 -0.4514  0.0190
  427TIP3   OH222915   0.399   3.089   8.858  0.2888  0.1679 -0.0444
  427TIP3    H122916   0.379   3.079   8.765 -1.0836  2.6042 -0.0958
  427TIP3    H222917   0.322   3.055   8.903 -1.1903  3.2339 -0.0283
  428TIP3   OH222918   0.397   2.163   1.106 -0.1612 -0.0297  0.1047
  428TIP3    H122919   0.341   2.153   1.029  1.7702  0.2856 -1.4486
  428TIP3    H222920   0.355   2.231   1.158 -1.4885 -0.2009 -0.7054
  429TIP3   OH222921   0.373   2.443   8.961 -0.0062  0.3060 -0.4797
  429TIP3    H122922   0.405   2.434   9.051  0.2370 -1.0787 -0.6843
  429TIP3    H222923   0.388   2.357   8.921  0.2729  1.0012 -1.9703
  430TIP3   OH222924   5.358   2.862   9.042 -0.2623 -0.3103 -0.5632
  430TIP3    H122925   5.314   2.783   9.010 -2.4424  0.1925  0.9408
  430TIP3    H222926   5.379   2.842   9.134  1.5962 -0.0460 -0.8813
  431TIP3   OH222927   2.200   3.235   8.629  0.5045 -0.0612 -0.3378
  431TIP3    H122928   2.145   3.157   8.621  0.1496  0.0266  1.0202
  431TIP3    H222929   2.290   3.201   8.632  0.3646 -0.4065  0.0248
  432TIP3   OH222930   4.773   1.848   0.512  0.1091  0.0042  0.2906
  432TIP3    H122931   4.801   1.785   0.446  0.8303  1.6710 -1.0893
  432TIP3    H222932   4.824   1.826   0.589 -1.3640 -2.5240  0.6463
  433TIP3   OH222933   0.273   2.735   0.720  0.6787  0.5844 -1.0304
  433TIP3    H122934   0.216   2.757   0.646  0.5634  0.1028 -1.0867
  433TIP3    H222935   0.360   2.726   0.680  0.4286 -0.8307 -1.3244
  434TIP3   OH222936   3.092   0.439   2.667  0.0031 -0.0886  0.0736
  434TIP3    H122937   3.149   0.370   2.700  0.1385  0.7615  1.7405
  434TIP3    H222938   3.004   0.407   2.681  0.0677 -0.0917  0.4791
  435TIP3   OH222939   1.462   1.750   1.120 -0.0616 -0.1411  0.1756
  435TIP3    H122940   1.469   1.816   1.051  1.2990  1.2053  1.4993
  435TIP3    H222941   1.377   1.708   1.106 -0.1870  0.6703 -1.7720
  436TIP3   OH222942   1.034   0.678   8.384 -0.7463  0.8524 -0.0464
  436TIP3    H122943   0.985   0.626   8.448  1.0763 -1.0944 -0.0946
  436TIP3    H222944   1.123   0.682   8.419  0.0768  0.5550 -1.9476
  437TIP3   OH222945   5.447   1.247   2.661  0.6976 -0.0005  0.2792
  437TIP3    H122946   5.417   1.275   2.748  1.0555 -0.2849  0.5020
  437TIP3    H222947   5.543   1.256   2.666  0.6956  0.2952 -0.1995
  438TIP3   OH222948   0.006   6.518   8.450 -0.2680 -0.6452 -0.2807
  438TIP3    H122949   0.099   6.537   8.441 -0.2117 -0.9636 -0.3636
  438TIP3    H222950  -0.010   6.517   8.545 -0.8726  2.7856 -0.1906
  439TIP3   OH222951   3.464   2.172   1.326 -0.3426  0.0454  0.2423
  439TIP3    H122952   3.448   2.115   1.251 -2.7468 -0.2849  0.9055
  439TIP3    H222953   3.408   2.248   1.309  0.5724  0.8471  0.7873
  440TIP3   OH222954   5.866   6.082   1.449 -0.3518  0.5946 -0.3364
  440TIP3    H122955   5.906   6.140   1.514 -3.1642  1.8584  0.4517
  440TIP3    H222956   5.851   6.139   1.373 -1.0852  0.3311 -0.4016
  441TIP3   OH222957   1.805   5.528   1.836 -0.2628  0.1377  0.6044
  441TIP3    H122958   1.795   5.468   1.910  3.1568  1.1303  2.1145
  441TIP3    H222959   1.822   5.472   1.761 -1.4890 -0.8530  1.0431
  442TIP3   OH222960   1.722   5.932   6.619 -0.3805  0.1478  0.0319
  442TIP3    H122961   1.743   5.978   6.699  0.0369  0.1372 -0.0728
  442TIP3    H222962   1.692   5.845   6.648  1.0276 -0.3272  0.1167
  443TIP3   OH222963   5.426   2.957   8.806  0.2020 -1.0169  0.7283
  443TIP3    H122964   5.393   2.941   8.894 -0.1025  1.7182  1.2150
  443TIP3    H222965   5.519   2.934   8.811 -0.4375 -3.9451  0.7729
  444TIP3   OH222966   5.870   4.006   2.010 -0.7387 -0.1037  0.3698
  444TIP3    H122967   5.840   4.081   1.960  1.0507  0.2118 -0.2948
  444TIP3    H222968   5.934   4.043   2.072  0.0682 -1.0528  0.1169
  445TIP3   OH222969   2.878   4.689   8.195  0.3164 -0.3210 -0.2055
  445TIP3    H122970   2.948   4.692   8.130 -0.0622 -0.7586 -0.6449
  445TIP3    H222971   2.844   4.599   8.190 -1.0805  0.2116 -0.8796
  446TIP3   OH222972   2.621   2.138   8.752  0.4152 -0.2998  0.3098
  446TIP3    H122973   2.622   2.146   8.656  1.1715  1.4932  0.4316
  446TIP3    H222974   2.597   2.225   8.783 -0.8146 -1.0990  1.7622
  447TIP3   OH222975   2.896   5.156   0.735  0.3101  0.5943  0.2142
  447TIP3    H122976   2.882   5.119   0.822 -0.7512  0.2749 -0.0717
  447TIP3    H222977   2.830   5.225   0.727 -0.4953 -0.2592 -0.8148
  448TIP3   OH222978   3.192   5.805   1.223 -0.0787  0.2939  0.3303
  448TIP3    H122979   3.136   5.827   1.149 -0.5449  0.9496  0.8583
  448TIP3    H222980   3.228   5.719   1.202 -0.1965  0.4762 -0.6508
  449TIP3   OH222981   2.041   5.148   0.571 -0.1909 -0.3855  0.2572
  449TIP3    H122982   1.982   5.152   0.646  1.5421  0.7905  1.6448
  449TIP3    H222983   2.063   5.056   0.562 -0.3117 -0.5249  1.3132
  450TIP3   OH222984   2.174   6.089   0.188  0.1728  0.2045 -0.4601
  450TIP3    H122985   2.200   5.999   0.168 -1.0411  0.0580 -1.5023
  450TIP3    H222986   2.182   6.136   0.105 -0.8318  0.6435 -0.3244
  451TIP3   OH222987   4.006   2.548   8.351 -0.8978  0.0983 -0.5229
  451TIP3    H122988   3.942   2.505   8.294  0.0876 -3.3354  0.7239
  451TIP3    H222989   4.085   2.555   8.298 -1.4997  1.9942 -1.2406
  452TIP3   OH222990   1.526   2.024   0.148  0.0448 -0.3669 -0.1358
  452TIP3    H122991   1.584   2.099   0.154  0.9500 -1.0896  0.4902
  452TIP3    H222992   1.438   2.061   0.142  0.5715  0.7562 -1.4104
  453TIP3   OH222993   5.521   5.426   1.610 -0.1149  0.5579 -0.2368
  453TIP3    H122994   5.511   5.354   1.548 -0.4281 -0.9509  1.4861
  453TIP3    H222995   5.438   5.429   1.657  1.3069 -0.8979  2.6652
  454TIP3   OH222996   4.346   1.394   8.490  0.2420 -0.2542  0.0530
  454TIP3    H122997   4.302   1.357   8.414 -2.0718 -1.0253  1.6737
  454TIP3    H222998   4.365   1.484   8.466 -0.8303 -0.3662 -1.2875
  455TIP3   OH222999   0.710   4.618   2.377  0.0888  0.1622 -0.6702
  455TIP3    H123000   0.723   4.694   2.433 -0.4097  0.5292 -1.0405
  455TIP3    H223001   0.620   4.625   2.347 -0.1631 -0.9061 -0.2330
  456TIP3   OH223002   1.910   0.056   1.344  0.2567 -0.4830 -0.1602
  456TIP3    H123003   1.990   0.014   1.312  0.1406  0.4442 -1.7673
  456TIP3    H223004   1.844   0.037   1.278 -0.6199 -0.4671  0.6987
  457TIP3   OH223005   1.012   5.163   6.936 -0.4229 -0.3130  0.1424
  457TIP3    H123006   1.025   5.256   6.919 -0.9034 -0.5910 -2.0073
  457TIP3    H223007   0.990   5.126   6.851  1.0577 -2.6368  0.6722
  458TIP3   OH223008   6.407   3.611   0.041  0.1383 -0.6039  0.4628
  458TIP3    H123009   6.486   3.662   0.026 -0.4462  0.1705 -0.0863
  458TIP3    H223010   6.390   3.621   0.135  0.5192 -0.5161  0.5225
  459TIP3   OH223011   2.023   3.213   2.160  0.0976 -0.1804  0.2071
  459TIP3    H123012   2.074   3.135   2.178 -1.6583 -1.3150  0.4957
  459TIP3    H223013   1.949   3.208   2.221  0.2434  2.0333  0.6657
  460TIP3   OH223014   5.141   2.378   0.221  0.3614 -0.5217  0.4900
  460TIP3    H123015   5.060   2.394   0.172  1.0476  0.9207 -0.2522
  460TIP3    H223016   5.184   2.307   0.173  0.2632 -0.2224 -0.0492
  461TIP3   OH223017   1.364   4.671   1.601 -0.1242 -0.3322  0.2058
  461TIP3    H123018   1.322   4.590   1.571  1.0814 -0.6819 -0.6001
  461TIP3    H223019   1.341   4.678   1.693  0.0641 -1.7902  0.3731
  462TIP3   OH223020   5.174   0.785   8.295  0.0208 -0.2344 -0.2865
  462TIP3    H123021   5.247   0.797   8.235  0.2877 -1.1452 -0.1565
  462TIP3    H223022   5.103   0.753   8.239 -0.4861  1.1833 -0.5168
  463TIP3   OH223023   3.202   2.114   2.301 -0.0367  1.0740 -0.3302
  463TIP3    H123024   3.210   2.019   2.306  0.7247  1.0538 -1.5979
  463TIP3    H223025   3.111   2.131   2.326 -0.9984 -0.2329 -2.6078
  464TIP3   OH223026   0.587   2.011   0.810  0.3296  0.4190 -0.0987
  464TIP3    H123027   0.657   1.953   0.838  0.2811  0.0114 -0.7979
  464TIP3    H223028   0.630   2.095   0.795  1.1597 -0.3901 -2.7966
  465TIP3   OH223029   6.161   5.360   1.121 -0.8513 -0.7213 -0.0444
  465TIP3    H123030   6.202   5.414   1.053  0.1097 -0.6006  0.6098
  465TIP3    H223031   6.071   5.392   1.126 -0.8826 -0.5935 -1.1077
  466TIP3   OH223032   6.363   5.877   0.029 -0.2714 -0.0500  0.4931
  466TIP3    H123033   6.304   5.804   0.051 -1.4685  0.6775 -0.1540
  466TIP3    H223034   6.429   5.876   0.098 -0.5164 -1.4726  0.7411
  467TIP3   OH223035   4.635   1.971   9.023 -0.2789  0.1341 -0.1451
  467TIP3    H123036   4.632   2.047   9.082 -0.3377  0.4238 -0.5182
  467TIP3    H223037   4.546   1.965   8.989 -0.0225  0.5172 -0.8951
  468TIP3   OH223038   4.437   4.645   7.817 -0.4145 -0.0508  0.1264
  468TIP3    H123039   4.460   4.630   7.725 -1.1963  0.8896 -0.2350
  468TIP3    H223040   4.478   4.729   7.838 -1.9581  0.7765 -0.0068
  469TIP3   OH223041   1.241   1.877   1.978 -0.7313  0.4316  0.2745
  469TIP3    H123042   1.202   1.875   2.065  0.1824  3.2099  0.8460
  469TIP3    H223043   1.168   1.900   1.920 -1.1271 -0.4005  0.4234
  470TIP3   OH223044   2.996   6.512   1.794  0.0233 -0.0504 -0.3975
  470TIP3    H123045   3.071   6.566   1.771 -1.6098  2.0473 -1.1723
  470TIP3    H223046   3.009   6.491   1.887  0.9933  1.2324 -0.2199
  471TIP3   OH223047   5.962   2.878   0.984 -0.2805  0.4339 -0.3030
  471TIP3    H123048   5.927   2.890   1.072  0.3615  2.1830 -0.2621
  471TIP3    H223049   6.054   2.855   0.998 -0.0893  1.0534 -0.5089
  472TIP3   OH223050   1.691   3.927   1.560 -0.0178  0.2010 -0.0455
  472TIP3    H123051   1.782   3.899   1.566 -0.3505 -0.9321 -0.0698
  472TIP3    H223052   1.656   3.916   1.649 -0.2677  0.1266 -0.1499
  473TIP3   OH223053   2.220   4.893   8.063 -0.0180 -0.2374  0.3047
  473TIP3    H123054   2.154   4.889   8.132 -1.6818  0.4762 -1.1737
  473TIP3    H223055   2.189   4.961   8.004  1.0961 -1.1390 -1.3982
  474TIP3   OH223056   4.506   4.039   2.531 -0.0666  0.7097  0.0217
  474TIP3    H123057   4.460   4.110   2.576  0.8118  1.3315 -0.0370
  474TIP3    H223058   4.586   4.026   2.581  0.1852  0.3482 -0.4672
  475TIP3   OH223059   5.416   0.563   2.657  0.1102 -0.2463  0.2823
  475TIP3    H123060   5.476   0.625   2.699  0.8666 -0.5594 -0.3234
  475TIP3    H223061   5.444   0.477   2.689 -0.0125 -0.3932 -0.0101
  476TIP3   OH223062   4.620   2.522   2.155  0.2587  0.3478  0.0516
  476TIP3    H123063   4.654   2.437   2.183  0.3800  0.5022  0.3803
  476TIP3    H223064   4.600   2.511   2.062 -1.1680 -0.5043  0.4275
  477TIP3   OH223065   1.011   6.622   8.492  0.1481 -0.1076 -0.0134
  477TIP3    H123066   0.997   6.653   8.403  1.3082  2.3902  0.6125
  477TIP3    H223067   1.101   6.590   8.493  1.2594  2.7581  0.9309
  478TIP3   OH223068   6.205   4.552   9.185  0.9082 -0.5978 -0.6625
  478TIP3    H123069   6.186   4.463   9.153  3.5113 -0.9606 -1.4430
  478TIP3    H223070   6.300   4.553   9.195  1.0299  2.3533 -1.3962
  479TIP3   OH223071   0.310   2.266   2.172 -0.2060  1.1118  0.0988
  479TIP3    H123072   0.388   2.309   2.207 -0.6398  0.7560  1.5606
  479TIP3    H223073   0.342   2.182   2.139 -0.2185  0.0253  2.6096
  480TIP3   OH223074   1.454   1.803   1.823  0.5002 -0.7640  0.2271
  480TIP3    H123075   1.407   1.852   1.891 -1.2055 -0.6823 -0.9285
  480TIP3    H223076   1.424   1.713   1.834  1.4358 -1.0474  0.5479
  481TIP3   OH223077   4.325   0.749   3.015 -0.0705  0.1556  0.9804
  481TIP3    H123078   4.404   0.700   3.037 -0.7731 -1.2070  0.5817
  481TIP3    H223079   4.357   0.830   2.974  1.1067 -0.8015 -0.0457
  482TIP3   OH223080   1.443   5.179   7.418  0.1414 -0.2214  0.2801
  482TIP3    H123081   1.477   5.101   7.462 -0.5386 -0.3690  0.5538
  482TIP3    H223082   1.491   5.182   7.335 -2.0462 -2.8300 -1.2756
  483TIP3   OH223083   1.563   0.158   2.116 -0.7024  0.4315 -0.0486
  483TIP3    H123084   1.515   0.086   2.157 -0.1763 -0.4168 -0.8637
  483TIP3    H223085   1.648   0.119   2.093 -0.9555  0.8554 -1.8859
  484TIP3   OH223086   4.798   1.707   0.258  0.3571 -0.3305  0.5024
  484TIP3    H123087   4.876   1.657   0.231  0.6063 -0.8218  2.0308
  484TIP3    H223088   4.761   1.739   0.176  1.1890 -1.5565 -0.3976
  485TIP3   OH223089   4.671   6.472   0.782 -0.0885 -0.4014  0.2990
  485TIP3    H123090   4.649   6.563   0.767 -0.8105 -0.7527 -0.8830
  485TIP3    H223091   4.766   6.472   0.795 -0.1951  0.6104  1.2430
  486TIP3   OH223092   5.451   1.790   2.999 -0.5377  0.0681 -0.2222
  486TIP3    H123093   5.540   1.772   2.966 -0.7269 -3.8095  0.9237
  486TIP3    H223094   5.464   1.859   3.064  1.5015  0.2893 -0.7722
  487TIP3   OH223095   0.943   1.169   8.439  0.8017 -0.0427  0.4753
  487TIP3    H123096   0.943   1.115   8.361 -0.9568  1.5710 -0.7312
  487TIP3    H223097   0.869   1.136   8.491  0.1471  0.7092  0.0512
  488TIP3   OH223098   1.896   0.325   1.963 -0.0024  0.0721 -0.1058
  488TIP3    H123099   1.832   0.381   2.006 -1.3096 -0.8950 -0.7110
  488TIP3    H223100   1.927   0.376   1.889  0.3241  0.7479  0.4877
  489TIP3   OH223101   4.779   5.607   8.333  0.2040  0.3086 -0.7116
  489TIP3    H123102   4.795   5.627   8.425  0.3708  0.8432 -0.8527
  489TIP3    H223103   4.776   5.512   8.329  0.3271  0.2809 -0.1749
  490TIP3   OH223104   1.165   5.201   8.363  0.2302  0.2139 -0.2819
  490TIP3    H123105   1.132   5.219   8.451  0.0321 -0.7093 -0.1604
  490TIP3    H223106   1.148   5.282   8.315  0.2288  0.6874  0.4891
  491TIP3   OH223107   5.336   5.292   7.238 -0.0990 -0.2987 -0.5119
  491TIP3    H123108   5.408   5.354   7.235 -0.2152 -0.1635 -2.7311
  491TIP3    H223109   5.257   5.346   7.240 -0.1705 -0.4186  0.0034
  492TIP3   OH223110   0.091   2.232   0.457 -0.1076 -0.7167 -0.1841
  492TIP3    H123111   0.048   2.153   0.425  0.2338 -0.8405 -0.3542
  492TIP3    H223112   0.032   2.304   0.433 -0.3046 -0.8991 -0.2426
  493TIP3   OH223113   6.603   5.434   8.931 -0.4279  0.3652 -0.1501
  493TIP3    H123114   6.601   5.348   8.973  0.3525 -1.1585 -2.9330
  493TIP3    H223115   6.554   5.422   8.850  0.2337  2.3950 -0.9157
  494TIP3   OH223116   4.066   1.089   1.274 -0.2625  0.1969 -0.1918
  494TIP3    H123117   4.154   1.108   1.243 -0.0067 -3.7423 -2.4504
  494TIP3    H223118   4.009   1.107   1.199 -0.9777 -0.1419  0.2574
  495TIP3   OH223119   0.089   4.963   1.890  0.5434 -0.0956  0.3582
  495TIP3    H123120   0.023   5.022   1.857  0.4109 -0.7928 -0.6739
  495TIP3    H223121   0.040   4.892   1.932  0.6967  0.4515  1.4906
  496TIP3   OH223122   0.960   2.707   8.968 -0.3334 -0.0350 -0.1157
  496TIP3    H123123   0.887   2.739   8.914 -0.1970 -0.3092 -0.4663
  496TIP3    H223124   1.038   2.730   8.918 -0.0621  1.8816  1.0871
  497TIP3   OH223125   3.348   4.608   1.466  0.2380  0.5267  0.1617
  497TIP3    H123126   3.271   4.653   1.433  0.8328 -0.0537 -2.1742
  497TIP3    H223127   3.331   4.515   1.448  1.4720  0.3906 -0.4185
  498TIP3   OH223128   4.282   2.337   2.232 -0.0250  0.2236 -0.0236
  498TIP3    H123129   4.263   2.410   2.291  0.0728 -1.5117  2.3091
  498TIP3    H223130   4.260   2.259   2.283  1.9108 -1.4701 -1.5959
  499TIP3   OH223131   0.006   6.066   1.680 -0.0240  0.0291  0.3719
  499TIP3    H123132   0.067   6.004   1.718 -0.3976 -2.0210 -2.1303
  499TIP3    H223133   0.061   6.125   1.628  0.2325  1.3334  2.0270
  500TIP3   OH223134   6.437   6.305   0.446  0.0522  0.0941 -0.3407
  500TIP3    H123135   6.384   6.225   0.449  0.7438 -0.3569  1.9054
  500TIP3    H223136   6.377   6.373   0.415 -0.6650 -1.1628 -1.8946
  501TIP3   OH223137   2.517   5.103   6.872  0.1096 -0.4707 -0.4163
  501TIP3    H123138   2.483   5.105   6.782 -0.8493  4.1514 -0.1726
  501TIP3    H223139   2.440   5.115   6.927  0.8781 -1.6603  0.9702
  502TIP3   OH223140   5.284   4.243   1.820  0.4774  0.1289 -0.3928
  502TIP3    H123141   5.306   4.160   1.777 -1.3854 -0.5327 -0.1796
  502TIP3    H223142   5.253   4.218   1.907  3.9282  1.4276  1.4069
  503TIP3   OH223143   5.344   5.908   1.043 -0.0944 -0.3992  0.3818
  503TIP3    H123144   5.332   5.813   1.034 -0.2087 -0.5449  1.8211
  503TIP3    H223145   5.433   5.924   1.012 -0.3473 -0.8439 -0.6171
  504TIP3   OH223146   5.877   2.881   8.386  0.0258 -0.9090 -0.8423
  504TIP3    H123147   5.933   2.888   8.309 -0.1475  0.6337 -0.8610
  504TIP3    H223148   5.918   2.938   8.450  1.3869 -3.7717  1.0626
  505TIP3   OH223149   6.636   1.708   1.694 -0.3261  0.7531 -0.7196
  505TIP3    H123150   6.640   1.651   1.770 -1.0855  1.7053  0.0739
  505TIP3    H223151   6.690   1.665   1.628 -0.1117 -0.3769  0.1659
  506TIP3   OH223152   3.824   2.756   8.169  0.2556  0.7184 -0.3555
  506TIP3    H123153   3.751   2.699   8.146 -0.1139  0.9105  0.3180
  506TIP3    H223154   3.829   2.752   8.265  1.1442  0.6867 -0.3903
  507TIP3   OH223155   2.751   2.648   8.650  0.2514  0.4229  0.2540
  507TIP3    H123156   2.785   2.656   8.562 -1.0833  2.4538 -0.1494
  507TIP3    H223157   2.807   2.704   8.703 -0.0322  0.6326  0.3377
  508TIP3   OH223158   0.986   3.341   2.419  0.4819  0.6089 -0.2873
  508TIP3    H123159   0.900   3.308   2.444  0.1570  0.4202 -1.5930
  508TIP3    H223160   0.974   3.377   2.331  2.0833 -0.9393 -1.2020
  509TIP3   OH223161   1.422   3.722   1.338  0.5708  0.1380  0.2284
  509TIP3    H123162   1.352   3.770   1.383 -1.0179 -2.1018  0.3067
  509TIP3    H223163   1.487   3.705   1.407  0.2451  0.5157  0.6364
  510TIP3   OH223164   4.700   2.370   8.438  0.1776 -0.4581  0.9163
  510TIP3    H123165   4.640   2.368   8.363  0.5501 -1.9336  0.6202
  510TIP3    H223166   4.718   2.278   8.457  2.1052 -0.0697  1.1983
  511TIP3   OH223167   0.272   2.909   1.975  0.0886  0.2306 -0.1463
  511TIP3    H123168   0.268   2.883   2.067 -1.4022 -1.3084 -0.5934
  511TIP3    H223169   0.328   2.843   1.934 -1.2027 -0.5500 -0.7322
  512TIP3   OH223170   6.305   4.152   8.216 -0.1465  0.3913 -0.6452
  512TIP3    H123171   6.296   4.247   8.222  0.5333  0.3880  1.1112
  512TIP3    H223172   6.283   4.120   8.304  1.5185 -0.8912 -0.6472
  513TIP3   OH223173   5.326   2.684   8.160 -0.5237  0.7947  0.0294
  513TIP3    H123174   5.273   2.694   8.239 -0.4208  1.0477  0.0669
  513TIP3    H223175   5.356   2.773   8.140 -2.4579  1.1628 -1.6075
  514TIP3   OH223176   3.688   3.561   0.360 -0.3471  0.2516  0.6393
  514TIP3    H123177   3.781   3.542   0.353 -0.5315 -0.2424 -1.1254
  514TIP3    H223178   3.681   3.628   0.427  1.3988  1.0306  0.0787
  515TIP3   OH223179   2.287   5.034   1.639 -0.1508 -0.7611 -0.4004
  515TIP3    H123180   2.200   5.027   1.599 -0.6713 -0.3611  0.6109
  515TIP3    H223181   2.271   5.020   1.733  0.5785  1.1713  0.0523
  516TIP3   OH223182   5.163   2.909   7.099  0.4093  0.1002  0.0997
  516TIP3    H123183   5.141   2.994   7.060  1.0711  0.9598  1.5019
  516TIP3    H223184   5.258   2.904   7.092  0.3045 -1.0027 -0.8519
  517TIP3   OH223185   0.264   4.509   0.802  0.2004  0.2753 -0.1731
  517TIP3    H123186   0.227   4.550   0.724 -0.6587 -0.0227  0.0579
  517TIP3    H223187   0.194   4.515   0.868  1.2004  1.2603  0.8365
  518TIP3   OH223188   0.509   5.518   6.701 -0.0280 -0.3037  0.5992
  518TIP3    H123189   0.423   5.480   6.717 -0.8716 -0.1006 -2.7497
  518TIP3    H223190   0.568   5.443   6.700 -0.3845 -0.6105  1.4439
  519TIP3   OH223191   2.708   0.620   8.763 -0.1864 -0.6447  0.2575
  519TIP3    H123192   2.643   0.676   8.806 -2.8561 -1.6440 -2.1213
  519TIP3    H223193   2.765   0.681   8.716  0.6034  0.2465  2.2623
  520TIP3   OH223194   6.252   2.908   9.178 -0.0423 -0.3917  0.2266
  520TIP3    H123195   6.204   2.974   9.228 -1.3779  0.1329 -1.6738
  520TIP3    H223196   6.239   2.827   9.228 -0.6426  0.2645  1.1584
  521TIP3   OH223197   0.596   4.128   1.939  0.1006  0.1260 -0.1730
  521TIP3    H123198   0.629   4.216   1.921  0.8258 -0.0731  0.1601
  521TIP3    H223199   0.502   4.134   1.922 -0.4528  1.8006  2.8190
  522TIP3   OH223200   5.355   1.103   2.448  0.5913  0.2682  0.4385
  522TIP3    H123201   5.368   1.160   2.524  0.6035  1.2867 -0.3066
  522TIP3    H223202   5.404   1.024   2.468  0.1470  0.3065  1.7291
  523TIP3   OH223203   4.694   3.779   7.337 -0.1518 -0.5810 -0.2049
  523TIP3    H123204   4.669   3.866   7.369  0.3022 -1.1254  1.7789
  523TIP3    H223205   4.611   3.736   7.318 -0.4830 -0.4354  0.8620
  524TIP3   OH223206   4.327   2.944   2.682  0.4187  0.2181 -0.0904
  524TIP3    H123207   4.334   2.905   2.596  0.1845 -2.4578  1.0082
  524TIP3    H223208   4.232   2.949   2.698  0.4357 -1.5843  0.8840
  525TIP3   OH223209   4.893   3.216   2.529  0.1377  0.2285  0.1289
  525TIP3    H123210   4.817   3.158   2.519  0.2829 -0.1454  1.0615
  525TIP3    H223211   4.871   3.270   2.605  0.9466 -0.1158  0.6146
  526TIP3   OH223212   3.910   1.467   0.109 -0.2675 -0.5320 -0.6090
  526TIP3    H123213   3.967   1.514   0.048 -1.6094  2.1946  0.0876
  526TIP3    H223214   3.931   1.505   0.195 -0.7579 -1.9211  0.1494
  527TIP3   OH223215   3.158   4.044   8.329 -0.7506  0.0209 -0.2183
  527TIP3    H123216   3.064   4.045   8.309 -0.6507 -0.5603 -0.7543
  527TIP3    H223217   3.163   4.038   8.424 -1.2507  0.8535 -0.1294
  528TIP3   OH223218   4.731   6.549   1.817 -0.2482  0.0232  0.1411
  528TIP3    H123219   4.743   6.464   1.775 -0.3834 -0.0734  0.2970
  528TIP3    H223220   4.647   6.542   1.863 -0.1187  0.1406  0.3971
  529TIP3   OH223221   0.450   2.752   8.848  0.1509 -0.4097  0.3096
  529TIP3    H123222   0.357   2.750   8.823  0.2621  0.1855 -0.1919
  529TIP3    H223223   0.451   2.790   8.935 -0.0239  0.3567 -0.0127
  530TIP3   OH223224   1.318   1.609   0.186 -0.2114  0.1640 -0.2336
  530TIP3    H123225   1.411   1.612   0.163 -0.2250 -1.1947 -0.5155
  530TIP3    H223226   1.286   1.697   0.164 -0.2070 -0.8156 -5.6197
  531TIP3   OH223227   1.354   6.467   1.679  0.0922 -0.4688  0.3871
  531TIP3    H123228   1.296   6.526   1.631  1.4675 -1.4902 -2.7954
  531TIP3    H223229   1.416   6.525   1.723  1.8272  0.6996 -3.1772
  532TIP3   OH223230   3.228   0.306   1.818  0.3507 -0.3066  0.6382
  532TIP3    H123231   3.174   0.341   1.889  0.8602 -1.0330  1.4106
  532TIP3    H223232   3.201   0.355   1.741 -0.0589  0.6648  1.3749
  533TIP3   OH223233   1.174   0.013   1.151 -0.2844 -0.4777 -0.3665
  533TIP3    H123234   1.234  -0.036   1.094  2.3917 -0.4509  2.1648
  533TIP3    H223235   1.200   0.104   1.140 -0.0797 -0.4265  0.4571
  534TIP3   OH223236   3.537   4.974   0.104 -0.2130  0.4390 -0.0848
  534TIP3    H123237   3.542   4.884   0.072 -2.6086  0.4000 -0.5488
  534TIP3    H223238   3.499   4.966   0.192 -1.7410  1.0189 -0.6523
  535TIP3   OH223239   5.872   3.864   2.315 -0.0754 -0.1969 -0.1574
  535TIP3    H123240   5.961   3.897   2.328 -0.3459  0.3772  0.2712
  535TIP3    H223241   5.852   3.815   2.395  0.3088 -1.4030 -0.7722
  536TIP3   OH223242   1.956   4.745   9.202 -0.0621 -0.2442  0.2574
  536TIP3    H123243   1.990   4.806   9.268  1.7593 -0.8329 -0.0789
  536TIP3    H223244   1.900   4.686   9.252  1.7087 -1.0193  1.4633
  537TIP3   OH223245   2.170   2.072   0.944 -0.3614 -0.4042 -0.1264
  537TIP3    H123246   2.098   2.085   1.006  0.7651 -1.8318  1.6066
  537TIP3    H223247   2.249   2.079   0.998  0.8149  0.7805 -1.9025
  538TIP3   OH223248   5.144   5.819   0.126  0.0202 -0.3125 -0.3267
  538TIP3    H123249   5.109   5.898   0.167  1.7957  0.9725 -1.1611
  538TIP3    H223250   5.147   5.755   0.196  0.5205  1.0098  0.9062
  539TIP3   OH223251   6.346   0.185   7.005  0.4871 -0.4782  0.5384
  539TIP3    H123252   6.419   0.240   7.032  0.6928  0.7440 -2.1780
  539TIP3    H223253   6.270   0.222   7.049  1.0216  0.3331  0.7939
  540TIP3   OH223254   1.576   2.909   1.469  0.2914  0.2029  0.6030
  540TIP3    H123255   1.633   2.838   1.438  1.6153  1.5575 -0.2054
  540TIP3    H223256   1.524   2.933   1.392 -0.7777 -0.4252  1.1027
  541TIP3   OH223257   4.683   5.121   2.176 -0.1882  0.4333  0.1583
  541TIP3    H123258   4.694   5.087   2.265  3.7754 -0.8966 -0.6352
  541TIP3    H223259   4.648   5.046   2.127 -1.3813  0.8448  0.3546
  542TIP3   OH223260   4.208   5.858   1.089  0.3057 -0.4842 -0.2245
  542TIP3    H123261   4.223   5.867   0.995  1.0606 -1.0186 -0.1651
  542TIP3    H223262   4.119   5.825   1.097  1.0757 -2.8955 -0.8854
  543TIP3   OH223263   6.085   1.047   8.181 -0.1223  0.2809  0.5040
  543TIP3    H123264   6.013   1.000   8.140  0.8502 -1.1968  0.3974
  543TIP3    H223265   6.055   1.137   8.188 -2.2231 -0.4229  1.0913
  544TIP3   OH223266   5.348   2.167   7.751 -0.2872  0.3083  0.5487
  544TIP3    H123267   5.380   2.252   7.782 -1.6104  1.0268  0.0417
  544TIP3    H223268   5.424   2.124   7.713  0.4027  1.2665  0.8291
  545TIP3   OH223269   2.889   2.192   1.623 -0.0531  0.1447  0.0322
  545TIP3    H123270   2.979   2.181   1.651 -0.4774  0.7688  1.7537
  545TIP3    H223271   2.879   2.286   1.609 -1.1695  0.5352  2.7788
  546TIP3   OH223272   0.049   1.766   3.044 -0.0866  0.4338 -0.0320
  546TIP3    H123273  -0.025   1.722   3.086  2.1906 -3.2612  0.5472
  546TIP3    H223274   0.100   1.801   3.116 -0.2883  1.3647 -0.3245
  547TIP3   OH223275   3.470   3.855   2.175 -0.4115  0.3665 -0.0592
  547TIP3    H123276   3.453   3.932   2.229  0.0327  0.8774 -0.6451
  547TIP3    H223277   3.531   3.885   2.108 -0.8080 -0.3088 -0.7375
  548TIP3   OH223278   2.478   3.126   0.315 -0.1278 -0.0955  0.1354
  548TIP3    H123279   2.408   3.172   0.363 -0.2887 -0.3250  0.1207
  548TIP3    H223280   2.461   3.147   0.223  1.7670  2.6365  0.2745
  549TIP3   OH223281   6.517   3.602   1.865  0.4954 -0.2597 -0.0673
  549TIP3    H123282   6.510   3.697   1.870  0.2099 -0.2992  0.3030
  549TIP3    H223283   6.470   3.570   1.941  0.3932 -0.7088 -0.3126
  550TIP3   OH223284   0.070   3.530   8.900  0.9667 -0.0696 -0.7158
  550TIP3    H123285   0.119   3.472   8.842 -0.3646 -1.8894 -0.1185
  550TIP3    H223286   0.132   3.550   8.970  1.4704 -0.8054 -0.9295
  551TIP3   OH223287   0.075   0.183   7.039 -0.4639  0.8668 -0.1180
  551TIP3    H123288   0.030   0.245   7.096 -0.7163 -0.4223  1.1290
  551TIP3    H223289   0.113   0.237   6.970 -2.6235  2.1573 -0.3713
  552TIP3   OH223290   2.354   2.887   9.182 -0.4107 -0.0998  0.3552
  552TIP3    H123291   2.310   2.840   9.111  0.7055  2.4425 -2.2064
  552TIP3    H223292   2.443   2.853   9.182 -0.7008 -0.8921  1.3536
  553TIP3   OH223293   1.149   1.638   0.749  0.1066 -0.1893  0.5436
  553TIP3    H123294   1.136   1.675   0.836 -0.8090 -2.1216  1.2935
  553TIP3    H223295   1.244   1.629   0.741  0.2674  1.0363  0.8653
  554TIP3   OH223296   2.952   4.320   8.769 -0.3405  0.1504  0.7138
  554TIP3    H123297   2.932   4.335   8.677  0.6863  0.5224  0.5369
  554TIP3    H223298   3.044   4.294   8.769 -0.2648  0.3885  1.6573
  555TIP3   OH223299   2.701   4.130   2.916  0.3017  0.2789 -0.2905
  555TIP3    H123300   2.781   4.150   2.966 -0.3573 -1.1107  1.4135
  555TIP3    H223301   2.630   4.139   2.980 -0.6084 -1.3118 -1.0244
  556TIP3   OH223302   3.807   0.679   2.097  0.8991 -0.2253  0.2809
  556TIP3    H123303   3.773   0.643   2.178  0.4163 -0.6127 -0.0878
  556TIP3    H223304   3.742   0.744   2.069  2.1206  1.5470  1.3347
  557TIP3   OH223305   4.442   5.661   8.661  0.6407  0.0484 -0.2444
  557TIP3    H123306   4.397   5.744   8.642  0.8754  0.1413 -0.3945
  557TIP3    H223307   4.440   5.655   8.756  0.6040  0.2168 -0.2330
  558TIP3   OH223308   2.265   2.061   2.402 -0.4566 -0.4655 -0.0495
  558TIP3    H123309   2.206   2.007   2.454  2.1415 -0.5103  3.2492
  558TIP3    H223310   2.229   2.150   2.408 -1.1058 -0.7521  0.3928
  559TIP3   OH223311   0.362   3.076   1.761  0.7946 -0.7146  0.2425
  559TIP3    H123312   0.323   3.035   1.838 -0.2294 -1.0379 -0.4171
  559TIP3    H223313   0.299   3.058   1.691 -1.3782  4.4847  0.4211
  560TIP3   OH223314   5.793   1.119   1.377  0.5015 -0.0661  0.3360
  560TIP3    H123315   5.864   1.135   1.314  1.5414 -0.8694  1.2480
  560TIP3    H223316   5.725   1.181   1.353  1.8071  1.2525 -0.1369
  561TIP3   OH223317   5.271   1.316   2.005 -0.3677  0.5745  0.2342
  561TIP3    H123318   5.241   1.402   1.975  0.6306  0.9092  0.1619
  561TIP3    H223319   5.236   1.308   2.094 -2.2674  0.1196 -0.4959
  562TIP3   OH223320   3.573   3.704   3.062 -0.1182 -0.1673 -0.1853
  562TIP3    H123321   3.640   3.653   3.106  1.5487  0.2426 -2.1037
  562TIP3    H223322   3.537   3.646   2.996  0.1571  0.4152 -0.8576
  563TIP3   OH223323   5.041   1.042   0.801 -0.2508 -0.4784 -0.1716
  563TIP3    H123324   4.948   1.022   0.791 -0.1363 -0.6021 -1.0869
  563TIP3    H223325   5.050   1.071   0.891 -1.5186  1.2939 -0.5620
  564TIP3   OH223326   1.959   2.980   8.183 -0.1668  0.2461 -0.0797
  564TIP3    H123327   1.905   2.923   8.238 -0.0522  0.6885  0.5012
  564TIP3    H223328   1.967   2.933   8.100  0.8709 -1.1229  0.7491
  565TIP3   OH223329   3.814   0.470   0.688 -0.5386 -0.5692  0.0689
  565TIP3    H123330   3.755   0.406   0.647 -0.0860 -0.9829  0.0490
  565TIP3    H223331   3.795   0.464   0.782 -0.8783 -0.3353  0.0186
  566TIP3   OH223332   0.020   2.984   1.895 -0.8373 -0.0822 -0.2499
  566TIP3    H123333  -0.017   2.906   1.854  0.7720 -0.5179 -0.9244
  566TIP3    H223334   0.094   2.951   1.946 -0.5698  0.9229  0.0229
  567TIP3   OH223335   5.087   4.383   8.741  0.2453 -0.1563 -0.1446
  567TIP3    H123336   5.010   4.431   8.711  0.3742  1.3999  1.8008
  567TIP3    H223337   5.089   4.304   8.686 -1.3634  0.8841 -1.8210
  568TIP3   OH223338   5.568   5.754   8.881  0.1190  0.6651 -0.0921
  568TIP3    H123339   5.541   5.776   8.970 -1.6427  0.8841 -0.6459
  568TIP3    H223340   5.588   5.838   8.840  0.2690  0.6251 -0.1015
  569TIP3   OH223341   0.846   2.268   2.243  0.2399  0.0247  0.1233
  569TIP3    H123342   0.856   2.350   2.195 -1.3939  0.2316  0.0874
  569TIP3    H223343   0.823   2.203   2.176 -0.2398 -0.0755  0.3836
  570TIP3   OH223344   0.154   0.085   0.990  0.2459  0.3176 -0.5072
  570TIP3    H123345   0.180   0.170   1.024  0.2305  0.4693 -0.8727
  570TIP3    H223346   0.143   0.030   1.068  1.5848  0.2634 -0.3395
  571TIP3   OH223347   6.304   1.526   2.443  0.5662  0.3260  1.2363
  571TIP3    H123348   6.323   1.436   2.417 -1.7907 -0.5546  2.2238
  571TIP3    H223349   6.296   1.522   2.538  1.9724  1.9566  1.4677
  572TIP3   OH223350   0.923   5.785   0.923  0.5377 -0.4092  0.0898
  572TIP3    H123351   0.998   5.750   0.970 -0.2141 -2.4971 -0.1497
  572TIP3    H223352   0.878   5.708   0.888 -1.9024  0.7191  0.4895
  573TIP3   OH223353   3.378   4.864   7.038 -0.7983  0.5698 -0.4998
  573TIP3    H123354   3.375   4.776   7.002 -1.1087  0.4191 -0.1096
  573TIP3    H223355   3.401   4.851   7.131 -2.1793  0.8087 -0.1102
  574TIP3   OH223356   0.090   2.676   6.840 -0.5158 -0.0255  0.3564
  574TIP3    H123357   0.136   2.670   6.757 -0.8395 -0.6564  0.2189
  574TIP3    H223358   0.135   2.613   6.897 -0.7958 -0.1716  0.4174
  575TIP3   OH223359   6.569   3.019   1.609  0.6464 -0.5991  0.6835
  575TIP3    H123360   6.649   3.059   1.643  0.7140 -1.2317  1.2878
  575TIP3    H223361   6.570   2.930   1.644  0.7625 -1.3139 -1.0683
  576TIP3   OH223362   6.381   5.819   8.535 -0.0148 -0.0516 -0.2923
  576TIP3    H123363   6.468   5.778   8.533  0.5635  1.1296 -1.2462
  576TIP3    H223364   6.320   5.747   8.521  0.7901 -0.9435  0.6109
  577TIP3   OH223365   4.158   0.399   8.602  0.2233  0.3187 -0.7563
  577TIP3    H123366   4.200   0.331   8.654 -0.5898  0.3260 -0.0679
  577TIP3    H223367   4.181   0.378   8.512 -0.6058 -1.2876 -0.6231
  578TIP3   OH223368   3.774   6.318   8.198  0.6329  0.9551  0.4534
  578TIP3    H123369   3.728   6.250   8.248  0.2323 -0.5539 -1.7973
  578TIP3    H223370   3.866   6.293   8.203  0.3437 -1.1161 -2.0040
  579TIP3   OH223371   4.834   2.173   3.352 -0.8904 -0.3451 -0.0846
  579TIP3    H123372   4.808   2.083   3.373 -1.6520 -0.1953 -0.3513
  579TIP3    H223373   4.847   2.172   3.257 -0.2737 -0.3213 -0.0056
  580TIP3   OH223374   0.829   1.984   1.473  0.1007 -0.6199  0.3592
  580TIP3    H123375   0.877   1.956   1.395  0.1885 -3.6009  1.3735
  580TIP3    H223376   0.878   2.061   1.504  1.7737 -1.1044 -0.9114
  581TIP3   OH223377   3.459   2.186   8.605 -0.7068  0.7592  0.0914
  581TIP3    H123378   3.503   2.101   8.601 -1.7330  0.1290  1.2773
  581TIP3    H223379   3.507   2.235   8.672 -0.9267  0.5906  0.3789
  582TIP3   OH223380   0.163   0.920   0.366 -0.3451  0.2948 -1.1347
  582TIP3    H123381   0.244   0.972   0.365 -0.3729  0.4459 -4.1380
  582TIP3    H223382   0.129   0.931   0.455  3.0492 -0.0327  0.3675
  583TIP3   OH223383   2.760   0.394   2.497 -0.5268  0.0804 -0.0274
  583TIP3    H123384   2.686   0.335   2.481  0.9336 -1.3536 -1.9017
  583TIP3    H223385   2.803   0.359   2.574 -1.0145  0.1549  0.2883
  584TIP3   OH223386   5.401   3.262   1.226 -0.4439  0.1316  0.0563
  584TIP3    H123387   5.305   3.271   1.219 -0.7753 -3.2924 -3.0790
  584TIP3    H223388   5.434   3.305   1.147  0.3618 -0.5009  0.0411
  585TIP3   OH223389   5.057   5.662   0.656  0.2723 -0.2609  0.2477
  585TIP3    H123390   5.062   5.572   0.622 -0.0028  0.4867 -1.9548
  585TIP3    H223391   4.982   5.660   0.716  0.1171 -1.4555  0.0479
  586TIP3   OH223392   0.593   0.004   2.050  0.2759  0.7046 -0.3700
  586TIP3    H123393   0.548  -0.074   2.020 -2.0172  1.9235 -0.2842
  586TIP3    H223394   0.589  -0.002   2.146 -0.1988  1.0864 -0.3654
  587TIP3   OH223395   2.801   0.516   1.267 -0.4499  1.0355 -0.3288
  587TIP3    H123396   2.774   0.473   1.348 -0.6954  1.1709 -0.3389
  587TIP3    H223397   2.895   0.498   1.261 -0.2478  1.7599  0.4397
  588TIP3   OH223398   0.515   6.104   6.704  0.7317 -0.2096 -0.2312
  588TIP3    H123399   0.422   6.122   6.717  0.9484  0.6884  0.1072
  588TIP3    H223400   0.559   6.188   6.718  1.6618 -0.7582  0.2936
  589TIP3   OH223401   5.666   2.361   1.727  0.1135  0.8633 -0.9084
  589TIP3    H123402   5.672   2.284   1.671  1.0136 -0.1419  0.5178
  589TIP3    H223403   5.586   2.346   1.778 -0.0198  1.1767 -1.0205
  590TIP3   OH223404   4.946   2.094   1.254 -0.4288 -0.2661 -0.1542
  590TIP3    H123405   4.882   2.160   1.281  0.3787 -0.0228  1.2325
  590TIP3    H223406   4.901   2.044   1.186 -1.5338  0.8682 -0.2974
  591TIP3   OH223407   5.678   2.184   7.452  0.1841  0.7614 -0.2092
  591TIP3    H123408   5.648   2.140   7.532  2.0377  0.2630  0.2588
  591TIP3    H223409   5.601   2.230   7.420 -0.5715  1.1720  2.0128
  592TIP3   OH223410   6.535   0.722   0.757  0.0349 -0.1111 -0.6336
  592TIP3    H123411   6.531   0.754   0.847  1.6431 -1.6046  0.0344
  592TIP3    H223412   6.444   0.706   0.733 -0.3765 -0.7364  1.1596
  593TIP3   OH223413   4.497   4.764   0.550 -0.1689  0.0354  0.4225
  593TIP3    H123414   4.416   4.779   0.500  0.6220 -0.4661 -1.0651
  593TIP3    H223415   4.508   4.669   0.548  0.1260  0.0558  1.1639
  594TIP3   OH223416   3.146   5.373   7.608  0.1750 -0.4284 -0.5439
  594TIP3    H123417   3.058   5.372   7.569  0.0479 -0.7312 -0.2528
  594TIP3    H223418   3.160   5.465   7.632  0.2624 -0.2352 -1.3093
  595TIP3   OH223419   5.270   6.426   1.067  0.4265  0.4855  0.1883
  595TIP3    H123420   5.354   6.454   1.104  0.9764 -1.1348  0.2353
  595TIP3    H223421   5.222   6.507   1.054  1.6788  1.3888  0.9382
  596TIP3   OH223422   1.179   2.740   0.893  0.3105 -0.0328 -0.2214
  596TIP3    H123423   1.104   2.685   0.914 -1.2079  2.3165  0.8490
  596TIP3    H223424   1.252   2.678   0.885 -1.8531 -2.5608 -2.4442
  597TIP3   OH223425   0.869   4.486   2.164  0.1596 -0.1060 -0.1398
  597TIP3    H123426   0.815   4.546   2.214 -1.3314 -0.9566 -0.6592
  597TIP3    H223427   0.808   4.418   2.134  0.9696  0.3236 -3.0285
  598TIP3   OH223428   0.504   2.960   6.956  0.0102  0.6082  0.3726
  598TIP3    H123429   0.574   3.017   6.924 -1.1820  0.6871 -2.3729
  598TIP3    H223430   0.531   2.872   6.928 -0.1013  0.3853  0.9653
  599TIP3   OH223431   0.484   3.389   8.103  0.5310 -0.7948  0.3865
  599TIP3    H123432   0.575   3.407   8.077  0.3270 -1.3717 -0.7595
  599TIP3    H223433   0.487   3.391   8.199  1.5970 -0.0692  0.3681
  600TIP3   OH223434   3.024   1.458   0.289 -0.5590 -0.1294 -0.4073
  600TIP3    H123435   3.045   1.530   0.349  0.1414 -1.0651  0.5149
  600TIP3    H223436   2.931   1.443   0.301 -0.7022  0.5975 -0.5818
  601TIP3   OH223437   4.388   5.995   1.233 -0.2706 -0.4234 -0.4592
  601TIP3    H123438   4.362   6.075   1.188  0.2831  0.1966  0.2830
  601TIP3    H223439   4.353   5.924   1.179  2.0713  0.1707 -2.9950
  602TIP3   OH223440   1.427   5.993   2.286  0.6924  0.5211  0.5380
  602TIP3    H123441   1.385   6.078   2.270  1.8683  1.0515  0.0736
  602TIP3    H223442   1.472   5.973   2.204  1.3942  0.0241  1.0282
  603TIP3   OH223443   3.626   0.777   2.344 -0.2316  0.0557 -0.2027
  603TIP3    H123444   3.531   0.760   2.345 -0.1853 -0.1780  0.6801
  603TIP3    H223445   3.666   0.693   2.369  0.1435  0.5117  0.7778
  604TIP3   OH223446   2.075   2.575   1.527  0.2325  0.3438  0.0902
  604TIP3    H123447   2.110   2.591   1.615 -0.2462  0.8868  0.1863
  604TIP3    H223448   1.998   2.521   1.541  1.3427 -1.3809 -0.1692
  605TIP3   OH223449   3.662   5.056   1.778 -0.1172  0.5184 -0.2519
  605TIP3    H123450   3.715   5.058   1.858 -0.0404  0.3900 -0.2988
  605TIP3    H223451   3.577   5.091   1.804  0.2396  1.5174 -0.3609
  606TIP3   OH223452   1.111   4.723   7.000 -0.0697 -0.4266 -0.0819
  606TIP3    H123453   1.040   4.687   6.947  0.3769 -0.7550 -0.4761
  606TIP3    H223454   1.145   4.796   6.948 -1.0750  0.6936  0.7898
  607TIP3   OH223455   3.971   5.949   0.050 -0.4489  0.1507 -0.1110
  607TIP3    H123456   3.926   5.912   0.126  0.2458  1.0980  0.7904
  607TIP3    H223457   4.018   5.875   0.012  0.1043 -0.1292  1.0636
  608TIP3   OH223458   0.343   1.017   2.067  0.0664 -0.4117 -0.2503
  608TIP3    H123459   0.396   0.953   2.116  0.6578  0.4205  0.2209
  608TIP3    H223460   0.300   0.965   2.000 -0.6622 -1.5759  1.0526
  609TIP3   OH223461   3.589   1.199   1.028  0.0996  0.3016 -0.4300
  609TIP3    H123462   3.588   1.148   1.109 -0.4006  1.3065  0.2202
  609TIP3    H223463   3.513   1.257   1.035 -0.2109  0.1007 -1.8342
  610TIP3   OH223464   6.513   2.451   1.070  0.6978  0.8064 -0.2545
  610TIP3    H123465   6.551   2.455   1.158  0.8394 -0.2023 -0.2513
  610TIP3    H223466   6.462   2.370   1.070  0.8113  0.7268 -1.1468
  611TIP3   OH223467   2.270   5.073   8.585 -0.0841 -0.3789  0.1749
  611TIP3    H123468   2.252   5.149   8.528 -1.6242  0.0599  1.1816
  611TIP3    H223469   2.196   5.071   8.646  1.5071 -0.8170  2.1984
  612TIP3   OH223470   2.896   5.188   8.197  0.1786 -0.6125  0.2284
  612TIP3    H123471   2.944   5.173   8.115  1.3182 -1.2356  0.9757
  612TIP3    H223472   2.836   5.114   8.203  0.9805 -1.2645  0.5429
  613TIP3   OH223473   0.982   2.595   0.512  0.2476  0.3370  0.8027
  613TIP3    H123474   0.904   2.544   0.536 -1.4801  1.9669 -0.9531
  613TIP3    H223475   1.009   2.560   0.428  1.4045 -0.1616  1.3632
  614TIP3   OH223476   0.878   2.236   0.550  0.5052  0.1844  0.2862
  614TIP3    H123477   0.864   2.141   0.541 -1.5635  0.6360 -3.6839
  614TIP3    H223478   0.970   2.249   0.527  0.5170 -0.8213 -0.3055
  615TIP3   OH223479   2.634   3.187   3.226  0.1385  0.5813 -0.1040
  615TIP3    H123480   2.565   3.253   3.222  0.4223  1.1014  2.1000
  615TIP3    H223481   2.615   3.137   3.306  1.0861 -0.6926 -0.6303
  616TIP3   OH223482   2.637   1.575   7.836  0.1150  0.0967  0.2855
  616TIP3    H123483   2.560   1.632   7.844  0.4261  0.5558  0.0173
  616TIP3    H223484   2.688   1.591   7.915  0.4382  0.5426 -0.0124
  617TIP3   OH223485   0.954   4.053   2.673 -0.5940  0.0461 -0.1339
  617TIP3    H123486   1.035   4.059   2.725 -0.6054 -1.4405  0.0906
  617TIP3    H223487   0.927   4.144   2.662  2.0479  0.7528 -1.7097
  618TIP3   OH223488   2.704   4.299   7.846  0.0231  0.5036  0.2201
  618TIP3    H123489   2.742   4.225   7.893  0.3431  1.5902  1.7738
  618TIP3    H223490   2.633   4.330   7.903  0.5185  1.9646  0.0900
  619TIP3   OH223491   1.803   1.390   1.310 -0.5374 -0.1821 -0.1368
  619TIP3    H123492   1.731   1.453   1.299  0.4526  1.2409  1.1827
  619TIP3    H223493   1.794   1.359   1.400 -0.4166 -1.2022 -0.4651
  620TIP3   OH223494   1.100   3.086   8.671  0.4131 -0.0312 -0.2071
  620TIP3    H123495   1.156   3.154   8.707  1.2472 -0.1098 -1.2939
  620TIP3    H223496   1.030   3.134   8.626  0.6296  0.0986 -0.4070
  621TIP3   OH223497   5.294   2.946   7.575 -0.6194 -0.1198 -0.2502
  621TIP3    H123498   5.316   2.925   7.484 -0.5463  0.3365 -0.3395
  621TIP3    H223499   5.280   2.860   7.616  0.6244 -0.3969 -0.3555
  622TIP3   OH223500   6.575   5.916   1.104 -0.1765  0.4465  0.4217
  622TIP3    H123501   6.566   5.972   1.181 -0.9100 -0.1289  0.7630
  622TIP3    H223502   6.625   5.841   1.136 -1.5333 -0.3842  0.6724
  623TIP3   OH223503   5.464   4.021   0.342 -0.3085 -0.2532  0.3405
  623TIP3    H123504   5.464   3.952   0.408  1.1728  0.0665  0.7084
  623TIP3    H223505   5.495   4.099   0.389 -0.7381  0.3629 -0.3708
  624TIP3   OH223506   6.380   1.411   8.936  0.6901  0.4112  0.3132
  624TIP3    H123507   6.350   1.500   8.954  1.6674  1.1885 -1.7287
  624TIP3    H223508   6.435   1.389   9.011  2.4749  2.4992 -0.2998
  625TIP3   OH223509   5.030   5.175   0.075  0.0116  0.2487 -0.0745
  625TIP3    H123510   4.989   5.247   0.123  1.1860  1.2522 -0.5154
  625TIP3    H223511   5.057   5.214  -0.008  0.1747 -0.8491 -0.5532
  626TIP3   OH223512   0.600   4.133   2.832 -0.4849  0.0617  0.1989
  626TIP3    H123513   0.517   4.091   2.810 -0.6781 -0.0089  1.0274
  626TIP3    H223514   0.600   4.214   2.781  1.6576 -2.5610 -4.6237
  627TIP3   OH223515   0.080   1.665   9.209 -0.6031  0.4310  0.1754
  627TIP3    H123516   0.106   1.602   9.276 -1.6295  1.1549  1.2767
  627TIP3    H223517   0.158   1.719   9.195 -0.1986 -0.1050  0.3276
  628TIP3   OH223518   5.549   5.492   8.075 -0.6134 -0.0839 -0.2309
  628TIP3    H123519   5.455   5.475   8.072 -0.5063 -0.5884 -0.9309
  628TIP3    H223520   5.588   5.406   8.090 -0.3151  0.2894  1.3637
  629TIP3   OH223521   3.889   3.861   8.707  0.0919  0.7945 -0.3752
  629TIP3    H123522   3.946   3.930   8.741 -0.7980  0.7698  1.2790
  629TIP3    H223523   3.917   3.850   8.616  1.8441  1.6687 -0.0025
  630TIP3   OH223524   0.677   2.609   0.861  0.1157 -0.3662  0.2223
  630TIP3    H123525   0.675   2.573   0.772 -0.8291 -0.4578  0.2704
  630TIP3    H223526   0.595   2.580   0.900  0.0037  0.6211  0.7510
  631TIP3   OH223527   4.064   0.477   0.550 -0.0293 -0.4432 -0.3016
  631TIP3    H123528   3.991   0.493   0.609 -0.2231 -1.7877 -0.1416
  631TIP3    H223529   4.113   0.559   0.550 -1.5637  0.5129 -0.4806
  632TIP3   OH223530   2.720   2.901   2.152 -0.7116  0.5738 -0.4466
  632TIP3    H123531   2.650   2.842   2.177 -0.1176  0.8915  2.3402
  632TIP3    H223532   2.800   2.856   2.179  0.0710  0.8705 -2.1739
  633TIP3   OH223533   4.775   1.046   0.776  0.7912  0.1845  0.3364
  633TIP3    H123534   4.713   0.977   0.752  0.4583  0.2333  1.0340
  633TIP3    H223535   4.719   1.118   0.808  1.1264  0.8123 -0.4398
  634TIP3   OH223536   6.661   3.817   1.047  0.1577  0.2016  0.1118
  634TIP3    H123537   6.721   3.832   1.120  0.4786 -0.5498  0.0130
  634TIP3    H223538   6.693   3.873   0.977  1.0533 -0.5501 -0.1037
  635TIP3   OH223539   1.459   1.060   2.208  0.4222  0.4245 -0.5080
  635TIP3    H123540   1.547   1.041   2.175  0.3772 -1.4720  0.3164
  635TIP3    H223541   1.431   0.978   2.251 -2.3485  0.4368 -2.0566
  636TIP3   OH223542   6.416   6.615   0.854 -0.2601 -0.4888  0.1073
  636TIP3    H123543   6.371   6.531   0.854 -0.2216 -0.5112 -0.7704
  636TIP3    H223544   6.473   6.613   0.777  3.6803 -1.7143  2.7421
  637TIP3   OH223545   4.841   1.683   0.759 -0.4772  0.4297 -0.9604
  637TIP3    H123546   4.813   1.597   0.789 -1.0555  0.8736 -0.1854
  637TIP3    H223547   4.769   1.742   0.785  1.1242  1.6180  1.0661
  638TIP3   OH223548   5.399   6.432   1.829 -0.0323 -0.3102  0.4178
  638TIP3    H123549   5.322   6.414   1.776  0.7737 -0.4963 -0.7354
  638TIP3    H223550   5.437   6.346   1.846  0.4577 -0.1594  0.1230
  639TIP3   OH223551   1.151   5.863   2.919 -0.3254 -0.0795 -0.7185
  639TIP3    H123552   1.069   5.819   2.941  0.7201 -1.2632  1.1786
  639TIP3    H223553   1.134   5.955   2.937 -1.0073 -0.4170  0.5270
  640TIP3   OH223554   3.309   4.145   2.081  0.4928 -0.5338  0.2909
  640TIP3    H123555   3.313   4.111   1.991 -2.7406 -1.3391  0.3158
  640TIP3    H223556   3.351   4.231   2.076  1.1141 -0.9096 -1.8082
  641TIP3   OH223557   0.819   1.511   9.190  0.0123 -0.5889 -0.1023
  641TIP3    H123558   0.848   1.478   9.275  0.7576  0.4651  0.0804
  641TIP3    H223559   0.768   1.440   9.152 -0.1301 -1.1679  1.1234
  642TIP3   OH223560   5.651   4.110   2.267 -0.6943  0.1106 -0.2595
  642TIP3    H123561   5.558   4.087   2.264 -0.5218 -0.5571 -0.6478
  642TIP3    H223562   5.696   4.026   2.274 -0.1272  0.4464  0.2384
  643TIP3   OH223563   1.005   6.063   1.698 -0.1086 -0.2506 -0.2964
  643TIP3    H123564   1.038   6.129   1.638 -0.2996 -0.3256 -0.4853
  643TIP3    H223565   0.931   6.105   1.742  0.5567  0.1082  0.5192
  644TIP3   OH223566   2.609   4.470   2.990 -0.4472  0.3438 -0.5674
  644TIP3    H123567   2.624   4.503   2.901  2.2508 -0.2386 -0.4096
  644TIP3    H223568   2.547   4.399   2.978 -3.1058  2.6286 -1.4335
  645TIP3   OH223569   1.288   2.666   7.723 -0.3346 -0.7659  0.4725
  645TIP3    H123570   1.351   2.649   7.794  0.3729  0.2087  0.1062
  645TIP3    H223571   1.294   2.760   7.709  0.7596 -1.1175 -1.9616
  646TIP3   OH223572   2.921   5.631   8.089  0.4772  0.0562  0.0392
  646TIP3    H123573   2.850   5.696   8.086  0.2691 -0.1920 -0.4536
  646TIP3    H223574   2.906   5.582   8.170 -0.7103 -0.8845 -0.7191
  647TIP3   OH223575   5.870   4.349   1.058 -0.2342 -0.2309  0.0815
  647TIP3    H123576   5.844   4.408   1.128 -0.9469 -0.8902  0.3919
  647TIP3    H223577   5.941   4.298   1.095 -0.7892 -0.7648  0.4344
  648TIP3   OH223578   2.800   3.739   7.706  0.1136  0.4731  0.3324
  648TIP3    H123579   2.740   3.778   7.642 -0.2955  0.8263  0.9300
  648TIP3    H223580   2.887   3.758   7.672 -0.0968 -0.5814 -0.8744
  649TIP3   OH223581   0.519   4.179   1.047  0.7543 -0.4975  0.0144
  649TIP3    H123582   0.443   4.186   1.105  1.0423  1.2361  0.2144
  649TIP3    H223583   0.593   4.208   1.100  1.0538  0.9085 -1.1233
  650TIP3   OH223584   3.818   4.238   8.730 -0.2410  0.2120  0.1813
  650TIP3    H123585   3.904   4.265   8.761  1.3165 -4.7263  1.0975
  650TIP3    H223586   3.818   4.262   8.637  1.6265  1.3711  0.4226
  651TIP3   OH223587   2.608   3.547   8.597  0.1212 -0.1950 -0.1915
  651TIP3    H123588   2.635   3.556   8.505  1.0809  1.4295  0.2099
  651TIP3    H223589   2.516   3.524   8.592 -0.0373  0.5809 -1.5893
  652TIP3   OH223590   3.241   3.101   0.982 -0.6434 -0.0525 -0.1066
  652TIP3    H123591   3.226   3.167   1.049 -2.0805 -1.1559  0.7217
  652TIP3    H223592   3.306   3.042   1.021  0.0471  0.4067 -0.5318
  653TIP3   OH223593   5.459   2.413   7.831  0.1640 -0.4601  0.2318
  653TIP3    H123594   5.523   2.405   7.761 -0.4180 -0.1887 -0.3413
  653TIP3    H223595   5.510   2.440   7.908  0.6509  0.4063 -0.3770
  654TIP3   OH223596   3.012   6.568   8.708  0.4489 -0.4232  0.3499
  654TIP3    H123597   2.932   6.620   8.707  0.9619  0.5669 -3.4253
  654TIP3    H223598   2.984   6.479   8.687  0.2063 -0.4094  0.6141
  655TIP3   OH223599   3.189   0.502   1.035  0.8911 -0.8688  0.5359
  655TIP3    H123600   3.147   0.523   1.118 -1.6187  1.6644 -1.1841
  655TIP3    H223601   3.277   0.537   1.042  0.0569  1.1675  1.4853
  656TIP3   OH223602   5.787   1.899   0.431 -0.1631  0.1461  0.0298
  656TIP3    H123603   5.851   1.928   0.495 -2.0694  3.4291  0.6595
  656TIP3    H223604   5.726   1.845   0.481  0.1994 -0.1319  0.1790
  657TIP3   OH223605   2.910   6.006   1.196  0.7589 -0.7310  0.2598
  657TIP3    H123606   2.906   5.919   1.157 -1.0343 -0.0003 -1.3866
  657TIP3    H223607   2.828   6.013   1.246 -0.1218  0.6411 -1.2562
  658TIP3   OH223608   4.997   0.481   8.839  0.2120 -0.1245  0.2804
  658TIP3    H123609   4.978   0.561   8.889  1.6509 -0.4388  1.4148
  658TIP3    H223610   4.926   0.421   8.860 -0.2044  0.4163  0.4337
  659TIP3   OH223611   0.429   4.954   2.054  0.3326 -0.4281 -0.1388
  659TIP3    H123612   0.431   5.033   2.001 -1.3163  2.5082  3.6271
  659TIP3    H223613   0.346   4.911   2.031  0.6932 -0.4485 -1.4208
  660TIP3   OH223614   4.446   4.286   2.095  0.1078  0.4148  0.0732
  660TIP3    H123615   4.473   4.364   2.144 -1.4841  0.5097  0.8694
  660TIP3    H223616   4.404   4.230   2.161 -1.5891  0.2914 -1.0475
  661TIP3   OH223617   0.154   4.020   0.503  0.1210  0.1686  0.4349
  661TIP3    H123618   0.186   4.110   0.506 -1.5771  0.7982  1.6469
  661TIP3    H223619   0.224   3.970   0.462  1.6175  1.8245  0.8757
  662TIP3   OH223620   0.751   0.793   8.643 -0.1124 -0.1526 -0.2862
  662TIP3    H123621   0.772   0.835   8.727  1.1103 -1.3842  0.0575
  662TIP3    H223622   0.759   0.699   8.661 -3.1626 -0.6352 -0.9129
  663TIP3   OH223623   0.738   4.239   1.195 -0.0786 -0.6822 -0.3706
  663TIP3    H123624   0.753   4.182   1.271 -1.9495 -0.1355  0.4542
  663TIP3    H223625   0.761   4.326   1.227  0.1989 -0.5984 -0.7955
  664TIP3   OH223626   2.212   5.933   8.793  0.2407 -0.4575  0.6123
  664TIP3    H123627   2.265   5.992   8.846  0.5300  0.0110 -0.1802
  664TIP3    H223628   2.273   5.866   8.763 -0.1810 -1.4743  1.9060
  665TIP3   OH223629   3.039   1.725   8.061 -0.4167 -0.1394 -0.0929
  665TIP3    H123630   3.021   1.806   8.013 -0.1239  0.0643  0.1399
  665TIP3    H223631   3.058   1.754   8.151 -1.9103 -0.5818  0.4051
  666TIP3   OH223632   2.496   4.942   8.814  0.8319  0.0150 -0.4906
  666TIP3    H123633   2.443   4.994   8.875  0.4449  1.8695 -2.2705
  666TIP3    H223634   2.432   4.893   8.762  0.9960  0.2806 -0.9502
  667TIP3   OH223635   0.902   1.464   8.379  0.2632  0.0470 -0.2583
  667TIP3    H123636   0.845   1.461   8.302  0.6634  0.9815 -0.6098
  667TIP3    H223637   0.933   1.374   8.389  0.8193  0.0585 -1.6641
  668TIP3   OH223638   1.574   4.220   0.210  0.0017 -0.0219 -0.6390
  668TIP3    H123639   1.490   4.177   0.195 -0.0797 -0.3654  0.7268
  668TIP3    H223640   1.639   4.158   0.176 -0.2683  0.1643 -1.5245
  669TIP3   OH223641   4.125   3.772   0.824  0.2161 -0.4410 -0.0987
  669TIP3    H123642   4.106   3.734   0.910 -0.2895 -0.3704 -0.1751
  669TIP3    H223643   4.087   3.860   0.828  0.0386 -0.5014 -0.4590
  670TIP3   OH223644   0.303   2.880   7.825  0.5195 -0.2285  0.5424
  670TIP3    H123645   0.336   2.967   7.847 -1.0967  0.6009 -0.1206
  670TIP3    H223646   0.208   2.887   7.838  0.2593 -1.6201 -0.4002
  671TIP3   OH223647   5.279   6.626   7.753  0.5706  0.2379  0.2573
  671TIP3    H123648   5.288   6.565   7.826 -0.8435  1.2618  1.3209
  671TIP3    H223649   5.319   6.580   7.679  1.0274 -1.2798  1.4007
  672TIP3   OH223650   5.738   0.304   7.372  0.6612 -0.1214 -0.1107
  672TIP3    H123651   5.675   0.241   7.337  1.4681 -0.7783 -0.4014
  672TIP3    H223652   5.688   0.354   7.437  0.0580 -1.2051  0.2831
  673TIP3   OH223653   6.210   6.074   8.241  0.2276 -0.0473 -0.1787
  673TIP3    H123654   6.258   6.003   8.198 -0.4567 -0.4359 -0.3223
  673TIP3    H223655   6.242   6.073   8.331  1.6555  0.7611 -0.6415
  674TIP3   OH223656   1.040   6.237   7.356 -0.4333  0.0446  0.0116
  674TIP3    H123657   1.035   6.214   7.449  3.1340  2.7541  1.0925
  674TIP3    H223658   1.060   6.330   7.355 -0.1692  0.0763 -3.4991
  675TIP3   OH223659   5.133   2.292   1.452  0.3545 -0.8799  0.2970
  675TIP3    H123660   5.056   2.349   1.443  0.7849 -0.2951  0.2985
  675TIP3    H223661   5.096   2.205   1.469 -0.3144 -0.2932  2.1409
  676TIP3   OH223662   1.426   4.364   2.246 -0.6710  0.3872  0.2581
  676TIP3    H123663   1.499   4.324   2.294  0.1249 -0.2912 -1.4092
  676TIP3    H223664   1.442   4.458   2.251 -0.2403  0.2913  0.7558
  677TIP3   OH223665   4.731   5.381   9.109  0.3740 -0.5541 -0.1480
  677TIP3    H123666   4.677   5.305   9.129 -1.7964  0.4584 -1.7651
  677TIP3    H223667   4.693   5.452   9.160  1.0849 -0.1197 -0.2046
  678TIP3   OH223668   5.159   2.395   8.421 -0.3695 -0.3135 -0.3615
  678TIP3    H123669   5.246   2.364   8.447 -0.5407  0.2157  0.9387
  678TIP3    H223670   5.164   2.490   8.432 -1.2589 -0.3216  0.2501
  679TIP3   OH223671   6.130   0.297   1.425  0.4381  0.4946 -0.0366
  679TIP3    H123672   6.211   0.301   1.476  1.2955  1.2401 -1.3811
  679TIP3    H223673   6.116   0.388   1.396 -1.5288  0.6128  1.1085
  680TIP3   OH223674   3.760   5.065   0.522 -0.5777  0.2450 -0.1192
  680TIP3    H123675   3.818   5.090   0.594  1.2474  0.0821 -1.4459
  680TIP3    H223676   3.730   5.148   0.485 -1.5287  0.3287  0.7988
  681TIP3   OH223677   4.529   2.503   2.500 -0.3495  0.0640  0.3537
  681TIP3    H123678   4.578   2.450   2.437 -1.0106  1.9049 -1.8368
  681TIP3    H223679   4.567   2.481   2.585  2.1484 -0.8488 -0.9184
  682TIP3   OH223680   5.411   2.329   2.331  0.3914  0.0371  0.1817
  682TIP3    H123681   5.430   2.319   2.424 -0.6489 -0.5150  0.3467
  682TIP3    H223682   5.423   2.242   2.294  0.1815  0.1202 -0.0854
  683TIP3   OH223683   5.131   3.655   0.123 -0.0991  0.3477 -0.6979
  683TIP3    H123684   5.181   3.708   0.186 -1.5235  1.0013 -0.0736
  683TIP3    H223685   5.163   3.683   0.037  0.9740  0.3588 -0.3085
  684TIP3   OH223686   6.398   3.250   0.918 -0.6399 -0.2430  0.5097
  684TIP3    H123687   6.320   3.212   0.958 -0.4042 -0.8393  0.4198
  684TIP3    H223688   6.378   3.251   0.824 -1.8198  2.5965  0.7087
  685TIP3   OH223689   5.251   1.558   2.225 -0.3909 -0.4569 -0.0776
  685TIP3    H123690   5.169   1.516   2.252 -0.5092 -0.0442  0.2247
  685TIP3    H223691   5.314   1.531   2.292 -0.4393 -0.2433  0.0537
  686TIP3   OH223692   0.678   1.586   1.709  0.7129  0.5363  0.6092
  686TIP3    H123693   0.744   1.517   1.699  0.5131  0.4102  0.1378
  686TIP3    H223694   0.599   1.539   1.738  0.0167  0.2746 -1.5579
  687TIP3   OH223695   4.246   0.210   1.552  0.3037  0.0762  0.1267
  687TIP3    H123696   4.161   0.238   1.587  1.5090  0.6908  2.8984
  687TIP3    H223697   4.242   0.115   1.552 -0.5929  0.1054 -0.4024
  688TIP3   OH223698   5.190   3.883   1.377  0.0568 -0.0920 -0.2743
  688TIP3    H123699   5.247   3.816   1.341 -0.4336 -0.7574  0.1628
  688TIP3    H223700   5.105   3.869   1.334 -0.0964  0.1232 -0.0490
  689TIP3   OH223701   4.361   0.647   1.655  0.0711 -0.7046  0.4570
  689TIP3    H123702   4.276   0.657   1.698  0.0279 -1.9917  0.7269
  689TIP3    H223703   4.350   0.688   1.569 -0.8265 -0.8654  0.4878
  690TIP3   OH223704   2.402   4.617   0.174 -0.2785 -0.6875 -0.5994
  690TIP3    H123705   2.462   4.576   0.112  0.8634  0.2002 -0.0967
  690TIP3    H223706   2.455   4.681   0.221 -1.6909  0.3655 -0.3752
  691TIP3   OH223707   2.136   1.765   2.121  0.0194 -0.2563  0.5305
  691TIP3    H123708   2.221   1.768   2.164 -0.1670  2.8618  0.9014
  691TIP3    H223709   2.073   1.760   2.193 -0.1839 -2.8064  0.2512
  692TIP3   OH223710   1.421   2.046   8.229 -0.0230 -0.1087  0.2559
  692TIP3    H123711   1.438   1.960   8.265  1.1105 -0.3643 -0.8121
  692TIP3    H223712   1.372   2.092   8.297  2.0850 -0.5287  2.1535
  693TIP3   OH223713   5.392   2.839   1.394  0.1451  0.1532 -0.5063
  693TIP3    H123714   5.425   2.871   1.310 -0.1320 -0.3795 -0.8257
  693TIP3    H223715   5.323   2.902   1.418 -0.3021 -0.1172 -1.0596
  694TIP3   OH223716   3.498   0.471   7.458  0.1659  0.4369 -0.3706
  694TIP3    H123717   3.543   0.536   7.512  1.2177  0.4392 -1.2133
  694TIP3    H223718   3.523   0.386   7.496  0.7411  0.4463 -0.7142
  695TIP3   OH223719   1.439   1.699   0.691 -0.0509 -0.2512  0.1528
  695TIP3    H123720   1.470   1.709   0.601  3.8334  0.8090  1.4352
  695TIP3    H223721   1.386   1.778   0.707 -0.8074 -0.4673 -1.1743
  696TIP3   OH223722   1.397   5.145   0.707 -0.1764  0.0597 -0.0935
  696TIP3    H123723   1.353   5.213   0.757  0.8376  1.6066 -1.2384
  696TIP3    H223724   1.345   5.135   0.628  0.9341  1.1992 -0.9997
  697TIP3   OH223725   1.250   1.589   1.146  0.0978  0.4230 -0.0354
  697TIP3    H123726   1.237   1.671   1.194 -1.3035  1.0077 -1.3523
  697TIP3    H223727   1.162   1.553   1.135  0.5080 -0.3007 -1.1104
  698TIP3   OH223728   5.160   6.655   0.936 -0.6271  0.2409 -0.2879
  698TIP3    H123729   5.095   6.721   0.910 -0.4812  0.4738 -0.0661
  698TIP3    H223730   5.213   6.643   0.857 -1.7218 -0.9057 -0.8873
  699TIP3   OH223731   0.504   6.015   0.631  0.2514 -0.0082  0.1659
  699TIP3    H123732   0.461   5.957   0.569 -0.0388  0.2168  0.1520
  699TIP3    H223733   0.441   6.026   0.702  0.1953  0.4918  0.0457
  700TIP3   OH223734   3.799   6.185   0.719 -0.3284  0.3001  0.9681
  700TIP3    H123735   3.830   6.269   0.687  0.7729 -0.2953  0.4125
  700TIP3    H223736   3.814   6.189   0.814  1.6192 -0.0057  0.7094
  701TIP3   OH223737   6.337   5.461   1.305 -0.4448  0.2040  0.0879
  701TIP3    H123738   6.261   5.506   1.343 -2.0886 -0.6071 -2.0203
  701TIP3    H223739   6.299   5.387   1.258  1.8062 -0.8770 -0.1177
  702TIP3   OH223740   3.213   3.158   0.694  0.2346  0.0165  0.0648
  702TIP3    H123741   3.305   3.176   0.674 -0.2648  1.0309 -1.4216
  702TIP3    H223742   3.205   3.175   0.788  1.8770 -1.5104  0.5381
  703TIP3   OH223743   3.201   1.982   1.231 -0.1349  0.1849 -0.7164
  703TIP3    H123744   3.169   2.067   1.202 -0.2475  0.3737 -0.0401
  703TIP3    H223745   3.163   1.969   1.318 -0.4261 -0.7287 -0.9640
  704TIP3   OH223746   0.606   2.396   8.352  0.0861  0.3204  0.1434
  704TIP3    H123747   0.596   2.330   8.283  1.2159 -0.0784  0.3323
  704TIP3    H223748   0.551   2.469   8.324 -0.8699 -0.5300 -0.2801
  705TIP3   OH223749   2.912   0.745   7.804 -0.2446  0.3680  0.0282
  705TIP3    H123750   2.908   0.823   7.749  0.2403  1.3524  1.3337
  705TIP3    H223751   2.840   0.756   7.866  0.3051  0.1701  0.7108
  706TIP3   OH223752   5.077   4.446   0.832  0.4024  0.3615  0.4445
  706TIP3    H123753   5.017   4.447   0.906  0.2634 -1.8461  0.4415
  706TIP3    H223754   5.028   4.402   0.762  1.8706 -1.2468  0.3529
  707TIP3   OH223755   0.725   5.602   7.490  0.1140 -0.0830  0.2008
  707TIP3    H123756   0.650   5.543   7.486  1.2774 -1.5716 -1.9607
  707TIP3    H223757   0.776   5.581   7.411  1.6844  2.3838  0.4467
  708TIP3   OH223758   2.382   3.992   1.985  0.3954  1.0241 -0.1432
  708TIP3    H123759   2.320   4.013   2.055  1.0498 -0.2589  0.8764
  708TIP3    H223760   2.369   3.898   1.970  1.3477  0.9711 -0.6617
  709TIP3   OH223761   2.378   1.193   2.076 -0.0182  0.5028  0.3463
  709TIP3    H123762   2.390   1.219   1.985  3.8575 -0.6407  0.3540
  709TIP3    H223763   2.340   1.269   2.118 -0.2332  1.6993 -1.8526
  710TIP3   OH223764   2.725   1.009   9.080  0.1571 -0.0885  0.1222
  710TIP3    H123765   2.780   0.931   9.072 -0.3434 -0.3306 -1.1717
  710TIP3    H223766   2.785   1.078   9.108  1.0144 -0.4729 -0.7294
  711TIP3   OH223767   6.212   6.129   1.337  0.2069 -0.1866 -0.0579
  711TIP3    H123768   6.237   6.075   1.412 -1.6230 -1.1023 -0.0272
  711TIP3    H223769   6.237   6.076   1.261 -3.0904 -2.0402 -0.0442
  712TIP3   OH223770   5.074   3.697   2.055 -0.3570 -0.3165  0.1640
  712TIP3    H123771   5.076   3.793   2.049 -1.2157 -0.3107 -0.1537
  712TIP3    H223772   5.061   3.668   1.965  2.1790 -0.8395 -0.0889
  713TIP3   OH223773   0.471   6.429   1.902  0.6738 -0.8982  0.2919
  713TIP3    H123774   0.493   6.382   1.982  2.1361 -0.4857  0.1589
  713TIP3    H223775   0.544   6.409   1.842  0.6722  0.5021 -0.1981
  714TIP3   OH223776   0.353   2.568   2.805  0.1476 -0.2901 -0.8125
  714TIP3    H123777   0.407   2.552   2.882  1.3851  0.9410 -1.3596
  714TIP3    H223778   0.316   2.483   2.783  1.0760 -0.9853  0.1954
  715TIP3   OH223779   2.891   3.070   1.585 -0.2811 -0.1552  0.2545
  715TIP3    H123780   2.962   3.070   1.650 -0.3483 -0.9498  0.3361
  715TIP3    H223781   2.811   3.062   1.636 -0.3217 -1.0043  0.0731
  716TIP3   OH223782   0.356   5.754   0.080  0.1323  0.1224  0.7208
  716TIP3    H123783   0.262   5.769   0.092  0.1885  0.2992  0.9263
  716TIP3    H223784   0.365   5.659   0.083 -0.1205  0.0720  0.1210
  717TIP3   OH223785   0.811   2.929   0.499  0.6113 -0.0088 -0.3105
  717TIP3    H123786   0.786   2.948   0.408 -0.1397  0.3545 -0.0351
  717TIP3    H223787   0.824   3.015   0.539  2.7270 -0.1682 -0.5273
  718TIP3   OH223788   3.812   0.190   9.152  0.3950 -0.6215  0.4776
  718TIP3    H123789   3.896   0.155   9.182  0.6358 -0.1234  0.3929
  718TIP3    H223790   3.763   0.208   9.232  0.5704 -0.4270  0.5422
  719TIP3   OH223791   4.045   5.586   0.684 -0.7796 -0.2456  0.3859
  719TIP3    H123792   4.119   5.634   0.720 -0.8207  0.9273 -1.0172
  719TIP3    H223793   3.979   5.653   0.666 -1.3509 -0.9900 -0.3838
  720TIP3   OH223794   6.572   2.780   1.768  0.4621 -0.5298  0.4206
  720TIP3    H123795   6.629   2.704   1.781 -2.6143 -3.0203  0.4825
  720TIP3    H223796   6.497   2.764   1.825 -0.7499  2.1429 -0.2617
  721TIP3   OH223797   4.245   3.074   0.548 -1.1575  0.5569 -0.1108
  721TIP3    H123798   4.319   3.017   0.570  0.9449  2.0127 -2.7740
  721TIP3    H223799   4.170   3.034   0.593  0.3724 -3.5316 -0.7251
  722TIP3   OH223800   1.010   4.433   7.861  0.5032  0.0581  0.3270
  722TIP3    H123801   0.964   4.408   7.781  0.4293  2.3393 -0.4237
  722TIP3    H223802   1.089   4.380   7.861 -0.0059 -0.7324 -0.7081
  723TIP3   OH223803   2.931   3.148   2.123  0.5816  0.2678 -0.6947
  723TIP3    H123804   2.927   3.088   2.048  2.2871  0.9987 -1.4174
  723TIP3    H223805   2.840   3.164   2.146  0.0142 -0.0214 -2.5995
  724TIP3   OH223806   0.265   6.086   8.720  0.1672  0.2670 -0.3684
  724TIP3    H123807   0.278   6.094   8.625 -1.5704  1.3334 -0.5658
  724TIP3    H223808   0.332   6.142   8.758  0.1701  0.7301 -1.0271
  725TIP3   OH223809   3.512   5.030   1.298  0.2139  0.5934 -0.0397
  725TIP3    H123810   3.577   5.099   1.313  0.7334  0.2489 -0.6907
  725TIP3    H223811   3.519   4.973   1.375  0.0094  1.0761  0.3455
  726TIP3   OH223812   3.480   4.355   8.872 -0.2723  0.1508  0.2620
  726TIP3    H123813   3.418   4.427   8.888  0.0485  0.3937  0.4388
  726TIP3    H223814   3.494   4.317   8.959  1.4926  1.4835  0.6124
  727TIP3   OH223815   2.168   5.433   1.948  0.6854 -0.0533 -0.0444
  727TIP3    H123816   2.212   5.415   2.031 -0.4392 -2.2701  0.1227
  727TIP3    H223817   2.101   5.366   1.941 -0.4140  1.1617 -1.9309
  728TIP3   OH223818   6.443   3.566   7.206  0.3334  0.1541  0.2134
  728TIP3    H123819   6.360   3.527   7.177  0.9295 -0.4422 -0.7791
  728TIP3    H223820   6.476   3.611   7.128  0.8167  0.6006  0.6736
  729TIP3   OH223821   1.314   0.087   0.522 -0.3655  0.0452 -0.0444
  729TIP3    H123822   1.270   0.155   0.574 -0.6561 -0.2202  0.0594
  729TIP3    H223823   1.342   0.133   0.443  1.5421  0.8522  1.0339
  730TIP3   OH223824   3.782   3.892   1.056  0.6446 -0.6500 -0.2262
  730TIP3    H123825   3.853   3.889   1.121  1.0782 -0.5749 -0.6888
  730TIP3    H223826   3.733   3.972   1.078  1.2094 -0.2401 -0.4188
  731TIP3   OH223827   0.233   2.964   7.471 -0.2734 -0.0408 -0.2069
  731TIP3    H123828   0.327   2.976   7.456 -0.3664  0.2485 -0.5743
  731TIP3    H223829   0.213   2.881   7.428 -0.3773  0.3865 -1.0114
  732TIP3   OH223830   6.666   2.030   7.220  0.6628  0.0700 -0.1802
  732TIP3    H123831   6.571   2.020   7.228  0.5910  0.5168 -0.4626
  732TIP3    H223832   6.696   2.046   7.310  0.4392  0.2093 -0.1287
  733TIP3   OH223833   2.220   4.893   6.774 -0.5964 -0.7384  0.4118
  733TIP3    H123834   2.161   4.825   6.743  0.3370 -1.2351 -0.3150
  733TIP3    H223835   2.185   4.974   6.736 -0.1682 -1.1763 -0.9640
  734TIP3   OH223836   5.690   4.671   9.159 -0.2503 -0.3248  0.1381
  734TIP3    H123837   5.726   4.732   9.223 -0.7916  1.6690 -1.3646
  734TIP3    H223838   5.740   4.591   9.173 -0.2730  0.0335  2.9375
  735TIP3   OH223839   1.881   5.121   0.802  1.2021  0.1728 -0.1570
  735TIP3    H123840   1.789   5.131   0.779  2.0028  2.3874 -3.1239
  735TIP3    H223841   1.892   5.028   0.820 -1.5014 -0.2114 -0.1960
  736TIP3   OH223842   0.755   4.164   8.475  0.0201  0.1451  0.3560
  736TIP3    H123843   0.716   4.239   8.431  0.0715  1.0440  1.7637
  736TIP3    H223844   0.716   4.088   8.432 -1.1381  0.9899 -0.1489
  737TIP3   OH223845   2.381   3.634   8.454 -0.3155  0.6990 -0.0206
  737TIP3    H123846   2.463   3.621   8.405  0.3741 -0.4883  1.3906
  737TIP3    H223847   2.321   3.568   8.418  0.1737 -0.1387  0.6588
  738TIP3   OH223848   3.262   1.345   0.239 -0.3499  0.5201  0.0298
  738TIP3    H123849   3.253   1.253   0.216 -0.0933  0.8405 -1.4875
  738TIP3    H223850   3.174   1.373   0.262 -0.3093 -0.2613  1.2492
  739TIP3   OH223851   2.560   1.875   8.471 -0.5482  0.5397  0.1925
  739TIP3    H123852   2.557   1.834   8.384 -2.0133  0.1957  0.3766
  739TIP3    H223853   2.598   1.961   8.455  0.0280  0.1424 -0.6452
  740TIP3   OH223854   2.453   0.288   1.583  0.0880 -0.4662 -0.3416
  740TIP3    H123855   2.386   0.221   1.595 -0.1855 -0.0936  0.2582
  740TIP3    H223856   2.416   0.347   1.518  1.3761 -2.2308 -2.8719
  741TIP3   OH223857   0.564   0.468   1.228 -0.2045 -0.7010 -0.3800
  741TIP3    H123858   0.639   0.429   1.274  0.0247  2.0973  1.8919
  741TIP3    H223859   0.489   0.446   1.282 -0.0289  1.9858  1.1589
  742TIP3   OH223860   3.021   3.577   0.741  0.2432 -0.0114  0.5894
  742TIP3    H123861   3.019   3.516   0.814 -0.2581  0.1745  0.7332
  742TIP3    H223862   3.052   3.525   0.667 -0.1453 -0.4305  0.7169
  743TIP3   OH223863   0.046   5.928   0.276 -0.2525  0.0449  0.3633
  743TIP3    H123864   0.039   5.905   0.184  0.6599  1.1933 -0.0271
  743TIP3    H223865   0.129   5.888   0.305 -0.4016 -0.0873  0.6124
  744TIP3   OH223866   4.092   4.767   0.902  0.4746  0.4331 -0.1565
  744TIP3    H123867   4.065   4.677   0.882 -0.2849  0.7938 -0.8044
  744TIP3    H223868   4.089   4.812   0.818 -0.1743  1.3294  0.3339
  745TIP3   OH223869   4.587   4.781   8.834 -0.2263 -0.2761  0.1943
  745TIP3    H123870   4.497   4.792   8.865 -1.7120 -0.3826 -3.5594
  745TIP3    H223871   4.578   4.752   8.743  3.6473 -0.9195 -0.1588
  746TIP3   OH223872   3.438   2.039   1.077  0.6687  0.6898 -0.3233
  746TIP3    H123873   3.493   1.979   1.127  1.8355 -0.9560 -3.3894
  746TIP3    H223874   3.349   2.005   1.089  0.4781  1.8987  2.6137
  747TIP3   OH223875   2.832   0.016   8.941  0.4389 -0.1393  0.1342
  747TIP3    H123876   2.808   0.015   8.849 -0.7734  1.4743  0.3845
  747TIP3    H223877   2.812  -0.072   8.973 -2.4033  0.2158 -0.4040
  748TIP3   OH223878   4.195   2.391   0.888 -0.6933  0.0033  0.4520
  748TIP3    H123879   4.130   2.447   0.847 -0.8833 -0.6122 -0.1064
  748TIP3    H223880   4.148   2.310   0.909 -0.0689 -0.5317 -0.1616
  749TIP3   OH223881   3.256   4.570   8.573  0.2709 -0.3608  0.4433
  749TIP3    H123882   3.308   4.490   8.563  0.1578 -0.5561  1.3018
  749TIP3    H223883   3.250   4.606   8.485  1.9482 -0.2694  0.3213
  750TIP3   OH223884   6.474   0.678   1.031  0.1009 -0.2598  0.4393
  750TIP3    H123885   6.411   0.605   1.024  1.7861 -1.9733  2.0898
  750TIP3    H223886   6.539   0.647   1.094  2.6403  1.4197 -1.2171
  751TIP3   OH223887   4.012   3.711   0.054  0.1486 -0.0253 -0.3835
  751TIP3    H123888   4.023   3.629   0.006 -1.4364 -0.1075 -0.6587
  751TIP3    H223889   3.993   3.684   0.143 -1.9670 -0.0406 -0.8018
  752TIP3   OH223890   2.677   2.543   0.022 -0.6758  0.4313 -0.5748
  752TIP3    H123891   2.684   2.503   0.109 -2.2730  1.0122 -0.1400
  752TIP3    H223892   2.585   2.566   0.014 -0.8040 -0.6762 -2.9375
  753TIP3   OH223893   4.521   3.684   0.292 -0.2266 -0.7440  0.4107
  753TIP3    H123894   4.613   3.675   0.315 -0.1251  1.9726  1.3413
  753TIP3    H223895   4.474   3.669   0.374 -0.5196 -0.6171  0.2673
  754TIP3   OH223896   6.594   5.625   6.919  0.1297 -0.0609 -0.2632
  754TIP3    H123897   6.547   5.547   6.949  0.4890  0.2299  1.1382
  754TIP3    H223898   6.533   5.669   6.860 -0.1204 -1.3236 -0.9857
  755TIP3   OH223899   6.187   4.990   7.695 -0.1447 -0.0907  0.4478
  755TIP3    H123900   6.210   5.032   7.612  1.3310  2.1844  1.8839
  755TIP3    H223901   6.191   5.061   7.759 -1.6574 -1.6676  2.4303
  756TIP3   OH223902   0.647   6.331   6.812  0.1172 -0.4385 -0.3211
  756TIP3    H123903   0.719   6.393   6.811  0.7083 -1.1017  0.0413
  756TIP3    H223904   0.679   6.258   6.865 -0.4034 -1.2371 -1.0755
  757TIP3   OH223905   5.628   1.654   1.450 -0.2009 -0.3221  0.2563
  757TIP3    H123906   5.577   1.618   1.377 -0.0026  0.8022 -0.4739
  757TIP3    H223907   5.706   1.599   1.456 -1.0918 -1.5632  0.8541
  758TIP3   OH223908   3.521   2.711   8.944 -0.0271 -0.0459 -0.3407
  758TIP3    H123909   3.502   2.621   8.918 -0.1505 -1.0484  2.7408
  758TIP3    H223910   3.435   2.752   8.955 -0.0413 -0.2108  0.2001
  759TIP3   OH223911   3.888   3.823   7.484  0.4607 -0.7472 -0.5599
  759TIP3    H123912   3.865   3.888   7.419  1.4551 -0.0783 -0.2672
  759TIP3    H223913   3.813   3.763   7.486 -1.2670  1.3422  0.4345
  760TIP3   OH223914   2.702   3.245   7.279 -0.5745 -0.0293  0.4887
  760TIP3    H123915   2.708   3.157   7.316 -1.0025 -1.3651 -2.3613
  760TIP3    H223916   2.790   3.265   7.248 -0.8701 -0.2706 -0.5354
  761TIP3   OH223917   1.962   5.876   8.580 -0.7252 -0.5431 -0.2349
  761TIP3    H123918   2.030   5.890   8.646 -1.4475 -1.9574  0.8633
  761TIP3    H223919   1.892   5.937   8.604 -0.1663  0.3924 -0.9322
  762TIP3   OH223920   4.299   6.668   2.501 -0.3771  0.3589  0.5849
  762TIP3    H123921   4.290   6.616   2.421  0.0356  0.3363  0.5481
  762TIP3    H223922   4.329   6.754   2.470  1.3801 -0.1216  0.8112
  763TIP3   OH223923   5.958   3.900   7.560  0.3322  0.1806  0.0274
  763TIP3    H123924   5.933   3.983   7.519  0.1076  0.0732 -0.0534
  763TIP3    H223925   5.983   3.924   7.650 -1.1125  0.1580  0.4712
  764TIP3   OH223926   3.146   1.082   0.213  0.4236 -0.0399  0.1862
  764TIP3    H123927   3.181   1.049   0.130  0.9098  1.3716 -0.1967
  764TIP3    H223928   3.133   1.004   0.267  2.4984 -0.7707 -0.2962
  765TIP3   OH223929   0.987   3.391   0.911 -0.5499  0.2273 -0.6971
  765TIP3    H123930   1.066   3.337   0.901 -1.6554 -1.1791 -2.4270
  765TIP3    H223931   1.002   3.440   0.992  1.3958 -1.1801 -0.1232
  766TIP3   OH223932   1.236   5.104   0.486 -0.7571  0.0165  0.0290
  766TIP3    H123933   1.239   5.143   0.399  1.4985  0.9407  0.4587
  766TIP3    H223934   1.180   5.164   0.537  1.2434  1.8454  0.2200
  767TIP3   OH223935   0.368   5.600   2.975 -0.1548 -0.5697  0.2161
  767TIP3    H123936   0.432   5.588   3.045  0.3430  0.8754  0.0436
  767TIP3    H223937   0.353   5.512   2.941  1.0206 -1.0587  0.9031
  768TIP3   OH223938   2.080   1.648   0.354  0.0070  0.4713 -0.4196
  768TIP3    H123939   2.164   1.694   0.361 -0.5120  1.2271  2.5747
  768TIP3    H223940   2.022   1.696   0.414 -0.7153 -3.6990  2.6688
  769TIP3   OH223941   6.505   1.466   8.160  0.0576 -0.2820 -0.1139
  769TIP3    H123942   6.458   1.518   8.095 -2.3223 -1.5859  0.4567
  769TIP3    H223943   6.537   1.529   8.223  0.2028  0.7702 -1.1966
  770TIP3   OH223944   0.518   6.345   2.599  0.1586 -0.5188  0.2231
  770TIP3    H123945   0.457   6.336   2.525  0.3129 -0.8071  0.1274
  770TIP3    H223946   0.546   6.437   2.596 -1.1545 -0.0776  0.9742
  771TIP3   OH223947   5.553   6.225   7.454  0.2282 -0.3794  0.1949
  771TIP3    H123948   5.530   6.167   7.382  0.9754  0.1012 -0.4528
  771TIP3    H223949   5.626   6.277   7.421 -0.1288  0.6281  0.9029
  772TIP3   OH223950   4.903   0.926   8.566 -0.5022  0.4634  0.4373
  772TIP3    H123951   4.940   0.838   8.564  0.4181  0.8403  0.5342
  772TIP3    H223952   4.902   0.950   8.658 -3.2813 -0.4570  0.7456
  773TIP3   OH223953   6.215   4.547   6.597  0.0629  0.1214 -0.4862
  773TIP3    H123954   6.193   4.613   6.662 -0.7115 -0.6195  0.0352
  773TIP3    H223955   6.296   4.508   6.629 -0.6366 -0.6689  0.4141
  774TIP3   OH223956   3.802   4.479   8.921 -0.2313  0.2828  0.3558
  774TIP3    H123957   3.788   4.388   8.949 -2.0104  0.2827 -0.3812
  774TIP3    H223958   3.825   4.471   8.828  1.0603  0.5352  0.6325
  775TIP3   OH223959   3.923   3.703   8.939  0.7065 -0.1229  0.2585
  775TIP3    H123960   3.876   3.770   8.888 -0.1225 -1.5250 -0.9147
  775TIP3    H223961   3.854   3.656   8.985  1.2510 -0.3575  0.8356
  776TIP3   OH223962   6.612   2.764   8.771 -0.4454 -0.7762 -0.0242
  776TIP3    H123963   6.606   2.773   8.676 -1.3814 -1.2059 -0.0123
  776TIP3    H223964   6.541   2.818   8.806  1.2285  1.1684  0.5559
  777TIP3   OH223965   4.323   0.244   0.276 -0.0498 -0.8246 -0.0137
  777TIP3    H123966   4.229   0.257   0.287 -0.2194 -0.7067 -1.4057
  777TIP3    H223967   4.334   0.149   0.274 -0.1918 -0.8348 -0.2750
  778TIP3   OH223968   2.841   2.402   9.039 -0.0108  0.4225  0.1733
  778TIP3    H123969   2.774   2.429   9.103  0.8913 -0.6462  1.6423
  778TIP3    H223970   2.863   2.482   8.992 -0.3536  1.3731  1.5637
  779TIP3   OH223971   2.011   2.964   1.581  0.1776  0.5885  0.1936
  779TIP3    H123972   2.039   2.891   1.636  0.3504  1.1775  0.9211
  779TIP3    H223973   2.048   2.947   1.495 -0.2571 -0.4595  0.2095
  780TIP3   OH223974   6.402   6.089   0.920 -0.4978  0.1662 -0.0707
  780TIP3    H123975   6.361   6.168   0.885 -0.1669  0.6606  0.6378
  780TIP3    H223976   6.483   6.121   0.960 -0.2701 -0.5618  0.0500
  781TIP3   OH223977   2.044   6.411   0.354  0.3230  0.2480 -0.1190
  781TIP3    H123978   2.035   6.477   0.284  0.2727  0.2980 -0.0653
  781TIP3    H223979   2.137   6.412   0.375  0.4941 -0.4192 -0.8187
  782TIP3   OH223980   5.787   5.607   8.845 -0.2514 -0.0471  0.5965
  782TIP3    H123981   5.846   5.645   8.910  1.0567  0.6531 -0.9265
  782TIP3    H223982   5.714   5.669   8.841  1.1073  1.5860 -0.7167
  783TIP3   OH223983   1.017   4.935   0.939  0.3868  0.3652 -0.5046
  783TIP3    H123984   0.983   4.978   1.018  1.0483 -0.0991  0.0519
  783TIP3    H223985   1.108   4.914   0.962  0.6148  0.3151 -1.4364
  784TIP3   OH223986   4.525   3.449   8.467 -0.1412 -0.8589  0.0230
  784TIP3    H123987   4.568   3.535   8.464 -1.3354 -0.0776  2.4781
  784TIP3    H223988   4.595   3.389   8.494  0.5373 -0.5559 -0.9983
  785TIP3   OH223989   3.810   4.418   2.807  0.7174  0.2179  0.5317
  785TIP3    H123990   3.753   4.488   2.839 -0.5938 -0.9202  0.7664
  785TIP3    H223991   3.763   4.381   2.733  2.8459  1.5702 -1.6217
  786TIP3   OH223992   3.757   5.722   2.856 -0.4390  0.4851  0.7188
  786TIP3    H123993   3.768   5.662   2.930  2.3115 -2.3010 -1.6633
  786TIP3    H223994   3.680   5.689   2.809  0.9388 -1.2686 -0.4661
  787TIP3   OH223995   2.770   0.403   8.949  0.1874 -0.3596 -0.1767
  787TIP3    H123996   2.739   0.456   8.876  1.8380 -1.0009 -1.3916
  787TIP3    H223997   2.865   0.415   8.948  0.1809  0.8866  2.8740
  788TIP3   OH223998   3.860   3.399   2.483 -0.7545 -0.1714 -0.0688
  788TIP3    H123999   3.913   3.426   2.408 -1.0756 -0.9530 -0.5994
  788TIP3    H224000   3.874   3.466   2.549 -1.0084  0.9155 -1.0839
  789TIP3   OH224001   4.762   2.297   2.255 -0.4843 -0.2851  0.2882
  789TIP3    H124002   4.767   2.204   2.276  0.1480 -0.6050 -1.2156
  789TIP3    H224003   4.852   2.323   2.239 -0.3081  1.2098  3.0821
  790TIP3   OH224004   4.646   1.709   7.683 -0.3462 -0.1755 -0.1486
  790TIP3    H124005   4.589   1.663   7.622  1.0596 -1.4797 -0.5712
  790TIP3    H224006   4.731   1.665   7.674  0.4541  0.9808  1.2085
  791TIP3   OH224007   5.787   4.087   1.697  0.6646  0.4789  0.3146
  791TIP3    H124008   5.818   4.154   1.757  0.6131  0.9969 -0.2320
  791TIP3    H224009   5.713   4.046   1.743 -0.6017  2.1413 -0.1553
  792TIP3   OH224010   6.652   0.040   2.890 -0.0434  0.0593 -0.0853
  792TIP3    H124011   6.729   0.083   2.926  1.0879 -0.6909 -1.4899
  792TIP3    H224012   6.688  -0.030   2.835 -1.7267 -0.1328 -0.9863
  793TIP3   OH224013   3.174   4.681   2.026 -0.4932  0.4637 -0.1170
  793TIP3    H124014   3.177   4.646   1.937 -1.3092  2.2130 -0.8853
  793TIP3    H224015   3.088   4.654   2.059 -0.9152  1.2568 -0.5269
  794TIP3   OH224016   1.564   0.868   0.923 -0.4192 -0.1415 -0.3977
  794TIP3    H124017   1.588   0.956   0.893 -3.4020  0.2349 -2.0637
  794TIP3    H224018   1.646   0.830   0.954  1.2473  2.6912 -0.9955
  795TIP3   OH224019   2.404   5.562   8.365  0.0939  0.5836  0.1050
  795TIP3    H124020   2.402   5.550   8.460 -3.1147  0.8582  0.1655
  795TIP3    H224021   2.464   5.494   8.334  0.4142 -0.1872  2.2274
  796TIP3   OH224022   2.298   5.473   7.995 -0.2780 -0.1451  0.5536
  796TIP3    H124023   2.244   5.473   7.916 -0.0370  0.2291  0.3874
  796TIP3    H224024   2.315   5.565   8.014  0.4958 -0.2598  0.4700
  797TIP3   OH224025   0.188   0.900   1.444  0.6982 -0.6673  0.2288
  797TIP3    H124026   0.187   0.982   1.493  1.0446 -0.7032  0.3016
  797TIP3    H224027   0.277   0.894   1.410  0.5100 -0.7353 -0.2485
  798TIP3   OH224028   6.379   2.048   2.086  0.3670 -0.5391  0.5245
  798TIP3    H124029   6.442   2.064   2.156  0.5217 -1.8922  0.7184
  798TIP3    H224030   6.379   2.129   2.035 -1.8067  1.6313  3.6384
  799TIP3   OH224031   1.751   5.043   7.025 -0.5422  0.0808  0.0944
  799TIP3    H124032   1.746   5.131   7.062  0.5614 -0.3152  1.2595
  799TIP3    H224033   1.845   5.022   7.026 -0.8786 -1.5115  0.8251
  800TIP3   OH224034   4.618   3.785   7.907  0.2236  0.1502  0.0905
  800TIP3    H124035   4.605   3.830   7.824  0.7167  1.2715  0.5998
  800TIP3    H224036   4.574   3.840   7.972 -1.2329 -1.3523  0.4359
  801TIP3   OH224037   3.241   0.235   2.194  0.1104  0.4945 -0.0515
  801TIP3    H124038   3.290   0.196   2.121 -2.6792 -2.2184 -0.6979
  801TIP3    H224039   3.241   0.166   2.261  0.9799  2.2151  1.8071
  802TIP3   OH224040   2.681   1.765   0.993  0.6290  0.4367 -0.0672
  802TIP3    H124041   2.709   1.848   1.031 -1.5648  0.1338  2.5613
  802TIP3    H224042   2.749   1.702   1.018  0.8485  0.9042  0.5366
  803TIP3   OH224043   0.445   1.919   7.784 -1.0058 -0.6039 -0.1014
  803TIP3    H124044   0.353   1.925   7.808 -1.2404 -2.0432 -0.5057
  803TIP3    H224045   0.486   1.874   7.859  0.0326  2.7269  1.4963
  804TIP3   OH224046   3.161   2.916   8.315  0.0481 -0.0203 -0.6533
  804TIP3    H124047   3.166   2.859   8.391 -1.3458  1.6037  0.7544
  804TIP3    H224048   3.125   2.862   8.246  0.5716 -1.3201  0.0567
  805TIP3   OH224049   0.857   3.296   8.589 -0.2048  0.1394 -0.3598
  805TIP3    H124050   0.807   3.310   8.669 -1.3206 -0.9485 -0.8302
  805TIP3    H224051   0.805   3.232   8.539  1.5188 -0.8228 -1.0018
  806TIP3   OH224052   1.879   3.679   2.444  0.0549 -0.6696  0.3540
  806TIP3    H124053   1.969   3.710   2.436  0.6992 -1.7593  2.5142
  806TIP3    H224054   1.855   3.650   2.356  1.6765 -0.0429 -0.3224
  807TIP3   OH224055   3.471   3.352   0.182 -0.0625 -0.2114 -0.6474
  807TIP3    H124056   3.435   3.291   0.246  0.1641 -0.1315 -0.4446
  807TIP3    H224057   3.507   3.424   0.234  2.1972 -1.2034 -0.7026
  808TIP3   OH224058   2.384   3.170   8.288  0.2350 -0.3213  0.3185
  808TIP3    H124059   2.454   3.134   8.342  0.2874 -2.0255 -0.8043
  808TIP3    H224060   2.316   3.103   8.289 -0.5679  0.4707 -0.1686
  809TIP3   OH224061   3.636   2.962   1.184 -0.5348  0.1604 -0.2362
  809TIP3    H124062   3.607   2.908   1.257 -1.9644  1.7927  0.4660
  809TIP3    H224063   3.731   2.948   1.180 -0.6184 -0.9799  1.0607
  810TIP3   OH224064   4.528   2.003   0.224 -0.2634 -0.1405  0.5698
  810TIP3    H124065   4.604   2.026   0.278  0.9235 -0.1526 -1.0326
  810TIP3    H224066   4.490   2.087   0.200  0.7375 -0.0099 -0.6505
  811TIP3   OH224067   4.592   5.628   7.395  0.0946 -0.3616  0.3055
  811TIP3    H124068   4.593   5.708   7.342 -1.9768  0.2710  1.1176
  811TIP3    H224069   4.598   5.557   7.331 -0.3733  0.4160 -0.6324
  812TIP3   OH224070   5.727   4.696   8.587  0.0853 -0.5669  0.1259
  812TIP3    H124071   5.723   4.665   8.678  2.2515 -1.4773 -0.0281
  812TIP3    H224072   5.799   4.759   8.587  0.6393 -1.1796 -1.1168
  813TIP3   OH224073   5.843   6.263   7.972  0.0720 -0.4297 -0.1300
  813TIP3    H124074   5.888   6.306   7.900 -1.4725 -0.0054 -0.8812
  813TIP3    H224075   5.893   6.182   7.987  3.4178  1.7577  1.7325
  814TIP3   OH224076   3.079   5.678   7.380 -0.4593  0.1612  0.2908
  814TIP3    H124077   3.018   5.667   7.453 -1.5898 -1.3992 -0.8260
  814TIP3    H224078   3.029   5.726   7.314  0.8444  2.3802  0.8064
  815TIP3   OH224079   2.708   5.376   0.750  0.5783 -0.1931 -0.1115
  815TIP3    H124080   2.738   5.460   0.715  0.4006 -0.1920 -0.2677
  815TIP3    H224081   2.616   5.391   0.773  0.0911 -0.7560 -1.5731
  816TIP3   OH224082   5.344   6.080   8.219 -0.2081 -0.3015 -0.3578
  816TIP3    H124083   5.250   6.077   8.235 -0.3471  0.4559 -0.9765
  816TIP3    H224084   5.379   6.137   8.287 -0.3555  0.2848 -0.7602
  817TIP3   OH224085   4.893   4.688   9.128  0.2335  0.3834  0.1006
  817TIP3    H124086   4.954   4.743   9.179  1.2090  0.7100 -1.3508
  817TIP3    H224087   4.927   4.599   9.137 -0.8577  0.0899  1.7551
  818TIP3   OH224088   4.983   5.965   2.009  0.3116 -0.6377  0.2580
  818TIP3    H124089   5.049   5.922   1.956 -0.2424  0.5239 -1.4781
  818TIP3    H224090   4.907   5.974   1.951  0.6895  3.4543  0.0660
  819TIP3   OH224091   0.164   1.165   1.848  0.0693 -0.0313 -0.0089
  819TIP3    H124092   0.216   1.093   1.812  2.5287  1.5925  0.0491
  819TIP3    H224093   0.131   1.211   1.770 -1.5427 -1.1611 -0.0461
  820TIP3   OH224094   3.123   0.677   2.772 -0.2557 -0.4537  0.5170
  820TIP3    H124095   3.051   0.723   2.728 -0.6127  0.2062  1.7240
  820TIP3    H224096   3.122   0.589   2.735  0.7069  0.5722 -2.1595
  821TIP3   OH224097   5.176   3.111   0.161  0.3083 -0.0053 -0.1145
  821TIP3    H124098   5.270   3.127   0.153  0.4452 -0.5311  0.3508
  821TIP3    H224099   5.151   3.071   0.078  1.0436 -2.3372  0.6946
  822TIP3   OH224100   6.633   2.148   0.941  0.2289  0.7512  0.2238
  822TIP3    H124101   6.655   2.188   0.857 -0.4934  0.3803 -0.1607
  822TIP3    H224102   6.551   2.100   0.923  0.2693  0.3631  1.0440
  823TIP3   OH224103   1.285   1.436   7.819 -0.9521 -0.3344 -0.2526
  823TIP3    H124104   1.280   1.364   7.882 -0.1623  0.9331  1.3240
  823TIP3    H224105   1.309   1.394   7.737 -1.8282 -2.0201  0.2997
  824TIP3   OH224106   5.455   5.528   2.038  0.0931 -0.0460 -0.6693
  824TIP3    H124107   5.447   5.584   1.960 -3.4710 -1.5055 -1.5385
  824TIP3    H224108   5.480   5.442   2.003 -1.0785 -0.5950 -0.2078
  825TIP3   OH224109   6.590   0.633   1.767 -0.4300 -0.1858 -0.0265
  825TIP3    H124110   6.512   0.616   1.714  0.9027 -1.4139 -1.7108
  825TIP3    H224111   6.658   0.655   1.703  0.8482 -0.0867  1.3225
  826TIP3   OH224112   1.145   1.031   7.655 -0.1810  0.2837  0.2116
  826TIP3    H124113   1.050   1.043   7.666 -0.2143  1.1575 -0.8257
  826TIP3    H224114   1.167   1.087   7.581  1.0577 -0.3684  0.0705
  827TIP3   OH224115   6.662   4.405   0.533  0.4506 -0.3490 -0.3600
  827TIP3    H124116   6.589   4.343   0.530 -0.2572  0.2760  2.2321
  827TIP3    H224117   6.651   4.458   0.454 -0.0069 -2.2700 -1.6659
  828TIP3   OH224118   6.248   6.373   8.154  0.5455  0.6117  0.2196
  828TIP3    H124119   6.244   6.430   8.231 -1.5244 -0.3689  0.9293
  828TIP3    H224120   6.246   6.285   8.190  0.5958  0.1261 -0.9402
  829TIP3   OH224121   4.660   0.033   1.491  0.1343  1.0637  0.1524
  829TIP3    H124122   4.743  -0.005   1.519 -1.0167 -0.4349  1.7644
  829TIP3    H224123   4.617  -0.037   1.441 -1.2144  0.8400  1.5383
  830TIP3   OH224124   3.730   6.120   7.647  0.1160 -0.2186  0.0370
  830TIP3    H124125   3.802   6.174   7.614 -0.3154  0.4366  0.1681
  830TIP3    H224126   3.703   6.069   7.571 -1.3331  1.7822 -0.8662
  831TIP3   OH224127   5.789   2.589   7.376 -0.3950  0.4287  0.4374
  831TIP3    H124128   5.790   2.570   7.283 -2.2451 -0.8279  0.6094
  831TIP3    H224129   5.818   2.680   7.383  0.9988  0.1547 -1.2075
  832TIP3   OH224130   0.773   4.807   8.209 -0.2074 -0.1833 -0.4123
  832TIP3    H124131   0.779   4.825   8.115 -1.0923  1.6604 -0.1687
  832TIP3    H224132   0.709   4.871   8.241 -0.5085 -1.2998  1.3220
  833TIP3   OH224133   1.119   4.884   7.681 -0.1632  0.1530 -0.5099
  833TIP3    H124134   1.185   4.815   7.674 -0.2300  0.2282 -2.2253
  833TIP3    H224135   1.142   4.947   7.613  0.0804  2.0370  1.2373
  834TIP3   OH224136   1.490   6.368   8.758 -0.5603  0.2869  0.0678
  834TIP3    H124137   1.464   6.283   8.723  0.3222 -0.0107  0.1217
  834TIP3    H224138   1.415   6.425   8.740 -0.3137  0.0516 -1.9298
  835TIP3   OH224139   0.103   2.400   7.970  0.1079  0.2924  0.4130
  835TIP3    H124140   0.012   2.428   7.980  0.0714 -0.0001  0.9360
  835TIP3    H224141   0.136   2.452   7.897 -0.2741  0.9166  0.6759
  836TIP3   OH224142   0.636   1.363   1.234 -0.1106  0.1152  0.1025
  836TIP3    H124143   0.595   1.411   1.306  1.4202 -0.3036  1.2990
  836TIP3    H224144   0.729   1.361   1.256  0.3197 -0.4897 -1.6302
  837TIP3   OH224145   6.025   3.061   7.752  0.4550  0.4762 -0.4662
  837TIP3    H124146   6.023   2.967   7.734 -2.3432  0.6728 -1.5358
  837TIP3    H224147   5.966   3.073   7.827 -0.5475  1.5394 -1.3856
  838TIP3   OH224148   6.074   5.470   1.854  0.0557  0.4292 -0.1455
  838TIP3    H124149   5.987   5.474   1.815 -1.6072  1.0477  3.2225
  838TIP3    H224150   6.077   5.384   1.897 -0.5920  1.8429  3.0098
  839TIP3   OH224151   0.807   0.944   8.921 -0.3418  0.2694  0.5470
  839TIP3    H124152   0.847   0.877   8.977 -1.4366  0.0950  1.1607
  839TIP3    H224153   0.880   0.995   8.888  0.5017 -1.0559  0.2884
  840TIP3   OH224154   5.910   5.809   7.630  0.6970 -0.2086 -0.1173
  840TIP3    H124155   5.934   5.861   7.553  0.6766  2.5791  1.6227
  840TIP3    H224156   5.986   5.815   7.688 -0.3320  0.1926  1.2538
  841TIP3   OH224157   1.404   4.642   8.749 -0.3524 -0.8030 -0.3446
  841TIP3    H124158   1.340   4.701   8.709 -2.5966 -1.8883  1.4158
  841TIP3    H224159   1.353   4.566   8.776  1.6184 -1.5944  1.4607
  842TIP3   OH224160   6.688   0.498   8.330  0.1250  0.0232 -0.2009
  842TIP3    H124161   6.624   0.519   8.398  0.3121 -1.9528  0.6492
  842TIP3    H224162   6.638   0.503   8.248 -0.4570  1.0298  0.2025
  843TIP3   OH224163   2.647   1.097   2.400  0.4876 -0.2601  0.2122
  843TIP3    H124164   2.604   1.165   2.453 -0.2557 -0.3336 -0.2883
  843TIP3    H224165   2.732   1.136   2.376  1.1038 -0.4577  1.9359
  844TIP3   OH224166   4.830   1.021   0.249 -0.3720  0.4742  0.2623
  844TIP3    H124167   4.913   1.043   0.291 -1.0936  2.5063  0.7061
  844TIP3    H224168   4.766   1.026   0.320 -0.9160 -0.9969 -0.0899
  845TIP3   OH224169   1.925   1.328   0.068  0.0022 -0.4526  0.4728
  845TIP3    H124170   1.896   1.419   0.062  1.3699 -0.0593 -0.8720
  845TIP3    H224171   1.915   1.305   0.161  1.5028  1.7405  1.2542
  846TIP3   OH224172   0.609   6.026   2.067  0.9138  0.6677  0.4175
  846TIP3    H124173   0.547   5.965   2.106 -0.6217  2.3990  0.8241
  846TIP3    H224174   0.692   6.006   2.110  0.2533 -0.5204  1.1921
  847TIP3   OH224175   5.944   5.388   1.434  0.2080  0.2515 -0.6432
  847TIP3    H124176   5.923   5.320   1.369 -1.4214 -1.5298  1.5608
  847TIP3    H224177   5.863   5.438   1.443  1.0360  1.7892 -1.3641
  848TIP3   OH224178   4.598   0.187   1.927  0.1406 -0.1599 -0.2968
  848TIP3    H124179   4.576   0.273   1.892  0.6423  1.5684  3.2511
  848TIP3    H224180   4.518   0.136   1.916 -0.6157  1.1526 -1.2372
  849TIP3   OH224181   0.236   4.475   6.981 -0.3322  0.1886  0.0267
  849TIP3    H124182   0.243   4.568   7.001 -1.2510  0.0519  1.0919
  849TIP3    H224183   0.199   4.472   6.893 -1.7629  0.8555  0.5702
  850TIP3   OH224184   2.969   0.102   8.067  0.6124  0.0290  0.0086
  850TIP3    H124185   2.987   0.022   8.017 -0.9013 -0.4861  0.2562
  850TIP3    H224186   2.891   0.082   8.118  1.0200  1.1987  1.1597
  851TIP3   OH224187   2.093   4.364   8.837 -0.7036  0.1673  0.1270
  851TIP3    H124188   2.121   4.425   8.905  0.9622  1.6061 -1.7112
  851TIP3    H224189   2.173   4.344   8.788 -2.2845  2.8124 -4.1532
  852TIP3   OH224190   3.498   3.928   2.908  0.5656  0.3259 -0.2800
  852TIP3    H124191   3.519   3.862   2.973 -0.3864 -2.8248 -2.8969
  852TIP3    H224192   3.580   3.943   2.861  0.5445  0.1312 -0.3813
  853TIP3   OH224193   0.985   1.281   8.730  0.2749 -0.0433  0.2979
  853TIP3    H124194   0.895   1.303   8.754  0.2220  0.8425 -0.6249
  853TIP3    H224195   0.988   1.294   8.635  1.7951  1.5616  0.5223
  854TIP3   OH224196   3.273   3.022   1.354  0.1792 -0.4641 -0.8868
  854TIP3    H124197   3.359   3.033   1.394 -0.4968  0.7463  0.3183
  854TIP3    H224198   3.258   3.103   1.306 -0.9100  0.0365  0.2203
  855TIP3   OH224199   4.580   6.034   8.096 -0.3459 -0.8810 -0.0621
  855TIP3    H124200   4.510   6.070   8.151 -0.1457 -2.1790  1.0749
  855TIP3    H224201   4.569   5.939   8.102  0.6036 -1.0742 -1.0899
  856TIP3   OH224202   2.433   3.001   0.916 -0.3233  0.0539  0.4685
  856TIP3    H124203   2.497   3.029   0.851 -0.0641  0.2445  0.8032
  856TIP3    H224204   2.360   3.062   0.906  0.8280  1.8320  2.1768
  857TIP3   OH224205   1.757   4.032   1.209 -0.0833 -0.3625 -0.2051
  857TIP3    H124206   1.672   4.042   1.252  0.4208  0.7527  0.5698
  857TIP3    H224207   1.768   3.937   1.202 -0.1950 -0.6208  2.1607
  858TIP3   OH224208   5.282   4.173   9.067  0.0088 -0.0463 -0.0459
  858TIP3    H124209   5.360   4.209   9.027 -0.7436  0.1859 -1.3751
  858TIP3    H224210   5.314   4.110   9.132  1.2956  1.2435  0.6198
  859TIP3   OH224211   5.002   3.809   8.348  0.3232 -0.2096 -0.3890
  859TIP3    H124212   4.993   3.714   8.361 -1.1680 -0.1717 -0.9876
  859TIP3    H224213   4.944   3.848   8.413  0.6755  0.2820 -0.3707
  860TIP3   OH224214   1.340   3.030   2.352 -0.2988  0.7541  0.0976
  860TIP3    H124215   1.382   3.055   2.271  1.7086 -0.2946  0.7511
  860TIP3    H224216   1.412   3.007   2.411 -1.6617 -3.6744  0.4633
  861TIP3   OH224217   1.749   5.712   0.056 -0.2259 -0.0297 -0.4107
  861TIP3    H124218   1.692   5.635   0.057  0.5832 -0.6790 -1.4575
  861TIP3    H224219   1.765   5.732   0.148 -1.7147 -0.1453 -0.1107
  862TIP3   OH224220   2.416   6.288   8.754  0.5376  0.6812 -0.4229
  862TIP3    H124221   2.498   6.250   8.722  1.8487  2.4807  0.6540
  862TIP3    H224222   2.371   6.215   8.798  2.4264  0.0730  0.5867
  863TIP3   OH224223   3.392   3.694   0.061 -0.2010  0.3468 -0.0180
  863TIP3    H124224   3.323   3.756   0.084  0.2983  0.1093  2.3531
  863TIP3    H224225   3.350   3.631   0.002 -2.4703 -0.6448  2.4734
  864TIP3   OH224226   2.147   2.815   1.757 -0.0524 -0.2099 -0.4411
  864TIP3    H124227   2.122   2.861   1.837  1.5850  0.6600 -0.3960
  864TIP3    H224228   2.135   2.722   1.779  1.4350 -0.0659  1.2377
  865TIP3   OH224229   5.117   2.238   0.511  0.2425 -0.2490 -0.2798
  865TIP3    H124230   5.167   2.300   0.564 -1.3669  1.5563 -0.7459
  865TIP3    H224231   5.163   2.237   0.427 -0.2363  1.0953 -0.5809
  866TIP3   OH224232   3.187   3.481   0.360 -0.3051 -0.2218 -1.0345
  866TIP3    H124233   3.274   3.516   0.378 -0.1072 -0.4543 -1.5192
  866TIP3    H224234   3.154   3.454   0.446  0.5738 -1.2000 -0.9877
  867TIP3   OH224235   0.233   2.649   2.101 -0.4310  0.3682 -0.3119
  867TIP3    H124236   0.283   2.686   2.174  0.0182  0.6096 -0.7417
  867TIP3    H224237   0.299   2.614   2.042 -0.8337 -1.2364  0.1273
  868TIP3   OH224238   2.710   3.229   0.944 -0.1758  0.1762 -0.3333
  868TIP3    H124239   2.695   3.202   1.034 -0.1113  2.2012  0.3305
  868TIP3    H224240   2.695   3.149   0.892  1.4046 -1.4528  1.5602
  869TIP3   OH224241   1.132   4.081   1.256  0.0040  0.4177 -0.0256
  869TIP3    H124242   1.201   4.038   1.306 -0.4790 -1.2846 -0.7556
  869TIP3    H224243   1.172   4.098   1.170 -0.6677 -1.3248 -0.7344
  870TIP3   OH224244   2.910   2.002   1.849  0.1109  0.1916 -0.5601
  870TIP3    H124245   2.839   1.978   1.789  0.1302  0.4269 -0.6792
  870TIP3    H224246   2.949   2.080   1.809 -0.2228  0.6718  0.0359
  871TIP3   OH224247   1.635   4.748   7.988 -0.4643  0.1031  0.3442
  871TIP3    H124248   1.702   4.744   8.056  2.0168 -0.3230 -1.9470
  871TIP3    H224249   1.600   4.837   7.994  1.7440  1.0174  0.3974
  872TIP3   OH224250   5.379   1.023   9.157 -0.9274  0.4224  0.1818
  872TIP3    H124251   5.307   0.979   9.112 -0.2935 -0.3404 -0.1005
  872TIP3    H224252   5.433   1.060   9.087  0.5968 -1.5970  0.2040
  873TIP3   OH224253   0.062   5.807   0.039  0.1043 -0.1200  0.5107
  873TIP3    H124254   0.081   5.865  -0.035 -0.4268 -0.7128 -0.1100
  873TIP3    H224255   0.030   5.726  -0.002 -0.7792 -0.2415  1.3999
  874TIP3   OH224256   0.298   3.907   1.157  0.2088 -0.2143  0.4348
  874TIP3    H124257   0.389   3.937   1.159  0.8224 -1.6955 -1.7659
  874TIP3    H224258   0.254   3.967   1.097  0.5004 -1.2791 -0.8836
  875TIP3   OH224259   1.079   3.101   1.496 -0.0252  0.5159  0.3160
  875TIP3    H124260   0.993   3.064   1.477  0.0910 -0.0097  0.7931
  875TIP3    H224261   1.134   3.071   1.424  0.0498 -0.1911  0.6573
  876TIP3   OH224262   3.678   4.435   8.465 -0.2085  0.0579 -0.4253
  876TIP3    H124263   3.641   4.422   8.378  1.0096  0.0282 -0.9539
  876TIP3    H224264   3.773   4.442   8.451 -0.0281  0.5167  0.8430
  877TIP3   OH224265   2.947   3.389   8.899  0.3010 -0.1893 -0.2432
  877TIP3    H124266   2.933   3.477   8.864 -0.8191  1.5320  3.9241
  877TIP3    H224267   3.041   3.375   8.894  0.4641  1.0892 -1.2030
  878TIP3   OH224268   2.667   1.931   2.512  0.1712 -0.2767  0.2689
  878TIP3    H124269   2.574   1.946   2.532 -0.5362 -2.6278 -0.8290
  878TIP3    H224270   2.713   1.999   2.561 -2.2972  3.7987 -2.3960
  879TIP3   OH224271   0.753   3.053   7.995  0.5152 -0.2200 -0.0565
  879TIP3    H124272   0.688   3.087   7.933 -0.3940  1.6272  1.7959
  879TIP3    H224273   0.821   3.016   7.939 -0.0219  1.7516 -2.1934
  880TIP3   OH224274   2.598   2.426   8.449  0.2553  0.8975  0.7299
  880TIP3    H124275   2.658   2.500   8.457  0.0435  1.1011  0.4832
  880TIP3    H224276   2.516   2.465   8.419  0.4158  0.4513 -0.3498
  881TIP3   OH224277   0.272   4.236   0.248  0.5284 -0.2067  0.7557
  881TIP3    H124278   0.217   4.172   0.202 -0.0184  1.4959 -1.1166
  881TIP3    H224279   0.340   4.259   0.185  1.9481 -0.4278  2.1566
  882TIP3   OH224280   4.315   3.327   1.608 -0.1794 -0.1484 -0.2601
  882TIP3    H124281   4.353   3.279   1.534 -0.8564 -1.4694  0.2082
  882TIP3    H224282   4.238   3.371   1.571 -0.7474 -1.1307 -0.2843
  883TIP3   OH224283   5.116   4.588   2.511 -0.3382 -0.5008  0.2796
  883TIP3    H124284   5.043   4.614   2.566 -0.4420 -0.2364  0.0155
  883TIP3    H224285   5.175   4.541   2.571  0.2347  0.9981  0.9520
  884TIP3   OH224286   3.451   5.744   7.645  0.4478 -0.2707 -0.2136
  884TIP3    H124287   3.459   5.722   7.553 -0.5342  1.5423 -0.7862
  884TIP3    H224288   3.415   5.665   7.686  4.0339 -2.3552 -0.6443
  885TIP3   OH224289   5.946   5.107   8.077 -0.5149  0.0507 -0.0409
  885TIP3    H124290   5.983   5.068   7.998 -0.5015  0.8864 -0.4599
  885TIP3    H224291   6.018   5.156   8.116 -0.6698  0.0976  0.1913
  886TIP3   OH224292   4.621   4.255   8.109 -0.0956 -0.0511 -0.0855
  886TIP3    H124293   4.563   4.298   8.046 -0.9814  0.1126  0.8248
  886TIP3    H224294   4.588   4.165   8.113  0.8851 -0.4757 -0.9387
  887TIP3   OH224295   2.933   6.047   0.386  0.0291  0.2259  0.7298
  887TIP3    H124296   2.978   6.129   0.405  1.0392  0.6955 -2.8805
  887TIP3    H224297   2.877   6.068   0.311 -1.3433 -1.8979  1.0911
  888TIP3   OH224298   1.078   6.041   0.978 -0.7137  0.2186 -0.0362
  888TIP3    H124299   1.080   5.946   0.967 -0.3319  0.1922  0.2744
  888TIP3    H224300   0.998   6.057   1.029 -0.1630 -0.0414  0.9326
  889TIP3   OH224301   2.050   4.060   0.553 -0.3002 -0.6541 -0.0210
  889TIP3    H124302   1.996   4.004   0.496 -1.8218  1.4005 -0.7133
  889TIP3    H224303   2.013   4.049   0.640  0.9308 -2.4661  0.3416
  890TIP3   OH224304   1.601   2.081   2.134 -0.1249  0.0654  0.7260
  890TIP3    H124305   1.638   2.012   2.189  1.9985  0.3223 -0.2881
  890TIP3    H224306   1.647   2.161   2.160 -0.2517  0.4921 -0.2962
  891TIP3   OH224307   3.765   5.440   8.874  0.3132 -0.1397 -0.1507
  891TIP3    H124308   3.793   5.352   8.847 -0.4143 -0.8508  1.2604
  891TIP3    H224309   3.832   5.469   8.935  0.7793  0.4920 -0.9458
  892TIP3   OH224310   0.681   5.820   0.792  0.4067 -0.7786 -0.0993
  892TIP3    H124311   0.627   5.895   0.768  0.1006 -0.9495  0.0534
  892TIP3    H224312   0.769   5.843   0.762  0.1563 -0.7122 -0.8080
  893TIP3   OH224313   3.866   0.984   7.886 -0.4674 -0.2697  0.5749
  893TIP3    H124314   3.890   0.904   7.933  0.6673 -0.0028  0.4661
  893TIP3    H224315   3.900   0.971   7.797 -0.5161  0.2230  0.4796
  894TIP3   OH224316   0.184   3.849   2.451 -0.1298  0.1514  0.6216
  894TIP3    H124317   0.172   3.769   2.400  1.2750 -1.1332  2.1936
  894TIP3    H224318   0.108   3.903   2.428 -0.4053 -1.0180 -1.5299
  895TIP3   OH224319   3.723   3.525   3.204  0.5169 -0.2346 -0.4659
  895TIP3    H124320   3.786   3.524   3.277  1.1808 -2.1992 -1.0105
  895TIP3    H224321   3.643   3.489   3.242 -0.9601  3.6536  0.6517
  896TIP3   OH224322   2.797   3.123   2.407 -0.1424  0.4657  0.5599
  896TIP3    H124323   2.863   3.095   2.470  0.7132  0.0786 -0.4636
  896TIP3    H224324   2.751   3.042   2.384  1.5486  0.0060 -1.5185
  897TIP3   OH224325   4.807   3.299   7.066 -0.1020  0.4116  0.4480
  897TIP3    H124326   4.869   3.234   7.100 -0.3013  0.2690  0.5416
  897TIP3    H224327   4.721   3.268   7.097 -0.2431  0.4871  0.1352
  898TIP3   OH224328   3.796   1.777   0.203  0.1212 -0.5548  0.2747
  898TIP3    H124329   3.725   1.712   0.208  0.1154 -1.0140 -3.2530
  898TIP3    H224330   3.871   1.734   0.245 -0.7968 -1.4061  1.0932
  899TIP3   OH224331   1.023   2.086   7.872 -0.1551 -0.0325 -0.3209
  899TIP3    H124332   0.990   2.051   7.954 -2.8971  0.4600 -1.1098
  899TIP3    H224333   1.085   2.021   7.841 -0.6623 -1.2482  1.0983
  900TIP3   OH224334   0.562   5.920   1.419 -0.2054  0.0715 -0.2236
  900TIP3    H124335   0.627   5.988   1.437 -0.3040  0.0804  0.1191
  900TIP3    H224336   0.528   5.896   1.506  1.1551 -1.7514 -0.1363
  901TIP3   OH224337   4.356   2.790   1.342 -0.1988  0.1570 -0.2622
  901TIP3    H124338   4.451   2.775   1.347 -0.2656  0.0619  2.7731
  901TIP3    H224339   4.319   2.724   1.400 -2.0703  0.6683 -0.8227
  902TIP3   OH224340   0.015   3.283   6.989  0.0099 -0.1886 -0.6262
  902TIP3    H124341   0.045   3.368   7.023 -1.2646  0.0565 -0.0734
  902TIP3    H224342  -0.051   3.305   6.923 -2.5008 -0.7041  1.5516
  903TIP3   OH224343   3.023   0.540   8.966  0.4615  0.1295  0.0763
  903TIP3    H124344   3.068   0.581   8.892  0.8047 -1.9048 -0.9068
  903TIP3    H224345   3.091   0.524   9.031  0.4947  0.2647  0.0748
  904TIP3   OH224346   5.234   4.952   1.346  0.3602  0.1461 -0.4667
  904TIP3    H124347   5.259   4.923   1.258 -0.1002  1.1165 -0.9420
  904TIP3    H224348   5.148   4.914   1.361 -0.2231  1.1710 -1.0700
  905TIP3   OH224349   4.880   1.603   8.661  0.2036  0.0683 -0.1716
  905TIP3    H124350   4.824   1.677   8.635  1.5731  1.3604  0.4264
  905TIP3    H224351   4.843   1.528   8.614 -2.2415  0.7637  0.4559
  906TIP3   OH224352   3.687   1.691   2.727  0.0741  0.7876  0.3505
  906TIP3    H124353   3.668   1.629   2.798 -0.1513  1.3857  0.8225
  906TIP3    H224354   3.674   1.641   2.647 -0.4887  0.3326  0.7197
  907TIP3   OH224355   0.729   5.840   8.282 -0.1360  0.0520 -0.2169
  907TIP3    H124356   0.658   5.809   8.337 -0.7592  0.9111 -0.5046
  907TIP3    H224357   0.754   5.765   8.229 -0.3439 -0.4476  0.3871
  908TIP3   OH224358   0.161   1.548   0.231 -0.3957  0.0453  0.2716
  908TIP3    H124359   0.255   1.535   0.235 -0.2544  0.5934 -0.9353
  908TIP3    H224360   0.136   1.572   0.320  0.3907 -1.3894  0.9114
  909TIP3   OH224361   3.697   1.297   9.102 -0.0571  0.2818 -0.3016
  909TIP3    H124362   3.747   1.376   9.080  1.7411 -0.9258 -0.8299
  909TIP3    H224363   3.740   1.262   9.180 -1.6704  0.5048  0.7174
  910TIP3   OH224364   3.810   1.783   8.307 -0.2601  0.6291 -0.3521
  910TIP3    H124365   3.806   1.867   8.260  0.7015  0.5616 -0.5788
  910TIP3    H224366   3.786   1.718   8.240 -3.2295  0.8502  0.3590
  911TIP3   OH224367   2.328   6.690   0.608  0.3818  0.0217  0.0647
  911TIP3    H124368   2.238   6.656   0.610 -0.3071  1.7630  0.6709
  911TIP3    H224369   2.342   6.715   0.517  0.2817 -0.3112 -0.0444
  912TIP3   OH224370   6.677   4.053   2.398 -0.2836  0.6876  0.2944
  912TIP3    H124371   6.581   4.054   2.399 -0.3268  1.0529 -1.2133
  912TIP3    H224372   6.702   4.141   2.427 -0.4737  1.1097 -0.7464
  913TIP3   OH224373   0.067   4.284   8.884  0.5912  0.3077 -0.7551
  913TIP3    H124374   0.102   4.209   8.931  0.9586  0.9787  0.0521
  913TIP3    H224375  -0.025   4.262   8.870 -0.3966  1.3102  2.9810
  914TIP3   OH224376   5.873   4.450   9.206  0.3962  0.4829  0.2100
  914TIP3    H124377   5.820   4.418   9.278  0.1121  0.4950  0.0089
  914TIP3    H224378   5.945   4.388   9.199 -0.0156  0.0166 -0.0180
  915TIP3   OH224379   4.492   6.556   7.952  0.1189 -0.2466 -0.0034
  915TIP3    H124380   4.452   6.564   7.866  1.4800  0.6381 -0.5941
  915TIP3    H224381   4.580   6.523   7.935 -0.1225 -1.6139  1.2025
  916TIP3   OH224382   5.905   2.819   1.706 -0.4242  0.4710 -0.2542
  916TIP3    H124383   5.991   2.858   1.723 -0.6944  1.6781 -1.4847
  916TIP3    H224384   5.923   2.748   1.644 -0.4702  1.8388 -1.9043
  917TIP3   OH224385   2.044   0.853   2.169  0.4349 -0.1304  0.5880
  917TIP3    H124386   2.084   0.922   2.116  0.0212 -0.6674 -0.4304
  917TIP3    H224387   1.974   0.818   2.115 -1.8294  1.1138  2.4901
  918TIP3   OH224388   6.043   6.357   2.193 -0.3539  0.1555  0.1218
  918TIP3    H124389   6.072   6.428   2.136 -2.0409 -0.2513 -1.3385
  918TIP3    H224390   5.972   6.395   2.245 -1.9322 -0.6362 -1.3530
  919TIP3   OH224391   1.784   5.051   6.681 -0.1726 -0.2549 -0.2237
  919TIP3    H124392   1.723   4.977   6.680  0.8058 -1.3038  3.4417
  919TIP3    H224393   1.742   5.116   6.738  2.2072 -1.3011  3.0168
  920TIP3   OH224394   2.939   2.181   2.379  0.3881 -0.5045  0.0772
  920TIP3    H124395   2.868   2.239   2.351 -0.3219 -0.7979  1.2087
  920TIP3    H224396   2.910   2.094   2.352  0.8513 -0.5084 -0.4454
  921TIP3   OH224397   0.791   5.815   0.428 -0.2244  0.7641  0.3260
  921TIP3    H124398   0.863   5.753   0.415 -0.6584  0.8212 -3.5801
  921TIP3    H224399   0.812   5.860   0.509  2.9322 -0.8037  0.5162
  922TIP3   OH224400   3.294   0.049   1.488  0.3243 -0.2874 -0.4054
  922TIP3    H124401   3.341   0.090   1.415  0.4025  0.8734  0.2887
  922TIP3    H224402   3.203   0.076   1.477  0.5609  1.0261  0.6803
  923TIP3   OH224403   6.571   5.356   7.645  0.0990  0.5036 -0.3130
  923TIP3    H124404   6.547   5.302   7.720  0.0974  1.2397  0.2259
  923TIP3    H224405   6.564   5.297   7.570 -0.7173 -0.0229  0.1598
  924TIP3   OH224406   6.042   4.442   7.333  0.0606 -0.0780  0.6148
  924TIP3    H124407   6.017   4.406   7.248  0.9300 -0.7253  0.6241
  924TIP3    H224408   5.967   4.423   7.390 -2.4651  4.0024 -0.8911
  925TIP3   OH224409   6.362   0.448   2.086 -0.0642 -0.3833 -0.5677
  925TIP3    H124410   6.344   0.440   1.992 -0.5424  1.8134 -0.7083
  925TIP3    H224411   6.453   0.420   2.095 -0.0132 -0.6269 -1.6935
  926TIP3   OH224412   2.700   1.881   1.727 -0.0322  0.0973 -0.2882
  926TIP3    H124413   2.671   1.797   1.763  3.0728 -1.3634 -0.7646
  926TIP3    H224414   2.747   1.857   1.646  2.9701  1.9271  0.7482
  927TIP3   OH224415   4.954   5.151   8.853  0.0486  0.6882  0.3430
  927TIP3    H124416   4.946   5.056   8.852 -1.5695  0.7932  0.1902
  927TIP3    H224417   4.957   5.174   8.945 -2.8842  0.6500  0.5482
  928TIP3   OH224418   6.588   0.074   1.631  0.0511 -0.2259  0.3442
  928TIP3    H124419   6.682   0.057   1.637  0.5527  1.9606 -0.3195
  928TIP3    H224420   6.562   0.101   1.719  0.6147  1.4561  0.0434
  929TIP3   OH224421   0.493   2.541   8.695 -0.0191 -0.7638 -0.0655
  929TIP3    H124422   0.444   2.576   8.620  0.9593 -1.5497 -1.1200
  929TIP3    H224423   0.478   2.604   8.765 -2.6790 -1.0631 -0.2610
  930TIP3   OH224424   0.707   2.116   1.722  0.2421 -0.1174  0.4121
  930TIP3    H124425   0.800   2.111   1.745  0.1298 -1.7697  0.6427
  930TIP3    H224426   0.671   2.032   1.750 -1.6450  1.0358  1.6236
  931TIP3   OH224427   2.588   4.907   9.181  0.1913 -0.2441 -0.0132
  931TIP3    H124428   2.583   4.945   9.268  0.3967  1.4291 -0.6826
  931TIP3    H224429   2.562   4.816   9.192 -0.5241  0.1316  1.6575
  932TIP3   OH224430   1.861   6.661   2.135  0.3048  0.3795 -0.1078
  932TIP3    H124431   1.946   6.706   2.130 -0.5275  2.1115  0.4170
  932TIP3    H224432   1.860   6.623   2.223  0.5145  0.3980 -0.0962
  933TIP3   OH224433   3.675   3.173   0.450 -0.3237  0.3685 -0.1099
  933TIP3    H124434   3.593   3.207   0.413 -1.1369  0.4599  1.6797
  933TIP3    H224435   3.729   3.154   0.374 -2.5148 -0.9858 -1.4219
  934TIP3   OH224436   2.933   2.102   7.529  0.0993  0.4358  0.2595
  934TIP3    H124437   2.972   2.018   7.503  0.4939  0.0983  1.8446
  934TIP3    H224438   3.003   2.147   7.576  0.2449  2.1534 -1.4537
  935TIP3   OH224439   2.218   6.457   1.083  0.3943  0.2461 -0.2326
  935TIP3    H124440   2.126   6.432   1.084 -0.1283  1.9853 -0.5999
  935TIP3    H224441   2.241   6.463   0.990  0.0207  2.5411 -0.2396
  936TIP3   OH224442   5.645   4.328   8.908 -0.0724 -0.6470  0.0192
  936TIP3    H124443   5.613   4.403   8.858  0.8744 -0.2545 -0.0010
  936TIP3    H224444   5.607   4.340   8.995  2.0237  1.2144  0.7580
  937TIP3   OH224445   5.061   3.296   8.628  0.0885 -0.5955  0.1979
  937TIP3    H124446   5.039   3.238   8.701 -0.7948 -0.8345 -0.2468
  937TIP3    H224447   5.148   3.329   8.649 -0.0811 -0.8008  1.2730
  938TIP3   OH224448   5.057   3.071   8.328 -0.6156 -0.5175  0.4294
  938TIP3    H124449   4.999   3.148   8.324  0.7581  0.5318 -0.3466
  938TIP3    H224450   5.069   3.046   8.236 -0.7505 -1.4372  0.6592
  939TIP3   OH224451   6.515   0.207   8.232  0.2895  0.3086  0.4196
  939TIP3    H124452   6.466   0.159   8.299 -0.4742 -2.4264 -1.9040
  939TIP3    H224453   6.459   0.204   8.154  1.7795  2.0303 -0.7981
  940TIP3   OH224454   2.698   0.628   2.381 -0.5758  0.0616 -0.3924
  940TIP3    H124455   2.665   0.579   2.457 -0.0120 -0.9371 -0.7791
  940TIP3    H224456   2.773   0.578   2.350  2.1760  2.8209  1.1440
  941TIP3   OH224457   2.442   2.488   1.443 -0.3086 -0.0399 -0.0851
  941TIP3    H124458   2.504   2.560   1.449 -0.9384  0.6275 -1.2744
  941TIP3    H224459   2.406   2.479   1.531  2.5987 -1.5118  1.0727
  942TIP3   OH224460   1.894   0.006   0.877  0.4158  0.2192  0.0623
  942TIP3    H124461   1.838   0.075   0.841  1.9995  2.6791  1.9683
  942TIP3    H224462   1.846  -0.027   0.952  0.2590  0.2635 -0.0178
  943TIP3   OH224463   3.336   5.903   1.558 -0.0962  0.1983  0.6221
  943TIP3    H124464   3.288   5.827   1.591 -0.7109  0.5379  0.5363
  943TIP3    H224465   3.344   5.962   1.633  0.6916 -0.0974  0.7774
  944TIP3   OH224466   4.902   2.081   0.864 -0.1852  0.3667  0.2662
  944TIP3    H124467   4.868   2.170   0.862 -1.3212 -0.0538  0.1089
  944TIP3    H224468   4.838   2.029   0.816  1.4064 -0.2515 -1.3362
  945TIP3   OH224469   2.332   5.055   2.423 -0.2261 -0.3618  0.3048
  945TIP3    H124470   2.391   5.127   2.446 -0.9124 -0.1951  1.6508
  945TIP3    H224471   2.348   4.989   2.491 -0.5468 -0.9365 -0.1677
  946TIP3   OH224472   6.438   0.964   0.190 -0.1019  0.7193 -0.3392
  946TIP3    H124473   6.527   0.937   0.164 -1.7042 -2.4802 -3.3559
  946TIP3    H224474   6.420   1.040   0.136  0.0057 -0.1499 -1.6569
  947TIP3   OH224475   5.854   1.994   2.406  0.7524  0.1919 -0.1745
  947TIP3    H124476   5.784   2.021   2.466 -0.7932  0.0007 -1.8154
  947TIP3    H224477   5.906   2.073   2.392  0.5828  0.4678  0.6819
  948TIP3   OH224478   2.417   0.058   7.283  0.1732  0.1153 -0.3399
  948TIP3    H124479   2.442   0.149   7.296 -0.2271  0.2427 -0.4637
  948TIP3    H224480   2.322   0.057   7.290  0.2958 -0.6616  1.8884
  949TIP3   OH224481   5.459   3.602   1.910 -0.3251  0.5695  0.4588
  949TIP3    H124482   5.516   3.587   1.835 -2.9030 -2.6554 -1.1165
  949TIP3    H224483   5.400   3.673   1.882 -0.5676  0.1357 -0.1519
  950TIP3   OH224484   0.565   0.883   0.466 -0.4004 -0.1983  0.6025
  950TIP3    H124485   0.528   0.799   0.439 -1.3300  0.5130 -0.4661
  950TIP3    H224486   0.635   0.899   0.403  0.8398 -0.8739  1.7593
  951TIP3   OH224487   2.113   4.158   1.572 -0.1425 -0.2770 -0.9395
  951TIP3    H124488   2.106   4.101   1.495 -3.0626 -0.2022 -0.8254
  951TIP3    H224489   2.107   4.247   1.536 -0.9568 -0.2284 -0.7152
  952TIP3   OH224490   4.333   0.108   1.929 -0.5280 -0.2365 -0.3249
  952TIP3    H124491   4.271   0.163   1.977 -1.4186 -0.6366 -0.9941
  952TIP3    H224492   4.304   0.113   1.838 -0.3790 -1.4832 -0.4547
  953TIP3   OH224493   5.550   4.724   7.214  0.3310 -0.1627  0.3103
  953TIP3    H124494   5.503   4.641   7.202 -1.7631  0.6952  1.8342
  953TIP3    H224495   5.640   4.704   7.192 -0.3901 -2.4439 -0.8902
  954TIP3   OH224496   6.231   4.088   8.934  0.2709 -0.2314  0.1690
  954TIP3    H124497   6.233   3.997   8.964  0.7352 -1.0131 -2.0403
  954TIP3    H224498   6.177   4.085   8.854 -0.1695  1.5440  0.3713
  955TIP3   OH224499   1.072   0.416   8.170  0.0227 -0.7684 -0.1544
  955TIP3    H124500   1.065   0.330   8.128 -2.0331 -0.1318 -1.2647
  955TIP3    H224501   0.996   0.420   8.229  1.3796 -0.5719  1.6569
  956TIP3   OH224502   1.945   2.338   2.669  0.4416 -0.1917 -0.0197
  956TIP3    H124503   1.999   2.313   2.743  1.5156 -0.6222 -0.9127
  956TIP3    H224504   1.855   2.320   2.697  0.9252 -1.7374  0.6624
  957TIP3   OH224505   0.426   5.989   1.818 -0.1812  0.5816 -0.2547
  957TIP3    H124506   0.350   6.046   1.811 -1.1847 -0.4943  1.2975
  957TIP3    H224507   0.456   6.000   1.908  0.9224  0.2459 -0.5616
  958TIP3   OH224508   2.426   6.397   8.497 -0.2824  0.0056 -0.8304
  958TIP3    H124509   2.506   6.345   8.487  0.1529  0.5416 -0.2309
  958TIP3    H224510   2.373   6.348   8.560 -0.8464 -0.8210 -1.9129
  959TIP3   OH224511   5.763   2.280   8.551 -0.0960 -0.3250  0.4656
  959TIP3    H124512   5.752   2.274   8.646 -0.4948  1.0106  0.5196
  959TIP3    H224513   5.828   2.350   8.539 -0.0004 -0.5293 -0.2436
  960TIP3   OH224514   3.899   5.267   1.870  0.6680  1.1288 -0.2572
  960TIP3    H124515   3.845   5.337   1.833  0.3423  0.5641 -0.8690
  960TIP3    H224516   3.969   5.255   1.807  1.5658  1.8959  0.5629
  961TIP3   OH224517   6.075   0.633   9.049  0.5883  0.6454  0.5316
  961TIP3    H124518   6.038   0.556   9.094 -0.9758  0.7782 -0.4603
  961TIP3    H224519   6.159   0.602   9.015 -0.1511 -0.7395 -0.1177
  962TIP3   OH224520   0.470   5.335   2.509 -0.3911 -0.4058  0.0854
  962TIP3    H124521   0.451   5.399   2.440  0.7712 -0.9443 -0.7871
  962TIP3    H224522   0.554   5.364   2.546 -0.6930 -0.4847  0.8427
  963TIP3   OH224523   6.528   4.278   7.542  0.4599  0.4353 -0.0270
  963TIP3    H124524   6.499   4.310   7.456  0.3849  1.0303  0.2135
  963TIP3    H224525   6.447   4.273   7.593  0.3761 -0.7733 -0.2493
  964TIP3   OH224526   1.098   5.324   2.227  0.1631  0.0537 -0.1661
  964TIP3    H124527   1.114   5.289   2.314  0.8218  0.2450 -0.2021
  964TIP3    H224528   1.161   5.279   2.170  0.9192  1.1617 -0.2353
  965TIP3   OH224529   6.584   5.058   0.876 -0.6013  0.5055  0.0207
  965TIP3    H124530   6.662   5.060   0.931  0.3519  2.1037 -1.2824
  965TIP3    H224531   6.512   5.081   0.935  0.3916  2.2635  0.6326
  966TIP3   OH224532   2.108   2.476   2.086  0.0862  0.0263  0.3145
  966TIP3    H124533   2.077   2.388   2.064 -0.5349 -0.0535  1.4456
  966TIP3    H224534   2.031   2.522   2.119  0.2851  1.1851 -0.7668
  967TIP3   OH224535   0.095   6.030   8.395 -0.1804  0.3680 -0.4482
  967TIP3    H124536   0.095   6.032   8.491  1.2145  2.7636 -0.4172
  967TIP3    H224537   0.164   6.092   8.370  0.9525 -1.7527 -3.0181
  968TIP3   OH224538   3.776   0.844   0.295 -0.5492 -0.1576  0.3430
  968TIP3    H124539   3.848   0.904   0.314  0.1058 -1.1157  0.9787
  968TIP3    H224540   3.777   0.782   0.368 -0.3305 -1.7496 -0.9850
  969TIP3   OH224541   2.302   1.621   2.440 -0.4828  0.3186 -0.0042
  969TIP3    H124542   2.240   1.677   2.485 -2.0523 -0.2190 -1.3837
  969TIP3    H224543   2.348   1.679   2.379 -0.6576  0.4630  0.0024
  970TIP3   OH224544   5.834   6.144   2.893 -0.1938 -0.0360 -0.1973
  970TIP3    H124545   5.776   6.083   2.848 -2.0101  2.0726 -0.8431
  970TIP3    H224546   5.844   6.107   2.981 -2.0250 -0.7757 -0.2603
  971TIP3   OH224547   1.667   1.079   1.231 -1.2044 -0.2341 -0.0979
  971TIP3    H124548   1.757   1.048   1.217  0.2530  2.1153  2.8463
  971TIP3    H224549   1.623   1.006   1.275  0.2749 -0.3704  1.2506
  972TIP3   OH224550   1.066   1.011   1.812 -0.5746  0.0600  0.4438
  972TIP3    H124551   1.135   1.053   1.863 -0.7841  1.2501 -0.2313
  972TIP3    H224552   0.994   1.073   1.811 -1.2496 -0.7033  0.2018
  973TIP3   OH224553   2.138   4.874   0.819  0.0753 -0.2678  0.4407
  973TIP3    H124554   2.116   4.805   0.757  1.1350 -0.4705  0.2767
  973TIP3    H224555   2.062   4.878   0.877 -0.3237 -1.0522 -0.0021
  974TIP3   OH224556   0.875   1.378   1.343 -0.1811 -0.0422 -0.1278
  974TIP3    H124557   0.883   1.472   1.328  0.8524 -0.3613 -1.7489
  974TIP3    H224558   0.960   1.351   1.376 -0.8849 -0.2277  1.6727
  975TIP3   OH224559   4.717   1.682   8.041 -0.3837 -0.2216  0.0031
  975TIP3    H124560   4.720   1.735   7.962  1.0791  0.8307  0.7222
  975TIP3    H224561   4.786   1.617   8.030  1.0466  1.0361  1.1124
  976TIP3   OH224562   5.052   5.395   1.932 -0.3012 -0.1045  0.4825
  976TIP3    H124563   4.960   5.415   1.944 -0.6455 -0.5260 -1.1585
  976TIP3    H224564   5.066   5.314   1.982 -0.4418  0.7399  1.9199
  977TIP3   OH224565   5.669   4.752   2.659 -0.2710  0.0394  0.1108
  977TIP3    H124566   5.748   4.723   2.705  0.2722  0.1121 -0.7431
  977TIP3    H224567   5.609   4.677   2.664 -0.0772 -0.0859  0.6000
  978TIP3   OH224568   5.222   1.249   2.273  1.0106 -0.2717  0.1845
  978TIP3    H124569   5.147   1.276   2.327 -1.8105 -1.0759 -3.0222
  978TIP3    H224570   5.271   1.189   2.329  0.0802  1.2552  2.8549
  979TIP3   OH224571   2.700   5.794   8.066  0.5010  0.0601 -0.1764
  979TIP3    H124572   2.685   5.855   7.994  1.8706 -0.6543 -1.1002
  979TIP3    H224573   2.645   5.828   8.138 -0.5775  1.0112 -1.4020
  980TIP3   OH224574   5.691   5.164   7.481  0.0247 -0.2183  0.2864
  980TIP3    H124575   5.733   5.108   7.546  2.5204  0.3630 -0.6740
  980TIP3    H224576   5.660   5.104   7.413  0.0198 -0.6245  0.6452
  981TIP3   OH224577   4.103   1.673   0.026 -0.0905 -0.2332 -0.0480
  981TIP3    H124578   4.163   1.675  -0.049  2.4784 -2.5490  1.7401
  981TIP3    H224579   4.136   1.740   0.085 -0.7310  0.0820 -0.0452
  982TIP3   OH224580   5.875   5.883   0.978 -0.1571 -0.2777 -0.2606
  982TIP3    H124581   5.930   5.807   0.996 -0.0818 -0.4287 -1.0959
  982TIP3    H224582   5.899   5.947   1.046 -0.7340 -1.2469  0.8842
  983TIP3   OH224583   2.776   2.871   1.413 -0.7686 -0.3201 -0.4085
  983TIP3    H124584   2.821   2.927   1.477  0.3902 -0.6016 -0.9518
  983TIP3    H224585   2.835   2.797   1.401 -1.5650 -0.8944 -0.8740
  984TIP3   OH224586   6.298   1.426   2.003 -0.0026  0.2234  0.3782
  984TIP3    H124587   6.243   1.502   1.986 -0.0541  0.1487  0.1991
  984TIP3    H224588   6.243   1.367   2.054  0.2693  0.5978  1.1163
  985TIP3   OH224589   0.850   5.116   8.698 -0.1279 -0.0655 -0.1286
  985TIP3    H124590   0.938   5.145   8.673 -1.2491  1.2134 -3.1079
  985TIP3    H224591   0.864   5.039   8.752  2.8411  1.2385  1.1571
  986TIP3   OH224592   3.510   1.088   2.690  0.0534 -0.4606  0.5425
  986TIP3    H124593   3.564   1.049   2.759  0.0137 -0.0797  0.7915
  986TIP3    H224594   3.572   1.134   2.634  0.0519 -0.5147  0.4961
  987TIP3   OH224595   2.353   2.218   8.018 -0.1465 -0.3567  0.1930
  987TIP3    H124596   2.279   2.175   8.062 -1.4094 -0.0060 -1.4893
  987TIP3    H224597   2.358   2.176   7.932  0.6183  0.6939 -0.2966
  988TIP3   OH224598   2.900   2.715   1.164  0.3677  0.1543  0.2467
  988TIP3    H124599   2.987   2.748   1.187  0.5692 -0.5808  0.5611
  988TIP3    H224600   2.866   2.780   1.103  0.9754  0.6612  0.4307
  989TIP3   OH224601   6.356   6.398   2.062 -0.0810 -0.1400  0.2503
  989TIP3    H124602   6.411   6.355   1.997  0.3033 -1.1280  1.2006
  989TIP3    H224603   6.277   6.423   2.013 -0.9252 -3.1071 -0.1265
  990TIP3   OH224604   6.197   5.197   8.169  0.5733 -0.0801  0.1762
  990TIP3    H124605   6.226   5.130   8.231  2.2259  1.0400  0.6833
  990TIP3    H224606   6.185   5.275   8.222  1.7444  0.8304 -0.8257
  991TIP3   OH224607   1.031   3.266   8.993 -0.9414 -0.1645  0.3886
  991TIP3    H124608   1.082   3.216   9.057 -1.4904 -2.3367 -0.7727
  991TIP3    H224609   1.081   3.260   8.912 -1.7891 -0.1284 -0.1533
  992TIP3   OH224610   5.230   1.439   8.136  0.4393  0.0852 -0.1246
  992TIP3    H124611   5.243   1.362   8.079  3.2151 -0.1288  0.6377
  992TIP3    H224612   5.236   1.513   8.076  0.8511 -0.2208 -0.4791
  993TIP3   OH224613   4.931   6.079   7.054 -0.1976 -0.1719 -0.6741
  993TIP3    H124614   4.984   6.102   6.977 -0.1153 -0.9685 -0.8636
  993TIP3    H224615   4.971   6.129   7.126  1.5919 -1.6056 -0.5757
  994TIP3   OH224616   2.096   6.585   2.575  0.5088 -0.0600  0.0031
  994TIP3    H124617   2.170   6.540   2.533 -0.1797  0.7443 -2.2250
  994TIP3    H224618   2.119   6.678   2.571 -0.1722  0.1219  0.2175
  995TIP3   OH224619   0.825   3.986   1.899 -0.4321  0.0174  0.9769
  995TIP3    H124620   0.883   4.048   1.942  0.4462 -0.1507  0.0726
  995TIP3    H224621   0.737   4.016   1.920 -0.0165  1.1488  1.1469
  996TIP3   OH224622   0.654   3.583   8.997  0.5773  0.4240 -0.2521
  996TIP3    H124623   0.600   3.635   8.937 -0.4138 -1.5574 -1.1650
  996TIP3    H224624   0.637   3.621   9.084  0.1374  1.7837 -0.9088
  997TIP3   OH224625   0.106   6.497   0.212  0.5573  0.0036  0.1353
  997TIP3    H124626   0.153   6.545   0.143 -1.8153  0.8263 -1.0172
  997TIP3    H224627   0.169   6.433   0.243  1.8454 -0.2145 -2.6175
  998TIP3   OH224628   0.503   4.386   2.140 -1.0702  0.3786 -0.3472
  998TIP3    H124629   0.432   4.340   2.186 -1.2400  1.4092  0.4794
  998TIP3    H224630   0.506   4.346   2.053 -0.1768 -2.2499  0.7826
  999TIP3   OH224631   6.431   1.613   2.194  0.6542 -0.1024 -0.0529
  999TIP3    H124632   6.366   1.610   2.265 -1.2849  0.8677 -1.6928
  999TIP3    H224633   6.393   1.559   2.125  1.8485  0.0999 -0.8846
 1000TIP3   OH224634   3.406   0.273   7.699  0.2761  0.0761  0.3639
 1000TIP3    H124635   3.486   0.282   7.647 -0.8057  1.0898 -1.2123
 1000TIP3    H224636   3.392   0.361   7.736 -0.7275  0.2406 -0.3647
 1001TIP3   OH224637   3.239   2.176   2.018 -0.3059 -0.6125 -0.1720
 1001TIP3    H124638   3.250   2.147   2.108 -0.8526 -0.8219 -0.1705
 1001TIP3    H224639   3.320   2.223   1.998 -0.6450  0.4572  0.8105
 1002TIP3   OH224640   6.127   3.486   0.356 -0.8492  0.9785  1.0227
 1002TIP3    H124641   6.091   3.561   0.404  0.4117  1.5028  1.1721
 1002TIP3    H224642   6.204   3.520   0.311 -0.6770 -0.0604  0.4850
 1003TIP3   OH224643   0.547   5.240   1.536  0.3669 -0.4439  0.5912
 1003TIP3    H124644   0.496   5.306   1.490 -0.6301 -0.8981  1.0246
 1003TIP3    H224645   0.606   5.290   1.592 -2.7311  0.1961  3.5656
 1004TIP3   OH224646   2.425   2.893   7.517  0.0305 -0.5377 -0.3813
 1004TIP3    H124647   2.513   2.898   7.480 -0.4593  2.3402 -1.4164
 1004TIP3    H224648   2.366   2.897   7.441 -0.9525  1.7463  0.3791
 1005TIP3   OH224649   5.809   0.707   1.274 -0.5017 -0.1577 -0.5970
 1005TIP3    H124650   5.779   0.776   1.333 -2.4229 -2.1486  0.9255
 1005TIP3    H224651   5.733   0.687   1.219 -1.4276 -3.5347  1.5696
 1006TIP3   OH224652   1.927   4.165   7.828  0.5581  0.6153  0.2569
 1006TIP3    H124653   1.996   4.133   7.885 -0.8039 -2.1088  0.5462
 1006TIP3    H224654   1.856   4.102   7.839 -0.5060  1.0710 -2.9327
 1007TIP3   OH224655   0.422   0.863   7.318 -0.0465  0.2724  0.0376
 1007TIP3    H124656   0.377   0.816   7.247  0.3163  0.0213 -0.0322
 1007TIP3    H224657   0.354   0.915   7.359 -1.0337 -2.0636  1.6083
 1008TIP3   OH224658   1.590   1.616   0.130  0.0802 -0.1645 -0.4858
 1008TIP3    H124659   1.584   1.626   0.035 -0.2195 -0.9683 -0.5632
 1008TIP3    H224660   1.678   1.582   0.146  0.7157  1.4678 -0.3169
 1009TIP3   OH224661   3.523   5.895   1.097  0.5552  0.1400  0.3454
 1009TIP3    H124662   3.597   5.953   1.078  0.9127 -0.8615 -1.5573
 1009TIP3    H224663   3.561   5.808   1.103 -0.5283 -0.5718 -1.8210
 1010TIP3   OH224664   2.900   5.907   1.662 -0.2303 -0.1004  0.3381
 1010TIP3    H124665   2.888   5.975   1.595 -1.1713 -0.7274 -0.1487
 1010TIP3    H224666   2.873   5.948   1.744  2.9396  1.3914  0.7893
 1011TIP3   OH224667   4.353   1.645   1.546  0.6213  0.8195  0.1381
 1011TIP3    H124668   4.445   1.661   1.567  0.7605 -0.6031  0.7700
 1011TIP3    H224669   4.307   1.653   1.630  0.7488 -2.0115  0.5921
 1012TIP3   OH224670   3.632   4.689   0.737  0.6354 -0.1938  0.2995
 1012TIP3    H124671   3.653   4.734   0.820  1.4290  1.0178 -0.5264
 1012TIP3    H224672   3.591   4.757   0.683 -0.0391 -1.0236 -0.2602
 1013TIP3   OH224673   0.219   1.787   8.447 -0.6215  0.1132  0.7631
 1013TIP3    H124674   0.205   1.808   8.539 -2.2786  0.2362  0.5125
 1013TIP3    H224675   0.253   1.868   8.409 -0.2959  0.1772  1.1768
 1014TIP3   OH224676   1.287   6.010   0.621 -0.3469  0.3064  0.0219
 1014TIP3    H124677   1.371   5.963   0.627 -0.2576  0.2085 -1.6205
 1014TIP3    H224678   1.307   6.099   0.651  0.7128  0.6751 -1.6550
 1015TIP3   OH224679   1.512   5.003   2.800  0.2180  0.3382 -0.3010
 1015TIP3    H124680   1.488   5.091   2.771  0.3701  0.6759  0.5623
 1015TIP3    H224681   1.437   4.973   2.851 -1.0866 -1.2080 -2.9228
 1016TIP3   OH224682   1.976   2.919   1.970  0.2808 -0.1215 -0.1368
 1016TIP3    H124683   2.013   2.914   2.058 -0.3907 -0.8065  0.1112
 1016TIP3    H224684   1.924   2.839   1.960 -0.9632  0.7073 -0.5591
 1017TIP3   OH224685   1.049   0.690   8.096  0.2887  0.2060 -0.2874
 1017TIP3    H124686   1.040   0.594   8.097 -2.0171  0.3534  1.5789
 1017TIP3    H224687   1.046   0.714   8.189 -1.1814  2.2406 -0.8225
 1018TIP3   OH224688   3.978   6.507   8.482  0.1206 -0.0643 -0.2416
 1018TIP3    H124689   3.888   6.483   8.503  0.5817 -0.4714  1.3834
 1018TIP3    H224690   3.981   6.602   8.491 -0.2390 -0.0093 -0.6976
 1019TIP3   OH224691   3.786   3.031   8.173  0.0228 -0.0432 -0.0856
 1019TIP3    H124692   3.829   3.047   8.257 -0.4004  1.1336 -0.0801
 1019TIP3    H224693   3.783   2.936   8.166  1.3771 -0.1641  0.5553
 1020TIP3   OH224694   0.257   0.302   1.117 -0.6183 -0.3009  0.3846
 1020TIP3    H124695   0.207   0.382   1.100  0.5000  0.5753  1.0553
 1020TIP3    H224696   0.289   0.313   1.206  2.4367  0.1509 -0.6590
 1021TIP3   OH224697   2.258   1.018   1.050  0.2470 -0.3886 -0.0678
 1021TIP3    H124698   2.289   0.965   1.124  0.4906 -0.5174 -0.2603
 1021TIP3    H224699   2.182   0.971   1.017  1.7428 -1.8661 -1.6431
 1022TIP3   OH224700   5.092   0.011   9.207 -0.4425 -0.3773  0.7224
 1022TIP3    H124701   5.089   0.080   9.142  2.1738 -0.6797  0.1416
 1022TIP3    H224702   5.048  -0.063   9.166  2.3283 -1.0168 -1.4573
 1023TIP3   OH224703   2.790   2.771   8.906  0.9197 -0.5533  0.1025
 1023TIP3    H124704   2.702   2.740   8.886  1.2943  0.0456 -2.9744
 1023TIP3    H224705   2.794   2.773   9.001 -2.3410 -0.7044  0.3444
 1024TIP3   OH224706   1.215   3.065   0.236  0.1781  0.2100  0.4335
 1024TIP3    H124707   1.307   3.076   0.260  0.4983 -0.3429 -0.4896
 1024TIP3    H224708   1.172   3.040   0.318  0.9228  0.0812  0.7973
 1025TIP3   OH224709   2.904   5.021   7.547  0.2757 -0.5785  0.1137
 1025TIP3    H124710   2.906   4.963   7.472 -0.0218 -0.0676 -0.3017
 1025TIP3    H224711   2.813   5.019   7.577  0.2640 -0.3387  0.1022
 1026TIP3   OH224712   3.080   4.982   9.128 -0.1044  0.0430  0.0027
 1026TIP3    H124713   3.051   5.008   9.216  2.5993  1.3289  0.6158
 1026TIP3    H224714   3.024   5.033   9.069 -1.9506 -0.8192  0.9155
 1027TIP3   OH224715   6.497   0.184   8.772 -0.7740 -0.3972  0.0249
 1027TIP3    H124716   6.443   0.172   8.694 -1.0564  1.9336 -0.1928
 1027TIP3    H224717   6.435   0.185   8.845 -0.6453 -1.1400  0.1587
 1028TIP3   OH224718   3.625   6.120   8.331 -0.5452 -0.2773  0.0524
 1028TIP3    H124719   3.613   6.080   8.245  1.0391  1.1642 -0.9043
 1028TIP3    H224720   3.695   6.069   8.372  0.9075  0.9351 -0.8375
 1029TIP3   OH224721   4.379   3.525   0.916  0.2651 -0.0663 -0.2854
 1029TIP3    H124722   4.323   3.448   0.929  0.9212 -0.2485  1.8051
 1029TIP3    H224723   4.337   3.573   0.843 -1.8791 -0.8463  0.3449
 1030TIP3   OH224724   0.642   1.534   2.453  0.1111  0.4538  0.0514
 1030TIP3    H124725   0.626   1.482   2.374  1.3820  0.9719 -0.5706
 1030TIP3    H224726   0.581   1.608   2.445  0.8453  0.9834 -0.9297
 1031TIP3   OH224727   6.689   1.194   1.311 -0.9154  0.5479 -0.1080
 1031TIP3    H124728   6.686   1.211   1.217 -1.0234  0.0390 -0.2003
 1031TIP3    H224729   6.779   1.168   1.329 -0.8245  0.9140 -0.0183
 1032TIP3   OH224730   4.562   4.792   8.544  0.1035 -0.2536 -0.2011
 1032TIP3    H124731   4.649   4.783   8.505 -0.1716 -1.4471 -0.5934
 1032TIP3    H224732   4.511   4.721   8.503 -0.6026 -0.6054  1.2465
 1033TIP3   OH224733   3.586   3.158   8.025 -0.1209 -0.0000 -0.4015
 1033TIP3    H124734   3.646   3.116   8.086 -1.6683 -0.3779  0.8964
 1033TIP3    H224735   3.612   3.251   8.027  0.3802 -0.1454  0.1709
 1034TIP3   OH224736   1.424   5.980   0.951 -0.4847 -0.2581 -0.2870
 1034TIP3    H124737   1.434   6.065   0.908 -1.4409  0.6123  1.1264
 1034TIP3    H224738   1.478   5.987   1.030  0.3646 -1.4265 -0.7188
 1035TIP3   OH224739   4.471   2.262   1.206 -0.5118 -0.3951 -0.2216
 1035TIP3    H124740   4.465   2.321   1.131  0.9927  0.3452  0.2053
 1035TIP3    H224741   4.563   2.267   1.233 -0.9594 -0.8712  1.4903
 1036TIP3   OH224742   2.043   4.883   2.077 -0.4849  0.3917  0.3235
 1036TIP3    H124743   2.064   4.938   2.152  0.7010 -0.5865  0.7408
 1036TIP3    H224744   1.989   4.812   2.114  0.0995 -0.0922  0.2604
 1037TIP3   OH224745   0.813   3.204   8.231 -0.1952  0.2443  0.7291
 1037TIP3    H124746   0.769   3.166   8.155 -0.7162  1.0822  0.5909
 1037TIP3    H224747   0.894   3.154   8.240 -0.0040  0.3004 -0.5303
 1038TIP3   OH224748   1.605   1.587   1.502  0.3752 -0.2553  0.4585
 1038TIP3    H124749   1.623   1.539   1.582 -1.0050  0.5373  1.2900
 1038TIP3    H224750   1.685   1.635   1.484  0.6009 -0.1884  1.5663
 1039TIP3   OH224751   4.558   2.957   8.611  0.1665 -0.2071 -0.2837
 1039TIP3    H124752   4.519   2.872   8.590 -0.0205 -0.1667 -0.1021
 1039TIP3    H224753   4.578   2.952   8.704 -1.4374  0.5592  0.1482
 1040TIP3   OH224754   6.099   4.665   2.926  0.2683  0.4023  0.9757
 1040TIP3    H124755   6.152   4.586   2.917  0.7954  0.8424  0.1454
 1040TIP3    H224756   6.159   4.737   2.908 -0.4507  0.9454  0.6936
 1041TIP3   OH224757   5.007   1.045   0.013 -0.3752 -0.3445  0.1043
 1041TIP3    H124758   5.003   1.072   0.105 -1.6874 -2.2664  0.6793
 1041TIP3    H224759   5.008   0.949   0.017  0.5027 -0.4585 -1.8777
 1042TIP3   OH224760   3.388   5.760   8.116  0.1224  0.0408  0.2318
 1042TIP3    H124761   3.467   5.755   8.170 -1.4830  0.4426  2.7916
 1042TIP3    H224762   3.412   5.818   8.044  3.0294 -2.1985 -0.8050
 1043TIP3   OH224763   5.549   1.456   7.869  0.4567 -0.5155  0.0641
 1043TIP3    H124764   5.480   1.456   7.802  1.9502 -0.5810 -1.5245
 1043TIP3    H224765   5.536   1.538   7.916 -0.9722 -0.7317  0.1041
 1044TIP3   OH224766   4.790   5.325   1.898  0.8271 -0.3658  0.0128
 1044TIP3    H124767   4.840   5.244   1.891  0.6622 -0.3591 -1.8965
 1044TIP3    H224768   4.760   5.342   1.808 -0.7340  0.7986  0.6994
 1045TIP3   OH224769   0.244   0.368   9.079  0.5928  0.2080  0.2640
 1045TIP3    H124770   0.162   0.406   9.110  0.5894 -0.2885  0.8902
 1045TIP3    H224771   0.226   0.342   8.989  0.7771  2.2024 -0.4030
 1046TIP3   OH224772   2.650   2.450   1.866  0.0557 -0.0634  0.3245
 1046TIP3    H124773   2.700   2.531   1.855 -1.5252  0.9108 -0.0137
 1046TIP3    H224774   2.660   2.428   1.959  0.1246  0.7735  0.5197
 1047TIP3   OH224775   1.281   4.576   1.078 -0.3460  0.3238 -0.3526
 1047TIP3    H124776   1.239   4.569   1.164  0.7845 -0.7463  0.1435
 1047TIP3    H224777   1.328   4.494   1.068  0.1475  0.7490 -1.6800
 1048TIP3   OH224778   0.421   0.022   0.612  0.0882 -0.2331 -0.0523
 1048TIP3    H124779   0.420   0.098   0.670 -0.3320 -0.8573  0.7642
 1048TIP3    H224780   0.481   0.047   0.541 -1.4587  1.5944 -0.7927
 1049TIP3   OH224781   5.791   2.956   0.515  0.1345  0.2429  0.4801
 1049TIP3    H124782   5.751   3.038   0.544 -0.4434  0.3710 -0.6281
 1049TIP3    H224783   5.869   2.984   0.466 -1.0814  0.2969 -1.5689
 1050TIP3   OH224784   3.834   1.599   2.090 -0.1866 -0.4056  0.2642
 1050TIP3    H124785   3.796   1.574   2.174  1.9803 -0.5312  1.2676
 1050TIP3    H224786   3.789   1.544   2.026  0.0566 -2.3442  1.6810
 1051TIP3   OH224787   6.169   2.945   1.746 -0.2459  0.0501  0.3695
 1051TIP3    H124788   6.233   2.881   1.715 -0.5809  0.4940 -1.3298
 1051TIP3    H224789   6.213   3.029   1.737 -0.6745  0.2655  0.2700
 1052TIP3   OH224790   6.193   3.557   2.432 -0.0767 -0.4872  0.2969
 1052TIP3    H124791   6.161   3.467   2.439 -2.5110  0.3671  1.8781
 1052TIP3    H224792   6.199   3.587   2.523 -0.0471  1.1564 -0.2084
 1053TIP3   OH224793   1.941   0.379   3.342  0.5106  0.0909 -0.1021
 1053TIP3    H124794   2.007   0.425   3.394  0.4885  0.3960 -0.3391
 1053TIP3    H224795   1.888   0.449   3.304 -0.0386 -0.1547  0.2024
 1054TIP3   OH224796   2.378   6.040   0.465 -0.6009 -0.2537  0.4702
 1054TIP3    H124797   2.337   5.974   0.409 -0.6165  1.4403 -1.6651
 1054TIP3    H224798   2.322   6.117   0.457 -0.1807  0.2750  2.2680
 1055TIP3   OH224799   0.284   3.031   9.182 -0.3644 -0.4644 -0.2427
 1055TIP3    H124800   0.277   3.125   9.198 -3.8605 -0.5425 -0.6243
 1055TIP3    H224801   0.265   3.022   9.088  0.4773 -1.5368 -0.3254
 1056TIP3   OH224802   1.361   4.912   8.462  0.0085  0.7171  0.1393
 1056TIP3    H124803   1.306   4.941   8.534 -0.4312  0.9973 -0.2959
 1056TIP3    H224804   1.426   4.855   8.502 -1.9000 -1.4317  0.3787
 1057TIP3   OH224805   0.746   6.012   0.018  0.3050 -0.1534  0.1574
 1057TIP3    H124806   0.708   6.014  -0.070 -3.7019 -0.0387  1.6613
 1057TIP3    H224807   0.740   6.102   0.049 -2.2516 -0.7788  1.8419
 1058TIP3   OH224808   6.314   5.537   0.970 -0.4394  0.0542 -0.1394
 1058TIP3    H124809   6.290   5.630   0.967 -0.1062  0.1205 -1.9069
 1058TIP3    H224810   6.392   5.531   0.916  0.5548 -1.0104  1.3270
 1059TIP3   OH224811   0.652   5.555   1.875 -0.1742 -0.0674 -0.2112
 1059TIP3    H124812   0.671   5.467   1.907  0.4757  0.2368  0.2520
 1059TIP3    H224813   0.564   5.573   1.908  0.5983  0.3695  1.7556
 1060TIP3   OH224814   2.575   3.914   9.055  0.4477  0.1098  0.2976
 1060TIP3    H124815   2.621   3.986   9.097  0.6755 -0.6816  1.4684
 1060TIP3    H224816   2.645   3.855   9.026  0.2474 -0.0650  0.1639
 1061TIP3   OH224817   4.535   0.737   8.235  0.3476  0.3507 -0.3692
 1061TIP3    H124818   4.596   0.667   8.259 -0.3191 -0.4780 -1.0441
 1061TIP3    H224819   4.591   0.805   8.198  0.7544 -1.1785 -2.8222
 1062TIP3   OH224820   0.173   5.536   7.853  0.6567 -0.0077 -0.7504
 1062TIP3    H124821   0.237   5.608   7.849 -0.0701  0.7422  0.3414
 1062TIP3    H224822   0.117   5.559   7.927  0.1882 -1.5450 -0.6053
 1063TIP3   OH224823   5.072   0.922   2.122  0.1746  0.3116  0.3547
 1063TIP3    H124824   5.121   1.004   2.130  0.6478  0.3611 -2.1166
 1063TIP3    H224825   4.997   0.944   2.066  1.4536 -1.2767 -2.1953
 1064TIP3   OH224826   1.293   4.193   2.470  0.1600  0.1005  0.2361
 1064TIP3    H124827   1.255   4.277   2.442 -0.2923 -0.2777 -0.2958
 1064TIP3    H224828   1.379   4.217   2.504  0.8492  0.5833 -1.6821
 1065TIP3   OH224829   4.978   0.690   3.163  0.7208 -0.2412  0.4246
 1065TIP3    H124830   4.938   0.614   3.122 -0.8029  0.6515  0.2168
 1065TIP3    H224831   4.924   0.707   3.240 -1.3566  2.8817 -1.5293
 1066TIP3   OH224832   0.096   4.139   7.892 -0.8636  0.0076  0.4666
 1066TIP3    H124833   0.117   4.057   7.937  0.6778  0.2777  0.2944
 1066TIP3    H224834   0.012   4.122   7.849 -1.1303 -1.0881  1.3598
 1067TIP3   OH224835   2.847   0.395   8.618  0.2024 -0.0009  0.0782
 1067TIP3    H124836   2.834   0.489   8.626 -1.5164 -0.0144 -1.6566
 1067TIP3    H224837   2.912   0.386   8.549 -1.4407 -0.0197 -1.5721
 1068TIP3   OH224838   5.820   4.400   0.440  0.5508 -0.5432 -0.3005
 1068TIP3    H124839   5.788   4.331   0.498  1.9291 -1.8727 -1.0240
 1068TIP3    H224840   5.766   4.476   0.460  0.5592 -1.1289  2.2358
 1069TIP3   OH224841   2.707   0.863   2.869  0.2349 -0.2825 -0.1522
 1069TIP3    H124842   2.626   0.822   2.840 -0.0585 -1.4471  2.1144
 1069TIP3    H224843   2.687   0.957   2.871 -1.2287 -0.5957  0.8736
 1070TIP3   OH224844   4.415   0.501   7.901 -0.1631  0.7305  0.0613
 1070TIP3    H124845   4.344   0.535   7.956  1.0495 -0.2449  2.3942
 1070TIP3    H224846   4.474   0.575   7.889 -0.6232  1.0511 -0.2573
 1071TIP3   OH224847   5.879   1.734   2.565  0.0518 -0.1287  0.7216
 1071TIP3    H124848   5.786   1.743   2.544  0.1395 -0.0737  0.3490
 1071TIP3    H224849   5.888   1.775   2.651 -0.6898 -2.2070  1.8566
 1072TIP3   OH224850   2.806   6.387   2.310  0.2113 -0.0800  0.3869
 1072TIP3    H124851   2.825   6.437   2.231  2.0821 -0.6032  0.4540
 1072TIP3    H224852   2.852   6.434   2.380 -1.1376  0.1849  1.1261
 1073TIP3   OH224853   6.579   2.551   2.056  0.1084  0.3830 -0.1249
 1073TIP3    H124854   6.528   2.629   2.078 -0.0124 -0.0745  1.3556
 1073TIP3    H224855   6.666   2.584   2.033 -0.0012  0.9703  0.2918
 1074TIP3   OH224856   4.283   1.272   2.788  0.1835 -0.1748  0.2019
 1074TIP3    H124857   4.370   1.236   2.806 -0.1750 -0.6171  1.1241
 1074TIP3    H224858   4.243   1.282   2.874 -0.7690 -0.2042 -0.2265
 1075TIP3   OH224859   3.130   5.055   7.720  0.5055  0.0021 -0.2637
 1075TIP3    H124860   3.071   5.028   7.650 -0.5979 -2.2634  1.4111
 1075TIP3    H224861   3.184   4.977   7.738  0.5829  0.4181  1.5349
 1076TIP3   OH224862   2.969   5.116   7.941  0.1148  1.0480  0.3100
 1076TIP3    H124863   3.036   5.116   7.872 -0.1944 -0.0621 -0.0138
 1076TIP3    H224864   2.941   5.025   7.946 -1.7934  1.5817  0.0375
 1077TIP3   OH224865   4.298   1.553   0.231 -0.2000  0.4365  0.3348
 1077TIP3    H124866   4.305   1.592   0.144  3.5348  0.5407  0.4947
 1077TIP3    H224867   4.286   1.627   0.290  2.1135  0.9948  0.2204
 1078TIP3   OH224868   3.741   4.123   6.865 -0.7626  0.0032  0.4074
 1078TIP3    H124869   3.768   4.109   6.956 -0.7445 -1.1014  0.2502
 1078TIP3    H224870   3.688   4.046   6.844 -0.9329  0.3485 -0.4578
 1079TIP3   OH224871   4.182   4.785   7.525  0.0127 -0.4160  0.8062
 1079TIP3    H124872   4.265   4.763   7.485  1.2892  1.6610  2.1111
 1079TIP3    H224873   4.206   4.826   7.609 -2.0863  3.1804 -0.1405
 1080TIP3   OH224874   0.253   0.132   1.909  0.4600 -0.1625  0.5785
 1080TIP3    H124875   0.208   0.212   1.938 -1.5900 -0.3897 -1.6668
 1080TIP3    H224876   0.221   0.064   1.968  1.9894  0.5636  2.3187
 1081TIP3   OH224877   6.442   0.853   1.382 -0.3585  0.2782  0.0910
 1081TIP3    H124878   6.400   0.773   1.352 -1.3864  0.6536  0.4827
 1081TIP3    H224879   6.501   0.825   1.452  0.5553 -0.3354 -0.8982
 1082TIP3   OH224880   3.093   0.334   0.782  0.1187 -0.3834 -0.1848
 1082TIP3    H124881   3.042   0.269   0.830  0.5849 -0.8635 -0.3187
 1082TIP3    H224882   3.036   0.410   0.776 -0.5962 -0.9180 -0.3737
 1083TIP3   OH224883   2.779   3.852   8.849 -0.0235 -0.3570  0.0451
 1083TIP3    H124884   2.868   3.845   8.815 -0.0800  0.3020 -0.2498
 1083TIP3    H224885   2.758   3.945   8.843 -0.3263 -0.3425  1.1551
 1084TIP3   OH224886   4.274   3.694   1.984  0.0858 -0.0936  0.5764
 1084TIP3    H124887   4.271   3.690   2.079 -2.4232  0.0176  0.5636
 1084TIP3    H224888   4.319   3.613   1.958 -0.6787 -0.9505  1.8276
 1085TIP3   OH224889   3.700   5.756   2.552 -0.2720  0.2112  0.1268
 1085TIP3    H124890   3.644   5.820   2.509 -1.6521 -1.3553 -0.5314
 1085TIP3    H224891   3.644   5.716   2.619  0.2033 -0.9972 -0.1601
 1086TIP3   OH224892   2.223   3.936   7.466 -0.2403 -0.2213 -0.2790
 1086TIP3    H124893   2.170   3.984   7.530 -2.0762 -1.5940 -0.6786
 1086TIP3    H224894   2.314   3.954   7.491 -0.8921  0.8999  1.4570
 1087TIP3   OH224895   4.933   5.827   8.276 -0.3430 -0.1384  0.0708
 1087TIP3    H124896   4.849   5.782   8.269 -0.5019  0.2747 -0.8251
 1087TIP3    H224897   4.991   5.762   8.315 -1.3822  0.0042  1.9798
 1088TIP3   OH224898   3.219   0.502   7.452  0.1241  0.0284  0.5068
 1088TIP3    H124899   3.182   0.416   7.432 -0.8924  1.0790 -2.6143
 1088TIP3    H224900   3.314   0.487   7.454  0.0840 -0.8916 -1.8716
 1089TIP3   OH224901   4.990   0.026   0.251 -0.2744 -0.3834 -0.0577
 1089TIP3    H124902   5.017   0.054   0.164  0.7860 -1.0202  0.0416
 1089TIP3    H224903   4.941   0.100   0.286  3.4533  2.0284  0.7026
 1090TIP3   OH224904   2.298   3.171   3.200  0.0597  0.4373  0.2800
 1090TIP3    H124905   2.213   3.213   3.184  0.2365  0.2561 -1.2362
 1090TIP3    H224906   2.351   3.240   3.240 -0.6376  0.6918  0.8070
 1091TIP3   OH224907   6.545   6.477   1.617 -0.1794  0.3737 -0.1249
 1091TIP3    H124908   6.504   6.406   1.568  1.9061 -0.2054 -1.1698
 1091TIP3    H224909   6.491   6.554   1.599 -1.6279 -0.6263 -0.1873
 1092TIP3   OH224910   3.656   4.170   2.263 -0.1384 -0.4544  0.0286
 1092TIP3    H124911   3.562   4.163   2.250  0.1251 -3.2245 -1.0431
 1092TIP3    H224912   3.676   4.102   2.328  1.2128 -0.3542 -0.2590
 1093TIP3   OH224913   4.859   5.693   0.867  0.2470 -0.5556 -0.4046
 1093TIP3    H124914   4.794   5.631   0.898  0.4812 -0.3407  0.5422
 1093TIP3    H224915   4.862   5.761   0.934  0.6986 -0.0232 -0.9453
 1094TIP3   OH224916   6.115   3.645   7.484 -0.5848 -1.1377  0.2206
 1094TIP3    H124917   6.045   3.704   7.457  0.6983 -0.1766 -1.1530
 1094TIP3    H224918   6.101   3.566   7.431 -0.2840 -0.7058 -0.5190
 1095TIP3   OH224919   5.782   5.901   8.028 -0.0012  0.4774  0.4016
 1095TIP3    H124920   5.815   5.833   7.969 -1.5849  0.4185 -0.4819
 1095TIP3    H224921   5.853   5.964   8.035 -0.0725  0.9998 -2.4034
 1096TIP3   OH224922   3.345   3.261   8.613 -0.1413 -0.1594 -0.2784
 1096TIP3    H124923   3.404   3.312   8.669 -0.8012  1.2848 -0.8304
 1096TIP3    H224924   3.403   3.217   8.551  0.4299  0.7595 -0.4283
 1097TIP3   OH224925   6.272   2.307   8.514  0.5550 -0.3398 -0.2736
 1097TIP3    H124926   6.297   2.354   8.593 -0.9710 -0.2879  0.2120
 1097TIP3    H224927   6.350   2.311   8.458  1.6702 -0.3844  1.2038
 1098TIP3   OH224928   3.104   6.578   9.176  0.0963 -0.0901  0.1971
 1098TIP3    H124929   3.100   6.656   9.232 -1.5358  1.1709 -1.5261
 1098TIP3    H224930   3.131   6.612   9.091 -0.6924 -1.4062 -0.6118
 1099TIP3   OH224931   1.749   0.001   1.894 -0.2551  0.5014 -0.4393
 1099TIP3    H124932   1.792  -0.018   1.977 -1.4618  1.0783  0.3513
 1099TIP3    H224933   1.770   0.093   1.877 -0.4709  0.5472 -0.4669
 1100TIP3   OH224934   2.224   3.399   7.147  0.2967 -0.4233 -0.1579
 1100TIP3    H124935   2.297   3.460   7.154  0.8176 -1.2073  1.7118
 1100TIP3    H224936   2.265   3.313   7.144 -0.4835 -0.7804 -1.4726
 1101TIP3   OH224937   4.005   2.592   1.946 -0.0704  0.1915 -0.3310
 1101TIP3    H124938   3.991   2.687   1.944  1.0946  0.3693 -0.6570
 1101TIP3    H224939   3.940   2.559   2.008 -2.5573  0.8250 -2.4163
 1102TIP3   OH224940   4.482   2.896   7.557 -0.5769  0.1034  0.3493
 1102TIP3    H124941   4.571   2.930   7.567 -0.7857  0.4265  1.1616
 1102TIP3    H224942   4.443   2.952   7.490 -0.3838  0.3866  0.4711
 1103TIP3   OH224943   5.466   5.623   1.278  0.2240 -0.1710 -0.6588
 1103TIP3    H124944   5.515   5.649   1.200  2.9459 -1.7937  0.3528
 1103TIP3    H224945   5.470   5.699   1.336  1.8920 -0.3546 -0.4893
 1104TIP3   OH224946   6.006   6.410   0.268  0.3900  0.4066 -0.1406
 1104TIP3    H124947   6.066   6.341   0.240  0.8541  1.0787 -0.8494
 1104TIP3    H224948   5.973   6.448   0.187 -0.3217  0.6238  0.2453
 1105TIP3   OH224949   5.518   5.989   8.033  0.2782  0.1296  0.3787
 1105TIP3    H124950   5.595   5.939   8.061 -0.7289 -1.3242  0.6618
 1105TIP3    H224951   5.460   5.987   8.109  1.0191  3.5790  1.1802
 1106TIP3   OH224952   1.678   4.937   8.851 -0.1914 -0.2694 -0.0372
 1106TIP3    H124953   1.647   4.881   8.922  2.1686 -0.7314  0.7052
 1106TIP3    H224954   1.755   4.981   8.886 -0.4854  1.5404 -1.4602
 1107TIP3   OH224955   5.638   5.012   2.043  0.0506 -0.1851 -0.0113
 1107TIP3    H124956   5.587   5.052   2.113 -0.3733 -0.0474 -0.3915
 1107TIP3    H224957   5.573   4.968   1.989  0.7321 -4.4872  2.2809
 1108TIP3   OH224958   1.877   1.108   2.308 -0.4579  0.5743  0.4589
 1108TIP3    H124959   1.925   1.072   2.382 -2.4251  0.0034  1.5240
 1108TIP3    H224960   1.943   1.155   2.257  2.0609 -3.4740 -0.4238
 1109TIP3   OH224961   0.279   6.636   0.047 -0.5015 -0.1685 -0.1518
 1109TIP3    H124962   0.279   6.730   0.061 -1.7929 -0.0252 -0.9344
 1109TIP3    H224963   0.290   6.625  -0.047 -0.7029 -0.7785 -0.1111
 1110TIP3   OH224964   3.641   4.494   0.555 -0.3122  0.6064 -0.0045
 1110TIP3    H124965   3.656   4.575   0.603 -1.8150  0.6376  0.4569
 1110TIP3    H224966   3.618   4.523   0.467  2.1170  0.5566 -0.7381
 1111TIP3   OH224967   1.381   4.017   0.155  0.4218  0.5674 -0.0080
 1111TIP3    H124968   1.370   3.991   0.246 -1.1526 -1.6002 -0.7250
 1111TIP3    H224969   1.422   3.941   0.113 -1.4263  0.3616 -1.6101
 1112TIP3   OH224970   0.631   5.512   8.540  0.3119  0.6336 -0.5659
 1112TIP3    H124971   0.574   5.522   8.616 -0.1158  0.8103 -0.9069
 1112TIP3    H224972   0.605   5.583   8.480  0.7821  0.6239 -0.7917
 1113TIP3   OH224973   1.593   3.032   2.878  0.3678 -0.6543 -0.5018
 1113TIP3    H124974   1.507   3.039   2.920  0.9633  2.6402  0.4432
 1113TIP3    H224975   1.644   2.977   2.937 -0.5079 -0.9066  0.0368
 1114TIP3   OH224976   6.425   4.767   8.066  0.6207  0.3282  0.2028
 1114TIP3    H124977   6.507   4.789   8.022 -0.1138 -3.1695 -3.5718
 1114TIP3    H224978   6.443   4.684   8.111 -0.6193 -0.2161 -0.2501
 1115TIP3   OH224979   2.335   5.526   7.448  0.1175 -0.5023 -0.3801
 1115TIP3    H124980   2.346   5.437   7.415 -1.8762 -0.5818 -1.0062
 1115TIP3    H224981   2.302   5.576   7.373 -0.7378  0.2579  0.4604
 1116TIP3   OH224982   2.845   5.850   8.443  0.4546 -0.1199 -0.7605
 1116TIP3    H124983   2.769   5.902   8.418 -1.3075 -0.2167  3.4959
 1116TIP3    H224984   2.809   5.765   8.468  2.2737 -0.8859 -0.5623
 1117TIP3   OH224985   0.305   1.670   1.556  0.6495  0.0272 -0.0870
 1117TIP3    H124986   0.243   1.735   1.588  1.7978  0.7357  0.7836
 1117TIP3    H224987   0.250   1.594   1.534 -0.4304  0.0827  2.0477
 1118TIP3   OH224988   5.536   1.821   2.369  0.3575 -0.1229  0.3303
 1118TIP3    H124989   5.601   1.808   2.299  0.4609 -0.0085  0.4050
 1118TIP3    H224990   5.527   1.735   2.409  0.4431 -0.1465  0.3003
 1119TIP3   OH224991   4.072   5.825   8.828  0.2585 -0.5311 -0.7960
 1119TIP3    H124992   4.087   5.753   8.767 -0.9541 -0.1924 -1.5408
 1119TIP3    H224993   3.993   5.868   8.795 -0.5041 -0.3920  1.0794
 1120TIP3   OH224994   5.452   2.609   1.074 -0.2435  0.4500 -0.7895
 1120TIP3    H124995   5.534   2.571   1.105 -0.6852 -1.1172 -1.4068
 1120TIP3    H224996   5.427   2.672   1.141  0.9452  0.2155 -0.1013
 1121TIP3   OH224997   0.044   1.554   1.481 -0.7006  0.2457  0.1601
 1121TIP3    H124998   0.018   1.575   1.391 -0.8063  0.4106  0.2300
 1121TIP3    H224999   0.014   1.464   1.493 -0.1241 -0.0005 -0.1835
 1122TIP3   OH225000   1.499   1.250   0.263  0.4996 -0.6938 -1.0010
 1122TIP3    H125001   1.551   1.234   0.342  2.1576 -0.8636 -2.0829
 1122TIP3    H225002   1.536   1.192   0.197  0.5648  0.9552 -2.4889
 1123TIP3   OH225003   4.061   2.014   3.161  0.2525  0.1403  0.9991
 1123TIP3    H125004   4.092   2.057   3.081 -0.8081  1.1205  1.0846
 1123TIP3    H225005   3.986   1.962   3.133  0.9836 -0.9688  1.0578
 1124TIP3   OH225006   5.651   3.720   1.726 -0.3668 -0.7151  0.3252
 1124TIP3    H125007   5.573   3.691   1.679  1.1200 -0.2592 -2.6813
 1124TIP3    H225008   5.626   3.804   1.765 -1.1864 -0.1261 -1.3570
 1125TIP3   OH225009   1.211   3.302   8.787  0.2993 -0.0595  0.1148
 1125TIP3    H125010   1.229   3.394   8.769 -0.0809 -0.0570 -0.2698
 1125TIP3    H225011   1.296   3.265   8.811  0.5265  0.2998 -0.1377
 1126TIP3   OH225012   2.883   4.735   1.574 -0.4078  0.0430  0.2516
 1126TIP3    H125013   2.932   4.707   1.497  0.9606 -0.1655  1.1762
 1126TIP3    H225014   2.813   4.791   1.538  0.4544  0.3056 -1.0953
 1127TIP3   OH225015   0.230   1.571   1.873 -0.1078  0.0940 -0.1595
 1127TIP3    H125016   0.153   1.546   1.823 -0.4779  1.5320 -0.3185
 1127TIP3    H225017   0.222   1.523   1.955  0.3663 -2.0807 -1.3004
 1128TIP3   OH225018   1.926   1.482   0.517 -0.1048 -0.4063  0.6736
 1128TIP3    H125019   1.984   1.514   0.448  0.7727 -1.1401  1.0660
 1128TIP3    H225020   1.848   1.537   0.508  0.7818  0.8691  0.3918
 1129TIP3   OH225021   3.301   2.840   0.146 -0.1812  0.0262  0.4343
 1129TIP3    H125022   3.374   2.896   0.173 -1.8035  2.5004  0.0066
 1129TIP3    H225023   3.339   2.780   0.082  2.0052 -0.5815  2.1753
 1130TIP3   OH225024   5.608   1.600   0.702 -0.8839  0.4210 -0.2769
 1130TIP3    H125025   5.545   1.539   0.742 -1.1546 -1.0163 -2.7209
 1130TIP3    H225026   5.690   1.583   0.750 -1.0298 -1.7103 -0.6679
 1131TIP3   OH225027   0.152   5.583   8.860  0.1779  0.3139 -0.1675
 1131TIP3    H125028   0.077   5.524   8.850  1.3315 -0.9959 -1.3417
 1131TIP3    H225029   0.195   5.583   8.775  1.6635  0.8431  0.5415
 1132TIP3   OH225030   2.787   3.906   0.196 -0.1462  0.1895  0.0353
 1132TIP3    H125031   2.783   3.817   0.230 -1.9297 -0.9208 -2.7154
 1132TIP3    H225032   2.849   3.900   0.123  0.4591  1.4921  0.4141
 1133TIP3   OH225033   0.279   1.740   1.168 -0.1373  0.2510 -0.3408
 1133TIP3    H125034   0.258   1.794   1.092  1.5365  1.3565 -0.0870
 1133TIP3    H225035   0.253   1.651   1.142 -1.9069  0.9616 -1.2105
 1134TIP3   OH225036   1.664   3.269   1.954  0.2171 -0.1129  0.6330
 1134TIP3    H125037   1.638   3.338   2.015  1.0634  1.7015 -0.9926
 1134TIP3    H225038   1.757   3.282   1.940 -0.4017  1.3571 -3.1392
 1135TIP3   OH225039   5.527   0.021   1.529 -0.8089  0.1185 -0.2945
 1135TIP3    H125040   5.585   0.083   1.574 -1.1249 -0.2501  0.6396
 1135TIP3    H225041   5.548   0.032   1.436 -0.4104  1.1657 -0.0933
 1136TIP3   OH225042   4.446   6.474   8.312 -0.7882 -0.0402 -0.2923
 1136TIP3    H125043   4.474   6.480   8.403  0.6139 -0.0237 -0.6882
 1136TIP3    H225044   4.389   6.549   8.299 -0.7137  0.1589  0.4742
 1137TIP3   OH225045   3.880   3.337   8.141  0.3121  0.0615 -0.1120
 1137TIP3    H125046   3.894   3.246   8.116 -2.0436 -0.5943  0.6288
 1137TIP3    H225047   3.846   3.379   8.062 -1.4939 -0.5348  0.2804
 1138TIP3   OH225048   5.245   2.643   8.916 -0.1969  0.0620 -0.6659
 1138TIP3    H125049   5.222   2.611   8.829  0.1574 -0.5771 -0.5284
 1138TIP3    H225050   5.216   2.574   8.976 -1.6626  1.0688 -0.1467
 1139TIP3   OH225051   5.279   5.422   0.080  0.1105 -0.7721  0.5893
 1139TIP3    H125052   5.360   5.372   0.094  0.2960 -0.6434  0.0283
 1139TIP3    H225053   5.228   5.369   0.019  0.6787  0.0721 -0.6930
 1140TIP3   OH225054   1.547   5.759   7.858 -0.4381 -0.3170 -0.1783
 1140TIP3    H125055   1.605   5.832   7.878  0.6921 -1.2740  0.0897
 1140TIP3    H225056   1.602   5.695   7.814 -1.4525 -0.9529 -0.5755
 1141TIP3   OH225057   6.286   5.740   0.670  0.2869  0.0406  0.0392
 1141TIP3    H125058   6.227   5.815   0.657 -0.5782 -0.4934  0.7854
 1141TIP3    H225059   6.318   5.750   0.760 -0.2195 -0.7502  0.3141
 1142TIP3   OH225060   2.628   4.985   7.632  0.2293  0.0715  0.3961
 1142TIP3    H125061   2.546   5.022   7.599  1.3273  1.9919 -0.3229
 1142TIP3    H225062   2.610   4.963   7.723 -1.4543 -0.8059 -0.1091
 1143TIP3   OH225063   2.573   5.183   9.110 -0.1870 -0.2908 -0.1303
 1143TIP3    H125064   2.573   5.088   9.122 -1.4488 -0.2658  0.2046
 1143TIP3    H225065   2.623   5.217   9.184  2.0272 -0.7694 -1.3078
 1144TIP3   OH225066   5.928   1.067   0.568  0.2663  0.5666  0.0143
 1144TIP3    H125067   5.873   1.034   0.497 -2.3695  0.9835  1.6877
 1144TIP3    H225068   5.949   1.156   0.543 -1.1589  0.9189 -0.0418
 1145TIP3   OH225069   1.569   2.576   0.251  0.0700 -0.0277 -0.1231
 1145TIP3    H125070   1.640   2.569   0.315  0.4247 -1.1686 -0.6175
 1145TIP3    H225071   1.517   2.497   0.264 -0.5274  0.3048 -0.4633
 1146TIP3   OH225072   5.994   0.900   9.066  0.2057 -0.3773  0.2843
 1146TIP3    H125073   5.912   0.944   9.089  0.7156  1.1298 -0.6517
 1146TIP3    H225074   5.969   0.807   9.058 -1.4177  0.0348  0.0258
 1147TIP3   OH225075   2.955   3.267   1.359  0.4759 -0.7057  0.8656
 1147TIP3    H125076   3.030   3.319   1.389  0.9979 -1.5778  1.0853
 1147TIP3    H225077   2.946   3.198   1.424  0.7213 -1.7700 -0.1999
 1148TIP3   OH225078   3.696   6.648   1.152 -0.6514  0.1087 -0.3359
 1148TIP3    H125079   3.786   6.644   1.119 -0.6330 -1.3083 -0.1984
 1148TIP3    H225080   3.646   6.688   1.080 -0.1183 -0.2996 -0.9527
 1149TIP3   OH225081   1.087   3.767   8.775 -0.3452 -0.2061 -0.0119
 1149TIP3    H125082   1.070   3.782   8.868 -0.4094  0.8154 -0.1753
 1149TIP3    H225083   1.085   3.672   8.765 -0.2164 -0.3310  1.0515
 1150TIP3   OH225084   0.206   3.060   8.086 -0.3226  0.2117 -0.2384
 1150TIP3    H125085   0.119   3.023   8.074  0.0814 -0.8189 -0.1361
 1150TIP3    H225086   0.200   3.149   8.052 -1.4798  0.2472  0.0170
 1151TIP3   OH225087   2.841   2.211   0.592  0.2348 -0.4770 -0.1751
 1151TIP3    H125088   2.755   2.198   0.553 -0.2294  1.6931 -0.0231
 1151TIP3    H225089   2.830   2.286   0.651  2.1572 -0.2976  0.0431
 1152TIP3   OH225090   3.301   3.630   1.420  0.2618  0.3308  0.2414
 1152TIP3    H125091   3.233   3.585   1.369  0.6011 -0.9906  0.9052
 1152TIP3    H225092   3.377   3.630   1.362 -0.1471  1.3812 -0.3184
 1153TIP3   OH225093   3.077   1.492   3.104  0.3667  0.3440 -0.6126
 1153TIP3    H125094   3.008   1.450   3.155  0.9388 -1.7313 -1.4508
 1153TIP3    H225095   3.038   1.575   3.077 -1.5591 -0.4407 -0.4776
 1154TIP3   OH225096   3.722   5.711   1.232 -0.2792  0.2374 -0.1675
 1154TIP3    H125097   3.644   5.744   1.277  0.3722  0.4247  0.8599
 1154TIP3    H225098   3.777   5.676   1.302  0.2997 -0.4387 -0.9463
 1155TIP3   OH225099   3.208   4.283   0.502  0.1971 -0.8132 -0.0802
 1155TIP3    H125100   3.298   4.306   0.523 -0.0264  0.8289 -0.7455
 1155TIP3    H225101   3.176   4.357   0.450 -1.8925 -0.8147  1.1066
 1156TIP3   OH225102   3.976   5.636   8.403  0.6682  0.4267  0.8087
 1156TIP3    H125103   3.970   5.721   8.359 -1.1590  0.8843  1.8246
 1156TIP3    H225104   3.895   5.630   8.454  0.8024 -1.8919  0.8514
 1157TIP3   OH225105   5.913   6.373   0.686 -0.0594 -0.6172 -0.4437
 1157TIP3    H125106   5.858   6.446   0.713  0.3051 -1.0070  1.4548
 1157TIP3    H225107   5.927   6.322   0.766  0.9719 -1.9103 -1.4060
 1158TIP3   OH225108   2.415   6.177   1.741  0.2513 -1.1182  0.2367
 1158TIP3    H125109   2.469   6.102   1.713  0.9176 -0.3250 -0.6730
 1158TIP3    H225110   2.452   6.203   1.825  1.8138 -0.1468 -0.6963
 1159TIP3   OH225111   1.255   3.915   2.359  0.1860  0.0680  0.2302
 1159TIP3    H125112   1.169   3.879   2.337  0.1857 -1.6206  2.6271
 1159TIP3    H225113   1.239   3.972   2.435  1.3969 -2.1443  2.2747
 1160TIP3   OH225114   2.473   5.441   1.063  0.4290 -0.4938  0.3664
 1160TIP3    H125115   2.434   5.491   1.134 -0.3934 -1.4727  0.6259
 1160TIP3    H225116   2.556   5.485   1.046 -0.5859  1.4275  0.0519
 1161TIP3   OH225117   2.553   2.635   8.964 -0.3505  0.5115 -0.7557
 1161TIP3    H125118   2.473   2.679   8.992 -1.1546 -1.3881  0.1192
 1161TIP3    H225119   2.611   2.640   9.040  0.2351  1.5038 -1.2422
 1162TIP3   OH225120   2.128   5.842   1.658 -0.0283  0.1547  0.8307
 1162TIP3    H125121   2.077   5.783   1.602 -0.1168  1.6591 -0.7273
 1162TIP3    H225122   2.130   5.797   1.743 -1.5772 -1.2575  0.1825
 1163TIP3   OH225123   1.297   6.544   8.489 -0.5456 -0.1153 -0.1748
 1163TIP3    H125124   1.319   6.480   8.422 -1.5914 -0.1983 -0.4615
 1163TIP3    H225125   1.277   6.493   8.567 -0.7770 -0.1160 -0.2318
 1164TIP3   OH225126   0.730   0.717   0.690 -0.0892  0.8485 -0.0341
 1164TIP3    H125127   0.789   0.789   0.665  0.0365  0.5632 -0.5652
 1164TIP3    H225128   0.784   0.659   0.743  0.5727 -0.2014 -1.7628
 1165TIP3   OH225129   2.125   6.683   1.203 -0.0709 -0.1207  0.0248
 1165TIP3    H125130   2.116   6.603   1.152  0.5759  0.5718 -1.2426
 1165TIP3    H225131   2.205   6.724   1.170 -0.0661  0.7616  1.0514
 1166TIP3   OH225132   6.230   4.014   8.440 -0.3413 -0.0873  0.3746
 1166TIP3    H125133   6.323   3.995   8.445 -0.4156 -2.0668 -3.0990
 1166TIP3    H225134   6.193   3.975   8.519  1.5901 -0.0607  1.3530
 1167TIP3   OH225135   2.375   4.972   0.945  0.1964  0.0113  0.6917
 1167TIP3    H125136   2.429   4.893   0.947  0.4652  0.1640 -0.0553
 1167TIP3    H225137   2.289   4.942   0.915  0.8692  0.2902 -1.6599
 1168TIP3   OH225138   1.282   5.391   0.806  0.2495 -0.7844  0.2356
 1168TIP3    H125139   1.334   5.468   0.828  0.6196 -1.1133  0.5346
 1168TIP3    H225140   1.255   5.405   0.715 -0.9718  0.4071  0.7482
 1169TIP3   OH225141   3.548   5.253   0.213  0.5144  0.7763 -0.4844
 1169TIP3    H125142   3.604   5.186   0.173 -1.1058 -0.5857 -0.5629
 1169TIP3    H225143   3.474   5.262   0.152 -0.8245  0.3744  1.0225
 1170TIP3   OH225144   6.155   2.630   1.968  0.7331  0.0450 -0.1326
 1170TIP3    H125145   6.133   2.718   2.001  0.6244  0.0069 -0.1039
 1170TIP3    H225146   6.102   2.571   2.021 -0.4163  0.0617 -1.2256
 1171TIP3   OH225147   2.889   4.794   0.216  0.1207 -0.1572  0.2852
 1171TIP3    H125148   2.932   4.780   0.301  0.1264 -0.9583  0.1580
 1171TIP3    H225149   2.885   4.707   0.177 -1.3879 -0.0567  0.1703
 1172TIP3   OH225150   1.195   5.091   7.127  0.4630 -0.3000 -1.0379
 1172TIP3    H125151   1.239   5.176   7.132  0.9280 -0.6139  0.3742
 1172TIP3    H225152   1.116   5.109   7.075 -0.0969  1.2892  0.2889
 1173TIP3   OH225153   1.293   1.585   8.383  0.5667 -0.2286 -0.0672
 1173TIP3    H125154   1.212   1.633   8.401  0.2336 -0.6212 -0.5008
 1173TIP3    H225155   1.337   1.579   8.469  0.5761  0.7674  0.0075
 1174TIP3   OH225156   1.485   6.234   7.952 -0.2564 -0.1076 -0.1194
 1174TIP3    H125157   1.523   6.280   8.028  1.3005 -0.3811 -0.6855
 1174TIP3    H225158   1.508   6.289   7.877  2.5182 -2.1434 -0.9426
 1175TIP3   OH225159   0.969   3.829   8.472 -0.0563 -0.2775  0.1079
 1175TIP3    H125160   0.963   3.870   8.386 -0.6372 -1.8262 -0.6341
 1175TIP3    H225161   1.011   3.895   8.527 -1.4389  1.5105 -0.8607
 1176TIP3   OH225162   2.002   5.800   0.831  0.5432  0.2570 -0.0965
 1176TIP3    H125163   2.090   5.827   0.856  0.7741  0.2229 -0.8283
 1176TIP3    H225164   2.002   5.806   0.735 -0.4289  0.7947 -0.0769
 1177TIP3   OH225165   5.211   0.538   8.080  0.2848 -0.1601 -0.2072
 1177TIP3    H125166   5.172   0.527   7.994  0.2665 -0.9892 -0.0983
 1177TIP3    H225167   5.149   0.497   8.140  0.7117 -0.3568  0.1078
 1178TIP3   OH225168   1.741   2.638   3.489  0.2725  0.3261 -0.5454
 1178TIP3    H125169   1.809   2.572   3.489  0.5795  0.6255 -1.5747
 1178TIP3    H225170   1.736   2.668   3.399 -0.1801  1.3797 -0.1956
 1179TIP3   OH225171   4.095   0.248   1.853  0.1333 -0.0995  0.3130
 1179TIP3    H125172   4.087   0.307   1.929 -1.6197 -1.5622  1.3406
 1179TIP3    H225173   4.048   0.294   1.784  0.7299  0.7167  0.4264
 1180TIP3   OH225174   1.741   5.759   8.785 -0.0723  0.1833  0.2412
 1180TIP3    H125175   1.661   5.706   8.788  0.4359 -0.5637  2.9323
 1180TIP3    H225176   1.710   5.849   8.783 -0.9595 -0.1193 -0.0995
 1181TIP3   OH225177   4.824   2.679   0.160 -0.3071  0.2995 -0.1870
 1181TIP3    H125178   4.811   2.600   0.107 -0.3113 -0.0368  0.3039
 1181TIP3    H225179   4.794   2.751   0.104 -1.1067 -0.1284 -0.3283
 1182TIP3   OH225180   3.047   0.243   8.795 -0.4647 -0.2198  0.4453
 1182TIP3    H125181   3.097   0.309   8.746 -0.4847 -0.2165  0.4299
 1182TIP3    H225182   2.959   0.248   8.759 -0.3310 -0.6431  0.0630
 1183TIP3   OH225183   1.137   5.481   0.261 -0.2221  0.1443  0.0773
 1183TIP3    H125184   1.140   5.422   0.186 -2.7619 -1.0760  0.8361
 1183TIP3    H225185   1.044   5.498   0.275  0.3274  2.4660  1.3544
 1184TIP3   OH225186   0.796   1.961   0.550 -0.3286  0.2248  0.0856
 1184TIP3    H125187   0.751   1.890   0.596 -0.5471  0.1669 -0.2119
 1184TIP3    H225188   0.784   1.941   0.457 -0.1852  0.5221  0.0003
 1185TIP3   OH225189   2.965   0.466   7.687  0.1373 -0.1527  0.0112
 1185TIP3    H125190   2.964   0.470   7.592 -1.2613 -1.0406 -0.0477
 1185TIP3    H225191   2.939   0.553   7.716 -0.8146 -0.2671 -0.4664
 1186TIP3   OH225192   4.147   5.823   1.438 -0.3091  0.5333  0.5412
 1186TIP3    H125193   4.230   5.815   1.485 -0.3906 -0.2705  0.5526
 1186TIP3    H225194   4.172   5.847   1.349 -0.1614  2.2881  1.0093
 1187TIP3   OH225195   4.099   1.153   2.429  0.0344 -0.3696 -0.5461
 1187TIP3    H125196   4.035   1.084   2.409 -0.5152 -0.6878  1.8747
 1187TIP3    H225197   4.165   1.145   2.361 -1.1442 -1.8354 -1.5976
 1188TIP3   OH225198   5.002   1.484   0.207  0.2126 -0.4370 -0.1955
 1188TIP3    H125199   4.937   1.421   0.178  1.0705 -1.1291 -0.6528
 1188TIP3    H225200   5.024   1.457   0.296  0.5239 -0.7462 -0.3640
 1189TIP3   OH225201   5.510   2.683   7.625  0.3354 -0.2063  0.3909
 1189TIP3    H125202   5.557   2.602   7.608  0.3733 -0.1995  0.4617
 1189TIP3    H225203   5.565   2.730   7.688  0.5154  0.0593  0.0385
 1190TIP3   OH225204   3.181   2.060   8.211 -0.8462 -0.5992  0.4672
 1190TIP3    H125205   3.122   2.115   8.261 -1.7727 -0.8169 -0.3598
 1190TIP3    H225206   3.184   1.977   8.259 -0.5690 -0.3192  0.9402
 1191TIP3   OH225207   1.888   4.035   8.189 -0.2183  0.4672 -0.4847
 1191TIP3    H125208   1.881   4.060   8.281 -1.7868  1.8180 -0.9034
 1191TIP3    H225209   1.868   4.116   8.141 -1.3824 -0.6535 -1.9864
 1192TIP3   OH225210   3.377   1.816   2.857 -0.5074  0.4992 -0.0488
 1192TIP3    H125211   3.334   1.776   2.782  0.9877  0.3352 -0.8619
 1192TIP3    H225212   3.419   1.743   2.902  0.9892  0.9215 -0.7006
 1193TIP3   OH225213   4.729   5.951   1.889 -0.2963  0.1120  0.1506
 1193TIP3    H125214   4.667   6.004   1.940 -1.0142  0.5707 -1.1681
 1193TIP3    H225215   4.758   6.009   1.818 -2.5294 -1.7644 -2.4596
 1194TIP3   OH225216   3.373   0.897   2.131  0.0897  0.4529  0.0640
 1194TIP3    H125217   3.395   0.934   2.217 -0.0295  0.3778  0.1292
 1194TIP3    H225218   3.281   0.871   2.140 -0.0899  0.9638 -0.2719
 1195TIP3   OH225219   3.677   1.475   2.924 -0.1736  0.0100  0.2588
 1195TIP3    H125220   3.754   1.425   2.896 -0.1958  0.5283 -0.7773
 1195TIP3    H225221   3.671   1.458   3.018  1.6003  0.4751  0.5083
 1196TIP3   OH225222   1.672   5.958   7.238  0.1387  0.1425  0.6173
 1196TIP3    H125223   1.699   5.871   7.208 -0.4297  0.5488 -1.1441
 1196TIP3    H225224   1.718   6.019   7.181 -0.6446  0.9720  0.8447
 1197TIP3   OH225225   1.665   3.566   1.797  0.2704 -0.5966  0.2191
 1197TIP3    H125226   1.598   3.634   1.806  1.4476  0.3159  3.2424
 1197TIP3    H225227   1.615   3.484   1.794 -1.0380  0.1021  1.5879
 1198TIP3   OH225228   2.938   6.020   7.881  0.8054 -0.2587 -0.9183
 1198TIP3    H125229   2.923   5.965   7.805 -0.0290 -0.1001 -0.8710
 1198TIP3    H225230   2.852   6.051   7.907  1.1448  0.1963 -0.2845
 1199TIP3   OH225231   4.967   3.222   7.624  0.5326 -0.4821 -0.2498
 1199TIP3    H125232   4.981   3.309   7.661  4.0066 -1.3348  0.7821
 1199TIP3    H225233   4.955   3.238   7.530  1.0107  1.1316 -0.0633
 1200TIP3   OH225234   1.560   1.540   1.250 -0.3898 -0.4598  0.0199
 1200TIP3    H125235   1.540   1.621   1.205 -0.6476 -0.4065  0.2301
 1200TIP3    H225236   1.567   1.565   1.343 -1.0940 -0.7867  0.1641
 1201TIP3   OH225237   6.529   6.475   1.144 -0.1165  0.2624 -0.5577
 1201TIP3    H125238   6.552   6.403   1.202  1.4671  0.4474 -0.9078
 1201TIP3    H225239   6.433   6.482   1.150 -0.0286  0.1775  1.8799
 1202TIP3   OH225240   2.263   4.704   2.267 -0.2442 -0.2505 -0.4517
 1202TIP3    H125241   2.207   4.732   2.340 -0.5496 -0.7681 -0.4832
 1202TIP3    H225242   2.203   4.681   2.197  0.0700  0.8861 -1.1232
 1203TIP3   OH225243   2.151   4.522   7.838  0.2825  0.4817  1.0090
 1203TIP3    H125244   2.097   4.589   7.879 -0.6707 -0.5416  1.4954
 1203TIP3    H225245   2.151   4.449   7.901  0.5758 -0.2920  0.1381
 1204TIP3   OH225246   0.142   2.333   1.066 -0.0178 -0.5319  0.6002
 1204TIP3    H125247   0.141   2.382   0.984 -0.0661  1.7798  1.8889
 1204TIP3    H225248   0.071   2.270   1.058  0.1572 -0.5308 -1.2154
 1205TIP3   OH225249   6.182   1.017   7.221 -0.2576 -0.2493 -0.2107
 1205TIP3    H125250   6.117   1.082   7.193 -0.0177  0.2174  0.2863
 1205TIP3    H225251   6.175   1.016   7.317 -1.2268 -1.9865 -0.2768
 1206TIP3   OH225252   1.581   4.910   1.246 -0.0756 -0.2243 -0.3394
 1206TIP3    H125253   1.510   4.972   1.234  1.5836  2.1960  1.4902
 1206TIP3    H225254   1.578   4.886   1.338  0.8007 -0.9836 -0.4884
 1207TIP3   OH225255   2.141   1.252   1.115 -0.6854 -0.4260 -0.0729
 1207TIP3    H125256   2.099   1.206   1.187 -0.8831 -1.8351 -1.0354
 1207TIP3    H225257   2.176   1.182   1.059 -0.2946  0.6240 -1.1963
 1208TIP3   OH225258   5.445   4.192   8.630 -0.1922  0.3945 -0.2304
 1208TIP3    H125259   5.383   4.197   8.556 -0.6603 -0.0855  0.1244
 1208TIP3    H225260   5.496   4.273   8.623 -1.7525  1.4927  0.2523
 1209TIP3   OH225261   3.738   5.837   7.759  0.0587 -0.2937  0.4901
 1209TIP3    H125262   3.726   5.927   7.787  0.5290 -0.1960  0.3878
 1209TIP3    H225263   3.651   5.797   7.767 -0.1224  0.1318  0.6539
 1210TIP3   OH225264   2.709   5.611   8.990 -0.1401 -0.0025  0.6718
 1210TIP3    H125265   2.689   5.683   8.930  1.8974  0.4935  0.5008
 1210TIP3    H225266   2.680   5.532   8.944  0.6762  0.4317 -0.6421
 1211TIP3   OH225267   4.952   4.801   1.348 -0.1671  0.0486  0.1420
 1211TIP3    H125268   4.960   4.892   1.321 -1.0630  0.4690  1.1987
 1211TIP3    H225269   4.863   4.777   1.324  0.2551 -0.7497 -0.6734
 1212TIP3   OH225270   0.375   5.815   1.268 -0.8414  0.3409 -0.2927
 1212TIP3    H125271   0.438   5.880   1.300 -1.8935  0.2138  2.3531
 1212TIP3    H225272   0.426   5.758   1.211  0.9045  1.5388 -0.0155
 1213TIP3   OH225273   1.498   6.662   8.323  0.0652  0.6151  0.2938
 1213TIP3    H125274   1.550   6.741   8.340  1.2356 -0.0001 -0.3027
 1213TIP3    H225275   1.500   6.613   8.405  2.1160 -0.3271 -0.2579
 1214TIP3   OH225276   4.042   3.154   1.386  1.1899  0.6856 -0.2453
 1214TIP3    H125277   3.995   3.187   1.463  0.4826 -1.1344  0.1511
 1214TIP3    H225278   4.127   3.126   1.420  1.2752  0.8474 -0.3251
 1215TIP3   OH225279   5.193   4.483   1.920  0.2805  0.0407 -0.1936
 1215TIP3    H125280   5.193   4.463   2.014 -1.2065  0.3197 -0.1139
 1215TIP3    H225281   5.239   4.409   1.880  0.4863 -0.3325  0.7069
 1216TIP3   OH225282   5.732   5.261   1.733 -0.3181 -0.0081  0.2026
 1216TIP3    H125283   5.774   5.314   1.665  0.6236 -0.4610  0.4156
 1216TIP3    H225284   5.661   5.215   1.687  0.8549 -0.9867 -0.6897
 1217TIP3   OH225285   4.136   3.100   0.068  0.7605 -0.0506  0.6971
 1217TIP3    H125286   4.177   3.062   0.146 -0.2688  1.6038  2.1387
 1217TIP3    H225287   4.045   3.069   0.072 -0.0910  2.3219  1.8798
 1218TIP3   OH225288   1.974   2.190   1.120 -0.1707  0.0400 -0.3510
 1218TIP3    H125289   2.018   2.250   1.181 -0.0234  1.3727 -1.6840
 1218TIP3    H225290   1.884   2.187   1.150 -0.0713  0.5657  0.0253
 1219TIP3   OH225291   3.853   3.645   7.188  0.3889 -0.3984 -0.6463
 1219TIP3    H125292   3.816   3.727   7.219  2.2113  0.1680  0.1382
 1219TIP3    H225293   3.868   3.659   7.094  2.9246  1.1252 -0.1002
 1220TIP3   OH225294   3.337   0.702   0.854 -0.1034  0.2292  0.0526
 1220TIP3    H125295   3.344   0.640   0.782  0.0065  0.2770  0.0221
 1220TIP3    H225296   3.310   0.784   0.812  2.5918  1.0105 -0.3313
 1221TIP3   OH225297   3.056   5.587   0.514  0.0472  0.0206 -0.1516
 1221TIP3    H125298   2.964   5.574   0.536  0.1443  0.6830  0.6954
 1221TIP3    H225299   3.070   5.681   0.524  0.2121  0.3438 -2.6822
 1222TIP3   OH225300   5.500   2.829   7.385  0.3210 -0.5133  0.0667
 1222TIP3    H125301   5.531   2.782   7.307 -0.4209  2.0266 -1.9236
 1222TIP3    H225302   5.526   2.774   7.458  1.7251 -2.7073 -1.9187
 1223TIP3   OH225303   2.947   2.334   8.196  1.0942  0.3343 -0.1536
 1223TIP3    H125304   2.934   2.273   8.269  2.6731  0.9930  0.7160
 1223TIP3    H225305   3.011   2.397   8.229 -0.1864  2.2504 -1.1596
 1224TIP3   OH225306   2.363   5.105   8.241 -0.3472  0.2412 -0.7770
 1224TIP3    H125307   2.278   5.127   8.279 -0.8305 -0.2292 -1.5452
 1224TIP3    H225308   2.342   5.044   8.170  0.8719 -2.6748  1.1677
 1225TIP3   OH225309   6.496   3.174   8.628  0.5918 -0.6946  0.1851
 1225TIP3    H125310   6.434   3.102   8.630 -1.0184  0.6382  2.2870
 1225TIP3    H225311   6.457   3.239   8.570  0.8671 -0.5310  0.1780
 1226TIP3   OH225312   4.884   6.160   1.415 -0.1150 -0.2508 -0.2190
 1226TIP3    H125313   4.841   6.240   1.384 -1.4055 -0.4979  0.8263
 1226TIP3    H225314   4.975   6.168   1.386 -0.0723  1.8777  0.3406
 1227TIP3   OH225315   3.948   2.880   0.133  0.2006 -0.2227 -0.1673
 1227TIP3    H125316   3.919   2.808   0.078 -0.3103  0.2566 -0.5338
 1227TIP3    H225317   4.010   2.840   0.194 -0.8142 -1.1527  0.2718
 1228TIP3   OH225318   2.102   4.387   0.102  0.5711 -0.3499  0.1051
 1228TIP3    H125319   2.016   4.417   0.073 -0.0990 -1.5943  0.7273
 1228TIP3    H225320   2.117   4.433   0.184 -0.1656 -1.2126  0.7342
 1229TIP3   OH225321   3.094   5.918   8.095  0.1067  0.8577 -0.2288
 1229TIP3    H125322   3.032   5.964   8.038  0.4238  0.6925 -0.7099
 1229TIP3    H225323   3.091   5.827   8.065  0.8104  0.9077 -0.4668
 1230TIP3   OH225324   0.630   1.378   8.531 -0.6566 -0.3711  0.3380
 1230TIP3    H125325   0.630   1.284   8.548 -1.0395 -0.3855  0.2736
 1230TIP3    H225326   0.679   1.388   8.450  0.1358 -0.4256  0.7972
 1231TIP3   OH225327   6.110   2.717   6.793  0.7448 -0.1141  0.0433
 1231TIP3    H125328   6.139   2.734   6.883  0.4002 -0.1957  0.1692
 1231TIP3    H225329   6.043   2.650   6.802  0.7979 -0.2127 -0.2885
 1232TIP3   OH225330   0.456   5.120   1.813  0.1629 -0.1186  0.0379
 1232TIP3    H125331   0.406   5.195   1.780  0.3131  0.0359  0.1599
 1232TIP3    H225332   0.531   5.115   1.754 -0.2742 -0.6914 -0.4895
 1233TIP3   OH225333   6.624   2.931   0.576  1.0545  0.1105 -0.9213
 1233TIP3    H125334   6.712   2.936   0.539  0.9439 -1.7172 -1.4990
 1233TIP3    H225335   6.638   2.899   0.665  1.1059  1.9617 -0.2144
 1234TIP3   OH225336   0.427   2.719   2.289 -0.0254  0.3028 -0.0387
 1234TIP3    H125337   0.455   2.705   2.379  1.1453 -0.6857 -0.5282
 1234TIP3    H225338   0.505   2.699   2.236  0.2324  3.7073 -1.1602
 1235TIP3   OH225339   0.680   5.809   1.751  0.1873 -0.4581  0.2630
 1235TIP3    H125340   0.590   5.834   1.733  0.0278 -2.5189 -2.6109
 1235TIP3    H225341   0.673   5.725   1.796  0.6602 -0.6064  0.0684
 1236TIP3   OH225342   0.625   2.967   1.538  0.3237  0.2112  0.0170
 1236TIP3    H125343   0.652   3.058   1.523 -0.0079  0.4212  0.6339
 1236TIP3    H225344   0.605   2.964   1.632  1.7840 -0.8943  0.3128
 1237TIP3   OH225345   5.412   0.922   8.131  0.6073 -0.2728  0.2987
 1237TIP3    H125346   5.482   0.935   8.195  0.4535 -0.2807  0.4687
 1237TIP3    H225347   5.446   0.959   8.050  0.2576  1.0204  0.7213
 1238TIP3   OH225348   5.781   1.329   0.915  0.1059 -0.0065  0.6641
 1238TIP3    H125349   5.689   1.324   0.890 -0.1866 -1.1752  1.8590
 1238TIP3    H225350   5.786   1.404   0.975  0.0409  0.3663  0.2086
 1239TIP3   OH225351   4.836   5.807   1.326 -0.4899  0.1807  0.9084
 1239TIP3    H125352   4.866   5.824   1.415 -0.3330 -0.3274  0.9594
 1239TIP3    H225353   4.902   5.748   1.290 -0.5563  0.3763  0.4571
 1240TIP3   OH225354   5.643   1.906   8.739 -0.1552  0.0224 -0.0909
 1240TIP3    H125355   5.610   1.994   8.720 -1.1373 -0.5016 -0.9498
 1240TIP3    H225356   5.570   1.848   8.715 -0.5564 -0.8920  2.9396
 1241TIP3   OH225357   5.254   0.481   8.887 -0.1474 -0.4867 -0.6363
 1241TIP3    H125358   5.302   0.535   8.824 -0.6023  0.2395 -0.3712
 1241TIP3    H225359   5.162   0.492   8.863 -0.4117  0.6347  0.7680
 1242TIP3   OH225360   4.651   1.681   8.452 -0.7845  0.1955 -0.1827
 1242TIP3    H125361   4.691   1.734   8.384  0.8678 -2.7478 -1.7141
 1242TIP3    H225362   4.566   1.655   8.416 -1.0161  0.6921 -0.0010
 1243TIP3   OH225363   3.368   0.665   2.435 -0.4578 -0.0564  0.5292
 1243TIP3    H125364   3.394   0.662   2.527  2.1345  0.4595 -0.1138
 1243TIP3    H225365   3.318   0.585   2.421 -2.9264  0.9413  2.8790
 1244TIP3   OH225366   3.272   2.564   1.922 -0.4921 -0.3356 -0.0506
 1244TIP3    H125367   3.189   2.517   1.918  0.7268 -2.7656  1.2569
 1244TIP3    H225368   3.278   2.594   2.013 -1.0757  2.1734 -0.7697
 1245TIP3   OH225369   0.605   5.674   9.153  0.2489 -0.0387 -0.4048
 1245TIP3    H125370   0.526   5.712   9.192 -0.2005 -0.0776 -1.2603
 1245TIP3    H225371   0.632   5.605   9.215 -0.6666 -0.3599 -0.3574
 1246TIP3   OH225372   0.307   6.181   1.221  0.2233  0.1522  0.2519
 1246TIP3    H125373   0.236   6.125   1.252  1.4945 -2.6059 -1.3828
 1246TIP3    H225374   0.271   6.223   1.142  0.0805 -0.3893  0.0269
 1247TIP3   OH225375   2.204   2.117   0.334  0.0098 -0.1737  0.4588
 1247TIP3    H125376   2.298   2.103   0.327  0.1335  1.0808 -0.6944
 1247TIP3    H225377   2.166   2.057   0.270  0.1279  0.2833 -0.0472
 1248TIP3   OH225378   5.467   3.910   7.795 -0.2282  0.0688  0.0653
 1248TIP3    H125379   5.450   3.970   7.722 -0.9161  1.2766  1.1796
 1248TIP3    H225380   5.477   3.825   7.753 -0.6719  0.7133 -1.4456
 1249TIP3   OH225381   5.699   5.902   7.324  0.1652 -0.3082 -0.1700
 1249TIP3    H125382   5.627   5.965   7.322 -0.4669 -0.9095  1.5436
 1249TIP3    H225383   5.778   5.955   7.308 -0.6440  0.2466 -2.8523
 1250TIP3   OH225384   0.992   5.129   2.524 -0.0945  0.0284  0.6229
 1250TIP3    H125385   0.934   5.204   2.531 -0.9684 -0.2636 -2.3598
 1250TIP3    H225386   1.073   5.164   2.488 -0.1444 -0.2936  0.1905
 1251TIP3   OH225387   4.286   5.139   7.306  0.0775  0.0535 -0.4518
 1251TIP3    H125388   4.335   5.220   7.290  0.7533 -0.1200  0.6752
 1251TIP3    H225389   4.353   5.071   7.304 -0.4021 -0.4127 -0.7523
 1252TIP3   OH225390   2.653   1.849   8.743 -0.7412 -0.2676  0.0116
 1252TIP3    H125391   2.635   1.835   8.651  0.7340 -0.6580 -0.2407
 1252TIP3    H225392   2.646   1.944   8.755  0.3899 -0.0575 -0.8280
 1253TIP3   OH225393   1.469   6.086   6.849  0.2110  0.2104 -0.4224
 1253TIP3    H125394   1.557   6.049   6.856 -0.6434 -1.7549  0.4038
 1253TIP3    H225395   1.421   6.025   6.793 -0.9147  0.7358 -0.0643
 1254TIP3   OH225396   1.885   4.003   8.460  0.4954 -0.0979 -0.5893
 1254TIP3    H125397   1.957   4.012   8.521 -0.7846 -0.5971  1.0640
 1254TIP3    H225398   1.819   3.952   8.507 -0.6872 -0.2241 -2.2662
 1255TIP3   OH225399   0.736   2.012   8.629 -0.7288 -0.4522 -0.5129
 1255TIP3    H125400   0.790   2.039   8.555 -1.5123  0.3594 -0.8072
 1255TIP3    H225401   0.686   2.091   8.652 -0.5370 -0.7112  0.8395
 1256TIP3   OH225402   1.213   5.307   9.205 -0.0265  0.3723  0.2442
 1256TIP3    H125403   1.147   5.250   9.165 -0.6629  1.0773  0.2486
 1256TIP3    H225404   1.214   5.385   9.149 -1.0945  1.4826  1.6645
 1257TIP3   OH225405   1.489   5.669   7.164 -0.0843  0.3421  0.2646
 1257TIP3    H125406   1.479   5.694   7.072  1.6549 -2.0818 -0.6932
 1257TIP3    H225407   1.582   5.654   7.175 -0.3077  0.1352  2.3424
 1258TIP3   OH225408   4.621   3.193   3.139  0.4679  0.3129 -0.3163
 1258TIP3    H125409   4.571   3.175   3.218  0.4580  1.2138 -0.1037
 1258TIP3    H225410   4.638   3.107   3.101  0.5239 -0.1407  0.6938
 1259TIP3   OH225411   0.665   3.655   1.203 -0.9766 -0.4129  0.2505
 1259TIP3    H125412   0.640   3.589   1.138 -0.9206  0.4058 -0.6330
 1259TIP3    H225413   0.695   3.605   1.278 -0.0378 -1.4166 -0.7464
 1260TIP3   OH225414   0.636   4.324   8.061  0.2838 -0.2311  0.1427
 1260TIP3    H125415   0.540   4.325   8.065  0.1802 -0.3839 -1.5293
 1260TIP3    H225416   0.659   4.405   8.017  0.8149 -0.8442 -0.7488
 1261TIP3   OH225417   4.277   4.254   2.899 -0.1518 -0.0763 -0.3184
 1261TIP3    H125418   4.280   4.201   2.979  0.0074  1.7413  0.9671
 1261TIP3    H225419   4.194   4.302   2.906 -1.3815 -1.7091 -2.5554
 1262TIP3   OH225420   3.735   0.661   0.509  0.4512 -0.9404  0.0476
 1262TIP3    H125421   3.779   0.597   0.564  1.8035  1.3270  1.8227
 1262TIP3    H225422   3.670   0.702   0.566  1.1466  0.7398 -0.2797
 1263TIP3   OH225423   2.782   1.552   0.626  0.3276  0.0675  0.2110
 1263TIP3    H125424   2.711   1.608   0.656  1.6550  2.4053 -0.7677
 1263TIP3    H225425   2.862   1.595   0.657  1.4166 -1.3951 -0.4233
 1264TIP3   OH225426   2.131   3.833   2.370  0.7731  0.5747 -0.1524
 1264TIP3    H125427   2.223   3.855   2.382  1.2297 -1.4549  0.4836
 1264TIP3    H225428   2.130   3.780   2.290  0.1620  0.5541 -0.1356
 1265TIP3   OH225429   6.536   5.670   1.599  1.0842  0.0494  0.6262
 1265TIP3    H125430   6.621   5.691   1.638  0.5409  1.5278  1.1223
 1265TIP3    H225431   6.494   5.611   1.662  1.2646  0.3063  0.9883
 1266TIP3   OH225432   4.449   0.476   8.888  0.3629 -0.3030 -0.1900
 1266TIP3    H125433   4.362   0.476   8.927  0.7170  0.5782  0.6426
 1266TIP3    H225434   4.509   0.475   8.963  1.0562  1.7166 -0.6654
 1267TIP3   OH225435   1.327   5.860   1.593  0.2837 -0.1739  0.1115
 1267TIP3    H125436   1.286   5.908   1.521  0.4652  0.2308  0.2756
 1267TIP3    H225437   1.370   5.785   1.552 -0.9248 -0.8132 -0.0304
 1268TIP3   OH225438   2.778   6.461   0.775 -0.5903 -0.4462  0.6183
 1268TIP3    H125439   2.764   6.528   0.841  0.3186  0.8653 -0.4546
 1268TIP3    H225440   2.711   6.478   0.708  2.2236  2.3128 -1.8034
 1269TIP3   OH225441   4.060   5.573   8.677  0.1364 -0.1280  0.3352
 1269TIP3    H125442   4.053   5.478   8.664  1.1052 -0.0395 -1.0153
 1269TIP3    H225443   4.056   5.609   8.589  0.2661  1.0677  0.8041
 1270TIP3   OH225444   3.991   4.940   8.924 -0.4475 -0.9343  0.4047
 1270TIP3    H125445   3.973   4.859   8.971 -1.5953 -1.8234 -1.4551
 1270TIP3    H225446   4.027   4.912   8.840 -2.8710  0.3239 -1.1544
 1271TIP3   OH225447   2.103   5.140   9.164  0.0343  0.1622 -0.2603
 1271TIP3    H125448   2.157   5.063   9.143 -0.8244 -0.1017 -1.6452
 1271TIP3    H225449   2.166   5.206   9.193  0.9177 -0.6721 -0.2212
 1272TIP3   OH225450   5.078   4.334   1.471 -0.2501  0.2132  0.4702
 1272TIP3    H125451   5.000   4.282   1.488 -1.7899  2.8439  2.1199
 1272TIP3    H225452   5.112   4.300   1.388 -3.8929 -0.2364 -1.0088
 1273TIP3   OH225453   6.236   4.053   7.659 -0.0382  0.3414  0.4897
 1273TIP3    H125454   6.165   4.102   7.618  0.7290  0.2592 -0.9896
 1273TIP3    H225455   6.209   4.044   7.751 -2.1047 -0.0144 -0.1103
 1274TIP3   OH225456   0.519   0.183   1.040 -0.3164  0.2463  0.1601
 1274TIP3    H125457   0.436   0.221   1.070 -1.2084 -1.4518 -0.0212
 1274TIP3    H225458   0.513   0.185   0.945  0.0859  0.6225  0.1456
 1275TIP3   OH225459   5.734   1.803   2.180 -0.4470  0.6873 -0.1879
 1275TIP3    H125460   5.815   1.798   2.230 -1.2201  0.0135  1.0269
 1275TIP3    H225461   5.750   1.748   2.103  0.4998  1.1798 -0.3630
 1276TIP3   OH225462   1.172   5.104   7.413  0.0876 -0.0149 -0.2792
 1276TIP3    H125463   1.250   5.160   7.417  0.0774 -0.0263  0.1104
 1276TIP3    H225464   1.183   5.054   7.332  0.1612  0.4536 -0.5617
 1277TIP3   OH225465   5.568   4.341   1.682  0.5201 -0.0404  0.6810
 1277TIP3    H125466   5.481   4.376   1.662  0.7605 -0.2787 -0.9051
 1277TIP3    H225467   5.600   4.397   1.752 -0.6060  0.5426  0.7571
 1278TIP3   OH225468   3.933   5.236   8.929 -0.2837  0.2857  0.0029
 1278TIP3    H125469   3.952   5.267   9.018  0.3008  0.1286 -0.0645
 1278TIP3    H225470   3.938   5.141   8.935 -1.0693  0.2374 -0.0199
 1279TIP3   OH225471   5.400   3.793   8.580  0.3744 -0.1853 -0.2945
 1279TIP3    H125472   5.447   3.771   8.499  0.8271 -1.2357  0.2410
 1279TIP3    H225473   5.451   3.752   8.649 -1.4513 -1.5790  0.2977
 1280TIP3   OH225474   4.966   3.606   7.949 -0.1501  0.0973  0.2559
 1280TIP3    H125475   4.979   3.582   7.857 -0.7147  1.7560 -0.2959
 1280TIP3    H225476   5.049   3.584   7.991  1.0565  1.5828 -1.1881
 1281TIP3   OH225477   1.961   1.969   2.072  0.5602 -0.1681 -0.2217
 1281TIP3    H125478   1.908   1.889   2.075  3.3063 -2.1744  3.1573
 1281TIP3    H225479   2.051   1.939   2.086  2.0556  3.3746 -1.1055
 1282TIP3   OH225480   1.931   6.204   2.145 -0.2691  0.1711 -0.2078
 1282TIP3    H125481   1.895   6.120   2.173 -1.8428  0.3624 -1.5165
 1282TIP3    H225482   1.992   6.228   2.215  0.9900 -2.5023 -0.2514
 1283TIP3   OH225483   3.551   1.666   0.207 -0.2348  0.2565  0.0487
 1283TIP3    H125484   3.508   1.598   0.259 -2.4846  2.0901  0.7602
 1283TIP3    H225485   3.508   1.661   0.122  1.8703 -1.2494 -1.0150
 1284TIP3   OH225486   1.982   4.290   1.260  0.0840 -0.5475 -0.6123
 1284TIP3    H125487   1.896   4.312   1.224 -1.1949  1.3808  3.1491
 1284TIP3    H225488   1.986   4.194   1.256 -2.3786 -0.7137 -0.6300
 1285TIP3   OH225489   6.291   0.950   1.010  0.0884 -0.1352  0.3214
 1285TIP3    H125490   6.363   0.901   0.970 -1.1820  0.3752 -2.9785
 1285TIP3    H225491   6.218   0.888   1.011 -0.4452  0.4742 -0.0877
 1286TIP3   OH225492   1.052   3.375   1.513  0.2848 -0.1437 -0.1462
 1286TIP3    H125493   1.144   3.361   1.492  0.3933  0.3464 -0.0075
 1286TIP3    H225494   1.019   3.288   1.536  0.4845 -0.4791 -1.0645
 1287TIP3   OH225495   0.144   1.272   7.432  0.3282 -0.1364  0.3517
 1287TIP3    H125496   0.062   1.316   7.414  0.7731 -0.5247 -3.4906
 1287TIP3    H225497   0.205   1.342   7.455 -0.4848  0.4516  0.7226
 1288TIP3   OH225498   6.099   4.334   1.470 -0.0475  0.0622  0.0269
 1288TIP3    H125499   6.091   4.280   1.391 -2.5272 -1.6074  1.3005
 1288TIP3    H225500   6.010   4.343   1.502  0.8642  0.8344  2.5612
 1289TIP3   OH225501   3.898   4.496   0.028 -0.1285 -0.4168 -1.0102
 1289TIP3    H125502   3.832   4.516  -0.038 -0.9019 -0.6140 -0.3139
 1289TIP3    H225503   3.981   4.522  -0.012 -0.4525 -1.5273 -2.4697
 1290TIP3   OH225504   1.258   5.173   2.029  0.2303 -0.4162  0.8090
 1290TIP3    H125505   1.273   5.187   1.935 -0.5761 -2.6624  0.2771
 1290TIP3    H225506   1.345   5.177   2.068  1.0930 -2.9277 -0.6147
 1291TIP3   OH225507   2.051   1.026   2.534  0.5716  0.8224  0.8310
 1291TIP3    H125508   2.087   1.021   2.622 -1.0467  0.4144  1.5055
 1291TIP3    H225509   2.121   0.994   2.477  1.4563  0.6070  2.0172
 1292TIP3   OH225510   6.667   5.679   8.006 -0.3933 -0.6328  0.0501
 1292TIP3    H125511   6.715   5.757   8.034 -0.9580  0.2808 -1.4270
 1292TIP3    H225512   6.581   5.687   8.048 -0.3824 -0.5674  0.0592
 1293TIP3   OH225513   6.238   5.823   1.883 -0.2017  0.4120  0.1406
 1293TIP3    H125514   6.181   5.893   1.915 -0.8396 -0.0323 -0.0094
 1293TIP3    H225515   6.314   5.868   1.846 -0.6600  1.0292 -0.0514
 1294TIP3   OH225516   1.736   2.141   1.910  0.5091 -0.1273  0.1657
 1294TIP3    H125517   1.724   2.046   1.911  1.3068 -0.2619  2.6020
 1294TIP3    H225518   1.697   2.171   1.992  1.6959  1.4373  0.2024
 1295TIP3   OH225519   0.942   5.435   7.658 -0.2755  0.3301  0.3524
 1295TIP3    H125520   1.033   5.428   7.630 -0.1454 -1.9834  1.0902
 1295TIP3    H225521   0.896   5.367   7.607 -0.8684 -0.9201  2.4356
 1296TIP3   OH225522   4.011   5.327   9.175  0.0981 -0.3623  0.0449
 1296TIP3    H125523   3.990   5.420   9.165  0.2702 -0.5069 -2.0270
 1296TIP3    H225524   3.982   5.306   9.264 -1.0767  1.3714  0.1267
 1297TIP3   OH225525   0.245   6.028   2.783  0.1152 -0.0672  0.6686
 1297TIP3    H125526   0.155   6.056   2.804 -0.1012 -0.0999 -0.1835
 1297TIP3    H225527   0.300   6.098   2.818 -0.3002  0.4092  0.3893
 1298TIP3   OH225528   3.351   4.451   2.475  0.2318  0.5635 -0.1654
 1298TIP3    H125529   3.304   4.368   2.479 -0.3797  0.7719 -1.9515
 1298TIP3    H225530   3.296   4.507   2.421  1.4173  1.5890 -0.3555
 1299TIP3   OH225531   4.721   5.984   8.857 -0.0766 -0.8616 -0.5141
 1299TIP3    H125532   4.791   5.946   8.805  1.0608  1.0458 -0.4608
 1299TIP3    H225533   4.740   5.957   8.947  0.1730 -0.9563 -0.5958
 1300TIP3   OH225534   0.637   2.008   1.090 -0.2017  0.4777 -0.2737
 1300TIP3    H125535   0.640   2.012   0.994 -0.1912 -0.0112 -0.2973
 1300TIP3    H225536   0.554   2.050   1.113  0.6671  2.3643 -0.3731
 1301TIP3   OH225537   6.286   3.853   0.625 -0.2729  0.1110 -0.1728
 1301TIP3    H125538   6.204   3.872   0.579 -0.2655 -0.3572 -0.3824
 1301TIP3    H225539   6.312   3.766   0.594  0.0926  0.0826  0.1966
 1302TIP3   OH225540   0.345   2.398   1.271 -0.6051  0.0723  0.0065
 1302TIP3    H125541   0.267   2.394   1.216 -1.5452  0.4551  1.2671
 1302TIP3    H225542   0.312   2.401   1.361  0.8802 -1.2855  0.6702
 1303TIP3   OH225543   0.602   4.616   2.069  0.5230 -0.9630  0.4278
 1303TIP3    H125544   0.652   4.586   1.993  0.9544 -1.5551  0.9303
 1303TIP3    H225545   0.565   4.535   2.105 -2.6081 -0.3682 -1.1413
 1304TIP3   OH225546   6.583   1.081   2.917 -0.0153 -0.9019 -0.3829
 1304TIP3    H125547   6.498   1.098   2.876 -0.5106 -0.7908  0.6736
 1304TIP3    H225548   6.567   1.007   2.976  0.2938 -0.0627  0.7933
 1305TIP3   OH225549   4.155   2.329   2.012 -0.6220 -0.0449 -0.0848
 1305TIP3    H125550   4.141   2.421   1.992  1.9538  0.3835 -0.2523
 1305TIP3    H225551   4.207   2.328   2.092  0.9158 -1.2401 -1.0321
 1306TIP3   OH225552   2.776   4.065   2.602  0.0777  0.1452  0.2574
 1306TIP3    H125553   2.859   4.106   2.578  0.7753 -0.9987  0.6256
 1306TIP3    H225554   2.740   4.034   2.519  1.7310 -2.4056  0.3449
 1307TIP3   OH225555   1.868   5.630   8.180  0.2222 -0.6336 -0.4565
 1307TIP3    H125556   1.916   5.698   8.133  0.9236 -0.2009  0.8525
 1307TIP3    H225557   1.824   5.677   8.251 -0.0626 -1.4187 -0.1105
 1308TIP3   OH225558   3.746   6.449   1.595  0.0069 -0.5337 -0.6836
 1308TIP3    H125559   3.667   6.456   1.647  0.8078  0.3266  0.4691
 1308TIP3    H225560   3.717   6.461   1.504 -1.4688 -2.4500 -0.5252
 1309TIP3   OH225561   5.054   3.179   7.100  0.1891  0.2422  0.0451
 1309TIP3    H125562   5.114   3.218   7.036 -0.5643  0.1736 -0.7272
 1309TIP3    H225563   5.094   3.199   7.185  1.4313 -0.0279 -0.4459
 1310TIP3   OH225564   1.352   2.144   1.281 -0.4668  0.3209  0.0489
 1310TIP3    H125565   1.427   2.200   1.301  0.1125 -1.2743  2.9103
 1310TIP3    H225566   1.276   2.195   1.307 -0.0727  0.4815  0.9230
 1311TIP3   OH225567   4.800   5.803   9.083  1.1681 -0.6902 -0.1751
 1311TIP3    H125568   4.818   5.751   9.161 -1.2163 -3.1833 -1.1482
 1311TIP3    H225569   4.826   5.746   9.010  1.0868  0.6300 -1.2672
 1312TIP3   OH225570   3.896   2.739   2.301 -0.0453 -0.4243  0.3418
 1312TIP3    H125571   3.818   2.694   2.334 -1.1255 -1.2645 -3.0018
 1312TIP3    H225572   3.944   2.672   2.252  0.9891  0.8680 -0.4816
 1313TIP3   OH225573   4.863   2.433   0.383  0.4200 -0.6033  0.7015
 1313TIP3    H125574   4.873   2.411   0.290 -1.1245  1.8146 -0.1283
 1313TIP3    H225575   4.952   2.429   0.418  1.4160  0.6937 -1.4511
 1314TIP3   OH225576   2.593   5.090   8.403 -0.2466 -0.0193  0.5119
 1314TIP3    H125577   2.648   5.037   8.345 -1.0509 -0.3454  0.0280
 1314TIP3    H225578   2.508   5.092   8.359 -1.1882 -1.1458  2.1851
 1315TIP3   OH225579   4.987   2.161   8.379 -0.0174 -0.0730 -0.1673
 1315TIP3    H125580   5.035   2.241   8.356 -2.7296  1.4432 -0.9526
 1315TIP3    H225581   5.034   2.092   8.334  1.2743  1.3583 -1.1292
 1316TIP3   OH225582   4.734   4.437   1.554  0.3494  0.7679  0.2621
 1316TIP3    H125583   4.737   4.401   1.643  0.5286 -0.0386 -0.0639
 1316TIP3    H225584   4.711   4.362   1.499  1.3883  1.0084 -0.5146
 1317TIP3   OH225585   2.120   0.420   1.826  0.1500 -0.0057  0.1983
 1317TIP3    H125586   2.157   0.332   1.835  1.6836  0.6586  0.6961
 1317TIP3    H225587   2.120   0.437   1.732  0.3832 -0.3201  0.1408
 1318TIP3   OH225588   3.429   6.591   0.465  0.2085  0.0833  0.0474
 1318TIP3    H125589   3.409   6.507   0.425  1.0311  0.0486 -0.3050
 1318TIP3    H225590   3.406   6.579   0.558  3.4907 -1.7254  0.7832
 1319TIP3   OH225591   1.885   3.906   7.534  0.0350  0.0077 -0.2262
 1319TIP3    H125592   1.969   3.945   7.511  0.3430 -0.1916  0.5061
 1319TIP3    H225593   1.840   3.974   7.584  0.9983 -0.8532  1.9599
 1320TIP3   OH225594   5.202   3.032   1.410 -0.2642 -0.3216  0.1841
 1320TIP3    H125595   5.194   3.119   1.371 -1.5789 -1.2354 -1.7099
 1320TIP3    H225596   5.147   3.036   1.489  1.2127  1.0865  1.2169
 1321TIP3   OH225597   6.292   1.442   1.403 -0.4570 -0.2764 -0.2889
 1321TIP3    H125598   6.210   1.451   1.451  0.8255  0.8931  1.8426
 1321TIP3    H225599   6.316   1.349   1.414 -1.8643 -0.8394 -1.6656
 1322TIP3   OH225600   0.184   5.275   8.067 -0.3925  0.1027  0.5717
 1322TIP3    H125601   0.233   5.319   8.137  0.1524  1.8623 -0.8423
 1322TIP3    H225602   0.208   5.323   7.988 -0.9677 -1.8388 -0.8505
 1323TIP3   OH225603   2.445   3.153   0.040 -0.2470 -0.5565  0.0280
 1323TIP3    H125604   2.444   3.203  -0.042  2.0077  0.5938  0.6266
 1323TIP3    H225605   2.413   3.066   0.015 -1.6147  0.3567 -1.6085
 1324TIP3   OH225606   0.201   2.624   8.800  0.7479 -0.9446  0.0750
 1324TIP3    H125607   0.134   2.690   8.819  1.9331  0.0941  0.8049
 1324TIP3    H225608   0.214   2.579   8.883  0.5908 -1.4979 -0.1980
 1325TIP3   OH225609   6.170   5.792   7.827 -0.2026  0.8346 -0.2338
 1325TIP3    H125610   6.223   5.867   7.853  0.6551  0.3744 -0.5710
 1325TIP3    H225611   6.177   5.731   7.900  0.8878  0.2059 -0.8329
 1326TIP3   OH225612   5.363   1.518   1.636 -0.5928  0.7726  0.2025
 1326TIP3    H125613   5.344   1.557   1.551  0.9019  0.1875 -0.4152
 1326TIP3    H225614   5.452   1.544   1.656  0.0669 -1.3243  0.2961
 1327TIP3   OH225615   2.654   1.237   1.371  0.7315 -0.1812 -0.0948
 1327TIP3    H125616   2.663   1.156   1.320 -3.1305 -1.0806  0.3859
 1327TIP3    H225617   2.621   1.301   1.309  0.0338 -0.0918  0.3616
 1328TIP3   OH225618   6.658   0.912   1.184  0.2466 -0.2064  0.0966
 1328TIP3    H125619   6.565   0.895   1.200  0.6531 -1.4452  1.3576
 1328TIP3    H225620   6.689   0.954   1.265  1.1576 -1.4983  0.4554
 1329TIP3   OH225621   0.282   0.208   0.078  0.0627  0.1264 -0.5222
 1329TIP3    H125622   0.271   0.276   0.012  0.7345  0.7701  0.0101
 1329TIP3    H225623   0.255   0.250   0.160  0.2744 -0.3109 -0.2257
 1330TIP3   OH225624   5.827   6.545   0.928  0.0178 -0.6228 -0.5261
 1330TIP3    H125625   5.761   6.577   0.867  0.9122 -1.0832 -1.7639
 1330TIP3    H225626   5.779   6.485   0.985 -0.4995 -1.5905 -1.9243
 1331TIP3   OH225627   2.506   3.267   7.043 -0.9774  0.2608 -0.0317
 1331TIP3    H125628   2.457   3.200   7.091  1.0061 -1.0469  0.2650
 1331TIP3    H225629   2.537   3.221   6.964  1.8647  0.2353  0.9997
 1332TIP3   OH225630   6.354   3.324   8.434 -0.5348  0.1337  0.3170
 1332TIP3    H125631   6.337   3.308   8.341 -0.2829  0.7616  0.1520
 1332TIP3    H225632   6.284   3.383   8.462 -1.1794 -0.8374  0.7878
 1333TIP3   OH225633   4.017   1.923   0.780  0.1947 -0.1078 -0.1433
 1333TIP3    H125634   3.954   1.851   0.780 -1.9880  1.6955  0.4999
 1333TIP3    H225635   4.007   1.963   0.694 -0.8638  1.2255  0.5662
 1334TIP3   OH225636   2.107   5.068   2.281 -0.4362 -0.2687 -0.4220
 1334TIP3    H125637   2.190   5.046   2.324  0.3217 -0.6163 -1.9633
 1334TIP3    H225638   2.111   5.162   2.266 -1.0061 -0.0281  0.8298
 1335TIP3   OH225639   0.212   1.689   8.917 -0.0853 -0.0557  0.1428
 1335TIP3    H125640   0.280   1.695   8.984  1.1231  0.1041 -1.0684
 1335TIP3    H225641   0.211   1.597   8.892  1.0276  0.2729 -1.1768
 1336TIP3   OH225642   4.523   3.070   0.105 -0.0833  0.6060 -0.3204
 1336TIP3    H125643   4.487   3.126   0.173 -0.4823  1.0326 -0.8706
 1336TIP3    H225644   4.489   2.982   0.125  0.2282  0.6247  0.3178
 1337TIP3   OH225645   3.363   5.179   7.615  0.0477 -0.0531  0.1743
 1337TIP3    H125646   3.292   5.197   7.677 -0.9150 -1.1726 -0.5485
 1337TIP3    H225647   3.350   5.088   7.590  1.6893 -0.2362 -0.0783
 1338TIP3   OH225648   2.345   1.153   8.819 -0.2864  0.2639 -0.4874
 1338TIP3    H125649   2.414   1.167   8.884  0.0846  1.9537 -1.1866
 1338TIP3    H225650   2.296   1.236   8.818 -0.4948  0.1533 -2.0935
 1339TIP3   OH225651   5.297   1.991   0.356  0.1476  0.1599 -0.7216
 1339TIP3    H125652   5.208   1.999   0.323  0.3158  0.2331 -1.1713
 1339TIP3    H225653   5.287   1.961   0.446 -0.3582  0.9348 -0.5107
 1340TIP3   OH225654   2.477   2.842   8.427 -0.0196 -0.0193  0.3675
 1340TIP3    H125655   2.502   2.752   8.448 -1.1619 -0.3144  0.5758
 1340TIP3    H225656   2.488   2.848   8.332  0.9018 -0.0910  0.4607
 1341TIP3   OH225657   0.612   3.490   1.430  0.0310 -0.4864  0.4336
 1341TIP3    H125658   0.543   3.466   1.493  0.5931 -1.7919  0.5926
 1341TIP3    H225659   0.586   3.447   1.349  1.1394 -1.8627  0.7600
 1342TIP3   OH225660   4.169   0.477   9.009 -0.3727  0.2898  0.2632
 1342TIP3    H125661   4.132   0.427   8.936 -0.1582 -0.3530  0.5866
 1342TIP3    H225662   4.092   0.511   9.055 -0.5016  1.1414 -0.5522
 1343TIP3   OH225663   1.143   0.344   7.874  0.2963 -0.0667 -0.7842
 1343TIP3    H125664   1.077   0.413   7.870  0.0989 -0.2974 -1.6356
 1343TIP3    H225665   1.098   0.266   7.843  0.2253 -0.8360  1.1331
 1344TIP3   OH225666   0.512   5.726   8.422  0.7361  0.0398  0.3287
 1344TIP3    H125667   0.416   5.723   8.424  0.1915  1.9226 -5.1060
 1344TIP3    H225668   0.535   5.802   8.474 -0.7578 -0.0941  1.2440
 1345TIP3   OH225669   4.820   6.299   8.717 -0.0662  0.0483 -0.0878
 1345TIP3    H125670   4.768   6.366   8.673  0.2530 -0.1596 -0.8069
 1345TIP3    H225671   4.899   6.292   8.664 -0.8546 -2.1468 -1.1368
 1346TIP3   OH225672   1.865   1.905   8.913  0.1449 -0.4941 -0.1649
 1346TIP3    H125673   1.870   1.814   8.942  1.8699 -0.3629  0.0581
 1346TIP3    H225674   1.865   1.900   8.817 -0.1299 -0.7422 -0.1509
 1347TIP3   OH225675   4.687   4.135   0.621 -0.4805  0.0270  0.0950
 1347TIP3    H125676   4.721   4.061   0.570 -1.9841 -0.0933 -0.8111
 1347TIP3    H225677   4.656   4.096   0.703  0.0895 -0.1086  0.2474
 1348TIP3   OH225678   4.459   2.897   2.412 -0.4217 -0.3986  0.0019
 1348TIP3    H125679   4.529   2.845   2.371 -1.2012 -1.2604 -0.2645
 1348TIP3    H225680   4.394   2.909   2.343 -1.7418 -1.8507  0.9311
 1349TIP3   OH225681   4.279   2.902   0.841 -0.0621 -0.2558 -0.6770
 1349TIP3    H125682   4.237   2.832   0.790  1.0064 -0.7667 -0.8822
 1349TIP3    H225683   4.356   2.925   0.790  0.9259 -0.6407  0.6051
 1350TIP3   OH225684   4.923   6.368   8.402 -0.5350  0.2521  0.5815
 1350TIP3    H125685   4.843   6.319   8.384  0.1382  0.1112 -2.6329
 1350TIP3    H225686   4.993   6.302   8.398  0.0304  0.8753  0.0561
 1351TIP3   OH225687   0.037   4.764   8.352  0.0658  0.1331 -0.4060
 1351TIP3    H125688   0.018   4.858   8.351  2.5745  0.7651  1.4341
 1351TIP3    H225689   0.011   4.735   8.440  0.5062 -0.6142 -0.5134
 1352TIP3   OH225690   4.320   1.817   2.399 -0.4731 -0.4039  0.9186
 1352TIP3    H125691   4.407   1.779   2.387 -0.8446 -0.6683 -1.3684
 1352TIP3    H225692   4.331   1.879   2.472  1.7347 -0.1071  0.4171
 1353TIP3   OH225693   4.800   3.292   9.115  0.5194 -0.2506 -0.5182
 1353TIP3    H125694   4.819   3.208   9.156  0.4177  0.3180  0.7543
 1353TIP3    H225695   4.756   3.343   9.184 -0.1524  0.5616 -1.5092
 1354TIP3   OH225696   3.806   5.699   7.540  0.0373 -0.6410  0.0842
 1354TIP3    H125697   3.747   5.715   7.466 -0.7390 -2.1694  0.3309
 1354TIP3    H225698   3.783   5.768   7.603 -0.5930 -0.4410 -0.3514
 1355TIP3   OH225699   3.117   3.578   1.212 -0.0631  0.3493 -0.0050
 1355TIP3    H125700   3.155   3.661   1.184 -1.5873  1.5466  1.2851
 1355TIP3    H225701   3.032   3.601   1.248 -1.0457 -1.9317 -0.6502
 1356TIP3   OH225702   1.367   0.249   8.735 -0.4303 -0.2149  0.7924
 1356TIP3    H125703   1.284   0.275   8.775 -0.7065 -1.1695  0.8536
 1356TIP3    H225704   1.342   0.186   8.667  0.1980 -0.0701  0.4208
 1357TIP3   OH225705   6.435   1.950   8.314 -0.4071  0.2489 -0.4757
 1357TIP3    H125706   6.354   1.942   8.365 -0.7813 -0.5898 -1.1639
 1357TIP3    H225707   6.502   1.969   8.379 -0.8907 -0.6705  0.3219
 1358TIP3   OH225708   6.236   6.039   8.555  0.4249 -0.2387  0.2232
 1358TIP3    H125709   6.282   6.123   8.556  1.1826 -0.6003 -1.4743
 1358TIP3    H225710   6.306   5.973   8.550 -0.1883 -0.7993 -2.3069
 1359TIP3   OH225711   5.545   6.162   2.873  0.5372  0.3906  0.3853
 1359TIP3    H125712   5.583   6.096   2.816 -1.2303 -0.0644 -0.3580
 1359TIP3    H225713   5.578   6.142   2.960  1.9701  0.0674 -0.2132
 1360TIP3   OH225714   1.121   2.494   8.868  0.1154  0.4008 -0.4746
 1360TIP3    H125715   1.094   2.441   8.793 -1.5563 -2.1894  1.7637
 1360TIP3    H225716   1.039   2.525   8.906  0.7762 -0.1017  1.4347
 1361TIP3   OH225717   3.213   5.074   7.050  0.2491  0.5424 -0.1172
 1361TIP3    H125718   3.271   4.997   7.057 -0.7632 -0.2768 -0.5379
 1361TIP3    H225719   3.260   5.134   6.992  1.7983  0.9679  1.4831
 1362TIP3   OH225720   4.730   0.716   0.639 -0.2082 -0.5898  0.1262
 1362TIP3    H125721   4.711   0.667   0.719 -1.2821  0.3031  0.4399
 1362TIP3    H225722   4.776   0.654   0.582 -0.3646 -1.5386  1.0258
 1363TIP3   OH225723   3.973   0.640   1.082 -0.6293 -0.2867  0.3066
 1363TIP3    H125724   3.926   0.706   1.133 -1.5163 -0.3078 -0.4484
 1363TIP3    H225725   3.993   0.571   1.145 -0.8797  0.1078  0.8259
 1364TIP3   OH225726   0.117   5.450   0.856  0.1310  0.5408  0.3781
 1364TIP3    H125727   0.112   5.384   0.926  1.1548 -0.5587 -0.5560
 1364TIP3    H225728   0.099   5.401   0.776  0.7073  1.4520 -0.3188
 1365TIP3   OH225729   0.235   3.202   0.625 -0.3815  0.1412  0.1293
 1365TIP3    H125730   0.255   3.143   0.697 -0.3381  1.0026  0.8422
 1365TIP3    H225731   0.237   3.146   0.547 -1.3703 -0.9981  0.8816
 1366TIP3   OH225732   4.429   6.149   8.978  0.3274  0.1926 -0.5641
 1366TIP3    H125733   4.485   6.140   9.055 -0.1874 -0.3464 -0.2409
 1366TIP3    H225734   4.484   6.118   8.905  0.5950  0.0798 -0.3162
 1367TIP3   OH225735   5.230   3.797   9.003  0.1499 -0.3538  0.2265
 1367TIP3    H125736   5.314   3.811   8.958 -0.0076 -0.3129 -0.0605
 1367TIP3    H225737   5.211   3.704   8.989 -0.5597 -0.0542 -0.9695
 1368TIP3   OH225738   3.740   6.419   2.475  0.5283  0.1079 -0.5442
 1368TIP3    H125739   3.811   6.395   2.534  0.5714 -0.6023 -0.8701
 1368TIP3    H225740   3.783   6.466   2.403  0.3335  2.1300  0.5682
 1369TIP3   OH225741   4.763   1.568   1.848 -0.3989 -0.0236 -0.0510
 1369TIP3    H125742   4.734   1.650   1.886  0.5758 -0.8964  2.8538
 1369TIP3    H225743   4.826   1.593   1.781 -0.7468  1.6103  0.2048
 1370TIP3   OH225744   3.679   3.193   2.541 -0.1600 -0.0399 -0.2503
 1370TIP3    H125745   3.610   3.251   2.573  0.1077  0.2287 -0.1542
 1370TIP3    H225746   3.754   3.250   2.527  0.6230 -0.5919  1.4040
 1371TIP3   OH225747   0.298   1.145   8.952  0.2172  0.4755  0.2255
 1371TIP3    H125748   0.382   1.101   8.963 -0.2270 -0.7986 -1.1254
 1371TIP3    H225749   0.247   1.118   9.029  0.2377 -0.7248 -0.1673
 1372TIP3   OH225750   6.193   3.521   8.577 -0.0206  0.6431  0.2460
 1372TIP3    H125751   6.140   3.475   8.642 -0.6537  0.3079 -0.4888
 1372TIP3    H225752   6.216   3.604   8.619 -2.6669  1.6093 -0.0611
 1373TIP3   OH225753   3.020   0.938   8.207  0.3537 -0.1421 -0.0023
 1373TIP3    H125754   3.029   0.991   8.128 -2.7942  0.4339 -0.1156
 1373TIP3    H225755   3.042   0.998   8.279 -1.4074  0.8476 -0.2337
 1374TIP3   OH225756   1.724   3.087   8.606 -0.4233 -0.6015  0.1800
 1374TIP3    H125757   1.710   3.180   8.590  0.4100 -0.2672  1.2455
 1374TIP3    H225758   1.644   3.044   8.576 -1.4738  0.6321  1.1154
 1375TIP3   OH225759   0.612   1.827   8.468  0.3866 -0.0006  0.0550
 1375TIP3    H125760   0.612   1.867   8.381  1.0808  1.3638  0.6435
 1375TIP3    H225761   0.640   1.898   8.527  3.6675 -1.8094  0.9555
 1376TIP3   OH225762   3.370   2.602   9.202  0.0552 -0.6577 -0.0732
 1376TIP3    H125763   3.305   2.532   9.190 -0.6280 -0.1132  0.3349
 1376TIP3    H225764   3.443   2.559   9.246  0.1504 -1.3726 -0.9061
 1377TIP3   OH225765   0.105   6.601   1.211  0.0219  0.1424 -0.4565
 1377TIP3    H125766   0.160   6.535   1.254 -0.6283  0.7546  1.3918
 1377TIP3    H225767   0.027   6.552   1.182 -0.9810  0.2035  1.9010
 1378TIP3   OH225768   5.089   4.817   7.970 -0.4214 -0.1353 -0.0420
 1378TIP3    H125769   5.058   4.863   7.892  0.8204  0.1205 -0.4046
 1378TIP3    H225770   5.137   4.883   8.020  0.1678 -0.6813  0.1335
 1379TIP3   OH225771   4.178   1.294   3.049  0.7943  0.0845  0.6343
 1379TIP3    H125772   4.188   1.358   3.120 -3.0099  0.1416  1.3404
 1379TIP3    H225773   4.146   1.215   3.092 -0.4473 -0.2656 -0.8343
 1380TIP3   OH225774   1.494   2.712   2.426  0.7442 -0.2973 -0.3358
 1380TIP3    H125775   1.422   2.692   2.485  0.2360 -0.1020 -0.8735
 1380TIP3    H225776   1.572   2.679   2.470  0.1597 -1.7821 -0.3695
 1381TIP3   OH225777   5.498   3.710   7.587  0.6510  0.4949  0.0405
 1381TIP3    H125778   5.588   3.713   7.618  0.7432  0.8997 -0.2582
 1381TIP3    H225779   5.493   3.777   7.519  0.8418 -1.3049 -1.8616
 1382TIP3   OH225780   0.150   6.239   0.968  0.0748 -0.9762  0.1900
 1382TIP3    H125781   0.206   6.189   0.909  2.9409  2.3302 -0.2441
 1382TIP3    H225782   0.089   6.284   0.910 -0.5910 -1.6931  0.3147
 1383TIP3   OH225783   3.218   5.585   8.252 -0.0173 -0.1821  0.6521
 1383TIP3    H125784   3.247   5.669   8.219 -0.4448  0.9745  2.9869
 1383TIP3    H225785   3.146   5.606   8.312 -0.4048 -2.2340  0.9929
 1384TIP3   OH225786   3.599   5.699   2.029  0.4411 -0.6161  0.2776
 1384TIP3    H125787   3.519   5.703   1.976 -0.0064 -0.4769  0.9574
 1384TIP3    H225788   3.569   5.712   2.119  1.3983  0.9304  0.3994
 1385TIP3   OH225789   5.575   4.980   7.302  0.4383  0.1551  0.1349
 1385TIP3    H125790   5.595   4.887   7.292 -0.3725  0.1640 -2.0894
 1385TIP3    H225791   5.481   4.987   7.287  0.3319  1.2638  1.0909
 1386TIP3   OH225792   4.178   1.006   2.947  0.3880 -0.1359 -0.0665
 1386TIP3    H125793   4.273   1.007   2.958  0.3503  1.0632  0.2305
 1386TIP3    H225794   4.143   1.008   3.036  0.0739 -0.7682 -0.1691
 1387TIP3   OH225795   5.669   3.036   0.138  0.3560 -0.2001  0.3144
 1387TIP3    H125796   5.740   3.062   0.080  0.5953 -1.5923 -0.0485
 1387TIP3    H225797   5.708   2.969   0.195 -0.7679 -1.3590 -0.2260
 1388TIP3   OH225798   5.866   2.233   8.051  0.3504 -0.2857 -0.0032
 1388TIP3    H125799   5.862   2.263   8.142 -0.2522 -2.8304  0.8877
 1388TIP3    H225800   5.785   2.184   8.038  1.6225 -2.2340 -1.0205
 1389TIP3   OH225801   2.359   0.147   7.929 -0.4543 -0.2490  0.1370
 1389TIP3    H125802   2.291   0.213   7.936  0.5060  0.7830  0.0270
 1389TIP3    H225803   2.314   0.064   7.947 -1.6535  0.4327  0.3951
 1390TIP3   OH225804   2.741   0.510   0.841 -0.0422 -0.0004 -0.3613
 1390TIP3    H125805   2.832   0.527   0.864 -0.3487  1.5696 -0.2227
 1390TIP3    H225806   2.711   0.449   0.908  0.7500 -0.1358 -0.1151
 1391TIP3   OH225807   4.024   4.279   1.653 -0.3396 -0.2970  0.1756
 1391TIP3    H125808   4.036   4.310   1.743 -2.7907  0.1025  0.4327
 1391TIP3    H225809   3.993   4.357   1.605  1.2360 -0.4256 -1.1146
 1392TIP3   OH225810   5.992   1.062   8.847  0.2015  0.0612 -0.1513
 1392TIP3    H125811   6.069   1.115   8.869 -0.4656  0.7193  0.6932
 1392TIP3    H225812   5.979   1.006   8.923 -0.0722 -0.1406 -0.3449
 1393TIP3   OH225813   4.280   0.750   1.387 -0.0830  0.0657 -0.3751
 1393TIP3    H125814   4.354   0.743   1.327 -0.3770  0.5012 -0.7910
 1393TIP3    H225815   4.247   0.839   1.375 -0.7768 -0.1768 -0.3159
 1394TIP3   OH225816   3.482   5.016   8.235  0.1652  0.4140  0.0741
 1394TIP3    H125817   3.513   4.937   8.280  2.1934  0.7118 -0.6989
 1394TIP3    H225818   3.530   5.087   8.277  0.6819  0.8983 -1.3073
 1395TIP3   OH225819   6.222   5.462   0.728  0.0140 -0.5538 -0.5948
 1395TIP3    H125820   6.239   5.481   0.820  3.1485 -2.0580 -0.7128
 1395TIP3    H225821   6.208   5.547   0.688  0.1771  0.2762  1.0119
 1396TIP3   OH225822   6.242   2.770   7.736  0.2438 -0.2208  1.0595
 1396TIP3    H125823   6.156   2.776   7.693  0.2222  2.1050  1.2933
 1396TIP3    H225824   6.248   2.679   7.764 -2.3483 -0.3809  1.3940
 1397TIP3   OH225825   5.930   2.701   9.182  0.6794 -0.1889 -0.1412
 1397TIP3    H125826   5.906   2.774   9.124 -0.8408 -0.1389  0.4951
 1397TIP3    H225827   5.847   2.671   9.218  1.4364 -1.2587  0.7874
 1398TIP3   OH225828   2.420   5.813   1.459  0.3677  0.2604  0.1768
 1398TIP3    H125829   2.414   5.734   1.513 -2.0972  0.9664  1.0795
 1398TIP3    H225830   2.445   5.882   1.520  0.0441  0.6242 -0.0991
 1399TIP3   OH225831   1.209   5.573   8.597 -0.7430  0.3359  0.1202
 1399TIP3    H125832   1.163   5.655   8.578 -0.3286  0.8066  1.0502
 1399TIP3    H225833   1.204   5.565   8.693 -0.6547 -0.6590  0.0549
 1400TIP3   OH225834   0.961   6.340   1.025 -0.6048  0.3402 -0.0006
 1400TIP3    H125835   0.901   6.411   1.001 -2.0148  0.0164  2.3415
 1400TIP3    H225836   0.904   6.267   1.049  0.7912 -1.8537 -2.6806
 1401TIP3   OH225837   5.325   1.925   1.434 -0.0595 -0.3899  0.0714
 1401TIP3    H125838   5.342   1.948   1.525 -0.6828 -1.4160  0.4597
 1401TIP3    H225839   5.412   1.914   1.395  0.2043 -0.5883  0.7102
 1402TIP3   OH225840   3.155   0.905   3.409 -0.9838 -0.0486  0.6382
 1402TIP3    H125841   3.162   0.869   3.497 -1.7810  0.3823  0.8884
 1402TIP3    H225842   3.139   0.998   3.421  0.6947  0.3658 -0.0053
 1403TIP3   OH225843   5.053   3.291   7.949  0.6343  0.2290  0.0231
 1403TIP3    H125844   5.015   3.378   7.953  0.7930  0.3728 -1.2776
 1403TIP3    H225845   5.128   3.295   8.009 -0.4976  0.3610  1.5017
 1404TIP3   OH225846   3.159   1.727   0.462  1.2190  0.4072 -0.1160
 1404TIP3    H125847   3.250   1.755   0.469  1.3973 -0.4132  1.0346
 1404TIP3    H225848   3.110   1.794   0.509  1.3918  0.0987  0.5183
 1405TIP3   OH225849   5.783   0.439   1.547 -0.2246 -0.2177  0.0602
 1405TIP3    H125850   5.712   0.503   1.550  0.1227  0.1383  1.5927
 1405TIP3    H225851   5.812   0.439   1.455 -0.9192  1.0487 -0.1768
 1406TIP3   OH225852   3.836   5.180   1.585 -0.2589  0.3779 -0.2660
 1406TIP3    H125853   3.784   5.150   1.659  1.0038  0.1847  0.5771
 1406TIP3    H225854   3.890   5.105   1.562 -0.8352  0.3388 -1.6014
 1407TIP3   OH225855   6.373   6.312   8.457  0.2697 -0.6533  0.2158
 1407TIP3    H125856   6.415   6.270   8.381  2.9075  0.2844  1.0501
 1407TIP3    H225857   6.411   6.400   8.460 -1.4595  0.1138  1.3758
 1408TIP3   OH225858   0.481   4.769   8.242 -0.5386  0.0369  0.0109
 1408TIP3    H125859   0.466   4.675   8.245 -1.8076  0.2559  1.6767
 1408TIP3    H225860   0.507   4.786   8.151  1.5843 -2.1518  0.0879
 1409TIP3   OH225861   1.021   6.657   9.131 -0.4828 -0.3911  0.1933
 1409TIP3    H125862   1.037   6.572   9.092  0.6300  0.4056 -1.1865
 1409TIP3    H225863   0.926   6.666   9.132 -0.5688 -0.7496 -1.7147
 1410TIP3   OH225864   2.809   2.931   3.305  0.1253  0.0885  0.0027
 1410TIP3    H125865   2.850   2.996   3.362  1.4317 -1.4934  0.9779
 1410TIP3    H225866   2.843   2.951   3.218 -0.0087  1.0957  0.1658
 1411TIP3   OH225867   3.192   4.917   1.518 -0.4105 -0.0894  0.0270
 1411TIP3    H125868   3.254   4.932   1.589 -2.2118  1.0810  1.4776
 1411TIP3    H225869   3.148   4.835   1.541 -0.0451 -0.4373 -0.5012
 1412TIP3   OH225870   1.380   0.906   7.926 -0.3025  0.8663 -1.2995
 1412TIP3    H125871   1.291   0.930   7.952  0.0145  1.0031 -0.2949
 1412TIP3    H225872   1.436   0.957   7.984  0.4016 -1.1395 -0.1218
 1413TIP3   OH225873   3.181   2.592   0.265 -0.7997 -0.4230 -0.3337
 1413TIP3    H125874   3.223   2.506   0.273  0.8595  0.3702  0.1446
 1413TIP3    H225875   3.240   2.642   0.209  0.8877  1.8230  3.0752
 1414TIP3   OH225876   4.005   1.405   9.028 -0.3019  0.0754 -0.3474
 1414TIP3    H125877   4.079   1.466   9.032  0.3204 -0.6016 -1.3254
 1414TIP3    H225878   4.042   1.320   9.047 -1.2413  0.0018  1.3900
 1415TIP3   OH225879   3.379   2.952   8.729 -0.3330  0.3283 -0.2760
 1415TIP3    H125880   3.432   2.960   8.649  0.8749 -1.5553  0.2562
 1415TIP3    H225881   3.337   2.866   8.721  1.0236 -0.6080  1.7407
 1416TIP3   OH225882   0.173   5.216   8.448 -0.2920 -0.2666 -0.1422
 1416TIP3    H125883   0.211   5.133   8.420 -1.3672 -0.8009 -0.0982
 1416TIP3    H225884   0.236   5.283   8.420  1.3852 -1.1878  1.2991
 1417TIP3   OH225885   1.103   3.985   0.086 -0.4671 -0.1124  0.6081
 1417TIP3    H125886   1.058   4.064   0.116 -0.9350 -0.7288  1.5650
 1417TIP3    H225887   1.196   4.005   0.094 -0.5871  0.1979  1.2517
 1418TIP3   OH225888   0.389   4.474   8.209 -0.0045 -0.1124 -0.3755
 1418TIP3    H125889   0.306   4.514   8.236  0.2316 -1.1067  2.0824
 1418TIP3    H225890   0.366   4.415   8.138 -1.4614 -0.5300  0.4186
 1419TIP3   OH225891   5.966   3.169   1.308  0.0085 -0.2106 -0.2068
 1419TIP3    H125892   6.023   3.246   1.310 -0.7767  0.3658  0.4391
 1419TIP3    H225893   5.878   3.204   1.305 -0.4472 -1.0624  1.8737
 1420TIP3   OH225894   3.148   5.643   7.659  0.1371  0.0147 -0.1027
 1420TIP3    H125895   3.056   5.651   7.631 -0.3316 -1.1586  0.9988
 1420TIP3    H225896   3.148   5.677   7.749  0.4528 -1.3919  0.4528
 1421TIP3   OH225897   5.798   3.802   1.510 -0.0816 -0.1175  0.1585
 1421TIP3    H125898   5.748   3.775   1.587  0.1959  0.4764  0.5491
 1421TIP3    H225899   5.861   3.865   1.543  0.2205 -0.0613 -0.5139
 1422TIP3   OH225900   0.314   4.175   2.005 -0.2299 -0.0263 -0.2226
 1422TIP3    H125901   0.261   4.211   2.076 -1.3492 -1.6969 -0.1541
 1422TIP3    H225902   0.263   4.193   1.925  0.5917  1.0482 -0.5245
 1423TIP3   OH225903   4.337   1.767   7.876  0.2959  0.3886  0.3640
 1423TIP3    H125904   4.371   1.741   7.790  1.7328  0.1215  0.9824
 1423TIP3    H225905   4.362   1.859   7.885  0.1256  0.4233  0.4896
 1424TIP3   OH225906   3.387   2.636   0.554  0.3481  0.4491 -0.1455
 1424TIP3    H125907   3.379   2.541   0.547  2.0197  0.3929 -2.7468
 1424TIP3    H225908   3.297   2.667   0.560 -0.2369 -1.2635  0.5330
 1425TIP3   OH225909   1.813   5.787   1.924  0.0721 -0.2297  0.0493
 1425TIP3    H125910   1.811   5.703   1.877  0.7686 -0.1043 -0.2150
 1425TIP3    H225911   1.810   5.762   2.016  1.2207 -0.5991 -0.0000
 1426TIP3   OH225912   1.686   3.307   7.064 -0.0852  0.4343  0.1408
 1426TIP3    H125913   1.776   3.305   7.030 -0.2515  0.4891 -0.3053
 1426TIP3    H225914   1.686   3.380   7.125  0.0589  0.7105 -0.1856
 1427TIP3   OH225915   2.682   6.629   1.484  0.2647  0.4379 -0.5437
 1427TIP3    H125916   2.614   6.570   1.517  0.5334  0.1601 -0.4808
 1427TIP3    H225917   2.636   6.687   1.423 -0.2519  0.9943  0.3566
 1428TIP3   OH225918   4.352   5.913   8.673  0.2163 -0.1523 -0.1818
 1428TIP3    H125919   4.304   5.902   8.755  1.1680 -3.9398  0.0494
 1428TIP3    H225920   4.440   5.940   8.699  0.4275 -1.0398  0.0464
 1429TIP3   OH225921   0.545   5.258   0.838  0.0360 -0.1159  0.3903
 1429TIP3    H125922   0.606   5.312   0.889 -0.0681  0.3433  0.0264
 1429TIP3    H225923   0.602   5.197   0.790  0.0913 -1.4406  2.0252
 1430TIP3   OH225924   4.968   3.073   0.310 -0.2028  0.4799  0.0426
 1430TIP3    H125925   4.983   2.981   0.332 -0.9834  0.2725 -0.2429
 1430TIP3    H225926   5.048   3.102   0.267 -0.1674 -0.2351 -0.3814
 1431TIP3   OH225927   0.824   0.757   7.672 -0.1905 -0.5186  0.4169
 1431TIP3    H125928   0.752   0.772   7.732 -3.2979 -0.7349 -2.8965
 1431TIP3    H225929   0.824   0.833   7.614  1.7213 -0.9166 -0.1923
 1432TIP3   OH225930   3.136   0.033   8.935 -0.1193 -0.0201 -0.0784
 1432TIP3    H125931   3.103   0.115   8.899  0.6789  0.7737  0.9500
 1432TIP3    H225932   3.096  -0.035   8.880 -0.6265  1.0512 -1.0712
 1433TIP3   OH225933   3.126   6.290   1.601 -0.5507 -0.2814  0.4885
 1433TIP3    H125934   3.081   6.356   1.549 -1.0802 -1.0151 -0.0043
 1433TIP3    H225935   3.174   6.340   1.667 -0.4012  0.6294 -0.2849
 1434TIP3   OH225936   1.429   2.606   0.869  0.1751  0.2528  0.3991
 1434TIP3    H125937   1.465   2.587   0.956 -1.7912 -0.9469  1.0283
 1434TIP3    H225938   1.498   2.578   0.808  0.7541 -0.9553  1.5491
 1435TIP3   OH225939   0.016   2.653   1.011 -0.6295  0.1436  0.2174
 1435TIP3    H125940  -0.069   2.610   1.021 -0.6202  0.0788  0.0328
 1435TIP3    H225941   0.053   2.655   1.099 -0.4805 -0.5477  0.1775
 1436TIP3   OH225942   6.614   2.023   0.427 -0.7486  0.5436 -0.1454
 1436TIP3    H125943   6.603   1.991   0.337  0.1899 -1.1757  0.3016
 1436TIP3    H225944   6.605   1.944   0.481 -0.7936  1.4660  1.2370
 1437TIP3   OH225945   3.777   1.774   8.590  0.1769  0.4363  0.4161
 1437TIP3    H125946   3.871   1.778   8.577  0.3724 -1.3052  1.0236
 1437TIP3    H225947   3.740   1.787   8.503  1.1563 -2.8726 -0.6347
 1438TIP3   OH225948   3.006   5.380   8.920  0.4928 -0.1971  0.0478
 1438TIP3    H125949   3.084   5.427   8.890 -0.0481 -0.1902 -1.4001
 1438TIP3    H225950   2.983   5.423   9.002  1.8899 -0.0730  0.4128
 1439TIP3   OH225951   2.487   4.326   7.212  0.0143 -0.0096 -0.0698
 1439TIP3    H125952   2.534   4.408   7.199  0.5589  0.2975  3.1186
 1439TIP3    H225953   2.415   4.347   7.271 -1.3110 -1.4045 -1.1079
 1440TIP3   OH225954   5.630   3.065   7.406 -0.5516 -0.1048  0.6390
 1440TIP3    H125955   5.573   3.137   7.380  0.8851  0.1021 -2.4129
 1440TIP3    H225956   5.579   2.986   7.389 -0.0155  0.0606 -2.4374
 1441TIP3   OH225957   3.795   0.123   8.544  0.0166  0.2038 -0.0312
 1441TIP3    H125958   3.779   0.212   8.577 -0.3477  0.1053  0.0523
 1441TIP3    H225959   3.810   0.071   8.623  0.0016  0.1439 -0.0684
 1442TIP3   OH225960   6.213   3.713   1.738  0.6062  0.0572 -0.4536
 1442TIP3    H125961   6.274   3.775   1.779 -1.0413  0.9368  0.7804
 1442TIP3    H225962   6.127   3.755   1.745 -0.2196 -1.2965 -1.8203
 1443TIP3   OH225963   3.438   3.588   0.454  0.4877  0.2222  0.1781
 1443TIP3    H125964   3.434   3.674   0.414  0.9228 -1.2655 -3.3988
 1443TIP3    H225965   3.517   3.547   0.419 -0.2373 -2.0117  0.9131
 1444TIP3   OH225966   5.517   3.741   8.854 -0.0034 -0.3532 -0.6561
 1444TIP3    H125967   5.585   3.694   8.805 -1.5670 -1.7221 -1.6392
 1444TIP3    H225968   5.488   3.678   8.920 -0.4012  0.1608 -0.3347
 1445TIP3   OH225969   6.013   5.996   1.906 -0.2335  0.3279 -0.1866
 1445TIP3    H125970   6.030   6.090   1.898  2.7276 -0.1821 -1.0451
 1445TIP3    H225971   5.953   5.976   1.834 -0.6925  1.4881 -0.1487
 1446TIP3   OH225972   1.272   2.404   7.646  0.6371 -0.4428 -0.3662
 1446TIP3    H125973   1.268   2.499   7.658  0.3888 -0.3992 -0.7739
 1446TIP3    H225974   1.338   2.391   7.577  0.3067 -0.5301 -0.6702
 1447TIP3   OH225975   3.327   1.744   8.495  0.0673  0.0283 -0.2139
 1447TIP3    H125976   3.311   1.712   8.584 -0.2243  1.0712  0.1256
 1447TIP3    H225977   3.394   1.685   8.460  0.2279 -0.3626  0.7169
 1448TIP3   OH225978   6.605   3.953   0.421  0.6655  0.1859 -0.3340
 1448TIP3    H125979   6.580   4.024   0.361 -0.2210  0.9735  0.9140
 1448TIP3    H225980   6.683   3.986   0.466  0.8881 -0.0981 -0.5033
 1449TIP3   OH225981   1.283   0.411   9.084 -0.7531 -0.0611  0.3615
 1449TIP3    H125982   1.337   0.425   9.161 -1.4422 -0.0598  0.8562
 1449TIP3    H225983   1.248   0.497   9.062  0.9689  0.3011 -1.1353
 1450TIP3   OH225984   1.006   6.540   7.385  0.2473 -0.3451  0.3412
 1450TIP3    H125985   0.922   6.524   7.429  0.4676  0.4592  1.0894
 1450TIP3    H225986   1.062   6.576   7.454  0.9060  0.0221 -0.3789
 1451TIP3   OH225987   4.478   5.203   7.800  0.2480 -0.3731  0.4832
 1451TIP3    H125988   4.388   5.217   7.771  0.3438 -3.4005 -1.7780
 1451TIP3    H225989   4.469   5.176   7.892 -0.9283  1.1475  0.8537
 1452TIP3   OH225990   5.035   0.824   1.525  0.3909  0.1273  0.2520
 1452TIP3    H125991   4.974   0.897   1.529 -0.6679 -0.7607  1.1632
 1452TIP3    H225992   5.031   0.794   1.434 -0.3541  0.2324  0.2434
 1453TIP3   OH225993   5.379   3.170   7.133 -0.4590  0.0065 -0.0575
 1453TIP3    H125994   5.362   3.231   7.062  1.3819 -0.5974 -1.0725
 1453TIP3    H225995   5.413   3.092   7.090 -1.2918 -1.1758  1.3343
 1454TIP3   OH225996   3.962   3.995   1.872 -0.1464  0.9836  0.1098
 1454TIP3    H125997   4.012   4.076   1.881 -1.0746  1.4828  1.0191
 1454TIP3    H225998   3.917   3.986   1.956 -1.8048  0.7151 -0.7763
 1455TIP3   OH225999   0.093   5.934   8.115 -0.1051 -0.2672 -0.3476
 1455TIP3    H126000   0.071   5.988   8.039 -1.9521 -1.2953 -0.6106
 1455TIP3    H226001   0.080   5.992   8.190 -0.7463  0.0408 -0.6894
 1456TIP3   OH226002   2.296   5.311   9.206  0.2698 -0.0826 -0.1825
 1456TIP3    H126003   2.250   5.394   9.219  1.8349  1.0378 -1.2989
 1456TIP3    H226004   2.371   5.334   9.150  1.2785 -2.0862  0.2423
 1457TIP3   OH226005   6.005   3.444   1.348 -0.0019 -0.2871 -0.1899
 1457TIP3    H126006   6.035   3.535   1.348 -2.7578  0.7138  0.1852
 1457TIP3    H226007   5.973   3.430   1.437  1.1519 -1.9720  0.0149
 1458TIP3   OH226008   5.566   6.602   7.825  0.4158  0.4355  0.2433
 1458TIP3    H126009   5.555   6.647   7.741  0.7541  1.3476  0.6701
 1458TIP3    H226010   5.599   6.516   7.802  1.1178  0.8920 -0.5315
 1459TIP3   OH226011   1.702   3.931   0.447  0.3227 -0.2211 -0.1334
 1459TIP3    H126012   1.738   3.945   0.360 -0.8208  2.1265 -0.2914
 1459TIP3    H226013   1.777   3.943   0.506  0.4094  2.0411 -0.6140
 1460TIP3   OH226014   2.596   5.029   0.206  0.0790 -0.9292 -0.0920
 1460TIP3    H126015   2.655   5.035   0.282  0.1973  0.4729 -0.2790
 1460TIP3    H226016   2.530   5.096   0.222 -1.0555 -1.9655 -0.2728
 1461TIP3   OH226017   0.890   3.813   8.020  0.2704 -0.3403 -0.1332
 1461TIP3    H126018   0.945   3.736   8.005  0.6749  0.1047 -1.0332
 1461TIP3    H226019   0.904   3.868   7.943 -0.0497  0.6164  0.4641
 1462TIP3   OH226020   6.104   0.961   0.122 -0.2538 -0.3601 -0.4383
 1462TIP3    H126021   6.080   1.053   0.112  0.1648 -0.3881 -1.8617
 1462TIP3    H226022   6.040   0.913   0.069 -1.0198 -1.0018  0.9874
 1463TIP3   OH226023   5.953   1.606   8.093 -0.0400  0.0496  0.6088
 1463TIP3    H126024   5.991   1.693   8.102  0.2586 -0.1568  1.4192
 1463TIP3    H226025   5.943   1.593   7.998 -0.1248  0.9747  0.4869
 1464TIP3   OH226026   4.248   0.265   2.485  0.2720  0.2650  0.0867
 1464TIP3    H126027   4.171   0.322   2.487  0.5240  0.5999  0.4176
 1464TIP3    H226028   4.278   0.262   2.576  1.2036  0.9135 -0.1767
 1465TIP3   OH226029   3.828   0.401   8.642 -0.0507  0.4640 -0.3311
 1465TIP3    H126030   3.915   0.366   8.622 -0.3212  1.1118 -3.0616
 1465TIP3    H226031   3.836   0.439   8.729  2.1893 -0.1488 -0.2254
 1466TIP3   OH226032   6.616   0.471   0.798 -0.2273 -0.1072 -0.0754
 1466TIP3    H126033   6.580   0.559   0.790  0.6550  0.3572  0.7133
 1466TIP3    H226034   6.710   0.483   0.786 -0.1506 -1.0137 -0.4094
 1467TIP3   OH226035   1.937   3.836   1.519 -0.1258 -0.1052  0.2584
 1467TIP3    H126036   1.955   3.764   1.458  2.9285  0.2538  0.5790
 1467TIP3    H226037   1.990   3.814   1.597  1.8037  2.9180 -0.0298
 1468TIP3   OH226038   2.203   2.554   1.810 -0.6150 -0.2238  0.2171
 1468TIP3    H126039   2.166   2.533   1.896 -0.6032 -1.8300 -0.1368
 1468TIP3    H226040   2.281   2.500   1.804 -0.5806 -0.0727 -0.7832
 1469TIP3   OH226041   0.491   2.196   8.903  0.3480  0.4214 -0.2412
 1469TIP3    H126042   0.430   2.147   8.959  0.2437 -0.0035 -0.7203
 1469TIP3    H226043   0.444   2.207   8.821  0.4743  1.1107 -0.2197
 1470TIP3   OH226044   5.318   4.513   8.476 -0.4541  0.0637  0.4421
 1470TIP3    H126045   5.343   4.421   8.478  0.4531  0.2686 -0.7602
 1470TIP3    H226046   5.297   4.534   8.568  2.9685 -0.3401  1.4351
 1471TIP3   OH226047   0.227   0.379   0.274 -0.3460 -0.1650 -0.4950
 1471TIP3    H126048   0.174   0.439   0.220 -0.7336 -1.5282 -1.7028
 1471TIP3    H226049   0.164   0.336   0.331  0.0056  0.9395  0.7611
 1472TIP3   OH226050   4.451   0.830   9.141  0.3603 -0.1747 -0.0979
 1472TIP3    H126051   4.535   0.829   9.094 -0.6526 -1.6846 -2.0308
 1472TIP3    H226052   4.387   0.807   9.074 -1.5005 -0.0233  1.5635
 1473TIP3   OH226053   1.917   0.396   0.880 -0.6586 -0.4808  0.4793
 1473TIP3    H126054   1.995   0.346   0.902  0.3287  0.7322 -0.1574
 1473TIP3    H226055   1.895   0.370   0.791 -0.6890 -0.4668  0.4825
 1474TIP3   OH226056   3.258   1.838   0.037 -0.0340  0.0379 -0.1218
 1474TIP3    H126057   3.221   1.869   0.119  2.5625 -0.1636  1.2536
 1474TIP3    H226058   3.234   1.745   0.033 -1.4170  0.3904 -0.3880
 1475TIP3   OH226059   6.130   0.224   2.893 -0.5330  0.1015  0.1189
 1475TIP3    H126060   6.213   0.182   2.871 -0.4308 -0.4121  1.3777
 1475TIP3    H226061   6.063   0.167   2.855 -0.3268  0.6679 -1.1466
 1476TIP3   OH226062   2.116   2.724   0.460  0.1273  0.3482  0.0002
 1476TIP3    H126063   2.126   2.637   0.421  0.3861 -0.0226  0.8666
 1476TIP3    H226064   2.181   2.778   0.416  2.5861 -0.7980  1.9857
 1477TIP3   OH226065   6.613   0.520   1.327 -0.1226 -0.1295 -0.4940
 1477TIP3    H126066   6.642   0.454   1.390 -0.1577 -0.2942 -0.6488
 1477TIP3    H226067   6.627   0.479   1.241  0.5523  0.3412 -0.6183
 1478TIP3   OH226068   3.419   5.025   0.797  0.2307  0.7488 -0.0585
 1478TIP3    H126069   3.456   5.082   0.864 -1.2515  0.2924  1.2066
 1478TIP3    H226070   3.344   5.074   0.763 -0.6615 -0.1273  0.5776
 1479TIP3   OH226071   6.256   2.678   8.693 -0.4764  0.0986 -0.1013
 1479TIP3    H126072   6.241   2.588   8.723 -0.9947  0.4432  0.7250
 1479TIP3    H226073   6.179   2.726   8.725  0.4931  1.1261  0.7398
 1480TIP3   OH226074   0.877   5.939   0.645  0.1987 -0.5311  0.6443
 1480TIP3    H126075   0.878   6.029   0.676 -1.9713 -0.6756  1.2834
 1480TIP3    H226076   0.961   5.903   0.672  0.9421  1.1721  0.7127
 1481TIP3   OH226077   3.485   0.927   0.353 -0.0948 -0.2924 -0.0623
 1481TIP3    H126078   3.455   0.870   0.282  0.3878 -0.3626 -0.2209
 1481TIP3    H226079   3.553   0.875   0.397 -0.4388 -0.2721  0.4921
 1482TIP3   OH226080   2.584   3.066   8.494 -0.2322 -0.0020 -0.3879
 1482TIP3    H126081   2.677   3.054   8.478  0.4821  2.9980  0.8402
 1482TIP3    H226082   2.547   2.977   8.491  2.8536 -1.4393  0.4557
 1483TIP3   OH226083   6.608   1.081   1.970 -0.3180 -0.0548 -0.0268
 1483TIP3    H126084   6.693   1.112   1.940 -1.2592  0.1849 -2.6538
 1483TIP3    H226085   6.604   0.990   1.941 -0.6924 -0.2827  0.7072
 1484TIP3   OH226086   0.819   2.498   7.403  0.4810  0.5026 -0.2334
 1484TIP3    H126087   0.854   2.552   7.332  1.1030 -0.8919 -1.0335
 1484TIP3    H226088   0.870   2.525   7.480 -0.4946  2.3261 -0.1791
 1485TIP3   OH226089   6.045   5.678   2.090  0.0047  0.2296 -0.1395
 1485TIP3    H126090   6.093   5.597   2.108  0.2238  0.4651  0.3621
 1485TIP3    H226091   6.085   5.712   2.010 -0.1375 -0.1915 -0.3925
 1486TIP3   OH226092   5.175   6.240   1.904 -0.0581  0.3553  0.5290
 1486TIP3    H126093   5.174   6.312   1.840 -0.3762 -0.9222 -0.9686
 1486TIP3    H226094   5.096   6.255   1.956 -1.1245  0.1394 -0.9333
 1487TIP3   OH226095   5.572   2.175   8.743 -0.5289 -0.0532 -0.1401
 1487TIP3    H126096   5.546   2.256   8.787 -1.3083 -1.3559  1.9658
 1487TIP3    H226097   5.647   2.143   8.793 -0.3321 -0.7378 -0.8434
 1488TIP3   OH226098   1.251   0.174   2.072  0.0050 -0.4295 -0.6243
 1488TIP3    H126099   1.250   0.094   2.020  1.8535  0.1821 -1.6792
 1488TIP3    H226100   1.333   0.171   2.121  0.8167  1.4212 -1.7441
 1489TIP3   OH226101   1.096   1.501   9.157  0.1555 -0.1278  0.1784
 1489TIP3    H126102   1.111   1.583   9.204 -0.6398 -0.6474  1.3714
 1489TIP3    H226103   1.001   1.494   9.151  0.2273 -0.1320 -1.4522
 1490TIP3   OH226104   6.664   2.486   1.328 -0.0146  0.0429 -0.4924
 1490TIP3    H126105   6.737   2.545   1.309  0.2845 -0.3430 -0.5689
 1490TIP3    H226106   6.626   2.519   1.409 -2.9137  3.2994 -2.8729
 1491TIP3   OH226107   0.801   5.034   7.371  0.1915 -0.2813 -0.2840
 1491TIP3    H126108   0.802   5.065   7.280  0.9285  0.8047  0.0621
 1491TIP3    H226109   0.821   5.113   7.423  2.9852 -1.4542  0.6182
 1492TIP3   OH226110   4.374   4.022   2.786  0.0070 -0.2086  0.2397
 1492TIP3    H126111   4.355   4.102   2.835 -0.7501  0.2429 -0.7335
 1492TIP3    H226112   4.374   3.953   2.851  2.0817  0.7384  1.3333
 1493TIP3   OH226113   4.997   0.655   2.190  0.4917 -0.1611  0.2584
 1493TIP3    H126114   5.014   0.747   2.212  0.2150  0.6684 -2.5136
 1493TIP3    H226115   4.924   0.659   2.128  1.5552 -2.0762 -1.2224
 1494TIP3   OH226116   1.097   0.104   0.826  0.0329  0.4550  0.3196
 1494TIP3    H126117   1.069   0.162   0.897 -0.4403  1.1296 -0.3891
 1494TIP3    H226118   1.015   0.066   0.793 -0.2599  2.9910 -2.2455
 1495TIP3   OH226119   2.664   3.873   7.987  0.1728  0.1045  0.1788
 1495TIP3    H126120   2.616   3.914   8.059  2.8568 -0.4163  2.4004
 1495TIP3    H226121   2.639   3.781   7.991  0.3185  0.0760  0.4399
 1496TIP3   OH226122   6.211   2.413   0.784  0.4369 -0.0410  0.6725
 1496TIP3    H126123   6.196   2.504   0.809 -1.2918 -0.0399 -0.2388
 1496TIP3    H226124   6.127   2.383   0.750  0.8934 -2.0749  1.1938
 1497TIP3   OH226125   3.602   2.466   9.125  0.1776 -0.4910 -0.7559
 1497TIP3    H126126   3.642   2.530   9.184 -1.0524 -0.5597  0.1795
 1497TIP3    H226127   3.588   2.389   9.180 -1.7469 -0.2734 -0.8953
 1498TIP3   OH226128   4.191   2.462   8.131 -0.5607 -0.0731 -0.4765
 1498TIP3    H126129   4.218   2.400   8.199 -1.3207 -1.2119 -1.1878
 1498TIP3    H226130   4.265   2.464   8.071  0.2420  1.1682  0.4934
 1499TIP3   OH226131   1.513   0.376   1.005 -0.1870  0.3259 -0.1377
 1499TIP3    H126132   1.605   0.394   1.025  0.8191 -2.5523 -1.5702
 1499TIP3    H226133   1.485   0.451   0.953  1.7620  0.7585 -0.6625
 1500TIP3   OH226134   3.250   1.185   2.790  0.1821  0.2266  0.3487
 1500TIP3    H126135   3.328   1.181   2.736 -0.9303  0.9379 -1.3921
 1500TIP3    H226136   3.206   1.101   2.775 -1.4127  1.3884 -1.9690
 1501TIP3   OH226137   4.499   2.961   1.727  0.0708  0.2188  0.0063
 1501TIP3    H126138   4.451   2.890   1.770 -0.8675  1.9274  2.0085
 1501TIP3    H226139   4.477   3.039   1.779  0.9904  1.9967 -2.1028
 1502TIP3   OH226140   3.283   2.517   1.525 -0.0085  0.1444 -0.4228
 1502TIP3    H126141   3.351   2.581   1.546 -0.0821 -0.1511  0.8110
 1502TIP3    H226142   3.308   2.439   1.575 -1.6208  0.2574  0.6519
 1503TIP3   OH226143   3.228   0.471   8.725 -0.3786 -0.5937  0.1042
 1503TIP3    H126144   3.306   0.501   8.678  0.4655  0.1767  1.8892
 1503TIP3    H226145   3.164   0.541   8.711 -0.7566 -1.1980 -1.3141
 1504TIP3   OH226146   3.815   3.392   9.048  0.1618  0.3085 -0.0818
 1504TIP3    H126147   3.782   3.305   9.026  0.2444 -0.1198  1.4142
 1504TIP3    H226148   3.739   3.439   9.081  0.3809  0.3791  0.3265
 1505TIP3   OH226149   4.065   2.828   7.735 -0.2784  1.0457  0.5448
 1505TIP3    H126150   4.083   2.827   7.829  1.4171 -2.1205  0.3244
 1505TIP3    H226151   3.970   2.818   7.729 -0.2067 -1.6499  2.0577
 1506TIP3   OH226152   4.031   4.893   1.128 -0.0824  0.0544 -0.0907
 1506TIP3    H126153   4.056   4.860   1.042  0.3302 -0.6991  0.3112
 1506TIP3    H226154   3.947   4.937   1.114 -1.1915 -2.0569 -0.4779
 1507TIP3   OH226155   3.664   5.418   1.773 -0.1289 -0.3802 -0.1026
 1507TIP3    H126156   3.628   5.487   1.717 -0.1737  0.2873  0.7220
 1507TIP3    H226157   3.592   5.356   1.785 -0.4640  0.0451  0.1108
 1508TIP3   OH226158   3.925   0.197   2.625  0.1972 -0.4487 -0.0864
 1508TIP3    H126159   3.926   0.153   2.710  1.7036 -1.2665 -0.4857
 1508TIP3    H226160   3.979   0.275   2.639 -0.5387  0.0504  0.0066
 1509TIP3   OH226161   3.967   0.831   1.338  0.3148  0.0389  0.1015
 1509TIP3    H126162   3.995   0.922   1.340 -0.8755  0.4226  0.5041
 1509TIP3    H226163   3.907   0.823   1.412  1.3842 -1.4251  0.8572
 1510TIP3   OH226164   0.769   2.994   9.193 -0.8528  0.1621  0.0683
 1510TIP3    H126165   0.845   2.936   9.204 -1.6197 -0.7828  0.5864
 1510TIP3    H226166   0.758   3.000   9.098 -0.5063 -0.2052 -0.0022
 1511TIP3   OH226167   4.311   0.777   8.412 -0.3307 -0.3174 -0.1104
 1511TIP3    H126168   4.391   0.758   8.363 -0.6787 -1.7191 -0.1933
 1511TIP3    H226169   4.330   0.858   8.459  1.2686 -0.8053  0.1418
 1512TIP3   OH226170   3.313   0.425   1.579  0.1272  0.5372 -0.9305
 1512TIP3    H126171   3.381   0.475   1.534  0.5249  0.5923 -0.2789
 1512TIP3    H226172   3.233   0.448   1.533  0.5335  0.5641 -1.6327
 1513TIP3   OH226173   5.536   1.253   8.699  0.3182  0.0828  0.6662
 1513TIP3    H126174   5.485   1.273   8.620  0.4297 -1.7552  0.0801
 1513TIP3    H226175   5.613   1.308   8.692  1.6096 -1.8285 -1.9188
 1514TIP3   OH226176   1.614   4.710   9.038  0.4991 -0.0225  0.4684
 1514TIP3    H126177   1.644   4.644   8.976  1.8133  2.2347 -1.4454
 1514TIP3    H226178   1.533   4.674   9.073  1.0054 -2.5038 -0.6498
 1515TIP3   OH226179   4.358   2.282   1.777 -0.0766  0.3019  0.6341
 1515TIP3    H126180   4.276   2.328   1.796 -0.7151 -0.4949 -0.1206
 1515TIP3    H226181   4.345   2.194   1.813  0.7425  0.3885  1.1734
 1516TIP3   OH226182   0.942   0.556   0.799 -0.1633 -0.2214  0.1875
 1516TIP3    H126183   0.944   0.463   0.775 -2.3135  0.2951 -2.5540
 1516TIP3    H226184   1.017   0.594   0.754  0.3880 -0.5008  0.8479
 1517TIP3   OH226185   2.450   1.794   1.438  0.1494 -0.0776 -0.0752
 1517TIP3    H126186   2.378   1.781   1.500 -0.0638  1.5177  0.0546
 1517TIP3    H226187   2.459   1.710   1.394 -1.7811 -0.3420 -0.0559
 1518TIP3   OH226188   1.776   0.855   1.104  0.0095 -0.0884 -0.0934
 1518TIP3    H126189   1.712   0.871   1.172 -0.0376  0.3044 -0.2278
 1518TIP3    H226190   1.861   0.859   1.149 -0.0185  0.2243 -0.0677
 1519TIP3   OH226191   2.097   3.805   1.741  0.3728 -0.0349 -0.5409
 1519TIP3    H126192   2.132   3.716   1.742 -0.1852 -0.2807  1.0703
 1519TIP3    H226193   2.003   3.794   1.758 -0.3821  0.6772 -3.6466
 1520TIP3   OH226194   3.311   1.249   2.472  0.6106  0.3493  0.1050
 1520TIP3    H126195   3.368   1.326   2.484  1.6590  0.3093 -3.4913
 1520TIP3    H226196   3.364   1.188   2.422 -1.6448 -0.9521 -0.8296
 1521TIP3   OH226197   2.914   4.674   7.691  0.1232  0.4330 -0.4907
 1521TIP3    H126198   2.828   4.705   7.664  0.2176  1.7904  0.6480
 1521TIP3    H226199   2.968   4.681   7.612  0.3624  4.1506 -0.1643
 1522TIP3   OH226200   1.598   0.217   0.019 -0.9088  0.1894 -0.1106
 1522TIP3    H126201   1.618   0.302   0.058 -0.4712  0.4145 -0.8145
 1522TIP3    H226202   1.596   0.234  -0.075  2.5948 -1.2213 -0.5767
 1523TIP3   OH226203   4.196   1.503   7.825  0.3198  0.1199  0.0683
 1523TIP3    H126204   4.140   1.450   7.769  0.3928 -0.6878  0.7351
 1523TIP3    H226205   4.148   1.585   7.838 -0.6588 -0.5155  0.5486
 1524TIP3   OH226206   2.524   0.214   2.099  0.5014 -0.3093 -0.2757
 1524TIP3    H126207   2.615   0.215   2.129  0.6725  0.4602 -0.7793
 1524TIP3    H226208   2.493   0.125   2.117  1.3920 -0.6157 -0.2138
 1525TIP3   OH226209   3.420   3.832   7.703 -0.6307  0.0312  0.6367
 1525TIP3    H126210   3.352   3.894   7.678  0.3264  1.9022  2.3723
 1525TIP3    H226211   3.500   3.884   7.707  0.6843 -1.8224 -0.0046
 1526TIP3   OH226212   5.226   4.863   8.929  0.0099  0.4072 -0.5307
 1526TIP3    H126213   5.219   4.771   8.952 -1.2199  0.8294  0.9095
 1526TIP3    H226214   5.319   4.877   8.915  0.0985 -1.3377 -2.1359
 1527TIP3   OH226215   4.085   2.221   1.554 -0.2532 -0.2786 -0.6267
 1527TIP3    H126216   4.176   2.225   1.525  0.3148 -0.0791  1.0811
 1527TIP3    H226217   4.078   2.289   1.621 -1.2212 -1.3560  0.4068
 1528TIP3   OH226218   3.924   2.978   1.237  0.0967 -0.1755  0.3772
 1528TIP3    H126219   3.932   3.005   1.146 -0.7526  1.9471  0.8562
 1528TIP3    H226220   3.974   3.043   1.286 -0.1434 -0.7899  1.4794
 1529TIP3   OH226221   0.317   2.233   8.445  0.0191  0.1739  0.0583
 1529TIP3    H126222   0.301   2.259   8.536 -0.8169  2.9632 -0.7703
 1529TIP3    H226223   0.362   2.309   8.406 -2.0001  0.2413 -2.4691
 1530TIP3   OH226224   1.377   6.647   2.489 -0.1352  0.1015 -0.4624
 1530TIP3    H126225   1.430   6.680   2.561 -0.5925  2.1410 -0.9693
 1530TIP3    H226226   1.317   6.584   2.529  2.5999 -2.3426  0.1108
 1531TIP3   OH226227   0.345   1.002   8.697 -0.2055  0.5168 -0.0993
 1531TIP3    H126228   0.368   1.081   8.745  1.3199  0.9399 -1.4613
 1531TIP3    H226229   0.249   0.997   8.703 -0.1493  1.0867  2.0595
 1532TIP3   OH226230   5.233   1.471   2.625 -0.0084 -0.5745 -0.7704
 1532TIP3    H126231   5.258   1.452   2.716  0.9085  0.7491 -0.7158
 1532TIP3    H226232   5.198   1.388   2.592 -0.3762 -1.0748  0.7912
 1533TIP3   OH226233   1.506   3.586   8.866  0.4083 -0.4052 -0.4360
 1533TIP3    H126234   1.445   3.640   8.815 -0.1036  0.3139  0.8939
 1533TIP3    H226235   1.456   3.562   8.945  2.4233  1.8262  1.6567
 1534TIP3   OH226236   2.990   1.416   0.005 -0.1537 -0.7391  0.6707
 1534TIP3    H126237   3.012   1.440   0.095  0.0227 -0.2512  0.5001
 1534TIP3    H226238   2.968   1.323   0.009  0.9117 -0.9840  1.0293
 1535TIP3   OH226239   3.194   0.150   8.423 -0.2204 -0.2376  0.4765
 1535TIP3    H126240   3.152   0.083   8.369  2.1442 -1.1223 -0.4144
 1535TIP3    H226241   3.129   0.219   8.431 -1.3225 -0.8711 -2.0313
 1536TIP3   OH226242   1.852   0.280   0.656 -0.3513 -0.2940  0.5098
 1536TIP3    H126243   1.769   0.237   0.675  0.0581 -1.1743  0.3572
 1536TIP3    H226244   1.894   0.223   0.592 -0.0326  0.6324 -0.1248
 1537TIP3   OH226245   3.868   5.506   7.307 -0.2680 -0.0251 -0.3066
 1537TIP3    H126246   3.816   5.528   7.384  0.3903  0.0078  0.1299
 1537TIP3    H226247   3.863   5.585   7.252  0.8867  0.7149  0.6014
 1538TIP3   OH226248   5.634   5.105   0.973  0.8721  0.3205 -0.0257
 1538TIP3    H126249   5.682   5.186   0.990  0.7909  0.5724 -0.9377
 1538TIP3    H226250   5.544   5.134   0.958  0.7338  0.0019  0.1858
 1539TIP3   OH226251   4.512   0.119   2.370  0.5815 -0.5419  1.0304
 1539TIP3    H126252   4.505   0.025   2.354  0.0257 -0.4504  0.7128
 1539TIP3    H226253   4.582   0.149   2.312 -0.5440 -0.4308 -0.3081
 1540TIP3   OH226254   3.899   0.916   8.278  0.3445 -0.0635 -0.6244
 1540TIP3    H126255   3.824   0.858   8.289  0.0310 -0.0362 -2.3257
 1540TIP3    H226256   3.967   0.861   8.238  0.4535  0.4415 -1.1504
 1541TIP3   OH226257   1.473   6.117   1.253  0.3889  0.2184 -0.4008
 1541TIP3    H126258   1.498   6.053   1.319  1.8367  0.8584 -0.2936
 1541TIP3    H226259   1.523   6.195   1.276  2.5412 -0.1249 -3.3679
 1542TIP3   OH226260   2.460   4.655   8.356 -0.2212  0.4258  0.4876
 1542TIP3    H126261   2.432   4.714   8.426  1.9694  0.6449  1.2891
 1542TIP3    H226262   2.531   4.604   8.396 -0.2374 -0.8353 -1.0120
 1543TIP3   OH226263   5.246   0.816   1.925  0.0928 -0.0229  0.5068
 1543TIP3    H126264   5.194   0.848   1.998  1.4093 -0.8781  1.8711
 1543TIP3    H226265   5.311   0.886   1.910 -0.0738  0.0792  0.2531
 1544TIP3   OH226266   5.642   4.052   9.113 -0.0296  0.6775 -0.0505
 1544TIP3    H126267   5.634   4.128   9.171  0.4629  0.7019 -0.0102
 1544TIP3    H226268   5.621   4.085   9.026 -0.3273  0.7432  0.0471
 1545TIP3   OH226269   5.415   0.209   2.104  0.5491  0.5732 -0.3093
 1545TIP3    H126270   5.448   0.194   2.193  2.7381 -0.0072 -1.1494
 1545TIP3    H226271   5.402   0.121   2.069 -0.0658  0.8004 -0.6520
 1546TIP3   OH226272   2.182   2.271   3.289  0.0108  0.1351  0.2164
 1546TIP3    H126273   2.234   2.191   3.280  1.1541  0.9520 -0.6209
 1546TIP3    H226274   2.099   2.250   3.247  0.2983 -0.6003 -0.0050
 1547TIP3   OH226275   1.003   6.517   8.027  0.1408  0.5711  0.2986
 1547TIP3    H126276   0.913   6.550   8.014 -0.4807 -0.8803  0.7962
 1547TIP3    H226277   1.037   6.568   8.100  0.2020  2.0187 -0.6892
 1548TIP3   OH226278   4.537   5.489   1.452 -0.4619 -0.3062 -0.0096
 1548TIP3    H126279   4.537   5.464   1.360 -1.3155 -1.3799  0.2579
 1548TIP3    H226280   4.474   5.560   1.457 -0.1058  0.0344 -0.3217
 1549TIP3   OH226281   1.416   1.950   2.587  0.0934  0.3763 -0.6979
 1549TIP3    H126282   1.389   1.912   2.671 -1.8324 -0.7023 -1.7469
 1549TIP3    H226283   1.511   1.951   2.592  0.0435  0.2082  1.4464
 1550TIP3   OH226284   5.584   2.227   7.057 -0.3418  0.2675  0.1756
 1550TIP3    H126285   5.621   2.244   6.970 -1.8012 -0.2058 -0.5877
 1550TIP3    H226286   5.539   2.308   7.080  1.3189  0.9229  1.2009
 1551TIP3   OH226287   6.313   2.517   0.426  0.1744 -0.0072 -0.0769
 1551TIP3    H126288   6.340   2.433   0.462 -0.0048  0.0188  0.1150
 1551TIP3    H226289   6.344   2.582   0.489 -0.2564  0.0284  0.1005
 1552TIP3   OH226290   1.933   2.829   1.275 -0.0827  0.5262 -0.0601
 1552TIP3    H126291   1.893   2.808   1.359 -1.2771  2.3611 -0.1129
 1552TIP3    H226292   1.859   2.852   1.218  0.8113  0.7967 -1.1603
 1553TIP3   OH226293   0.526   4.394   0.772  0.1137 -0.3534  0.6251
 1553TIP3    H126294   0.550   4.484   0.750 -1.0475  0.2030  1.5056
 1553TIP3    H226295   0.430   4.392   0.764  0.1675 -1.6720  0.0631
 1554TIP3   OH226296   2.237   4.526   0.945  0.0393 -0.0661 -0.3400
 1554TIP3    H126297   2.211   4.600   1.000 -0.8269 -0.4046 -0.2744
 1554TIP3    H226298   2.209   4.449   0.994 -0.5199 -0.3821 -1.1409
 1555TIP3   OH226299   6.653   1.995   1.978 -0.0461  0.0687 -0.0371
 1555TIP3    H126300   6.593   1.996   1.903  0.7280  0.2465 -0.6625
 1555TIP3    H226301   6.604   2.040   2.048 -1.0273 -0.6676 -0.2175
 1556TIP3   OH226302   1.272   1.320   8.309 -0.2826  0.1201 -0.2516
 1556TIP3    H126303   1.197   1.296   8.363  0.2964  0.4691  0.7430
 1556TIP3    H226304   1.307   1.399   8.351  0.4248  0.1681 -0.9143
 1557TIP3   OH226305   5.144   5.908   1.454 -0.2186  0.2160 -0.2007
 1557TIP3    H126306   5.102   5.970   1.513 -0.2464 -0.6372  0.7028
 1557TIP3    H226307   5.137   5.948   1.367  0.0499  1.6096  0.3976
 1558TIP3   OH226308   5.232   2.696   7.645 -0.2295 -0.2856 -0.3893
 1558TIP3    H126309   5.318   2.678   7.608 -0.2074 -1.3459  0.1432
 1558TIP3    H226310   5.232   2.652   7.730 -0.1407  2.4034  1.1016
 1559TIP3   OH226311   4.539   1.757   1.728  0.7351  0.1671 -0.1772
 1559TIP3    H126312   4.579   1.759   1.815  2.4039 -0.3143 -0.8961
 1559TIP3    H226313   4.604   1.798   1.671  0.1858 -0.6106 -1.4007
 1560TIP3   OH226314   5.734   5.382   2.745 -0.2485  0.4579 -0.0127
 1560TIP3    H126315   5.739   5.437   2.666  0.3140  0.4576  0.0194
 1560TIP3    H226316   5.641   5.363   2.755 -0.3628  0.7597 -0.4719
 1561TIP3   OH226317   2.727   0.363   1.488  0.0710  0.3175  0.2029
 1561TIP3    H126318   2.771   0.310   1.554  0.9849  0.2637 -0.4265
 1561TIP3    H226319   2.653   0.310   1.459  1.9520 -1.4627 -1.6793
 1562TIP3   OH226320   5.497   1.416   3.012  0.0402  0.4341 -0.1816
 1562TIP3    H126321   5.553   1.361   2.957  0.8780  1.9334 -0.8805
 1562TIP3    H226322   5.408   1.396   2.982  0.3756 -0.0265 -0.9170
 1563TIP3   OH226323   4.812   5.063   0.726 -0.2151  0.4512 -0.5184
 1563TIP3    H126324   4.744   4.998   0.710 -0.0606 -0.3763  1.8006
 1563TIP3    H226325   4.807   5.122   0.651 -3.0980  0.0966 -0.7116
 1564TIP3   OH226326   5.995   2.892   1.317  0.1052  0.1348  0.5148
 1564TIP3    H126327   6.078   2.860   1.352  0.9285  0.5916 -0.9406
 1564TIP3    H226328   6.004   2.987   1.318 -0.4596  0.1926  0.4583
 1565TIP3   OH226329   2.504   4.110   7.059 -0.2362 -0.1527 -0.0296
 1565TIP3    H126330   2.430   4.049   7.052 -0.9842  0.8899 -2.5911
 1565TIP3    H226331   2.469   4.183   7.109 -1.1366  0.4632 -1.4636
 1566TIP3   OH226332   2.262   2.407   8.928 -0.0728  0.4323  0.3382
 1566TIP3    H126333   2.320   2.332   8.922 -1.4103 -0.6878  0.9778
 1566TIP3    H226334   2.177   2.375   8.898 -0.1563  2.3335 -1.7218
 1567TIP3   OH226335   4.597   4.419   8.672  0.4765 -0.2786 -0.3198
 1567TIP3    H126336   4.687   4.452   8.682 -0.0246  0.8100  0.8341
 1567TIP3    H226337   4.583   4.418   8.577  1.0562  1.4190 -0.4649
 1568TIP3   OH226338   0.032   2.815   7.978 -0.5259  0.1704  0.3337
 1568TIP3    H126339  -0.034   2.750   8.002 -0.8455  0.2409 -0.3521
 1568TIP3    H226340  -0.018   2.892   7.953 -0.1467  1.3888  2.9527
 1569TIP3   OH226341   1.612   3.134   9.169 -0.0229  0.2285 -0.1060
 1569TIP3    H126342   1.698   3.173   9.183  0.0204 -0.1820  0.8476
 1569TIP3    H226343   1.613   3.106   9.077  1.3474 -0.8964  0.2095
 1570TIP3   OH226344   0.852   3.955   8.793  0.1460 -0.3558  0.0070
 1570TIP3    H126345   0.916   3.887   8.771 -2.1398 -2.5933 -0.1749
 1570TIP3    H226346   0.794   3.914   8.858 -1.5909  1.2492 -0.4284
 1571TIP3   OH226347   4.919   4.311   0.180  0.1989 -0.5539  0.0839
 1571TIP3    H126348   4.899   4.218   0.165 -2.0261 -0.1752  0.2619
 1571TIP3    H226349   4.948   4.343   0.094 -0.6692 -1.0585 -0.4175
 1572TIP3   OH226350   2.077   4.016   1.264 -0.2719  0.3786  0.3631
 1572TIP3    H126351   2.003   3.997   1.322  0.2028  0.6620  1.0786
 1572TIP3    H226352   2.080   3.941   1.205 -0.5705 -0.0782  0.9098
 1573TIP3   OH226353   1.368   0.221   2.424 -0.2469 -0.1010 -0.1070
 1573TIP3    H126354   1.292   0.279   2.431 -0.5198 -0.6302  1.9041
 1573TIP3    H226355   1.331   0.133   2.426  0.4141 -0.4065  2.3415
 1574TIP3   OH226356   2.336   0.821   0.128  0.2312  0.2510  0.3111
 1574TIP3    H126357   2.325   0.917   0.131 -2.9729  0.1062 -1.7053
 1574TIP3    H226358   2.385   0.805   0.047 -0.9075  0.1522 -0.3765
 1575TIP3   OH226359   6.212   6.231   2.458  0.2743  0.0982  0.0014
 1575TIP3    H126360   6.149   6.300   2.434 -0.9559 -1.0470 -0.2107
 1575TIP3    H226361   6.292   6.255   2.413 -0.5716  0.6210 -1.2831
 1576TIP3   OH226362   3.891   2.426   2.565  0.2820 -0.0809  0.2752
 1576TIP3    H126363   3.891   2.399   2.473  0.5757 -0.4767  0.3861
 1576TIP3    H226364   3.809   2.474   2.576  0.6150  0.6644 -0.3874
 1577TIP3   OH226365   3.703   3.117   9.117  0.1738 -0.2008 -0.2249
 1577TIP3    H126366   3.688   3.025   9.139  1.9651 -0.4750 -0.0217
 1577TIP3    H226367   3.717   3.118   9.022 -2.0648  0.2194 -0.6105
 1578TIP3   OH226368   0.303   4.635   9.088  0.2981  0.0445 -0.2661
 1578TIP3    H126369   0.223   4.679   9.061  0.5874  1.6835  1.3291
 1578TIP3    H226370   0.288   4.614   9.181  0.7194 -2.0203 -0.6285
 1579TIP3   OH226371   4.121   4.036   0.447 -0.5221  0.3994  0.1408
 1579TIP3    H126372   4.185   4.106   0.455 -1.1488  1.0912 -0.7480
 1579TIP3    H226373   4.137   3.999   0.360 -1.2105  0.4746 -0.0262
 1580TIP3   OH226374   3.761   0.975   0.042 -0.3947  0.1460 -0.0901
 1580TIP3    H126375   3.747   0.911   0.112  1.0083  0.3588  0.4111
 1580TIP3    H226376   3.799   1.051   0.086  1.7485 -0.1996 -1.2369
 1581TIP3   OH226377   3.738   1.840   2.257 -0.7269  0.2592  0.2537
 1581TIP3    H126378   3.751   1.778   2.185 -0.1604  1.3534 -0.6116
 1581TIP3    H226379   3.819   1.837   2.307 -0.5063  0.6605 -0.0768
 1582TIP3   OH226380   1.245   1.347   0.184  0.0409  0.7561 -0.1253
 1582TIP3    H126381   1.251   1.435   0.146 -1.5899  1.0393  0.1738
 1582TIP3    H226382   1.334   1.327   0.214  0.7312  1.7128 -1.4579
 1583TIP3   OH226383   3.128   3.137   8.517  0.3690 -0.0003  0.5150
 1583TIP3    H126384   3.190   3.193   8.565  1.1282 -1.4418  1.2846
 1583TIP3    H226385   3.175   3.111   8.438 -0.9143  2.4462 -1.1851
 1584TIP3   OH226386   1.535   2.590   9.090 -0.8843 -0.6107  0.0764
 1584TIP3    H126387   1.511   2.639   9.011  0.3783  0.6062  0.3908
 1584TIP3    H226388   1.458   2.538   9.111 -0.7975 -2.0248 -2.7131
 1585TIP3   OH226389   5.017   5.832   7.412 -0.3907 -0.3465  0.4706
 1585TIP3    H126390   4.976   5.760   7.460  2.0416 -1.3425  1.1803
 1585TIP3    H226391   5.069   5.790   7.343  0.8892  0.7063  0.7418
 1586TIP3   OH226392   5.982   3.560   7.890 -0.1979  0.1374  0.0683
 1586TIP3    H126393   5.901   3.612   7.895 -0.5332  0.2844 -3.7367
 1586TIP3    H226394   5.964   3.495   7.822  1.4537 -2.7648  2.1877
 1587TIP3   OH226395   6.185   2.676   2.697  0.2932  0.7238 -0.1025
 1587TIP3    H126396   6.140   2.610   2.749  0.2958 -1.4799 -2.6423
 1587TIP3    H226397   6.117   2.739   2.673  0.0147  0.9984  1.3557
 1588TIP3   OH226398   0.426   5.351   0.374 -0.0017  0.2064 -0.2160
 1588TIP3    H126399   0.488   5.411   0.332  1.1418 -1.9806 -1.8426
 1588TIP3    H226400   0.384   5.306   0.301  1.5641 -3.2795  0.8267
 1589TIP3   OH226401   2.035   6.107   1.452 -0.0388 -0.2607  0.7986
 1589TIP3    H126402   2.059   6.106   1.545 -2.8373 -0.4222  1.5943
 1589TIP3    H226403   2.077   6.029   1.416 -0.9073 -1.6116  2.5363
 1590TIP3   OH226404   3.379   2.887   1.064 -0.2252 -0.1217  0.4571
 1590TIP3    H126405   3.449   2.942   1.101 -0.8411  2.8226 -2.3178
 1590TIP3    H226406   3.420   2.842   0.990 -0.3833 -1.4862  1.1644
 1591TIP3   OH226407   6.139   2.752   0.163 -0.4514 -0.5275  0.0128
 1591TIP3    H126408   6.067   2.719   0.109 -1.3525 -1.2437  1.5731
 1591TIP3    H226409   6.153   2.683   0.228  1.0177  0.0215  0.3083
 1592TIP3   OH226410   0.107   0.252   2.130  0.1117 -0.2747  0.0625
 1592TIP3    H126411   0.189   0.277   2.174  0.8299 -0.4337 -1.1454
 1592TIP3    H226412   0.063   0.195   2.193  0.1596  1.0927  1.3842
 1593TIP3   OH226413   0.247   1.938   0.072 -0.0586  0.2552 -0.1387
 1593TIP3    H126414   0.296   1.909   0.149  1.7419  0.4274 -1.1449
 1593TIP3    H226415   0.190   2.007   0.103  1.1373  0.7962  0.9352
 1594TIP3   OH226416   4.695   1.754   1.041  0.0938 -0.3364 -1.1220
 1594TIP3    H126417   4.717   1.843   1.068  0.4999 -1.1014  1.3252
 1594TIP3    H226418   4.778   1.706   1.046 -0.5618 -1.3948  0.0567
 1595TIP3   OH226419   5.347   3.027   2.609 -0.4078 -0.1265  0.1524
 1595TIP3    H126420   5.438   3.040   2.583 -0.9445 -0.2658 -2.0155
 1595TIP3    H226421   5.306   3.113   2.596 -0.8517 -0.3836 -0.2026
 1596TIP3   OH226422   4.770   4.029   7.837 -0.3083  0.0059  0.2932
 1596TIP3    H126423   4.758   4.113   7.882 -3.3252 -1.2936  2.2709
 1596TIP3    H226424   4.788   4.052   7.746  2.7987  2.7521  1.3965
 1597TIP3   OH226425   5.455   1.673   8.481 -0.4394 -0.1427 -0.3723
 1597TIP3    H126426   5.443   1.693   8.388  1.2696 -0.7216 -0.7499
 1597TIP3    H226427   5.544   1.639   8.487 -0.4886 -0.0407  1.5027
 1598TIP3   OH226428   2.740   4.931   1.420  0.1086  0.3236  0.5902
 1598TIP3    H126429   2.782   5.017   1.417  1.5090 -0.3615 -0.6937
 1598TIP3    H226430   2.703   4.919   1.333 -1.3442  0.1969  1.1983
 1599TIP3   OH226431   4.613   6.320   2.172  0.2845 -0.1865  0.1526
 1599TIP3    H126432   4.529   6.296   2.211  0.6036 -0.9420  0.3967
 1599TIP3    H226433   4.676   6.263   2.215  0.9402  0.4522  0.0471
 1600TIP3   OH226434   6.455   3.863   7.810 -0.2955 -0.1653 -0.1762
 1600TIP3    H126435   6.452   3.947   7.763  0.9119 -0.1465 -0.2616
 1600TIP3    H226436   6.368   3.826   7.799 -0.6646  0.8041 -0.6544
 1601TIP3   OH226437   5.587   2.780   1.577 -0.3019 -0.5813  0.3084
 1601TIP3    H126438   5.616   2.690   1.560 -1.9153 -1.0785  0.0235
 1601TIP3    H226439   5.521   2.797   1.509  1.6721  1.7291 -1.2031
 1602TIP3   OH226440   3.424   5.240   7.281  0.5759 -0.0737  0.5397
 1602TIP3    H126441   3.515   5.263   7.299  0.1502  0.7661  1.7368
 1602TIP3    H226442   3.425   5.208   7.191  1.8639  0.9650  0.1537
 1603TIP3   OH226443   3.608   3.216   1.044  0.3322  0.6522  0.0734
 1603TIP3    H126444   3.667   3.210   0.968 -0.2013  1.3015 -0.4034
 1603TIP3    H226445   3.634   3.143   1.100  0.5861  0.0217 -0.8386
 1604TIP3   OH226446   2.228   4.946   7.359  0.1788  0.9323  0.0072
 1604TIP3    H126447   2.246   4.913   7.271  0.4356  1.1250 -0.0126
 1604TIP3    H226448   2.152   4.895   7.388 -0.1609  1.1502 -0.4811
 1605TIP3   OH226449   4.498   5.341   7.536 -0.2352 -0.0144 -0.8157
 1605TIP3    H126450   4.564   5.405   7.562 -1.0305  0.9221 -1.0387
 1605TIP3    H226451   4.504   5.271   7.601 -0.4434  1.0644  0.3887
 1606TIP3   OH226452   1.837   5.082   1.298 -0.1860 -0.3411 -0.2565
 1606TIP3    H126453   1.841   5.080   1.394 -0.6253  0.7265 -0.2115
 1606TIP3    H226454   1.861   5.171   1.274  1.4042 -0.9947 -1.2336
 1607TIP3   OH226455   4.786   0.332   8.907 -0.1807  0.1604  0.4468
 1607TIP3    H126456   4.707   0.294   8.944  0.0460 -0.8049 -0.0265
 1607TIP3    H226457   4.857   0.272   8.931  0.6001  1.5280  1.7245
 1608TIP3   OH226458   2.744   0.070   0.333 -0.9286 -0.2729  0.3788
 1608TIP3    H126459   2.696   0.074   0.250 -0.1944 -0.3964 -0.0583
 1608TIP3    H226460   2.799   0.148   0.332 -1.0404 -0.1878  0.8314
 1609TIP3   OH226461   1.671   4.685   0.650 -0.2798 -0.1138 -0.1342
 1609TIP3    H126462   1.665   4.590   0.654  0.4433 -0.1507  0.3219
 1609TIP3    H226463   1.640   4.708   0.562 -0.7325 -0.7381 -0.1448
 1610TIP3   OH226464   3.470   1.739   0.542  0.4414  0.1842  0.0413
 1610TIP3    H126465   3.478   1.721   0.636 -1.9748 -0.0465  0.2611
 1610TIP3    H226466   3.527   1.675   0.500 -0.0291 -1.0909  1.2788
 1611TIP3   OH226467   1.381   1.402   1.000 -0.0682  0.2767  0.0135
 1611TIP3    H126468   1.470   1.426   0.975 -0.4808 -0.4026 -2.3510
 1611TIP3    H226469   1.345   1.481   1.040  1.8285  0.3021  1.8028
 1612TIP3   OH226470   1.492   3.821   1.763 -0.1984  0.6961  0.1675
 1612TIP3    H126471   1.437   3.803   1.688  0.9858  1.7906 -1.0228
 1612TIP3    H226472   1.451   3.896   1.807 -0.1905  0.8905 -0.1561
 1613TIP3   OH226473   1.317   2.397   0.097  0.0557 -0.2532  0.2023
 1613TIP3    H126474   1.298   2.356   0.012 -0.4801 -0.1478  0.2637
 1613TIP3    H226475   1.322   2.323   0.158 -1.2305 -0.2255  0.3708
 1614TIP3   OH226476   1.594   3.316   0.589  0.5239  0.5841  0.3474
 1614TIP3    H126477   1.678   3.361   0.583  1.1331 -0.7091 -3.5722
 1614TIP3    H226478   1.601   3.244   0.527 -2.2404 -1.8423  2.5677
 1615TIP3   OH226479   3.495   3.663   0.751 -0.4080 -0.0031 -0.1189
 1615TIP3    H126480   3.456   3.658   0.663  0.0936  2.5899 -0.5814
 1615TIP3    H226481   3.583   3.698   0.736 -0.2166  0.2224  1.3863
 1616TIP3   OH226482   0.798   1.979   8.918  0.2712 -0.0320 -0.1347
 1616TIP3    H126483   0.789   1.884   8.903  2.3655 -0.1511 -0.8683
 1616TIP3    H226484   0.773   2.018   8.834  1.5199 -0.0906 -0.5559
 1617TIP3   OH226485   4.868   6.285   2.380  0.0518 -0.6550  0.0155
 1617TIP3    H126486   4.923   6.344   2.433 -1.7927  2.0623 -0.8658
 1617TIP3    H226487   4.780   6.295   2.417 -1.0525  0.3235 -2.6469
 1618TIP3   OH226488   2.365   0.301   2.370 -0.6844 -0.2543  0.1345
 1618TIP3    H126489   2.417   0.250   2.308 -1.2784 -1.0644  0.2839
 1618TIP3    H226490   2.410   0.290   2.454 -1.1394 -1.0369  0.2834
 1619TIP3   OH226491   4.723   5.691   1.784  0.0468  0.4301  0.4870
 1619TIP3    H126492   4.727   5.774   1.831  2.1662 -1.1150  3.3003
 1619TIP3    H226493   4.635   5.657   1.803 -0.0594  1.0240  1.1048
 1620TIP3   OH226494   2.135   4.643   8.430 -0.0412  0.6714 -0.7742
 1620TIP3    H126495   2.209   4.689   8.471 -1.2005  2.4510 -0.5792
 1620TIP3    H226496   2.103   4.704   8.364 -0.5890 -0.5901 -1.6971
 1621TIP3   OH226497   5.968   0.175   9.034 -0.3723 -0.0207 -0.3411
 1621TIP3    H126498   5.893   0.235   9.031 -0.9976 -0.7959 -0.7788
 1621TIP3    H226499   5.969   0.134   8.947  0.5091 -0.0885 -0.3074
 1622TIP3   OH226500   0.674   5.059   0.644 -0.4693  0.1009  1.0253
 1622TIP3    H126501   0.605   5.087   0.584 -0.5882  0.9956  1.5773
 1622TIP3    H226502   0.709   4.979   0.604 -1.2875  0.0781  0.3367
 1623TIP3   OH226503   4.334   4.465   6.989 -0.1428 -0.2184 -0.8175
 1623TIP3    H126504   4.353   4.491   6.899  1.0090 -4.1229 -1.9016
 1623TIP3    H226505   4.413   4.489   7.038 -1.2614  3.0950 -0.3910
 1624TIP3   OH226506   0.081   3.156   7.282  1.1304  0.1718  0.0964
 1624TIP3    H126507   0.129   3.111   7.352 -0.1710 -0.8487  0.3741
 1624TIP3    H226508   0.048   3.236   7.324  0.6018 -0.2903  0.5647
 1625TIP3   OH226509   0.059   2.116   8.095 -0.4789  0.1054  0.1677
 1625TIP3    H126510   0.093   2.205   8.100  0.7122  0.0035 -3.3073
 1625TIP3    H226511  -0.035   2.125   8.110 -0.2114  1.7378  1.0984
 1626TIP3   OH226512   0.849   4.497   0.504 -0.0705  0.1345 -0.4020
 1626TIP3    H126513   0.874   4.404   0.501 -1.3196 -0.4136  2.7398
 1626TIP3    H226514   0.799   4.510   0.424 -1.2205 -2.3757 -0.1839
 1627TIP3   OH226515   2.445   0.665   2.238 -0.2246 -0.3593  0.0787
 1627TIP3    H126516   2.447   0.760   2.223  0.0117  0.0742  2.5077
 1627TIP3    H226517   2.533   0.644   2.271  0.0704 -1.6568 -1.3716
 1628TIP3   OH226518   1.125   3.176   0.483 -0.0104 -0.1096  0.4391
 1628TIP3    H126519   1.104   3.134   0.566 -1.3328  0.3221  0.3444
 1628TIP3    H226520   1.193   3.240   0.506  0.3043 -0.6311  1.0036
 1629TIP3   OH226521   4.468   4.098   0.795  0.5679 -0.2442  0.2331
 1629TIP3    H126522   4.473   4.080   0.889 -3.1853 -1.1216  0.4388
 1629TIP3    H226523   4.467   4.012   0.754 -0.3707  0.0205 -0.3305
 1630TIP3   OH226524   2.582   5.294   7.478  0.3650 -0.0571  0.6736
 1630TIP3    H126525   2.529   5.224   7.516  0.7949 -1.6326 -1.4390
 1630TIP3    H226526   2.523   5.339   7.417  0.6265  0.1814  0.5905
 1631TIP3   OH226527   3.872   3.561   1.579  0.3196  0.3413  0.5111
 1631TIP3    H126528   3.836   3.641   1.616 -0.7057 -0.1086  0.5159
 1631TIP3    H226529   3.830   3.490   1.628  0.9789 -0.2068  0.3054
 1632TIP3   OH226530   2.665   5.877   0.565  0.0928  0.2148  0.0409
 1632TIP3    H126531   2.705   5.939   0.626  0.9352  0.7310 -0.9969
 1632TIP3    H226532   2.597   5.928   0.521  1.6125  0.8400 -1.7115
 1633TIP3   OH226533   2.212   0.668   1.437  0.1069 -0.2940  0.7473
 1633TIP3    H126534   2.132   0.618   1.454 -1.0748  1.1214 -0.3798
 1633TIP3    H226535   2.244   0.692   1.524 -1.6545  0.5360  1.2014
 1634TIP3   OH226536   3.986   6.041   8.290 -0.0322  0.1011 -0.0676
 1634TIP3    H126537   4.073   6.000   8.286 -0.6287 -1.2017  0.0026
 1634TIP3    H226538   4.005   6.135   8.292  1.3403 -0.0633 -1.9708
 1635TIP3   OH226539   1.595   1.954   1.584 -0.1489  0.1366 -0.3382
 1635TIP3    H126540   1.643   1.880   1.549 -0.6524 -0.2030 -0.3207
 1635TIP3    H226541   1.555   1.922   1.665 -0.6284  0.3244 -0.4924
 1636TIP3   OH226542   4.297   5.748   8.091  0.4629  0.6804 -0.2740
 1636TIP3    H126543   4.330   5.660   8.072 -1.1124  0.2471 -1.1382
 1636TIP3    H226544   4.348   5.777   8.167  0.0445 -1.5495  0.9197
 1637TIP3   OH226545   1.279   2.547   8.358 -0.0653  0.2988 -0.2917
 1637TIP3    H126546   1.374   2.534   8.351  0.2083  0.9474  1.5947
 1637TIP3    H226547   1.248   2.547   8.267  1.6027 -0.8023 -0.9056
 1638TIP3   OH226548   5.349   6.433   7.489  0.7195 -0.3249  0.5083
 1638TIP3    H126549   5.297   6.399   7.417  0.3353  0.8166  0.2346
 1638TIP3    H226550   5.425   6.374   7.494  0.4652 -0.7379 -0.4564
 1639TIP3   OH226551   0.420   4.675   7.670 -0.0554 -0.3448 -1.0383
 1639TIP3    H126552   0.408   4.750   7.612 -1.0375  1.6388  1.5382
 1639TIP3    H226553   0.507   4.687   7.708 -0.4317 -0.1617 -0.2042
 1640TIP3   OH226554   6.254   3.481   7.855  0.0877 -0.3761  0.0768
 1640TIP3    H126555   6.202   3.505   7.931  0.6231 -2.8421  1.3393
 1640TIP3    H226556   6.190   3.463   7.786 -0.4923  0.2744  0.4339
 1641TIP3   OH226557   2.097   6.575   0.651 -0.1186  0.0818  0.0897
 1641TIP3    H126558   2.102   6.624   0.733  1.7808  2.0071 -1.0625
 1641TIP3    H226559   2.004   6.560   0.638 -0.5314  0.5544  2.1059
 1642TIP3   OH226560   5.253   4.209   2.107  0.4834  0.4219 -0.7241
 1642TIP3    H126561   5.286   4.289   2.149  0.4365  0.2685 -0.3922
 1642TIP3    H226562   5.305   4.139   2.145 -0.4385  0.1379  0.0474
 1643TIP3   OH226563   1.413   2.272   8.058 -0.3204  0.3286 -0.2855
 1643TIP3    H126564   1.412   2.192   8.111 -1.8914 -0.2185 -1.0666
 1643TIP3    H226565   1.407   2.240   7.968 -0.4076  1.3138 -0.6409
 1644TIP3   OH226566   2.923   0.188   0.932 -0.3895 -0.6646  1.0681
 1644TIP3    H126567   2.863   0.244   0.981 -0.0744  1.3394 -0.7126
 1644TIP3    H226568   2.868   0.119   0.896 -1.2286 -0.0964  1.2435
 1645TIP3   OH226569   5.453   0.300   2.759 -0.2740 -0.2698 -0.1568
 1645TIP3    H126570   5.374   0.249   2.774  1.3484 -2.2598  2.4453
 1645TIP3    H226571   5.490   0.263   2.679  0.0103 -2.1092  0.7802
 1646TIP3   OH226572   6.175   1.809   1.736  0.1437  0.7500  0.5163
 1646TIP3    H126573   6.188   1.781   1.646 -0.2710  2.6701 -0.1958
 1646TIP3    H226574   6.256   1.783   1.781 -0.2025 -1.4624 -0.0266
 1647TIP3   OH226575   6.359   1.706   0.062  0.3338 -0.3742 -0.3418
 1647TIP3    H126576   6.450   1.736   0.069 -0.0647  0.6648  0.7281
 1647TIP3    H226577   6.311   1.783   0.032 -0.1249 -1.0822 -1.4922
 1648TIP3   OH226578   3.326   1.561   0.062 -1.1693  0.3127  0.3692
 1648TIP3    H126579   3.332   1.508  -0.018  1.1924  1.4017 -0.2673
 1648TIP3    H226580   3.318   1.496   0.132  1.0114 -0.9630 -0.4316
 1649TIP3   OH226581   3.700   5.937   0.581 -0.1973  0.0261  0.3465
 1649TIP3    H126582   3.754   6.014   0.596  0.1735 -0.0194 -0.7328
 1649TIP3    H226583   3.745   5.866   0.627 -0.5676  0.4440  1.3856
 1650TIP3   OH226584   4.939   1.167   7.670 -0.4769 -0.2769  0.2877
 1650TIP3    H126585   4.954   1.083   7.714  1.7598  0.7594  1.6912
 1650TIP3    H226586   4.875   1.147   7.602 -1.4192 -2.7107  1.7562
 1651TIP3   OH226587   0.064   1.247   1.024  0.3997  0.0809 -0.2256
 1651TIP3    H126588   0.144   1.215   1.066  0.8287 -2.2989 -2.5952
 1651TIP3    H226589   0.063   1.205   0.939 -1.7844  2.5750 -1.5874
 1652TIP3   OH226590   2.340   0.392   0.686 -0.2790 -0.4511 -0.5516
 1652TIP3    H126591   2.256   0.391   0.640 -1.4189  2.1097  1.2758
 1652TIP3    H226592   2.350   0.482   0.716  1.0589 -1.6080  2.9638
 1653TIP3   OH226593   1.751   1.772   1.787  0.5819 -0.0161  0.3665
 1653TIP3    H126594   1.794   1.828   1.721 -0.3593  1.8057  1.2433
 1653TIP3    H226595   1.662   1.760   1.753  0.6150 -0.5169  0.4630
 1654TIP3   OH226596   4.293   5.415   9.095 -0.0004  0.3015  0.6964
 1654TIP3    H126597   4.230   5.471   9.141 -0.5711  0.0475  0.2412
 1654TIP3    H226598   4.301   5.337   9.149  0.1224  0.4468  0.8875
 1655TIP3   OH226599   2.511   4.495   7.959 -0.6979  0.3518 -0.8135
 1655TIP3    H126600   2.468   4.520   8.041  0.7891  1.7223 -0.4125
 1655TIP3    H226601   2.479   4.557   7.894 -1.7202 -0.6091 -1.2600
 1656TIP3   OH226602   4.023   1.304   0.594  0.1546 -0.2196  0.3263
 1656TIP3    H126603   4.083   1.360   0.545 -0.9192  1.9210  1.3137
 1656TIP3    H226604   3.947   1.294   0.537  0.3298 -0.6293  0.1663
 1657TIP3   OH226605   5.319   4.064   0.108  0.5058  0.0025  0.1707
 1657TIP3    H126606   5.326   4.066   0.203 -0.5505 -0.7089  0.2729
 1657TIP3    H226607   5.240   4.114   0.088 -0.2080 -1.2325 -0.2047
 1658TIP3   OH226608   4.568   3.433   1.982  0.3375 -0.2538  0.1512
 1658TIP3    H126609   4.482   3.462   1.951 -0.1315 -1.2410  0.4878
 1658TIP3    H226610   4.561   3.433   2.078 -0.6572 -4.0086  0.2513
 1659TIP3   OH226611   0.187   0.571   1.074  0.2637  0.2604  0.3640
 1659TIP3    H126612   0.110   0.627   1.076 -0.0573 -0.1644  2.0142
 1659TIP3    H226613   0.261   0.631   1.074 -0.0530  0.6695 -0.9919
 1660TIP3   OH226614   5.366   3.543   7.774 -0.1143 -0.6914 -0.2948
 1660TIP3    H126615   5.348   3.457   7.736  1.4337 -1.0289 -0.3392
 1660TIP3    H226616   5.402   3.594   7.702 -2.8363  0.7239 -0.8117
 1661TIP3   OH226617   6.369   1.780   1.946 -0.0270 -0.0938 -0.1386
 1661TIP3    H126618   6.352   1.851   2.007  0.3081 -0.8477  0.8530
 1661TIP3    H226619   6.453   1.743   1.975  0.5322  0.0160 -1.5189
 1662TIP3   OH226620   0.647   1.268   8.177  0.2700  0.2847  0.3135
 1662TIP3    H126621   0.663   1.174   8.178 -0.9794  0.0584  0.6333
 1662TIP3    H226622   0.700   1.300   8.104  1.0466 -0.5958  0.4729
 1663TIP3   OH226623   3.384   3.569   7.757  0.5767  0.0230  0.3871
 1663TIP3    H126624   3.395   3.657   7.720  1.6138 -0.6824 -1.1225
 1663TIP3    H226625   3.350   3.583   7.845  0.4347  1.9181  0.0655
 1664TIP3   OH226626   6.190   5.313   1.581 -0.1036 -0.5099  0.1526
 1664TIP3    H126627   6.104   5.323   1.540  0.2929  1.4810 -0.2941
 1664TIP3    H226628   6.187   5.227   1.623 -2.6555 -0.0676  1.0146
 1665TIP3   OH226629   3.187   0.380   9.170 -0.1356 -0.3473 -0.5141
 1665TIP3    H126630   3.256   0.314   9.175 -1.0530 -1.3051  0.1011
 1665TIP3    H226631   3.106   0.329   9.172 -0.9110  0.8431  1.1935
 1666TIP3   OH226632   5.712   0.045   8.306  0.0427  0.6730  0.1622
 1666TIP3    H126633   5.684   0.006   8.224  1.8362 -0.3479 -0.0132
 1666TIP3    H226634   5.808   0.036   8.306  0.3244  2.8802  1.2447
 1667TIP3   OH226635   1.872   3.431   1.628  0.2017  0.4111  0.1927
 1667TIP3    H126636   1.815   3.507   1.641  0.4566  0.5340  0.6172
 1667TIP3    H226637   1.913   3.417   1.714  0.0767 -0.2699  0.1449
 1668TIP3   OH226638   2.889   0.748   2.648 -0.3309  0.0139  0.2859
 1668TIP3    H126639   2.805   0.794   2.656 -0.2706 -0.1789  2.4673
 1668TIP3    H226640   2.897   0.730   2.554 -3.0397 -0.5389  0.0904
 1669TIP3   OH226641   0.213   5.202   7.123 -0.3329  0.0261 -0.6569
 1669TIP3    H126642   0.207   5.120   7.074 -1.3905 -0.1862 -0.1914
 1669TIP3    H226643   0.147   5.259   7.084 -0.5551  0.1724 -0.0793
 1670TIP3   OH226644   5.062   0.141   1.372 -0.2176  0.6464  0.3560
 1670TIP3    H126645   5.122   0.194   1.424  0.5278 -0.6711  0.8886
 1670TIP3    H226646   5.085   0.161   1.281  2.1679 -0.9839  0.5199
 1671TIP3   OH226647   2.356   3.674   0.516 -0.4785 -0.6365 -0.3337
 1671TIP3    H126648   2.358   3.578   0.521 -0.7570 -0.5850  1.2424
 1671TIP3    H226649   2.438   3.701   0.558 -0.6630 -0.1783 -0.2696
 1672TIP3   OH226650   0.179   3.659   0.200 -0.0898 -0.1018  0.5555
 1672TIP3    H126651   0.166   3.602   0.276  0.7554 -0.8656  0.1449
 1672TIP3    H226652   0.250   3.618   0.151 -0.9330  0.1103 -0.9091
 1673TIP3   OH226653   6.634   0.096   9.202 -0.3072 -0.3728  0.6126
 1673TIP3    H126654   6.689   0.019   9.193 -0.3271 -0.3839  0.5880
 1673TIP3    H226655   6.620   0.105   9.297 -0.9688 -0.8653  0.5710
 1674TIP3   OH226656   3.057   2.400   0.961  0.3572 -0.2953  0.4772
 1674TIP3    H126657   3.101   2.336   1.017  0.0322 -0.0855  0.9731
 1674TIP3    H226658   2.987   2.436   1.015 -0.6132 -0.8177 -0.3821
 1675TIP3   OH226659   3.324   0.823   1.137  0.4813 -0.0956 -0.3335
 1675TIP3    H126660   3.355   0.781   1.057 -0.6883 -1.6965  0.0105
 1675TIP3    H226661   3.273   0.898   1.107  2.0382  0.7319 -0.9839
 1676TIP3   OH226662   3.790   3.963   2.806 -0.5343 -0.3876  0.2156
 1676TIP3    H126663   3.852   4.013   2.753 -0.1661 -0.7343  0.3169
 1676TIP3    H226664   3.759   3.894   2.748 -1.1018 -0.0037  0.0513
 1677TIP3   OH226665   2.795   3.273   8.558 -0.4028 -0.7580 -0.3114
 1677TIP3    H126666   2.844   3.219   8.620  0.4482 -0.5615 -0.7972
 1677TIP3    H226667   2.705   3.243   8.566 -0.3025 -0.7939  0.9671
 1678TIP3   OH226668   2.163   3.988   7.908 -0.1351  0.3632 -0.5795
 1678TIP3    H126669   2.193   3.932   7.836  0.1425  0.9840 -0.9543
 1678TIP3    H226670   2.225   3.972   7.978  1.3077  1.8483 -1.4426
 1679TIP3   OH226671   6.599   4.495   1.745  0.8645  0.1297 -0.2580
 1679TIP3    H126672   6.649   4.415   1.764  0.1939 -0.2420 -0.0456
 1679TIP3    H226673   6.666   4.558   1.718  1.4104 -0.4771 -0.3613
 1680TIP3   OH226674   3.932   5.591   1.812 -0.4717  0.6432 -0.2855
 1680TIP3    H126675   3.947   5.653   1.883 -1.8009  1.1502 -0.4079
 1680TIP3    H226676   3.837   5.593   1.799 -0.3871 -0.4283 -1.1896
 1681TIP3   OH226677   2.098   1.331   9.064 -0.1765 -0.3604 -0.0560
 1681TIP3    H126678   2.042   1.308   9.138 -0.8267  0.2783 -0.3441
 1681TIP3    H226679   2.154   1.401   9.098  1.5349 -1.9858  0.6997
 1682TIP3   OH226680   1.309   1.233   1.675  0.6631 -0.3343 -0.1183
 1682TIP3    H126681   1.281   1.218   1.584  0.6798  0.4997 -0.2715
 1682TIP3    H226682   1.245   1.186   1.728  0.4787 -0.5825 -0.5547
 1683TIP3   OH226683   3.048   6.649   8.303 -0.2836  0.7139 -0.0659
 1683TIP3    H126684   3.060   6.579   8.367 -2.0520 -0.1820 -0.6581
 1683TIP3    H226685   3.069   6.609   8.219  3.0353  2.1603 -0.0534
 1684TIP3   OH226686   2.735   1.888   0.374  0.0991  0.3421 -0.2195
 1684TIP3    H126687   2.708   1.822   0.311 -0.8622  2.0579 -1.6861
 1684TIP3    H226688   2.717   1.972   0.331  0.1066  1.5849  2.0380
 1685TIP3   OH226689   3.745   5.861   8.783  0.0052  0.1327  0.0773
 1685TIP3    H126690   3.654   5.832   8.771  0.4265 -1.0035 -0.5653
 1685TIP3    H226691   3.759   5.923   8.712 -0.4675  0.8401  0.5886
 1686TIP3   OH226692   3.456   5.824   8.765 -0.2643  0.8229  0.3701
 1686TIP3    H126693   3.399   5.796   8.836  0.4617 -0.3116  0.5252
 1686TIP3    H226694   3.420   5.782   8.687  0.3248  0.1306  0.4632
 1687TIP3   OH226695   0.592   1.151   1.483  0.2093  0.6567 -0.4848
 1687TIP3    H126696   0.522   1.141   1.418 -2.5496  1.6356  2.1149
 1687TIP3    H226697   0.603   1.245   1.492  0.7304  0.5314  0.2893
 1688TIP3   OH226698   2.386   1.503   1.712 -0.1512  0.2277 -0.6754
 1688TIP3    H126699   2.462   1.495   1.655  1.0430  2.7309  0.4045
 1688TIP3    H226700   2.385   1.422   1.763  2.0266  0.2491 -0.5026
 1689TIP3   OH226701   2.211   6.586   8.950 -0.0196 -0.3906  0.0048
 1689TIP3    H126702   2.280   6.545   9.001  1.6998  1.4011 -0.7750
 1689TIP3    H226703   2.233   6.679   8.949 -0.6141 -0.1670 -2.9552
 1690TIP3   OH226704   0.937   4.222   2.298 -0.7081  0.5380  0.0701
 1690TIP3    H126705   0.935   4.318   2.299 -1.3546  0.5717 -1.6702
 1690TIP3    H226706   0.975   4.198   2.383 -3.3607  2.2446  1.9069
 1691TIP3   OH226707   1.157   2.619   2.163 -0.2190 -0.0834 -0.0222
 1691TIP3    H126708   1.215   2.556   2.121 -0.1942 -0.0661 -0.0136
 1691TIP3    H226709   1.152   2.693   2.102  2.2622  1.3244  1.3384
 1692TIP3   OH226710   0.770   4.282   0.915  0.8991  0.5928 -0.0638
 1692TIP3    H126711   0.755   4.288   1.010  1.5600  0.9152  0.0269
 1692TIP3    H226712   0.852   4.329   0.901 -0.2713  2.4848 -1.0876
 1693TIP3   OH226713   3.639   4.760   2.264  0.2143  0.4824 -0.2645
 1693TIP3    H126714   3.705   4.804   2.317  2.4918 -2.0498 -0.7879
 1693TIP3    H226715   3.599   4.696   2.322 -0.8824  1.0768 -0.3260
 1694TIP3   OH226716   1.034   4.927   8.400  0.1641  0.4659 -0.0917
 1694TIP3    H126717   1.064   5.017   8.411 -1.8197  1.1781 -0.2301
 1694TIP3    H226718   1.112   4.880   8.368  1.7962  1.6470  1.9193
 1695TIP3   OH226719   3.327   5.444   8.010  0.0823 -0.2160 -0.0097
 1695TIP3    H126720   3.315   5.488   8.095 -2.2699 -1.1275  0.1934
 1695TIP3    H226721   3.322   5.351   8.031  2.1948 -0.5539 -0.8268
 1696TIP3   OH226722   0.761   1.563   0.885  0.3587 -0.1231 -0.2564
 1696TIP3    H126723   0.707   1.616   0.944  1.1520 -0.5468  0.8810
 1696TIP3    H226724   0.711   1.483   0.873  0.4463 -0.2676  0.3086
 1697TIP3   OH226725   4.738   1.198   7.476 -0.0946 -1.0007 -0.0973
 1697TIP3    H126726   4.662   1.173   7.529  0.2550 -1.9265 -0.0137
 1697TIP3    H226727   4.716   1.167   7.388 -1.5609  2.2773 -1.0515
 1698TIP3   OH226728   5.740   4.610   1.411  0.2597  0.0847 -0.5213
 1698TIP3    H126729   5.663   4.655   1.446  0.7667  0.2832  0.3813
 1698TIP3    H226730   5.705   4.549   1.346 -1.1464 -2.4246  2.3203
 1699TIP3   OH226731   3.978   3.591   0.328 -0.0737  0.7933  0.1463
 1699TIP3    H126732   3.994   3.497   0.336 -0.7776  0.6066 -0.5551
 1699TIP3    H226733   4.019   3.628   0.406 -0.0499 -0.1284  0.5935
 1700TIP3   OH226734   1.668   1.880   2.313 -0.1219  0.0387  0.2223
 1700TIP3    H126735   1.621   1.800   2.289  1.2510 -0.7003 -0.1378
 1700TIP3    H226736   1.709   1.859   2.397  1.4526 -0.2067 -0.5659
 1701TIP3   OH226737   0.082   6.041   7.806  0.8122 -0.0294  0.4004
 1701TIP3    H126738   0.045   5.962   7.767  0.7128 -0.5206  1.4355
 1701TIP3    H226739   0.009   6.103   7.809  0.5229 -0.3849  0.8353
 1702TIP3   OH226740   5.108   6.587   2.194 -0.1723  0.2538  0.0464
 1702TIP3    H126741   5.094   6.497   2.164  2.9406 -0.6287  0.9470
 1702TIP3    H226742   5.154   6.630   2.122  0.1355  0.5364  0.4076
 1703TIP3   OH226743   3.624   0.310   0.585  0.1214  0.5742  0.0603
 1703TIP3    H126744   3.554   0.353   0.534  1.1434  0.5131 -1.4487
 1703TIP3    H226745   3.578   0.244   0.636 -0.7328 -1.3027 -2.8514
 1704TIP3   OH226746   5.805   2.061   0.823 -0.0548  0.6152 -0.0278
 1704TIP3    H126747   5.715   2.093   0.833  0.4323  1.9170  0.4732
 1704TIP3    H226748   5.836   2.047   0.912 -0.1378 -0.9951 -0.2356
 1705TIP3   OH226749   1.240   4.764   0.574 -0.0149  0.5893  0.6975
 1705TIP3    H126750   1.203   4.852   0.571 -0.2695  0.5298  1.6503
 1705TIP3    H226751   1.283   4.759   0.660  2.8721  0.9090 -0.6117
 1706TIP3   OH226752   1.340   1.328   8.594 -0.5141 -0.5864  0.0764
 1706TIP3    H126753   1.303   1.241   8.583  0.5379 -0.9053 -1.1651
 1706TIP3    H226754   1.422   1.313   8.641  0.1841 -0.4085 -1.0483
 1707TIP3   OH226755   0.708   0.745   2.497 -0.4609 -0.0545 -0.1578
 1707TIP3    H126756   0.754   0.692   2.562 -0.2113  0.1827 -0.1375
 1707TIP3    H226757   0.726   0.836   2.522  0.8340  0.0662 -1.3532
 1708TIP3   OH226758   1.756   4.365   1.505  0.0744  0.4790  0.6163
 1708TIP3    H126759   1.773   4.286   1.454  2.4702  0.8106  0.7486
 1708TIP3    H226760   1.823   4.364   1.573  0.9479  3.1383 -0.0664
 1709TIP3   OH226761   2.806   3.160   6.812  0.1409 -0.6685  0.1359
 1709TIP3    H126762   2.714   3.167   6.785 -0.0010  1.2263  0.9871
 1709TIP3    H226763   2.830   3.248   6.839  1.8176 -1.4130  1.2233
 1710TIP3   OH226764   5.501   6.444   8.586 -0.3363  0.1018 -0.0207
 1710TIP3    H126765   5.416   6.436   8.543 -0.5127 -0.6761  0.4506
 1710TIP3    H226766   5.485   6.415   8.675  0.2978  0.5364  0.2412
 1711TIP3   OH226767   4.097   2.718   2.513  1.0111  0.4141 -0.3259
 1711TIP3    H126768   4.075   2.805   2.549  0.2428 -0.4137  1.3104
 1711TIP3    H226769   4.025   2.698   2.453  1.3102  0.9820 -0.8940
 1712TIP3   OH226770   2.640   4.343   2.050 -0.1209  0.7721  0.3788
 1712TIP3    H126771   2.691   4.268   2.079  0.4249  0.9926  0.0012
 1712TIP3    H226772   2.569   4.305   1.998 -1.2590  0.3510  2.1588
 1713TIP3   OH226773   0.275   2.015   8.323 -0.2987  0.0681 -0.1876
 1713TIP3    H126774   0.232   2.064   8.252 -0.8304 -2.0097 -1.3880
 1713TIP3    H226775   0.307   2.083   8.383 -0.5465  1.8837 -1.9881
 1714TIP3   OH226776   1.921   2.283   0.277  0.1090 -0.1039  0.2134
 1714TIP3    H126777   1.991   2.272   0.212 -1.8682 -2.2839 -1.7711
 1714TIP3    H226778   1.922   2.201   0.327 -2.8291 -1.7149 -1.9862
 1715TIP3   OH226779   0.376   3.732   0.801  0.5452  0.3381 -0.1857
 1715TIP3    H126780   0.431   3.810   0.805 -0.6333  1.3323 -2.0428
 1715TIP3    H226781   0.314   3.742   0.874  0.6643  0.9255 -0.1616
 1716TIP3   OH226782   5.708   6.219   8.205 -0.2381 -0.0247 -0.0795
 1716TIP3    H126783   5.622   6.234   8.166 -1.0419 -0.7128  1.3707
 1716TIP3    H226784   5.769   6.236   8.133 -1.5446  0.8180 -1.0504
 1717TIP3   OH226785   5.559   4.898   8.251 -0.4300 -0.2202 -0.8851
 1717TIP3    H126786   5.650   4.870   8.263 -0.1907  0.5975 -0.7179
 1717TIP3    H226787   5.510   4.849   8.316  0.1873  0.7797  0.3808
 1718TIP3   OH226788   1.732   4.336   7.694  0.1797 -0.0663 -0.6923
 1718TIP3    H126789   1.824   4.357   7.677  0.2315  0.6129  0.3597
 1718TIP3    H226790   1.730   4.241   7.700  1.0128 -0.0407  0.2779
 1719TIP3   OH226791   1.933   1.596   9.106  0.3157 -0.3228 -0.3916
 1719TIP3    H126792   2.028   1.603   9.114  0.1679  1.9493  0.0655
 1719TIP3    H226793   1.900   1.614   9.194 -0.5825  2.0642 -1.1335
 1720TIP3   OH226794   2.231   1.704   1.627 -0.5756  0.1770 -0.1161
 1720TIP3    H126795   2.273   1.621   1.649 -0.4968  0.2949  0.1875
 1720TIP3    H226796   2.163   1.715   1.694 -0.7858  0.2096 -0.3342
 1721TIP3   OH226797   0.751   0.842   1.773  0.1463  0.3313  0.4130
 1721TIP3    H126798   0.730   0.893   1.851 -1.4604  1.3531 -0.6324
 1721TIP3    H226799   0.788   0.906   1.712  0.0449 -0.1685 -0.1826
 1722TIP3   OH226800   4.815   6.349   0.105  0.3737  0.1356  0.2435
 1722TIP3    H126801   4.765   6.417   0.058 -0.4405 -0.3737  0.3545
 1722TIP3    H226802   4.842   6.288   0.037  1.2580  0.6470  0.1192
 1723TIP3   OH226803   5.340   1.425   0.172  0.1524 -0.8396  0.7092
 1723TIP3    H126804   5.328   1.451   0.264 -0.0928 -1.6083  0.8938
 1723TIP3    H226805   5.424   1.465   0.148 -1.0091  1.6471  0.4401
 1724TIP3   OH226806   6.354   0.598   1.626  0.2263 -0.0196  0.1865
 1724TIP3    H126807   6.369   0.613   1.533  0.4477 -0.9878  0.0554
 1724TIP3    H226808   6.259   0.597   1.636  0.1569 -1.7389 -0.3651
 1725TIP3   OH226809   2.906   2.966   0.985  0.3930  0.4250 -0.0608
 1725TIP3    H126810   2.887   3.001   0.898 -2.3485  2.0007  1.0281
 1725TIP3    H226811   2.934   3.043   1.036 -2.6731  0.6224  1.5812
 1726TIP3   OH226812   2.949   3.332   1.912 -0.3071 -0.3484 -0.0599
 1726TIP3    H126813   3.004   3.352   1.837  0.0640  0.7316  0.4883
 1726TIP3    H226814   2.985   3.250   1.947 -0.0826 -0.5134 -0.6563
 1727TIP3   OH226815   1.870   6.167   7.778  0.3863  0.2266 -0.2649
 1727TIP3    H126816   1.955   6.135   7.808  0.4614  1.6123  1.1329
 1727TIP3    H226817   1.880   6.263   7.777 -1.1636  0.4139  0.0131
 1728TIP3   OH226818   5.012   0.436   1.845 -0.2131 -0.5111  0.2719
 1728TIP3    H126819   4.945   0.371   1.825 -0.3996 -0.2839  0.1498
 1728TIP3    H226820   5.036   0.419   1.936 -0.8875 -0.1921  0.5083
 1729TIP3   OH226821   1.348   4.969   1.705 -0.2516  0.4998 -0.3017
 1729TIP3    H126822   1.409   5.011   1.644  0.2711 -1.4064 -1.1718
 1729TIP3    H226823   1.388   4.981   1.791 -0.2914  2.0244 -0.4750
 1730TIP3   OH226824   5.272   3.590   0.454 -0.6906  0.5487 -0.3605
 1730TIP3    H126825   5.300   3.592   0.545 -1.2847  0.6329 -0.1709
 1730TIP3    H226826   5.233   3.504   0.442  0.4423  0.0969 -0.8723
 1731TIP3   OH226827   1.310   1.515   0.460  0.2686  0.0967  0.2058
 1731TIP3    H126828   1.239   1.577   0.475  1.4859  1.2340  1.6030
 1731TIP3    H226829   1.345   1.537   0.374 -0.1257  0.5001  0.1486
 1732TIP3   OH226830   1.377   4.202   3.150  0.3413 -0.4096 -0.1462
 1732TIP3    H126831   1.371   4.113   3.117  0.4051 -0.4466 -0.0580
 1732TIP3    H226832   1.295   4.243   3.123  1.0989  0.0656 -1.8322
 1733TIP3   OH226833   1.034   6.019   8.828  0.5787  0.4161 -0.0105
 1733TIP3    H126834   0.999   5.937   8.863 -0.1491  0.5120 -0.4883
 1733TIP3    H226835   1.122   6.026   8.866  0.0467  0.2269  1.3256
 1734TIP3   OH226836   4.675   0.013   1.084  0.2165  0.0553 -0.5387
 1734TIP3    H126837   4.640   0.027   0.996  1.2243  0.9821 -0.8106
 1734TIP3    H226838   4.692   0.101   1.118 -1.8722 -0.1731  1.3334
 1735TIP3   OH226839   6.077   3.628   2.688  0.0275  0.1243  0.3425
 1735TIP3    H126840   6.127   3.579   2.754 -0.5633 -0.9588  0.0139
 1735TIP3    H226841   5.994   3.581   2.681 -0.0166  0.3582 -1.0046
 1736TIP3   OH226842   6.644   0.807   1.975 -0.2441  0.2731  0.1609
 1736TIP3    H126843   6.577   0.794   2.042 -0.6749  1.5609  0.0060
 1736TIP3    H226844   6.617   0.753   1.902  0.9457 -2.2522  1.4639
 1737TIP3   OH226845   3.041   5.704   1.808 -0.1118 -0.5092  0.5213
 1737TIP3    H126846   2.967   5.645   1.797 -1.8950  1.4202  1.3497
 1737TIP3    H226847   3.047   5.751   1.725  0.1646 -0.6580  0.4581
 1738TIP3   OH226848   2.623   1.585   2.388  0.2143 -0.2588 -0.4007
 1738TIP3    H126849   2.575   1.580   2.471  1.1228 -1.1539  0.1074
 1738TIP3    H226850   2.714   1.596   2.415  0.5986 -1.2352 -1.2565
 1739TIP3   OH226851   2.903   3.343   2.700  0.5913 -0.1761 -0.2068
 1739TIP3    H126852   2.819   3.388   2.696  0.4184 -0.5086 -0.4546
 1739TIP3    H226853   2.930   3.348   2.792  0.8021  0.8271 -0.3158
 1740TIP3   OH226854   6.326   3.740   8.683 -0.4403  0.5061  0.9078
 1740TIP3    H126855   6.406   3.789   8.664 -0.0355 -0.6369 -0.5393
 1740TIP3    H226856   6.318   3.742   8.778  2.0831 -0.5120  1.2055
 1741TIP3   OH226857   2.240   0.333   8.663  0.6219  0.1100  0.2402
 1741TIP3    H126858   2.314   0.393   8.673  0.9403 -0.4252  1.2142
 1741TIP3    H226859   2.172   0.387   8.622  1.3827  0.7332 -0.2436
 1742TIP3   OH226860   0.127   5.492   0.425  0.1372 -0.5138  0.9793
 1742TIP3    H126861   0.064   5.528   0.489  0.7685 -1.1423  1.9729
 1742TIP3    H226862   0.212   5.502   0.467  0.7136  0.1437 -0.2766
 1743TIP3   OH226863   1.651   0.548   8.517 -0.1196 -0.0206 -0.1883
 1743TIP3    H126864   1.704   0.492   8.574 -0.4776 -1.5052 -1.2779
 1743TIP3    H226865   1.564   0.509   8.518 -0.9235  1.6590  0.5550
 1744TIP3   OH226866   0.402   6.015   2.409  0.0981 -0.3011  0.1100
 1744TIP3    H126867   0.358   6.021   2.494 -0.0130  2.1568 -0.0557
 1744TIP3    H226868   0.342   6.058   2.348  1.7993  1.3370 -0.4943
 1745TIP3   OH226869   2.630   4.854   7.922  0.2012 -0.0926  0.0098
 1745TIP3    H126870   2.598   4.833   8.010 -0.9342 -0.0724 -0.3855
 1745TIP3    H226871   2.644   4.769   7.881  1.6117 -0.1246  0.4897
 1746TIP3   OH226872   5.584   0.255   8.408  0.5626  0.4746  0.4870
 1746TIP3    H126873   5.639   0.192   8.362  0.4915  0.0590  0.9613
 1746TIP3    H226874   5.496   0.241   8.372  0.7927  1.2907 -0.4286
 1747TIP3   OH226875   6.548   4.803   1.094  0.7073 -0.3612  0.5565
 1747TIP3    H126876   6.589   4.889   1.093 -1.1891  0.5813  0.8373
 1747TIP3    H226877   6.557   4.772   1.184 -0.7891  0.6685  1.0911
 1748TIP3   OH226878   3.579   3.761   8.810 -0.3782 -0.2778  0.5139
 1748TIP3    H126879   3.600   3.781   8.901  1.4570  2.7233 -0.4294
 1748TIP3    H226880   3.499   3.810   8.792  0.2391  0.5970  0.0781
 1749TIP3   OH226881   6.231   3.841   1.352  0.3987  0.0128 -0.4857
 1749TIP3    H126882   6.223   3.915   1.411  2.3321 -0.0895 -0.0517
 1749TIP3    H226883   6.301   3.865   1.292  2.1995 -2.0521  0.6492
 1750TIP3   OH226884   2.409   2.493   8.057 -0.0102 -0.1324  0.1817
 1750TIP3    H126885   2.388   2.536   7.975  0.7899  0.4249  0.2599
 1750TIP3    H226886   2.395   2.400   8.039  0.1671 -0.0181 -0.5884
 1751TIP3   OH226887   5.819   2.381   9.064 -0.1006  0.1379  0.0976
 1751TIP3    H126888   5.780   2.469   9.063  0.2704  0.3003 -0.5112
 1751TIP3    H226889   5.865   2.374   8.981 -2.0938 -1.5209 -0.9501
 1752TIP3   OH226890   4.212   4.938   0.280  0.0068 -0.2422  0.0387
 1752TIP3    H126891   4.196   4.861   0.334 -1.7644 -0.9363 -1.3666
 1752TIP3    H226892   4.144   4.934   0.212  0.3275  2.1647 -0.5051
 1753TIP3   OH226893   5.656   1.367   1.686 -0.0570  0.7368 -0.6428
 1753TIP3    H126894   5.610   1.357   1.770  2.4840  0.1260  0.7823
 1753TIP3    H226895   5.613   1.305   1.628 -0.9523  0.1122  0.6266
 1754TIP3   OH226896   5.280   4.014   1.603 -0.2686 -0.0380  0.6281
 1754TIP3    H126897   5.287   3.929   1.647  1.9151 -0.3422 -0.1626
 1754TIP3    H226898   5.226   3.997   1.526 -0.2264 -0.6082  0.7182
 1755TIP3   OH226899   4.778   2.876   0.719  0.2238 -0.5846  0.4494
 1755TIP3    H126900   4.740   2.851   0.803  1.0356 -0.5125  0.8553
 1755TIP3    H226901   4.852   2.933   0.743 -0.0934  0.1889 -0.3528
 1756TIP3   OH226902   3.622   5.221   7.778  0.2295  0.1519  0.0509
 1756TIP3    H126903   3.669   5.171   7.711  0.4378 -0.8539  0.9196
 1756TIP3    H226904   3.530   5.196   7.766  0.2822 -0.1265  0.2099
 1757TIP3   OH226905   0.977   4.458   1.861 -0.3920 -0.4062  0.2544
 1757TIP3    H126906   0.885   4.431   1.862 -0.4560 -0.2481 -0.5544
 1757TIP3    H226907   0.974   4.553   1.852 -0.1788 -0.5547 -2.0308
 1758TIP3   OH226908   1.594   4.889   6.866 -0.0283  0.3677  0.1978
 1758TIP3    H126909   1.646   4.943   6.926 -0.5591 -0.4448  1.4464
 1758TIP3    H226910   1.503   4.909   6.890 -0.2308 -1.0391  0.6622
 1759TIP3   OH226911   6.366   5.569   0.410  0.3497 -0.4164 -0.1661
 1759TIP3    H126912   6.347   5.480   0.380 -0.2101  0.1568 -1.5554
 1759TIP3    H226913   6.281   5.612   0.415  0.5357 -0.1619  1.2481
 1760TIP3   OH226914   6.266   6.541   1.097  0.1100  0.6819  0.3560
 1760TIP3    H126915   6.213   6.600   1.150 -2.4871 -0.4582 -0.7737
 1760TIP3    H226916   6.247   6.566   1.007  2.3545  0.8545 -0.1311
 1761TIP3   OH226917   0.987   3.784   1.975  0.2928 -0.2821 -0.4250
 1761TIP3    H126918   0.909   3.835   1.954  0.3153 -0.9549 -2.3669
 1761TIP3    H226919   1.056   3.850   1.987 -0.3768  0.2759  0.4401
 1762TIP3   OH226920   4.540   6.555   1.324 -0.8802  0.0625 -0.3463
 1762TIP3    H126921   4.494   6.472   1.325  1.4044 -1.2909 -0.0439
 1762TIP3    H226922   4.501   6.604   1.251 -2.4955 -1.1098 -0.3001
 1763TIP3   OH226923   2.842   3.092   3.076 -0.1506 -0.1419 -0.4043
 1763TIP3    H126924   2.766   3.126   3.123 -1.7476 -1.6214 -1.7870
 1763TIP3    H226925   2.891   3.170   3.049 -1.6704  0.8951 -0.2573
 1764TIP3   OH226926   2.325   4.320   7.605 -0.2514  0.3589 -0.1177
 1764TIP3    H126927   2.281   4.326   7.690  1.5304  1.1203  0.8029
 1764TIP3    H226928   2.378   4.240   7.612 -0.9626 -0.2135 -0.9830
 1765TIP3   OH226929   1.717   2.595   2.916  0.1450 -0.1037 -0.1036
 1765TIP3    H126930   1.773   2.526   2.952  0.0852  0.7252  1.7148
 1765TIP3    H226931   1.640   2.548   2.883  1.9850 -1.3131 -3.1043
 1766TIP3   OH226932   0.803   5.187   9.088  0.5747 -0.1855 -0.6934
 1766TIP3    H126933   0.727   5.240   9.065  1.2108  0.8631 -0.4673
 1766TIP3    H226934   0.848   5.239   9.155 -0.1433 -2.1892  1.4650
 1767TIP3   OH226935   5.798   1.949   1.910  0.2653 -0.0386 -0.2502
 1767TIP3    H126936   5.820   1.867   1.867  0.4868  0.0439 -0.2928
 1767TIP3    H226937   5.756   2.001   1.842  0.5246  0.0534 -0.3378
 1768TIP3   OH226938   0.056   5.653   1.124 -0.2450 -0.2114 -0.0500
 1768TIP3    H126939   0.102   5.569   1.131 -0.1931 -0.3035 -1.2830
 1768TIP3    H226940  -0.017   5.645   1.186 -0.4104 -1.2823 -0.3553
 1769TIP3   OH226941   3.561   6.421   2.201 -0.1722  0.1976 -0.5779
 1769TIP3    H126942   3.499   6.403   2.273  0.9875 -0.3881  0.3019
 1769TIP3    H226943   3.618   6.490   2.236  1.0946 -0.8635 -0.4956
 1770TIP3   OH226944   6.050   5.316   2.795  0.7412 -0.0291 -0.3835
 1770TIP3    H126945   6.070   5.223   2.786  1.8227  0.2531 -1.0407
 1770TIP3    H226946   5.954   5.320   2.795  0.6103 -1.3607  2.0833
 1771TIP3   OH226947   0.558   2.694   7.581 -0.4820 -0.0867 -0.2033
 1771TIP3    H126948   0.496   2.689   7.654  0.0069  0.0625  0.2327
 1771TIP3    H226949   0.603   2.778   7.594  1.8638 -1.4258  1.2119
 1772TIP3   OH226950   1.682   2.892   1.146  0.1225 -0.0064  0.3329
 1772TIP3    H126951   1.674   2.923   1.055 -0.5619  1.0182  0.7234
 1772TIP3    H226952   1.614   2.941   1.193  1.2364  0.3386  1.6154
 1773TIP3   OH226953   3.587   3.364   1.447  0.4567  0.4178  0.9254
 1773TIP3    H126954   3.523   3.407   1.503 -0.1033  1.3639 -0.3873
 1773TIP3    H226955   3.595   3.422   1.371  1.5317 -0.5911  0.2369
 1774TIP3   OH226956   3.442   4.110   1.515 -0.7925 -0.4409 -0.3892
 1774TIP3    H126957   3.393   4.166   1.455 -0.1176  0.2148 -0.3395
 1774TIP3    H226958   3.524   4.091   1.470 -0.7804 -0.9366 -0.1704
 1775TIP3   OH226959   5.109   3.389   7.295 -0.2227 -0.1514  0.1117
 1775TIP3    H126960   5.131   3.462   7.238 -0.2599  1.1351  1.6697
 1775TIP3    H226961   5.016   3.373   7.279  0.1410 -0.9169 -1.3620
 1776TIP3   OH226962   0.356   1.698   9.176 -0.1322  0.1108 -0.3544
 1776TIP3    H126963   0.452   1.701   9.180 -0.1753  0.4880  1.1606
 1776TIP3    H226964   0.329   1.784   9.208 -0.9939 -1.1373  2.5527
 1777TIP3   OH226965   3.199   2.514   8.038  0.1918 -0.2879 -0.3945
 1777TIP3    H126966   3.226   2.450   7.973 -4.1091 -1.3981 -1.3907
 1777TIP3    H226967   3.217   2.472   8.122  0.9797 -1.0852 -0.9430
 1778TIP3   OH226968   0.816   3.392   8.855 -0.0223  0.1842 -0.3452
 1778TIP3    H126969   0.887   3.346   8.900 -0.5939 -1.3840 -0.9721
 1778TIP3    H226970   0.773   3.443   8.923  1.6939  1.1796  0.0419
 1779TIP3   OH226971   2.885   3.817   1.102 -0.8370  0.3470  0.0479
 1779TIP3    H126972   2.957   3.765   1.139 -0.4764  0.4007 -0.5607
 1779TIP3    H226973   2.926   3.870   1.034 -1.2228  1.3718  0.6016
 1780TIP3   OH226974   5.475   0.771   1.521 -0.2857  0.0546 -0.4092
 1780TIP3    H126975   5.510   0.837   1.582  1.5056 -0.8919 -0.3150
 1780TIP3    H226976   5.473   0.814   1.436  1.0907  0.2100 -0.3902
 1781TIP3   OH226977   0.006   4.235   9.198  0.5901  0.6335  0.2616
 1781TIP3    H126978  -0.048   4.268   9.270 -2.8307 -0.6518 -1.4713
 1781TIP3    H226979   0.011   4.141   9.213  0.6721  0.4889 -0.6247
 1782TIP3   OH226980   1.985   1.114   1.522 -0.5566  0.5082  0.4713
 1782TIP3    H126981   1.994   1.037   1.578  0.7360  1.2993  1.3950
 1782TIP3    H226982   1.927   1.173   1.571 -1.4485  0.1952 -0.1812
 1783TIP3   OH226983   1.801   2.639   8.240  0.5819  0.3487 -0.3283
 1783TIP3    H126984   1.876   2.630   8.300 -0.2946 -1.2864  0.6083
 1783TIP3    H226985   1.795   2.553   8.197 -0.3362  0.6945 -0.9080
 1784TIP3   OH226986   6.143   4.605   8.251 -0.4340 -0.0146  0.1405
 1784TIP3    H126987   6.068   4.559   8.289  0.4943 -2.3071 -0.5750
 1784TIP3    H226988   6.137   4.586   8.158  1.0499 -0.3190  0.0873
 1785TIP3   OH226989   5.137   0.240   1.127  0.7624 -0.4096 -0.4155
 1785TIP3    H126990   5.132   0.332   1.153  1.4722 -0.2087 -0.9495
 1785TIP3    H226991   5.135   0.242   1.032  3.3208 -0.7327 -0.5371
 1786TIP3   OH226992   2.461   5.586   2.727 -0.0054  0.0284 -0.1071
 1786TIP3    H126993   2.413   5.508   2.755 -0.3951  1.3379  3.4298
 1786TIP3    H226994   2.553   5.561   2.735 -0.1106  0.1352  2.0714
 1787TIP3   OH226995   2.969   6.106   7.547 -0.3129  0.2657 -0.4769
 1787TIP3    H126996   3.024   6.037   7.509 -0.3347  0.8276 -1.5818
 1787TIP3    H226997   3.017   6.134   7.625 -0.1279 -0.7477 -0.2081
 1788TIP3   OH226998   2.540   2.006   2.101  0.4713 -0.2097 -0.1594
 1788TIP3    H126999   2.628   2.043   2.098  0.4928 -0.2062  0.3456
 1788TIP3    H227000   2.527   1.967   2.014  0.4388  0.9900 -0.7037
 1789TIP3   OH227001   4.106   5.386   1.330  0.1032 -0.1969 -0.3104
 1789TIP3    H127002   4.025   5.389   1.381 -1.0659  1.6456 -2.0874
 1789TIP3    H227003   4.175   5.412   1.392 -0.6750 -1.4091  1.1354
 1790TIP3   OH227004   0.902   6.225   8.078 -0.3265  0.7773 -0.4864
 1790TIP3    H127005   0.997   6.233   8.068 -0.2014  1.7286  1.0282
 1790TIP3    H227006   0.891   6.157   8.145 -0.6524  1.3103  0.0141
 1791TIP3   OH227007   2.805   5.400   8.699  0.1594  0.2129  0.5203
 1791TIP3    H127008   2.881   5.354   8.734  0.9721  1.7021  0.8002
 1791TIP3    H227009   2.737   5.390   8.766  0.3347 -0.5094  0.5931
 1792TIP3   OH227010   1.799   2.471   1.257 -0.1549 -0.3651  0.3183
 1792TIP3    H127011   1.891   2.477   1.233 -0.1670  0.6672  0.4707
 1792TIP3    H227012   1.783   2.377   1.268  1.1654 -0.4956  1.3829
 1793TIP3   OH227013   0.821   3.607   0.305  0.1679  0.4627  0.1402
 1793TIP3    H127014   0.848   3.516   0.287 -0.6760  0.2522 -0.1044
 1793TIP3    H227015   0.771   3.601   0.386 -1.6795  0.3539 -0.9534
 1794TIP3   OH227016   5.226   3.260   6.437 -0.0226 -0.6958 -0.0695
 1794TIP3    H127017   5.278   3.317   6.494 -1.2463 -1.0565  1.4974
 1794TIP3    H227018   5.168   3.319   6.390  1.3863 -0.3413 -1.4219
 1795TIP3   OH227019   3.656   5.279   9.133  0.2318 -0.0472 -0.4131
 1795TIP3    H127020   3.572   5.262   9.175  0.9529 -0.4986  0.8867
 1795TIP3    H227021   3.646   5.367   9.096 -0.1590  0.7216  1.4387
 1796TIP3   OH227022   4.906   3.785   0.056  0.4750  0.3372 -0.3818
 1796TIP3    H127023   4.983   3.741   0.093 -0.2906 -0.2306  0.5669
 1796TIP3    H227024   4.900   3.751  -0.033 -0.8062 -2.5393  0.6871
 1797TIP3   OH227025   6.425   5.245   1.467  0.1541 -1.0088  0.3641
 1797TIP3    H127026   6.408   5.333   1.432 -2.7024 -1.0352  1.4098
 1797TIP3    H227027   6.338   5.213   1.493  0.8881 -4.7113 -1.1906
 1798TIP3   OH227028   4.301   3.320   2.388  0.5039 -0.1050 -0.2814
 1798TIP3    H127029   4.263   3.392   2.438 -0.4156 -1.1443  0.5449
 1798TIP3    H227030   4.239   3.248   2.397  1.9012 -1.3484 -0.2304
 1799TIP3   OH227031   0.950   3.311   0.250 -0.4503  0.2099 -0.7911
 1799TIP3    H127032   1.018   3.243   0.255 -0.0728  0.6437  0.4387
 1799TIP3    H227033   0.883   3.273   0.193 -0.4592 -1.3971  0.2046
 1800TIP3   OH227034   4.253   3.029   2.283 -0.0056 -0.3556  0.3679
 1800TIP3    H127035   4.268   3.113   2.238  1.6146 -0.1956  1.1391
 1800TIP3    H227036   4.161   3.032   2.308 -0.2158  0.7895 -0.4246
 1801TIP3   OH227037   4.589   5.020   9.074 -0.0581 -0.1675 -0.3933
 1801TIP3    H127038   4.682   5.005   9.055  0.3950  0.2003  1.3570
 1801TIP3    H227039   4.564   4.947   9.131 -0.4513  0.5139  0.3210
 1802TIP3   OH227040   0.764   6.523   7.493 -0.6539 -0.0066  0.1884
 1802TIP3    H127041   0.719   6.507   7.575  1.2261 -1.3015  1.0347
 1802TIP3    H227042   0.747   6.615   7.474 -1.1761  0.3076  1.9829
 1803TIP3   OH227043   5.251   0.518   0.766 -0.0191  0.2381  0.0236
 1803TIP3    H127044   5.164   0.545   0.794 -0.2518 -0.1861 -0.2658
 1803TIP3    H227045   5.279   0.587   0.705  0.6541  1.3588  1.5495
 1804TIP3   OH227046   5.727   2.210   0.060 -0.1233  0.6556 -0.0215
 1804TIP3    H127047   5.658   2.175   0.003 -0.7121  0.1961  0.9340
 1804TIP3    H227048   5.779   2.267   0.003 -0.5021 -0.0192 -1.0814
 1805TIP3   OH227049   6.518   6.679   2.200 -0.3877  0.5994 -0.4777
 1805TIP3    H127050   6.520   6.697   2.106 -1.0227  0.5402 -0.5076
 1805TIP3    H227051   6.425   6.670   2.220 -0.2451  0.4789  0.1323
 1806TIP3   OH227052   4.537   1.427   0.217  0.4101  0.1083 -0.0678
 1806TIP3    H127053   4.564   1.439   0.126  0.1082 -1.4638 -0.3992
 1806TIP3    H227054   4.447   1.460   0.221  0.2486 -0.2815 -0.4641
 1807TIP3   OH227055   0.671   5.363   0.485  0.2647  0.0240  0.8051
 1807TIP3    H127056   0.585   5.323   0.476  0.0707  0.1965  1.8147
 1807TIP3    H227057   0.659   5.433   0.550  1.4508 -0.8688  2.0376
 1808TIP3   OH227058   5.287   0.559   2.032 -0.6562 -0.0995  0.0110
 1808TIP3    H127059   5.281   0.599   2.119 -0.8365 -0.5615  0.2175
 1808TIP3    H227060   5.251   0.624   1.973  0.1417  0.5182  0.1846
 1809TIP3   OH227061   3.585   5.320   8.282  0.6296 -0.0022  0.0106
 1809TIP3    H127062   3.639   5.382   8.233  1.4325 -0.5937  0.1362
 1809TIP3    H227063   3.644   5.247   8.303 -0.4126 -1.0492 -0.5730
 1810TIP3   OH227064   2.231   3.178   1.809 -0.1740 -0.0769  0.1947
 1810TIP3    H127065   2.142   3.142   1.811  0.6364 -2.6501 -2.6341
 1810TIP3    H227066   2.237   3.231   1.888 -4.1408  0.0738  0.5953
 1811TIP3   OH227067   2.295   0.700   2.606  0.2895 -0.8334  0.0692
 1811TIP3    H127068   2.294   0.741   2.520  2.5478  0.0603  0.4007
 1811TIP3    H227069   2.360   0.630   2.600 -0.7632 -1.9122  0.6075
 1812TIP3   OH227070   6.486   5.940   1.840 -0.0031  0.2311 -0.5185
 1812TIP3    H127071   6.503   5.976   1.753  0.0067 -0.4472 -0.8066
 1812TIP3    H227072   6.562   5.884   1.857  0.3428  0.9149  0.2368
 1813TIP3   OH227073   6.655   5.986   1.341  0.5663 -0.0639 -0.1016
 1813TIP3    H127074   6.596   5.983   1.417  1.5201  2.0076  0.8063
 1813TIP3    H227075   6.719   5.917   1.359 -0.9382 -1.6760 -0.6155
 1814TIP3   OH227076   6.281   5.261   0.560  0.6630 -0.3082  0.4527
 1814TIP3    H127077   6.273   5.336   0.620 -1.5573 -1.6956  2.0451
 1814TIP3    H227078   6.359   5.214   0.590 -0.3502 -0.9237  2.3022
 1815TIP3   OH227079   5.484   5.171   2.229  0.3703  0.4254 -0.2606
 1815TIP3    H127080   5.388   5.181   2.226  0.3878  0.4832 -0.8884
 1815TIP3    H227081   5.505   5.163   2.322 -0.4560 -1.7355 -0.1983
 1816TIP3   OH227082   1.870   3.949   0.730  0.4854  0.5515  0.5236
 1816TIP3    H127083   1.856   4.022   0.790  0.0016 -0.3817  1.5647
 1816TIP3    H227084   1.818   3.877   0.766  1.1387 -0.3903 -0.3489
 1817TIP3   OH227085   5.740   5.602   7.919  0.3814  0.1921 -0.1883
 1817TIP3    H127086   5.653   5.584   7.956  1.2376  0.2766  2.0261
 1817TIP3    H227087   5.722   5.638   7.833 -1.7771 -0.0474  0.1007
 1818TIP3   OH227088   5.091   6.150   8.533 -0.5993 -0.1411  0.2354
 1818TIP3    H127089   5.097   6.129   8.440 -1.7088  0.6248 -0.0391
 1818TIP3    H227090   5.085   6.065   8.577 -1.3898 -0.4889 -0.5139
 1819TIP3   OH227091   1.574   4.977   0.864 -0.4538 -0.3336  0.0828
 1819TIP3    H127092   1.512   5.036   0.820 -1.0215 -1.8464 -1.2275
 1819TIP3    H227093   1.621   5.034   0.925 -3.4017  0.8464  1.4976
 1820TIP3   OH227094   1.875   6.417   1.372 -0.1808  0.4911 -0.4323
 1820TIP3    H127095   1.834   6.503   1.380  0.3353  0.9940 -2.4892
 1820TIP3    H227096   1.802   6.355   1.377 -0.5395  1.0178  1.2467
 1821TIP3   OH227097   5.666   0.041   8.606 -0.1369  0.1844 -0.1256
 1821TIP3    H127098   5.624   0.117   8.566  0.5420 -0.3322 -1.9303
 1821TIP3    H227099   5.701  -0.008   8.532 -4.1431 -4.1728  0.3810
 1822TIP3   OH227100   3.602   5.111   2.129 -0.1830 -0.6735  0.7674
 1822TIP3    H127101   3.578   5.201   2.107 -1.3286 -1.1759 -0.1560
 1822TIP3    H227102   3.669   5.120   2.196  0.7205  0.8835 -0.2723
 1823TIP3   OH227103   4.803   1.357   8.552 -0.2406 -0.1160 -0.4085
 1823TIP3    H127104   4.772   1.307   8.629 -1.5945 -0.3089 -1.0544
 1823TIP3    H227105   4.872   1.302   8.515  0.5323  0.0419  0.7319
 1824TIP3   OH227106   1.737   3.748   1.102 -0.3988  0.5892  0.2963
 1824TIP3    H127107   1.765   3.680   1.164 -3.7451 -2.6387 -1.3112
 1824TIP3    H227108   1.777   3.723   1.019 -1.3526  0.8127 -0.2428
 1825TIP3   OH227109   3.942   6.668   1.030  0.5454 -0.1476  0.0624
 1825TIP3    H127110   3.989   6.614   0.966  2.1371  0.8824  0.3178
 1825TIP3    H227111   3.999   6.669   1.107  0.1163  1.1619  0.3816
 1826TIP3   OH227112   6.369   6.567   0.408 -0.3044  0.0691  0.3300
 1826TIP3    H127113   6.447   6.573   0.463 -0.1415  2.3187 -0.0740
 1826TIP3    H227114   6.297   6.592   0.466 -0.3155  1.0372 -0.0920
 1827TIP3   OH227115   5.808   6.173   7.649  0.2055  0.1774 -0.0360
 1827TIP3    H127116   5.880   6.132   7.602  2.6868  1.6532  2.2016
 1827TIP3    H227117   5.757   6.099   7.683  0.7424 -0.8986 -1.4614
 1828TIP3   OH227118   3.473   5.782   8.436  0.5410  0.6567 -0.3577
 1828TIP3    H127119   3.394   5.835   8.428 -0.4389 -0.8989 -1.6699
 1828TIP3    H227120   3.526   5.808   8.360 -0.2668 -0.6692 -1.4284
 1829TIP3   OH227121   1.717   3.279   1.472  0.2882  0.7570 -0.2336
 1829TIP3    H127122   1.718   3.194   1.515 -1.6671  0.0509 -1.4687
 1829TIP3    H227123   1.774   3.334   1.527  0.6509 -0.9927  1.2494
 1830TIP3   OH227124   3.648   2.967   0.664 -0.5437  0.3557  0.5301
 1830TIP3    H127125   3.662   3.018   0.584 -0.2417  0.8433  0.8966
 1830TIP3    H227126   3.571   2.913   0.643 -0.8326  0.9083  0.1175
 1831TIP3   OH227127   4.090   3.758   1.780 -0.0418 -0.1232  0.5700
 1831TIP3    H127128   4.158   3.751   1.848  0.3502  2.9936  0.6574
 1831TIP3    H227129   4.043   3.838   1.802 -0.8769  0.1714 -2.0197
 1832TIP3   OH227130   3.809   5.959   0.261  0.7706  0.6573 -0.0925
 1832TIP3    H127131   3.732   5.917   0.222  0.3368 -0.0422  1.4575
 1832TIP3    H227132   3.774   6.026   0.318  1.2095 -0.4278  1.5198
 1833TIP3   OH227133   5.152   1.044   1.660  0.3310  0.2771  0.1725
 1833TIP3    H127134   5.141   1.076   1.570 -0.6368  1.0799  0.5597
 1833TIP3    H227135   5.136   0.950   1.654 -3.4144  0.7908  0.0433
 1834TIP3   OH227136   5.018   0.882   7.874 -0.0361 -0.1150 -0.7196
 1834TIP3    H127137   5.016   0.825   7.951 -0.3515 -0.0629 -0.6908
 1834TIP3    H227138   4.977   0.830   7.804  1.0413 -0.5089 -1.0882
 1835TIP3   OH227139   2.524   1.448   8.559  0.2902 -0.1059  0.2360
 1835TIP3    H127140   2.517   1.522   8.619  0.7998  0.7193 -0.7036
 1835TIP3    H227141   2.563   1.378   8.611  2.1375  1.0571  0.4792
 1836TIP3   OH227142   5.867   2.304   8.294  0.3051 -0.2990 -0.0468
 1836TIP3    H127143   5.825   2.258   8.366  0.6775  0.3343  0.5836
 1836TIP3    H227144   5.860   2.397   8.317  0.8015 -0.1135 -0.6174
 1837TIP3   OH227145   5.676   2.455   7.632  0.3153 -0.9177 -0.5485
 1837TIP3    H127146   5.718   2.452   7.546  0.9241  2.3836 -0.4795
 1837TIP3    H227147   5.748   2.465   7.694 -0.2733  0.8644 -0.0862
 1838TIP3   OH227148   0.562   4.680   0.749  0.7474 -0.1823 -0.5067
 1838TIP3    H127149   0.527   4.667   0.837 -1.0129  0.3890 -1.0937
 1838TIP3    H227150   0.646   4.724   0.763  0.8291 -0.7279  0.9000
 1839TIP3   OH227151   6.342   4.970   1.307  0.3198  0.2362 -0.0328
 1839TIP3    H127152   6.407   5.037   1.326 -0.9692  1.0538  1.8045
 1839TIP3    H227153   6.367   4.896   1.363  0.8995 -0.3008 -0.9725
 1840TIP3   OH227154   4.682   0.425   2.281  0.3179  0.8528  0.2498
 1840TIP3    H127155   4.709   0.345   2.236 -1.3375  1.0248 -1.1662
 1840TIP3    H227156   4.761   0.457   2.324  1.1959 -1.1177  0.2032
 1841TIP3   OH227157   5.734   0.577   1.856 -0.3392 -0.5291 -0.6049
 1841TIP3    H127158   5.826   0.549   1.863 -0.0554  0.4935 -0.0217
 1841TIP3    H227159   5.738   0.673   1.857 -1.5649 -0.3987  2.3932
 1842TIP3   OH227160   5.903   4.160   9.169  0.4255  0.3627 -0.4523
 1842TIP3    H127161   5.952   4.080   9.192 -0.6575 -0.9200 -2.2803
 1842TIP3    H227162   5.820   4.127   9.134 -0.7815  2.4001  0.3859
 1843TIP3   OH227163   2.384   2.537   7.515  0.3734  0.2290 -0.0128
 1843TIP3    H127164   2.470   2.495   7.510  0.3589  0.2389 -0.4298
 1843TIP3    H227165   2.385   2.602   7.444  0.5641  1.2534  0.9022
 1844TIP3   OH227166   3.076   2.784   8.071  0.2269  0.1616 -0.3046
 1844TIP3    H127167   3.142   2.832   8.020  0.3716 -0.7934 -1.0462
 1844TIP3    H227168   3.087   2.693   8.045 -2.1470  0.1012 -1.3381
 1845TIP3   OH227169   0.772   0.131   0.183  0.0598 -0.3722  0.2138
 1845TIP3    H127170   0.763   0.107   0.091  0.4676 -0.1139  0.1025
 1845TIP3    H227171   0.856   0.092   0.210  0.4996  0.5208  0.1564
 1846TIP3   OH227172   2.529   2.072   1.471 -0.3258 -0.3445  0.0306
 1846TIP3    H127173   2.557   2.090   1.561 -2.0235 -0.9338  0.7301
 1846TIP3    H227174   2.546   1.978   1.459  2.4001  0.2048 -1.2823
 1847TIP3   OH227175   4.279   5.185   8.458 -0.0980  0.3367  0.3650
 1847TIP3    H127176   4.347   5.205   8.393  0.4178  0.1255  0.8278
 1847TIP3    H227177   4.252   5.096   8.439 -1.6802  1.0593 -1.0663
 1848TIP3   OH227178   3.789   2.977   1.800  0.5304 -0.3407  0.1528
 1848TIP3    H127179   3.871   2.942   1.835 -0.5437 -1.2576  1.9316
 1848TIP3    H227180   3.773   3.056   1.851  0.7769  0.3810 -0.8670
 1849TIP3   OH227181   1.505   4.413   0.941  0.1016  0.0231  0.4327
 1849TIP3    H127182   1.554   4.417   0.859  0.2213  0.5129  0.5289
 1849TIP3    H227183   1.510   4.320   0.966 -0.6000 -0.2891 -0.5102
 1850TIP3   OH227184   2.732   1.514   0.321  0.3118  0.3263 -0.0644
 1850TIP3    H127185   2.710   1.422   0.311  1.0736 -0.0305  1.2819
 1850TIP3    H227186   2.738   1.527   0.416  2.0498  1.2967 -0.2705
 1851TIP3   OH227187   0.798   5.146   7.107 -0.0267 -0.7388 -0.4998
 1851TIP3    H127188   0.739   5.106   7.043  1.6855 -4.6360  0.0421
 1851TIP3    H227189   0.878   5.163   7.058 -0.2325  0.7034 -0.3638
 1852TIP3   OH227190   6.011   6.341   7.731  0.1186 -0.5154 -0.3140
 1852TIP3    H127191   5.943   6.291   7.686  0.0520 -1.0381  0.3572
 1852TIP3    H227192   6.057   6.387   7.661 -0.9490 -0.1218 -0.7699
 1853TIP3   OH227193   0.931   1.457   0.224 -0.2847 -0.4810 -0.4074
 1853TIP3    H127194   0.881   1.498   0.294  0.8966 -0.2765  0.3591
 1853TIP3    H227195   1.021   1.457   0.257  0.3832  0.0515 -2.1294
 1854TIP3   OH227196   6.567   1.883   8.592  0.1974 -0.3178  0.3829
 1854TIP3    H127197   6.651   1.855   8.627  0.6122  1.0778  0.5620
 1854TIP3    H227198   6.577   1.977   8.576 -1.8498  0.2643  1.9697
 1855TIP3   OH227199   0.776   3.223   1.757 -0.0326 -0.3289  0.1128
 1855TIP3    H127200   0.755   3.245   1.666 -0.4350 -0.8784  0.0721
 1855TIP3    H227201   0.723   3.283   1.809 -1.2666 -1.2903  0.0026
 1856TIP3   OH227202   5.079   3.625   0.789  0.0940  0.0752 -0.2098
 1856TIP3    H127203   5.033   3.682   0.850 -0.4450 -0.3314 -0.2306
 1856TIP3    H227204   5.013   3.563   0.758  1.0754 -1.9636  1.4537
 1857TIP3   OH227205   6.013   6.053   7.518 -0.1766 -0.1564  0.0612
 1857TIP3    H127206   6.042   5.972   7.477 -0.7756 -0.7891  0.8558
 1857TIP3    H227207   6.066   6.122   7.477  1.4965 -1.1168  0.5551
 1858TIP3   OH227208   1.077   6.286   1.549  0.2786 -0.5709 -0.2831
 1858TIP3    H127209   1.029   6.366   1.570  1.2074 -0.4144  1.4537
 1858TIP3    H227210   1.140   6.313   1.482 -0.4103 -0.2079 -0.7907
 1859TIP3   OH227211   6.139   2.283   8.160 -0.3062  0.3529 -0.1866
 1859TIP3    H127212   6.044   2.280   8.144 -0.4652  2.1863  0.2339
 1859TIP3    H227213   6.157   2.374   8.181  1.4345 -0.1408  0.6184
 1860TIP3   OH227214   6.279   5.389   2.562 -0.5266  0.4582  0.4590
 1860TIP3    H127215   6.262   5.483   2.564  0.3298  0.6065  0.9630
 1860TIP3    H227216   6.245   5.357   2.645 -1.0137  0.2848  0.1949
 1861TIP3   OH227217   4.286   5.102   7.585 -0.2841  1.1006 -0.1377
 1861TIP3    H127218   4.202   5.135   7.617 -1.0410 -0.5443 -0.3012
 1861TIP3    H227219   4.280   5.108   7.489 -0.3956  0.5982 -0.1660
 1862TIP3   OH227220   1.142   1.811   0.955 -0.4284  0.3506 -0.0158
 1862TIP3    H127221   1.083   1.792   1.029 -0.0099 -0.2924  0.1615
 1862TIP3    H227222   1.206   1.872   0.991  1.8642 -2.5607  1.2244
 1863TIP3   OH227223   0.178   4.086   0.992  0.4292 -0.7266  0.0838
 1863TIP3    H127224   0.149   4.176   1.004  0.5255 -0.8568  1.5246
 1863TIP3    H227225   0.130   4.055   0.916  1.6378  1.0476 -1.4940
 1864TIP3   OH227226   4.053   0.597   1.460 -0.4879  0.3534 -0.1284
 1864TIP3    H127227   4.102   0.661   1.409 -0.1477 -0.7609 -1.2648
 1864TIP3    H227228   3.973   0.642   1.486 -0.8285  0.8921 -1.9340
 1865TIP3   OH227229   4.120   4.222   7.036 -0.1215 -0.1835 -0.3490
 1865TIP3    H127230   4.194   4.281   7.022 -0.2367 -0.1756 -0.9385
 1865TIP3    H227231   4.130   4.154   6.969  1.5025 -2.3724  1.8918
 1866TIP3   OH227232   4.952   5.133   1.729 -0.5916  0.0391 -0.3002
 1866TIP3    H127233   5.038   5.144   1.688 -0.3445 -0.3463  0.0951
 1866TIP3    H227234   4.891   5.124   1.656 -0.2333 -0.0925 -0.5850
 1867TIP3   OH227235   3.858   2.102   3.425  0.2194 -0.2546  0.2822
 1867TIP3    H127236   3.824   2.113   3.336  1.3271  0.9239 -0.0208
 1867TIP3    H227237   3.869   2.007   3.435  1.3414 -0.3315 -1.3260
 1868TIP3   OH227238   5.467   1.177   1.510  0.5035 -0.1635  0.0241
 1868TIP3    H127239   5.377   1.148   1.496  0.8240 -1.1069 -0.1607
 1868TIP3    H227240   5.496   1.208   1.425  1.0273 -1.8324 -0.4366
 1869TIP3   OH227241   5.999   3.937   1.612  0.6659 -0.1896  0.7395
 1869TIP3    H127242   6.085   3.976   1.626  0.4542  0.5378  0.1227
 1869TIP3    H227243   5.939   3.993   1.662  0.2725  0.7125 -0.6859
 1870TIP3   OH227244   6.203   4.132   0.410 -0.0597  0.4070 -0.3417
 1870TIP3    H127245   6.156   4.051   0.427  1.8630 -0.8060 -0.4024
 1870TIP3    H227246   6.255   4.113   0.332 -0.1680  1.9949 -0.8408
 1871TIP3   OH227247   3.084   2.033   1.504 -0.4897  1.0808 -0.4360
 1871TIP3    H127248   3.039   2.062   1.425 -2.0552 -2.2360 -0.9581
 1871TIP3    H227249   3.017   1.985   1.554  1.1871  0.5056  1.4159
 1872TIP3   OH227250   4.137   6.354   9.181  0.6207 -0.1205  0.0591
 1872TIP3    H127251   4.213   6.388   9.133  0.1257 -0.1768 -0.7988
 1872TIP3    H227252   4.141   6.260   9.168  1.9258 -0.4381  2.3410
 1873TIP3   OH227253   1.282   3.553   9.200  0.0060 -0.2558 -0.5361
 1873TIP3    H127254   1.331   3.601   9.267  0.4221 -0.5891 -0.5978
 1873TIP3    H227255   1.333   3.474   9.184 -0.7833 -0.8292 -0.2881
 1874TIP3   OH227256   3.959   5.757   7.173 -0.6851  0.1083 -0.2944
 1874TIP3    H127257   3.872   5.783   7.204 -0.5615  0.5049 -0.2758
 1874TIP3    H227258   4.018   5.823   7.208 -0.5317  0.5353 -1.3278
 1875TIP3   OH227259   1.513   4.186   8.429  0.2631 -0.6469 -0.0211
 1875TIP3    H127260   1.466   4.199   8.346  0.8581 -0.4960 -0.3402
 1875TIP3    H227261   1.602   4.218   8.412  0.4780 -0.9009  0.5830
 1876TIP3   OH227262   5.077   2.794   2.497 -0.7424 -0.1372  0.3553
 1876TIP3    H127263   5.049   2.878   2.461  1.2152  0.5731  0.3513
 1876TIP3    H227264   5.101   2.815   2.588  0.8641 -0.3943  0.0216
 1877TIP3   OH227265   3.731   1.215   0.524  0.1136 -0.5149  0.3504
 1877TIP3    H127266   3.639   1.192   0.511 -0.3756  0.8912  1.0827
 1877TIP3    H227267   3.762   1.153   0.591 -0.4279 -0.6997  0.4347
 1878TIP3   OH227268   6.003   1.202   0.944 -0.3208  0.0432 -1.0278
 1878TIP3    H127269   6.025   1.209   1.037 -1.9386 -0.3957 -0.5698
 1878TIP3    H227270   5.911   1.229   0.940 -0.7055 -1.3262 -2.2622
 1879TIP3   OH227271   3.178   1.801   8.937  0.3245  0.0031 -0.9108
 1879TIP3    H127272   3.174   1.829   9.029  0.4011 -1.4786 -0.4346
 1879TIP3    H227273   3.086   1.794   8.911  0.3025  0.7749 -1.0796
 1880TIP3   OH227274   0.066   5.436   7.082  0.3335  0.1489 -0.2366
 1880TIP3    H127275   0.030   5.424   7.169  1.9477 -0.2419  0.4039
 1880TIP3    H227276  -0.001   5.487   7.035 -0.8783 -0.2772  0.9757
 1881TIP3   OH227277   2.486   6.078   2.307 -0.1925 -0.9569 -0.2926
 1881TIP3    H127278   2.512   6.162   2.346 -0.0339 -0.9070 -0.5019
 1881TIP3    H227279   2.568   6.042   2.273 -0.6321  0.0828 -2.6795
 1882TIP3   OH227280   6.070   5.962   0.714  0.0758  0.1118 -0.2106
 1882TIP3    H127281   5.992   5.925   0.671  0.1046  0.2103 -0.3499
 1882TIP3    H227282   6.071   6.053   0.684 -2.5487  1.6387  3.5366
 1883TIP3   OH227283   2.299   1.919   0.109  0.5697 -0.5388 -0.3784
 1883TIP3    H127284   2.355   1.851   0.145 -0.4551 -0.0270  2.4639
 1883TIP3    H227285   2.211   1.880   0.110 -0.3292  1.1863  2.9025
 1884TIP3   OH227286   5.969   2.301   0.740  0.2747 -0.6005 -0.2316
 1884TIP3    H127287   5.904   2.307   0.670  0.1248  1.1834  0.0151
 1884TIP3    H227288   5.918   2.310   0.821  0.9133  4.3917 -0.0374
 1885TIP3   OH227289   6.006   2.577   1.518 -0.0109 -0.2378  0.3341
 1885TIP3    H127290   5.997   2.600   1.426  0.8362 -0.2789  0.2362
 1885TIP3    H227291   5.959   2.494   1.527 -0.6578  0.0990  0.0851
 1886TIP3   OH227292   0.969   1.318   1.974  0.4630  0.3838 -0.6783
 1886TIP3    H127293   0.954   1.251   2.041  0.1114 -1.8236 -2.8403
 1886TIP3    H227294   0.881   1.350   1.952  0.4042 -0.1149 -1.2142
 1887TIP3   OH227295   2.666   6.197   8.634  0.6086 -0.1247 -0.1885
 1887TIP3    H127296   2.754   6.192   8.672  0.5906 -2.4313 -0.2687
 1887TIP3    H227297   2.665   6.128   8.567 -0.2786  1.9425 -2.4739
 1888TIP3   OH227298   0.653   1.119   0.613  0.0450 -0.3071  0.2551
 1888TIP3    H127299   0.702   1.081   0.686  0.1690 -2.0312 -0.6939
 1888TIP3    H227300   0.657   1.053   0.544  1.1774  1.8215 -1.8737
 1889TIP3   OH227301   4.593   2.385   1.927 -0.3399  0.0946 -0.1884
 1889TIP3    H127302   4.633   2.422   1.848  0.1056 -1.1130 -0.5503
 1889TIP3    H227303   4.507   2.353   1.898 -0.2505 -0.1874 -0.1421
 1890TIP3   OH227304   6.566   5.702   7.180  0.0936  0.1738 -0.9927
 1890TIP3    H127305   6.548   5.678   7.089 -0.2144  0.1658 -0.9314
 1890TIP3    H227306   6.656   5.734   7.179 -0.6290  2.3544 -1.7422
 1891TIP3   OH227307   6.335   5.572   8.834 -0.5793  0.1930 -0.1877
 1891TIP3    H127308   6.394   5.619   8.892 -0.4754  0.4857 -0.5276
 1891TIP3    H227309   6.392   5.516   8.782 -0.2515  2.3753 -2.3710
 1892TIP3   OH227310   2.076   4.634   0.731  0.6344  0.1001  1.0285
 1892TIP3    H127311   2.053   4.581   0.654 -0.6123 -0.0070  1.4428
 1892TIP3    H227312   2.168   4.615   0.747  1.0505  0.4839 -0.7223
 1893TIP3   OH227313   3.672   2.315   7.945  0.3548 -0.5539  0.9214
 1893TIP3    H127314   3.585   2.331   7.908  0.8997 -1.6977 -1.0143
 1893TIP3    H227315   3.680   2.220   7.946  2.3026 -0.4645 -0.8440
 1894TIP3   OH227316   0.869   3.456   0.669 -0.2975 -0.1390 -0.2968
 1894TIP3    H127317   0.910   3.434   0.752  0.2047  1.8015  0.0129
 1894TIP3    H227318   0.935   3.507   0.622 -0.5613 -1.2164 -1.9166
 1895TIP3   OH227319   1.009   3.587   8.384 -0.1626  0.5500  0.6928
 1895TIP3    H127320   1.090   3.590   8.332 -0.8616 -0.5008 -0.5198
 1895TIP3    H227321   1.003   3.674   8.423  0.7350  1.1845 -0.4825
 1896TIP3   OH227322   0.852   1.601   0.434  1.0256 -0.4863 -0.0217
 1896TIP3    H127323   0.820   1.679   0.478 -0.3243 -0.6531 -0.6599
 1896TIP3    H227324   0.852   1.533   0.501  1.7028 -0.0784  0.4015
 1897TIP3   OH227325   6.262   0.957   9.050  0.1374 -0.1234  0.0097
 1897TIP3    H127326   6.278   1.033   9.105 -0.5422  0.9411 -1.2039
 1897TIP3    H227327   6.171   0.933   9.066  0.3610 -0.7260  0.4218
 1898TIP3   OH227328   1.951   1.400   1.782 -0.5386  0.5018 -0.2360
 1898TIP3    H127329   1.873   1.395   1.837  0.4351 -0.2818  1.1175
 1898TIP3    H227330   1.962   1.494   1.765 -0.1223  0.9068  2.0216
 1899TIP3   OH227331   3.038   2.614   1.427 -0.3228 -0.1648  0.5081
 1899TIP3    H127332   3.109   2.577   1.479 -0.0624  1.8054  1.6642
 1899TIP3    H227333   3.080   2.644   1.346 -0.0386 -0.0158  0.7103
 1900TIP3   OH227334   6.176   5.484   7.901 -0.2266 -0.3205  0.0409
 1900TIP3    H127335   6.254   5.472   7.956  0.7214  0.5337 -1.0728
 1900TIP3    H227336   6.119   5.542   7.952 -0.6789 -1.8450  1.3515
 1901TIP3   OH227337   1.585   3.015   8.924  0.0997  0.2254 -0.2439
 1901TIP3    H127338   1.566   3.092   8.871  3.2967  1.0224 -0.4418
 1901TIP3    H227339   1.589   2.943   8.860  1.2352  0.6895 -0.7232
 1902TIP3   OH227340   0.069   1.573   8.392  0.3151  0.3463  0.8736
 1902TIP3    H127341  -0.020   1.608   8.401 -0.3477 -0.8222 -0.7316
 1902TIP3    H227342   0.125   1.651   8.391 -0.8223  1.1878  0.5952
 1903TIP3   OH227343   3.989   3.915   9.107  0.7066  1.0794  0.8646
 1903TIP3    H127344   4.007   3.868   9.188 -0.1913  0.3563  0.6622
 1903TIP3    H227345   3.968   3.846   9.044  2.3633  1.5562 -0.2752
 1904TIP3   OH227346   5.981   5.137   9.190 -0.1778 -0.0404  0.4138
 1904TIP3    H127347   5.983   5.229   9.162 -0.4543 -0.8395 -2.6155
 1904TIP3    H227348   5.894   5.126   9.228 -0.4997  0.7633 -0.0481
 1905TIP3   OH227349   0.511   3.984   1.576  0.3101 -0.1784 -0.3502
 1905TIP3    H127350   0.577   4.032   1.626 -1.8973  3.2553 -0.4199
 1905TIP3    H227351   0.534   4.000   1.484  0.9227 -1.4267 -0.4458
 1906TIP3   OH227352   2.843   1.938   2.317 -0.5828 -0.2493  0.2550
 1906TIP3    H127353   2.758   1.940   2.361  0.5308  0.0804  2.5305
 1906TIP3    H227354   2.841   1.856   2.267 -3.1158  0.9071 -1.7593
 1907TIP3   OH227355   2.463   1.217   1.786  0.4384 -0.2758  0.5551
 1907TIP3    H127356   2.542   1.239   1.836  0.9984 -0.1759 -0.3363
 1907TIP3    H227357   2.496   1.181   1.704 -0.4649 -1.1437  0.5501
 1908TIP3   OH227358   6.518   1.316   1.885  0.2076  0.5147  0.1954
 1908TIP3    H127359   6.435   1.336   1.929 -0.7807 -0.1341 -1.2959
 1908TIP3    H227360   6.543   1.231   1.920  0.4264  0.8576  0.8886
 1909TIP3   OH227361   2.922   2.666   0.260  0.6012 -0.1369  0.2725
 1909TIP3    H127362   2.853   2.626   0.313 -1.0706  0.8997 -0.9984
 1909TIP3    H227363   3.001   2.617   0.281 -0.7048 -1.9730  1.1233
 1910TIP3   OH227364   6.322   2.184   7.993 -0.0753  0.9168 -0.0275
 1910TIP3    H127365   6.242   2.199   8.043 -0.6937  1.0890 -1.0403
 1910TIP3    H227366   6.359   2.271   7.981  0.0500  0.8792  0.0779
 1911TIP3   OH227367   6.186   4.154   1.666  0.2755  0.3384  0.2500
 1911TIP3    H127368   6.168   4.221   1.600 -0.6522 -1.4794 -1.4448
 1911TIP3    H227369   6.278   4.166   1.687  0.1683  2.0398 -0.1248
 1912TIP3   OH227370   6.422   3.657   7.454 -0.5748 -0.0790 -0.4025
 1912TIP3    H127371   6.447   3.621   7.369 -1.2114  2.7176 -1.8882
 1912TIP3    H227372   6.326   3.654   7.454 -0.5851 -1.4143  0.9308
 1913TIP3   OH227373   5.218   0.002   1.647  0.1169 -0.2144  0.1709
 1913TIP3    H127374   5.310   0.016   1.627 -0.1621  0.3047 -0.7793
 1913TIP3    H227375   5.178   0.089   1.641 -0.4401 -0.4350  0.5557
 1914TIP3   OH227376   2.075   3.172   1.184  0.2373  0.4884  0.0803
 1914TIP3    H127377   2.122   3.126   1.254 -0.9592  0.4504  0.8806
 1914TIP3    H227378   2.114   3.139   1.103  0.8116 -0.3726  0.6910
 1915TIP3   OH227379   2.054   4.405   0.573 -0.3966 -0.4238  0.4033
 1915TIP3    H127380   2.022   4.317   0.553  1.3849 -1.1813  0.7130
 1915TIP3    H227381   2.004   4.462   0.514  0.4855 -1.9605 -1.9936
 1916TIP3   OH227382   2.953   3.653   0.316 -0.4488  0.6091 -0.1388
 1916TIP3    H127383   3.024   3.592   0.332  0.7700  1.3579 -2.2453
 1916TIP3    H227384   2.953   3.711   0.392  1.0457  0.4494  0.0044
 1917TIP3   OH227385   2.573   4.493   9.195  0.1751  0.2737 -0.4798
 1917TIP3    H127386   2.597   4.511   9.104  0.4963 -0.3485 -0.5204
 1917TIP3    H227387   2.539   4.404   9.193 -0.4187  0.4875 -0.0961
 1918TIP3   OH227388   4.960   1.130   1.856 -0.0017  0.5704  0.4780
 1918TIP3    H127389   4.902   1.059   1.884  1.5567 -0.0022  2.5000
 1918TIP3    H227390   5.015   1.092   1.788  0.4923 -0.0359  1.2036
 1919TIP3   OH227391   5.762   2.541   8.239 -0.3641  0.0478 -0.2961
 1919TIP3    H127392   5.743   2.595   8.315 -1.5410 -1.1165  0.2975
 1919TIP3    H227393   5.676   2.512   8.208  0.1643 -0.5804 -1.2456
 1920TIP3   OH227394   4.222   4.209   8.229  0.2715  0.1541 -0.3734
 1920TIP3    H127395   4.296   4.168   8.185  1.0406  1.1133 -0.0179
 1920TIP3    H227396   4.205   4.153   8.305  1.4434  0.5715  0.2290
 1921TIP3   OH227397   3.250   1.064   0.931 -0.1781 -0.1051  0.1493
 1921TIP3    H127398   3.188   1.091   0.998 -1.5942 -1.3123 -0.5959
 1921TIP3    H227399   3.225   1.115   0.853 -0.1443 -0.4728 -0.1063
 1922TIP3   OH227400   2.667   0.026   7.414 -0.0013  0.0204 -0.0644
 1922TIP3    H127401   2.688   0.053   7.504 -0.5634 -2.8530  1.0248
 1922TIP3    H227402   2.572   0.030   7.408 -0.0656 -1.1611 -0.0306
 1923TIP3   OH227403   3.871   1.010   8.789 -0.4837  0.6023 -0.1063
 1923TIP3    H127404   3.956   0.968   8.800 -1.1006 -0.4790  0.6527
 1923TIP3    H227405   3.835   1.016   8.877  1.0672  6.1813  0.5654
 1924TIP3   OH227406   0.880   5.847   1.572  0.2070  0.1157  0.3049
 1924TIP3    H127407   0.803   5.835   1.626  0.6597  1.1930  1.2457
 1924TIP3    H227408   0.930   5.915   1.617  1.1006  0.3181 -0.9341
 1925TIP3   OH227409   6.684   6.671   8.715  0.4552  0.0867 -0.3768
 1925TIP3    H127410   6.765   6.644   8.759  1.4665 -0.3940 -2.4069
 1925TIP3    H227411   6.656   6.749   8.762  2.9459  1.1442 -0.4929
 1926TIP3   OH227412   1.465   2.316   0.408 -0.6168 -0.1995 -0.1599
 1926TIP3    H127413   1.543   2.303   0.354 -0.8332  0.4831 -0.6519
 1926TIP3    H227414   1.423   2.230   0.411 -0.5428 -0.2742 -0.9831
 1927TIP3   OH227415   4.127   6.575   8.856 -0.0081  0.2546 -0.4901
 1927TIP3    H127416   4.143   6.585   8.950 -1.5190  0.3587 -0.2191
 1927TIP3    H227417   4.214   6.579   8.816  0.8100 -1.1127  1.0166
 1928TIP3   OH227418   3.781   4.530   7.617  0.1959  0.2608  0.0342
 1928TIP3    H127419   3.805   4.581   7.539  2.3711  0.9680  1.1016
 1928TIP3    H227420   3.796   4.589   7.690  0.5079 -1.1659  1.1631
 1929TIP3   OH227421   4.614   5.006   2.900  0.0412 -0.0596  0.4379
 1929TIP3    H127422   4.646   5.094   2.921 -2.0506  0.6983  0.6053
 1929TIP3    H227423   4.670   4.948   2.951  1.0246  1.2004  0.8525
 1930TIP3   OH227424   0.156   6.596   2.038 -0.1544 -0.6091  0.0249
 1930TIP3    H127425   0.182   6.642   2.118  1.4055 -2.4330  0.6243
 1930TIP3    H227426   0.099   6.525   2.069 -0.1441 -0.8867 -0.5765
 1931TIP3   OH227427   4.791   3.742   0.316 -0.4198 -0.1208 -0.5312
 1931TIP3    H127428   4.799   3.703   0.229 -1.5262 -0.1797 -0.6165
 1931TIP3    H227429   4.866   3.707   0.364 -0.0870 -0.5023 -1.3001
 1932TIP3   OH227430   2.956   5.433   2.100  0.4086 -0.2661  0.0371
 1932TIP3    H127431   3.020   5.491   2.140  1.8716 -1.4219 -0.5369
 1932TIP3    H227432   2.932   5.372   2.170  0.2698 -0.1098  0.1269
 1933TIP3   OH227433   0.001   4.733   0.168  0.0691  0.4276 -0.3769
 1933TIP3    H127434  -0.055   4.742   0.245 -0.3870 -0.4566 -0.5924
 1933TIP3    H227435  -0.031   4.799   0.107 -0.3958  0.2882 -0.2902
 1934TIP3   OH227436   1.376   2.022   1.011 -0.2559 -0.0929 -0.4802
 1934TIP3    H127437   1.463   2.061   1.001  0.0935 -0.2873  1.5007
 1934TIP3    H227438   1.341   2.060   1.092 -1.4898 -1.0061 -0.5450
 1935TIP3   OH227439   1.276   5.777   7.926  0.3200 -0.4296  0.3201
 1935TIP3    H127440   1.368   5.765   7.904  1.0202 -1.4235  3.2899
 1935TIP3    H227441   1.249   5.854   7.875  2.2552 -1.1380 -1.9221
 1936TIP3   OH227442   6.196   1.448   8.619  0.4468 -0.8226 -0.1330
 1936TIP3    H127443   6.234   1.382   8.562  1.5237  0.7746 -1.3800
 1936TIP3    H227444   6.259   1.520   8.617  0.1690 -0.4051  2.5367
 1937TIP3   OH227445   5.444   1.508   1.305 -0.1647  0.2666  0.2396
 1937TIP3    H127446   5.354   1.488   1.281  0.3419 -0.5402 -1.0881
 1937TIP3    H227447   5.478   1.558   1.230  0.0954  1.8083  1.3301
 1938TIP3   OH227448   2.677   1.100   8.363  0.0933 -0.1439  0.6658
 1938TIP3    H127449   2.632   1.105   8.279  0.2896 -1.2868  0.4756
 1938TIP3    H227450   2.747   1.165   8.356 -0.5564  0.5377  0.3706
 1939TIP3   OH227451   2.845   3.406   8.309  0.3683 -0.4198  0.2764
 1939TIP3    H127452   2.823   3.340   8.243 -1.8748 -1.3765  1.8391
 1939TIP3    H227453   2.858   3.356   8.390  1.3272  0.8485  0.9449
 1940TIP3   OH227454   4.419   2.498   1.542 -0.3814 -0.2297  0.4914
 1940TIP3    H127455   4.403   2.444   1.620 -1.6773  2.9759  2.6170
 1940TIP3    H227456   4.437   2.585   1.576  2.5765  0.6714 -2.7207
 1941TIP3   OH227457   4.117   1.177   7.766  0.0547 -0.6698 -0.2567
 1941TIP3    H127458   4.089   1.090   7.738 -1.8896 -0.4994  1.0188
 1941TIP3    H227459   4.065   1.237   7.713  0.9707 -0.2532 -0.7176
 1942TIP3   OH227460   1.360   0.921   1.430 -0.5443 -0.0589  0.4081
 1942TIP3    H127461   1.361   0.877   1.515 -0.1898 -0.3658  0.2478
 1942TIP3    H227462   1.339   1.012   1.450 -3.0639 -0.6200  0.5844
 1943TIP3   OH227463   3.377   6.349   0.319 -0.2796  0.6690 -0.2192
 1943TIP3    H127464   3.467   6.320   0.309 -0.2570  0.4730  0.4454
 1943TIP3    H227465   3.330   6.311   0.245  0.5826  2.5896 -1.8384
 1944TIP3   OH227466   6.546   6.361   1.855 -0.7361 -0.4213  0.0012
 1944TIP3    H127467   6.619   6.299   1.853 -1.9762 -1.9362 -0.5297
 1944TIP3    H227468   6.558   6.415   1.777  0.7851  0.5586  0.8746
 1945TIP3   OH227469   3.915   2.722   1.358 -0.3947  0.5279 -0.5525
 1945TIP3    H127470   3.904   2.805   1.311 -0.5168  0.8972  0.1186
 1945TIP3    H227471   3.857   2.661   1.312 -1.7883  1.3032  0.1291
 1946TIP3   OH227472   6.089   1.163   2.452 -0.0479  0.2137  0.6479
 1946TIP3    H127473   6.173   1.195   2.485 -0.0646 -0.9651  1.9912
 1946TIP3    H227474   6.056   1.233   2.397  2.8384 -0.1457 -1.8336
 1947TIP3   OH227475   1.163   5.921   2.106 -0.0280  0.2994  0.1866
 1947TIP3    H127476   1.243   5.971   2.118  1.0666 -1.1373 -0.8029
 1947TIP3    H227477   1.158   5.905   2.011  0.8362 -3.1731  0.5861
 1948TIP3   OH227478   5.662   2.042   8.004  0.4532  0.6046 -0.3613
 1948TIP3    H127479   5.605   2.008   7.934  0.7590  0.9914 -0.7980
 1948TIP3    H227480   5.626   2.003   8.084  1.0664 -1.1498 -0.8801
 1949TIP3   OH227481   3.900   3.549   7.909  0.1967 -0.5653 -0.2120
 1949TIP3    H127482   3.816   3.520   7.945  0.5002  0.2317  1.2337
 1949TIP3    H227483   3.879   3.630   7.862  0.1297 -0.4501  0.0146
 1950TIP3   OH227484   5.418   2.294   1.948 -0.0170  0.5264 -0.1933
 1950TIP3    H127485   5.448   2.359   2.012 -0.8930  0.4847  0.2695
 1950TIP3    H227486   5.367   2.343   1.885  0.1911  0.4432 -0.4291
 1951TIP3   OH227487   0.677   4.574   0.238  0.5242  0.1770  0.4180
 1951TIP3    H127488   0.623   4.583   0.317 -1.1236 -1.3566 -0.4703
 1951TIP3    H227489   0.646   4.644   0.180  1.0879  0.7252  0.7783
 1952TIP3   OH227490   6.533   0.319   1.805 -0.6607  1.2875 -0.0728
 1952TIP3    H127491   6.468   0.255   1.834  0.2610  0.2206 -0.2869
 1952TIP3    H227492   6.481   0.391   1.768 -1.7057 -0.2230 -1.6971
 1953TIP3   OH227493   5.826   2.394   0.965 -0.4231  0.5630 -0.6789
 1953TIP3    H127494   5.782   2.461   0.914 -0.6288 -0.0847 -1.3736
 1953TIP3    H227495   5.847   2.436   1.048 -0.0263  1.6587 -1.3164
 1954TIP3   OH227496   3.535   6.332   0.936 -0.4494 -0.1463 -0.1932
 1954TIP3    H127497   3.469   6.266   0.958  0.1485 -0.1778  1.6805
 1954TIP3    H227498   3.584   6.345   1.017  0.4388  1.4855 -0.9378
 1955TIP3   OH227499   0.927   1.002   1.411 -0.4937 -0.4504  0.0812
 1955TIP3    H127500   0.943   0.931   1.349 -1.5730  0.2262 -1.0397
 1955TIP3    H227501   0.832   1.001   1.424 -0.5682  0.8939 -0.1331
 1956TIP3   OH227502   5.697   2.176   3.329  0.0707  0.3431 -0.4469
 1956TIP3    H127503   5.651   2.209   3.406 -1.8103 -1.0027 -0.9229
 1956TIP3    H227504   5.698   2.250   3.269  1.7433  1.4728  0.8934
 1957TIP3   OH227505   4.196   1.944   8.087  0.7104 -0.0062 -0.0083
 1957TIP3    H127506   4.276   1.929   8.138  0.4427 -0.7431  0.2123
 1957TIP3    H227507   4.162   1.856   8.070 -0.9831  0.2994  1.4240
 1958TIP3   OH227508   0.384   1.787   1.801  0.2698  0.8232  0.0012
 1958TIP3    H127509   0.352   1.818   1.716 -0.0600  1.4156  0.3439
 1958TIP3    H227510   0.343   1.701   1.811 -2.0043  1.9402  0.8598
 1959TIP3   OH227511   2.025   4.978   7.044  0.3541  0.4421 -0.0057
 1959TIP3    H127512   2.061   5.059   7.080 -0.7124  0.6298  0.6634
 1959TIP3    H227513   2.048   4.911   7.110 -1.5125  0.7687  1.0339
 1960TIP3   OH227514   0.684   4.812   1.804 -0.3328  0.5549  0.3098
 1960TIP3    H127515   0.669   4.875   1.734 -1.7450  1.7559  1.6163
 1960TIP3    H227516   0.746   4.750   1.767 -0.6717  1.3927 -1.8329
 1961TIP3   OH227517   1.347   1.746   7.928  0.3919  0.4730  0.2531
 1961TIP3    H127518   1.288   1.719   7.997  0.3608 -1.5459 -0.4965
 1961TIP3    H227519   1.435   1.725   7.961  0.3496 -0.9225 -0.4486
 1962TIP3   OH227520   1.750   6.234   9.008  0.0125  0.3204  0.0677
 1962TIP3    H127521   1.841   6.208   8.993  0.5974  1.5658  1.2191
 1962TIP3    H227522   1.712   6.162   9.058  0.6434  0.1967  0.3760
 1963TIP3   OH227523   1.121   1.818   2.535 -0.1280  0.0176  0.4640
 1963TIP3    H127524   1.214   1.810   2.557 -0.3537  0.7926  1.8236
 1963TIP3    H227525   1.100   1.737   2.488  0.8171 -0.9721  1.6859
 1964TIP3   OH227526   0.837   6.226   0.696  0.1600  0.2060 -0.6341
 1964TIP3    H127527   0.793   6.208   0.613 -0.4338  0.8789 -0.4786
 1964TIP3    H227528   0.779   6.288   0.741 -0.4240 -1.4622  1.0607
 1965TIP3   OH227529   1.447   2.998   8.675  0.6450 -0.5838  0.4593
 1965TIP3    H127530   1.411   2.913   8.650 -0.0730 -0.9076  2.4035
 1965TIP3    H227531   1.404   3.060   8.617  1.1824 -1.5086 -0.9979
 1966TIP3   OH227532   2.732   4.837   8.553  0.0511  0.1549 -0.3837
 1966TIP3    H127533   2.761   4.902   8.489  1.6245 -0.5673 -0.4605
 1966TIP3    H227534   2.737   4.753   8.506 -0.9339 -0.1423  0.0224
 1967TIP3   OH227535   4.983   0.224   8.391  0.4782 -0.0916 -0.3830
 1967TIP3    H127536   4.954   0.134   8.404  0.3307  0.2736  2.4036
 1967TIP3    H227537   4.937   0.275   8.458  1.0767  1.9553 -1.4266
 1968TIP3   OH227538   6.608   2.428   0.400 -0.4654  0.7169 -0.2096
 1968TIP3    H127539   6.575   2.440   0.489 -0.2628 -0.5805  0.0533
 1968TIP3    H227540   6.583   2.509   0.354  0.6049  2.0031  1.3644
 1969TIP3   OH227541   0.937   2.413   2.023 -0.1265 -0.0663  0.3321
 1969TIP3    H127542   1.015   2.367   1.993  0.1166 -1.4939  2.8594
 1969TIP3    H227543   0.955   2.505   2.007  0.6200 -0.5700 -2.1567
 1970TIP3   OH227544   2.152   1.825   2.535  0.1703 -0.2409  0.2241
 1970TIP3    H127545   2.060   1.851   2.548  0.6810  1.5260  0.5966
 1970TIP3    H227546   2.197   1.858   2.613  1.3959  0.4445 -0.7366
 1971TIP3   OH227547   3.860   6.580   0.128  0.2441 -1.1444 -0.1102
 1971TIP3    H127548   3.849   6.537   0.213  0.9353  0.5686  0.9060
 1971TIP3    H227549   3.821   6.520   0.065 -0.4011 -2.4099  1.4325
 1972TIP3   OH227550   3.887   2.527   0.365 -0.0416  0.0452  0.0721
 1972TIP3    H127551   3.868   2.466   0.294  0.2698 -1.2467  1.0715
 1972TIP3    H227552   3.830   2.500   0.436  0.2136  0.8322  0.5893
 1973TIP3   OH227553   4.980   3.003   1.961  0.4598  0.4302  0.0142
 1973TIP3    H127554   4.992   3.039   2.048 -0.2917 -0.5874  0.5603
 1973TIP3    H227555   4.898   3.040   1.930  0.6745  0.7103 -0.2247
 1974TIP3   OH227556   1.519   2.469   2.267  0.0567  0.4842  0.3490
 1974TIP3    H127557   1.446   2.467   2.205  1.2716  1.5846 -1.2139
 1974TIP3    H227558   1.510   2.553   2.312 -0.4048  0.0082  1.1677
 1975TIP3   OH227559   3.269   1.438   7.993 -0.0427  0.3521  0.7046
 1975TIP3    H127560   3.344   1.391   8.031  0.2899  0.3697  0.0904
 1975TIP3    H227561   3.253   1.394   7.909  1.1851  2.1787 -0.5691
 1976TIP3   OH227562   5.584   6.135   0.008 -0.0156 -0.1191 -0.3521
 1976TIP3    H127563   5.627   6.077   0.070 -1.6308 -1.7558 -0.6513
 1976TIP3    H227564   5.602   6.224   0.040 -2.4197 -0.8446  3.7384
 1977TIP3   OH227565   2.014   0.707   3.147  0.2729 -0.0325  0.9816
 1977TIP3    H127566   1.959   0.631   3.124 -0.1328  0.3373  0.7208
 1977TIP3    H227567   2.016   0.760   3.067  0.2660  0.4055  1.2713
 1978TIP3   OH227568   4.275   2.585   1.079 -0.3942  0.1555 -0.3497
 1978TIP3    H127569   4.262   2.531   1.157 -0.8206  0.2030 -0.3890
 1978TIP3    H227570   4.269   2.524   1.006 -1.1333  0.2940 -0.4089
 1979TIP3   OH227571   4.436   2.060   8.828 -0.3352  0.2844  0.5583
 1979TIP3    H127572   4.477   2.003   8.763 -0.0633  0.5044  0.5354
 1979TIP3    H227573   4.473   2.147   8.811 -0.1049  0.3046  1.1401
 1980TIP3   OH227574   3.077   3.781   7.659  0.3412 -0.2170  0.0409
 1980TIP3    H127575   3.091   3.711   7.595  1.2222 -0.3670  0.3773
 1980TIP3    H227576   3.153   3.838   7.649  0.5714 -0.3256  1.0421
 1981TIP3   OH227577   1.245   1.345   2.945  0.2780 -0.1062 -0.1238
 1981TIP3    H127578   1.235   1.389   3.029  0.0971 -0.8368  0.2456
 1981TIP3    H227579   1.315   1.394   2.901  2.5904 -1.4956  1.7033
 1982TIP3   OH227580   0.249   1.487   2.343  0.0487  0.1176  0.1584
 1982TIP3    H127581   0.185   1.558   2.346 -2.1710 -1.4695 -3.1161
 1982TIP3    H227582   0.212   1.419   2.399 -0.2119 -0.1146 -0.2888
 1983TIP3   OH227583   3.121   1.455   8.872 -0.2167  0.4286 -0.0238
 1983TIP3    H127584   3.167   1.418   8.948  0.6068  0.1224 -0.6588
 1983TIP3    H227585   3.046   1.396   8.859 -0.8502  0.9579  1.0436
 1984TIP3   OH227586   3.545   5.415   2.082 -0.1002 -0.3172  0.3206
 1984TIP3    H127587   3.478   5.380   2.024  0.1867  0.5071 -0.5363
 1984TIP3    H227588   3.547   5.509   2.063 -0.4301  0.0990  2.1111
 1985TIP3   OH227589   4.212   6.053   0.832  0.5267 -0.6956  0.1404
 1985TIP3    H127590   4.281   6.117   0.848  0.8034 -1.3660  1.9582
 1985TIP3    H227591   4.163   6.088   0.758  0.5268  1.7486  1.1858
 1986TIP3   OH227592   5.553   6.628   8.115 -0.0700 -0.0653 -0.1544
 1986TIP3    H127593   5.476   6.678   8.142 -0.5302 -0.4925 -0.6641
 1986TIP3    H227594   5.559   6.642   8.020  0.1478 -0.4854 -0.2066
 1987TIP3   OH227595   1.052   3.561   9.014  0.1329  0.1866 -0.6269
 1987TIP3    H127596   1.063   3.479   8.965 -0.4676  1.2158 -2.6032
 1987TIP3    H227597   1.107   3.551   9.091  3.2358 -0.5422 -2.7647
 1988TIP3   OH227598   0.445   0.960   1.070 -0.2631 -0.0517 -0.1797
 1988TIP3    H127599   0.455   0.950   1.164 -0.4341 -2.3898 -0.3562
 1988TIP3    H227600   0.486   0.882   1.032  0.2007  1.0315 -2.0855
 1989TIP3   OH227601   1.810   5.351   0.963 -0.0756  0.2222 -0.1051
 1989TIP3    H127602   1.766   5.277   1.004  2.0641 -0.7863  0.5377
 1989TIP3    H227603   1.867   5.312   0.897 -0.1118  1.4635 -0.9001
 1990TIP3   OH227604   2.641   4.639   0.773 -0.3159 -0.4271 -0.1874
 1990TIP3    H127605   2.716   4.592   0.810  0.0029  0.5170  0.3910
 1990TIP3    H227606   2.582   4.652   0.847 -1.5785 -2.1012 -0.8482
 1991TIP3   OH227607   3.086   1.864   2.083 -0.4159 -0.5871  0.0134
 1991TIP3    H127608   3.008   1.839   2.132 -0.6802  3.2439  1.9843
 1991TIP3    H227609   3.054   1.922   2.014  0.6044  2.2324  1.7397
 1992TIP3   OH227610   6.174   6.510   0.603  0.4960 -0.6254  0.8197
 1992TIP3    H127611   6.084   6.486   0.623  0.1508  0.3915  0.5178
 1992TIP3    H227612   6.225   6.471   0.675 -0.0991 -1.6769  0.6964
 1993TIP3   OH227613   5.184   4.224   2.427 -0.5258 -0.5609 -0.0902
 1993TIP3    H127614   5.253   4.192   2.369 -0.2062 -0.9338  0.4807
 1993TIP3    H227615   5.230   4.273   2.495 -0.7885 -1.0433  0.4485
 1994TIP3   OH227616   2.144   0.971   7.977  0.5187  0.6469 -0.3360
 1994TIP3    H127617   2.167   0.952   8.068  1.1915  0.6771 -0.4945
 1994TIP3    H227618   2.071   1.033   7.983  0.8397  0.9779  0.1843
 1995TIP3   OH227619   4.327   0.333   0.548  0.1230  0.6683  0.2223
 1995TIP3    H127620   4.339   0.294   0.461  1.0914 -0.2940  0.7576
 1995TIP3    H227621   4.338   0.427   0.534  0.2053  0.5346 -0.7049
 1996TIP3   OH227622   5.431   3.902   0.733 -0.2188 -0.3006 -0.1237
 1996TIP3    H127623   5.523   3.899   0.708 -0.1373  0.5528  0.0448
 1996TIP3    H227624   5.404   3.992   0.715 -1.2913 -0.7870 -1.0937
 1997TIP3   OH227625   1.368   2.572   0.464 -0.1286 -0.2617 -0.4840
 1997TIP3    H127626   1.309   2.580   0.389 -0.1907 -1.6546 -0.6207
 1997TIP3    H227627   1.397   2.481   0.461 -0.7144 -0.5733  1.5906
 1998TIP3   OH227628   1.087   6.344   0.709  0.3404 -0.3468  0.1628
 1998TIP3    H127629   1.091   6.387   0.624 -1.9693 -0.4276 -0.0515
 1998TIP3    H227630   1.011   6.287   0.703 -0.1212 -0.0526  2.4143
 1999TIP3   OH227631   1.975   3.586   8.480 -0.6065 -0.1068  0.0348
 1999TIP3    H127632   2.032   3.553   8.550 -0.0523  2.2468  0.7995
 1999TIP3    H227633   1.894   3.610   8.525  0.2353  2.7158  0.2545
 2000TIP3   OH227634   3.588   4.675   1.711  0.0187 -0.1988  0.2876
 2000TIP3    H127635   3.524   4.697   1.779 -1.8000 -2.6168 -0.4824
 2000TIP3    H227636   3.658   4.630   1.759 -1.1720 -1.7505  0.6689
 2001TIP3   OH227637   4.686   5.055   8.056  0.0897 -0.2752  0.4130
 2001TIP3    H127638   4.749   5.127   8.052 -0.6014  0.3320  0.4090
 2001TIP3    H227639   4.738   4.980   8.087  1.2445 -0.2732 -1.3944
 2002TIP3   OH227640   1.762   2.649   2.598 -0.3234  0.2287  0.1718
 2002TIP3    H127641   1.852   2.634   2.569 -0.3006  0.8784 -0.1139
 2002TIP3    H227642   1.755   2.603   2.681  0.7195  1.3512  0.9271
 2003TIP3   OH227643   5.778   2.130   8.932  0.0824 -0.6436 -0.2164
 2003TIP3    H127644   5.795   2.198   8.997  1.0012 -1.7523  0.7486
 2003TIP3    H227645   5.707   2.078   8.970 -0.9248  0.0047 -1.1547
 2004TIP3   OH227646   2.070   3.685   7.888  0.4392 -0.0434 -0.0075
 2004TIP3    H127647   2.073   3.601   7.843  1.0042 -1.6803  2.8638
 2004TIP3    H227648   1.994   3.680   7.945  1.4105  0.6871  1.4143
 2005TIP3   OH227649   2.905   3.954   7.153 -0.4014 -0.2650 -0.2661
 2005TIP3    H127650   2.919   3.861   7.140  0.2755 -0.4725  1.6006
 2005TIP3    H227651   2.971   3.996   7.097  1.7160 -1.0368  1.4931
 2006TIP3   OH227652   3.224   4.083   0.328  0.9125 -0.8674 -0.1670
 2006TIP3    H127653   3.234   4.127   0.243 -1.5400 -0.2078 -0.1910
 2006TIP3    H227654   3.216   4.155   0.391 -0.7321 -1.2696  0.1216
 2007TIP3   OH227655   1.579   2.347   0.692  0.5183 -0.1530  0.3028
 2007TIP3    H127656   1.673   2.330   0.688  0.4834 -0.4819  0.7879
 2007TIP3    H227657   1.544   2.310   0.610  0.8879  0.5048 -0.1554
 2008TIP3   OH227658   3.371   4.549   0.676 -0.1825  0.5165  0.0014
 2008TIP3    H127659   3.317   4.627   0.680 -1.3127 -0.1831 -0.9151
 2008TIP3    H227660   3.440   4.570   0.613 -2.8571 -0.5123 -3.6427
 2009TIP3   OH227661   0.518   5.610   7.721  0.1720 -0.1876 -0.5441
 2009TIP3    H127662   0.525   5.557   7.642 -0.7253  1.4401 -1.7878
 2009TIP3    H227663   0.458   5.681   7.697  2.4531  2.2683  0.5197
 2010TIP3   OH227664   0.304   1.194   1.371  0.1235 -0.3962  0.4841
 2010TIP3    H127665   0.346   1.202   1.286  0.3355 -0.4515  0.5830
 2010TIP3    H227666   0.317   1.280   1.412 -3.4229  1.0884 -1.0881
 2011TIP3   OH227667   4.288   0.726   8.927  0.5273  0.2629 -0.1412
 2011TIP3    H127668   4.241   0.646   8.947 -1.5517  0.9653 -1.8110
 2011TIP3    H227669   4.353   0.700   8.862  0.2293 -0.1654 -0.2713
 2012TIP3   OH227670   0.185   2.658   1.267 -0.3331  0.4200 -0.1334
 2012TIP3    H127671   0.195   2.753   1.262 -0.7186  0.4177 -1.1672
 2012TIP3    H227672   0.269   2.627   1.300  0.7096  0.9382 -2.1430
 2013TIP3   OH227673   5.845   3.611   8.470  0.0208 -0.2822 -0.2959
 2013TIP3    H127674   5.879   3.522   8.460 -1.0172 -0.6028 -1.2646
 2013TIP3    H227675   5.775   3.617   8.404 -0.7282  0.8484  0.5605
 2014TIP3   OH227676   1.348   2.794   1.735  0.7052  0.3764 -0.0519
 2014TIP3    H127677   1.288   2.869   1.741 -1.6021 -1.2308 -1.4290
 2014TIP3    H227678   1.371   2.775   1.826 -0.3131  1.4657  0.4658
 2015TIP3   OH227679   0.077   6.204   8.937  0.6279 -0.5962  0.0014
 2015TIP3    H127680  -0.018   6.207   8.932  0.6661 -0.4452 -0.7205
 2015TIP3    H227681   0.106   6.214   8.847  1.3671  0.6562  0.3500
 2016TIP3   OH227682   3.070   1.652   0.723  0.3862 -0.1229 -0.1008
 2016TIP3    H127683   3.115   1.717   0.776  0.2617 -0.9827  1.1016
 2016TIP3    H227684   3.116   1.653   0.639  1.2261  0.5673  0.3583
 2017TIP3   OH227685   4.526   4.665   1.868  0.5791 -0.2719 -0.2300
 2017TIP3    H127686   4.545   4.686   1.776  0.9958  0.2852 -0.0241
 2017TIP3    H227687   4.480   4.581   1.864 -2.1906  1.1433 -1.1800
 2018TIP3   OH227688   5.938   1.405   2.362 -0.0910 -0.6670 -0.3225
 2018TIP3    H127689   5.951   1.425   2.269 -0.8730  0.5401 -0.1846
 2018TIP3    H227690   5.843   1.409   2.375  0.0263 -0.6146  0.5773
 2019TIP3   OH227691   5.835   2.529   0.406 -0.0354 -0.0008  0.0671
 2019TIP3    H127692   5.903   2.584   0.446 -1.5560  1.3421  0.9206
 2019TIP3    H227693   5.773   2.591   0.369 -0.8705 -1.1912 -0.5859
 2020TIP3   OH227694   5.194   2.707   0.157  0.1288 -0.8722 -0.1068
 2020TIP3    H127695   5.175   2.762   0.081  1.3927  1.8524  1.4035
 2020TIP3    H227696   5.109   2.676   0.188 -0.6503  0.3936 -0.9237
 2021TIP3   OH227697   0.284   1.817   2.310  0.2184  0.8030  0.0179
 2021TIP3    H127698   0.270   1.786   2.221  0.2004  1.5740 -0.2520
 2021TIP3    H227699   0.228   1.894   2.318 -0.1375  0.4650  0.8522
 2022TIP3   OH227700   2.912   5.106   8.954  0.5197  0.3439  0.0405
 2022TIP3    H127701   2.837   5.103   8.894  0.8293 -1.0125 -0.3180
 2022TIP3    H227702   2.942   5.196   8.950 -0.0484  0.5015 -1.1431
 2023TIP3   OH227703   3.816   5.981   8.082 -0.0987 -0.2118 -0.0419
 2023TIP3    H127704   3.857   6.012   8.001  1.3617 -2.3957 -0.2377
 2023TIP3    H227705   3.882   5.998   8.150  0.7202 -2.5908 -0.1464
 2024TIP3   OH227706   6.330   1.007   1.966  0.1904  0.0857  0.1440
 2024TIP3    H127707   6.333   0.912   1.953 -0.6803 -0.0614  0.9676
 2024TIP3    H227708   6.330   1.042   1.877 -1.4997 -0.7650 -0.2389
 2025TIP3   OH227709   2.577   2.791   1.814 -0.7613 -0.1194 -0.2376
 2025TIP3    H127710   2.567   2.878   1.853  0.1249  0.7773 -1.8798
 2025TIP3    H227711   2.668   2.766   1.834 -0.3911  0.2200 -1.3806
 2026TIP3   OH227712   1.103   0.323   1.548 -0.0271 -0.1352  0.0818
 2026TIP3    H127713   1.028   0.362   1.594  1.3512  1.6191  0.9923
 2026TIP3    H227714   1.066   0.289   1.466 -2.0181 -0.5355  1.0660
 2027TIP3   OH227715   5.436   5.733   0.632  0.4531  0.2669  0.3490
 2027TIP3    H127716   5.373   5.795   0.596  1.3937  0.9693 -0.1519
 2027TIP3    H227717   5.512   5.740   0.573  0.1842 -2.1614 -0.3673
 2028TIP3   OH227718   2.341   5.810   0.337 -0.5912  0.2693 -0.6003
 2028TIP3    H127719   2.315   5.743   0.400  2.1642 -0.9810 -0.6200
 2028TIP3    H227720   2.341   5.765   0.252  0.7347  0.4080 -0.6997
 2029TIP3   OH227721   0.090   1.137   8.757 -0.0826 -0.2671 -0.2323
 2029TIP3    H127722   0.000   1.164   8.774 -0.1278 -0.5399 -0.0383
 2029TIP3    H227723   0.128   1.120   8.843  0.1744 -0.0949 -0.3094
 2030TIP3   OH227724   0.231   6.395   0.525  0.0100  0.7642 -0.1943
 2030TIP3    H127725   0.161   6.342   0.563  0.6847  0.0871  0.1434
 2030TIP3    H227726   0.242   6.361   0.437  0.8022 -0.0400  0.2002
 2031TIP3   OH227727   4.685   0.642   9.171 -0.4093  0.0366 -0.2022
 2031TIP3    H127728   4.760   0.660   9.114 -0.3892  0.2953 -0.0980
 2031TIP3    H227729   4.701   0.554   9.205  2.1655  1.6201  3.3100
 2032TIP3   OH227730   3.484   1.450   0.380  0.2369  0.0795  0.4224
 2032TIP3    H127731   3.547   1.380   0.364  0.2781  0.5309 -1.6242
 2032TIP3    H227732   3.401   1.416   0.348  0.2000  0.8294 -0.3125
 2033TIP3   OH227733   5.132   6.036   0.934 -0.6971  0.2351 -0.2225
 2033TIP3    H127734   5.191   5.966   0.962 -0.6200  0.6695  0.7501
 2033TIP3    H227735   5.179   6.117   0.957 -1.5764  0.5867  0.3540
 2034TIP3   OH227736   5.219   3.801   8.152 -0.2610  0.0321 -0.3667
 2034TIP3    H127737   5.206   3.708   8.133 -0.5813  0.4053 -2.1079
 2034TIP3    H227738   5.139   3.827   8.197 -0.2921 -0.4509 -0.1267
 2035TIP3   OH227739   1.015   5.827   8.090 -0.7729  0.1919  0.5790
 2035TIP3    H127740   0.998   5.900   8.150  0.1346 -0.0445  1.1363
 2035TIP3    H227741   1.101   5.846   8.053  0.1091 -1.2899  1.7876
 2036TIP3   OH227742   5.690   1.013   8.171  0.1020  0.0760 -0.1241
 2036TIP3    H127743   5.757   0.978   8.112 -1.0290 -1.8246 -0.3502
 2036TIP3    H227744   5.664   1.096   8.131  1.8452  0.5482 -0.3651
 2037TIP3   OH227745   0.962   0.235   0.448  0.6865  0.4111 -0.2371
 2037TIP3    H127746   0.977   0.148   0.413 -1.7790  1.1107 -3.5684
 2037TIP3    H227747   0.867   0.246   0.446  0.9398  3.4769 -0.9739
 2038TIP3   OH227748   0.804   0.150   1.814 -0.3067  0.6959 -0.4421
 2038TIP3    H127749   0.722   0.166   1.860 -0.5227  0.8278 -0.8715
 2038TIP3    H227750   0.815   0.055   1.817 -0.9901  0.5862 -1.2619
 2039TIP3   OH227751   1.752   0.119   7.516 -0.0395  0.5020  0.1095
 2039TIP3    H127752   1.709   0.141   7.433 -0.2258  0.8223  0.2903
 2039TIP3    H227753   1.727   0.189   7.576 -2.1569 -1.1239  1.2595
 2040TIP3   OH227754   1.298   0.546   0.317  0.0565  0.0123 -0.0839
 2040TIP3    H127755   1.294   0.502   0.402 -0.8848 -0.6684 -0.4654
 2040TIP3    H227756   1.269   0.636   0.336  2.9596  0.8571  0.8834
 2041TIP3   OH227757   4.986   2.835   8.423  0.2896  0.1926 -0.2669
 2041TIP3    H127758   4.918   2.802   8.364  0.3974 -1.7900  0.6369
 2041TIP3    H227759   5.000   2.926   8.395 -0.0989 -0.4551 -2.8616
 2042TIP3   OH227760   2.310   0.700   0.706 -0.3075 -0.4517 -0.1239
 2042TIP3    H127761   2.405   0.701   0.717 -0.3628 -1.0989  0.5295
 2042TIP3    H227762   2.286   0.791   0.695  0.4135 -0.2992 -0.4711
 2043TIP3   OH227763   0.278   1.894   6.878  0.3939 -0.7295 -0.1177
 2043TIP3    H127764   0.233   1.821   6.920 -0.9926 -0.6974 -1.4967
 2043TIP3    H227765   0.368   1.889   6.912  0.0541 -2.4035  0.6308
 2044TIP3   OH227766   6.357   3.062   1.436 -0.3886  0.4717 -0.3476
 2044TIP3    H127767   6.438   3.058   1.487 -1.1380 -0.9265  0.8042
 2044TIP3    H227768   6.323   3.150   1.452 -0.2296  0.3082  0.9913
 2045TIP3   OH227769   3.937   0.038   7.909  0.6452  0.5563  0.5810
 2045TIP3    H127770   3.990   0.116   7.921  0.0343  0.8559  1.4169
 2045TIP3    H227771   3.981  -0.011   7.839  1.8248  0.9604  1.0220
 2046TIP3   OH227772   3.999   4.908   0.676  0.1401 -0.0443  0.6207
 2046TIP3    H127773   3.913   4.890   0.637 -0.0509 -0.5330  1.2547
 2046TIP3    H227774   3.980   4.951   0.759  0.5139 -0.0895  0.7334
 2047TIP3   OH227775   0.696   1.370   0.511 -0.3487 -0.6749 -1.3966
 2047TIP3    H127776   0.612   1.394   0.472 -0.7508 -0.7193 -0.5951
 2047TIP3    H227777   0.680   1.285   0.552 -0.6658  0.3734  0.8573
 2048TIP3   OH227778   4.865   5.202   7.815  0.0054 -0.5166 -0.3608
 2048TIP3    H127779   4.924   5.146   7.866 -0.0871  1.1878  1.7350
 2048TIP3    H227780   4.897   5.291   7.829 -1.1750  0.1807 -1.7855
 2049TIP3   OH227781   3.815   5.573   8.138 -0.1165  0.3817  0.0056
 2049TIP3    H127782   3.762   5.510   8.089  0.7000 -0.1224 -0.2618
 2049TIP3    H227783   3.858   5.521   8.206  1.7331  0.2937 -1.1286
 2050TIP3   OH227784   2.602   2.043   1.157 -0.0429  0.1049 -0.7501
 2050TIP3    H127785   2.631   2.090   1.236 -1.4222 -0.7983  0.3349
 2050TIP3    H227786   2.644   2.090   1.085  0.6060  1.4610  0.4592
 2051TIP3   OH227787   4.089   5.204   0.519  0.0677  0.1798  0.0724
 2051TIP3    H127788   4.036   5.240   0.591  2.4081  1.8394  1.0780
 2051TIP3    H227789   4.134   5.129   0.558  0.3149  0.2655 -0.0492
 2052TIP3   OH227790   6.420   2.917   1.183  0.0267 -0.4679 -0.1791
 2052TIP3    H127791   6.391   2.969   1.258  1.8106 -1.5543  1.3443
 2052TIP3    H227792   6.496   2.965   1.149 -1.6968  0.9096 -2.4471
 2053TIP3   OH227793   4.195   4.221   1.977  0.6361 -0.6944 -0.0474
 2053TIP3    H127794   4.231   4.141   1.939  1.0079 -0.3050 -0.5383
 2053TIP3    H227795   4.256   4.244   2.047  1.0204 -0.3636 -0.4850
 2054TIP3   OH227796   6.034   0.232   1.842 -0.1903  1.1610 -0.0573
 2054TIP3    H127797   6.009   0.204   1.930  0.1947  2.0039  0.3347
 2054TIP3    H227798   6.014   0.157   1.786 -0.1525  0.5043  0.7904
 2055TIP3   OH227799   5.213   0.257   0.362 -0.2647  0.0259 -0.0167
 2055TIP3    H127800   5.261   0.180   0.330  0.8347  0.9865 -0.7708
 2055TIP3    H227801   5.182   0.232   0.449 -1.5842 -1.9467 -0.9789
 2056TIP3   OH227802   4.757   4.348   8.327  0.1263  0.5201  0.0533
 2056TIP3    H127803   4.839   4.298   8.325  0.5957  1.1476  1.7682
 2056TIP3    H227804   4.702   4.308   8.260  1.4393 -0.6127 -0.3781
 2057TIP3   OH227805   4.547   6.247   0.679  0.0064 -0.3275  0.2254
 2057TIP3    H127806   4.623   6.305   0.671  0.2453 -0.9136 -2.3709
 2057TIP3    H227807   4.583   6.165   0.714  0.1298  0.1319  1.2296
 2058TIP3   OH227808   1.903   4.324   1.876 -0.5093  0.5698 -0.3093
 2058TIP3    H127809   1.821   4.281   1.850  0.0780 -0.4056 -0.6085
 2058TIP3    H227810   1.966   4.252   1.883  0.7228  1.4631 -1.6477
 2059TIP3   OH227811   3.665   2.781   9.188 -0.2928 -0.0742  0.4410
 2059TIP3    H127812   3.740   2.721   9.186 -0.3012 -0.2981  2.9602
 2059TIP3    H227813   3.619   2.765   9.106  1.9167 -0.5743 -0.7738
 2060TIP3   OH227814   3.343   4.634   2.261  0.3446  0.1249 -0.3277
 2060TIP3    H127815   3.359   4.702   2.327 -1.3300  0.2344  0.0282
 2060TIP3    H227816   3.260   4.660   2.221  0.4637 -0.8980 -1.2618
 2061TIP3   OH227817   6.143   0.645   8.425 -0.1353 -0.2186  0.0227
 2061TIP3    H127818   6.175   0.735   8.432  1.1631 -0.6672  0.1298
 2061TIP3    H227819   6.111   0.624   8.513  1.4649 -0.5372  0.5491
 2062TIP3   OH227820   4.548   2.132   1.598 -0.2459 -0.2850  0.3248
 2062TIP3    H127821   4.643   2.130   1.608 -0.0223  3.8842  0.9131
 2062TIP3    H227822   4.515   2.157   1.684 -1.9140 -1.6592  0.1331
 2063TIP3   OH227823   5.557   6.431   1.078  0.6107  0.1069  0.2165
 2063TIP3    H127824   5.565   6.376   1.000 -1.2224 -0.0476  0.1053
 2063TIP3    H227825   5.543   6.369   1.149 -1.5856  0.3835  0.0740
 2064TIP3   OH227826   6.365   2.197   7.564 -0.5801 -0.0134 -0.1622
 2064TIP3    H127827   6.376   2.154   7.479 -0.3244  0.7412 -0.5213
 2064TIP3    H227828   6.412   2.280   7.555  0.9379 -0.6408  1.2896
 2065TIP3   OH227829   5.302   5.381   2.605  0.0131  0.6571  0.1054
 2065TIP3    H127830   5.214   5.345   2.608  0.2802 -0.0748 -0.4472
 2065TIP3    H227831   5.297   5.453   2.543  0.1123 -0.3454 -1.1219
 2066TIP3   OH227832   3.809   5.960   2.746 -0.1029  0.0853  0.2557
 2066TIP3    H127833   3.761   6.004   2.816  1.3274  2.6515 -0.2818
 2066TIP3    H227834   3.797   5.867   2.765 -3.7382  0.5792  1.1357
 2067TIP3   OH227835   4.757   3.991   1.992 -0.2195  0.1135  0.0785
 2067TIP3    H127836   4.745   3.914   1.937 -1.2154  1.0000 -0.9910
 2067TIP3    H227837   4.680   3.992   2.049 -0.5709  0.6820 -0.3917
 2068TIP3   OH227838   0.748   4.429   1.400  0.6179  0.1697 -0.0061
 2068TIP3    H127839   0.800   4.408   1.478  1.9636  0.2210 -0.8723
 2068TIP3    H227840   0.658   4.410   1.427  1.2650 -2.2231  0.7966
 2069TIP3   OH227841   5.242   2.172   0.081  0.0400 -0.1698  0.3601
 2069TIP3    H127842   5.311   2.119   0.122  1.6279  2.3973  1.2718
 2069TIP3    H227843   5.228   2.132  -0.004  1.4326 -1.7867  0.8333
 2070TIP3   OH227844   6.213   1.102   0.790 -0.0870 -0.3829  0.3791
 2070TIP3    H127845   6.245   1.052   0.866 -0.3760 -0.8514  0.1944
 2070TIP3    H227846   6.123   1.126   0.813  0.0719  0.1321  0.4992
 2071TIP3   OH227847   5.240   5.647   1.033  0.2951 -0.3401 -0.1427
 2071TIP3    H127848   5.310   5.619   1.092  0.2955  0.5378  0.2842
 2071TIP3    H227849   5.214   5.567   0.987 -0.2608 -1.2262  1.6193
 2072TIP3   OH227850   0.314   3.644   9.031 -0.6332  0.1545 -0.0890
 2072TIP3    H127851   0.280   3.726   9.067  2.3293  1.0625  0.9762
 2072TIP3    H227852   0.371   3.610   9.100  1.7053 -0.4257 -2.1590
 2073TIP3   OH227853   0.063   2.420   8.308 -0.0852 -0.2155  0.5830
 2073TIP3    H127854   0.098   2.439   8.395 -0.2056  1.7302  0.2592
 2073TIP3    H227855   0.014   2.499   8.284 -2.3446 -1.7214 -0.1620
 2074TIP3   OH227856   1.284   4.061   7.955 -0.1319  0.4941  0.5336
 2074TIP3    H127857   1.236   4.141   7.936 -0.2656  0.1213 -0.7745
 2074TIP3    H227858   1.317   4.032   7.870 -1.6961 -1.8708  0.6420
 2075TIP3   OH227859   4.732   2.598   8.257 -0.1665 -0.3294 -0.6658
 2075TIP3    H127860   4.810   2.557   8.219  1.0680  0.4980  0.8634
 2075TIP3    H227861   4.734   2.571   8.349 -0.3345  1.6169 -0.0460
 2076TIP3   OH227862   4.564   0.614   3.029 -0.3858  0.3457 -0.2467
 2076TIP3    H127863   4.657   0.590   3.025 -0.4177 -0.6406  2.6675
 2076TIP3    H227864   4.522   0.540   3.073 -2.0965  1.8468  0.7621
 2077TIP3   OH227865   0.830   1.608   2.650 -0.0106 -0.0039  0.1651
 2077TIP3    H127866   0.756   1.581   2.597  0.3296 -0.3438 -0.1456
 2077TIP3    H227867   0.797   1.681   2.703 -1.1467 -1.4070  1.4856
 2078TIP3   OH227868   6.136   5.049   1.661 -0.4407 -0.3272 -0.1760
 2078TIP3    H127869   6.151   4.954   1.655 -1.7226 -0.7318  1.7824
 2078TIP3    H227870   6.068   5.057   1.728  0.0253  2.0260  0.0788
 2079TIP3   OH227871   4.158   6.480   8.039 -0.2765  0.0160  0.3923
 2079TIP3    H127872   4.160   6.513   7.949 -0.1028 -0.0395  0.3735
 2079TIP3    H227873   4.203   6.547   8.090  1.0672 -0.6808  0.1805
 2080TIP3   OH227874   4.477   4.217   1.720 -0.5266  0.2058 -0.5321
 2080TIP3    H127875   4.408   4.151   1.712  1.1554 -1.5929 -0.9251
 2080TIP3    H227876   4.559   4.167   1.716  0.8195  2.1820  0.5563
 2081TIP3   OH227877   6.270   2.405   7.250  0.2473 -0.3591  0.1765
 2081TIP3    H127878   6.271   2.321   7.203 -2.3783 -0.9952  1.0394
 2081TIP3    H227879   6.210   2.459   7.198  2.1138  1.1348 -0.5064
 2082TIP3   OH227880   1.625   3.524   1.233  0.1399  0.2372 -0.6025
 2082TIP3    H127881   1.716   3.507   1.207  0.7909  1.1003  0.9545
 2082TIP3    H227882   1.633   3.573   1.315 -1.7439  0.4897 -0.5370
 2083TIP3   OH227883   4.906   2.786   8.670 -0.1410 -0.1068  0.0547
 2083TIP3    H127884   4.976   2.835   8.714  1.3921 -0.1747 -2.1190
 2083TIP3    H227885   4.917   2.807   8.577 -1.6577 -1.8428 -0.5829
 2084TIP3   OH227886   2.338   4.036   0.526 -0.5787 -0.2947  0.3827
 2084TIP3    H127887   2.246   4.050   0.552 -1.1471 -1.2894 -0.9495
 2084TIP3    H227888   2.351   4.093   0.450 -0.4461 -0.9701 -0.1103
 2085TIP3   OH227889   2.596   5.332   2.201  0.0544 -0.2855  0.2194
 2085TIP3    H127890   2.577   5.383   2.279  1.0178  0.9861 -0.3379
 2085TIP3    H227891   2.688   5.306   2.211 -0.2897 -1.5321  0.2722
 2086TIP3   OH227892   3.433   4.354   8.567 -0.1978 -0.4408  0.0149
 2086TIP3    H127893   3.422   4.264   8.535 -1.1680 -0.4547  0.3624
 2086TIP3    H227894   3.512   4.385   8.523 -0.4948 -1.0761 -1.0052
 2087TIP3   OH227895   3.932   0.460   9.165  0.1791 -0.3416 -0.1103
 2087TIP3    H127896   3.871   0.434   9.096 -1.7955  0.2624  1.3292
 2087TIP3    H227897   3.935   0.386   9.225 -0.0915  0.0801  0.4381
 2088TIP3   OH227898   6.496   2.001   1.261 -0.1703 -0.1555 -0.0174
 2088TIP3    H127899   6.402   2.015   1.264 -0.0068  0.8605  1.6335
 2088TIP3    H227900   6.533   2.073   1.312  1.8117  1.6028 -3.5876
 2089TIP3   OH227901   3.802   1.585   8.921 -0.1895  0.2909  0.0872
 2089TIP3    H127902   3.879   1.539   8.952  0.1599  0.8284  0.0390
 2089TIP3    H227903   3.804   1.669   8.968 -0.2089  0.7046 -0.6316
 2090TIP3   OH227904   4.290   4.489   8.757 -0.3556  0.2326  0.5521
 2090TIP3    H127905   4.369   4.438   8.772 -0.2601  0.5102  1.0068
 2090TIP3    H227906   4.282   4.545   8.834  0.2268  1.7873 -0.4617
 2091TIP3   OH227907   5.481   3.818   8.298  0.4925  0.1493  0.5305
 2091TIP3    H127908   5.523   3.903   8.293  0.8097  0.0112  0.7784
 2091TIP3    H227909   5.409   3.822   8.235  0.5962  0.5461  0.4375
 2092TIP3   OH227910   3.357   1.426   1.867  0.0837  0.6276  0.0791
 2092TIP3    H127911   3.323   1.448   1.953 -1.6614  0.2774 -0.4691
 2092TIP3    H227912   3.364   1.330   1.868  0.6570  0.6689  0.0430
 2093TIP3   OH227913   3.165   3.659   9.082  0.1428 -0.7473  0.2081
 2093TIP3    H127914   3.260   3.655   9.076  0.0865 -2.0672 -0.1424
 2093TIP3    H227915   3.137   3.696   8.999  0.3312 -0.6854  0.1721
 2094TIP3   OH227916   6.402   0.310   3.023 -0.3251  0.4000  0.1084
 2094TIP3    H127917   6.310   0.333   3.034 -0.8691  1.3760 -4.5612
 2094TIP3    H227918   6.401   0.238   2.960  2.1216  0.0538  0.3750
 2095TIP3   OH227919   5.324   0.277   0.877 -0.1745 -0.2415 -0.4732
 2095TIP3    H127920   5.319   0.360   0.828 -0.2218  0.2153  0.2844
 2095TIP3    H227921   5.411   0.278   0.917  0.3234 -1.1651 -1.4814
 2096TIP3   OH227922   0.629   4.989   6.935 -0.0318  0.2321  0.2657
 2096TIP3    H127923   0.700   4.937   6.896  1.7874  1.5458  1.6452
 2096TIP3    H227924   0.573   4.924   6.977 -0.6984 -1.0006 -2.2914
 2097TIP3   OH227925   1.964   3.743   0.433 -0.3120  0.1603 -0.0691
 2097TIP3    H127926   1.892   3.722   0.372 -0.6364 -2.4958  1.0608
 2097TIP3    H227927   2.043   3.732   0.380 -0.6349 -0.6072 -0.4206
 2098TIP3   OH227928   5.290   1.207   8.010 -0.1487 -0.3461 -0.5658
 2098TIP3    H127929   5.204   1.201   7.967  0.2023 -1.9904 -1.1335
 2098TIP3    H227930   5.348   1.157   7.953  0.8631 -0.5300  0.5910
 2099TIP3   OH227931   3.069   4.626   8.830 -0.4996  0.0838  0.3334
 2099TIP3    H127932   3.114   4.637   8.746 -1.1574  0.2877 -0.0034
 2099TIP3    H227933   2.976   4.620   8.806 -0.7470  0.7193  1.0888
 2100TIP3   OH227934   2.615   4.107   1.276  0.0763 -0.1367  0.5112
 2100TIP3    H127935   2.548   4.041   1.291 -0.4102  1.0384  4.8668
 2100TIP3    H227936   2.692   4.074   1.324  0.1041  1.9279  2.0083
 2101TIP3   OH227937   0.030   3.732   7.152  0.2880 -0.0159  0.2825
 2101TIP3    H127938   0.078   3.655   7.121  1.0811 -0.1205  1.6906
 2101TIP3    H227939  -0.039   3.745   7.087  2.4644  0.4261 -2.1552
 2102TIP3   OH227940   2.435   2.404   1.703 -0.2465  0.3028 -0.5623
 2102TIP3    H127941   2.497   2.453   1.756  0.4755 -0.7541 -0.3845
 2102TIP3    H227942   2.479   2.320   1.686 -1.5812 -0.4475 -0.5010
 2103TIP3   OH227943   5.301   1.985   8.361 -0.1681 -0.5155 -0.0126
 2103TIP3    H127944   5.334   1.914   8.306  0.4438 -2.1921  2.3454
 2103TIP3    H227945   5.376   2.011   8.414 -0.7463  0.9999  0.1200
 2104TIP3   OH227946   4.041   2.476   8.798  0.8072 -0.5154  0.7560
 2104TIP3    H127947   4.002   2.440   8.718  1.1943  0.4542  0.1050
 2104TIP3    H227948   4.022   2.570   8.793  0.1670 -0.5367  2.2030
 2105TIP3   OH227949   1.011   5.248   0.626 -0.3278  0.1936  0.4306
 2105TIP3    H127950   0.941   5.213   0.570  1.1633 -1.1644 -0.6987
 2105TIP3    H227951   0.984   5.225   0.715 -0.8534 -1.2522 -0.0676
 2106TIP3   OH227952   6.539   4.744   0.811  0.2936 -0.2704 -0.7738
 2106TIP3    H127953   6.553   4.787   0.896 -1.1316  0.0320 -0.6701
 2106TIP3    H227954   6.573   4.807   0.747  0.6074 -0.1315 -0.4752
 2107TIP3   OH227955   0.252   5.393   7.362 -0.3652 -0.3266 -0.8180
 2107TIP3    H127956   0.289   5.324   7.306  0.2324 -0.8723  0.2140
 2107TIP3    H227957   0.159   5.394   7.340 -0.4120 -1.5672 -0.7672
 2108TIP3   OH227958   4.414   0.454   0.811  0.5540 -0.2050 -0.2274
 2108TIP3    H127959   4.353   0.405   0.756 -0.8597  2.0913 -0.8356
 2108TIP3    H227960   4.441   0.528   0.756  1.9081  0.2297  0.9599
 2109TIP3   OH227961   3.056   3.828   0.868 -0.5735 -0.6737  0.4335
 2109TIP3    H127962   3.083   3.747   0.824  2.2466 -0.2184  1.1362
 2109TIP3    H227963   3.097   3.898   0.817  0.1182  0.0490  1.9199
 2110TIP3   OH227964   1.638   4.597   8.612  0.0277 -0.5017 -0.1518
 2110TIP3    H127965   1.716   4.650   8.629 -1.0292  1.4703 -1.0790
 2110TIP3    H227966   1.572   4.630   8.673 -0.0258 -2.4230  0.9078
 2111TIP3   OH227967   6.057   5.267   2.036  0.0471  0.4392 -0.0812
 2111TIP3    H127968   5.964   5.276   2.059 -0.6190  0.6124 -2.5818
 2111TIP3    H227969   6.103   5.293   2.116 -2.0296  1.9876  0.7250
 2112TIP3   OH227970   1.261   4.243   2.064 -0.3194  0.2904 -0.4463
 2112TIP3    H127971   1.321   4.277   2.131  0.8300 -0.8546 -0.8478
 2112TIP3    H227972   1.187   4.303   2.065  0.0867  0.8060  1.2274
 2113TIP3   OH227973   2.950   1.343   7.838 -0.1364  0.2813  0.1531
 2113TIP3    H127974   2.966   1.429   7.800  1.3754 -0.1995 -0.3934
 2113TIP3    H227975   2.921   1.289   7.765  1.5000 -0.3142 -0.0997
 2114TIP3   OH227976   4.583   2.991   2.070  0.2586 -0.3149  0.1563
 2114TIP3    H127977   4.652   3.049   2.103 -0.1113  0.6376 -0.6799
 2114TIP3    H227978   4.504   3.020   2.115 -0.0087  0.1323 -0.5888
 2115TIP3   OH227979   1.006   4.602   1.439 -0.1311  0.1881 -0.1099
 2115TIP3    H127980   0.981   4.516   1.472  2.3967 -0.6068 -0.0388
 2115TIP3    H227981   0.999   4.593   1.343  1.0150 -0.4564 -0.1564
 2116TIP3   OH227982   4.727   4.269   9.024  0.4833  0.2157  0.3308
 2116TIP3    H127983   4.755   4.273   9.115 -0.2570  1.9677  0.5300
 2116TIP3    H227984   4.803   4.237   8.976  0.5389 -1.8305  1.6634
 2117TIP3   OH227985   0.334   3.565   0.584 -0.3834 -0.0713 -0.4920
 2117TIP3    H127986   0.242   3.573   0.611 -0.1378  4.0255 -0.3276
 2117TIP3    H227987   0.383   3.613   0.650  1.6319 -0.2179 -1.8021
 2118TIP3   OH227988   5.260   5.890   7.883 -0.1903 -0.0941 -0.3152
 2118TIP3    H127989   5.341   5.939   7.870 -0.3852  0.3831  0.2331
 2118TIP3    H227990   5.275   5.840   7.963 -0.9151  1.0276  0.5543
 2119TIP3   OH227991   3.457   4.541   0.330 -0.0254  0.1617 -0.1527
 2119TIP3    H127992   3.362   4.542   0.338 -0.1136 -1.5932 -0.6336
 2119TIP3    H227993   3.474   4.497   0.247  1.2025  2.2190 -1.0771
 2120TIP3   OH227994   2.706   4.594   8.469  0.2207  0.9325  0.7202
 2120TIP3    H127995   2.661   4.534   8.530  0.5194  0.0961  0.1351
 2120TIP3    H227996   2.770   4.539   8.425 -0.4201  1.3743 -0.8106
 2121TIP3   OH227997   1.478   6.248   1.562  0.4114 -0.0062 -0.0851
 2121TIP3    H127998   1.411   6.315   1.575  1.1005  0.2602  2.6480
 2121TIP3    H227999   1.468   6.190   1.637  1.4641 -1.5636 -1.0992
 2122TIP3   OH228000   0.065   2.297   9.148 -0.5441 -0.1622 -0.0816
 2122TIP3    H128001  -0.027   2.289   9.173 -0.3601  0.8478  1.0150
 2122TIP3    H228002   0.103   2.211   9.166 -1.2135 -0.5183 -0.3289
 2123TIP3   OH228003   1.287   1.008   0.865 -0.4513  0.4060 -0.0218
 2123TIP3    H128004   1.346   0.985   0.937 -0.3635  1.7475  0.3651
 2123TIP3    H228005   1.264   0.925   0.825 -0.4474 -0.3644  1.5158
 2124TIP3   OH228006   0.898   5.480   8.438  0.6608 -0.1202  0.0980
 2124TIP3    H128007   0.809   5.485   8.473  0.6695 -1.4412  0.3744
 2124TIP3    H228008   0.922   5.571   8.420 -0.2689  0.3763  1.2098
 2125TIP3   OH228009   0.637   0.136   1.335  0.2282 -0.3007  0.2305
 2125TIP3    H128010   0.573   0.157   1.266 -0.1369  0.3545  0.7503
 2125TIP3    H228011   0.709   0.198   1.320  0.7559 -1.0336 -0.3502
 2126TIP3   OH228012   2.321   2.109   8.884 -0.2697 -0.1963  0.5764
 2126TIP3    H128013   2.372   2.070   8.955  0.3430  0.0205  0.2594
 2126TIP3    H228014   2.344   2.057   8.807 -2.2407 -1.5609  0.8295
 2127TIP3   OH228015   5.858   5.449   0.249  0.1434  0.0464 -0.1494
 2127TIP3    H128016   5.891   5.497   0.325 -2.2960  2.3056 -0.3810
 2127TIP3    H228017   5.825   5.366   0.285  0.3518  0.4523  1.0203
 2128TIP3   OH228018   3.713   3.983   2.055 -0.1302  0.2338  0.0394
 2128TIP3    H128019   3.783   3.945   2.109  0.1766  0.7471  0.0006
 2128TIP3    H228020   3.694   4.067   2.096 -1.2059 -0.1949  0.4560
 2129TIP3   OH228021   1.639   1.998   8.040  0.3071  0.0932 -1.0546
 2129TIP3    H128022   1.559   1.996   8.093  0.8582  1.3324 -0.0985
 2129TIP3    H228023   1.674   1.910   8.045 -0.8821 -0.4103 -1.3083
 2130TIP3   OH228024   1.245   0.637   3.181  0.0393 -0.2255  0.2531
 2130TIP3    H128025   1.246   0.705   3.115 -0.2821 -0.5918 -0.1360
 2130TIP3    H228026   1.168   0.655   3.234 -1.4589 -1.6599 -1.3329
 2131TIP3   OH228027   3.828   0.543   2.689  0.2488 -0.2149 -0.3944
 2131TIP3    H128028   3.766   0.471   2.679 -0.4091  0.1818  0.6554
 2131TIP3    H228029   3.774   0.622   2.685  0.6415  0.1283  0.7245
 2132TIP3   OH228030   4.836   3.321   7.372  0.0745  0.4022 -0.4491
 2132TIP3    H128031   4.793   3.376   7.307 -0.8031 -0.1126 -0.3180
 2132TIP3    H228032   4.780   3.325   7.449  2.2576  2.8614  1.1787
 2133TIP3   OH228033   3.835   1.884   1.719 -0.4067 -0.0758 -0.3115
 2133TIP3    H128034   3.871   1.907   1.633 -0.6839 -1.3307 -0.7913
 2133TIP3    H228035   3.789   1.963   1.748  0.8593  0.8326 -0.6731
 2134TIP3   OH228036   0.524   6.283   2.143 -0.1665  0.3159  0.1014
 2134TIP3    H128037   0.552   6.205   2.094 -1.3967 -0.8763  1.2374
 2134TIP3    H228038   0.535   6.260   2.235 -1.8278  0.9675  0.5053
 2135TIP3   OH228039   6.628   5.321   1.629 -0.1392  0.2201  0.8744
 2135TIP3    H128040   6.604   5.288   1.716 -0.1819  1.1067  1.2168
 2135TIP3    H228041   6.560   5.287   1.571  1.0283 -2.1481  0.7785
 2136TIP3   OH228042   2.002   1.976   9.205 -0.3162  0.4032  0.0356
 2136TIP3    H128043   1.922   1.947   9.248 -0.1068 -1.1166 -0.5379
 2136TIP3    H228044   1.991   1.951   9.113  0.2307  1.4609 -0.3380
 2137TIP3   OH228045   3.749   6.146   1.364  0.1159  0.4931  0.1034
 2137TIP3    H128046   3.763   6.143   1.459  2.9930 -0.6497 -0.2870
 2137TIP3    H228047   3.805   6.078   1.328  1.1421  2.5982 -2.6373
 2138TIP3   OH228048   1.035   0.276   1.036 -0.1968 -0.5208  0.2353
 2138TIP3    H128049   0.941   0.293   1.040 -0.2613 -1.0741  1.7560
 2138TIP3    H228050   1.075   0.362   1.024 -0.8017  0.0137  1.8669
 2139TIP3   OH228051   1.495   6.110   9.204  0.2583  0.2537  0.3937
 2139TIP3    H128052   1.502   6.200   9.172 -0.2810  0.3687  0.5868
 2139TIP3    H228053   1.436   6.116   9.280 -0.3073 -0.3577  0.0127
 2140TIP3   OH228054   0.162   1.372   8.572  0.3554  0.4667  0.1935
 2140TIP3    H128055   0.121   1.435   8.513  0.8239  0.9111  0.3341
 2140TIP3    H228056   0.117   1.289   8.554 -0.4624  0.9008  0.2145
 2141TIP3   OH228057   4.149   4.687   7.866  0.1361  0.9998  0.2809
 2141TIP3    H128058   4.142   4.775   7.902  1.1962  1.1094  0.2707
 2141TIP3    H228059   4.243   4.668   7.867  0.2326  0.9569 -2.2748
 2142TIP3   OH228060   6.210   3.159   0.123  0.3976 -0.0337 -0.1306
 2142TIP3    H128061   6.258   3.180   0.043  0.5788 -0.1642 -0.0552
 2142TIP3    H228062   6.184   3.244   0.159  0.2308  0.0230 -0.3785
 2143TIP3   OH228063   0.658   1.846   1.826  0.3436 -0.4239 -0.7799
 2143TIP3    H128064   0.684   1.754   1.827 -0.7122 -0.7404  0.6434
 2143TIP3    H228065   0.565   1.846   1.805  0.4546  0.3672 -1.3346
 2144TIP3   OH228066   2.072   3.940   8.630  0.0738  0.1798 -0.0276
 2144TIP3    H128067   2.086   3.864   8.687  0.7234 -0.9557 -1.6443
 2144TIP3    H228068   2.161   3.969   8.608 -0.1701  1.2791  0.3775
 2145TIP3   OH228069   5.936   5.445   9.174  0.5102  0.1340 -0.4092
 2145TIP3    H128070   5.891   5.485   9.100 -1.2295  0.9409  0.9980
 2145TIP3    H228071   5.912   5.499   9.249  1.5623 -1.1026  0.8864
 2146TIP3   OH228072   0.077   3.563   8.560 -0.3666 -0.0570 -0.0613
 2146TIP3    H128073  -0.004   3.559   8.509 -0.5946  0.7691  0.2324
 2146TIP3    H228074   0.146   3.547   8.495 -0.7546 -0.7879 -0.3100
 2147TIP3   OH228075   2.490   1.334   1.148  0.1056  0.0173 -0.6476
 2147TIP3    H128076   2.425   1.287   1.095  0.7147 -2.3339  0.5455
 2147TIP3    H228077   2.441   1.370   1.221  0.0019 -1.0855 -0.1609
 2148TIP3   OH228078   4.841   0.253   0.351  0.4379  0.5251  0.2760
 2148TIP3    H128079   4.907   0.316   0.322  0.3955  0.2872 -0.3614
 2148TIP3    H228080   4.758   0.290   0.321  0.2876  0.7614  0.9638
 2149TIP3   OH228081   5.810   3.406   9.195  0.0330 -0.3164  0.3161
 2149TIP3    H128082   5.853   3.376   9.275  1.0268 -0.9529 -0.4363
 2149TIP3    H228083   5.761   3.484   9.222  0.1696 -0.6509  1.5857
 2150TIP3   OH228084   5.593   0.471   7.622 -0.2604  0.1603  0.1647
 2150TIP3    H128085   5.527   0.520   7.672 -1.6921 -0.9928 -0.5249
 2150TIP3    H228086   5.592   0.384   7.661  1.7275  0.3895  0.8891
 2151TIP3   OH228087   1.071   3.837   1.679  0.7908 -0.3248 -0.0122
 2151TIP3    H128088   1.023   3.765   1.638  0.4750  0.2266 -0.6322
 2151TIP3    H228089   1.109   3.798   1.758  2.6936 -1.8373 -1.5648
 2152TIP3   OH228090   2.606   4.414   7.623 -0.0079  0.2119 -0.7030
 2152TIP3    H128091   2.611   4.354   7.698  0.8280  0.3357 -0.6494
 2152TIP3    H228092   2.530   4.384   7.574  0.2336 -0.7225 -0.5258
 2153TIP3   OH228093   3.398   6.159   1.126 -0.6470  0.2644 -0.0134
 2153TIP3    H128094   3.430   6.070   1.117 -2.2233 -0.2262 -1.0815
 2153TIP3    H228095   3.424   6.185   1.214  0.2423 -1.0618  0.1399
 2154TIP3   OH228096   2.135   4.724   1.137 -0.2781 -0.0277  0.3418
 2154TIP3    H128097   2.057   4.705   1.189 -2.6540  0.4629 -2.7332
 2154TIP3    H228098   2.112   4.803   1.087  1.8516 -0.3368 -1.2838
 2155TIP3   OH228099   1.627   4.386   8.132 -0.0652 -0.5487  0.9096
 2155TIP3    H128100   1.534   4.379   8.114 -0.1434 -1.7832  1.7086
 2155TIP3    H228101   1.663   4.300   8.108  0.6059 -0.6152  2.0785
 2156TIP3   OH228102   6.602   6.349   0.853  0.2843 -0.4472 -0.8861
 2156TIP3    H128103   6.507   6.353   0.842  0.2877  1.1587 -0.5714
 2156TIP3    H228104   6.627   6.437   0.879  1.9593 -0.6723 -1.6119
 2157TIP3   OH228105   2.669   6.210   7.991 -0.6315  0.4801 -0.6487
 2157TIP3    H128106   2.633   6.296   8.011 -0.8996  0.2699 -0.2415
 2157TIP3    H228107   2.631   6.187   7.906 -1.1329  0.4431 -0.4159
 2158TIP3   OH228108   1.143   2.475   0.305 -0.0750  0.4703  0.0281
 2158TIP3    H128109   1.170   2.461   0.214  2.4469 -0.7085  0.8835
 2158TIP3    H228110   1.096   2.395   0.329  1.4131 -0.2963  0.4674
 2159TIP3   OH228111   6.673   1.326   0.296 -0.3158 -0.0767  0.0386
 2159TIP3    H128112   6.715   1.398   0.247  0.1575 -0.2129  0.2335
 2159TIP3    H228113   6.615   1.370   0.358 -1.3615  0.0791 -1.0348
 2160TIP3   OH228114   4.350   1.474   8.762 -0.1012  0.3419  0.1398
 2160TIP3    H128115   4.354   1.454   8.669 -1.9045  1.0423 -0.1114
 2160TIP3    H228116   4.371   1.568   8.767 -0.2699  0.3650  0.4129
 2161TIP3   OH228117   0.563   1.925   8.230 -0.1339 -0.1134  0.0226
 2161TIP3    H128118   0.581   1.868   8.155 -1.9472  2.8158 -2.8985
 2161TIP3    H228119   0.467   1.930   8.234 -0.0538  2.4795  0.2528
 2162TIP3   OH228120   3.098   2.486   2.364  0.4303 -0.4763 -0.3038
 2162TIP3    H128121   3.017   2.489   2.416  1.0619  0.6801  0.6431
 2162TIP3    H228122   3.168   2.502   2.427  1.6263 -3.3227 -0.7412
 2163TIP3   OH228123   6.681   0.714   1.508 -0.0670 -0.3468 -0.0958
 2163TIP3    H128124   6.684   0.628   1.466 -0.4828 -0.2461 -0.3436
 2163TIP3    H228125   6.768   0.751   1.494 -0.3664 -0.0813 -1.3759
 2164TIP3   OH228126   5.882   2.416   8.813 -0.9078 -0.3196  0.2723
 2164TIP3    H128127   5.940   2.418   8.737 -0.4700 -2.6103  0.4589
 2164TIP3    H228128   5.822   2.489   8.799 -1.0986 -0.8821 -2.5001
 2165TIP3   OH228129   3.376   1.326   8.735  0.1685 -0.0094 -0.4930
 2165TIP3    H128130   3.472   1.328   8.727  0.1280  0.0386 -0.9488
 2165TIP3    H228131   3.344   1.370   8.657 -0.2336 -0.2963 -0.4912
 2166TIP3   OH228132   5.014   5.618   1.213  0.2683  0.5363  0.3897
 2166TIP3    H128133   5.048   5.645   1.127 -0.8661  2.5373  0.5089
 2166TIP3    H228134   5.090   5.582   1.258  1.0624  0.1408 -1.1749
 2167TIP3   OH228135   3.997   5.144   7.290  0.1244 -0.3086 -0.2125
 2167TIP3    H128136   3.969   5.059   7.323  0.4302 -0.9893 -1.6642
 2167TIP3    H228137   4.092   5.139   7.285  0.0815 -0.2822 -1.3190
 2168TIP3   OH228138   3.984   6.286   2.072 -0.2283 -0.2272  0.3687
 2168TIP3    H128139   3.921   6.228   2.114 -1.6508  1.0527  0.0969
 2168TIP3    H228140   4.023   6.336   2.143 -2.3695  1.6793  0.3388
 2169TIP3   OH228141   4.978   3.517   7.664 -0.3604 -0.0949  0.1316
 2169TIP3    H128142   5.055   3.531   7.608 -1.1174 -1.7269 -1.4340
 2169TIP3    H228143   4.910   3.573   7.627 -0.1561  0.8306  1.0989
 2170TIP3   OH228144   3.364   5.482   1.353  0.1874 -0.4901  0.0559
 2170TIP3    H128145   3.306   5.528   1.293 -0.9998 -0.3757  1.2303
 2170TIP3    H228146   3.444   5.467   1.303 -1.0910 -1.2920 -1.8583
 2171TIP3   OH228147   3.468   2.774   7.618  0.8193 -0.2232 -0.0784
 2171TIP3    H128148   3.549   2.744   7.577  1.1729 -1.8544  1.6584
 2171TIP3    H228149   3.440   2.700   7.672 -1.2821  0.6820  0.1682
 2172TIP3   OH228150   2.020   2.567   2.596  0.9875 -0.3236 -0.9386
 2172TIP3    H128151   2.091   2.506   2.576  0.2934 -0.9740 -1.4770
 2172TIP3    H228152   1.959   2.516   2.650  0.5344 -0.0231 -1.1633
 2173TIP3   OH228153   5.109   1.768   8.688  0.0221  0.2242 -0.2633
 2173TIP3    H128154   5.183   1.725   8.730  0.2733  0.4960 -0.4232
 2173TIP3    H228155   5.047   1.697   8.670  0.3783 -0.0519 -0.4159
 2174TIP3   OH228156   3.945   4.170   2.573  0.8022  0.1901  0.6362
 2174TIP3    H128157   4.017   4.112   2.550  0.1965 -0.3512  0.0598
 2174TIP3    H228158   3.987   4.244   2.617  1.7328 -0.0015  0.0996
 2175TIP3   OH228159   1.859   2.822   2.805  0.5611  0.2594 -0.0550
 2175TIP3    H128160   1.811   2.776   2.875 -0.7707  1.1552 -0.3293
 2175TIP3    H228161   1.803   2.812   2.728  0.4569  1.9048 -0.2293
 2176TIP3   OH228162   0.595   1.122   8.951 -0.3191  0.8226  0.4295
 2176TIP3    H128163   0.630   1.204   8.915  0.2775  0.6547  0.6191
 2176TIP3    H228164   0.672   1.067   8.966 -0.6054  0.6856  1.4735
 2177TIP3   OH228165   1.160   1.123   1.443 -0.0589  0.0842 -0.2513
 2177TIP3    H128166   1.170   1.176   1.365  0.0828 -0.8745 -0.8970
 2177TIP3    H228167   1.070   1.089   1.438 -0.7540  1.6020  1.0322
 2178TIP3   OH228168   6.015   6.054   8.031  0.7005 -0.8647 -0.4707
 2178TIP3    H128169   6.073   6.082   7.960  0.9677  0.8672  0.3983
 2178TIP3    H228170   6.062   6.074   8.111 -0.1311 -1.6174  0.2370
 2179TIP3   OH228171   1.650   5.922   9.083 -0.5025  0.2253  0.0610
 2179TIP3    H128172   1.712   5.858   9.117 -0.9202 -1.0663 -1.4422
 2179TIP3    H228173   1.589   5.938   9.155  1.2372  1.1537  1.4020
 2180TIP3   OH228174   1.044   0.808   7.836 -0.0169  0.3280  0.1311
 2180TIP3    H128175   1.024   0.775   7.924  3.0658 -0.9910  0.4591
 2180TIP3    H228176   0.972   0.777   7.782 -1.0945 -0.3643  1.8773
 2181TIP3   OH228177   5.784   6.321   1.319 -0.4812  0.1295  0.0308
 2181TIP3    H128178   5.697   6.304   1.281  0.0807 -1.1415 -0.7445
 2181TIP3    H228179   5.841   6.334   1.243  0.1330  0.3375  0.5187
 2182TIP3   OH228180   4.419   4.369   0.028 -0.6082 -0.1517  0.0824
 2182TIP3    H128181   4.462   4.452   0.049  0.3508 -0.5934 -0.0624
 2182TIP3    H228182   4.356   4.392  -0.040 -0.9865  0.6046  0.6694
 2183TIP3   OH228183   6.398   4.412   6.757 -0.4562 -0.1292  0.2911
 2183TIP3    H128184   6.439   4.486   6.801  0.2598 -0.3166 -0.0460
 2183TIP3    H228185   6.355   4.363   6.827  0.6378 -0.4010  0.7961
 2184TIP3   OH228186   0.848   5.963   7.372 -0.0244  0.5433  0.4812
 2184TIP3    H128187   0.880   6.013   7.297 -0.1523  0.3136  0.2715
 2184TIP3    H228188   0.874   5.873   7.354 -1.0747  0.2885  0.1286
 2185TIP3   OH228189   4.970   0.118   0.840  0.6089  0.7290  0.8132
 2185TIP3    H128190   4.896   0.060   0.821  0.0767  1.0120  1.8991
 2185TIP3    H228191   4.932   0.206   0.842  0.7634  0.7980  2.2466
 2186TIP3   OH228192   1.606   0.673   0.707 -0.1435 -0.5421  0.7628
 2186TIP3    H128193   1.553   0.749   0.681  0.6518  0.2056  1.2506
 2186TIP3    H228194   1.696   0.704   0.701  0.2847 -1.9405 -0.5324
 2187TIP3   OH228195   6.348   0.619   1.337  0.3405 -0.7396  0.4399
 2187TIP3    H128196   6.426   0.565   1.323  0.6262 -0.1126 -0.5279
 2187TIP3    H228197   6.282   0.581   1.280  0.0622 -1.0119  0.9396
 2188TIP3   OH228198   1.253   6.482   8.758  0.4818  0.6465  0.3378
 2188TIP3    H128199   1.199   6.539   8.813 -1.9089 -0.5713 -0.5854
 2188TIP3    H228200   1.231   6.394   8.787  0.3342  0.0387 -1.4801
 2189TIP3   OH228201   5.663   5.741   7.714  0.2769 -0.4860  0.6317
 2189TIP3    H128202   5.629   5.830   7.713 -1.1667 -0.9972  1.0705
 2189TIP3    H228203   5.745   5.746   7.665 -0.4609  0.8206 -0.5529
 2190TIP3   OH228204   2.385   4.717   7.261 -0.4485 -0.2831  0.0579
 2190TIP3    H128205   2.455   4.661   7.226  0.1285 -0.2794  1.1677
 2190TIP3    H228206   2.341   4.752   7.183  0.0772 -1.1641 -0.6545
 2191TIP3   OH228207   5.265   3.690   1.075 -0.2380 -0.0211 -0.2997
 2191TIP3    H128208   5.241   3.775   1.039 -0.0858  0.6339  1.0596
 2191TIP3    H228209   5.193   3.667   1.134  0.9817  0.5422  1.5022
 2192TIP3   OH228210   4.399   5.186   2.881  0.5139 -0.2152  0.1390
 2192TIP3    H128211   4.457   5.128   2.931  0.3684 -0.1227  0.4110
 2192TIP3    H228212   4.454   5.215   2.808  1.0670  0.4889  0.8160
 2193TIP3   OH228213   5.340   3.186   7.673  0.0047 -0.0669 -0.0108
 2193TIP3    H128214   5.326   3.240   7.596 -2.4064 -0.1232  0.3126
 2193TIP3    H228215   5.344   3.097   7.639  1.2226  0.0691 -0.2654
 2194TIP3   OH228216   5.791   5.547   1.746  0.1404 -0.4557 -0.1206
 2194TIP3    H128217   5.771   5.547   1.653  1.9796  0.0533 -0.5598
 2194TIP3    H228218   5.729   5.485   1.785 -1.3820  0.1433 -1.4866
 2195TIP3   OH228219   4.313   0.546   7.291  0.0704 -0.2994  0.5573
 2195TIP3    H128220   4.353   0.575   7.372  0.2768  0.5063  0.1816
 2195TIP3    H228221   4.229   0.508   7.317 -0.6141  1.4621  0.9994
 2196TIP3   OH228222   0.139   5.706   0.772 -0.1099  0.0413  0.2461
 2196TIP3    H128223   0.113   5.621   0.806 -1.6390  0.3090 -0.1641
 2196TIP3    H228224   0.108   5.769   0.838  2.2023  0.2533  1.2234
 2197TIP3   OH228225   3.649   0.297   1.369  0.1944 -0.1179 -0.5707
 2197TIP3    H128226   3.574   0.239   1.353  0.1201  0.0298 -0.7590
 2197TIP3    H228227   3.660   0.296   1.464  1.2826 -1.8246 -0.6556
 2198TIP3   OH228228   3.796   3.189   3.285 -0.1697  0.0955  0.3235
 2198TIP3    H128229   3.846   3.187   3.204 -0.7496  1.4497 -0.0952
 2198TIP3    H228230   3.716   3.141   3.266 -0.4940  0.7752 -0.0511
 2199TIP3   OH228231   1.080   6.368   6.994  0.2528 -0.3001  0.3118
 2199TIP3    H128232   1.146   6.300   7.008  2.0725  1.2368 -0.5135
 2199TIP3    H228233   1.093   6.397   6.904 -1.1199  0.5108  0.3413
 2200TIP3   OH228234   4.403   6.431   9.037 -0.0011  0.1114 -0.1214
 2200TIP3    H128235   4.377   6.504   8.981  2.1621  0.3011 -0.9845
 2200TIP3    H228236   4.386   6.353   8.984 -1.9082 -0.0265  0.6354
 2201TIP3   OH228237   4.898   0.318   1.497 -0.3575  0.1778 -0.0937
 2201TIP3    H128238   4.902   0.232   1.457  0.5176 -0.2697  0.9079
 2201TIP3    H228239   4.902   0.301   1.591 -0.6529  1.2829  0.1395
 2202TIP3   OH228240   3.797   0.648   8.314 -0.2533 -0.1408  0.0692
 2202TIP3    H128241   3.730   0.712   8.290 -0.3195  1.0926  3.1344
 2202TIP3    H228242   3.747   0.570   8.340 -0.2930 -0.4122 -0.7668
 2203TIP3   OH228243   0.963   0.918   2.651  0.0963  0.0844 -1.0316
 2203TIP3    H128244   0.955   0.823   2.650  0.2523 -0.0269  1.7824
 2203TIP3    H228245   0.873   0.950   2.657  0.1415 -0.0326  0.7151
 2204TIP3   OH228246   3.827   3.001   2.216  0.3465  0.2470  0.4153
 2204TIP3    H128247   3.875   2.924   2.247 -0.6610  0.0032  1.4972
 2204TIP3    H228248   3.749   3.003   2.272 -0.2034  1.4062 -0.3639
 2205TIP3   OH228249   6.683   4.986   1.459 -0.0447  0.3155  0.0459
 2205TIP3    H128250   6.636   5.067   1.440  0.2946  1.0931  2.1784
 2205TIP3    H228251   6.748   5.011   1.525  0.2111 -1.6436  0.6015
 2206TIP3   OH228252   2.564   5.906   8.858  0.0048 -0.1569  0.2930
 2206TIP3    H128253   2.480   5.875   8.891 -0.3742 -1.4873 -1.7736
 2206TIP3    H228254   2.574   5.864   8.773  2.2821  0.8129  0.0038
 2207TIP3   OH228255   0.388   2.308   0.736  0.3129 -0.0584  0.2544
 2207TIP3    H128256   0.458   2.258   0.695  1.2376  0.9610  0.5451
 2207TIP3    H228257   0.354   2.365   0.666 -0.0668 -0.3685  0.1802
 2208TIP3   OH228258   2.743   2.300   0.253 -0.0629  0.4915 -0.4832
 2208TIP3    H128259   2.696   2.290   0.336  1.2602 -0.3259  0.2179
 2208TIP3    H228260   2.713   2.227   0.199 -0.9605  1.0504 -0.7499
 2209TIP3   OH228261   0.888   4.606   8.928  0.0607 -0.2724  0.2764
 2209TIP3    H128262   0.888   4.672   8.997 -1.6169  0.1546 -0.0936
 2209TIP3    H228263   0.819   4.634   8.868 -1.0471 -2.6058  0.3445
 2210TIP3   OH228264   5.223   6.127   7.003 -0.3425  0.1853  0.7404
 2210TIP3    H128265   5.199   6.082   6.921  0.5291  1.0108  0.0086
 2210TIP3    H228266   5.222   6.057   7.069  1.1244 -0.9859 -0.3933
 2211TIP3   OH228267   4.041   3.031   0.951  0.2222  0.1623  0.1533
 2211TIP3    H128268   4.102   3.017   0.879  0.1512  1.8628 -0.2776
 2211TIP3    H228269   4.077   2.980   1.024  1.0050 -0.5139 -0.6868
 2212TIP3   OH228270   4.809   2.497   2.646 -0.1163  0.0229 -0.1770
 2212TIP3    H128271   4.732   2.467   2.695 -0.8502  1.7406 -0.2126
 2212TIP3    H228272   4.882   2.451   2.687 -0.7506  1.0652  2.2845
 2213TIP3   OH228273   0.807   5.068   1.888  0.0410  0.4500  0.1724
 2213TIP3    H128274   0.889   5.067   1.838  1.3184 -0.6964  2.1753
 2213TIP3    H228275   0.765   4.985   1.866 -1.2086  1.4688 -1.6623
 2214TIP3   OH228276   3.115   1.396   0.942 -0.1735  0.0609  0.7074
 2214TIP3    H128277   3.149   1.343   0.870 -1.1464  0.2589  0.0825
 2214TIP3    H228278   3.119   1.486   0.910 -1.0054  0.1131  0.7322
 2215TIP3   OH228279   1.507   0.291   1.527 -0.2097  0.3613  0.1638
 2215TIP3    H128280   1.570   0.311   1.458 -0.0980  3.7987  1.0798
 2215TIP3    H228281   1.422   0.292   1.482  0.0619 -0.1979 -0.3765
 2216TIP3   OH228282   5.307   4.162   0.730 -0.9834  0.1029 -0.4467
 2216TIP3    H128283   5.223   4.206   0.718 -1.0233  0.4524  0.8978
 2216TIP3    H228284   5.304   4.128   0.820  1.0547  1.8857  0.3987
 2217TIP3   OH228285   6.327   0.412   0.955  0.1871 -0.3414  0.0707
 2217TIP3    H128286   6.275   0.454   0.886  0.7042  1.3767  0.6615
 2217TIP3    H228287   6.326   0.319   0.934 -0.2343  0.0685 -1.8616
 2218TIP3   OH228288   6.529   0.478   3.206 -0.1859  0.1227  0.3148
 2218TIP3    H128289   6.483   0.413   3.153  0.1700  1.1194 -1.2982
 2218TIP3    H228290   6.461   0.540   3.233 -0.5152 -0.8507  1.8020
 2219TIP3   OH228291   3.563   0.240   0.975  0.3625  0.0626 -0.8201
 2219TIP3    H128292   3.468   0.242   0.974  0.1917 -2.6053  0.1960
 2219TIP3    H228293   3.590   0.331   0.980 -2.1840  0.8246  0.2013
 2220TIP3   OH228294   0.313   5.561   2.477  0.0550 -0.0647  0.4313
 2220TIP3    H128295   0.261   5.525   2.549  0.3012  0.6508  0.9820
 2220TIP3    H228296   0.253   5.619   2.430  0.4785  1.1941  1.3983
 2221TIP3   OH228297   2.716   6.526   7.719  0.0707 -0.3790  0.0058
 2221TIP3    H128298   2.765   6.471   7.657 -0.5519 -0.9387 -0.0015
 2221TIP3    H228299   2.713   6.612   7.677  0.7443 -0.4301 -0.1529
 2222TIP3   OH228300   3.143   2.825   1.209 -0.4080 -0.4827  1.2143
 2222TIP3    H128301   3.160   2.887   1.280 -1.3353  1.9630 -0.5624
 2222TIP3    H228302   3.216   2.836   1.149 -1.3579  0.1244  0.1194
 2223TIP3   OH228303   5.531   6.509   7.228  0.5708 -0.1429  0.4168
 2223TIP3    H128304   5.589   6.438   7.256 -0.3107 -0.7133  0.8580
 2223TIP3    H228305   5.457   6.464   7.187 -0.4204  0.4569  1.4906
 2224TIP3   OH228306   2.651   0.385   1.767  0.0300  0.4586  0.3552
 2224TIP3    H128307   2.596   0.428   1.832  0.7452  0.7800  0.7560
 2224TIP3    H228308   2.590   0.335   1.713 -0.5326 -0.3271  1.6524
 2225TIP3   OH228309   0.217   1.193   2.239  0.4243  0.1410  0.2184
 2225TIP3    H128310   0.255   1.123   2.186 -3.3108 -0.7828 -1.6450
 2225TIP3    H228311   0.191   1.150   2.320  0.9645  0.1552  0.4030
 2226TIP3   OH228312   2.712   1.153   3.255  0.2307  0.3539 -0.1085
 2226TIP3    H128313   2.692   1.068   3.293  0.0932 -0.3740 -1.7334
 2226TIP3    H228314   2.628   1.188   3.228  0.4335  0.3235 -0.8022
 2227TIP3   OH228315   0.565   2.528   7.897  0.0154  0.2658  0.2241
 2227TIP3    H128316   0.601   2.617   7.887 -1.6622  1.0018  0.3782
 2227TIP3    H228317   0.528   2.528   7.985  0.5564 -0.8266  0.4640
 2228TIP3   OH228318   5.353   1.073   1.879  0.1921 -0.5178 -0.2984
 2228TIP3    H128319   5.336   1.147   1.937  0.2656 -1.9675  1.6865
 2228TIP3    H228320   5.282   1.076   1.814 -1.0600  0.0512  1.0537
 2229TIP3   OH228321   6.284   0.676   8.074 -0.2279  0.1669  0.2883
 2229TIP3    H128322   6.281   0.713   8.162  1.1353  0.1021  0.3940
 2229TIP3    H228323   6.338   0.737   8.024 -2.5927  1.2686 -1.0873
 2230TIP3   OH228324   4.310   5.435   8.589  0.2655  0.5985  0.6246
 2230TIP3    H128325   4.222   5.450   8.626 -0.3308  1.2477 -0.9542
 2230TIP3    H228326   4.354   5.520   8.598  0.6934  0.3063  1.3051
 2231TIP3   OH228327   5.789   4.546   7.466  0.3558  0.2498 -0.4938
 2231TIP3    H128328   5.743   4.518   7.387 -2.3146  1.1852  0.6464
 2231TIP3    H228329   5.837   4.624   7.440 -3.5038  2.8660 -0.4937
 2232TIP3   OH228330   6.057   2.545   8.207 -0.3758  0.3498  0.2419
 2232TIP3    H128331   5.964   2.523   8.206  0.0866 -1.9652  0.7705
 2232TIP3    H228332   6.073   2.580   8.294 -0.6691  0.2638  0.3314
 2233TIP3   OH228333   5.726   5.343   1.115  0.8896  0.4728 -0.2941
 2233TIP3    H128334   5.772   5.286   1.176 -0.2973  0.1995  0.3801
 2233TIP3    H228335   5.773   5.426   1.119  1.5159  0.1036  0.1184
 2234TIP3   OH228336   2.576   6.549   0.612 -0.2771  0.0437  0.0268
 2234TIP3    H128337   2.499   6.604   0.623 -0.2326  0.1981 -0.4226
 2234TIP3    H228338   2.588   6.543   0.517 -1.1247 -1.9008 -0.0008
 2235TIP3   OH228339   2.934   5.922   8.824 -0.3551  0.0904 -0.0554
 2235TIP3    H128340   2.951   5.831   8.799  0.5667  0.2534 -0.0485
 2235TIP3    H228341   2.933   5.969   8.741  0.8379  0.3313  0.0501
 2236TIP3   OH228342   0.097   5.098   0.072 -0.9526 -0.3051 -0.2314
 2236TIP3    H128343   0.083   5.173   0.130 -1.0049  0.8813 -1.7395
 2236TIP3    H228344   0.188   5.073   0.087 -1.4546 -1.1980  1.6712
 2237TIP3   OH228345   5.332   5.827   1.996 -0.3296 -0.1253  0.1501
 2237TIP3    H128346   5.385   5.812   1.918  0.7237  0.9617  0.6050
 2237TIP3    H228347   5.275   5.751   2.003  0.8143 -1.0890 -0.6812
 2238TIP3   OH228348   2.633   5.600   0.603 -0.1022 -0.6968  0.3811
 2238TIP3    H128349   2.645   5.693   0.586  3.0577 -0.7892  1.4098
 2238TIP3    H228350   2.545   5.594   0.642 -1.2174  1.4911 -1.5344
 2239TIP3   OH228351   0.316   0.256   8.616 -0.0178 -0.3209 -0.2376
 2239TIP3    H128352   0.292   0.244   8.524 -2.0390  0.6088  0.1223
 2239TIP3    H228353   0.351   0.346   8.620  2.3273 -1.1450 -0.4679
 2240TIP3   OH228354   1.271   4.925   0.011 -0.0124 -0.4292 -0.0264
 2240TIP3    H128355   1.248   4.861   0.078 -2.3020  0.3017 -0.0518
 2240TIP3    H228356   1.243   4.886  -0.071  3.2734 -1.5647 -0.7797
 2241TIP3   OH228357   3.651   1.954   1.485 -0.1096  0.3590 -0.5283
 2241TIP3    H128358   3.607   1.917   1.408 -1.1666  1.0495 -0.2649
 2241TIP3    H228359   3.744   1.951   1.462 -0.3939  0.3644 -1.7559
 2242TIP3   OH228360   3.900   1.817   2.880 -0.0217 -0.1542  0.5221
 2242TIP3    H128361   3.879   1.842   2.970 -1.3271  2.3787 -0.3634
 2242TIP3    H228362   3.820   1.776   2.847 -0.1604  0.4738  0.0506
 2243TIP3   OH228363   4.183   2.722   7.473  0.4465  0.5626 -0.4251
 2243TIP3    H128364   4.189   2.787   7.543  0.3189 -0.2901  0.4016
 2243TIP3    H228365   4.089   2.717   7.454  0.6465  2.1480 -1.9896
 2244TIP3   OH228366   3.122   1.801   8.315 -0.2443  1.0448  0.5035
 2244TIP3    H128367   3.043   1.766   8.357 -0.9212  3.7665  1.7090
 2244TIP3    H228368   3.191   1.785   8.379 -0.2687  0.7502  0.4601
 2245TIP3   OH228369   2.165   2.177   7.791 -0.7688  0.4607  0.1852
 2245TIP3    H128370   2.207   2.208   7.711 -1.7379 -0.0693 -0.5452
 2245TIP3    H228371   2.105   2.108   7.762 -1.6563  0.7468  1.2811
 2246TIP3   OH228372   3.524   4.049   1.768 -0.5124  0.0815 -0.0645
 2246TIP3    H128373   3.450   4.057   1.828 -2.1306  0.8623 -2.0484
 2246TIP3    H228374   3.492   4.086   1.686  1.7478 -0.5592 -1.3070
 2247TIP3   OH228375   0.008   2.100   7.732  0.3273  0.4906  0.4226
 2247TIP3    H128376  -0.021   2.185   7.766 -0.3644  0.3199  0.2831
 2247TIP3    H228377   0.033   2.119   7.641  0.2048  0.5534  0.4013
 2248TIP3   OH228378   4.593   1.978   0.815  0.0053 -0.3693 -0.1079
 2248TIP3    H128379   4.537   2.055   0.821 -0.3858 -0.5341 -1.3845
 2248TIP3    H228380   4.573   1.927   0.893  0.1596  0.7347  0.6793
 2249TIP3   OH228381   5.502   2.008   1.989 -0.0916  0.2101  0.1733
 2249TIP3    H128382   5.592   1.984   2.011  0.3313 -1.1241 -2.5334
 2249TIP3    H228383   5.505   2.101   1.968  1.4428 -0.4382 -2.9495
 2250TIP3   OH228384   4.012   2.497   2.240 -0.9359 -0.2734  0.2831
 2250TIP3    H128385   3.933   2.448   2.217 -0.3847 -1.2967  0.5104
 2250TIP3    H228386   4.084   2.441   2.212 -0.2792 -0.3765  2.0699
 2251TIP3   OH228387   6.177   5.336   8.670 -0.1367  0.0880  0.5292
 2251TIP3    H128388   6.116   5.280   8.719  2.1123 -1.8705  1.2670
 2251TIP3    H228389   6.150   5.425   8.692 -1.1485 -0.7213  2.9151
 2252TIP3   OH228390   5.645   1.860   8.232  0.0731 -0.4181 -0.7229
 2252TIP3    H128391   5.628   1.892   8.320 -3.4861 -3.1687 -0.2011
 2252TIP3    H228392   5.704   1.786   8.245  1.1416  0.3675 -0.9453
 2253TIP3   OH228393   0.502   0.709   0.843 -0.6324 -0.1034  0.3380
 2253TIP3    H128394   0.425   0.712   0.785 -1.1941  1.4683  1.1015
 2253TIP3    H228395   0.576   0.725   0.785 -1.0042 -0.3868 -0.2266
 2254TIP3   OH228396   4.424   5.193   8.086  0.1682  0.2161  0.2153
 2254TIP3    H128397   4.343   5.141   8.090  0.0442  0.4471  0.8604
 2254TIP3    H228398   4.479   5.158   8.155  0.8839 -0.3504 -0.6257
 2255TIP3   OH228399   1.246   4.362   1.743  0.4540  0.3891 -0.1152
 2255TIP3    H128400   1.185   4.289   1.732  0.9148 -0.0243  0.0181
 2255TIP3    H228401   1.273   4.385   1.654  0.2088  0.4824 -0.1656
 2256TIP3   OH228402   5.911   4.923   2.133  0.0577  0.0438  0.2496
 2256TIP3    H128403   5.828   4.936   2.087  0.4177 -1.5943 -0.9562
 2256TIP3    H228404   5.900   4.840   2.179  2.0443 -1.9979 -2.5887
 2257TIP3   OH228405   6.331   1.157   0.002  0.0815 -0.2885 -0.1109
 2257TIP3    H128406   6.388   1.229  -0.024  0.9001 -0.8659  0.0281
 2257TIP3    H228407   6.285   1.189   0.080 -1.8925  1.2059 -1.8035
 2258TIP3   OH228408   4.114   0.628   1.803 -0.2253 -0.1973  0.5306
 2258TIP3    H128409   4.035   0.575   1.801  0.3155 -1.0516  1.3906
 2258TIP3    H228410   4.123   0.655   1.894  0.6686 -0.4219  0.5175
 2259TIP3   OH228411   2.707   0.628   1.604 -0.4446 -0.0147 -0.4819
 2259TIP3    H128412   2.650   0.589   1.670  1.0057 -2.5798 -0.6044
 2259TIP3    H228413   2.738   0.553   1.552 -0.1917  1.7105 -3.0120
 2260TIP3   OH228414   6.162   6.282   7.395 -1.1654  0.2635  0.3569
 2260TIP3    H128415   6.114   6.349   7.444 -1.0714  1.2232 -0.7919
 2260TIP3    H228416   6.223   6.332   7.341  1.6717 -0.9232  2.2489
 2261TIP3   OH228417   2.327   2.752   0.647 -0.4036 -0.4119 -0.3595
 2261TIP3    H128418   2.241   2.720   0.621 -1.3355  0.1799  1.7039
 2261TIP3    H228419   2.308   2.832   0.698  1.1813 -1.2016  1.6397
 2262TIP3   OH228420   3.563   0.582   1.579 -0.4608  0.0254 -0.0853
 2262TIP3    H128421   3.541   0.556   1.668 -0.4269 -0.3275 -0.1779
 2262TIP3    H228422   3.533   0.673   1.572 -2.0385 -0.4760 -0.2642
 2263TIP3   OH228423   1.174   5.268   1.024  0.1875  0.2185  0.0814
 2263TIP3    H128424   1.220   5.203   1.077  0.9063  0.3101 -0.4133
 2263TIP3    H228425   1.239   5.296   0.959  0.4308  2.5569  1.2306
 2264TIP3   OH228426   4.910   3.949   1.624  0.6764  0.3033  0.0877
 2264TIP3    H128427   4.932   3.868   1.669  0.7207 -0.0136 -0.4894
 2264TIP3    H228428   4.843   3.990   1.678  1.2304  0.2841  0.8076
 2265TIP3   OH228429   2.555   5.807   8.606 -0.6281  0.2802 -0.3653
 2265TIP3    H128430   2.598   5.743   8.550 -1.2152  0.0876 -0.5992
 2265TIP3    H228431   2.537   5.881   8.549 -2.1905 -0.3302 -0.7275
 2266TIP3   OH228432   1.986   2.115   0.513  0.6111  0.1499  0.2191
 2266TIP3    H128433   1.956   2.025   0.501 -0.1143  0.5901 -1.6603
 2266TIP3    H228434   2.075   2.115   0.477  0.4418  0.2706 -0.2076
 2267TIP3   OH228435   0.455   3.957   0.229 -0.2012 -0.5793 -0.4609
 2267TIP3    H128436   0.416   3.905   0.299  1.6611 -2.5968 -0.8212
 2267TIP3    H228437   0.529   4.002   0.270 -0.6353  0.3088 -0.6036
 2268TIP3   OH228438   4.569   4.935   0.747  0.0378 -0.0218 -0.0574
 2268TIP3    H128439   4.543   4.871   0.682 -2.6156  1.2562 -0.3786
 2268TIP3    H228440   4.489   4.983   0.767  1.2849  1.2424  2.3579
 2269TIP3   OH228441   4.370   1.110   8.901 -0.4684 -0.2035 -0.3432
 2269TIP3    H128442   4.431   1.166   8.949  0.5071 -0.6104 -1.0736
 2269TIP3    H228443   4.317   1.171   8.849  0.4254  0.0658 -0.9546
 2270TIP3   OH228444   2.498   6.489   7.177 -0.0660 -0.1666 -0.4167
 2270TIP3    H128445   2.453   6.499   7.093  1.2424 -0.0664 -1.1348
 2270TIP3    H228446   2.506   6.578   7.210 -1.5037 -0.2911  0.3473
 2271TIP3   OH228447   3.439   5.614   1.834  0.4641  0.2889  0.4717
 2271TIP3    H128448   3.445   5.607   1.739  1.8450  0.6180  0.5222
 2271TIP3    H228449   3.358   5.566   1.856  0.9977 -1.2348 -0.7041
 2272TIP3   OH228450   1.044   2.993   0.725  0.4897 -0.3431  0.0924
 2272TIP3    H128451   1.022   2.924   0.787  0.2560 -0.4330 -0.0905
 2272TIP3    H228452   1.088   3.060   0.778  2.3261 -1.3952 -0.0278
 2273TIP3   OH228453   0.938   5.292   0.086  0.4439  0.0811  0.0596
 2273TIP3    H128454   0.943   5.249   0.172  2.8021  1.5503  0.7487
 2273TIP3    H228455   0.907   5.381   0.106 -0.5306 -0.0350 -0.8481
 2274TIP3   OH228456   6.416   0.189   0.608 -0.6124  0.2119  1.3099
 2274TIP3    H128457   6.367   0.142   0.676 -0.1738 -0.5784  1.0879
 2274TIP3    H228458   6.478   0.124   0.574  1.1981  1.4274  2.1691
 2275TIP3   OH228459   3.784   2.506   0.614  0.4607 -0.5801  0.3938
 2275TIP3    H128460   3.857   2.526   0.673  1.2586 -1.7259 -0.1665
 2275TIP3    H228461   3.762   2.415   0.634 -0.3415 -0.4637  0.0496
 2276TIP3   OH228462   1.615   1.036   8.847  0.1824  0.0224  0.2560
 2276TIP3    H128463   1.599   1.043   8.941 -1.0813 -2.6112  0.3234
 2276TIP3    H228464   1.536   1.069   8.806 -0.1020 -0.7169  0.1963
 2277TIP3   OH228465   5.453   2.537   0.788  0.4420 -0.4035 -0.3189
 2277TIP3    H128466   5.479   2.566   0.875 -0.2945  2.4223 -0.9552
 2277TIP3    H228467   5.488   2.604   0.729 -1.0162 -1.0393 -1.9800
 2278TIP3   OH228468   1.964   5.622   1.520 -0.2077  0.0973 -0.4039
 2278TIP3    H128469   1.883   5.581   1.550  1.1098 -2.1122  0.3974
 2278TIP3    H228470   1.957   5.622   1.425 -0.3304 -2.0690 -0.4548
 2279TIP3   OH228471   0.609   4.047   8.224  0.3782 -0.0792  0.0551
 2279TIP3    H128472   0.609   3.979   8.157 -0.4054 -0.2017  0.1647
 2279TIP3    H228473   0.606   4.129   8.175  0.5372 -0.1450 -0.0651
 2280TIP3   OH228474   6.245   0.107   2.124  0.1026  0.0991 -0.2664
 2280TIP3    H128475   6.273   0.170   2.192  0.3485  0.4840 -0.7183
 2280TIP3    H228476   6.153   0.092   2.143  0.4594 -0.7466  0.9031
 2281TIP3   OH228477   3.004   3.795   8.587 -0.0990 -0.6291  0.0202
 2281TIP3    H128478   2.989   3.744   8.508 -0.1159 -1.3736  0.4918
 2281TIP3    H228479   2.987   3.734   8.659 -1.5922  0.4415  0.6316
 2282TIP3   OH228480   5.405   2.812   8.562  0.5108 -0.0169  0.3160
 2282TIP3    H128481   5.480   2.839   8.509  2.6988 -1.4942  2.4072
 2282TIP3    H228482   5.379   2.891   8.608 -0.0554  0.7892 -1.3052
 2283TIP3   OH228483   1.547   4.088   1.390  0.3742 -0.6237 -0.2864
 2283TIP3    H128484   1.606   4.025   1.431 -0.5572 -1.3391  0.0022
 2283TIP3    H228485   1.477   4.100   1.454 -0.6729 -1.1026 -1.3033
 2284TIP3   OH228486   3.081   5.850   0.576  0.2301  1.2103 -0.2408
 2284TIP3    H128487   3.021   5.921   0.600  0.0065  0.9071  0.1065
 2284TIP3    H228488   3.167   5.890   0.577  0.1517  1.3694  0.3967
 2285TIP3   OH228489   2.711   4.818   8.947  0.2825  0.0587  0.4324
 2285TIP3    H128490   2.685   4.832   9.037  1.7774  0.3994  0.8369
 2285TIP3    H228491   2.647   4.867   8.895  0.1704  0.9227  1.3706
 2286TIP3   OH228492   3.593   0.394   2.581 -0.3932 -0.4776 -0.1037
 2286TIP3    H128493   3.536   0.359   2.513  0.0185 -1.9726  0.2832
 2286TIP3    H228494   3.543   0.384   2.662 -0.2161 -0.2717  0.0347
 2287TIP3   OH228495   5.568   0.217   1.810 -0.0194 -0.3955  0.4483
 2287TIP3    H128496   5.567   0.131   1.851 -1.1234  0.0828  1.4730
 2287TIP3    H228497   5.612   0.203   1.726  1.3777 -1.6022  1.3300
 2288TIP3   OH228498   4.115   3.355   2.002 -0.3714  0.1405  0.7589
 2288TIP3    H128499   4.056   3.279   2.003 -0.4036  0.1361 -0.3012
 2288TIP3    H228500   4.092   3.402   1.921  0.3122  0.7494  0.9100
 2289TIP3   OH228501   2.333   3.709   2.012  0.3123 -0.1061  0.1649
 2289TIP3    H128502   2.238   3.715   2.021  0.4152  1.4366  0.4289
 2289TIP3    H228503   2.346   3.671   1.925 -0.5322  0.0012 -0.0195
 2290TIP3   OH228504   4.384   0.084   9.186 -0.7286 -0.1023  0.4048
 2290TIP3    H128505   4.307   0.045   9.145 -0.9597  0.7183  0.0600
 2290TIP3    H228506   4.376   0.060   9.279 -0.9497 -0.7326  0.2285
 2291TIP3   OH228507   2.830   2.737   1.881  0.1059  0.0211 -0.3998
 2291TIP3    H128508   2.879   2.678   1.938  0.7226 -1.0936 -2.0180
 2291TIP3    H228509   2.884   2.816   1.876 -0.0641  0.2262  0.6964
 2292TIP3   OH228510   6.162   2.113   8.903 -0.1755  0.3561  0.1569
 2292TIP3    H128511   6.087   2.098   8.962 -0.2174 -1.1466 -0.2209
 2292TIP3    H228512   6.148   2.051   8.831  1.3187  0.2094 -0.0392
 2293TIP3   OH228513   1.156   5.192   1.564  0.7377 -0.6377  0.3677
 2293TIP3    H128514   1.181   5.284   1.556 -0.6018 -0.3244 -0.5418
 2293TIP3    H228515   1.063   5.194   1.587  0.6066 -1.7621  0.0027
 2294TIP3   OH228516   2.946   2.635   0.797 -0.0988 -0.1567 -0.0901
 2294TIP3    H128517   2.976   2.686   0.722  0.0155 -1.3593 -0.8987
 2294TIP3    H228518   3.023   2.628   0.853  0.2968 -0.6036 -0.6618
 2295TIP3   OH228519   5.125   2.036   7.143 -0.5857  0.0672 -0.4185
 2295TIP3    H128520   5.043   2.084   7.156 -0.0661  0.9210 -0.2249
 2295TIP3    H228521   5.188   2.102   7.116  0.0204 -0.6015 -0.6899
 2296TIP3   OH228522   0.971   3.966   8.235  0.1396  0.0511  0.0629
 2296TIP3    H128523   0.947   3.898   8.172  1.1211 -1.7647  1.5507
 2296TIP3    H228524   0.929   4.046   8.202 -1.5610 -1.3901 -1.4206
 2297TIP3   OH228525   0.282   4.658   2.085  0.1759  0.4075  0.4693
 2297TIP3    H128526   0.377   4.657   2.098  0.1370  0.6193  0.7643
 2297TIP3    H228527   0.246   4.622   2.166  0.0255 -0.2380  0.1244
 2298TIP3   OH228528   2.269   2.032   3.277  0.2395  0.0703 -0.0355
 2298TIP3    H128529   2.248   1.992   3.193 -0.1405  0.7237 -0.2602
 2298TIP3    H228530   2.325   1.968   3.321  0.8356 -0.0749 -0.9733
 2299TIP3   OH228531   2.003   5.216   1.880  0.2882 -0.6672 -0.0720
 2299TIP3    H128532   1.977   5.248   1.794 -0.5870 -1.5482 -0.1525
 2299TIP3    H228533   2.079   5.161   1.864  0.4986 -0.3375 -0.2023
 2300TIP3   OH228534   2.357   0.438   1.086  0.3065  0.6982  0.1413
 2300TIP3    H128535   2.411   0.516   1.085 -0.4727  1.2474 -0.5615
 2300TIP3    H228536   2.280   0.461   1.034 -0.3061 -0.2714  0.5778
 2301TIP3   OH228537   5.197   3.144   0.840 -0.3782  0.4295  0.1054
 2301TIP3    H128538   5.183   3.229   0.881 -0.3479  0.4220  0.1316
 2301TIP3    H228539   5.292   3.132   0.840 -0.4498 -0.3799  1.7071
 2302TIP3   OH228540   2.205   0.812   7.771 -0.6913 -0.0339  0.2363
 2302TIP3    H128541   2.161   0.873   7.830  0.1251 -0.9700  1.8616
 2302TIP3    H228542   2.183   0.725   7.804  0.0430 -0.5853 -0.6450
 2303TIP3   OH228543   5.653   2.675   1.265  0.5795 -0.2305  0.2735
 2303TIP3    H128544   5.664   2.603   1.327 -1.8690 -1.1979 -0.3309
 2303TIP3    H228545   5.652   2.754   1.319 -3.7617 -1.1668  1.9483
 2304TIP3   OH228546   0.517   3.745   8.824 -0.0227 -0.1280 -0.5805
 2304TIP3    H128547   0.515   3.723   8.731  3.0775 -3.0739 -0.1485
 2304TIP3    H228548   0.436   3.708   8.860 -0.7298  0.0958 -1.8984
 2305TIP3   OH228549   0.808   1.899   0.867  0.3089  0.3350  0.3195
 2305TIP3    H128550   0.876   1.960   0.836  0.7238 -0.0085  0.5509
 2305TIP3    H228551   0.844   1.812   0.849 -0.2143  0.1520  0.1413
 2306TIP3   OH228552   0.783   6.123   1.844 -0.0569  0.3225 -0.5959
 2306TIP3    H128553   0.815   6.106   1.933 -2.8854  0.8273  0.6469
 2306TIP3    H228554   0.736   6.043   1.820 -0.9121  0.8653 -0.7989
 2307TIP3   OH228555   3.146   0.409   7.886 -0.0894 -0.0434 -0.4503
 2307TIP3    H128556   3.235   0.444   7.874  0.0648 -0.0854  0.5182
 2307TIP3    H228557   3.098   0.440   7.809  0.4307  1.0536 -0.3474
 2308TIP3   OH228558   2.954   6.556   7.889 -0.0175  0.2668  0.2103
 2308TIP3    H128559   3.000   6.521   7.813  1.5240 -0.4734  1.4218
 2308TIP3    H228560   2.863   6.565   7.860  0.4698 -0.2399 -1.6179
 2309TIP3   OH228561   5.774   2.949   6.543 -0.3892  0.1133  0.3600
 2309TIP3    H128562   5.800   2.892   6.471  3.1666  0.3301  1.2841
 2309TIP3    H228563   5.750   3.031   6.501  1.4234  0.1716 -0.6622
 2310TIP3   OH228564   6.248   2.016   0.492 -0.0470 -0.4317  0.3841
 2310TIP3    H128565   6.278   1.926   0.481  1.9570  0.0912  1.1063
 2310TIP3    H228566   6.231   2.046   0.403 -1.7290 -1.7950  0.1980
 2311TIP3   OH228567   4.685   0.268   1.241 -0.2681  0.4205  0.6154
 2311TIP3    H128568   4.607   0.292   1.191 -0.1026 -1.1267 -0.4765
 2311TIP3    H228569   4.653   0.252   1.330 -0.7540  2.1313  0.7841
 2312TIP3   OH228570   3.164   5.945   1.757  0.6744 -0.2958 -0.0516
 2312TIP3    H128571   3.152   5.868   1.813  2.0648 -1.1375 -0.8706
 2312TIP3    H228572   3.094   5.939   1.692  0.5601 -0.6773  0.1026
 2313TIP3   OH228573   3.063   1.174   1.109  0.8025 -0.1570  0.4309
 2313TIP3    H128574   3.063   1.181   1.204  0.7681  2.6519  0.2921
 2313TIP3    H228575   3.030   1.258   1.078  2.1596 -0.4448 -2.0967
 2314TIP3   OH228576   1.784   6.399   8.777  0.8302  0.2852  0.4837
 2314TIP3    H128577   1.689   6.406   8.770  1.0120  1.4689 -1.8022
 2314TIP3    H228578   1.801   6.397   8.871 -1.5665 -2.7645  1.0022
 2315TIP3   OH228579   2.816   2.058   2.717 -0.7666  0.6061  0.0822
 2315TIP3    H128580   2.844   2.017   2.799 -1.3474 -2.1720 -0.9912
 2315TIP3    H228581   2.895   2.057   2.662 -0.9084  0.4859 -0.1189
 2316TIP3   OH228582   3.365   4.539   8.013  0.1036  0.6379 -0.2695
 2316TIP3    H128583   3.337   4.522   7.923  0.8943 -1.6671 -0.1335
 2316TIP3    H228584   3.288   4.520   8.066  0.2709 -0.1821 -0.3099
 2317TIP3   OH228585   0.507   3.264   0.743  0.2812 -0.7025  0.4888
 2317TIP3    H128586   0.579   3.222   0.696  0.2120  1.4882 -1.7535
 2317TIP3    H228587   0.440   3.278   0.677 -0.0915  1.9669  1.3086
 2318TIP3   OH228588   5.212   1.150   8.778  0.1911  0.4813 -0.3234
 2318TIP3    H128589   5.266   1.209   8.831  0.8558 -1.7230  1.6356
 2318TIP3    H228590   5.126   1.191   8.777  1.4280  3.3603 -2.3120
 2319TIP3   OH228591   5.111   4.681   0.370  0.2260  1.0248  0.2641
 2319TIP3    H128592   5.033   4.635   0.340  0.9121  1.3430 -2.2420
 2319TIP3    H228593   5.108   4.673   0.466 -1.7700 -0.7132  0.1409
 2320TIP3   OH228594   1.985   0.728   8.636 -0.1614  0.1290 -0.0089
 2320TIP3    H128595   1.952   0.814   8.608 -1.3023 -0.0158  0.8172
 2320TIP3    H228596   1.931   0.705   8.711  0.5314 -1.0587  0.1522
 2321TIP3   OH228597   0.199   2.027   7.893  0.1908  0.7822 -0.5944
 2321TIP3    H128598   0.122   2.033   7.836 -0.1986 -1.1439 -0.3587
 2321TIP3    H228599   0.173   2.072   7.973  0.2520  2.3361 -1.4130
 2322TIP3   OH228600   0.542   1.914   6.968  0.0736 -0.0717 -0.2363
 2322TIP3    H128601   0.617   1.958   6.927 -0.0587 -1.4270 -2.0121
 2322TIP3    H228602   0.582   1.846   7.023  0.2251 -1.9185 -2.4741
 2323TIP3   OH228603   6.157   2.089   1.586 -0.5111 -0.1309  0.5874
 2323TIP3    H128604   6.137   2.008   1.539  0.0317  0.5870 -0.9569
 2323TIP3    H228605   6.248   2.108   1.562 -1.3891  2.2693 -1.1891
 2324TIP3   OH228606   2.928   6.636   2.768  0.0559 -0.2889 -0.0643
 2324TIP3    H128607   2.975   6.702   2.819  0.0311 -0.1416 -0.2321
 2324TIP3    H228608   2.960   6.552   2.801 -0.3711 -0.2030  0.5949
 2325TIP3   OH228609   1.684   2.346   2.741  0.2637  0.0899  0.0246
 2325TIP3    H128610   1.607   2.403   2.735 -1.5714 -1.7365  3.2420
 2325TIP3    H228611   1.673   2.284   2.669 -0.4982  0.7062 -0.4081
 2326TIP3   OH228612   1.583   0.489   2.833  0.4620  0.2762 -0.0875
 2326TIP3    H128613   1.636   0.550   2.884 -0.3424  1.4432 -0.6063
 2326TIP3    H228614   1.615   0.402   2.859  1.8665  0.9129  0.3962
 2327TIP3   OH228615   6.331   4.145   0.112 -0.4305 -0.1030 -0.1543
 2327TIP3    H128616   6.292   4.231   0.094 -3.0760 -0.7847  1.8023
 2327TIP3    H228617   6.323   4.097   0.029 -0.6481  0.8996 -0.7318
 2328TIP3   OH228618   6.456   1.214   8.013  0.4223 -0.0435  0.1873
 2328TIP3    H128619   6.472   1.296   8.059 -0.4350  0.4880 -0.4379
 2328TIP3    H228620   6.373   1.227   7.969  1.1815 -0.5660 -1.4579
 2329TIP3   OH228621   5.367   5.518   0.799  0.7766  0.1824 -0.1537
 2329TIP3    H128622   5.462   5.519   0.784  0.3563  0.5147 -3.6824
 2329TIP3    H228623   5.335   5.597   0.756 -1.3761 -1.5794 -2.0903
 2330TIP3   OH228624   4.219   5.608   0.295  0.4483 -0.6482  0.0839
 2330TIP3    H128625   4.139   5.660   0.302 -1.3297 -3.2546  0.3154
 2330TIP3    H228626   4.225   5.562   0.378  0.7816 -2.3750 -0.8472
 2331TIP3   OH228627   1.385   6.040   7.212 -0.4774  0.3178 -0.1709
 2331TIP3    H128628   1.340   6.040   7.127 -2.2288  3.0573  0.6118
 2331TIP3    H228629   1.463   5.986   7.199 -1.8797 -1.2602 -2.8213
 2332TIP3   OH228630   2.883   4.536   2.544  0.0352 -0.2672  0.4613
 2332TIP3    H128631   2.968   4.578   2.560  0.0342  0.5962 -1.5000
 2332TIP3    H228632   2.905   4.448   2.515  0.2033 -0.4040  0.9894
 2333TIP3   OH228633   2.986   1.871   0.213  0.2443  0.2565  0.2997
 2333TIP3    H128634   2.932   1.882   0.291 -3.0844  0.7839 -1.8769
 2333TIP3    H228635   3.033   1.954   0.203 -0.0927  0.5590  1.1681
 2334TIP3   OH228636   2.501   2.718   0.935 -0.5736 -0.0202  0.2152
 2334TIP3    H128637   2.499   2.810   0.961 -0.2486  0.1139 -0.2152
 2334TIP3    H228638   2.531   2.720   0.844  0.0713 -0.5863  0.4066
 2335TIP3   OH228639   5.591   6.260   0.846 -0.2885  0.1103 -0.2277
 2335TIP3    H128640   5.664   6.290   0.791 -1.2764  1.0303 -1.0787
 2335TIP3    H228641   5.561   6.179   0.804 -0.7219  0.5444 -0.7586
 2336TIP3   OH228642   4.486   2.506   0.746  0.0402 -0.1207 -0.4880
 2336TIP3    H128643   4.421   2.498   0.677  0.0226  0.6115 -0.5658
 2336TIP3    H228644   4.539   2.581   0.720  1.0879 -0.8575 -0.5633
 2337TIP3   OH228645   1.732   2.707   0.060 -0.0365  0.4651  0.1513
 2337TIP3    H128646   1.678   2.667   0.129 -1.5581 -0.4122 -1.4733
 2337TIP3    H228647   1.703   2.665  -0.021  2.2819  0.8743 -0.9616
 2338TIP3   OH228648   4.295   4.078   9.021 -0.0930  0.4322 -0.4706
 2338TIP3    H128649   4.370   4.072   8.962 -0.3324 -0.2253 -0.7186
 2338TIP3    H228650   4.301   3.999   9.076 -1.1039 -0.1148 -1.1118
 2339TIP3   OH228651   1.708   0.518   8.245 -1.0604  0.1727 -0.4138
 2339TIP3    H128652   1.680   0.532   8.336 -1.0782 -0.9684 -0.2326
 2339TIP3    H228653   1.658   0.583   8.195  1.1591  2.9547  0.6923
 2340TIP3   OH228654   3.273   6.439   1.222  0.1506  0.1037 -0.1799
 2340TIP3    H128655   3.278   6.346   1.242  1.3017 -0.1940 -1.6345
 2340TIP3    H228656   3.272   6.482   1.308 -0.1449 -1.2272  0.5120
 2341TIP3   OH228657   3.076   5.459   1.338 -0.4509 -0.6754  0.6255
 2341TIP3    H128658   3.055   5.412   1.257 -1.3832 -0.4868  0.7368
 2341TIP3    H228659   3.149   5.411   1.376  1.1317  0.1979 -1.1332
 2342TIP3   OH228660   3.912   6.094   9.026  0.3893  0.1966 -0.7012
 2342TIP3    H128661   4.002   6.116   9.002  1.5122  0.8544  3.3084
 2342TIP3    H228662   3.921   6.028   9.095 -2.4151 -2.0113 -2.2227
 2343TIP3   OH228663   6.611   4.814   2.579  0.4557 -0.1534  0.1672
 2343TIP3    H128664   6.576   4.903   2.578 -0.0645 -0.2983  1.7420
 2343TIP3    H228665   6.700   4.823   2.612  0.7462 -0.1200 -0.6223
 2344TIP3   OH228666   1.059   2.999   3.012  0.3616  0.1249 -0.1540
 2344TIP3    H128667   1.048   3.086   3.052 -1.3624 -0.1036 -0.0407
 2344TIP3    H228668   1.108   2.949   3.077  0.5895  0.7465  0.1687
 2345TIP3   OH228669   3.158   2.253   2.621  0.1171  0.0923 -0.0287
 2345TIP3    H128670   3.102   2.255   2.544 -1.2775  0.4150  0.9635
 2345TIP3    H228671   3.156   2.162   2.651 -0.8296  0.3290  0.6648
 2346TIP3   OH228672   2.520   6.324   8.235 -0.1587 -0.3407 -0.0232
 2346TIP3    H128673   2.536   6.232   8.212 -0.9013 -0.4454 -0.1460
 2346TIP3    H228674   2.459   6.320   8.309 -0.4836  0.0552 -0.2663
 2347TIP3   OH228675   0.441   3.505   2.666 -0.0109  0.8302 -0.6563
 2347TIP3    H128676   0.486   3.431   2.707 -0.2805  1.5510  0.9903
 2347TIP3    H228677   0.352   3.473   2.651  0.4619  0.0773 -2.0883
 2348TIP3   OH228678   4.853   4.725   8.858  0.2258  0.2856  0.2835
 2348TIP3    H128679   4.876   4.735   8.951  0.4364  0.9380  0.1631
 2348TIP3    H228680   4.758   4.738   8.856 -0.1659 -1.9678  0.7162
 2349TIP3   OH228681   5.738   5.720   2.041 -0.1544 -0.6720 -0.6818
 2349TIP3    H128682   5.728   5.784   1.971  0.7979 -1.2003 -1.3279
 2349TIP3    H228683   5.832   5.703   2.045  0.2626  1.5099  2.7458
 2350TIP3   OH228684   6.394   5.426   8.311 -0.1568 -0.3233 -0.0202
 2350TIP3    H128685   6.461   5.391   8.370  0.6558  0.1479 -0.6400
 2350TIP3    H228686   6.352   5.495   8.361  0.5293  0.0763  0.0128
 2351TIP3   OH228687   1.629   6.205   0.232 -0.2849 -0.2168 -0.4303
 2351TIP3    H128688   1.561   6.250   0.182 -0.9448  0.5237  1.0837
 2351TIP3    H228689   1.711   6.230   0.190 -0.8097  0.5173 -1.0361
 2352TIP3   OH228690   3.652   1.224   0.250 -0.0912 -0.4077  0.4904
 2352TIP3    H128691   3.727   1.238   0.192 -0.1833  0.1104  0.4904
 2352TIP3    H228692   3.690   1.209   0.336  0.0197  4.3547  1.5117
 2353TIP3   OH228693   0.647   4.266   8.937  0.0249 -0.0302  0.0538
 2353TIP3    H128694   0.717   4.211   8.972  0.0283  0.6083  1.0748
 2353TIP3    H228695   0.590   4.283   9.012 -0.4661  0.6155 -0.4566
 2354TIP3   OH228696   4.524   6.120   1.975  0.4023 -0.1864  0.0595
 2354TIP3    H128697   4.550   6.204   2.014  1.2017  0.2730 -1.3724
 2354TIP3    H228698   4.479   6.073   2.045  1.7786  0.5937  1.5253
 2355TIP3   OH228699   1.658   4.399   3.044  0.2560 -0.3553  0.3967
 2355TIP3    H128700   1.596   4.357   3.103 -1.2453 -1.5849 -1.9123
 2355TIP3    H228701   1.661   4.342   2.967  1.4858  1.5740 -1.0850
 2356TIP3   OH228702   0.659   2.425   1.967 -0.1170  0.2717 -0.1540
 2356TIP3    H128703   0.669   2.472   1.885 -1.3059 -1.5430 -1.4024
 2356TIP3    H228704   0.743   2.383   1.982  0.0808  0.5546 -0.4627
 2357TIP3   OH228705   3.031   2.033   8.684 -0.0228 -0.2818 -0.1358
 2357TIP3    H128706   3.021   1.949   8.729  0.4135  0.3191  1.1260
 2357TIP3    H228707   2.950   2.080   8.704 -0.2411 -0.3736 -0.7922
 2358TIP3   OH228708   1.445   4.505   7.871 -0.2457 -0.2188  0.4380
 2358TIP3    H128709   1.507   4.547   7.931 -0.2789  1.0307 -0.3581
 2358TIP3    H228710   1.495   4.492   7.791 -1.3667  2.3378 -0.7979
 2359TIP3   OH228711   0.211   5.152   2.085 -0.1267 -0.0973 -0.4153
 2359TIP3    H128712   0.190   5.134   1.993 -0.8040 -0.8681 -0.1286
 2359TIP3    H228713   0.178   5.075   2.132  1.0434 -0.1387  0.3714
 2360TIP3   OH228714   0.501   6.633   2.308 -0.8288  0.5355 -0.4552
 2360TIP3    H128715   0.482   6.709   2.362  1.6935 -0.0632  1.4296
 2360TIP3    H228716   0.444   6.564   2.342 -1.2786  0.9020 -0.4632
 2361TIP3   OH228717   1.523   5.294   7.690 -0.1342  0.2802  0.2525
 2361TIP3    H128718   1.447   5.345   7.664 -0.7127  0.0452  1.4201
 2361TIP3    H228719   1.525   5.300   7.786  1.8088  0.9902  0.2239
 2362TIP3   OH228720   3.675   3.362   8.300 -0.2992 -0.0737  0.4774
 2362TIP3    H128721   3.638   3.450   8.289 -1.7087 -0.7319 -0.2459
 2362TIP3    H228722   3.750   3.361   8.240 -1.2673  0.1141 -0.7957
 2363TIP3   OH228723   3.440   4.735   7.283  0.7762 -0.1111 -0.5737
 2363TIP3    H128724   3.465   4.706   7.370  2.7230 -0.6574 -1.2786
 2363TIP3    H228725   3.346   4.755   7.291  0.3560 -2.3509  1.0372
 2364TIP3   OH228726   0.881   2.662   2.228 -0.2336 -0.3557  0.0785
 2364TIP3    H128727   0.876   2.660   2.323 -1.1544 -0.3967  0.0427
 2364TIP3    H228728   0.973   2.648   2.208  0.2078  1.1020  0.9916
 2365TIP3   OH228729   2.583   3.363   0.513 -0.9114  0.0378 -0.2165
 2365TIP3    H128730   2.566   3.346   0.420  0.3414 -1.4075 -0.2202
 2365TIP3    H228731   2.660   3.309   0.534 -0.8947  0.6727  1.5574
 2366TIP3   OH228732   4.891   0.956   8.842 -0.0974  0.2731  0.9087
 2366TIP3    H128733   4.905   1.034   8.895  2.1238 -1.3299  2.8944
 2366TIP3    H228734   4.797   0.936   8.852 -0.6670  2.5003  0.4857
 2367TIP3   OH228735   3.706   5.362   0.537  0.2623 -0.4835  0.1937
 2367TIP3    H128736   3.619   5.377   0.572  0.2824 -1.4439  0.6762
 2367TIP3    H228737   3.709   5.415   0.456  0.1806  1.6503  1.5068
 2368TIP3   OH228738   2.889   5.916   0.780 -0.4792  0.7791  0.8522
 2368TIP3    H128739   2.807   5.913   0.829 -0.6623  1.1159  0.5694
 2368TIP3    H228740   2.908   5.824   0.759 -1.8977  0.8575 -0.9225
 2369TIP3   OH228741   0.116   3.966   2.116 -0.0755 -0.2913  0.0262
 2369TIP3    H128742   0.098   4.040   2.174 -0.5880  0.3171 -0.8846
 2369TIP3    H228743   0.101   3.889   2.171  1.3071  0.2548  1.2376
 2370TIP3   OH228744   4.404   2.197   0.877  1.0944 -0.3034  0.1811
 2370TIP3    H128745   4.335   2.157   0.931  0.3376  0.6607 -0.0498
 2370TIP3    H228746   4.386   2.291   0.880  2.2561 -0.0545 -0.0971
 2371TIP3   OH228747   5.087   4.713   1.814 -0.2274  0.1966 -0.3941
 2371TIP3    H128748   5.079   4.699   1.719 -0.7123  1.5642 -0.5703
 2371TIP3    H228749   5.152   4.649   1.841  0.2008  0.0279 -1.7216
 2372TIP3   OH228750   3.785   2.870   7.740 -0.9104 -0.1836 -0.0536
 2372TIP3    H128751   3.746   2.833   7.661 -1.0044  0.3949 -0.2808
 2372TIP3    H228752   3.742   2.823   7.812 -1.7780  0.1902 -0.3122
 2373TIP3   OH228753   2.863   1.689   2.189  0.1739  0.7701  0.4060
 2373TIP3    H128754   2.877   1.634   2.266  1.3345  1.4024  0.6582
 2373TIP3    H228755   2.809   1.634   2.131 -0.1461  0.0301  1.3625
 2374TIP3   OH228756   5.177   1.748   0.169 -0.4423  0.2580  0.1201
 2374TIP3    H128757   5.247   1.804   0.201 -0.4873  0.2262  0.2751
 2374TIP3    H228758   5.111   1.809   0.135 -0.3726  0.2894  0.0397
 2375TIP3   OH228759   4.542   3.986   2.166 -0.3119 -0.0462 -0.2077
 2375TIP3    H128760   4.477   4.047   2.201  0.3896 -0.2036  1.4882
 2375TIP3    H228761   4.551   3.919   2.234  0.6552 -0.7339 -0.9866
 2376TIP3   OH228762   1.094   5.566   1.317  0.9876  0.1825 -0.1023
 2376TIP3    H128763   1.046   5.545   1.237 -1.6672  0.5513  1.2521
 2376TIP3    H228764   1.122   5.657   1.305  0.4334  0.3003 -0.5672
 2377TIP3   OH228765   5.483   0.521   1.736  0.9243  0.2927  0.0004
 2377TIP3    H128766   5.442   0.607   1.721  1.6499  1.1299  2.3260
 2377TIP3    H228767   5.565   0.542   1.781  1.7816 -1.5860 -0.6050
 2378TIP3   OH228768   3.711   6.426   8.758 -0.4003 -0.0587  0.2157
 2378TIP3    H128769   3.685   6.375   8.681 -0.3207 -0.0384  0.1752
 2378TIP3    H228770   3.758   6.363   8.813  2.0022  0.5477 -0.9891
 2379TIP3   OH228771   6.081   5.618   8.974 -0.6232  0.0249 -0.0157
 2379TIP3    H128772   6.077   5.714   8.967  2.0877  0.1085 -1.8862
 2379TIP3    H228773   6.134   5.591   8.900 -1.3276 -2.9859  0.4674
 2380TIP3   OH228774   2.466   1.808   8.918 -0.2417  0.4226 -0.3258
 2380TIP3    H128775   2.545   1.808   8.864 -0.0779 -1.5538 -0.1639
 2380TIP3    H228776   2.395   1.825   8.856  0.2025  1.1219 -0.6529
 2381TIP3   OH228777   6.062   3.184   1.927  0.0368  0.5613 -0.2632
 2381TIP3    H128778   6.132   3.162   1.866 -1.1602 -2.5536 -0.6629
 2381TIP3    H228779   5.984   3.195   1.872 -0.6912 -0.5240  0.5035
 2382TIP3   OH228780   5.742   0.406   0.392 -0.8878  0.5503 -0.1824
 2382TIP3    H128781   5.651   0.424   0.414 -1.4351  1.7014 -2.8782
 2382TIP3    H228782   5.749   0.311   0.394 -3.5010  0.0438 -4.0025
 2383TIP3   OH228783   1.960   6.401   1.115  0.0670  0.2640 -0.4772
 2383TIP3    H128784   1.920   6.394   1.202 -1.1599 -0.2608 -1.0583
 2383TIP3    H228785   1.954   6.313   1.079 -0.4373  0.7001 -1.5063
 2384TIP3   OH228786   1.605   6.664   8.741  0.4677  0.8316 -0.5720
 2384TIP3    H128787   1.614   6.702   8.654 -0.3080 -0.8330 -1.4217
 2384TIP3    H228788   1.522   6.617   8.738  0.4021  0.7923  1.0903
 2385TIP3   OH228789   0.509   2.600   8.168  0.3467  0.7156  0.2642
 2385TIP3    H128790   0.562   2.666   8.213 -0.7587  1.5884  0.3357
 2385TIP3    H228791   0.425   2.600   8.215  0.6419 -1.4739  0.8942
 2386TIP3   OH228792   1.581   6.061   2.712 -0.1929 -0.1224 -0.3694
 2386TIP3    H128793   1.547   5.975   2.685 -0.8573  0.4313 -1.3725
 2386TIP3    H228794   1.671   6.043   2.740 -0.6000 -1.2825  0.2852
 2387TIP3   OH228795   4.969   4.481   1.197  0.2494 -0.4197  0.3705
 2387TIP3    H128796   4.932   4.485   1.109 -1.6283  0.1816  1.1510
 2387TIP3    H228797   5.019   4.399   1.198  0.6371 -0.2521 -1.3485
 2388TIP3   OH228798   4.227   3.131   8.851 -0.0381  0.0356  0.3705
 2388TIP3    H128799   4.311   3.171   8.830  0.2207 -0.5853  0.2234
 2388TIP3    H228800   4.200   3.174   8.932 -0.1143  1.0332 -0.1677
 2389TIP3   OH228801   2.160   1.381   8.784  0.4986  0.1598 -0.4214
 2389TIP3    H128802   2.094   1.448   8.766  1.7223  1.7922  0.7930
 2389TIP3    H228803   2.140   1.351   8.873 -0.2719 -1.4322 -1.0942
 2390TIP3   OH228804   3.625   2.724   0.459  0.1213 -0.2955 -0.2151
 2390TIP3    H128805   3.539   2.689   0.481  0.1811 -0.9738 -0.9964
 2390TIP3    H228806   3.686   2.671   0.512  0.1103 -0.3567 -0.2631
 2391TIP3   OH228807   6.410   1.261   1.084  0.0738 -0.9051  0.2528
 2391TIP3    H128808   6.344   1.197   1.112 -1.7412 -0.3373 -2.3726
 2391TIP3    H228809   6.493   1.223   1.113 -0.9263 -4.3491 -0.8325
 2392TIP3   OH228810   0.686   3.236   1.465  0.3043  0.4207 -0.7022
 2392TIP3    H128811   0.677   3.331   1.463  1.2875  0.5151 -0.9457
 2392TIP3    H228812   0.734   3.215   1.386  3.5706  0.1347  1.1867
 2393TIP3   OH228813   6.002   3.935   0.104 -0.3661 -0.8144 -0.5763
 2393TIP3    H128814   6.036   3.858   0.059 -2.0619 -1.9430 -0.0133
 2393TIP3    H228815   6.051   3.939   0.186 -0.4916 -1.4899 -0.4656
 2394TIP3   OH228816   3.530   0.548   8.716 -0.0619  0.9478  0.1357
 2394TIP3    H128817   3.529   0.596   8.634  2.1406  1.3886  0.2972
 2394TIP3    H228818   3.522   0.615   8.783  1.2341  0.9474  0.3193
 2395TIP3   OH228819   6.148   3.891   2.405  0.1503  0.1393 -0.3844
 2395TIP3    H128820   6.215   3.847   2.352  0.4264  0.1749 -0.0697
 2395TIP3    H228821   6.178   3.881   2.495 -0.0228  0.5708 -0.2759
 2396TIP3   OH228822   4.749   4.928   2.399 -0.5539 -0.4102  0.1425
 2396TIP3    H128823   4.735   4.860   2.465  0.0885 -1.0893 -0.4053
 2396TIP3    H228824   4.817   4.984   2.435 -2.6649  1.3523  1.6375
 2397TIP3   OH228825   2.068   3.269   3.072  0.0523  0.9049 -0.0085
 2397TIP3    H128826   1.997   3.333   3.070 -1.6282 -0.5722  3.9076
 2397TIP3    H228827   2.035   3.194   3.023 -0.4582  0.7831  0.5241
 2398TIP3   OH228828   0.327   1.683   7.900 -0.5747  0.9320  0.7321
 2398TIP3    H128829   0.253   1.640   7.942 -1.5270  1.8423  0.0408
 2398TIP3    H228830   0.323   1.654   7.808  0.3745  0.4212  0.8298
 2399TIP3   OH228831   6.294   0.725   1.975  0.4499 -0.3528 -0.3832
 2399TIP3    H128832   6.209   0.742   2.018  0.0449 -1.5018 -0.6948
 2399TIP3    H228833   6.328   0.648   2.020  0.1871 -1.3599 -1.8801
 2400TIP3   OH228834   2.445   5.280   1.610 -0.0712  0.1840  0.2039
 2400TIP3    H128835   2.470   5.267   1.518 -2.4022  0.9926 -0.6152
 2400TIP3    H228836   2.378   5.213   1.626 -1.6437  1.7463  0.4293
 2401TIP3   OH228837   4.603   2.422   0.200  0.3855  0.6214 -0.1038
 2401TIP3    H128838   4.680   2.417   0.256  1.2481  1.0441 -1.2130
 2401TIP3    H228839   4.638   2.425   0.111 -0.9231  0.6168 -0.6462
 2402TIP3   OH228840   4.865   0.739   1.061  0.0229  0.0563  0.0355
 2402TIP3    H128841   4.849   0.647   1.084  0.4221 -0.4160 -1.4535
 2402TIP3    H228842   4.794   0.787   1.103  1.6972 -0.4257  3.8723
 2403TIP3   OH228843   1.449   5.612   8.153 -0.3158  0.3799  0.3496
 2403TIP3    H128844   1.498   5.577   8.227 -0.9149 -0.8036  0.2127
 2403TIP3    H228845   1.510   5.674   8.111  0.4927  0.0845  1.0602
 2404TIP3   OH228846   6.320   4.297   0.609  0.0741  0.3961 -0.4889
 2404TIP3    H128847   6.269   4.255   0.541 -1.4787  1.5640 -0.0960
 2404TIP3    H228848   6.385   4.231   0.635 -0.8676 -0.9292 -1.3844
 2405TIP3   OH228849   4.724   4.210   1.146 -0.1155 -0.1010  0.0392
 2405TIP3    H128850   4.744   4.191   1.238  1.8052  3.4339  0.5304
 2405TIP3    H228851   4.639   4.254   1.149  0.3762  0.8454  0.2653
 2406TIP3   OH228852   3.843   3.928   8.204 -0.2091  0.3932 -0.4002
 2406TIP3    H128853   3.775   3.898   8.144 -0.0332  0.4289 -0.6196
 2406TIP3    H228854   3.905   3.975   8.149  0.4411 -0.3680 -0.3496
 2407TIP3   OH228855   2.993   4.499   1.859 -0.6740  0.1960  0.8477
 2407TIP3    H128856   2.977   4.534   1.771 -0.9782 -0.7342  0.5224
 2407TIP3    H228857   2.944   4.558   1.917 -0.0794  1.1090  0.4590
 2408TIP3   OH228858   5.512   4.283   7.574  0.4920  0.0021  0.0469
 2408TIP3    H128859   5.449   4.337   7.527  0.9248  0.6180  0.1682
 2408TIP3    H228860   5.469   4.198   7.582 -0.4502  0.5035  0.4050
 2409TIP3   OH228861   3.491   3.959   0.678  0.1385 -0.1057 -0.0105
 2409TIP3    H128862   3.403   3.951   0.642 -0.6180 -0.6962  1.8609
 2409TIP3    H228863   3.537   3.880   0.650  0.5463  0.7794 -2.0583
 2410TIP3   OH228864   6.502   1.214   8.784  0.1406 -0.2553  0.2920
 2410TIP3    H128865   6.429   1.188   8.728 -1.0840  1.0823  1.2013
 2410TIP3    H228866   6.472   1.293   8.828  2.3922  0.7061  0.2403
 2411TIP3   OH228867   3.326   1.523   3.002  0.7184  0.1244  0.0538
 2411TIP3    H128868   3.242   1.494   3.038  1.1219 -1.3550 -0.1133
 2411TIP3    H228869   3.386   1.519   3.076  1.1963 -1.3716 -0.3773
 2412TIP3   OH228870   2.673   4.573   2.707  0.1908 -0.5510  0.8069
 2412TIP3    H128871   2.625   4.625   2.642  1.3347 -0.7448 -0.2243
 2412TIP3    H228872   2.758   4.558   2.667  0.2251 -2.4050  1.4988
 2413TIP3   OH228873   4.743   1.857   8.259  0.3201  0.1490 -0.3861
 2413TIP3    H128874   4.723   1.814   8.176 -2.3549  0.6362 -0.0699
 2413TIP3    H228875   4.837   1.877   8.253  0.6793 -1.7355 -2.3562
 2414TIP3   OH228876   1.273   1.566   2.611 -0.3337 -0.9265  0.0676
 2414TIP3    H128877   1.335   1.524   2.671  0.1769 -0.1814  0.0673
 2414TIP3    H228878   1.189   1.562   2.658  0.0399 -0.4456  0.7880
 2415TIP3   OH228879   2.243   5.446   7.724 -1.0493 -0.9192  0.4109
 2415TIP3    H128880   2.288   5.487   7.651 -0.2448 -0.3048  1.2297
 2415TIP3    H228881   2.182   5.384   7.683  0.3885 -1.6496 -0.7397
 2416TIP3   OH228882   2.198   6.144   8.592  0.4905 -0.5880 -0.2356
 2416TIP3    H128883   2.129   6.210   8.601 -0.1771 -0.7549 -2.9973
 2416TIP3    H228884   2.198   6.098   8.675 -2.2393 -0.0664  0.1692
 2417TIP3   OH228885   2.587   4.402   8.634  0.2892 -0.3789  0.2738
 2417TIP3    H128886   2.585   4.319   8.587 -1.3538  0.3550 -1.0531
 2417TIP3    H228887   2.505   4.403   8.683  0.6382  0.1659  0.8644
 2418TIP3   OH228888   4.994   0.432   8.194 -0.1636  0.3832  0.4224
 2418TIP3    H128889   4.930   0.425   8.124  1.5061 -0.5977 -1.0709
 2418TIP3    H228890   4.977   0.356   8.250  0.3298 -0.4715 -0.5521
 2419TIP3   OH228891   0.015   3.390   9.192 -0.4254 -0.5716  0.6336
 2419TIP3    H128892   0.110   3.384   9.186 -0.3922 -1.3591  1.7298
 2419TIP3    H228893  -0.017   3.319   9.137 -0.3165 -1.6480  1.9141
 2420TIP3   OH228894   1.030   1.196   0.306  0.3017  0.3464  0.0566
 2420TIP3    H128895   1.070   1.262   0.250  1.4000 -0.3438  0.0003
 2420TIP3    H228896   1.043   1.229   0.395  0.1539  0.5741 -0.0048
 2421TIP3   OH228897   1.064   3.533   1.870  0.2212 -0.4182  0.1533
 2421TIP3    H128898   1.031   3.600   1.930  0.4547 -0.3097  0.1613
 2421TIP3    H228899   0.988   3.508   1.818  0.3984  0.7351 -0.6838
 2422TIP3   OH228900   0.360   3.429   0.122 -0.1461  0.3454  0.4679
 2422TIP3    H128901   0.425   3.488   0.162  1.2241 -0.2786 -0.7421
 2422TIP3    H228902   0.409   3.380   0.056 -1.1375 -2.3666  1.5695
 2423TIP3   OH228903   3.227   5.809   2.009  0.1340 -0.1406  0.0354
 2423TIP3    H128904   3.154   5.759   1.971  0.9168 -1.6185  0.3996
 2423TIP3    H228905   3.246   5.764   2.092 -1.6655  3.0983  2.4125
 2424TIP3   OH228906   5.960   2.115   2.752 -0.3522 -0.6293 -0.6303
 2424TIP3    H128907   6.055   2.119   2.739 -0.2365  1.4879  0.5150
 2424TIP3    H228908   5.945   2.025   2.783  1.3505 -0.8539 -0.3371
 2425TIP3   OH228909   1.691   0.112   8.526 -0.1142  0.0744  0.1003
 2425TIP3    H128910   1.776   0.153   8.543 -0.7332  1.0321  1.0377
 2425TIP3    H228911   1.641   0.180   8.480 -0.0677 -0.8298 -1.3552
 2426TIP3   OH228912   1.155   3.501   2.194 -0.3313 -0.5663 -0.2233
 2426TIP3    H128913   1.244   3.477   2.219  1.4900  2.0498 -3.3381
 2426TIP3    H228914   1.138   3.582   2.242 -0.0487  0.1606 -1.3123
 2427TIP3   OH228915   5.226   2.508   2.416 -0.1542 -0.3352 -0.1514
 2427TIP3    H128916   5.184   2.443   2.473  0.3471  1.1196  1.9811
 2427TIP3    H228917   5.292   2.458   2.368 -0.5367 -1.5977  0.5822
 2428TIP3   OH228918   0.121   0.146   1.369  0.0751  0.2105 -0.3050
 2428TIP3    H128919   0.137   0.064   1.322  0.1243 -0.4908  0.8887
 2428TIP3    H228920   0.168   0.136   1.452 -1.3897  0.6869  0.6276
 2429TIP3   OH228921   0.665   0.521   0.503 -0.1604  0.2271 -0.1503
 2429TIP3    H128922   0.707   0.586   0.560  0.3971 -0.3904  0.1586
 2429TIP3    H228923   0.689   0.546   0.415 -0.2400  0.6429 -0.0546
 2430TIP3   OH228924   0.896   6.563   1.547  0.2849  0.7084 -0.8924
 2430TIP3    H128925   0.915   6.569   1.453 -1.5171  1.6287 -1.2253
 2430TIP3    H228926   0.802   6.548   1.552  0.6506 -1.5917  0.7420
 2431TIP3   OH228927   3.022   4.967   8.677  0.2655  0.1261  0.1700
 2431TIP3    H128928   2.937   4.958   8.720 -0.0397  1.2506 -0.1649
 2431TIP3    H228929   3.085   4.966   8.749  0.0372 -1.2998  0.3780
 2432TIP3   OH228930   2.625   1.385   0.922  0.2725 -0.1066  0.1994
 2432TIP3    H128931   2.607   1.311   0.864 -0.4312 -0.4697  0.8610
 2432TIP3    H228932   2.589   1.358   1.006 -2.6958  2.1812 -0.1965
 2433TIP3   OH228933   3.844   5.370   2.113 -0.5359 -0.7420 -0.4758
 2433TIP3    H128934   3.753   5.387   2.140 -0.2837 -1.4536  0.9172
 2433TIP3    H228935   3.836   5.327   2.028 -1.4902 -0.5881 -0.4749
 2434TIP3   OH228936   4.575   4.562   8.334  1.1069  0.4688 -0.3097
 2434TIP3    H128937   4.498   4.507   8.347  1.1771  0.8748  2.3644
 2434TIP3    H228938   4.647   4.501   8.321  1.0127 -0.1118  1.6012
 2435TIP3   OH228939   2.563   1.195   8.661 -0.3774 -0.1420 -0.0077
 2435TIP3    H128940   2.481   1.170   8.703 -0.9011  0.1911 -0.8296
 2435TIP3    H228941   2.567   1.141   8.583  0.6420 -0.8234  0.4898
 2436TIP3   OH228942   2.059   5.860   0.022 -0.4482  0.0262 -0.2797
 2436TIP3    H128943   2.037   5.820  -0.062  0.7427 -0.9717 -0.1436
 2436TIP3    H228944   1.983   5.913   0.044 -1.8544 -1.6935 -0.7689
 2437TIP3   OH228945   2.294   3.155   0.538 -0.4429 -0.1927  0.0608
 2437TIP3    H128946   2.198   3.147   0.531 -0.4192 -1.0015  0.5190
 2437TIP3    H228947   2.307   3.217   0.610 -0.6181  0.6008 -0.5750
 2438TIP3   OH228948   2.463   0.799   8.164  0.2201  0.1406  0.3424
 2438TIP3    H128949   2.376   0.765   8.144  0.8834 -0.3750 -1.9984
 2438TIP3    H228950   2.483   0.859   8.092  1.3635  1.1717  1.4486
 2439TIP3   OH228951   0.946   6.650   0.306 -0.0264  0.2827 -0.2355
 2439TIP3    H128952   1.037   6.622   0.304 -0.0485 -0.0133  1.5561
 2439TIP3    H228953   0.903   6.595   0.240  1.3260  1.4632 -2.1799
 2440TIP3   OH228954   6.633   4.524   8.758  0.0203  0.0888  0.0709
 2440TIP3    H128955   6.707   4.483   8.802  0.8781  0.8872 -0.5795
 2440TIP3    H228956   6.590   4.453   8.710 -0.0753 -0.5105  1.0306
 2441TIP3   OH228957   4.718   6.157   0.282  0.1323 -0.1534 -0.0089
 2441TIP3    H128958   4.735   6.185   0.372 -0.4615  1.4695 -0.3702
 2441TIP3    H228959   4.739   6.233   0.228 -0.5162 -0.7524 -1.1552
 2442TIP3   OH228960   3.838   4.667   7.844 -0.8430 -0.3675  0.1217
 2442TIP3    H128961   3.874   4.743   7.890 -0.8848 -0.2410 -0.0557
 2442TIP3    H228962   3.887   4.593   7.880 -1.1700 -0.3184  0.6798
 2443TIP3   OH228963   0.187   3.433   0.378 -0.1277 -0.1975  0.2557
 2443TIP3    H128964   0.246   3.454   0.451  0.4780  1.9476 -0.7559
 2443TIP3    H228965   0.107   3.402   0.420  1.3029 -2.1847  1.7031
 2444TIP3   OH228966   3.132   2.458   8.348  0.3506 -0.3204 -0.4717
 2444TIP3    H128967   3.136   2.534   8.407 -1.7002 -0.3649 -0.1913
 2444TIP3    H228968   3.170   2.386   8.399 -2.6093 -0.6934  1.5076
 2445TIP3   OH228969   2.646   2.639   1.576  0.2765 -0.0027 -0.1219
 2445TIP3    H128970   2.608   2.671   1.658  0.6054 -0.4785  0.2147
 2445TIP3    H228971   2.645   2.716   1.518 -0.0356  0.3114  0.2956
 2446TIP3   OH228972   5.325   2.715   2.573  0.2533  0.3229 -0.1372
 2446TIP3    H128973   5.375   2.784   2.529 -0.8474  1.0209 -0.3301
 2446TIP3    H228974   5.273   2.676   2.503  0.0939 -0.0066  0.1674
 2447TIP3   OH228975   4.030   6.239   7.670 -0.5887  0.0280 -0.4108
 2447TIP3    H128976   4.103   6.301   7.678 -0.0576 -0.5856 -0.4680
 2447TIP3    H228977   4.034   6.208   7.580 -0.0459 -1.0650 -0.0324
 2448TIP3   OH228978   6.137   1.806   8.095  0.0179 -0.3786 -0.5208
 2448TIP3    H128979   6.128   1.781   8.003  0.7827  0.2623 -0.7843
 2448TIP3    H228980   6.206   1.872   8.095 -1.2611  1.0115  0.2697
 2449TIP3   OH228981   1.658   2.284   0.210  0.7402  0.0188  0.1338
 2449TIP3    H128982   1.641   2.323   0.124  0.1210  1.5672  0.9166
 2449TIP3    H228983   1.753   2.287   0.220  0.7063  1.5857  0.2478
 2450TIP3   OH228984   0.639   5.516   0.720  0.0163  0.2900 -0.7021
 2450TIP3    H128985   0.623   5.605   0.750  1.6774  0.5728 -0.5741
 2450TIP3    H228986   0.684   5.474   0.793  3.1045  0.6500 -2.2201
 2451TIP3   OH228987   4.767   1.309   1.746  0.3533 -0.2532 -0.5421
 2451TIP3    H128988   4.845   1.255   1.753  1.4764  1.3072 -0.3321
 2451TIP3    H228989   4.793   1.393   1.786 -0.5082  1.2233 -2.8741
 2452TIP3   OH228990   3.746   3.721   0.829  0.7623  0.0060 -0.2146
 2452TIP3    H128991   3.722   3.746   0.919  0.1633 -4.1250  0.9898
 2452TIP3    H228992   3.841   3.732   0.826  0.7536  0.5396  0.7712
 2453TIP3   OH228993   2.200   5.027   1.908  0.1391 -0.7201  0.0169
 2453TIP3    H128994   2.255   5.046   1.984 -2.6359  0.5919  1.8295
 2453TIP3    H228995   2.129   4.972   1.942  1.5675 -4.8489 -2.7936
 2454TIP3   OH228996   4.976   5.069   0.966  0.6614 -0.1900 -0.4754
 2454TIP3    H128997   5.031   5.065   0.888 -0.9844  1.5999 -1.8536
 2454TIP3    H228998   4.899   5.017   0.944 -0.3063  1.2066 -0.5340
 2455TIP3   OH228999   5.526   3.735   0.974  0.4225  0.9373  0.0830
 2455TIP3    H129000   5.444   3.690   0.994 -0.7262  1.5823 -2.7447
 2455TIP3    H229001   5.501   3.828   0.968  1.3776  1.1550 -0.7254
 2456TIP3   OH229002   0.533   1.523   8.909 -0.4026 -0.0281 -0.1521
 2456TIP3    H129003   0.536   1.556   8.819  0.6244 -1.4636 -0.6917
 2456TIP3    H229004   0.451   1.474   8.914 -0.0485 -0.6868 -0.6089
 2457TIP3   OH229005   2.577   0.739   0.792  0.2955  0.7357 -0.6106
 2457TIP3    H129006   2.638   0.666   0.802 -0.4761 -0.0043 -1.1729
 2457TIP3    H229007   2.566   0.750   0.698 -0.5548  0.7429 -0.5246
 2458TIP3   OH229008   1.173   0.659   9.025  0.4112  0.2398  0.3974
 2458TIP3    H129009   1.188   0.739   8.974 -0.9375  0.9054  1.0058
 2458TIP3    H229010   1.128   0.689   9.104  0.1446 -1.0925  0.7716
 2459TIP3   OH229011   0.261   2.938   2.306  0.6317  0.0173  0.2466
 2459TIP3    H129012   0.331   2.879   2.280 -0.8077 -1.9651  0.6543
 2459TIP3    H229013   0.278   2.955   2.399  0.8111 -0.0919  0.2344
 2460TIP3   OH229014   6.460   4.691   0.370  0.1935  0.2269 -0.6309
 2460TIP3    H129015   6.387   4.751   0.353  0.1426  0.0947 -0.8958
 2460TIP3    H229016   6.426   4.604   0.348  0.1591  0.0584  0.0915
 2461TIP3   OH229017   2.295   6.226   8.078  0.1203  0.4828  0.0937
 2461TIP3    H129018   2.299   6.224   8.173 -0.1081  0.4747  0.1034
 2461TIP3    H229019   2.292   6.319   8.056 -0.0401  0.4804  0.1040
 2462TIP3   OH229020   4.865   4.592   0.650  0.1922  0.0170  0.7897
 2462TIP3    H129021   4.864   4.554   0.562  0.7145  1.0984  0.3025
 2462TIP3    H229022   4.775   4.579   0.682 -0.1049 -0.0478 -0.0433
 2463TIP3   OH229023   2.720   1.581   1.796 -0.3917  0.2920 -0.3695
 2463TIP3    H129024   2.692   1.525   1.724 -1.2473  1.0474 -0.6347
 2463TIP3    H229025   2.649   1.577   1.860  0.2960 -0.2593  0.3862
 2464TIP3   OH229026   2.974   0.673   0.542 -0.0878  0.2097  0.0439
 2464TIP3    H129027   2.979   0.731   0.618 -0.6937  1.1617 -0.6219
 2464TIP3    H229028   3.058   0.628   0.540  1.1899  2.4709 -0.5129
 2465TIP3   OH229029   0.993   1.519   1.071  0.1898 -0.2356  0.0212
 2465TIP3    H129030   0.985   1.424   1.077 -0.3158 -0.1367  1.0897
 2465TIP3    H229031   0.903   1.551   1.065  0.1798  0.2948  2.1651
 2466TIP3   OH229032   3.937   3.565   6.931  0.0272 -0.3343 -0.3143
 2466TIP3    H129033   4.017   3.552   6.881 -1.3056 -1.5237 -2.2720
 2466TIP3    H229034   3.889   3.483   6.922 -1.7077  0.5563  0.2467
 2467TIP3   OH229035   0.284   6.178   3.036 -0.0230  0.1145 -0.0588
 2467TIP3    H129036   0.298   6.087   3.061 -1.2661  0.3499  1.6699
 2467TIP3    H229037   0.363   6.202   2.988  1.3595 -1.1954  1.4643
 2468TIP3   OH229038   1.046   3.807   6.756 -0.2157 -0.1463 -0.0884
 2468TIP3    H129039   1.086   3.812   6.670 -2.2665  0.0820 -1.1032
 2468TIP3    H229040   0.985   3.881   6.758  0.1486  0.1627  1.7821
 2469TIP3   OH229041   3.967   3.388   7.675  0.0356  0.0383 -0.0063
 2469TIP3    H129042   3.943   3.443   7.749 -2.1728 -0.5012 -0.2589
 2469TIP3    H229043   3.974   3.448   7.601 -1.9943  0.0883 -0.2032
 2470TIP3   OH229044   1.905   4.829   1.793 -0.1831  0.0936 -0.1937
 2470TIP3    H129045   1.976   4.778   1.835  0.6100  0.0152 -1.5830
 2470TIP3    H229046   1.837   4.833   1.860  0.7553 -0.6370  0.8587
 2471TIP3   OH229047   3.754   4.097   0.775  0.0319  0.6196 -0.2284
 2471TIP3    H129048   3.679   4.062   0.726  0.4091 -0.7200  0.1214
 2471TIP3    H229049   3.715   4.133   0.855 -0.2872  0.2906 -0.2308
 2472TIP3   OH229050   6.159   3.214   8.207 -0.2338 -0.1198  0.4097
 2472TIP3    H129051   6.177   3.308   8.217 -0.7574  0.3643 -2.4164
 2472TIP3    H229052   6.103   3.193   8.282 -0.1020  1.8249  1.1238
 2473TIP3   OH229053   3.095   4.948   2.016  0.1733 -0.3151  0.5122
 2473TIP3    H129054   3.107   4.853   2.008 -1.9334 -0.5055 -0.9119
 2473TIP3    H229055   3.026   4.957   2.081 -1.3865  0.0987 -1.1522
 2474TIP3   OH229056   2.001   6.328   2.638 -0.0863 -0.3374  0.3438
 2474TIP3    H129057   1.994   6.280   2.556 -1.0260 -1.1827  0.8863
 2474TIP3    H229058   2.034   6.415   2.613  0.0134 -0.7062 -0.8635
 2475TIP3   OH229059   3.086   0.345   8.139  0.5917  0.2952 -0.1689
 2475TIP3    H129060   3.126   0.374   8.057 -0.1350 -2.8708 -1.7681
 2475TIP3    H229061   3.043   0.262   8.118 -0.8775  0.0618  3.1023
 2476TIP3   OH229062   3.759   0.528   1.262 -0.0239 -0.4496  0.5746
 2476TIP3    H129063   3.808   0.592   1.315 -0.2379  0.7685 -0.6254
 2476TIP3    H229064   3.730   0.462   1.324  1.1978  0.0211  1.6834
 2477TIP3   OH229065   5.119   1.431   1.778 -0.2751 -0.3547 -0.1851
 2477TIP3    H129066   5.116   1.335   1.772  0.2321 -0.3289 -1.1646
 2477TIP3    H229067   5.194   1.455   1.723  0.5276  0.5193  1.2245
 2478TIP3   OH229068   4.047   6.338   8.271  0.2225 -0.4291  0.0600
 2478TIP3    H129069   4.042   6.394   8.348 -1.2876  0.0766 -0.3727
 2478TIP3    H229070   4.102   6.387   8.209  0.1020 -0.0917  0.2175
 2479TIP3   OH229071   5.724   0.312   9.051  0.7664  0.2016  0.9195
 2479TIP3    H129072   5.679   0.358   8.979  0.8300  0.9221  1.3280
 2479TIP3    H229073   5.689   0.223   9.047 -0.2061  0.5677  0.7972
 2480TIP3   OH229074   0.676   0.216   8.930  0.4081  0.0688 -0.0649
 2480TIP3    H129075   0.628   0.292   8.963  1.7283  0.5850  0.7052
 2480TIP3    H229076   0.625   0.188   8.853 -0.3597  1.4248 -0.0856
 2481TIP3   OH229077   6.233   5.215   7.867  0.3504 -0.0099  0.1309
 2481TIP3    H129078   6.203   5.305   7.875 -1.0416 -0.4145 -0.2463
 2481TIP3    H229079   6.205   5.174   7.949  0.2386 -0.3002 -0.0527
 2482TIP3   OH229080   5.904   1.166   1.654  0.2673 -0.5062  1.1612
 2482TIP3    H129081   5.814   1.137   1.645 -0.0157  0.1654  1.7178
 2482TIP3    H229082   5.928   1.142   1.744 -0.1315  1.3413  1.7967
 2483TIP3   OH229083   5.310   6.663   1.957 -0.1155  0.3109 -0.3038
 2483TIP3    H129084   5.333   6.594   1.895 -0.8296  1.4539 -1.9315
 2483TIP3    H229085   5.240   6.712   1.914 -3.2609 -0.9067  2.9208
 2484TIP3   OH229086   5.068   3.337   2.141  0.1818  0.1481 -0.1084
 2484TIP3    H129087   4.982   3.360   2.107  0.1522  0.7192  0.3516
 2484TIP3    H229088   5.054   3.322   2.234  0.1869 -1.8027 -0.3822
 2485TIP3   OH229089   6.321   3.687   0.298 -0.0297  0.7618  0.7396
 2485TIP3    H129090   6.387   3.676   0.366 -0.3686  0.2411  0.9883
 2485TIP3    H229091   6.252   3.739   0.340 -1.5616 -1.9215  1.7342
 2486TIP3   OH229092   4.719   4.692   2.576 -0.4668 -0.3006  0.2861
 2486TIP3    H129093   4.801   4.669   2.618 -0.4445 -0.1649  0.3169
 2486TIP3    H229094   4.680   4.608   2.551 -0.1412 -0.3429 -0.0692
 2487TIP3   OH229095   3.634   4.623   2.858 -0.0280 -0.2348  0.5223
 2487TIP3    H129096   3.546   4.589   2.840  0.0264  0.0367 -0.2953
 2487TIP3    H229097   3.642   4.700   2.801  0.8964 -0.5071  0.2720
 2488TIP3   OH229098   4.597   0.788   0.190  0.1511 -0.3236  0.1861
 2488TIP3    H129099   4.666   0.750   0.136  1.0971 -0.8009  1.7019
 2488TIP3    H229100   4.595   0.880   0.164  0.0444 -0.6957 -1.2042
 2489TIP3   OH229101   6.657   5.377   7.329 -0.2025  0.0261 -0.2073
 2489TIP3    H129102   6.571   5.418   7.319  0.0338  0.4212 -0.6434
 2489TIP3    H229103   6.640   5.298   7.381 -1.0407 -0.6389 -1.4368
 2490TIP3   OH229104   1.391   4.623   2.112  0.7263 -0.3598  0.4639
 2490TIP3    H129105   1.431   4.573   2.041 -1.6815 -0.4123 -0.9733
 2490TIP3    H229106   1.314   4.572   2.136  0.6304  0.4766  2.0554
 2491TIP3   OH229107   6.631   4.623   7.054 -0.2858 -0.2141  0.6346
 2491TIP3    H129108   6.650   4.531   7.069 -1.2761 -0.3303  1.2593
 2491TIP3    H229109   6.717   4.664   7.043  0.2855 -0.8760  2.3232
 2492TIP3   OH229110   1.564   0.722   8.110  0.5593  0.2329  0.3338
 2492TIP3    H129111   1.633   0.717   8.044  0.4236 -1.9128  0.2868
 2492TIP3    H229112   1.483   0.731   8.060  0.5460 -0.2897  0.2659
 2493TIP3   OH229113   3.985   3.515   7.425  0.3468 -0.0171  0.2147
 2493TIP3    H129114   4.035   3.597   7.430 -1.1547  0.8705  2.4059
 2493TIP3    H229115   3.917   3.532   7.361  1.3361 -0.3672 -0.9618
 2494TIP3   OH229116   3.419   1.574   1.593 -0.4226  0.1964 -0.0566
 2494TIP3    H129117   3.388   1.508   1.656 -3.1403  0.1079 -1.3839
 2494TIP3    H229118   3.403   1.658   1.636  0.5927  0.0929  0.5629
 2495TIP3   OH229119   6.635   4.309   0.812  0.5205 -0.4577 -0.3793
 2495TIP3    H129120   6.626   4.393   0.856  1.5884 -0.6966  0.3565
 2495TIP3    H229121   6.658   4.331   0.721  0.2752  0.0459 -0.3200
 2496TIP3   OH229122   4.981   2.726   1.899  0.6385  0.1214  0.0638
 2496TIP3    H129123   4.896   2.688   1.920  0.8875 -0.3944  0.1526
 2496TIP3    H229124   4.973   2.818   1.924  0.4529 -0.1510  1.0425
 2497TIP3   OH229125   4.239   5.451   0.519 -0.3104  0.3074  0.7932
 2497TIP3    H129126   4.185   5.497   0.583 -1.0343  2.4090 -1.1963
 2497TIP3    H229127   4.185   5.379   0.489 -0.8885  0.7111  0.8540
 2498TIP3   OH229128   3.820   6.139   2.534  0.4529 -0.0538  0.2902
 2498TIP3    H129129   3.817   6.061   2.590 -0.2889  0.3010  0.7722
 2498TIP3    H229130   3.743   6.189   2.560 -0.5142 -0.3583 -1.7516
 2499TIP3   OH229131   5.378   0.172   2.378  0.0072  0.0047  0.7984
 2499TIP3    H129132   5.331   0.100   2.419 -0.3389  0.6120  1.4923
 2499TIP3    H229133   5.470   0.157   2.401  0.0584 -0.7339  0.1321
 2500TIP3   OH229134   0.200   0.476   0.791 -0.4801 -0.1775 -0.5244
 2500TIP3    H129135   0.201   0.497   0.885  0.6393 -3.9574  0.5072
 2500TIP3    H229136   0.209   0.560   0.747  0.6910  1.6241  2.8014
 2501TIP3   OH229137   1.120   2.335   1.093 -0.5998  0.4948  0.6493
 2501TIP3    H129138   1.083   2.422   1.076 -0.4690 -0.0006 -2.8605
 2501TIP3    H229139   1.215   2.349   1.088 -0.5645  0.2320  0.5961
 2502TIP3   OH229140   2.308   4.305   2.101 -0.2327 -0.6080 -0.4462
 2502TIP3    H129141   2.219   4.309   2.135  0.2202 -2.4042  1.1028
 2502TIP3    H229142   2.299   4.322   2.007 -1.5778  4.1888  0.3055
 2503TIP3   OH229143   4.751   5.755   2.280  0.6838  0.2352 -0.4347
 2503TIP3    H129144   4.684   5.762   2.348  0.8401 -0.7581 -0.1624
 2503TIP3    H229145   4.740   5.833   2.227 -2.0257 -0.8396 -1.6040
 2504TIP3   OH229146   2.507   0.829   8.853  0.2281 -0.0975 -0.4197
 2504TIP3    H129147   2.520   0.924   8.850 -0.6274  0.0761  0.7389
 2504TIP3    H229148   2.434   0.813   8.794  0.7231 -0.1228 -1.0420
 2505TIP3   OH229149   3.604   6.427   9.059 -0.5264  0.1152  0.2720
 2505TIP3    H129150   3.693   6.439   9.093 -0.7071  0.7379  0.5384
 2505TIP3    H229151   3.594   6.332   9.050  0.7591  0.0900 -1.3556
 2506TIP3   OH229152   5.966   2.839   2.599  0.1762  1.1268 -0.1730
 2506TIP3    H129153   5.972   2.932   2.580 -1.4176  1.4005  0.5365
 2506TIP3    H229154   5.991   2.796   2.516  1.3955  2.1394 -0.3614
 2507TIP3   OH229155   3.175   0.121   2.480  0.3224 -0.2782  0.1337
 2507TIP3    H129156   3.080   0.134   2.479  0.5505  1.6535  0.5967
 2507TIP3    H229157   3.201   0.138   2.570  1.0059 -2.0271  0.3170
 2508TIP3   OH229158   4.525   5.403   8.775 -0.5666  0.0191  0.0212
 2508TIP3    H129159   4.527   5.443   8.862 -0.3771  0.8633 -0.3599
 2508TIP3    H229160   4.616   5.386   8.755 -0.7637 -4.1014  1.6945
 2509TIP3   OH229161   4.609   3.013   6.969  0.1161 -0.1154  0.8952
 2509TIP3    H129162   4.698   2.984   6.986  0.4164 -2.4922 -3.3247
 2509TIP3    H229163   4.620   3.094   6.918 -0.1835 -0.0898  0.8701
 2510TIP3   OH229164   6.267   0.162   0.867  0.2500 -0.1322  0.3496
 2510TIP3    H129165   6.346   0.119   0.900 -1.2893 -0.7425  3.7422
 2510TIP3    H229166   6.202   0.092   0.865 -0.9220  0.9282  0.5792
 2511TIP3   OH229167   3.892   5.363   8.277  0.0097 -0.5797 -0.3127
 2511TIP3    H129168   3.877   5.274   8.309  0.1559 -0.5186 -0.0750
 2511TIP3    H229169   3.930   5.409   8.352  1.5796 -0.7779 -0.9547
 2512TIP3   OH229170   3.603   5.985   2.361 -0.4079 -0.1118  0.1319
 2512TIP3    H129171   3.555   6.046   2.417 -0.9399  2.1454 -2.5193
 2512TIP3    H229172   3.589   6.019   2.272  2.1504 -2.1654 -1.1982
 2513TIP3   OH229173   3.285   1.249   1.551  0.1142 -0.2290  0.4323
 2513TIP3    H129174   3.196   1.244   1.516 -0.2193 -1.7993  1.3972
 2513TIP3    H229175   3.321   1.329   1.513 -1.7898  0.5996  0.2412
 2514TIP3   OH229176   2.853   1.933   1.139  0.6726 -0.0755  0.1110
 2514TIP3    H129177   2.855   2.005   1.076 -1.0647  0.1954  0.3150
 2514TIP3    H229178   2.856   1.976   1.225  0.0249 -0.2412  0.2260
 2515TIP3   OH229179   6.570   5.708   2.237 -0.2186  0.3229  0.8777
 2515TIP3    H129180   6.561   5.802   2.249  1.0796  0.3393  1.8331
 2515TIP3    H229181   6.556   5.671   2.324 -2.1052 -0.5083  0.2721
 2516TIP3   OH229182   1.072   5.524   8.834  0.8807  0.3026 -0.3590
 2516TIP3    H129183   1.000   5.536   8.896  1.6645  2.1927  0.2477
 2516TIP3    H229184   1.112   5.442   8.861 -1.4775 -1.2276 -1.2065
 2517TIP3   OH229185   0.186   2.562   9.111 -0.3265  0.1500  1.2768
 2517TIP3    H129186   0.155   2.477   9.142  0.2121  0.0053  1.4251
 2517TIP3    H229187   0.269   2.543   9.067 -1.2941  0.2854 -0.6931
 2518TIP3   OH229188   1.071   0.975   8.622 -0.9039 -0.3463 -0.5844
 2518TIP3    H129189   1.034   0.894   8.587 -1.2210 -0.1778 -0.6433
 2518TIP3    H229190   1.040   1.043   8.563  1.0581 -0.4026 -1.7790
 2519TIP3   OH229191   5.083   2.278   7.421  0.1512  0.1369  0.0549
 2519TIP3    H129192   5.134   2.278   7.341 -1.6515  1.0715 -1.1743
 2519TIP3    H229193   5.017   2.346   7.407 -3.7762 -3.3085 -0.0371
 2520TIP3   OH229194   1.705   5.268   9.155  0.5544  0.0521  0.5788
 2520TIP3    H129195   1.618   5.231   9.139  1.1086 -0.7380 -0.7027
 2520TIP3    H229196   1.687   5.348   9.204 -0.8304 -0.5952  1.1988
 2521TIP3   OH229197   5.791   0.405   1.147  0.5027 -0.2493  0.1961
 2521TIP3    H129198   5.703   0.427   1.117  0.4170  0.6885  1.0553
 2521TIP3    H229199   5.778   0.333   1.209  0.1801  0.6472  1.2060
 2522TIP3   OH229200   2.776   3.062   0.293  0.4187  0.0279  0.0632
 2522TIP3    H129201   2.705   3.126   0.299  0.9060  0.7749 -1.6531
 2522TIP3    H229202   2.806   3.067   0.202  3.1490  0.2604  0.8765
 2523TIP3   OH229203   1.367   0.247   0.761  0.0708 -0.4421  0.5759
 2523TIP3    H129204   1.361   0.340   0.740 -0.0875 -0.5944 -0.1072
 2523TIP3    H229205   1.384   0.244   0.855  0.5618  0.2848  0.5167
 2524TIP3   OH229206   0.923   4.375   9.147  0.0268  0.0775  0.2565
 2524TIP3    H129207   0.929   4.369   9.052  0.9628  0.0995  0.3008
 2524TIP3    H229208   0.936   4.285   9.178 -0.1416  0.0916  0.3723
 2525TIP3   OH229209   4.032   3.467   0.625  0.5692 -0.6754 -0.0936
 2525TIP3    H129210   4.041   3.556   0.590  2.0947 -0.7813 -0.0757
 2525TIP3    H229211   3.943   3.463   0.660  0.3729  0.7405 -0.3752
 2526TIP3   OH229212   1.738   6.424   1.843 -0.2038 -0.4726  0.0327
 2526TIP3    H129213   1.819   6.474   1.841 -1.1137  1.0487 -0.8002
 2526TIP3    H229214   1.669   6.489   1.828 -1.5652 -1.7467  0.5264
 2527TIP3   OH229215   2.619   6.504   1.102  0.3399 -0.1569 -0.3624
 2527TIP3    H129216   2.613   6.593   1.069 -1.5742 -0.6178 -1.3857
 2527TIP3    H229217   2.711   6.495   1.130  0.1439  2.7204  1.6599
 2528TIP3   OH229218   4.849   3.242   8.386  0.0548  0.2558  0.3347
 2528TIP3    H129219   4.906   3.309   8.425 -0.9774  0.8247  0.9096
 2528TIP3    H229220   4.794   3.212   8.458  0.6665 -1.4380  0.1564
 2529TIP3   OH229221   2.295   5.809   9.134 -0.3807 -0.0154 -0.1166
 2529TIP3    H129222   2.213   5.837   9.176 -0.4035  1.0392 -0.8315
 2529TIP3    H229223   2.357   5.879   9.155 -0.6059  0.9910 -2.4947
 2530TIP3   OH229224   0.888   5.186   1.637  0.0042  0.1105  0.0449
 2530TIP3    H129225   0.823   5.118   1.617  2.1684 -1.9743 -0.3796
 2530TIP3    H229226   0.842   5.268   1.622 -1.9429 -1.2649 -2.2610
 2531TIP3   OH229227   0.605   6.453   1.276  0.0631 -0.6873 -0.0775
 2531TIP3    H129228   0.624   6.531   1.224 -1.7775 -1.4991 -2.1370
 2531TIP3    H229229   0.571   6.487   1.359  1.4430  0.6639 -0.0308
 2532TIP3   OH229230   6.545   4.475   8.429 -0.0088 -0.1200 -0.1550
 2532TIP3    H129231   6.629   4.495   8.469  0.0486 -0.2890 -0.1901
 2532TIP3    H229232   6.559   4.489   8.335 -0.6263  1.9762  0.0222
 2533TIP3   OH229233   1.807   1.888   8.615  0.2533  0.2794 -0.3860
 2533TIP3    H129234   1.762   1.967   8.585 -0.0065  0.4151  0.3352
 2533TIP3    H229235   1.738   1.836   8.657  0.9414  1.0422  1.8515
 2534TIP3   OH229236   1.451   0.467   1.773  0.3532  0.2310 -0.2702
 2534TIP3    H129237   1.430   0.513   1.692  0.8544 -0.2476 -0.6774
 2534TIP3    H229238   1.403   0.384   1.768 -0.4977  0.6602  0.4341
 2535TIP3   OH229239   0.343   5.405   8.242 -0.1411  0.0752 -0.2154
 2535TIP3    H129240   0.410   5.436   8.182 -0.2533  0.7355 -0.0043
 2535TIP3    H229241   0.384   5.407   8.328 -0.4181  0.4417 -0.0908
 2536TIP3   OH229242   4.839   6.217   8.991 -0.4831  0.1795  0.3505
 2536TIP3    H129243   4.883   6.140   9.026 -0.2686  0.0282 -0.2402
 2536TIP3    H229244   4.829   6.198   8.898 -3.0093 -0.3883  0.6651
 2537TIP3   OH229245   2.744   6.114   8.897 -0.4676 -0.6286  0.0075
 2537TIP3    H129246   2.811   6.049   8.878 -0.9509 -1.2180  0.2931
 2537TIP3    H229247   2.661   6.068   8.883 -0.8408  0.4214 -1.5021
 2538TIP3   OH229248   0.621   2.570   1.196 -0.0317 -0.4640 -0.8365
 2538TIP3    H129249   0.552   2.561   1.130  1.2156 -0.4300 -2.2104
 2538TIP3    H229250   0.647   2.481   1.216  0.4967 -0.4382 -1.3979
 2539TIP3   OH229251   4.899   1.491   2.565 -0.4240  0.3478  0.8169
 2539TIP3    H129252   4.811   1.525   2.577 -0.2824  1.5550 -1.1437
 2539TIP3    H229253   4.957   1.561   2.596 -0.1567  0.2410  0.5708
 2540TIP3   OH229254   3.267   4.324   1.414 -0.1149 -0.1681  0.2143
 2540TIP3    H129255   3.225   4.242   1.387 -1.4576  0.3840  0.5363
 2540TIP3    H229256   3.233   4.340   1.502 -1.3484  1.6674 -0.5429
 2541TIP3   OH229257   5.107   5.368   1.014 -0.5430 -0.7822 -0.3386
 2541TIP3    H129258   5.202   5.363   1.017 -0.3429  1.0847 -1.8012
 2541TIP3    H229259   5.077   5.292   1.064  1.6926 -2.0528 -0.8310
 2542TIP3   OH229260   0.357   6.202   8.464 -0.0023 -0.0195  0.2490
 2542TIP3    H129261   0.414   6.182   8.389  0.5071  1.1921  0.2985
 2542TIP3    H229262   0.400   6.275   8.508  0.2338 -1.3276  2.3134
 2543TIP3   OH229263   5.824   4.641   7.767  0.4700  0.4832 -0.4055
 2543TIP3    H129264   5.883   4.634   7.692  0.3477 -1.4790 -0.3666
 2543TIP3    H229265   5.862   4.584   7.834  0.3624  1.8820  0.9031
 2544TIP3   OH229266   2.827   3.271   0.584  0.3841 -0.4895  0.7409
 2544TIP3    H129267   2.807   3.178   0.593  0.9180 -0.6297  0.5431
 2544TIP3    H229268   2.845   3.300   0.674  0.6050 -0.6741  0.7594
 2545TIP3   OH229269   2.582   4.573   7.117  0.3445  0.2644  0.6081
 2545TIP3    H129270   2.542   4.550   7.033 -0.5457  2.6511  0.2813
 2545TIP3    H229271   2.676   4.563   7.102  0.3016  1.9522 -1.1793
 2546TIP3   OH229272   4.292   1.185   2.202  0.4522  0.0936 -0.7375
 2546TIP3    H129273   4.324   1.106   2.158 -1.4974 -1.1413 -0.0584
 2546TIP3    H229274   4.234   1.226   2.137  0.9964  0.6733 -0.8694
 2547TIP3   OH229275   4.863   4.992   9.135 -0.5131 -0.0956  0.1274
 2547TIP3    H129276   4.894   4.905   9.109 -1.4620 -0.5453  0.4608
 2547TIP3    H229277   4.924   5.019   9.204  0.9245  0.3401 -1.2361
 2548TIP3   OH229278   2.665   2.605   0.364 -0.5210  0.0585 -0.0400
 2548TIP3    H129279   2.582   2.560   0.379 -0.5687 -1.1935 -3.3505
 2548TIP3    H229280   2.641   2.689   0.325 -0.2466  1.1744  2.0111
 2549TIP3   OH229281   0.507   3.674   0.184 -0.0840  0.3223 -0.0336
 2549TIP3    H129282   0.559   3.716   0.116  3.1620 -0.1724  1.9719
 2549TIP3    H229283   0.529   3.721   0.265 -0.7838 -1.5543  1.3255
 2550TIP3   OH229284   0.359   4.297   7.579 -0.0893  0.1086  0.5002
 2550TIP3    H129285   0.376   4.213   7.622  1.2966  0.4149  0.5967
 2550TIP3    H229286   0.275   4.285   7.535 -0.2928 -1.0645  1.1649
 2551TIP3   OH229287   6.583   1.460   7.376 -0.3113  0.5030 -0.6678
 2551TIP3    H129288   6.627   1.540   7.349  1.1592 -0.0535 -0.0676
 2551TIP3    H229289   6.490   1.477   7.364 -0.0025  2.1671 -0.8658
 2552TIP3   OH229290   1.020   5.806   0.212 -0.5544  0.1347 -0.9135
 2552TIP3    H129291   0.987   5.895   0.222 -1.3938 -0.1547 -1.0530
 2552TIP3    H229292   1.028   5.773   0.302  0.6586  0.6497 -0.8009
 2553TIP3   OH229293   4.222   4.342   1.046  0.4201  0.1581 -0.2545
 2553TIP3    H129294   4.200   4.300   0.963  0.0440 -0.3726  0.1057
 2553TIP3    H229295   4.317   4.347   1.046  0.4202  0.1835 -0.7262
 2554TIP3   OH229296   2.307   2.546   2.288 -0.4697 -0.0241  0.0243
 2554TIP3    H129297   2.353   2.462   2.279  0.1026  0.2662  0.1823
 2554TIP3    H229298   2.226   2.533   2.240  0.3762 -0.1158 -1.4525
 2555TIP3   OH229299   2.529   3.491   9.035 -0.3600 -0.7732 -0.4562
 2555TIP3    H129300   2.598   3.424   9.028 -0.9372 -1.6763  1.6491
 2555TIP3    H229301   2.449   3.441   9.048 -0.6354  0.2531  2.4670
 2556TIP3   OH229302   1.745   0.497   1.569  0.1545 -0.4028 -1.0717
 2556TIP3    H129303   1.680   0.501   1.499 -1.4369  0.3706  0.3385
 2556TIP3    H229304   1.705   0.548   1.640  3.0344  1.5293 -0.6705
 2557TIP3   OH229305   1.816   1.574   8.736  0.1756 -0.1529 -0.1969
 2557TIP3    H129306   1.842   1.565   8.644  1.3772  0.7068  0.0388
 2557TIP3    H229307   1.758   1.650   8.737 -0.0002 -0.2835 -0.2611
 2558TIP3   OH229308   3.925   0.192   0.825  0.1524  0.0262  0.5472
 2558TIP3    H129309   3.951   0.121   0.884 -1.6554 -0.4318  0.8666
 2558TIP3    H229310   3.880   0.254   0.883  0.6267  0.8260  0.0614
 2559TIP3   OH229311   1.458   5.302   1.230  0.0636  0.7690  0.3360
 2559TIP3    H129312   1.415   5.359   1.293 -0.9359  0.2649  0.1219
 2559TIP3    H229313   1.412   5.218   1.237 -0.5817  0.9038 -1.5564
 2560TIP3   OH229314   6.598   3.396   0.506  0.1043  0.4147 -0.2319
 2560TIP3    H129315   6.541   3.471   0.489 -0.6128 -0.2105 -0.6125
 2560TIP3    H229316   6.548   3.320   0.477  0.7873 -0.2286  0.2339
 2561TIP3   OH229317   4.899   0.511   0.570  0.0122  0.5611  0.1835
 2561TIP3    H129318   4.884   0.417   0.568  2.3583  0.1345 -1.1792
 2561TIP3    H229319   4.927   0.529   0.660 -2.4801  0.4080  1.0708
 2562TIP3   OH229320   6.353   6.032   2.057 -0.0009 -0.0215  0.3844
 2562TIP3    H129321   6.417   6.023   1.986  0.7091  0.3045  0.9654
 2562TIP3    H229322   6.399   6.000   2.134  0.0048  1.6412  1.1043
 2563TIP3   OH229323   6.633   6.245   1.197 -0.0827  0.1912  0.0944
 2563TIP3    H129324   6.673   6.197   1.270 -1.2182 -0.8871  0.0400
 2563TIP3    H229325   6.703   6.250   1.132  0.1443 -1.2728  0.1761
 2564TIP3   OH229326   1.320   1.940   0.760  0.8381 -0.3902  0.1660
 2564TIP3    H129327   1.227   1.961   0.758  1.0301  0.7202  1.5145
 2564TIP3    H229328   1.351   1.976   0.843  2.4254 -0.9502 -0.1499
 2565TIP3   OH229329   1.443   5.770   1.181 -0.4806 -0.3933 -0.7509
 2565TIP3    H129330   1.354   5.770   1.146 -0.4256 -2.2748 -1.0213
 2565TIP3    H229331   1.439   5.709   1.255  0.0070  1.5168  0.9235
 2566TIP3   OH229332   0.306   6.561   8.420  0.3359  0.5139 -0.3688
 2566TIP3    H129333   0.342   6.567   8.331  0.5072  0.8229 -0.2786
 2566TIP3    H229334   0.379   6.529   8.473  0.5271  1.2761 -0.1577
 2567TIP3   OH229335   0.377   3.911   1.988 -0.2952 -0.0533 -0.2165
 2567TIP3    H129336   0.305   3.871   2.036 -0.1066  0.4152  0.4686
 2567TIP3    H229337   0.360   4.005   1.994  0.8592  0.1147  0.7381
 2568TIP3   OH229338   6.278   2.719   0.755  0.3802  0.0571 -0.3640
 2568TIP3    H129339   6.368   2.705   0.728  0.6737  0.4604  0.3731
 2568TIP3    H229340   6.235   2.755   0.677  0.9003  0.0351 -0.6661
 2569TIP3   OH229341   5.500   5.070   9.125 -0.2447 -0.9125  0.1348
 2569TIP3    H129342   5.582   5.078   9.173 -0.0785 -1.1379 -0.1051
 2569TIP3    H229343   5.513   5.122   9.046 -0.4317 -0.7308  0.2215
 2570TIP3   OH229344   3.009   6.262   8.858 -0.4093 -0.7572  0.2260
 2570TIP3    H129345   3.074   6.193   8.842 -0.4645 -0.4940 -1.3284
 2570TIP3    H229346   2.925   6.219   8.844 -0.4879 -0.6454  0.3576
 2571TIP3   OH229347   4.206   2.432   0.170 -0.6812 -0.2126 -0.3180
 2571TIP3    H129348   4.195   2.476   0.086 -0.5093 -0.7898 -0.6456
 2571TIP3    H229349   4.280   2.373   0.157  0.2522  0.7008  0.6589
 2572TIP3   OH229350   1.044   2.059   8.788 -0.4368 -0.0827  0.3188
 2572TIP3    H129351   1.030   1.990   8.723 -1.2579  0.6705 -0.3307
 2572TIP3    H229352   0.966   2.056   8.843 -0.2401 -0.0116  0.5990
 2573TIP3   OH229353   4.301   0.651   0.108 -0.6934  0.1022 -0.7764
 2573TIP3    H129354   4.383   0.677   0.065 -0.4976  0.7531 -0.0105
 2573TIP3    H229355   4.313   0.557   0.126  1.1737  0.7565  2.0552
 2574TIP3   OH229356   5.109   0.056   7.912  0.2105 -0.2185 -0.2671
 2574TIP3    H129357   5.172   0.015   7.854  0.5750 -1.1531  0.7667
 2574TIP3    H229358   5.027   0.057   7.862  0.6313 -0.5541 -0.9703
 2575TIP3   OH229359   1.665   5.004   0.451  0.7607  0.3051  0.7262
 2575TIP3    H129360   1.591   5.062   0.429 -0.2328 -1.3696 -0.5811
 2575TIP3    H229361   1.630   4.916   0.439  2.4637 -0.5628  1.9188
 2576TIP3   OH229362   3.093   3.382   0.584 -0.4073  0.6331  0.4120
 2576TIP3    H129363   3.130   3.303   0.623  0.5754  0.6529 -0.4457
 2576TIP3    H229364   2.998   3.369   0.589 -0.2606 -0.3952  0.6894
 2577TIP3   OH229365   2.173   5.662   0.513  0.0454  0.0580 -0.2188
 2577TIP3    H129366   2.109   5.597   0.541 -1.2577  0.4181 -2.1633
 2577TIP3    H229367   2.138   5.745   0.544  1.2595 -0.0149  1.4908
 2578TIP3   OH229368   0.067   4.383   7.162 -0.2410  0.1319  0.3846
 2578TIP3    H129369   0.090   4.336   7.242 -0.4750 -0.0205  0.3632
 2578TIP3    H229370   0.151   4.400   7.119  0.0085  1.4231  1.3397
 2579TIP3   OH229371   4.915   2.812   2.253  0.3103 -0.6554 -0.1517
 2579TIP3    H129372   4.823   2.827   2.272  0.8770  0.9665  1.6134
 2579TIP3    H229373   4.959   2.894   2.276  2.1225 -1.1440 -1.5951
 2580TIP3   OH229374   0.083   6.621   0.772  0.1362  0.3567  0.2756
 2580TIP3    H129375   0.118   6.702   0.736  0.1446  0.3588  0.2886
 2580TIP3    H229376   0.114   6.619   0.863  0.0829  0.3703  0.2941
 2581TIP3   OH229377   2.099   1.448   8.364  0.6598  0.4663 -0.2571
 2581TIP3    H129378   2.142   1.388   8.426  1.1633  0.3281 -0.7338
 2581TIP3    H229379   2.171   1.484   8.312  0.1691 -0.1571 -1.4083
 2582TIP3   OH229380   2.029   1.213   8.203  0.3566  0.1968 -0.2472
 2582TIP3    H129381   2.070   1.295   8.232  1.3199  0.1421 -1.3832
 2582TIP3    H229382   2.051   1.150   8.272  1.3662  0.4079 -0.3690
 2583TIP3   OH229383   5.909   5.548   1.098  0.1202  0.4247  0.1793
 2583TIP3    H129384   5.965   5.604   1.153  0.7563  0.6536 -0.6804
 2583TIP3    H229385   5.948   5.554   1.011 -0.4284 -0.5328 -0.1425
 2584TIP3   OH229386   0.552   1.757   8.020  0.3679 -0.6307  0.7176
 2584TIP3    H129387   0.562   1.667   8.052  0.9701 -0.7870  0.1138
 2584TIP3    H229388   0.463   1.760   7.984 -0.0735 -0.6406  1.7849
 2585TIP3   OH229389   4.110   2.724   0.304 -0.0219  0.6211 -0.5226
 2585TIP3    H129390   4.186   2.671   0.281  0.6052  0.5631  1.5170
 2585TIP3    H229391   4.040   2.660   0.320 -0.2049  0.6200 -1.2594
 2586TIP3   OH229392   6.297   4.424   0.219  0.1025  0.0526  0.1229
 2586TIP3    H129393   6.234   4.410   0.290  0.9102  1.5344  1.1691
 2586TIP3    H229394   6.252   4.483   0.159  0.2270  0.6026  0.5551
 2587TIP3   OH229395   2.209   1.604   9.121  0.0009 -0.6594  0.3624
 2587TIP3    H129396   2.236   1.624   9.210  0.0294 -0.0626  0.2288
 2587TIP3    H229397   2.279   1.639   9.066  0.8585 -2.5647  0.1571
 2588TIP3   OH229398   1.363   5.048   1.181  0.0303  0.0255 -0.4323
 2588TIP3    H129399   1.344   4.998   1.102 -0.4819 -1.9518  0.8876
 2588TIP3    H229400   1.322   4.999   1.252 -2.0294  3.1885  0.8161
 2589TIP3   OH229401   3.155   6.095   1.005 -0.4531  0.0033  0.4648
 2589TIP3    H129402   3.200   6.084   1.089 -0.1250 -1.3107  0.1434
 2589TIP3    H229403   3.091   6.024   1.003  0.1709 -0.5379 -0.7881
 2590TIP3   OH229404   1.937   0.264   2.319 -0.0637 -0.1934  0.4770
 2590TIP3    H129405   1.906   0.186   2.364 -1.2469 -0.4301 -0.6966
 2590TIP3    H229406   1.998   0.231   2.253  1.0825  0.0867  1.3644
 2591TIP3   OH229407   3.907   2.016   1.477 -0.2281  0.1241  0.6043
 2591TIP3    H129408   3.964   1.951   1.436 -0.0969 -0.2839  1.3980
 2591TIP3    H229409   3.967   2.070   1.529 -0.5806 -0.4553  1.6343
 2592TIP3   OH229410   6.205   2.266   1.089  0.0734 -0.3589  0.5622
 2592TIP3    H129411   6.197   2.360   1.078  1.0647 -0.4887 -1.7784
 2592TIP3    H229412   6.157   2.229   1.015  1.5061 -1.6141  0.2027
 2593TIP3   OH229413   3.168   4.536   0.084 -0.4113 -0.2856  0.3304
 2593TIP3    H129414   3.118   4.591   0.024  0.1880  0.5864  0.6049
 2593TIP3    H229415   3.211   4.472   0.028 -1.1701 -0.5160  0.0104
 2594TIP3   OH229416   0.395   4.932   2.325  0.0666  0.4950  0.6727
 2594TIP3    H129417   0.414   5.004   2.384 -1.1374  0.9882  0.4834
 2594TIP3    H229418   0.440   4.955   2.244  0.1196  0.7786  0.7820
 2595TIP3   OH229419   1.957   3.303   2.768  0.1827 -0.2820 -0.2005
 2595TIP3    H129420   1.937   3.385   2.813  0.2787 -0.5691  0.3791
 2595TIP3    H229421   1.874   3.275   2.731  0.4853  0.9648 -1.9213
 2596TIP3   OH229422   1.716   0.245   3.022 -0.1412  0.4422 -0.0670
 2596TIP3    H129423   1.685   0.162   2.987  1.0740  0.0006 -0.1572
 2596TIP3    H229424   1.646   0.275   3.079  0.1459 -1.6019  1.4828
 2597TIP3   OH229425   1.544   1.359   2.462  0.3725  0.2204  0.0489
 2597TIP3    H129426   1.500   1.346   2.546  2.5710 -0.7413  1.1357
 2597TIP3    H229427   1.551   1.454   2.453 -0.3236  0.3455  0.7157
 2598TIP3   OH229428   3.420   5.243   1.835 -0.2183 -0.1363 -0.1207
 2598TIP3    H129429   3.358   5.316   1.836 -0.3336 -0.1647 -2.0508
 2598TIP3    H229430   3.388   5.185   1.766  0.2827 -1.6779  0.8949
 2599TIP3   OH229431   5.960   1.868   7.331 -0.0249  0.7199 -0.0434
 2599TIP3    H129432   5.957   1.799   7.264  0.9353  1.4362 -0.8644
 2599TIP3    H229433   6.054   1.883   7.346 -0.2157  0.6047  1.4531
 2600TIP3   OH229434   0.447   2.674   1.376 -0.2108  0.5781 -0.0072
 2600TIP3    H129435   0.511   2.643   1.312 -0.6862 -0.3830 -0.0456
 2600TIP3    H229436   0.444   2.769   1.364 -0.1159  0.4449 -1.2512
 2601TIP3   OH229437   2.782   6.689   8.652 -0.5676  0.3125 -0.9085
 2601TIP3    H129438   2.703   6.662   8.605 -1.2949 -0.0983  0.5107
 2601TIP3    H229439   2.817   6.760   8.599 -1.9190  0.5467 -1.5450
 2602TIP3   OH229440   5.941   2.806   7.653 -0.2394  0.2018 -0.0888
 2602TIP3    H129441   5.940   2.846   7.566 -0.6492 -0.2241 -0.2830
 2602TIP3    H229442   5.937   2.712   7.637  0.7631  0.0700  0.3661
 2603TIP3   OH229443   4.530   5.529   1.871  0.0500 -0.0459  0.4457
 2603TIP3    H129444   4.558   5.469   1.940  0.9393  0.6370  0.6921
 2603TIP3    H229445   4.435   5.519   1.868  0.3200 -3.5462 -1.4500
 2604TIP3   OH229446   5.684   5.805   0.171 -0.5467 -1.4733  0.4025
 2604TIP3    H129447   5.715   5.893   0.192 -0.9617 -1.0612 -0.6324
 2604TIP3    H229448   5.603   5.795   0.220 -0.6258 -1.1771  0.3333
 2605TIP3   OH229449   5.853   3.303   8.187 -0.1171  0.3326  0.1679
 2605TIP3    H129450   5.867   3.350   8.268 -1.6552  0.7380  0.2404
 2605TIP3    H229451   5.884   3.362   8.118  1.0115  0.0630  0.4248
 2606TIP3   OH229452   5.132   0.277   0.622 -0.4585 -0.4297  0.3401
 2606TIP3    H129453   5.191   0.337   0.668 -1.2049 -0.3723  1.2572
 2606TIP3    H229454   5.089   0.228   0.692 -0.7406 -1.1899 -0.3591
 2607TIP3   OH229455   1.731   3.778   8.113  0.3405 -0.2847  0.7930
 2607TIP3    H129456   1.803   3.730   8.155  1.0228 -0.5026 -0.5746
 2607TIP3    H229457   1.750   3.870   8.133  0.2029 -0.4323  1.6377
 2608TIP3   OH229458   5.186   2.079   1.124  0.2947  0.3843  0.3780
 2608TIP3    H129459   5.105   2.100   1.169  1.3707  2.3708  1.5441
 2608TIP3    H229460   5.166   2.091   1.031 -1.0283 -0.3267  0.5496
 2609TIP3   OH229461   6.083   5.600   0.434 -0.1465  0.0258 -0.1957
 2609TIP3    H129462   6.064   5.607   0.341 -0.7458 -0.1913 -0.0936
 2609TIP3    H229463   6.064   5.688   0.469  2.5242  0.8768 -0.6860
 2610TIP3   OH229464   1.624   5.981   2.047 -0.3133  0.0024  0.9463
 2610TIP3    H129465   1.656   5.910   1.992 -0.3547 -0.2618  1.2579
 2610TIP3    H229466   1.698   6.004   2.103 -0.6777 -0.6472  1.7040
 2611TIP3   OH229467   5.103   2.945   8.816 -0.5024 -0.2689 -0.1789
 2611TIP3    H129468   5.184   2.896   8.830  0.1629  1.3368  2.4816
 2611TIP3    H229469   5.129   3.037   8.826 -2.7693  0.2450  1.8852
 2612TIP3   OH229470   0.973   2.646   1.906  0.5513 -0.4415  0.2014
 2612TIP3    H129471   0.978   2.656   1.811 -1.3588 -0.9388  0.0186
 2612TIP3    H229472   1.013   2.727   1.940  1.0905 -0.1727 -1.0055
 2613TIP3   OH229473   3.503   1.037   2.355 -0.5580  0.3909  0.6911
 2613TIP3    H129474   3.560   1.103   2.314 -0.7730 -0.5501 -1.2153
 2613TIP3    H229475   3.560   0.961   2.367 -1.1544 -0.2373 -0.3637
 2614TIP3   OH229476   5.104   3.519   1.525  0.5053  0.1061  0.0859
 2614TIP3    H129477   5.165   3.467   1.576 -1.8303 -0.7513  2.2153
 2614TIP3    H229478   5.045   3.558   1.589 -0.2878  2.1594 -1.7339
 2615TIP3   OH229479   0.020   3.882   8.143 -0.0496  0.2278 -0.4290
 2615TIP3    H129480   0.105   3.897   8.183 -0.6832 -0.1302  1.1281
 2615TIP3    H229481  -0.037   3.951   8.178 -1.1160 -1.2642  0.9599
 2616TIP3   OH229482   1.017   5.167   7.813  0.0630  0.0650  0.0632
 2616TIP3    H129483   1.108   5.196   7.811  0.5263 -1.2209  0.9781
 2616TIP3    H229484   0.977   5.220   7.882  0.2389  0.3299 -0.0388
 2617TIP3   OH229485   2.880   4.497   1.311 -0.3469  0.0551 -0.2624
 2617TIP3    H129486   2.791   4.489   1.278  0.3347  0.0403 -2.2812
 2617TIP3    H229487   2.916   4.409   1.306 -1.0440 -0.5977  3.4247
 2618TIP3   OH229488   1.682   6.329   2.092 -0.2093  0.6068  0.3473
 2618TIP3    H129489   1.703   6.358   2.003  1.7427 -2.6729 -0.4627
 2618TIP3    H229490   1.765   6.292   2.124 -1.7631 -1.6891  2.0289
 2619TIP3   OH229491   3.698   6.357   7.467 -0.0757 -0.0962  0.3686
 2619TIP3    H129492   3.738   6.386   7.549  0.7972  0.5714 -0.2794
 2619TIP3    H229493   3.754   6.393   7.398 -1.4303  0.3298 -0.5610
 2620TIP3   OH229494   3.293   4.179   8.121 -0.1142  0.1959 -0.3132
 2620TIP3    H129495   3.245   4.134   8.190 -0.7163 -0.0875 -0.9166
 2620TIP3    H229496   3.226   4.213   8.062  0.3007  1.9174  0.1201
 2621TIP3   OH229497   3.471   3.835   2.548  0.0865 -0.3983  0.1604
 2621TIP3    H129498   3.528   3.887   2.491  0.4407 -1.2488 -0.2964
 2621TIP3    H229499   3.516   3.750   2.554 -0.4161 -0.6123  0.9652
 2622TIP3   OH229500   3.873   2.203   2.367  0.4147 -0.3386 -0.1770
 2622TIP3    H129501   3.806   2.246   2.313 -0.0223 -1.5097 -0.5847
 2622TIP3    H229502   3.949   2.197   2.310  0.6556  0.3437  0.0545
 2623TIP3   OH229503   4.941   4.405   3.076 -0.1864 -0.3848 -0.5129
 2623TIP3    H129504   4.956   4.395   2.982 -2.8620  0.4905 -1.1372
 2623TIP3    H229505   4.993   4.481   3.101 -0.8279  0.4842 -1.7179
 2624TIP3   OH229506   5.638   1.607   3.492 -0.0837 -0.1260  0.4396
 2624TIP3    H129507   5.714   1.568   3.536  1.0588 -0.6187 -1.8154
 2624TIP3    H229508   5.651   1.701   3.500  1.0196 -0.2004 -0.2883
 2625TIP3   OH229509   4.911   1.497   7.962  0.0566 -0.1170  0.2369
 2625TIP3    H129510   4.906   1.423   8.022  2.6116 -0.9584 -0.4547
 2625TIP3    H229511   4.992   1.482   7.912 -1.1761  1.2791 -2.4129
 2626TIP3   OH229512   4.776   1.176   2.638 -0.0720 -0.4295  0.2064
 2626TIP3    H129513   4.705   1.232   2.604  0.3272 -0.8226 -1.3580
 2626TIP3    H229514   4.737   1.131   2.713 -1.1693  0.1150 -0.0102
 2627TIP3   OH229515   3.172   3.940   2.243  0.1701  0.1231  0.1856
 2627TIP3    H129516   3.132   4.026   2.240  1.4150  0.9664  3.4072
 2627TIP3    H229517   3.265   3.956   2.232  0.3580 -0.8928  0.1717
 2628TIP3   OH229518   6.198   4.682   2.085 -0.1954 -0.5510  0.6355
 2628TIP3    H129519   6.156   4.642   2.009 -0.2336 -2.4723  1.6212
 2628TIP3    H229520   6.127   4.697   2.147 -0.0543  0.3602  0.5972
 2629TIP3   OH229521   2.386   1.370   8.214 -0.7050  0.1413  0.1226
 2629TIP3    H129522   2.442   1.323   8.152 -1.3823 -1.8031  0.8928
 2629TIP3    H229523   2.358   1.448   8.167  1.0964  0.1980 -0.9584
 2630TIP3   OH229524   3.563   3.298   2.139  0.1780 -0.4654  0.6127
 2630TIP3    H129525   3.544   3.374   2.194  0.1945 -0.8669  1.1814
 2630TIP3    H229526   3.640   3.258   2.179  1.8197  0.6971 -1.2172
 2631TIP3   OH229527   0.517   0.117   1.683  0.0082 -0.7921 -0.1755
 2631TIP3    H129528   0.453   0.116   1.755 -0.3748  0.6179 -0.4663
 2631TIP3    H229529   0.543   0.208   1.677  1.9602 -1.3159 -0.1722
 2632TIP3   OH229530   2.972   3.793   0.550 -0.0027 -0.0908 -0.4899
 2632TIP3    H129531   2.917   3.855   0.598  2.3517  0.8049  1.2209
 2632TIP3    H229532   2.968   3.713   0.604  1.2908  0.3758  0.3434
 2633TIP3   OH229533   5.985   0.216   0.771 -0.5997 -0.8081 -0.0144
 2633TIP3    H129534   5.997   0.126   0.801 -0.3700 -0.4179  1.1261
 2633TIP3    H229535   6.073   0.248   0.753 -0.5593 -0.4343  0.7794
 2634TIP3   OH229536   3.401   4.146   7.795 -0.0810 -0.5587  0.2321
 2634TIP3    H129537   3.345   4.223   7.805 -0.1744 -0.8354  2.2126
 2634TIP3    H229538   3.436   4.153   7.706 -1.1386  1.0413 -0.0978
 2635TIP3   OH229539   6.338   4.893   8.963 -0.0581 -0.1708  0.1955
 2635TIP3    H129540   6.242   4.897   8.964 -0.0357  0.6424  0.0265
 2635TIP3    H229541   6.358   4.804   8.935 -0.7820  0.2525 -1.8672
 2636TIP3   OH229542   6.228   4.959   0.527  0.8312  0.1342  0.0693
 2636TIP3    H129543   6.220   5.051   0.502 -0.0295  0.4347  1.4097
 2636TIP3    H229544   6.232   4.960   0.622 -0.8218 -1.3130  0.1982
 2637TIP3   OH229545   0.420   5.803   1.635  0.1275 -0.5664 -0.0896
 2637TIP3    H129546   0.407   5.873   1.699 -0.2875 -0.0491 -0.7225
 2637TIP3    H229547   0.350   5.740   1.653  0.9161 -1.1829  0.9308
 2638TIP3   OH229548   5.664   5.358   8.484  0.1013 -0.3077  0.0304
 2638TIP3    H129549   5.627   5.299   8.418 -0.2902  0.2605 -0.2633
 2638TIP3    H229550   5.619   5.334   8.565 -1.4401  0.8211 -0.4478
 2639TIP3   OH229551   3.698   5.249   7.271 -0.1168  0.3797 -0.0633
 2639TIP3    H129552   3.713   5.160   7.305 -0.5367 -0.1967 -1.3282
 2639TIP3    H229553   3.687   5.303   7.349  1.9544 -0.3230  0.7932
 2640TIP3   OH229554   5.323   0.046   1.207  0.0152 -0.3266  0.1952
 2640TIP3    H129555   5.392   0.032   1.142 -0.3585  0.1724 -0.3182
 2640TIP3    H229556   5.275   0.123   1.176 -0.6080 -0.5017  0.6871
 2641TIP3   OH229557   2.175   6.099   7.855 -1.0706  0.4399 -0.5928
 2641TIP3    H129558   2.218   6.158   7.917  0.0146 -0.2165 -0.7136
 2641TIP3    H229559   2.238   6.029   7.839 -1.2377  0.6780 -2.5775
 2642TIP3   OH229560   5.505   5.855   9.143 -0.2436 -0.5613  0.0051
 2642TIP3    H129561   5.517   5.950   9.151 -1.7117 -0.3747  0.2678
 2642TIP3    H229562   5.523   5.822   9.231  1.0948 -0.6612 -0.2743
 2643TIP3   OH229563   1.196   2.161   8.403 -0.0145  0.3959  0.5072
 2643TIP3    H129564   1.224   2.155   8.495 -0.3093  1.3190  0.6738
 2643TIP3    H229565   1.195   2.255   8.385  3.1708  0.1818 -1.4444
 2644TIP3   OH229566   5.247   1.074   8.313  0.2441 -0.1305  0.6216
 2644TIP3    H129567   5.265   0.983   8.289 -1.7733 -0.0161 -1.6780
 2644TIP3    H229568   5.252   1.123   8.231  0.2996  1.6860  1.6540
 2645TIP3   OH229569   0.300   5.021   8.945  0.3735  0.3401 -0.0117
 2645TIP3    H129570   0.232   4.982   8.890 -0.6690  1.6844  0.2872
 2645TIP3    H229571   0.308   5.111   8.914 -0.4694  1.2374  2.2115
 2646TIP3   OH229572   3.417   4.745   1.906 -0.0484 -0.2733  0.6049
 2646TIP3    H129573   3.357   4.673   1.886 -0.0730 -0.7057  2.1267
 2646TIP3    H229574   3.382   4.783   1.987  0.0448  1.3698 -0.0948
 2647TIP3   OH229575   4.805   6.129   0.849 -0.2815  0.0653  0.0875
 2647TIP3    H129576   4.819   6.035   0.839 -1.5760 -0.1013 -0.4114
 2647TIP3    H229577   4.840   6.168   0.769 -0.8223 -0.1327 -0.2537
 2648TIP3   OH229578   0.979   6.084   7.138  0.6148 -0.0423 -1.1565
 2648TIP3    H129579   0.997   6.143   7.211 -1.3526 -0.0081 -0.6510
 2648TIP3    H229580   1.064   6.069   7.097  1.1191  3.7659 -1.8171
 2649TIP3   OH229581   1.647   4.893   8.570 -0.3393  0.7422 -0.2231
 2649TIP3    H129582   1.727   4.850   8.540  0.3214  1.7240  0.0628
 2649TIP3    H229583   1.653   4.890   8.666  0.6606  3.0397 -0.1426
 2650TIP3   OH229584   6.100   6.627   0.869  0.1805 -0.6437 -0.4119
 2650TIP3    H129585   6.021   6.604   0.918  0.4446 -1.1154 -0.1931
 2650TIP3    H229586   6.134   6.543   0.838  1.4260 -0.6173  0.7913
 2651TIP3   OH229587   6.556   5.596   1.320 -0.3158 -0.0335  0.1210
 2651TIP3    H129588   6.481   5.538   1.308 -0.7792 -0.1818  3.0948
 2651TIP3    H229589   6.565   5.606   1.414  1.6936  2.2585 -0.1936
 2652TIP3   OH229590   4.788   3.284   2.765 -0.0812  0.4830  0.0126
 2652TIP3    H129591   4.720   3.218   2.748  0.2961  0.0185  0.2924
 2652TIP3    H229592   4.757   3.331   2.843 -1.8711  2.6862 -1.8558
 2653TIP3   OH229593   6.254   2.198   2.448  0.3937 -0.1241 -0.0017
 2653TIP3    H129594   6.245   2.195   2.543  3.3316  0.6926  0.3727
 2653TIP3    H229595   6.347   2.211   2.432 -0.0113 -0.1480 -3.0148
 2654TIP3   OH229596   1.434   3.497   7.303  0.1583 -0.0329  0.3454
 2654TIP3    H129597   1.395   3.518   7.217  0.0935 -0.7780  0.1913
 2654TIP3    H229598   1.528   3.498   7.287  0.1229 -2.0199 -0.1940
 2655TIP3   OH229599   1.555   0.766   8.681  0.3948 -0.2592 -0.8002
 2655TIP3    H129600   1.640   0.787   8.719  0.1818 -0.5576 -0.1397
 2655TIP3    H229601   1.575   0.717   8.601  0.8477  0.1708 -0.9517
 2656TIP3   OH229602   2.989   2.218   3.023  0.2818  0.6008 -0.2914
 2656TIP3    H129603   2.983   2.128   2.991  1.4554  0.1207  0.7607
 2656TIP3    H229604   2.998   2.271   2.944 -0.2157 -0.2076 -0.9084
 2657TIP3   OH229605   1.750   6.182   1.399 -0.4593 -0.1808 -0.3356
 2657TIP3    H129606   1.839   6.150   1.412  0.0722  0.8396 -1.2838
 2657TIP3    H229607   1.710   6.177   1.486  1.2080  1.3217  0.6057
 2658TIP3   OH229608   5.831   4.869   0.137 -0.8450  0.2897 -0.0102
 2658TIP3    H129609   5.915   4.861   0.091 -1.4313 -0.1883 -1.0186
 2658TIP3    H229610   5.855   4.877   0.229  0.3456  0.9770 -0.3548
 2659TIP3   OH229611   2.083   3.044   7.772  0.0003 -0.0606 -0.8836
 2659TIP3    H129612   2.145   3.115   7.789  0.6689 -0.8788  0.1940
 2659TIP3    H229613   2.014   3.085   7.719  0.9465  1.1069 -1.2699
 2660TIP3   OH229614   5.666   5.933   1.888  0.3986 -0.0473  0.3438
 2660TIP3    H129615   5.684   5.922   1.794  0.8566 -0.7489  0.5123
 2660TIP3    H229616   5.596   5.999   1.891  1.1309  0.8024 -0.4421
 2661TIP3   OH229617   3.536   3.562   1.271 -0.1751 -0.1292 -0.2487
 2661TIP3    H129618   3.537   3.574   1.177  0.8393 -2.6766 -0.6390
 2661TIP3    H229619   3.591   3.632   1.305  1.0039 -0.2873 -1.7405
 2662TIP3   OH229620   2.427   5.015   7.839  0.9453 -0.1264  0.1042
 2662TIP3    H129621   2.485   4.954   7.884 -0.8317 -1.1911  1.0572
 2662TIP3    H229622   2.369   4.959   7.786  0.8334  0.9077 -0.9201
 2663TIP3   OH229623   1.907   1.471   2.052 -0.2109 -0.6485 -0.4768
 2663TIP3    H129624   1.851   1.394   2.057 -0.4304 -0.4688 -0.1165
 2663TIP3    H229625   1.993   1.441   2.082  0.1253 -1.1389 -1.8540
 2664TIP3   OH229626   1.571   4.471   2.576  0.3404  0.4745 -0.1183
 2664TIP3    H129627   1.500   4.523   2.539  0.0500  1.8979  2.2659
 2664TIP3    H229628   1.526   4.398   2.620  0.4260  0.6363  0.2429
 2665TIP3   OH229629   2.847   5.215   1.382 -0.2659 -0.1708 -0.1493
 2665TIP3    H129630   2.927   5.220   1.435 -0.8146  0.3908  0.6464
 2665TIP3    H229631   2.877   5.226   1.292  0.7433 -1.6482 -0.0153
 2666TIP3   OH229632   2.258   1.800   0.522 -0.4098 -0.2980 -0.2638
 2666TIP3    H129633   2.214   1.856   0.586  0.8661  2.2975 -1.5114
 2666TIP3    H229634   2.279   1.720   0.571 -1.4022  0.6810  1.9114
 2667TIP3   OH229635   0.690   1.720   0.648 -0.4252 -0.1809 -0.7665
 2667TIP3    H129636   0.602   1.689   0.668 -0.3413 -0.6589 -1.1106
 2667TIP3    H229637   0.747   1.645   0.666 -0.0642  0.1858 -0.3547
 2668TIP3   OH229638   3.562   6.549   1.380  0.3530  0.4404 -0.1780
 2668TIP3    H129639   3.481   6.598   1.393 -1.3452 -2.2545  0.1470
 2668TIP3    H229640   3.591   6.572   1.292 -1.4357  0.5823 -0.7586
 2669TIP3   OH229641   2.077   3.436   9.207  0.4479 -0.0725  0.5313
 2669TIP3    H129642   2.033   3.514   9.242 -0.6567  0.1619 -1.2620
 2669TIP3    H229643   2.019   3.364   9.230  0.4530 -0.1073  0.4333
 2670TIP3   OH229644   3.062   3.824   8.879  0.0630 -0.8612  0.7102
 2670TIP3    H129645   3.058   3.912   8.917 -0.7969 -0.7574  0.4013
 2670TIP3    H229646   3.138   3.827   8.820 -0.6160  0.0456 -0.1700
 2671TIP3   OH229647   2.976   2.700   2.965  0.4752 -0.2292 -0.1153
 2671TIP3    H129648   3.034   2.633   3.000  1.1426  1.4819  2.3421
 2671TIP3    H229649   2.888   2.673   2.991  0.8809  0.5594  2.3076
 2672TIP3   OH229650   3.389   4.715   9.047 -0.5611  0.9321  0.2059
 2672TIP3    H129651   3.371   4.698   8.954 -0.2673 -0.0631  0.3245
 2672TIP3    H229652   3.361   4.806   9.060  0.4603  1.4688 -1.1331
 2673TIP3   OH229653   2.212   0.867   2.383  0.1390 -0.1397  0.0313
 2673TIP3    H129654   2.167   0.861   2.298 -0.6263 -0.8345  0.4723
 2673TIP3    H229655   2.292   0.915   2.364 -0.3620  0.3336 -0.9506
 2674TIP3   OH229656   0.702   4.738   1.160  0.4772  0.6603 -0.3445
 2674TIP3    H129657   0.667   4.819   1.122 -1.2631  0.2501  0.2683
 2674TIP3    H229658   0.633   4.673   1.147  0.7470 -0.0552  1.4530
 2675TIP3   OH229659   2.298   3.313   9.076  0.2187  0.0566  0.2990
 2675TIP3    H129660   2.233   3.377   9.103 -0.4685  0.0222 -1.1638
 2675TIP3    H229661   2.254   3.259   9.010  1.4224 -0.5885 -0.0236
 2676TIP3   OH229662   0.747   2.267   0.867 -0.0085  0.1185 -0.1064
 2676TIP3    H129663   0.719   2.306   0.950  0.5808  1.6686 -0.6011
 2676TIP3    H229664   0.823   2.319   0.841  1.9203 -2.4493  0.0135
 2677TIP3   OH229665   2.881   4.373   0.484 -0.2992 -0.6766  0.7001
 2677TIP3    H129666   2.873   4.465   0.457 -1.2697 -1.5003 -2.1578
 2677TIP3    H229667   2.794   4.336   0.468  0.9960 -2.9332 -1.8898
 2678TIP3   OH229668   2.761   0.093   0.681  0.0659  0.5862  0.1874
 2678TIP3    H129669   2.686   0.036   0.666  0.4142  0.2416 -0.3008
 2678TIP3    H229670   2.728   0.181   0.663 -0.4646  0.5473  0.9063
 2679TIP3   OH229671   1.671   4.337   8.681  0.5107 -0.2838 -0.2000
 2679TIP3    H129672   1.711   4.285   8.611 -1.0681 -0.9284 -0.6659
 2679TIP3    H229673   1.678   4.427   8.651  1.1442 -0.4322 -0.5079
 2680TIP3   OH229674   2.808   4.675   8.747  0.2943  0.1052  0.3267
 2680TIP3    H129675   2.805   4.736   8.673  1.1585 -0.1474  0.0705
 2680TIP3    H229676   2.782   4.729   8.822 -1.3594  0.1704 -0.2550
 2681TIP3   OH229677   6.548   3.530   8.426 -0.1402  0.2862  0.0368
 2681TIP3    H129678   6.557   3.562   8.337  0.7444 -1.3965 -0.5136
 2681TIP3    H229679   6.462   3.488   8.428  0.6552 -1.4273 -0.6315
 2682TIP3   OH229680   2.836   6.398   8.533  0.0165  0.4075  0.0685
 2682TIP3    H129681   2.794   6.467   8.481 -2.0161  0.4838  1.6757
 2682TIP3    H229682   2.776   6.323   8.526  0.8287 -0.2997  0.5263
 2683TIP3   OH229683   1.881   4.196   2.690  0.0182  0.5899 -0.2640
 2683TIP3    H129684   1.894   4.102   2.707  1.8028  0.6805 -0.9484
 2683TIP3    H229685   1.804   4.219   2.742  1.2881 -0.5972  2.3002
 2684TIP3   OH229686   4.358   1.032   8.496  0.3933 -0.1250  0.0686
 2684TIP3    H129687   4.339   1.118   8.457 -1.1875 -0.3086  0.3806
 2684TIP3    H229688   4.453   1.030   8.503  0.4923  1.3827 -0.4491
 2685TIP3   OH229689   6.506   3.776   7.006 -0.0537  0.1422 -0.5609
 2685TIP3    H129690   6.494   3.848   6.944 -1.8593  1.8619  1.5938
 2685TIP3    H229691   6.420   3.735   7.011  0.3440 -0.6284  0.0229
 2686TIP3   OH229692   4.456   6.403   1.642 -0.1309 -0.0396  0.0356
 2686TIP3    H129693   4.442   6.309   1.635 -0.1158 -0.1275  1.0829
 2686TIP3    H229694   4.539   6.413   1.688  0.5464  0.5032 -1.2340
 2687TIP3   OH229695   4.360   4.691   0.831  0.4552  0.0014 -0.0164
 2687TIP3    H129696   4.321   4.746   0.899  0.1875 -0.8471  0.5332
 2687TIP3    H229697   4.407   4.752   0.775 -0.4367  0.8777  0.1574
 2688TIP3   OH229698   2.182   0.085   8.577  0.0652  0.2811 -0.6896
 2688TIP3    H129699   2.208   0.019   8.640 -0.3079  0.3544 -0.4537
 2688TIP3    H229700   2.200   0.169   8.621  0.5772  0.3369 -1.0046
 2689TIP3   OH229701   0.030   0.705   7.957  0.0836 -0.2521  0.5224
 2689TIP3    H129702   0.055   0.695   7.865  0.6971 -0.8275  0.7402
 2689TIP3    H229703  -0.040   0.641   7.970 -0.5906  0.4098  0.2575
 2690TIP3   OH229704   4.944   4.668   2.723  0.2402  0.3425  0.3245
 2690TIP3    H129705   4.942   4.751   2.770  0.9162  0.8391 -0.4784
 2690TIP3    H229706   4.964   4.602   2.790 -0.4037  0.8043  0.9824
 2691TIP3   OH229707   6.044   4.947   1.313 -0.7843 -0.6739 -0.0451
 2691TIP3    H129708   6.140   4.951   1.317 -0.5482 -1.4164 -2.9875
 2691TIP3    H229709   6.024   4.854   1.319 -1.2613 -0.5876 -0.2651
 2692TIP3   OH229710   5.024   6.652   1.828  0.1628  0.4027 -0.0712
 2692TIP3    H129711   4.943   6.607   1.802 -0.5212  2.2278 -1.3161
 2692TIP3    H229712   5.084   6.637   1.755 -0.6642  2.8290 -1.3722
 2693TIP3   OH229713   6.600   2.407   7.693 -0.0511  0.1057 -0.3923
 2693TIP3    H129714   6.677   2.464   7.684  0.6424 -0.5334  1.2268
 2693TIP3    H229715   6.550   2.423   7.613  0.3852  2.5928 -0.2491
 2694TIP3   OH229716   1.245   2.792   0.591 -0.1352 -0.0595 -0.2732
 2694TIP3    H129717   1.265   2.703   0.563 -1.4538 -1.0843  1.8221
 2694TIP3    H229718   1.294   2.803   0.672 -0.4233  0.9447 -0.2267
 2695TIP3   OH229719   4.412   6.681   0.287  0.0022 -0.4775  0.5884
 2695TIP3    H129720   4.500   6.650   0.310 -0.1797 -1.6386 -0.1994
 2695TIP3    H229721   4.355   6.608   0.308 -0.4627 -0.6615 -1.1833
 2696TIP3   OH229722   5.967   5.426   2.413 -0.1391  0.7734 -0.3461
 2696TIP3    H129723   5.879   5.450   2.385  0.3164  2.3136 -0.5532
 2696TIP3    H229724   5.990   5.491   2.479  0.3438 -0.4266  0.7072
 2697TIP3   OH229725   4.287   5.704   0.723 -0.1606  0.5844 -0.1337
 2697TIP3    H129726   4.341   5.780   0.744  0.0995  0.3890 -0.0878
 2697TIP3    H229727   4.338   5.629   0.754 -0.8933  0.4553  0.8233
 2698TIP3   OH229728   3.891   4.288   0.233 -0.8925  0.5201  0.2404
 2698TIP3    H129729   3.911   4.351   0.164 -1.1160  0.2711 -0.0572
 2698TIP3    H229730   3.938   4.209   0.207 -1.5169  0.2128  0.0079
 2699TIP3   OH229731   6.123   6.499   7.957 -0.1512  0.1052  0.4729
 2699TIP3    H129732   6.180   6.457   8.021 -0.1198  0.8284  0.9232
 2699TIP3    H229733   6.128   6.442   7.880  1.9644  0.6718  0.1284
 2700TIP3   OH229734   3.157   5.667   7.929 -0.0792  0.2019 -0.0592
 2700TIP3    H129735   3.237   5.635   7.971  0.1517 -0.7266 -1.1441
 2700TIP3    H229736   3.087   5.641   7.988  0.4660  2.1165  1.5315
 2701TIP3   OH229737   1.510   2.901   8.042 -0.3204  0.4273  0.4435
 2701TIP3    H129738   1.519   2.850   7.961 -1.2636  0.5217  0.2729
 2701TIP3    H229739   1.423   2.879   8.075 -0.0041  0.5183  1.3538
 2702TIP3   OH229740   1.165   2.227   0.533  0.0575 -0.1043  0.0752
 2702TIP3    H129741   1.220   2.260   0.604  0.3778 -1.8656  0.6933
 2702TIP3    H229742   1.223   2.173   0.480 -0.0471  1.5695 -1.8814
 2703TIP3   OH229743   5.288   3.999   7.997  0.3716 -0.1824 -0.4881
 2703TIP3    H129744   5.344   3.966   7.927 -0.0343 -0.2271 -0.7977
 2703TIP3    H229745   5.278   3.925   8.057 -2.6570 -1.6153 -2.4712
 2704TIP3   OH229746   4.193   1.619   3.042 -0.5857 -0.3648 -0.0056
 2704TIP3    H129747   4.243   1.684   3.091  1.3243 -1.8949  0.1917
 2704TIP3    H229748   4.127   1.588   3.104 -1.5703  1.3932 -0.1345
 2705TIP3   OH229749   2.185   1.118   0.446 -0.4109  0.0393 -0.1054
 2705TIP3    H129750   2.281   1.114   0.448 -0.3700  0.0254 -1.3768
 2705TIP3    H229751   2.157   1.027   0.457 -0.2645 -0.0074 -0.1151
 2706TIP3   OH229752   0.594   4.342   8.329  0.5592  0.2565 -0.1318
 2706TIP3    H129753   0.511   4.388   8.323  2.3555  4.1014  1.0721
 2706TIP3    H229754   0.636   4.356   8.243  0.0635 -1.6985 -0.7526
 2707TIP3   OH229755   6.292   3.573   0.627  0.6444 -0.2186  0.2901
 2707TIP3    H129756   6.343   3.563   0.707  0.6242 -0.5985  0.2566
 2707TIP3    H229757   6.206   3.602   0.657  0.2960 -1.4155  0.5019
 2708TIP3   OH229758   4.539   1.711   8.954 -0.0657  0.0199  0.9849
 2708TIP3    H129759   4.493   1.727   8.871  1.2198  0.3472  0.3096
 2708TIP3    H229760   4.612   1.772   8.954  0.6873 -0.8367  1.7763
 2709TIP3   OH229761   2.051   0.575   0.311 -0.3365 -0.2941  0.5471
 2709TIP3    H129762   2.056   0.593   0.217 -1.1676 -1.7605  0.1906
 2709TIP3    H229763   2.033   0.660   0.351  3.5185  1.0751 -0.2156
 2710TIP3   OH229764   3.061   3.071   7.957 -0.5014 -0.2459 -0.0748
 2710TIP3    H129765   3.148   3.110   7.952 -0.1288 -0.4390  3.2410
 2710TIP3    H229766   3.067   2.994   7.900  2.0265 -1.0850  1.1488
 2711TIP3   OH229767   3.484   0.678   3.510  0.4356  0.2261 -0.1265
 2711TIP3    H129768   3.563   0.724   3.483 -0.7290  1.1317 -2.3683
 2711TIP3    H229769   3.472   0.610   3.443 -0.4990 -0.0843  0.3333
 2712TIP3   OH229770   5.919   4.495   8.434  0.3480  0.7063  0.3518
 2712TIP3    H129771   5.843   4.522   8.383  0.4318  0.0316 -0.1582
 2712TIP3    H229772   5.888   4.422   8.488 -0.0167  2.0970  2.1084
 2713TIP3   OH229773   5.813   1.455   1.501  0.2907  0.0671  0.7247
 2713TIP3    H129774   5.899   1.451   1.542 -0.2068 -1.3927  1.7168
 2713TIP3    H229775   5.754   1.417   1.566 -1.5310  3.0916  1.0416
 2714TIP3   OH229776   4.588   3.588   1.668 -0.1614 -0.2438  0.1146
 2714TIP3    H129777   4.572   3.610   1.576 -1.2494  0.4664  0.4514
 2714TIP3    H229778   4.664   3.530   1.666 -1.0104 -1.3773 -1.3551
 2715TIP3   OH229779   3.017   4.400   0.756  0.1250 -0.2565  0.0512
 2715TIP3    H129780   2.950   4.428   0.818 -0.1836 -0.7212 -0.0650
 2715TIP3    H229781   3.053   4.481   0.720 -1.6587  0.0017 -1.2858
 2716TIP3   OH229782   5.627   4.900   1.792  0.0541  0.4339  0.0833
 2716TIP3    H129783   5.576   4.977   1.767  0.3921  0.8285  0.6073
 2716TIP3    H229784   5.690   4.889   1.721 -0.3925  0.2696 -0.2952
 2717TIP3   OH229785   2.663   1.305   1.950  0.8207 -0.2931  0.2084
 2717TIP3    H129786   2.750   1.341   1.965  1.3808 -1.3287 -0.4122
 2717TIP3    H229787   2.604   1.363   1.998  1.9111  0.0459  1.1866
 2718TIP3   OH229788   5.322   3.504   8.434 -0.2484 -0.4856 -0.0733
 2718TIP3    H129789   5.318   3.412   8.407 -0.9329 -0.5275  0.1645
 2718TIP3    H229790   5.398   3.539   8.387 -1.6335 -0.4453 -2.4496
 2719TIP3   OH229791   2.529   4.752   2.239  0.9281  0.1992  0.1399
 2719TIP3    H129792   2.437   4.732   2.226  0.5230  2.4520 -0.8386
 2719TIP3    H229793   2.573   4.711   2.165  0.7147 -0.6644  0.4744
 2720TIP3   OH229794   4.088   6.312   1.798 -0.5191  0.2867  0.1451
 2720TIP3    H129795   4.151   6.364   1.846 -0.0479  0.1336 -0.2972
 2720TIP3    H229796   4.055   6.248   1.862 -0.4059  0.5220  0.4373
 2721TIP3   OH229797   3.226   6.151   8.575  0.3329  0.0898  0.4408
 2721TIP3    H129798   3.219   6.126   8.668  3.3911 -2.0708  0.2553
 2721TIP3    H229799   3.299   6.212   8.572 -1.4621  2.3294 -0.3144
 2722TIP3   OH229800   6.530   1.497   0.989  0.4172 -0.2059 -0.3460
 2722TIP3    H129801   6.464   1.567   0.999  1.2950  0.4568  1.0574
 2722TIP3    H229802   6.485   1.418   1.019  0.3453  0.3077  0.9702
 2723TIP3   OH229803   5.077   1.374   0.542 -0.5190  0.9423  0.7302
 2723TIP3    H129804   5.098   1.414   0.627 -2.4268 -0.1731  1.8153
 2723TIP3    H229805   5.130   1.295   0.540 -2.4975 -0.5258  2.2720
 2724TIP3   OH229806   2.483   2.002   0.673 -0.3862 -0.7122  0.1685
 2724TIP3    H129807   2.418   1.947   0.717  0.3225 -0.1771  1.9651
 2724TIP3    H229808   2.472   1.982   0.580 -3.4001 -0.2970  0.3376
 2725TIP3   OH229809   3.867   5.095   0.812 -0.0219  0.3787  0.6502
 2725TIP3    H129810   3.877   5.180   0.769  0.0156  0.1590  0.2156
 2725TIP3    H229811   3.834   5.116   0.899  1.4041  0.9416  1.0912
 2726TIP3   OH229812   3.759   5.164   2.348  0.5706 -0.2551 -0.0384
 2726TIP3    H129813   3.833   5.222   2.366 -0.4519  1.4160 -0.9180
 2726TIP3    H229814   3.791   5.076   2.368  1.9705  0.6498  2.0574
 2727TIP3   OH229815   4.482   5.433   1.172 -0.4849  0.4512 -0.2270
 2727TIP3    H129816   4.522   5.346   1.177  0.6052  0.7917 -1.9339
 2727TIP3    H229817   4.454   5.441   1.080  0.2176  2.1993 -0.3325
 2728TIP3   OH229818   0.503   2.925   0.715 -0.3890  0.4213 -0.5184
 2728TIP3    H129819   0.570   2.955   0.777  0.4533  1.3585 -1.8289
 2728TIP3    H229820   0.420   2.949   0.756  0.1310  0.7282  0.3897
 2729TIP3   OH229821   1.655   1.205   8.480  0.0964 -0.1536 -0.0952
 2729TIP3    H129822   1.715   1.132   8.493 -0.2038 -0.5614 -0.9311
 2729TIP3    H229823   1.688   1.249   8.401  0.0778  0.4180  0.2101
 2730TIP3   OH229824   4.517   2.228   2.600  0.1621  0.0520  0.1665
 2730TIP3    H129825   4.564   2.232   2.683 -0.4573 -1.2790  0.6079
 2730TIP3    H229826   4.427   2.253   2.622 -0.1587 -0.9438  0.0534
 2731TIP3   OH229827   4.338   1.606   8.111 -0.7904 -0.5391  0.3488
 2731TIP3    H129828   4.252   1.633   8.142 -1.7574 -1.0031 -1.7239
 2731TIP3    H229829   4.356   1.665   8.037 -0.5053 -2.0546 -0.8323
 2732TIP3   OH229830   6.033   6.281   1.540 -0.0705 -0.6763  0.1583
 2732TIP3    H129831   6.052   6.373   1.521  0.8330 -0.4297  2.0235
 2732TIP3    H229832   6.117   6.236   1.526 -0.3461 -1.1067 -0.1192
 2733TIP3   OH229833   5.683   2.528   1.488 -0.1240  0.2366 -0.6909
 2733TIP3    H129834   5.677   2.458   1.424 -0.3679  0.2207 -0.6526
 2733TIP3    H229835   5.707   2.484   1.570 -0.1704  0.2093 -0.6914
 2734TIP3   OH229836   2.968   2.366   0.101  0.3360 -0.3639  0.4833
 2734TIP3    H129837   2.907   2.364   0.175 -0.1241 -3.7253  0.1512
 2734TIP3    H229838   2.917   2.334   0.027  1.3693  0.9580 -0.8763
 2735TIP3   OH229839   0.184   4.845   2.640  0.3773 -0.1720 -0.3765
 2735TIP3    H129840   0.240   4.921   2.623 -0.4433  0.4845 -0.2154
 2735TIP3    H229841   0.166   4.851   2.734 -0.8538  0.2596 -0.6291
 2736TIP3   OH229842   5.699   5.967   0.524 -0.2147 -0.0771  0.1479
 2736TIP3    H129843   5.662   5.979   0.436  1.0940  1.0761 -0.2701
 2736TIP3    H229844   5.626   5.985   0.583 -0.8885  0.0013 -0.6879
 2737TIP3   OH229845   0.591   3.428   1.883 -0.0261  0.5426  0.0723
 2737TIP3    H129846   0.522   3.462   1.826  1.3656  0.4439 -1.7600
 2737TIP3    H229847   0.649   3.503   1.897  1.1727 -0.1123 -1.0822
 2738TIP3   OH229848   6.466   4.835   2.126  0.4990 -0.5218  0.3946
 2738TIP3    H129849   6.503   4.811   2.211  0.7749  0.8739  0.7005
 2738TIP3    H229850   6.372   4.819   2.135  0.4248  0.3218  1.2355
 2739TIP3   OH229851   1.753   5.146   1.989 -0.0317  0.0346  0.1216
 2739TIP3    H129852   1.675   5.116   1.943  0.6992 -1.2128 -0.3607
 2739TIP3    H229853   1.819   5.155   1.920  0.5664 -0.0496  0.6721
 2740TIP3   OH229854   5.557   1.028   8.420 -0.2914 -0.3105 -0.0579
 2740TIP3    H129855   5.474   1.052   8.379 -0.7665  1.1405  1.6749
 2740TIP3    H229856   5.618   1.020   8.346 -1.4048  0.9819 -1.1649
 2741TIP3   OH229857   4.304   0.506   8.223  0.1200 -0.4883  0.3045
 2741TIP3    H129858   4.219   0.522   8.264 -0.5029 -0.0778 -1.0671
 2741TIP3    H229859   4.357   0.582   8.247 -0.2591 -0.2156  0.2897
 2742TIP3   OH229860   0.255   4.238   8.672  0.1664  0.2399  0.3321
 2742TIP3    H129861   0.192   4.265   8.740  0.9583  0.0279  1.1746
 2742TIP3    H229862   0.238   4.298   8.599  0.3493  1.5401  1.3071
 2743TIP3   OH229863   6.188   5.609   8.439  0.1437 -0.2182  0.7817
 2743TIP3    H129864   6.137   5.582   8.515 -2.9873 -1.1701 -1.4567
 2743TIP3    H229865   6.132   5.673   8.394  2.5691  1.5016  0.0127
 2744TIP3   OH229866   3.531   1.824   2.455 -0.0082 -0.1339 -0.3322
 2744TIP3    H129867   3.564   1.821   2.365  1.2892  2.0175 -0.0009
 2744TIP3    H229868   3.464   1.756   2.459  1.3157 -1.6603 -2.3349
 2745TIP3   OH229869   0.556   6.614   2.618 -0.1527  0.2825  0.5200
 2745TIP3    H129870   0.504   6.688   2.586  2.5349  1.3757 -1.7660
 2745TIP3    H229871   0.617   6.653   2.681  1.3492  0.1318 -0.7789
 2746TIP3   OH229872   3.552   2.485   8.132 -0.3404 -0.2300  0.3414
 2746TIP3    H129873   3.492   2.412   8.145  1.1299 -1.5301  0.2240
 2746TIP3    H229874   3.627   2.445   8.086  0.8414  1.1858  0.9775
 2747TIP3   OH229875   1.234   5.800   9.036 -0.1665 -0.5749  0.5498
 2747TIP3    H129876   1.268   5.879   8.995  2.3460 -1.3689  0.9243
 2747TIP3    H229877   1.144   5.822   9.060 -1.3168  0.4229 -3.8853
 2748TIP3   OH229878   1.586   5.277   7.967 -0.2776  0.4319  0.2388
 2748TIP3    H129879   1.511   5.331   7.992  0.5484  1.5256  0.4351
 2748TIP3    H229880   1.662   5.325   7.999  0.5708 -0.2200 -0.7288
 2749TIP3   OH229881   6.043   1.323   0.660  0.3266 -0.0718 -0.2218
 2749TIP3    H129882   6.028   1.319   0.755 -0.6514  0.5476 -0.3371
 2749TIP3    H229883   6.138   1.325   0.651  0.4266  0.0248  0.7527
 2750TIP3   OH229884   3.989   2.107   8.450 -0.1862  0.1648 -0.0849
 2750TIP3    H129885   3.996   2.022   8.406  2.7335  1.3041 -2.1199
 2750TIP3    H229886   4.015   2.090   8.540 -0.3055 -1.2084 -0.2953
 2751TIP3   OH229887   4.319   5.963   0.160 -0.3861 -0.2643 -0.0378
 2751TIP3    H129888   4.278   5.933   0.241 -0.8386  1.2819  0.3337
 2751TIP3    H229889   4.413   5.959   0.178 -0.4911  0.7026  0.8263
 2752TIP3   OH229890   6.686   1.305   1.656  0.0840 -0.2433 -0.0658
 2752TIP3    H129891   6.654   1.237   1.596  0.5622  0.2448 -0.9042
 2752TIP3    H229892   6.616   1.316   1.720  0.7854 -2.9207  1.2958
 2753TIP3   OH229893   6.146   4.288   9.137  0.0089 -0.1720 -0.3099
 2753TIP3    H129894   6.062   4.241   9.138  1.4025 -2.8761 -1.4495
 2753TIP3    H229895   6.196   4.246   9.068  2.4907  1.1078  0.6063
 2754TIP3   OH229896   0.843   5.007   7.647 -0.1028  0.1984 -0.1351
 2754TIP3    H129897   0.898   5.085   7.661  2.9951 -1.9056  0.4908
 2754TIP3    H229898   0.829   5.004   7.552  0.1481  1.2597 -0.2156
 2755TIP3   OH229899   1.637   0.117   0.708 -0.3907  0.0618 -0.1765
 2755TIP3    H129900   1.628   0.043   0.648  1.6528  0.2193 -0.7595
 2755TIP3    H229901   1.547   0.142   0.728 -1.1829 -2.7676  0.3212
 2756TIP3   OH229902   0.310   3.074   8.594 -0.1247  0.0704 -0.0655
 2756TIP3    H129903   0.276   3.032   8.515  0.9086 -1.3271  0.1914
 2756TIP3    H229904   0.366   3.144   8.562 -0.4280  0.0901 -0.5547
 2757TIP3   OH229905   4.364   6.422   0.797 -0.2351  0.1457  0.5263
 2757TIP3    H129906   4.431   6.475   0.755  0.3780  1.7038  3.2283
 2757TIP3    H229907   4.392   6.332   0.784  1.2624  0.6833 -0.1579
 2758TIP3   OH229908   4.952   5.474   7.825 -0.0646 -0.3292  0.2853
 2758TIP3    H129909   5.033   5.436   7.792  0.4383 -0.0841  1.1948
 2758TIP3    H229910   4.976   5.511   7.910 -0.4139  2.4382 -0.7276
 2759TIP3   OH229911   6.113   4.514   1.160 -0.3526 -0.0887  0.7993
 2759TIP3    H129912   6.161   4.594   1.143 -1.9226  0.7282 -0.0334
 2759TIP3    H229913   6.132   4.458   1.084 -1.5956  0.7010 -0.1354
 2760TIP3   OH229914   6.198   5.721   3.092  0.2335 -0.1011  0.1604
 2760TIP3    H129915   6.273   5.679   3.134  0.5777  0.9172  0.5923
 2760TIP3    H229916   6.163   5.654   3.033  1.6840 -0.4823 -0.3003
 2761TIP3   OH229917   1.326   5.418   8.008 -0.5737  0.3378 -0.1595
 2761TIP3    H129918   1.356   5.489   8.066 -0.1004  1.3692 -1.6069
 2761TIP3    H229919   1.240   5.448   7.977  0.3015  1.1199 -2.0231
 2762TIP3   OH229920   4.163   4.331   2.639  0.5759 -0.0419  0.0388
 2762TIP3    H129921   4.183   4.282   2.719 -0.0710 -1.3487 -0.5704
 2762TIP3    H229922   4.244   4.328   2.588  0.0809 -1.9139 -0.6966
 2763TIP3   OH229923   3.202   5.824   2.543  0.0449 -0.1888  0.3528
 2763TIP3    H129924   3.272   5.887   2.563 -0.0521  0.1532 -0.3563
 2763TIP3    H229925   3.248   5.742   2.526  0.2548 -0.0408  0.1972
 2764TIP3   OH229926   4.859   3.917   8.546  0.2049  0.0518 -0.7185
 2764TIP3    H129927   4.839   3.993   8.601 -0.5377 -0.0603 -0.8249
 2764TIP3    H229928   4.856   3.843   8.607  0.0194  0.0027 -0.7872
 2765TIP3   OH229929   4.918   3.451   8.907 -0.8242 -0.1194 -1.0481
 2765TIP3    H129930   5.006   3.475   8.936 -1.9799  2.3107  0.8756
 2765TIP3    H229931   4.880   3.405   8.982 -1.8864  0.8366 -0.9636
 2766TIP3   OH229932   4.153   0.924   1.984  0.5073 -0.5853  0.0996
 2766TIP3    H129933   4.197   0.991   1.931  1.7246 -2.5343 -1.5171
 2766TIP3    H229934   4.067   0.914   1.943  1.3858 -1.9729 -1.5592
 2767TIP3   OH229935   5.035   1.774   2.298  0.4629 -0.5781 -0.2461
 2767TIP3    H129936   5.054   1.680   2.289  0.1449 -0.7523  0.8380
 2767TIP3    H229937   5.115   1.817   2.267  0.5845 -1.1960 -0.8298
 2768TIP3   OH229938   4.457   2.720   2.819 -0.5052 -0.3850 -0.3761
 2768TIP3    H129939   4.408   2.776   2.758 -3.1626 -2.9371 -0.7853
 2768TIP3    H229940   4.422   2.742   2.905 -0.0255  0.0284 -0.2819
 2769TIP3   OH229941   2.455   0.163   0.799  0.3199 -0.0153  0.1609
 2769TIP3    H129942   2.408   0.243   0.778  1.0259  0.1845 -0.6934
 2769TIP3    H229943   2.408   0.094   0.751 -0.9907 -0.3395  1.7899
 2770TIP3   OH229944   4.103   2.427   1.726 -0.8095 -0.0380  0.8968
 2770TIP3    H129945   4.122   2.483   1.651  0.2800 -0.5141  0.7961
 2770TIP3    H229946   4.060   2.485   1.789  1.6325  1.3595  1.4088
 2771TIP3   OH229947   1.143   1.390   2.384 -0.1969 -0.4171 -0.5759
 2771TIP3    H129948   1.159   1.373   2.477 -1.2960 -0.8745 -0.4572
 2771TIP3    H229949   1.167   1.307   2.341 -2.6033 -1.3278 -0.3331
 2772TIP3   OH229950   2.524   2.823   8.164  0.2468  0.1818  0.0071
 2772TIP3    H129951   2.588   2.752   8.156 -2.1004 -2.0003 -0.6621
 2772TIP3    H229952   2.527   2.867   8.079  1.4727  0.6758  0.2967
 2773TIP3   OH229953   1.892   4.745   8.616  0.0853  0.6460 -0.3884
 2773TIP3    H129954   1.949   4.760   8.692  0.9623  0.0167 -0.9077
 2773TIP3    H229955   1.952   4.722   8.545 -0.5824  2.7307 -1.7168
 2774TIP3   OH229956   2.143   2.424   0.373  0.3691 -0.5633  0.0907
 2774TIP3    H129957   2.074   2.392   0.315  0.3033  0.9882 -0.7407
 2774TIP3    H229958   2.161   2.351   0.432 -1.2224 -1.3587 -0.3674
 2775TIP3   OH229959   1.118   1.076   8.909 -0.0435  0.1791  0.1969
 2775TIP3    H129960   1.080   1.086   8.822 -1.1882 -1.3203  0.4768
 2775TIP3    H229961   1.188   1.012   8.897 -0.4070 -0.2708  0.4028
 2776TIP3   OH229962   1.309   2.284   0.810  0.7556 -0.1296 -0.6450
 2776TIP3    H129963   1.335   2.223   0.879  0.8061 -0.7250 -1.1800
 2776TIP3    H229964   1.391   2.322   0.779  0.7944 -0.3349 -0.8005
 2777TIP3   OH229965   0.366   6.480   7.675 -0.6220 -0.0461  0.3072
 2777TIP3    H129966   0.455   6.449   7.656 -0.8077 -0.4303  0.0619
 2777TIP3    H229967   0.379   6.547   7.742 -0.2414 -0.9973  1.2321
 2778TIP3   OH229968   3.580   4.579   2.458 -0.2479 -0.6726  0.6363
 2778TIP3    H129969   3.490   4.550   2.441  0.3122 -1.4644 -1.2373
 2778TIP3    H229970   3.618   4.509   2.510 -0.0966 -1.4059 -0.4312
 2779TIP3   OH229971   4.688   5.415   1.653 -0.0090 -0.0531 -0.0941
 2779TIP3    H129972   4.637   5.434   1.574  0.7769  1.4538 -0.2602
 2779TIP3    H229973   4.661   5.481   1.717  0.5481 -0.2460  0.3536
 2780TIP3   OH229974   5.728   2.205   7.781 -0.1864 -0.0121 -0.0968
 2780TIP3    H129975   5.654   2.168   7.733 -1.1724  0.0929  1.2755
 2780TIP3    H229976   5.722   2.165   7.868  0.7290  0.8352  0.3764
 2781TIP3   OH229977   5.475   0.862   0.377  0.1028 -0.0311 -0.1330
 2781TIP3    H129978   5.568   0.844   0.364  0.1301 -1.4356  1.6096
 2781TIP3    H229979   5.431   0.819   0.304  0.8084  1.1981 -1.3434
 2782TIP3   OH229980   4.016   5.958   0.508 -0.4628 -0.2289  0.0459
 2782TIP3    H129981   3.957   5.967   0.432 -0.5966 -1.4725 -0.0163
 2782TIP3    H229982   4.103   5.955   0.470 -0.6367 -2.9269 -0.2878
 2783TIP3   OH229983   1.858   4.406   0.827  0.1608  0.3417 -0.3498
 2783TIP3    H129984   1.932   4.465   0.813  0.0077  0.0351 -2.8007
 2783TIP3    H229985   1.800   4.421   0.753 -0.7646 -1.6003 -0.0917
 2784TIP3   OH229986   2.332   4.930   7.052  0.4516 -0.1338  0.2779
 2784TIP3    H129987   2.282   4.920   6.970  0.5503 -0.3171  0.2406
 2784TIP3    H229988   2.349   5.024   7.058 -1.3808  0.1745  1.1706
 2785TIP3   OH229989   1.844   4.957   7.981 -0.2318 -0.7416  0.2215
 2785TIP3    H129990   1.892   5.020   8.034 -1.4179  0.6372 -0.2655
 2785TIP3    H229991   1.753   4.966   8.009 -0.6009 -1.3629 -0.7029
 2786TIP3   OH229992   6.527   0.300   7.188  0.4106 -0.3876 -0.4905
 2786TIP3    H129993   6.536   0.389   7.221  2.2768 -0.5058 -0.5657
 2786TIP3    H229994   6.492   0.250   7.261  2.0785 -0.1388  0.5314
 2787TIP3   OH229995   5.736   1.563   0.454  0.0367 -0.2765  0.0916
 2787TIP3    H129996   5.816   1.602   0.489 -0.1598  0.5122 -0.3104
 2787TIP3    H229997   5.677   1.557   0.529  0.0881  0.1690  0.1690
 2788TIP3   OH229998   0.974   0.598   0.147 -0.2555 -0.1157 -0.1153
 2788TIP3    H129999   0.928   0.586   0.064  1.0438  0.8811 -1.0199
 2788TIP3    H230000   1.038   0.526   0.149 -1.0696 -0.8462  0.6169
 2789TIP3   OH230001   6.608   0.691   0.345  0.1135 -0.1519 -0.0359
 2789TIP3    H130002   6.651   0.764   0.390  0.2270  0.8235 -1.6517
 2789TIP3    H230003   6.607   0.620   0.410  1.6353  0.6932  0.9663
 2790TIP3   OH230004   0.977   1.248   1.014  0.1478  0.2197 -0.9756
 2790TIP3    H130005   0.968   1.233   0.920  0.2577 -0.6497 -0.8563
 2790TIP3    H230006   1.043   1.184   1.042 -0.7453 -0.3399 -0.1081
 2791TIP3   OH230007   6.644   5.188   9.074  0.5944 -0.3787 -0.2530
 2791TIP3    H130008   6.585   5.217   9.144 -2.1122 -0.1970 -2.4196
 2791TIP3    H230009   6.727   5.171   9.118 -0.4239  1.4291  2.6866
 2792TIP3   OH230010   1.384   3.519   8.488  0.1899 -0.2797  0.1495
 2792TIP3    H130011   1.331   3.562   8.421 -0.0750 -2.5174 -1.1597
 2792TIP3    H230012   1.377   3.577   8.564 -0.2915  1.8503 -1.4189
 2793TIP3   OH230013   0.701   2.879   0.259 -0.1969  0.0301  0.4393
 2793TIP3    H130014   0.695   2.929   0.177 -0.8970 -0.9908 -0.1471
 2793TIP3    H230015   0.622   2.903   0.307 -0.4851 -0.4115  0.1988
 2794TIP3   OH230016   3.271   5.284   0.859  0.0434 -0.0725 -0.0106
 2794TIP3    H130017   3.310   5.243   0.936  0.4839 -0.5649 -0.4964
 2794TIP3    H230018   3.200   5.225   0.834  1.6535 -1.4390 -1.6557
 2795TIP3   OH230019   6.571   0.652   2.442  0.3353 -0.4980  0.3641
 2795TIP3    H130020   6.596   0.722   2.502  4.0582 -0.2256 -1.1754
 2795TIP3    H230021   6.570   0.573   2.496  1.8840 -0.0140  1.1730
 2796TIP3   OH230022   0.758   0.994   8.120 -0.1432  0.3981  0.0955
 2796TIP3    H130023   0.844   0.983   8.159  0.4478  1.2056 -0.9390
 2796TIP3    H230024   0.737   0.908   8.083  2.2028  1.1441 -3.4846
 2797TIP3   OH230025   0.989   2.335   1.369  0.0415 -0.6251 -0.1668
 2797TIP3    H130026   1.024   2.258   1.414  0.1174 -0.8069 -0.5335
 2797TIP3    H230027   1.049   2.349   1.295  0.6786  0.4555  0.5276
 2798TIP3   OH230028   5.312   0.571   0.282 -0.1884  0.0639 -0.2614
 2798TIP3    H130029   5.389   0.565   0.225 -0.1487  0.3745 -0.2426
 2798TIP3    H230030   5.260   0.642   0.244 -0.4958 -0.1864 -0.3090
 2799TIP3   OH230031   6.331   1.561   7.398 -0.1807 -0.6368 -0.1237
 2799TIP3    H130032   6.265   1.547   7.466 -2.3660 -0.1975 -2.0102
 2799TIP3    H230033   6.349   1.655   7.400  0.3802 -0.7514  0.3691
 2800TIP3   OH230034   4.850   5.900   0.444  0.2367 -0.2878  0.0364
 2800TIP3    H130035   4.806   5.983   0.462  1.9969  0.7995 -0.4662
 2800TIP3    H230036   4.934   5.924   0.406  0.0460 -2.3372 -1.9395
 2801TIP3   OH230037   0.319   4.427   8.904  0.3383  0.5876  0.2161
 2801TIP3    H130038   0.366   4.467   8.978  1.8749 -0.2080 -0.2873
 2801TIP3    H230039   0.236   4.399   8.941  1.9322 -1.8723  2.3010
 2802TIP3   OH230040   4.064   3.468   1.743  0.1732  0.1825 -0.1525
 2802TIP3    H130041   4.119   3.531   1.791  0.5430  0.0177 -0.3549
 2802TIP3    H230042   4.013   3.523   1.684 -1.9050  0.6333  1.9001
 2803TIP3   OH230043   4.076   4.917   2.875  0.2891  0.3447  0.3572
 2803TIP3    H130044   4.143   4.851   2.890  1.5439  1.1208 -1.4759
 2803TIP3    H230045   4.047   4.902   2.785 -0.8077  1.0831  0.5645
 2804TIP3   OH230046   5.340   5.812   8.397 -0.0679 -0.1981 -1.1235
 2804TIP3    H130047   5.367   5.782   8.484  0.3951 -1.0912 -1.5652
 2804TIP3    H230048   5.394   5.889   8.380  0.9589 -0.9266 -1.2576
 2805TIP3   OH230049   6.623   1.833   1.085  0.2308 -0.1248 -0.2425
 2805TIP3    H130050   6.592   1.866   1.001  0.7659  0.4498 -0.2255
 2805TIP3    H230051   6.570   1.879   1.150  1.5361  1.3983 -0.1857
 2806TIP3   OH230052   5.744   1.773   1.691 -0.0434 -0.0392 -0.5163
 2806TIP3    H130053   5.700   1.858   1.686  0.1843  0.0668 -0.6926
 2806TIP3    H230054   5.716   1.726   1.612  0.5848  0.2289 -0.8975
 2807TIP3   OH230055   5.337   1.603   8.756  0.1108 -0.2871 -0.6909
 2807TIP3    H130056   5.413   1.598   8.699 -0.0506 -0.1137 -0.9199
 2807TIP3    H230057   5.274   1.542   8.717 -0.0443 -0.0787 -0.7622
 2808TIP3   OH230058   1.474   1.079   8.123 -0.1961 -0.0606  0.0161
 2808TIP3    H130059   1.442   1.093   8.212  0.7045  0.5182  0.2633
 2808TIP3    H230060   1.567   1.060   8.133 -0.3239 -1.2054 -0.7230
 2809TIP3   OH230061   2.333   1.100   0.093 -0.1233 -0.2610  0.8019
 2809TIP3    H130062   2.297   1.187   0.111  0.1176  0.1485 -0.6248
 2809TIP3    H230063   2.356   1.102   0.000 -0.3049 -1.9164  0.6927
 2810TIP3   OH230064   6.395   2.810   8.315  0.5227  0.1270  0.1911
 2810TIP3    H130065   6.303   2.785   8.305  0.5377 -0.3269  1.1266
 2810TIP3    H230066   6.400   2.897   8.275  0.3039 -0.9727 -2.4630
 2811TIP3   OH230067   3.332   0.272   8.903 -0.3868 -0.4258 -0.3353
 2811TIP3    H130068   3.374   0.357   8.894  0.3935 -0.3631  2.7178
 2811TIP3    H230069   3.241   0.287   8.881 -0.3774  1.3751  0.6934
 2812TIP3   OH230070   3.554   3.981   7.367 -0.8133 -0.2169 -0.0110
 2812TIP3    H130071   3.470   3.937   7.375 -0.2298 -1.3370  0.1190
 2812TIP3    H230072   3.550   4.052   7.431 -1.6375 -0.2941  0.0308
 2813TIP3   OH230073   0.741   3.301   0.998  0.1664  0.1574  0.1868
 2813TIP3    H130074   0.816   3.346   0.959 -0.6761  1.1807 -0.2912
 2813TIP3    H230075   0.699   3.255   0.926  0.8228 -1.1647  0.6130
 2814TIP3   OH230076   2.515   1.187   0.781  0.5112  0.9907 -0.1241
 2814TIP3    H130077   2.492   1.102   0.820  0.0125  1.0533 -0.2701
 2814TIP3    H230078   2.431   1.232   0.771  0.8784  1.9799  1.0227
 2815TIP3   OH230079   3.689   4.335   2.557 -0.0158 -0.2357  0.2522
 2815TIP3    H130080   3.622   4.268   2.576 -0.0929 -0.1108  0.4298
 2815TIP3    H230081   3.767   4.285   2.533 -0.0057 -0.3976  0.6164
 2816TIP3   OH230082   0.079   4.007   7.277  0.0983  0.3113 -0.2312
 2816TIP3    H130083   0.059   3.919   7.246  0.4261  0.0046  0.4003
 2816TIP3    H230084   0.173   4.005   7.295  0.3642  1.1859 -1.4476
 2817TIP3   OH230085   4.659   3.222   8.616 -0.5493  0.3728 -0.0346
 2817TIP3    H130086   4.652   3.254   8.706  2.1812  1.9636 -0.2772
 2817TIP3    H230087   4.615   3.137   8.617 -2.5493  1.3208  2.2155
 2818TIP3   OH230088   2.530   0.767   0.533 -0.7531 -0.2563 -0.6656
 2818TIP3    H130089   2.486   0.728   0.457 -1.7902 -0.6193  0.0964
 2818TIP3    H230090   2.486   0.852   0.544 -0.3111 -0.0179 -0.7245
 2819TIP3   OH230091   3.375   4.690   8.770  0.0722 -0.2133 -0.1053
 2819TIP3    H130092   3.463   4.701   8.735  0.2798  0.8002  0.7007
 2819TIP3    H230093   3.341   4.612   8.725  1.4956 -0.8235 -0.1865
 2820TIP3   OH230094   0.038   5.293   0.640 -0.0187  0.0623 -0.3281
 2820TIP3    H130095   0.023   5.333   0.554 -2.2965  1.1949  0.5076
 2820TIP3    H230096  -0.029   5.225   0.646 -0.5935  0.7059  0.9309
 2821TIP3   OH230097   2.342   0.145   1.101 -0.0276  0.3600 -0.1998
 2821TIP3    H130098   2.413   0.098   1.057  0.1949  1.0376 -0.5894
 2821TIP3    H230099   2.372   0.236   1.103 -0.2094  0.4110  1.0163
 2822TIP3   OH230100   1.621   0.328   2.482 -0.2715  0.1300  0.3371
 2822TIP3    H130101   1.535   0.297   2.453  0.1016  1.2029 -2.2135
 2822TIP3    H230102   1.673   0.248   2.492 -1.1932 -0.4460  0.6351
 2823TIP3   OH230103   0.489   3.025   7.348  0.0581 -0.1224  0.0486
 2823TIP3    H130104   0.575   3.065   7.364  0.5670 -1.5172  0.9627
 2823TIP3    H230105   0.509   2.936   7.320 -1.0890 -0.1562 -0.7180
 2824TIP3   OH230106   1.513   3.343   1.744 -0.3624 -0.3641 -0.1724
 2824TIP3    H130107   1.488   3.268   1.690  0.5932 -1.1986  0.5122
 2824TIP3    H230108   1.566   3.306   1.814 -1.8013  0.6551  1.5370
 2825TIP3   OH230109   2.611   0.129   7.896  0.0701  0.1127 -0.3387
 2825TIP3    H130110   2.624   0.224   7.893  0.2644  0.0910 -0.2269
 2825TIP3    H230111   2.520   0.118   7.924  0.2829  0.2665  0.4485
 2826TIP3   OH230112   1.466   6.689   1.805 -0.1150 -0.1130 -0.1344
 2826TIP3    H130113   1.433   6.777   1.788 -0.4732  0.0782  1.4152
 2826TIP3    H230114   1.555   6.702   1.838 -0.0443 -0.3624 -0.2203
 2827TIP3   OH230115   2.071   1.790   8.608 -0.1541  0.0278 -0.1281
 2827TIP3    H130116   1.982   1.814   8.583 -0.2487 -1.3272 -1.2217
 2827TIP3    H230117   2.102   1.864   8.660 -2.3674  0.0104  1.3744
 2828TIP3   OH230118   3.431   3.155   8.898  0.6433  0.2150  0.4850
 2828TIP3    H130119   3.524   3.160   8.876  0.6545 -0.3090  0.3868
 2828TIP3    H230120   3.403   3.070   8.864  0.3405 -0.0153  1.2709
 2829TIP3   OH230121   0.451   5.461   8.731  0.1726  0.4960  0.0230
 2829TIP3    H130122   0.374   5.411   8.757 -0.1633  0.4348 -1.0061
 2829TIP3    H230123   0.517   5.395   8.713 -0.2295  0.3974 -1.2060
 2830TIP3   OH230124   0.769   3.258   9.188  0.0924  0.4455  0.4686
 2830TIP3    H130125   0.838   3.270   9.123  1.8711  0.9751  2.3652
 2830TIP3    H230126   0.768   3.164   9.205 -1.2337  0.1182 -1.1318
 2831TIP3   OH230127   2.880   2.517   2.513 -0.5843  0.4694  0.4349
 2831TIP3    H130128   2.796   2.488   2.477 -0.5258 -0.8794  1.2849
 2831TIP3    H230129   2.861   2.538   2.605  0.4225 -2.4143  1.4223
 2832TIP3   OH230130   2.308   5.432   0.365 -0.1573  0.0166  0.0715
 2832TIP3    H130131   2.308   5.489   0.288  1.1087  0.4140  0.3359
 2832TIP3    H230132   2.230   5.457   0.414  0.1444  1.2193 -0.0405
 2833TIP3   OH230133   5.420   2.773   2.850 -1.0238 -0.1551  0.3497
 2833TIP3    H130134   5.454   2.836   2.786  1.7866 -2.2767 -0.4913
 2833TIP3    H230135   5.361   2.718   2.799 -0.0230 -0.8585 -0.0988
 2834TIP3   OH230136   2.544   3.546   1.341  0.9025 -0.3755 -0.4085
 2834TIP3    H130137   2.558   3.570   1.432 -0.8108  0.1214 -0.2380
 2834TIP3    H230138   2.548   3.450   1.341  0.0261 -0.4318  0.3843
 2835TIP3   OH230139   2.088   6.584   7.876 -0.1285  0.2120 -0.0997
 2835TIP3    H130140   2.152   6.563   7.943  0.0576  0.2230 -0.2735
 2835TIP3    H230141   2.004   6.555   7.913 -0.0350  0.2709  0.1588
 2836TIP3   OH230142   5.181   5.104   7.608  0.1724  0.4121  0.7462
 2836TIP3    H130143   5.172   5.022   7.560  2.7775  0.7933 -0.6098
 2836TIP3    H230144   5.137   5.169   7.553  2.5872  0.7341 -0.9693
 2837TIP3   OH230145   5.921   2.310   1.545 -0.0492  0.8353 -0.0833
 2837TIP3    H130146   5.844   2.256   1.561  0.3726  0.6833  1.6867
 2837TIP3    H230147   5.989   2.271   1.600  1.1981  1.1919 -1.3245
 2838TIP3   OH230148   5.996   2.757   8.746 -0.9537  0.0690  0.3993
 2838TIP3    H130149   5.982   2.843   8.705 -1.4987  0.2608  0.9854
 2838TIP3    H230150   5.908   2.721   8.758 -0.7010 -0.9937 -0.7055
 2839TIP3   OH230151   5.443   4.777   2.205  0.3576  0.1003  1.2431
 2839TIP3    H130152   5.387   4.853   2.186  0.6255  0.1109  0.4700
 2839TIP3    H230153   5.416   4.749   2.293 -1.0418 -0.0398  0.7941
 2840TIP3   OH230154   5.265   6.194   1.431  0.2463 -0.6415 -0.1317
 2840TIP3    H130155   5.202   6.212   1.362 -0.9174 -1.5046  0.6743
 2840TIP3    H230156   5.294   6.105   1.415 -0.4088 -1.0307  0.7528
 2841TIP3   OH230157   2.393   6.660   7.658  0.3350  0.1474 -0.0633
 2841TIP3    H130158   2.456   6.733   7.659  1.6560 -0.9259 -1.0546
 2841TIP3    H230159   2.436   6.591   7.708 -0.0228 -0.6142 -0.7825
 2842TIP3   OH230160   6.002   6.679   2.237 -0.2647 -0.0126  0.4389
 2842TIP3    H130161   6.015   6.605   2.295 -1.3668 -1.0004 -0.5290
 2842TIP3    H230162   5.912   6.671   2.207 -0.0579  1.0841 -0.5735
 2843TIP3   OH230163   6.255   0.904   8.361  0.1156  0.2454  0.2462
 2843TIP3    H130164   6.200   0.954   8.300  0.4521  0.9372  0.4953
 2843TIP3    H230165   6.239   0.946   8.446  0.2304 -0.2241  0.5015
 2844TIP3   OH230166   5.190   4.220   8.115 -0.1517  0.0650  0.2960
 2844TIP3    H130167   5.238   4.148   8.076 -2.3111 -1.2563 -0.1204
 2844TIP3    H230168   5.144   4.260   8.040 -0.8894  0.2949  0.8623
 2845TIP3   OH230169   4.226   2.983   0.290  0.1928  0.1477 -0.7703
 2845TIP3    H130170   4.280   3.000   0.367 -0.5064  0.5236 -0.3492
 2845TIP3    H230171   4.160   2.921   0.320 -2.0040  2.5875 -0.1354
 2846TIP3   OH230172   4.519   2.658   7.676  0.2278 -0.1633  0.2960
 2846TIP3    H130173   4.609   2.675   7.704  0.1749 -0.1197  0.4370
 2846TIP3    H230174   4.492   2.740   7.634  0.0878 -0.0126  0.6816
 2847TIP3   OH230175   2.396   4.404   1.155 -0.2577  0.2867  0.1551
 2847TIP3    H130176   2.324   4.430   1.213 -0.3179  0.6421 -0.0810
 2847TIP3    H230177   2.357   4.340   1.096 -0.8056  1.6660 -1.0261
 2848TIP3   OH230178   2.756   4.649   1.795 -0.4529  0.7352  0.6132
 2848TIP3    H130179   2.682   4.600   1.759  0.0762  0.1370  0.3038
 2848TIP3    H230180   2.808   4.674   1.718 -0.4443  1.3392  0.8105
 2849TIP3   OH230181   3.074   1.189   1.784  0.2469 -0.0964  0.6230
 2849TIP3    H130182   3.157   1.147   1.761 -0.0607 -0.8194  0.7890
 2849TIP3    H230183   3.010   1.117   1.783 -0.3471  0.4230  0.6478
 2850TIP3   OH230184   4.214   3.277   9.099 -0.0203  0.1250  0.5208
 2850TIP3    H130185   4.184   3.199   9.145  0.6661  0.3512  1.4076
 2850TIP3    H230186   4.296   3.300   9.143  1.0103 -0.0009 -1.2658
 2851TIP3   OH230187   1.860   4.849   0.821  0.9165  0.1908  1.1521
 2851TIP3    H130188   1.772   4.823   0.793  1.2720  1.1527 -1.0319
 2851TIP3    H230189   1.914   4.772   0.802  1.0813  0.6957 -0.5699
 2852TIP3   OH230190   6.048   4.050   8.700 -0.1308  0.1540 -0.3705
 2852TIP3    H130191   5.990   4.103   8.755  0.0480 -1.4986  1.5315
 2852TIP3    H230192   5.991   3.983   8.664  0.2667 -0.4942  0.1791
 2853TIP3   OH230193   2.109   3.265   7.399 -0.0982  0.5029  0.1548
 2853TIP3    H130194   2.125   3.271   7.493  0.5494 -0.6253  0.1415
 2853TIP3    H230195   2.188   3.300   7.359  0.9613 -1.7744  0.0763
 2854TIP3   OH230196   5.167   5.211   0.393 -0.1037 -0.3487 -0.2079
 2854TIP3    H130197   5.249   5.190   0.439  0.7485  0.9498 -1.0702
 2854TIP3    H230198   5.176   5.169   0.308 -0.3496 -0.2436 -0.2863
 2855TIP3   OH230199   1.726   2.308   2.151 -0.2967 -0.1438 -0.6113
 2855TIP3    H130200   1.651   2.365   2.169  0.4290  0.8230 -0.5494
 2855TIP3    H230201   1.788   2.328   2.221 -0.4853 -1.8958  0.1006
 2856TIP3   OH230202   5.124   4.472   8.275  0.2459 -0.3193 -0.2367
 2856TIP3    H130203   5.161   4.499   8.191  0.5171 -2.4364 -0.8636
 2856TIP3    H230204   5.189   4.500   8.339 -0.1791  1.7356 -0.6344
 2857TIP3   OH230205   1.454   3.006   1.236 -0.2908  0.7929 -0.2402
 2857TIP3    H130206   1.407   2.924   1.218  0.3344 -0.1098  1.8062
 2857TIP3    H230207   1.426   3.066   1.168 -2.8886 -0.2979 -0.2597
 2858TIP3   OH230208   5.267   2.775   1.682  0.0330 -0.1230  0.4553
 2858TIP3    H130209   5.189   2.827   1.665  0.6186  0.5282 -0.2669
 2858TIP3    H230210   5.298   2.748   1.596  1.0124  0.2220  0.6856
 2859TIP3   OH230211   0.295   3.173   1.402  0.4089 -0.1507 -0.1683
 2859TIP3    H130212   0.202   3.186   1.422  0.7367  1.7034  0.3985
 2859TIP3    H230213   0.324   3.258   1.371  1.8784 -0.7709 -0.5360
 2860TIP3   OH230214   2.670   2.058   9.016  0.4636  0.5164  0.1008
 2860TIP3    H130215   2.600   2.074   9.079  1.5689 -0.5112  1.6412
 2860TIP3    H230216   2.633   2.086   8.932 -2.1456 -0.8235  0.6828
 2861TIP3   OH230217   1.644   6.491   7.765  0.2898 -0.4309 -0.1817
 2861TIP3    H130218   1.549   6.490   7.761  0.2306  0.3396  0.6212
 2861TIP3    H230219   1.673   6.460   7.679 -0.6758 -0.9600 -0.3278
 2862TIP3   OH230220   2.910   1.809   8.804  0.1199  0.0930  0.2406
 2862TIP3    H130221   2.916   1.857   8.887  0.0823  0.1056  0.2366
 2862TIP3    H230222   2.816   1.796   8.791  0.0801  0.7376 -0.1665
 2863TIP3   OH230223   3.447   6.678   9.049 -0.9900 -0.3529 -1.2600
 2863TIP3    H130224   3.517   6.616   9.029  1.3860  1.9190 -0.4186
 2863TIP3    H230225   3.431   6.667   9.143 -0.7291  0.1437 -1.1576
 2864TIP3   OH230226   3.128   4.077   0.741 -0.0920 -0.0974 -0.0627
 2864TIP3    H130227   3.186   4.036   0.678  0.6655  0.0901  0.4929
 2864TIP3    H230228   3.176   4.154   0.771 -0.6963  0.1486  0.2959
 2865TIP3   OH230229   4.159   3.140   8.383  0.2430 -0.5446 -0.3057
 2865TIP3    H130230   4.196   3.064   8.337 -1.2039 -1.2182 -0.4121
 2865TIP3    H230231   4.155   3.208   8.316  0.0350 -0.8859 -0.6446
 2866TIP3   OH230232   5.938   1.908   1.513  0.0391 -0.5828  0.2597
 2866TIP3    H130233   5.947   1.881   1.604 -0.0720  0.7845  0.7001
 2866TIP3    H230234   5.859   1.963   1.512  0.3927 -0.0689 -0.5295
 2867TIP3   OH230235   0.613   2.313   8.599 -0.5395 -0.6816 -0.4498
 2867TIP3    H130236   0.587   2.397   8.637  0.8285 -0.5622  0.2915
 2867TIP3    H230237   0.599   2.324   8.505 -2.7305 -0.5147 -0.1587
 2868TIP3   OH230238   2.211   6.446   2.231 -0.1987 -0.2987 -0.7525
 2868TIP3    H130239   2.303   6.472   2.224 -1.0678  4.1771  0.6990
 2868TIP3    H230240   2.187   6.414   2.144  2.2569  0.2367 -1.6997
 2869TIP3   OH230241   5.859   0.635   8.505  1.0926 -0.3864  0.3844
 2869TIP3    H130242   5.925   0.639   8.575  0.6939 -2.1053  0.9215
 2869TIP3    H230243   5.798   0.706   8.526  1.4704 -0.2978  1.2668
 2870TIP3   OH230244   1.338   6.504   2.880 -0.5145 -0.2743  0.3904
 2870TIP3    H130245   1.368   6.413   2.886 -1.6007 -0.7272 -0.6163
 2870TIP3    H230246   1.250   6.498   2.843 -0.6898  1.1864  0.4909
 2871TIP3   OH230247   2.221   0.553   2.349  0.4367 -0.2719 -0.2382
 2871TIP3    H130248   2.276   0.609   2.295  0.5379 -0.0691  0.0668
 2871TIP3    H230249   2.263   0.467   2.347  0.4718 -0.2492 -0.4300
 2872TIP3   OH230250   5.792   5.274   2.136 -0.3861  0.1046 -0.1392
 2872TIP3    H130251   5.728   5.206   2.116 -0.9068  0.8591 -1.1225
 2872TIP3    H230252   5.745   5.334   2.194  0.3108 -0.7377  1.3468
 2873TIP3   OH230253   4.126   1.960   1.290 -0.1367 -0.1396 -0.3263
 2873TIP3    H130254   4.212   1.924   1.312  0.0490  0.1536 -0.5755
 2873TIP3    H230255   4.117   2.036   1.347 -1.0985 -1.3119  1.1938
 2874TIP3   OH230256   2.910   4.832   7.924 -0.4729  0.0150 -0.2242
 2874TIP3    H130257   2.815   4.844   7.926 -0.4834  0.2318  2.8069
 2874TIP3    H230258   2.927   4.789   7.840 -3.2043  0.1658 -0.9501
 2875TIP3   OH230259   2.704   5.499   1.999 -0.1252 -0.0265 -0.6832
 2875TIP3    H130260   2.791   5.492   2.039 -0.2815 -2.0758 -0.6175
 2875TIP3    H230261   2.644   5.461   2.064 -1.2000  1.8253 -0.4961
 2876TIP3   OH230262   2.409   3.755   9.208  0.3285  0.1566 -0.2291
 2876TIP3    H130263   2.455   3.821   9.155 -0.2123  2.5587  2.1059
 2876TIP3    H230264   2.479   3.709   9.254  0.6256  1.1561  0.3563
 2877TIP3   OH230265   6.387   6.527   2.737  0.0736 -0.1225  0.2300
 2877TIP3    H130266   6.428   6.604   2.777  1.4839 -0.2218 -0.9331
 2877TIP3    H230267   6.293   6.543   2.745  0.2496 -0.0546  3.3411
 2878TIP3   OH230268   0.570   4.445   7.503  0.0847 -0.0182  0.0409
 2878TIP3    H130269   0.595   4.362   7.463  0.3754 -0.5594  1.3091
 2878TIP3    H230270   0.486   4.427   7.545  0.3854  0.1985  0.7392
 2879TIP3   OH230271   3.541   0.368   2.207 -0.8717 -0.7721  0.1463
 2879TIP3    H130272   3.489   0.420   2.145  0.7009 -0.0854 -0.6621
 2879TIP3    H230273   3.477   0.334   2.269 -2.1491  1.0953 -0.0434
 2880TIP3   OH230274   1.750   3.631   0.275  0.3058 -0.0443 -0.6675
 2880TIP3    H130275   1.706   3.548   0.259  1.8734 -0.7038 -1.8536
 2880TIP3    H230276   1.761   3.670   0.189 -0.7745  1.6403 -0.0907
 2881TIP3   OH230277   3.549   2.247   0.095  0.6630  0.9807 -0.1814
 2881TIP3    H130278   3.630   2.201   0.114  1.2684  1.3759 -1.6659
 2881TIP3    H230279   3.493   2.181   0.053  0.2419  0.7523  0.6945
 2882TIP3   OH230280   4.984   3.429   1.045  0.2683  0.7038 -0.5883
 2882TIP3    H130281   5.066   3.414   0.998 -0.4797 -1.4153 -1.3455
 2882TIP3    H230282   4.923   3.459   0.977 -0.7189 -2.0222 -1.0366
 2883TIP3   OH230283   1.361   4.286   8.203 -0.2313  0.6511 -0.1617
 2883TIP3    H130284   1.284   4.321   8.247 -0.4553  1.1824 -0.9500
 2883TIP3    H230285   1.327   4.237   8.128  0.1649  0.3566 -0.1544
 2884TIP3   OH230286   5.594   1.979   2.818 -0.2989 -0.2890  0.4867
 2884TIP3    H130287   5.612   2.014   2.905 -0.4213 -1.9958  1.2450
 2884TIP3    H230288   5.631   1.890   2.820 -1.3598 -0.7937 -0.7903
 2885TIP3   OH230289   4.521   4.328   7.352 -1.5793  0.0305 -0.4590
 2885TIP3    H130290   4.492   4.243   7.319  0.9718 -0.7401 -0.9111
 2885TIP3    H230291   4.552   4.375   7.275  1.8147 -0.7047  0.2988
 2886TIP3   OH230292   3.412   0.964   8.712 -0.0851 -0.3655  0.7631
 2886TIP3    H130293   3.344   0.976   8.646  0.2373  1.0265  0.6299
 2886TIP3    H230294   3.387   1.024   8.783  0.7619 -0.1443  0.8889
 2887TIP3   OH230295   4.670   1.776   1.978 -0.6174  0.0141  0.4932
 2887TIP3    H130296   4.728   1.845   2.011 -0.3867 -1.2794  3.1149
 2887TIP3    H230297   4.592   1.781   2.034 -1.4375 -0.6145 -0.5522
 2888TIP3   OH230298   1.028   0.132   7.712  0.4682 -0.0683  0.2276
 2888TIP3    H130299   1.076   0.070   7.657  0.6723 -1.0618  1.4795
 2888TIP3    H230300   0.947   0.087   7.735  1.3761 -0.6393  2.5592
 2889TIP3   OH230301   3.686   5.652   0.732  0.6482 -0.5438  0.2073
 2889TIP3    H130302   3.749   5.687   0.795  0.1442  2.6768 -0.8702
 2889TIP3    H230303   3.620   5.609   0.785  2.0881 -1.1527  1.5788
 2890TIP3   OH230304   5.335   2.499   1.483  0.1769 -0.0182  0.2027
 2890TIP3    H130305   5.420   2.469   1.450  0.2397 -1.0118  1.1923
 2890TIP3    H230306   5.274   2.428   1.462  0.0847 -0.3777  1.5493
 2891TIP3   OH230307   5.261   0.459   2.906 -0.3070 -0.0278  0.0000
 2891TIP3    H130308   5.305   0.411   2.836  0.2220  0.3687  0.0579
 2891TIP3    H230309   5.184   0.497   2.864 -0.6491 -0.7871 -0.0822
 2892TIP3   OH230310   4.398   2.250   0.134 -0.8835  0.0903 -0.2085
 2892TIP3    H130311   4.378   2.240   0.041 -2.2800  0.6651  0.0148
 2892TIP3    H230312   4.471   2.312   0.136 -0.1433 -0.7264 -0.9598
 2893TIP3   OH230313   1.265   5.771   8.219  0.5860  0.3292  0.1410
 2893TIP3    H130314   1.286   5.856   8.180  2.4781 -0.4627 -0.6839
 2893TIP3    H230315   1.319   5.709   8.170 -0.3754 -1.2867  1.0752
 2894TIP3   OH230316   4.570   6.413   1.026  0.0278 -0.0898 -0.0144
 2894TIP3    H130317   4.589   6.411   0.933  0.1222 -1.2214  0.0145
 2894TIP3    H230318   4.482   6.451   1.032  0.5569  1.2836 -0.4411
 2895TIP3   OH230319   0.897   4.944   2.727  0.3344 -0.6253 -0.8289
 2895TIP3    H130320   0.952   5.010   2.686  1.4730 -0.3048  1.0932
 2895TIP3    H230321   0.896   4.967   2.819 -1.2001 -1.9445 -0.4642
 2896TIP3   OH230322   0.133   5.777   1.394  0.0651  0.2150  0.4991
 2896TIP3    H130323   0.090   5.695   1.371 -0.3154  0.7391 -0.7727
 2896TIP3    H230324   0.215   5.776   1.345  0.2242  0.4442  0.7531
 2897TIP3   OH230325   0.499   5.438   7.487 -0.1937  0.3121 -0.0786
 2897TIP3    H130326   0.408   5.434   7.458 -0.5351  1.2869  0.7908
 2897TIP3    H230327   0.521   5.348   7.510 -1.6641  0.3447  1.7509
 2898TIP3   OH230328   5.572   5.645   8.439 -0.3877  0.1533  0.1192
 2898TIP3    H130329   5.599   5.688   8.358 -0.3702  0.6252  0.3685
 2898TIP3    H230330   5.631   5.570   8.447 -2.3239 -1.7083 -1.8500
 2899TIP3   OH230331   0.312   6.027   0.847  0.5576 -0.1856  0.5743
 2899TIP3    H130332   0.241   6.024   0.783  1.3567  0.4890 -0.3824
 2899TIP3    H230333   0.281   5.974   0.920 -0.2042 -1.3553 -0.5601
 2900TIP3   OH230334   2.855   3.012   0.698  0.3420  0.0312  0.4290
 2900TIP3    H130335   2.936   3.019   0.648 -0.5805  0.5217 -1.0672
 2900TIP3    H230336   2.828   2.921   0.688 -0.2883  0.3306 -0.7360
 2901TIP3   OH230337   3.248   4.218   0.090  0.2083  0.3113  0.9576
 2901TIP3    H130338   3.156   4.203   0.067  0.4143 -0.6960  0.7558
 2901TIP3    H230339   3.298   4.171   0.023  0.8471 -0.3744  1.8855
 2902TIP3   OH230340   4.288   5.569   0.969 -0.7698  0.5704 -0.1873
 2902TIP3    H130341   4.329   5.653   0.950 -0.1657 -0.1817 -2.4524
 2902TIP3    H230342   4.328   5.508   0.907 -0.0745 -1.7522  2.3334
 2903TIP3   OH230343   4.682   3.441   0.903 -0.6165  0.4184  0.1552
 2903TIP3    H130344   4.605   3.489   0.935 -0.2386  1.6644 -0.7521
 2903TIP3    H230345   4.648   3.387   0.832 -0.7201  0.7201 -0.0281
 2904TIP3   OH230346   6.036   0.392   0.491 -0.2182  0.0571  0.0666
 2904TIP3    H130347   6.034   0.323   0.425 -3.0104 -0.6470  0.7404
 2904TIP3    H230348   5.946   0.424   0.494  0.2019  1.2077  2.3416
 2905TIP3   OH230349   1.795   5.626   0.881  0.2976  0.0934 -0.7388
 2905TIP3    H130350   1.884   5.662   0.883  0.4479 -0.2878  0.8617
 2905TIP3    H230351   1.808   5.531   0.880 -0.1160  0.0008 -2.7168
 2906TIP3   OH230352   2.208   4.426   1.333 -0.2409 -0.0959 -0.6677
 2906TIP3    H130353   2.128   4.375   1.316 -0.3298 -0.3273  0.4053
 2906TIP3    H230354   2.176   4.513   1.357 -0.3698 -0.9340  2.6331
 2907TIP3   OH230355   0.354   2.962   2.567 -0.1450  0.2497  0.2544
 2907TIP3    H130356   0.442   3.000   2.560 -0.6915  1.2928 -2.3992
 2907TIP3    H230357   0.369   2.873   2.599  1.7642  0.7414  0.8989
 2908TIP3   OH230358   4.288   3.525   2.604  0.1008  0.3566 -0.0387
 2908TIP3    H130359   4.214   3.533   2.664 -0.2617  0.8014 -0.5394
 2908TIP3    H230360   4.328   3.612   2.604  2.4262 -0.5975  2.5004
 2909TIP3   OH230361   4.266   1.234   8.287  0.5416 -0.3504  0.6361
 2909TIP3    H130362   4.177   1.212   8.261  0.3272 -0.9477  1.8278
 2909TIP3    H230363   4.307   1.267   8.206 -0.6636 -0.3136  0.0166
 2910TIP3   OH230364   5.886   6.553   8.081  0.4383  1.0489 -0.1207
 2910TIP3    H130365   5.853   6.471   8.042  0.2122  0.4105  1.3399
 2910TIP3    H230366   5.980   6.552   8.062  0.2149  1.1674 -1.3307
 2911TIP3   OH230367   4.434   5.769   8.322 -0.5031 -0.0997 -0.4648
 2911TIP3    H130368   4.482   5.830   8.378 -0.3665  0.5963 -1.3331
 2911TIP3    H230369   4.461   5.682   8.353 -1.7869  0.2106  1.7457
 2912TIP3   OH230370   4.653   5.436   7.776  0.3083 -0.2493 -0.4091
 2912TIP3    H130371   4.743   5.442   7.808  0.6193 -1.0684 -1.0875
 2912TIP3    H230372   4.617   5.359   7.820 -0.0979  0.1306 -0.0669
 2913TIP3   OH230373   2.648   2.291   1.376 -0.2999  0.4034 -0.6947
 2913TIP3    H130374   2.618   2.208   1.413  1.7292  0.4023  1.1660
 2913TIP3    H230375   2.577   2.353   1.395 -1.3486 -0.6243 -1.1252
 2914TIP3   OH230376   1.533   5.836   2.488 -0.1551  0.1343 -0.4459
 2914TIP3    H130377   1.502   5.886   2.413 -0.5422 -0.7542 -0.8960
 2914TIP3    H230378   1.581   5.763   2.450  0.7412  0.3618  0.2092
 2915TIP3   OH230379   3.622   2.173   8.332  0.3084 -0.3721 -1.1758
 2915TIP3    H130380   3.574   2.103   8.378 -0.7485  0.8861 -0.2926
 2915TIP3    H230381   3.692   2.127   8.286  0.8286 -1.8306  0.9183
 2916TIP3   OH230382   0.083   4.702   8.946 -0.0313  0.1891  0.4269
 2916TIP3    H130383   0.053   4.653   8.870 -1.3057  0.6135  0.6230
 2916TIP3    H230384   0.051   4.791   8.932  1.8503  0.8802  0.2956
 2917TIP3   OH230385   5.685   5.425   2.468  0.3635  0.2670 -0.1123
 2917TIP3    H130386   5.627   5.351   2.485 -1.6604  2.0493  1.2578
 2917TIP3    H230387   5.660   5.456   2.381  0.0795  0.3249 -0.0105
 2918TIP3   OH230388   3.574   3.566   2.530  0.3663  0.4505  0.0931
 2918TIP3    H130389   3.550   3.525   2.447  0.9853 -0.1349  0.1945
 2918TIP3    H230390   3.543   3.505   2.597  1.9189 -0.2330  0.2310
 2919TIP3   OH230391   4.804   5.321   7.433  0.2464  0.2098 -0.5616
 2919TIP3    H130392   4.765   5.275   7.508  0.1697  1.4878  0.2081
 2919TIP3    H230393   4.732   5.372   7.397  0.8479  1.5304  0.0360
 2920TIP3   OH230394   4.880   2.536   2.383 -0.0545  0.0350  0.5007
 2920TIP3    H130395   4.880   2.503   2.473 -0.5168 -0.3988  0.3494
 2920TIP3    H230396   4.817   2.480   2.337 -1.4240  1.5905  0.3965
 2921TIP3   OH230397   2.491   3.246   1.401 -0.0275 -0.9377 -0.8130
 2921TIP3    H130398   2.459   3.179   1.462  0.2063 -2.3080 -2.1187
 2921TIP3    H230399   2.465   3.213   1.315  0.6601  0.3651 -1.5435
 2922TIP3   OH230400   5.943   5.090   0.837  0.1008 -0.4880  0.0803
 2922TIP3    H130401   5.936   5.010   0.888 -0.2594 -1.5081 -1.4823
 2922TIP3    H230402   5.995   5.065   0.761  0.3140  0.8712 -0.2513
 2923TIP3   OH230403   0.995   3.901   0.763  0.3178  0.1754  0.0386
 2923TIP3    H130404   1.078   3.855   0.775  0.8357  0.7243 -1.2624
 2923TIP3    H230405   0.930   3.844   0.804  1.1388 -0.9781 -0.2077
 2924TIP3   OH230406   4.957   6.340   2.078  0.1213  0.3739 -0.1073
 2924TIP3    H130407   4.871   6.375   2.054 -0.3708 -0.2525  0.6836
 2924TIP3    H230408   4.956   6.337   2.174  1.2483  0.8892 -0.0592
 2925TIP3   OH230409   5.095   5.719   0.384 -0.4567 -1.2022  0.2955
 2925TIP3    H130410   5.150   5.650   0.420  1.5449  0.4360  0.5995
 2925TIP3    H230411   5.052   5.758   0.460 -1.0800 -1.6732  0.1931
 2926TIP3   OH230412   4.432   1.749   8.719  0.3286  0.0815  0.0608
 2926TIP3    H130413   4.350   1.790   8.746  0.4700  1.3530 -1.3296
 2926TIP3    H230414   4.470   1.809   8.655  1.7318 -1.0953 -0.2829
 2927TIP3   OH230415   5.518   2.544   2.667 -0.2758  0.1790 -0.0833
 2927TIP3    H130416   5.558   2.625   2.698 -0.2850  0.6825 -1.3515
 2927TIP3    H230417   5.440   2.572   2.620 -3.3387 -0.8307  3.8509
 2928TIP3   OH230418   1.020   6.057   8.553  0.2773  0.0688 -0.2037
 2928TIP3    H130419   1.098   6.015   8.516  0.3470 -0.6507  0.7098
 2928TIP3    H230420   1.026   6.038   8.647 -1.5639 -0.9690 -0.2507
 2929TIP3   OH230421   0.338   5.350   2.872  0.9071  0.1085  0.0468
 2929TIP3    H130422   0.361   5.258   2.862  0.0940 -0.1445  0.4579
 2929TIP3    H230423   0.279   5.368   2.799  0.6821  0.1781  0.2461
 2930TIP3   OH230424   1.591   3.557   9.166 -1.0399  0.0545 -0.2551
 2930TIP3    H130425   1.634   3.480   9.204 -0.1665  0.6091 -0.0918
 2930TIP3    H230426   1.664   3.611   9.134 -1.4445  2.0604  1.9414
 2931TIP3   OH230427   0.134   4.679   1.854  0.3273 -0.0626 -0.0006
 2931TIP3    H130428   0.179   4.675   1.939 -0.0822 -0.6171  0.1958
 2931TIP3    H230429   0.189   4.736   1.801  0.7270  0.0824  0.5579
 2932TIP3   OH230430   5.860   3.404   7.685  0.4417  0.4466 -0.3200
 2932TIP3    H130431   5.848   3.311   7.702  2.2068  0.2974  0.2849
 2932TIP3    H230432   5.817   3.419   7.601 -4.4106  0.2209  1.8280
 2933TIP3   OH230433   1.767   5.764   8.391  0.3162 -0.0568 -0.0452
 2933TIP3    H130434   1.837   5.796   8.449  0.5514 -1.5748  0.5451
 2933TIP3    H230435   1.710   5.712   8.448 -0.1895 -0.4761 -0.9195
 2934TIP3   OH230436   6.514   2.254   2.588 -0.0302  0.8334 -0.0781
 2934TIP3    H130437   6.487   2.174   2.633 -1.4526  2.5288  2.2666
 2934TIP3    H230438   6.591   2.284   2.636 -0.3907  1.6340  0.0117
 2935TIP3   OH230439   1.680   6.632   1.520  0.4468  0.3532  0.7826
 2935TIP3    H130440   1.715   6.719   1.505 -0.9748  0.7111 -0.7232
 2935TIP3    H230441   1.609   6.646   1.583  0.1273  0.3092  0.4334
 2936TIP3   OH230442   0.781   1.184   0.114  0.3618  0.4519  0.3262
 2936TIP3    H130443   0.827   1.195   0.198  0.7080 -0.0569  0.2062
 2936TIP3    H230444   0.848   1.200   0.048 -0.0485  1.4361  0.1338
 2937TIP3   OH230445   3.595   3.983   9.133  0.0396  0.0033  0.2477
 2937TIP3    H130446   3.636   3.975   9.046 -0.7987 -3.5731  0.0076
 2937TIP3    H230447   3.509   4.020   9.116 -1.0008 -2.7161 -0.8839
 2938TIP3   OH230448   3.919   5.748   1.020  0.7647  0.2759 -0.1430
 2938TIP3    H130449   3.982   5.679   1.041  1.9468  1.2143 -0.4895
 2938TIP3    H230450   3.854   5.743   1.090  3.0327  1.4365  2.2239
 2939TIP3   OH230451   1.847   5.402   2.073 -0.1708  0.1413  0.2475
 2939TIP3    H130452   1.907   5.338   2.036  0.7830  2.1447 -1.9710
 2939TIP3    H230453   1.887   5.427   2.157 -0.0037 -1.3199  0.6316
 2940TIP3   OH230454   2.806   0.273   2.150 -0.5973 -0.0697  0.4596
 2940TIP3    H130455   2.800   0.364   2.119  1.9795 -0.3830 -1.3003
 2940TIP3    H230456   2.876   0.275   2.215 -0.0979 -0.8749 -0.0366
 2941TIP3   OH230457   5.222   2.693   8.404  0.0818  0.2120  0.5057
 2941TIP3    H130458   5.149   2.754   8.395  0.0500  0.0839 -0.1359
 2941TIP3    H230459   5.275   2.729   8.475 -0.2819  0.6305  0.5677
 2942TIP3   OH230460   0.905   6.493   8.901 -0.1190 -0.4751  0.1783
 2942TIP3    H130461   0.853   6.440   8.961  0.0393 -1.6823 -0.7065
 2942TIP3    H230462   0.854   6.494   8.819 -0.1595  0.8304  0.1976
 2943TIP3   OH230463   1.308   4.932   6.929  0.5741 -0.1360  0.0542
 2943TIP3    H130464   1.280   4.982   7.006  2.4078  1.2306 -0.0930
 2943TIP3    H230465   1.237   4.943   6.866  0.1576  0.8758  0.6634
 2944TIP3   OH230466   6.541   3.679   0.471  0.3069 -0.1785  0.5255
 2944TIP3    H130467   6.620   3.648   0.515  0.8802  0.2299 -0.1971
 2944TIP3    H230468   6.555   3.772   0.459 -1.1976  0.3392  2.2460
 2945TIP3   OH230469   0.811   6.272   9.043 -0.4430  0.5166  0.1711
 2945TIP3    H130470   0.724   6.281   9.082 -0.4813 -2.0174  0.9079
 2945TIP3    H230471   0.869   6.254   9.118  0.1163 -0.9214 -0.5566
 2946TIP3   OH230472   3.789   6.388   0.321 -0.0478  0.1394 -0.2669
 2946TIP3    H130473   3.848   6.325   0.280  0.2947 -0.1266  0.6073
 2946TIP3    H230474   3.711   6.338   0.343  0.7662 -0.3741  1.7114
 2947TIP3   OH230475   4.845   6.263   0.523  0.9531 -0.5808  0.0797
 2947TIP3    H130476   4.928   6.263   0.571 -0.4457  1.3192  2.7436
 2947TIP3    H230477   4.835   6.353   0.491 -1.1454 -0.0613  1.9678
 2948TIP3   OH230478   6.468   6.500   8.694  0.5765 -0.5125  0.5874
 2948TIP3    H130479   6.534   6.562   8.723  0.0708  0.5505 -0.4782
 2948TIP3    H230480   6.389   6.523   8.744 -0.0163  0.6816 -0.8208
 2949TIP3   OH230481   3.090   0.939   9.178 -0.3834 -0.8124  0.5159
 2949TIP3    H130482   3.103   0.844   9.188  0.7754 -0.7603 -0.3217
 2949TIP3    H230483   3.071   0.951   9.085  0.0475 -0.1615  0.5088
 2950TIP3   OH230484   6.142   1.335   1.193 -0.1312  0.1268 -0.3354
 2950TIP3    H130485   6.203   1.388   1.244  0.5043 -1.4269  0.5946
 2950TIP3    H230486   6.089   1.290   1.259 -1.3018  0.3111 -1.1122
 2951TIP3   OH230487   4.225   6.683   8.259 -0.2409 -0.0692  0.4443
 2951TIP3    H130488   4.130   6.684   8.265 -0.2993 -0.9376 -0.1341
 2951TIP3    H230489   4.244   6.714   8.170  0.0275  0.2792  0.6194
 2952TIP3   OH230490   4.889   2.852   7.437 -0.1084  0.2234  0.2397
 2952TIP3    H130491   4.950   2.833   7.508 -0.4480 -0.8942  0.2535
 2952TIP3    H230492   4.818   2.901   7.478 -0.5773 -0.9039  0.8013
 2953TIP3   OH230493   4.863   4.547   8.166  0.2877 -0.2081 -0.0864
 2953TIP3    H130494   4.799   4.485   8.200 -0.7470  1.2611  0.7721
 2953TIP3    H230495   4.946   4.520   8.206 -0.2608 -0.6486  0.7977
 2954TIP3   OH230496   2.069   3.769   7.299  0.5875 -0.1354  0.7414
 2954TIP3    H130497   2.141   3.824   7.329  1.1764 -0.7143  0.4196
 2954TIP3    H230498   2.043   3.719   7.376  0.7227 -0.1321  0.7901
 2955TIP3   OH230499   4.240   4.742   8.890 -0.8495 -0.5528  0.1054
 2955TIP3    H130500   4.243   4.812   8.824 -1.1815 -0.2963  0.3548
 2955TIP3    H230501   4.148   4.741   8.918 -0.2549  1.0527  2.3930
 2956TIP3   OH230502   3.717   4.997   7.381 -0.5525  0.6438  0.4834
 2956TIP3    H130503   3.711   4.978   7.474 -0.5762  0.7083  0.4953
 2956TIP3    H230504   3.771   4.927   7.345 -2.4272 -0.7206  0.1594
 2957TIP3   OH230505   3.273   1.956   7.578 -0.0476 -0.2139  0.3860
 2957TIP3    H130506   3.182   1.948   7.551 -0.4279  0.6178  1.3520
 2957TIP3    H230507   3.310   2.022   7.519 -0.7150  1.1495  1.4252
 2958TIP3   OH230508   5.949   5.804   8.286  0.1104  0.1327 -0.3252
 2958TIP3    H130509   5.893   5.744   8.238  1.3661 -0.6937 -0.8196
 2958TIP3    H230510   5.890   5.871   8.319 -1.2701 -1.1023 -0.1723
 2959TIP3   OH230511   2.075   1.471   1.291 -0.1114  0.0692  0.2174
 2959TIP3    H130512   2.097   1.445   1.201 -1.5360  0.4602 -0.2796
 2959TIP3    H230513   1.990   1.429   1.307 -0.1387  0.4692  1.1807
 2960TIP3   OH230514   1.073   5.551   7.965 -0.1663  0.3387 -0.2101
 2960TIP3    H130515   1.066   5.645   7.980  0.1883  0.6427 -1.7211
 2960TIP3    H230516   1.039   5.539   7.876 -0.3017 -0.9802 -0.0043
 2961TIP3   OH230517   5.529   4.367   9.178 -0.4955 -0.3116 -0.6515
 2961TIP3    H130518   5.573   4.376   9.263 -0.4648 -0.7004 -0.6233
 2961TIP3    H230519   5.443   4.408   9.191 -0.0330  0.7335 -0.8017
 2962TIP3   OH230520   1.759   0.345   7.635  0.3883  0.1050  0.1113
 2962TIP3    H130521   1.750   0.440   7.643  0.9257  0.0887  1.1202
 2962TIP3    H230522   1.824   0.322   7.701  1.7739 -0.7246 -1.4676
 2963TIP3   OH230523   0.632   2.254   2.704  0.0939 -0.3545 -0.0708
 2963TIP3    H130524   0.616   2.180   2.763 -0.7452 -0.9961 -1.0568
 2963TIP3    H230525   0.715   2.232   2.661 -0.4076 -0.9880 -0.7312
 2964TIP3   OH230526   2.648   6.096   7.705  0.2081 -0.4673 -0.3601
 2964TIP3    H130527   2.706   6.021   7.696 -0.7587 -1.5547  1.6317
 2964TIP3    H230528   2.575   6.078   7.645  0.1345 -0.9878 -0.1190
 2965TIP3   OH230529   4.038   1.598   8.607 -0.3630  0.3926 -0.0142
 2965TIP3    H130530   4.083   1.535   8.663  0.7212  0.3790 -0.8574
 2965TIP3    H230531   3.953   1.558   8.589  0.7562 -1.5045 -1.5801
 2966TIP3   OH230532   0.002   4.578   0.949  0.6966 -0.4875 -0.7712
 2966TIP3    H130533  -0.071   4.595   0.890  1.1342 -1.0947 -1.5058
 2966TIP3    H230534  -0.018   4.629   1.028  0.1552  0.4173 -1.4783
 2967TIP3   OH230535   1.612   3.523   8.329 -0.4161  0.0358 -0.2423
 2967TIP3    H130536   1.562   3.513   8.249 -1.2424 -2.7287  0.5070
 2967TIP3    H230537   1.547   3.522   8.399  0.2120  3.2131  0.5288
 2968TIP3   OH230538   6.216   4.465   8.800  0.0104  0.5427 -0.1354
 2968TIP3    H130539   6.180   4.502   8.719  1.6709 -0.6578 -1.4984
 2968TIP3    H230540   6.212   4.370   8.786 -1.5908  0.2171  2.1068
 2969TIP3   OH230541   2.519   6.681   9.074  0.0972  0.9195 -0.1419
 2969TIP3    H130542   2.594   6.632   9.039 -1.7243 -1.0966 -1.4600
 2969TIP3    H230543   2.511   6.757   9.016  0.4446  0.5597 -0.6764
 2970TIP3   OH230544   2.759   1.346   3.025 -0.0862 -0.2573  0.1966
 2970TIP3    H130545   2.814   1.290   3.081  0.1811  2.0259  2.4307
 2970TIP3    H230546   2.671   1.338   3.063  0.0972  1.3197  1.0188
 2971TIP3   OH230547   3.165   4.086   1.326 -0.4376  0.4131  0.6252
 2971TIP3    H130548   3.198   3.998   1.347  0.1171  0.8230  1.5231
 2971TIP3    H230549   3.185   4.096   1.232  1.7767  0.5187  1.0421
 2972TIP3   OH230550   2.631   3.067   1.668 -0.2534 -0.0082 -0.5387
 2972TIP3    H130551   2.624   3.064   1.764  0.6289  2.3785 -0.3274
 2972TIP3    H230552   2.546   3.036   1.637 -0.9326  0.1447  1.0614
 2973TIP3   OH230553   0.352   5.918   8.943  0.2865  0.6046 -0.4811
 2973TIP3    H130554   0.432   5.884   8.983  1.4068  0.9998 -2.2558
 2973TIP3    H230555   0.376   6.005   8.911 -0.6562  0.5026 -1.5422
 2974TIP3   OH230556   5.805   5.271   8.973 -0.0324  0.0811 -0.3314
 2974TIP3    H130557   5.838   5.305   9.056 -0.5423  2.2004 -0.9522
 2974TIP3    H230558   5.884   5.253   8.922  0.2549  0.7602 -0.1411
 2975TIP3   OH230559   1.830   1.120   1.851  0.5370 -0.4912  0.1853
 2975TIP3    H130560   1.788   1.082   1.928 -0.3895 -0.5980 -0.3566
 2975TIP3    H230561   1.757   1.154   1.798  1.2137  0.3506 -0.2380
 2976TIP3   OH230562   5.863   5.722   9.180  0.4225  0.5692 -0.9166
 2976TIP3    H130563   5.799   5.714   9.251 -0.0789 -1.9647 -1.5607
 2976TIP3    H230564   5.839   5.803   9.135  0.2650  1.8111  1.2710
 2977TIP3   OH230565   2.296   4.557   8.151 -0.5169  0.1773  0.8057
 2977TIP3    H130566   2.331   4.582   8.237 -0.3619  1.4818  0.3870
 2977TIP3    H230567   2.217   4.508   8.171 -3.0569  4.1596  1.7845
 2978TIP3   OH230568   5.026   3.391   0.181  0.0550  0.4611  0.1950
 2978TIP3    H130569   5.069   3.476   0.180  2.0167 -0.4552  1.1655
 2978TIP3    H230570   5.091   3.330   0.148 -1.1299 -0.7622  0.0196
 2979TIP3   OH230571   0.535   0.293   8.405  0.0380  0.4035 -0.8605
 2979TIP3    H130572   0.442   0.316   8.406 -0.3815 -1.1405  0.6022
 2979TIP3    H230573   0.580   0.375   8.427 -1.1976  0.4894  1.6452
 2980TIP3   OH230574   6.000   0.601   1.877  0.0705  0.1022 -0.1018
 2980TIP3    H130575   5.969   0.691   1.888 -0.2865 -0.1413  1.0516
 2980TIP3    H230576   6.016   0.570   1.966 -0.4378 -1.1883 -0.4309
 2981TIP3   OH230577   4.246   5.405   1.565  0.0692  0.1386  0.3479
 2981TIP3    H130578   4.249   5.434   1.656  0.6035  0.8310  0.1156
 2981TIP3    H230579   4.337   5.408   1.535 -0.1207  0.0834 -0.2595
 2982TIP3   OH230580   0.917   0.674   1.488 -0.5163 -0.2544  0.1793
 2982TIP3    H130581   0.979   0.707   1.422 -1.6757 -0.5465 -1.1074
 2982TIP3    H230582   0.923   0.579   1.482  0.2586 -0.2954  1.3865
 2983TIP3   OH230583   4.207   4.645   1.539  0.0995  0.0909  0.5063
 2983TIP3    H130584   4.262   4.630   1.616  0.0924 -1.5065  0.2358
 2983TIP3    H230585   4.147   4.570   1.538  1.0846 -0.7660 -1.8812
 2984TIP3   OH230586   0.099   2.964   2.655 -1.0680 -0.5798 -0.1566
 2984TIP3    H130587   0.087   2.872   2.631 -1.2149 -0.5835 -0.0705
 2984TIP3    H230588   0.192   2.981   2.640 -1.3697 -0.2415 -1.9325
 2985TIP3   OH230589   3.560   1.466   8.241  0.1577 -0.0765  0.2025
 2985TIP3    H130590   3.564   1.514   8.324  0.7857  0.4977 -0.1534
 2985TIP3    H230591   3.618   1.515   8.182  0.1282 -0.7805 -0.4220
 2986TIP3   OH230592   1.809   5.699   2.250 -0.6797 -0.2504 -0.3570
 2986TIP3    H130593   1.729   5.648   2.261 -0.2377 -0.6564  1.1358
 2986TIP3    H230594   1.880   5.636   2.261 -0.1390  0.2409 -0.9361
 2987TIP3   OH230595   2.561   1.613   0.776 -0.1573 -0.0896 -0.4527
 2987TIP3    H130596   2.604   1.694   0.804  1.9008 -0.7692 -1.4614
 2987TIP3    H230597   2.578   1.552   0.847  1.0651 -0.4984 -1.0622
 2988TIP3   OH230598   1.405   3.654   7.845 -0.2126  0.2293  0.1843
 2988TIP3    H130599   1.344   3.582   7.832 -0.8825  0.7623  0.3134
 2988TIP3    H230600   1.374   3.722   7.786  1.3274 -0.1191 -1.1037
 2989TIP3   OH230601   4.803   2.491   7.605 -0.1076 -0.3955 -0.1013
 2989TIP3    H130602   4.808   2.507   7.511 -0.5836 -1.7587 -0.3753
 2989TIP3    H230603   4.804   2.579   7.644 -1.8230  0.2907 -1.4756
 2990TIP3   OH230604   1.973   0.313   3.075 -0.1590  0.4107  0.1279
 2990TIP3    H130605   1.882   0.289   3.061  0.8245 -2.8342 -1.6984
 2990TIP3    H230606   1.988   0.301   3.169 -1.4533  0.5003  0.3568
 2991TIP3   OH230607   3.065   3.320   1.108  0.2638  0.1151 -0.1310
 2991TIP3    H130608   3.080   3.412   1.131  0.1976  0.2372 -0.5553
 2991TIP3    H230609   3.008   3.287   1.177 -1.1938  0.8888 -0.9142
 2992TIP3   OH230610   4.984   5.414   8.532  0.5332  0.5429 -0.4942
 2992TIP3    H130611   5.039   5.339   8.556 -1.1007 -0.6374 -0.2901
 2992TIP3    H230612   4.913   5.413   8.596  0.0685  1.8179 -0.9664
 2993TIP3   OH230613   5.261   1.882   2.189  0.5973 -0.0153  0.3110
 2993TIP3    H130614   5.296   1.837   2.112 -1.5250  0.5579 -1.1006
 2993TIP3    H230615   5.274   1.975   2.170  0.1276  0.1289  0.6744
 2994TIP3   OH230616   5.388   0.599   8.702 -0.0078  0.4218 -0.4414
 2994TIP3    H130617   5.483   0.591   8.716 -0.3612 -1.9698  1.1001
 2994TIP3    H230618   5.376   0.576   8.610  0.7233 -1.9515 -0.0045
 2995TIP3   OH230619   3.397   3.224   0.406 -0.4819  0.9015  0.0684
 2995TIP3    H130620   3.394   3.259   0.495 -1.2505  1.1245 -0.0388
 2995TIP3    H230621   3.305   3.219   0.379 -0.2289  1.5473 -0.9840
 2996TIP3   OH230622   3.129   1.596   2.013 -0.7027  0.3924  0.2744
 2996TIP3    H130623   3.097   1.677   2.053  0.5000  1.5660 -1.0190
 2996TIP3    H230624   3.104   1.603   1.921  2.3808  1.0592 -0.6652
 2997TIP3   OH230625   1.061   2.353   7.836  0.3666  0.1085  0.5713
 2997TIP3    H130626   1.116   2.373   7.760  0.2818 -0.9585  0.2117
 2997TIP3    H230627   1.035   2.262   7.823 -0.5093  0.2356  1.3539
 2998TIP3   OH230628   4.936   4.257   0.682 -0.3279  0.0243 -0.2431
 2998TIP3    H130629   4.983   4.277   0.602 -0.9437  1.0868 -0.3702
 2998TIP3    H230630   4.856   4.213   0.653 -0.0919 -0.4747 -0.1382
 2999TIP3   OH230631   3.249   4.490   8.975 -0.2327 -0.1675  0.0053
 2999TIP3    H130632   3.163   4.518   8.944  0.2985  0.4672 -0.9313
 2999TIP3    H230633   3.287   4.568   9.014  0.4701 -0.0631 -0.8527
 3000TIP3   OH230634   6.084   3.602   0.805 -0.3154 -0.0571 -0.2665
 3000TIP3    H130635   6.142   3.652   0.863 -0.8163 -0.2368  0.3938
 3000TIP3    H230636   6.046   3.534   0.860 -1.3872  0.2347 -0.6146
 3001TIP3   OH230637   5.942   1.328   0.398  0.6212  1.1328  0.3056
 3001TIP3    H130638   5.972   1.330   0.489 -0.6178  0.7678  0.7402
 3001TIP3    H230639   5.883   1.403   0.390 -0.3326  0.3880  0.2049
 3002TIP3   OH230640   3.851   6.452   7.680 -0.2261 -0.3502  0.1212
 3002TIP3    H130641   3.914   6.524   7.678 -0.2705 -0.2501  1.4652
 3002TIP3    H230642   3.894   6.384   7.733 -0.8031 -0.7118  0.1365
 3003TIP3   OH230643   0.819   1.857   7.950  0.0651  0.3169 -0.0084
 3003TIP3    H130644   0.838   1.819   7.864 -0.2279  0.1233  0.0099
 3003TIP3    H230645   0.723   1.866   7.951 -0.3684 -2.8435  1.5695
 3004TIP3   OH230646   4.154   0.690   8.613  0.0019  0.0598  0.3196
 3004TIP3    H130647   4.164   0.595   8.603  0.1446 -0.3205  3.3690
 3004TIP3    H230648   4.183   0.726   8.528  1.2159 -2.5204 -0.4587
 3005TIP3   OH230649   1.427   5.097   8.274 -0.3069 -0.1333  0.1112
 3005TIP3    H130650   1.342   5.141   8.281 -1.2183 -1.6146 -0.9138
 3005TIP3    H230651   1.423   5.028   8.341  0.7143  0.7037  1.0670
 3006TIP3   OH230652   4.339   3.161   1.202  0.2197 -0.2613  0.0934
 3006TIP3    H130653   4.295   3.089   1.158 -0.1265 -0.6904  1.1204
 3006TIP3    H230654   4.401   3.119   1.260  1.5494  0.3261 -0.8468
 3007TIP3   OH230655   2.092   4.752   7.544 -0.3615  0.6340 -0.2572
 3007TIP3    H130656   2.006   4.792   7.561 -0.6235 -0.0653  0.1055
 3007TIP3    H230657   2.075   4.691   7.472 -0.1222  0.6588 -0.3328
 3008TIP3   OH230658   3.354   2.490   8.814 -0.0552 -0.3747 -0.1320
 3008TIP3    H130659   3.306   2.417   8.855 -0.7443  0.7417  1.1413
 3008TIP3    H230660   3.357   2.467   8.721 -2.8391 -0.6631 -0.2445
 3009TIP3   OH230661   5.772   3.323   8.892 -0.6292  0.4532 -0.0314
 3009TIP3    H130662   5.812   3.353   8.973 -0.8039 -1.2249  0.7088
 3009TIP3    H230663   5.678   3.335   8.905 -0.7010 -0.3593  0.2702
 3010TIP3   OH230664   1.678   1.494   1.772 -0.3837 -0.7162 -0.4513
 3010TIP3    H130665   1.717   1.569   1.818 -0.7905  0.0784 -1.3511
 3010TIP3    H230666   1.608   1.464   1.830  1.0876 -1.7421  0.8775
 3011TIP3   OH230667   3.635   5.437   1.209 -0.2907  0.2266 -0.4601
 3011TIP3    H130668   3.645   5.528   1.233 -2.9992  0.4593  0.0733
 3011TIP3    H230669   3.663   5.433   1.117  0.6526  1.3995 -0.2341
 3012TIP3   OH230670   5.585   0.118   8.880  0.0003 -0.1339  0.2211
 3012TIP3    H130671   5.500   0.161   8.878 -0.3840 -0.7993  1.2546
 3012TIP3    H230672   5.609   0.108   8.787 -0.9992  0.1448 -0.0839
 3013TIP3   OH230673   3.679   2.347   8.681  0.2806 -0.4965  0.8472
 3013TIP3    H130674   3.711   2.351   8.771  1.9562 -0.8603  0.3045
 3013TIP3    H230675   3.755   2.320   8.630 -0.7342 -0.6522 -0.6377
 3014TIP3   OH230676   5.282   4.431   1.606  0.1040  0.1463  0.3515
 3014TIP3    H130677   5.268   4.373   1.681  1.3880 -2.1217 -1.0382
 3014TIP3    H230678   5.219   4.401   1.540 -0.2695  1.3782  0.1322
 3015TIP3   OH230679   4.031   3.105   8.026 -0.1931  0.4544  0.2450
 3015TIP3    H130680   4.028   3.114   7.931 -0.9038  0.5610  0.2791
 3015TIP3    H230681   3.977   3.029   8.045 -1.0710  1.1600  0.6590
 3016TIP3   OH230682   2.240   0.024   0.079  0.5970 -0.3875  0.3164
 3016TIP3    H130683   2.264   0.105   0.035 -0.5668 -0.2028 -0.0140
 3016TIP3    H230684   2.228   0.049   0.171  1.8690 -0.5421  0.5516
 3017TIP3   OH230685   4.574   1.247   8.417 -0.1800 -0.2058 -0.3272
 3017TIP3    H130686   4.500   1.287   8.464  0.3540  0.9110 -0.4126
 3017TIP3    H230687   4.641   1.315   8.414  1.2983 -1.5311  0.6843
 3018TIP3   OH230688   6.053   0.240   2.335  0.1740  0.3524  0.4620
 3018TIP3    H130689   6.024   0.171   2.276  0.9900  1.0432 -0.7866
 3018TIP3    H230690   6.079   0.195   2.415 -0.1074 -0.6917 -0.0270
 3019TIP3   OH230691   3.436   4.910   2.135 -0.0369  1.0782  0.0133
 3019TIP3    H130692   3.475   4.840   2.188  1.1612  1.7997  0.1292
 3019TIP3    H230693   3.508   4.971   2.120 -0.3609  0.9725 -2.3512
 3020TIP3   OH230694   4.685   0.476   1.481 -0.0479  0.2326  0.6371
 3020TIP3    H130695   4.620   0.437   1.422 -0.7408  1.3186  0.6485
 3020TIP3    H230696   4.765   0.427   1.465 -0.8216 -1.0440  0.5011
 3021TIP3   OH230697   5.002   2.864   7.680  0.2500 -0.3409  0.0885
 3021TIP3    H130698   5.065   2.794   7.700 -0.0385 -0.7619 -0.4508
 3021TIP3    H230699   5.042   2.943   7.716  1.7221 -0.3633 -1.3667
 3022TIP3   OH230700   5.171   0.356   2.651  0.4854 -0.1387  0.3924
 3022TIP3    H130701   5.107   0.376   2.719 -0.4399 -1.7380  0.0363
 3022TIP3    H230702   5.201   0.267   2.672  2.3792  0.4505  0.3643
 3023TIP3   OH230703   1.147   3.825   9.066  0.4573 -0.6686  0.4279
 3023TIP3    H130704   1.121   3.882   9.138 -0.4661  0.2900 -0.6029
 3023TIP3    H230705   1.183   3.747   9.107  1.4867  0.5464  1.8908
 3024TIP3   OH230706   2.901   5.755   2.251  0.0604  0.3684  0.6149
 3024TIP3    H130707   2.982   5.715   2.219 -0.8619  0.0584 -1.5692
 3024TIP3    H230708   2.908   5.753   2.346  1.8599 -1.1913  0.5018
 3025TIP3   OH230709   6.545   6.242   8.701  0.2453  0.2084  0.8017
 3025TIP3    H130710   6.505   6.246   8.788  2.5129  2.1576  1.8806
 3025TIP3    H230711   6.488   6.297   8.646 -1.6006 -1.6105  0.7908
 3026TIP3   OH230712   5.826   0.239   2.091 -0.2597 -0.0629  0.0038
 3026TIP3    H130713   5.770   0.168   2.122  0.1558 -0.0610  0.7965
 3026TIP3    H230714   5.766   0.301   2.050 -0.8580 -0.0050  0.9328
 3027TIP3   OH230715   0.465   5.585   7.989 -0.0133 -0.5295 -0.0304
 3027TIP3    H130716   0.495   5.587   7.898  0.8077 -1.1915  0.2099
 3027TIP3    H230717   0.409   5.662   7.997  0.5667  0.0029 -0.8664
 3028TIP3   OH230718   4.342   1.232   1.576  0.0961  0.3117  0.1470
 3028TIP3    H130719   4.415   1.213   1.516  0.3711 -0.4540  0.7109
 3028TIP3    H230720   4.290   1.298   1.530 -0.0204 -0.6811 -1.2047
 3029TIP3   OH230721   4.414   4.368   8.441  0.2210 -0.2832 -0.9759
 3029TIP3    H130722   4.435   4.291   8.387  1.0277 -0.4957 -0.3745
 3029TIP3    H230723   4.338   4.341   8.493  0.9616 -0.9591 -0.2150
 3030TIP3   OH230724   0.580   6.537   9.154  0.4355  0.1213  0.4222
 3030TIP3    H130725   0.508   6.578   9.107 -0.0403 -0.9539  0.1801
 3030TIP3    H230726   0.553   6.446   9.165  2.5158 -0.7805 -1.2699
 3031TIP3   OH230727   0.027   2.704   2.599  0.4588  0.3531  0.1470
 3031TIP3    H130728   0.003   2.680   2.689  0.9854 -1.1832 -0.0889
 3031TIP3    H230729   0.094   2.641   2.575  0.9798  1.3181 -1.0253
 3032TIP3   OH230730   5.336   4.054   7.541  0.1394 -0.4358 -0.8583
 3032TIP3    H130731   5.252   4.043   7.587  0.5046  0.8599  0.1500
 3032TIP3    H230732   5.314   4.106   7.463 -0.3760 -2.1557 -1.9408
 3033TIP3   OH230733   3.783   5.631   0.479  0.0854 -0.1231 -0.5428
 3033TIP3    H130734   3.712   5.588   0.432 -0.0844  0.1106 -0.4994
 3033TIP3    H230735   3.747   5.649   0.566  0.1845  0.0380 -0.5357
 3034TIP3   OH230736   2.368   0.636   0.348  0.6521 -0.2105 -0.0483
 3034TIP3    H130737   2.288   0.610   0.394  1.2027 -2.8410 -0.4203
 3034TIP3    H230738   2.338   0.695   0.279 -0.9103 -0.6870  0.1856
 3035TIP3   OH230739   5.097   3.200   8.891 -0.6559 -0.4288 -0.4718
 3035TIP3    H130740   5.068   3.178   8.980  0.5482 -0.5032 -0.0821
 3035TIP3    H230741   5.130   3.290   8.898  0.7749 -0.9229 -0.4871
 3036TIP3   OH230742   3.968   1.745   1.358 -0.1243  0.4844  0.8760
 3036TIP3    H130743   4.024   1.797   1.301 -0.8724  0.3430 -0.0090
 3036TIP3    H230744   3.932   1.677   1.301 -0.3461 -0.0861  1.6753
 3037TIP3   OH230745   5.413   6.008   2.174 -0.3300 -0.1465 -0.0188
 3037TIP3    H130746   5.408   5.931   2.117  1.9971 -0.2995 -0.1251
 3037TIP3    H230747   5.477   5.984   2.242  2.1593  2.3487 -1.2685
 3038TIP3   OH230748   2.855   0.606   8.173  0.6978  0.2034 -0.1779
 3038TIP3    H130749   2.792   0.647   8.113 -0.8150 -1.0575  0.4842
 3038TIP3    H230750   2.928   0.580   8.116 -0.6523 -0.8783 -1.5067
 3039TIP3   OH230751   1.302   0.894   1.990  0.2826 -0.4706 -0.5145
 3039TIP3    H130752   1.227   0.835   1.991 -1.0420  1.1593  0.0976
 3039TIP3    H230753   1.323   0.909   2.082  0.3019  0.3400 -0.6383
 3040TIP3   OH230754   4.707   6.015   2.698 -0.5721 -0.0974  0.0570
 3040TIP3    H130755   4.724   6.092   2.751 -2.6002  1.8072 -1.8308
 3040TIP3    H230756   4.638   5.967   2.745 -1.1247  0.6402  0.0075
 3041TIP3   OH230757   3.338   0.213   0.109  0.1591  0.0457  0.3736
 3041TIP3    H130758   3.363   0.198   0.200 -0.0591 -0.3845  0.3700
 3041TIP3    H230759   3.398   0.157   0.058 -0.6762 -0.8757  0.3558
 3042TIP3   OH230760   1.733   0.509   0.189  0.0611  0.3096 -0.3897
 3042TIP3    H130761   1.708   0.550   0.272  0.1038 -0.2747 -0.0848
 3042TIP3    H230762   1.764   0.582   0.135 -1.1797  0.8858 -0.3614
 3043TIP3   OH230763   3.421   4.321   1.822 -0.0711  0.0859  0.1351
 3043TIP3    H130764   3.431   4.380   1.897 -0.6152 -1.9378  1.8875
 3043TIP3    H230765   3.510   4.301   1.795  0.2991 -1.7728  2.4647
 3044TIP3   OH230766   0.728   1.356   8.789 -0.4386 -0.4032  0.2885
 3044TIP3    H130767   0.686   1.347   8.703  0.3277  0.9606 -0.2597
 3044TIP3    H230768   0.694   1.438   8.823  0.6080 -0.0592  0.5128
 3045TIP3   OH230769   6.511   4.174   1.351  0.0191 -0.7948  0.0337
 3045TIP3    H130770   6.418   4.181   1.372  0.2986 -0.0946  1.1028
 3045TIP3    H230771   6.531   4.081   1.359 -0.6066 -0.9614 -0.2940
 3046TIP3   OH230772   3.395   0.160   0.388 -0.3003  0.1846 -0.5719
 3046TIP3    H130773   3.452   0.083   0.395 -1.0332 -0.2187  1.3900
 3046TIP3    H230774   3.319   0.139   0.441 -0.5091  2.2772  0.0537
 3047TIP3   OH230775   1.450   6.601   0.697 -0.1208  0.1119  0.1443
 3047TIP3    H130776   1.398   6.679   0.674  0.7155  0.5949 -0.1633
 3047TIP3    H230777   1.503   6.585   0.620  1.1743  0.4548  0.9363
 3048TIP3   OH230778   2.965   3.445   7.429 -0.0883  0.0605 -0.4877
 3048TIP3    H130779   3.042   3.499   7.446  0.0977 -0.3372 -0.0545
 3048TIP3    H230780   2.892   3.508   7.425 -0.0054  0.2820  0.8341
 3049TIP3   OH230781   2.412   5.802   2.537 -0.0611  0.0355 -0.7301
 3049TIP3    H130782   2.502   5.825   2.560  0.3608  0.5487 -2.7071
 3049TIP3    H230783   2.393   5.724   2.590  0.3010  1.8058  2.2557
 3050TIP3   OH230784   5.363   1.902   8.628  0.5819  0.1608 -0.2713
 3050TIP3    H130785   5.376   1.826   8.571 -0.9654 -0.6891  0.4386
 3050TIP3    H230786   5.273   1.929   8.612  0.4947  0.6303  0.8907
 3051TIP3   OH230787   1.643   2.083   8.518 -0.3321 -0.3815  0.3639
 3051TIP3    H130788   1.692   2.157   8.552  0.6685 -0.7026 -0.3412
 3051TIP3    H230789   1.655   2.088   8.423 -0.6737 -1.1567  0.2707
 3052TIP3   OH230790   3.013   1.155   8.010  0.2353  0.2090 -0.0345
 3052TIP3    H130791   3.006   1.236   7.959 -0.3646  0.5664  0.5921
 3052TIP3    H230792   2.941   1.161   8.073 -0.7226 -1.4713 -0.8926
 3053TIP3   OH230793   2.044   1.273   2.183 -0.0283 -0.2803 -0.3385
 3053TIP3    H130794   2.089   1.219   2.118 -0.1952  0.4734 -1.0984
 3053TIP3    H230795   2.114   1.323   2.224 -0.0765  0.3950 -1.0498
 3054TIP3   OH230796   5.277   0.867   0.841 -0.0603  0.1469  0.2550
 3054TIP3    H130797   5.352   0.925   0.852  0.5993 -0.9876  2.1952
 3054TIP3    H230798   5.213   0.920   0.795  1.0232  1.9576  0.7185
 3055TIP3   OH230799   5.504   6.284   1.303  0.6632  0.6978  0.0712
 3055TIP3    H130800   5.448   6.325   1.369  1.6151  1.3269  0.5158
 3055TIP3    H230801   5.456   6.205   1.276 -0.5238  1.3307  0.2659
 3056TIP3   OH230802   3.273   6.026   0.232 -0.2081  0.5231  0.3867
 3056TIP3    H130803   3.337   6.039   0.162 -1.0994 -2.2907 -1.0913
 3056TIP3    H230804   3.323   5.984   0.302 -0.0383  0.0044 -0.0380
 3057TIP3   OH230805   2.590   1.294   0.265 -0.1876  0.4070  0.2631
 3057TIP3    H130806   2.619   1.203   0.260 -1.7446 -0.2163  1.9101
 3057TIP3    H230807   2.577   1.319   0.173 -0.4628 -1.2701 -0.1935
 3058TIP3   OH230808   6.080   5.973   0.259  0.8314  0.1809  0.0376
 3058TIP3    H130809   6.047   5.906   0.199 -0.9528  1.1743 -0.1512
 3058TIP3    H230810   6.073   6.054   0.210  1.9273  0.6679  0.6591
 3059TIP3   OH230811   1.528   6.649   3.010 -0.0911  0.2348 -0.1541
 3059TIP3    H130812   1.620   6.650   2.982 -0.3430  0.8795 -1.0180
 3059TIP3    H230813   1.480   6.620   2.932 -0.5896 -0.5326  0.4260
 3060TIP3   OH230814   4.484   3.851   0.592 -0.1089 -0.1267 -0.0737
 3060TIP3    H130815   4.579   3.853   0.587 -0.1026 -1.3269 -0.8423
 3060TIP3    H230816   4.454   3.917   0.530  0.2281 -1.8484 -2.2144
 3061TIP3   OH230817   3.369   1.002   1.374 -0.0833 -0.7243  0.4011
 3061TIP3    H130818   3.384   0.936   1.306 -0.3724 -1.6189  1.1807
 3061TIP3    H230819   3.275   1.019   1.372  0.1815  0.8090 -0.8009
 3062TIP3   OH230820   5.212   6.477   8.402 -0.3365 -0.6046 -0.1069
 3062TIP3    H130821   5.272   6.431   8.343  2.1486  2.4074 -0.1424
 3062TIP3    H230822   5.180   6.551   8.351  0.2012  0.8762  1.5968
 3063TIP3   OH230823   6.660   3.765   8.764 -0.4977  0.1246 -0.1128
 3063TIP3    H130824   6.723   3.694   8.778  0.2436  0.8506  0.3206
 3063TIP3    H230825   6.680   3.799   8.676  2.4725  2.9536  1.4463
 3064TIP3   OH230826   4.831   3.448   8.659 -0.2868 -0.0335 -0.2261
 3064TIP3    H130827   4.848   3.452   8.753  0.3790  1.2889 -0.3810
 3064TIP3    H230828   4.891   3.381   8.626 -1.5188 -1.5550  0.4578
 3065TIP3   OH230829   2.375   5.708   8.899  0.0286 -0.1772 -0.0215
 3065TIP3    H130830   2.350   5.730   8.989 -0.1060 -0.1142 -0.0746
 3065TIP3    H230831   2.348   5.616   8.889  1.4712 -0.6940  0.5273
 3066TIP3   OH230832   0.333   3.814   1.736 -0.1898 -0.4052  0.3998
 3066TIP3    H130833   0.381   3.834   1.817 -1.7537  3.4310  0.6013
 3066TIP3    H230834   0.396   3.833   1.667  1.3528 -4.2592  0.4814
 3067TIP3   OH230835   4.500   6.089   2.493  0.1067 -0.5656  0.8019
 3067TIP3    H130836   4.560   6.161   2.514  1.0710 -0.4540 -1.9380
 3067TIP3    H230837   4.482   6.048   2.578  0.3121  2.2545  2.3435
 3068TIP3   OH230838   5.353   4.965   2.033  0.0208  0.0418 -0.0669
 3068TIP3    H130839   5.307   4.901   1.978 -1.5854  0.6770  0.5063
 3068TIP3    H230840   5.291   5.036   2.046  0.7535  0.4174  1.6822
 3069TIP3   OH230841   6.004   4.679   1.371  0.2641  0.3284 -0.1310
 3069TIP3    H130842   5.929   4.666   1.430  0.1682  2.1113  0.1839
 3069TIP3    H230843   6.012   4.595   1.325 -2.4220  0.2958 -0.7506
 3070TIP3   OH230844   4.018   1.149   8.339 -0.0202  0.0659 -0.1173
 3070TIP3    H130845   4.005   1.149   8.434 -2.0736  0.1191 -0.3667
 3070TIP3    H230846   3.983   1.065   8.310  1.4804 -0.3693 -0.7596
 3071TIP3   OH230847   1.902   3.945   2.013 -0.4186 -0.0716 -0.9639
 3071TIP3    H130848   1.970   3.986   1.959  0.7689 -0.4152  0.2397
 3071TIP3    H230849   1.850   4.019   2.045 -1.3168  0.1336 -2.7247
 3072TIP3   OH230850   3.628   2.583   0.842  0.0484  0.1792 -0.2618
 3072TIP3    H130851   3.666   2.596   0.755 -1.6113 -0.2361 -1.0925
 3072TIP3    H230852   3.538   2.613   0.834 -0.5228 -1.0788  0.9493
 3073TIP3   OH230853   5.859   2.884   7.380  0.4283 -0.1733 -0.5595
 3073TIP3    H130854   5.890   2.927   7.300 -1.4073 -0.0495 -1.2464
 3073TIP3    H230855   5.787   2.940   7.410 -1.3351 -2.1443 -0.8902
 3074TIP3   OH230856   2.018   2.941   0.841  0.0751  0.6145  0.3106
 3074TIP3    H130857   2.050   2.855   0.868 -1.6753  0.0363  0.6370
 3074TIP3    H230858   1.942   2.922   0.786  0.2913  1.9331 -0.4754
 3075TIP3   OH230859   0.506   0.765   1.860 -0.4181 -0.5439 -0.1826
 3075TIP3    H130860   0.601   0.764   1.846  0.1341  1.8386  2.3872
 3075TIP3    H230861   0.475   0.839   1.808 -0.8952 -1.2987 -0.9914
 3076TIP3   OH230862   4.308   2.494   8.870 -0.2543 -0.7538 -0.3535
 3076TIP3    H130863   4.305   2.590   8.877  2.1812 -0.5362 -1.2452
 3076TIP3    H230864   4.226   2.471   8.827 -1.5173  0.7525  1.0826
 3077TIP3   OH230865   1.244   4.945   1.399 -0.0711 -0.7155  0.2401
 3077TIP3    H130866   1.216   5.021   1.451 -0.1868  0.3114 -1.2474
 3077TIP3    H230867   1.275   4.882   1.464  0.4988  0.7892  1.5093
 3078TIP3   OH230868   1.992   4.706   7.960  0.1546 -0.3283  0.3212
 3078TIP3    H130869   2.007   4.794   7.996  0.7110 -0.2640 -0.0409
 3078TIP3    H230870   1.901   4.707   7.930  0.2420  0.2316  0.0544
 3079TIP3   OH230871   5.727   2.665   8.466  0.6472 -0.3853  0.0722
 3079TIP3    H130872   5.769   2.747   8.441 -0.9505  0.0530 -1.3625
 3079TIP3    H230873   5.709   2.675   8.560  0.9372  0.7017  0.0240
 3080TIP3   OH230874   4.106   6.549   0.830 -0.3852  0.2878  0.0608
 3080TIP3    H130875   4.070   6.595   0.753 -2.7988 -0.6263  0.5464
 3080TIP3    H230876   4.183   6.503   0.796 -0.5640  1.0578 -1.4897
 3081TIP3   OH230877   0.868   0.598   8.894  0.5114 -0.1607 -0.4303
 3081TIP3    H130878   0.906   0.559   8.973 -0.7990  0.1819  0.4016
 3081TIP3    H230879   0.774   0.591   8.907  0.2563  1.7170 -1.0485
 3082TIP3   OH230880   5.905   2.921   9.025 -0.7427  0.3108 -0.4244
 3082TIP3    H130881   6.000   2.920   9.009 -0.5241  0.0306  0.7945
 3082TIP3    H230882   5.893   2.988   9.091 -1.6483  1.6247 -1.8585
 3083TIP3   OH230883   1.009   2.826   8.280  0.0611 -0.1447  0.3585
 3083TIP3    H130884   0.922   2.837   8.240 -0.3972  1.9750  1.7753
 3083TIP3    H230885   0.999   2.751   8.338 -1.7426  1.7024  2.6094
 3084TIP3   OH230886   2.441   5.166   0.569  0.1129 -0.1143  0.0620
 3084TIP3    H130887   2.491   5.237   0.527  0.1899 -0.0930  0.1912
 3084TIP3    H230888   2.400   5.207   0.645 -2.5612  0.6677 -1.6401
 3085TIP3   OH230889   0.263   4.313   9.196  0.4446  0.0107 -0.6815
 3085TIP3    H130890   0.227   4.401   9.207  1.7302  0.6208 -1.1745
 3085TIP3    H230891   0.194   4.265   9.150 -0.0270  0.9349 -0.9691
 3086TIP3   OH230892   1.707   1.079   7.839  0.2965 -0.1093  0.3324
 3086TIP3    H130893   1.661   1.004   7.801  0.2663 -0.2269  0.5976
 3086TIP3    H230894   1.726   1.136   7.765  1.4235 -0.9556 -0.0518
 3087TIP3   OH230895   5.608   3.778   2.077 -0.2059  0.0609 -0.0879
 3087TIP3    H130896   5.567   3.697   2.047 -0.1372 -0.6208  1.5428
 3087TIP3    H230897   5.556   3.805   2.153  1.0395  0.3749  0.6915
 3088TIP3   OH230898   2.211   1.359   2.913  0.8343 -0.5675  0.1256
 3088TIP3    H130899   2.265   1.393   2.985  0.6501 -0.9019  0.4195
 3088TIP3    H230900   2.263   1.289   2.875  1.1625 -0.0406 -0.4071
 3089TIP3   OH230901   3.951   4.801   2.235  0.1468  0.3013 -0.0537
 3089TIP3    H130902   4.031   4.853   2.237 -0.5487  1.3772  0.5213
 3089TIP3    H230903   3.893   4.844   2.297  0.1888 -2.2266  1.9276
 3090TIP3   OH230904   4.224   5.201   1.054  0.0727  0.1172  0.0942
 3090TIP3    H130905   4.173   5.169   1.129 -0.6132  0.5970 -0.1657
 3090TIP3    H230906   4.269   5.278   1.087  1.2492 -0.7204  0.5423
 3091TIP3   OH230907   0.319   3.786   0.420 -0.0927  0.4784  0.9031
 3091TIP3    H130908   0.283   3.759   0.336  1.8076 -2.6823  0.9462
 3091TIP3    H230909   0.298   3.714   0.480  1.5887  1.0168  2.2348
 3092TIP3   OH230910   6.132   1.655   2.006 -0.6079  0.2184 -0.0496
 3092TIP3    H130911   6.187   1.720   2.049  0.0441 -1.1777  1.3313
 3092TIP3    H230912   6.121   1.688   1.917 -0.0226  2.0251  0.5125
 3093TIP3   OH230913   4.927   3.125   1.200 -0.5807 -0.0760  0.2691
 3093TIP3    H130914   4.987   3.129   1.126  0.4992 -1.1519  1.0580
 3093TIP3    H230915   4.848   3.171   1.169 -0.6168 -1.4970 -1.9603
 3094TIP3   OH230916   5.616   2.979   8.361 -0.0655 -0.5215  0.0636
 3094TIP3    H130917   5.707   2.951   8.350  0.3441  1.1492 -1.1424
 3094TIP3    H230918   5.616   3.072   8.336 -1.4291  0.4986  3.2798
 3095TIP3   OH230919   4.450   2.677   1.822  0.1674 -0.7561  0.0463
 3095TIP3    H130920   4.536   2.702   1.854  0.8296 -1.9987 -0.6904
 3095TIP3    H230921   4.418   2.613   1.886  0.4382 -1.4001 -0.4514
 3096TIP3   OH230922   2.689   2.119   7.408 -0.0587  0.2016 -0.3815
 3096TIP3    H130923   2.777   2.105   7.443 -0.0038  0.0283 -0.5920
 3096TIP3    H230924   2.702   2.137   7.315 -0.1847  0.9330 -0.2639
 3097TIP3   OH230925   5.393   5.253   0.630 -0.1388 -0.0485  0.2883
 3097TIP3    H130926   5.407   5.322   0.694 -0.4872  2.0451 -1.7518
 3097TIP3    H230927   5.300   5.231   0.637 -0.1668  0.1501  0.5253
 3098TIP3   OH230928   4.316   4.350   1.404  0.3283  0.0449  0.0609
 3098TIP3    H130929   4.263   4.407   1.348  1.5249 -0.1551 -1.3261
 3098TIP3    H230930   4.252   4.293   1.448 -0.7458  1.2953  0.1540
 3099TIP3   OH230931   0.089   5.467   9.159  0.5802 -0.5166  0.0873
 3099TIP3    H130932   0.071   5.473   9.065  0.5847  1.4299  0.1713
 3099TIP3    H230933   0.003   5.469   9.200  0.4949 -2.6355  0.1359
 3100TIP3   OH230934   5.918   5.010   1.857 -0.1409 -0.3981 -0.9053
 3100TIP3    H130935   5.836   5.059   1.865 -1.5237 -2.6910 -0.4018
 3100TIP3    H230936   5.941   4.986   1.947  1.3287  0.5043 -0.9950
 3101TIP3   OH230937   1.198   3.826   6.506 -0.1184 -0.1062 -0.3393
 3101TIP3    H130938   1.286   3.812   6.540  0.3475  0.0318 -1.4706
 3101TIP3    H230939   1.183   3.920   6.516  0.9932  0.3870 -2.7436
 3102TIP3   OH230940   1.130   0.654   7.234 -0.0129  0.0300  0.2245
 3102TIP3    H130941   1.105   0.717   7.302 -0.1881 -0.3807  0.5456
 3102TIP3    H230942   1.047   0.612   7.210  0.1630 -0.3502  0.2869
 3103TIP3   OH230943   3.974   5.564   2.223  0.2805 -0.4047 -0.0340
 3103TIP3    H130944   3.892   5.570   2.272  1.2618 -0.4987  1.6876
 3103TIP3    H230945   3.982   5.471   2.202 -0.7646 -0.1969 -1.5728
 3104TIP3   OH230946   1.900   5.323   1.232  0.0335  0.0825  0.1768
 3104TIP3    H130947   1.871   5.342   1.143  0.4161  0.0313  0.0387
 3104TIP3    H230948   1.858   5.391   1.286 -2.4607 -1.4961  0.3751
 3105TIP3   OH230949   0.087   4.016   8.900 -0.3122 -0.2519 -0.2577
 3105TIP3    H130950   0.038   3.942   8.935 -0.3608 -0.1430 -0.0963
 3105TIP3    H230951   0.100   3.995   8.808 -0.8009 -0.2091 -0.3391
 3106TIP3   OH230952   5.443   1.364   8.294  0.0052  0.3047 -0.7094
 3106TIP3    H130953   5.374   1.397   8.236  0.1527  0.8740 -0.5643
 3106TIP3    H230954   5.397   1.329   8.370 -0.1012  1.2634 -0.3210
 3107TIP3   OH230955   2.063   1.016   0.224  0.3315 -0.0698  0.1273
 3107TIP3    H130956   2.153   1.032   0.197 -0.4488  0.8946 -2.2612
 3107TIP3    H230957   2.035   1.098   0.264  0.3800 -0.1938  0.4124
 3108TIP3   OH230958   0.084   3.516   1.467 -0.3154 -0.0585 -0.1553
 3108TIP3    H130959   0.000   3.474   1.450  0.0865 -1.2276  0.6570
 3108TIP3    H230960   0.069   3.570   1.545 -0.4971  0.3250 -0.4514
 3109TIP3   OH230961   0.862   2.968   1.375 -0.0383  0.0769 -0.0106
 3109TIP3    H130962   0.821   2.931   1.453  0.3964  0.1273  0.2436
 3109TIP3    H230963   0.869   2.895   1.314  3.1553 -0.9727  1.4071
 3110TIP3   OH230964   3.961   1.105   2.793 -0.2980 -0.2767 -0.0272
 3110TIP3    H130965   4.033   1.070   2.845 -0.2121  2.1863  1.6685
 3110TIP3    H230966   4.002   1.128   2.709 -0.2065 -3.1940 -0.9172
 3111TIP3   OH230967   2.389   2.514   8.321  0.1415 -0.1944 -0.3397
 3111TIP3    H130968   2.328   2.585   8.339  0.2686 -0.0281 -0.5662
 3111TIP3    H230969   2.385   2.503   8.226  1.1848  0.4623 -0.4772
 3112TIP3   OH230970   4.858   5.918   1.009  0.0980 -0.1240  0.3341
 3112TIP3    H130971   4.945   5.958   1.004 -0.7223  2.0451  2.1270
 3112TIP3    H230972   4.812   5.967   1.076 -2.4099 -1.5024 -0.2433
 3113TIP3   OH230973   1.624   5.903   1.394 -0.0102 -0.1348 -0.1939
 3113TIP3    H130974   1.665   5.931   1.476  0.0113 -1.1189  0.1481
 3113TIP3    H230975   1.602   5.810   1.409 -1.0860 -0.0059 -0.8715
 3114TIP3   OH230976   2.228   3.248   0.212 -0.4204 -0.5444  0.9779
 3114TIP3    H130977   2.145   3.258   0.258 -0.3655  0.8765  0.8210
 3114TIP3    H230978   2.215   3.294   0.129  1.1033  1.4394  1.7476
 3115TIP3   OH230979   3.754   3.736   2.593 -0.4403  0.0027  0.2726
 3115TIP3    H130980   3.693   3.664   2.575 -0.3065  0.0507 -0.4124
 3115TIP3    H230981   3.836   3.692   2.615 -0.6904 -0.0613  1.1182
 3116TIP3   OH230982   3.678   1.378   8.773 -0.0962 -0.5845  0.2648
 3116TIP3    H130983   3.692   1.421   8.857  0.4428 -2.1247  0.9947
 3116TIP3    H230984   3.763   1.383   8.729 -0.2181 -0.3055  0.0574
 3117TIP3   OH230985   0.346   2.625   1.607  0.2364  0.0950 -0.5877
 3117TIP3    H130986   0.281   2.555   1.612  1.2488 -0.7960  0.9845
 3117TIP3    H230987   0.381   2.618   1.518  0.0762 -1.2003 -0.5772
 3118TIP3   OH230988   3.048   1.856   7.433 -0.5946  1.1920 -0.3698
 3118TIP3    H130989   2.961   1.829   7.464 -0.1686  0.1643 -0.0189
 3118TIP3    H230990   3.058   1.812   7.349  0.3159 -0.2524  0.4434
 3119TIP3   OH230991   5.123   0.536   1.606 -0.5883 -0.1575 -0.1563
 3119TIP3    H130992   5.125   0.632   1.614  1.5833 -0.2045  0.2757
 3119TIP3    H230993   5.046   0.510   1.658  0.2945  1.2048  1.9758
 3120TIP3   OH230994   3.058   1.493   3.456 -0.3343 -0.0759 -0.0730
 3120TIP3    H130995   3.093   1.581   3.446  2.6315 -0.8880  1.7446
 3120TIP3    H230996   2.966   1.505   3.477 -0.7120  2.3894 -2.7144
 3121TIP3   OH230997   2.741   1.282   8.046  0.1902  0.0726 -0.1762
 3121TIP3    H130998   2.745   1.371   8.081 -0.5355 -0.5369  1.5771
 3121TIP3    H230999   2.785   1.288   7.962 -0.9945  2.3751 -0.7303
 3122TIP3   OH231000   0.808   4.077   1.409  0.6182  0.3600 -0.5309
 3122TIP3    H131001   0.779   4.111   1.493  0.9138  2.0515 -1.0838
 3122TIP3    H231002   0.899   4.107   1.401  0.7871 -0.2899 -1.1960
 3123TIP3   OH231003   2.857   1.547   1.004 -0.1108 -0.2782 -0.2848
 3123TIP3    H131004   2.900   1.557   0.919 -2.8031 -0.5358 -1.7657
 3123TIP3    H231005   2.807   1.466   0.996 -3.2356  1.4592  0.1507
 3124TIP3   OH231006   0.975   2.157   9.154  0.7256 -0.0798  0.8455
 3124TIP3    H131007   0.902   2.203   9.114  1.2746 -0.6595 -0.9368
 3124TIP3    H231008   0.985   2.077   9.102  2.1375 -0.3792  1.5074
 3125TIP3   OH231009   3.214   2.853   7.521  0.4934 -0.6195  0.2998
 3125TIP3    H131010   3.301   2.825   7.552  0.3406 -0.3238  1.0267
 3125TIP3    H231011   3.232   2.931   7.469  0.5221  0.4853  1.8990
 3126TIP3   OH231012   1.234   3.931   8.298  0.2650  0.1641  0.0166
 3126TIP3    H131013   1.254   3.988   8.224  1.1118  0.2870  0.3325
 3126TIP3    H231014   1.138   3.935   8.306  0.3497  2.1395  0.5134
 3127TIP3   OH231015   4.793   0.851   2.692  0.4115  0.1937 -0.0558
 3127TIP3    H131016   4.736   0.902   2.749  0.1953 -0.5510  0.4066
 3127TIP3    H231017   4.819   0.775   2.744  0.4684 -0.3416 -0.8359
 3128TIP3   OH231018   3.471   5.922   2.618 -0.1878 -0.1233  0.1716
 3128TIP3    H131019   3.463   6.008   2.576 -1.3827 -0.7247 -0.9018
 3128TIP3    H231020   3.551   5.928   2.670  1.4761  0.6096 -2.3427
 3129TIP3   OH231021   4.502   3.271   8.881  0.0480  0.2553  0.1294
 3129TIP3    H131022   4.479   3.354   8.840  0.2547  0.5048  0.5193
 3129TIP3    H231023   4.506   3.290   8.975 -0.2783 -0.2784  0.2580
 3130TIP3   OH231024   5.035   3.492   8.394 -0.1198  0.1565 -0.4539
 3130TIP3    H131025   5.039   3.495   8.490 -0.8904 -1.0829 -0.3520
 3130TIP3    H231026   5.126   3.490   8.366  0.1619  2.0639  0.1522
 3131TIP3   OH231027   1.059   5.295   8.614  0.5529  0.0611 -0.1903
 3131TIP3    H131028   1.111   5.297   8.694  1.9657  0.2104 -1.0716
 3131TIP3    H231029   1.042   5.387   8.594  0.1605  0.0226 -0.0495
 3132TIP3   OH231030   5.763   0.998   3.300  0.5661 -0.5213 -0.6164
 3132TIP3    H131031   5.786   0.994   3.207  1.7906 -2.1402 -0.3148
 3132TIP3    H231032   5.668   0.992   3.302  0.1917  2.8952 -1.8347
 3133TIP3   OH231033   6.348   0.411   0.495 -0.5771  0.0410  0.1485
 3133TIP3    H131034   6.425   0.468   0.501 -2.1000  2.2401 -0.2958
 3133TIP3    H231035   6.368   0.338   0.554  1.7580  0.6087  0.1603
 3134TIP3   OH231036   6.561   2.306   0.155 -0.1388 -0.7498 -0.0919
 3134TIP3    H131037   6.557   2.323   0.249  1.2445 -1.0694  0.0476
 3134TIP3    H231038   6.497   2.366   0.117  1.8306  2.0798  0.7049
 3135TIP3   OH231039   4.935   2.449   1.517  0.1712  0.2459  0.6818
 3135TIP3    H131040   4.989   2.449   1.595  0.6634 -1.2259  0.3878
 3135TIP3    H231041   4.937   2.539   1.485 -0.0449  0.8719  2.3450
 3136TIP3   OH231042   6.633   4.800   7.911 -0.3428  0.0768  0.2235
 3136TIP3    H131043   6.682   4.882   7.905  0.0118 -0.1650 -0.2215
 3136TIP3    H231044   6.592   4.790   7.824  0.7420 -0.9131 -0.2059
 3137TIP3   OH231045   2.918   1.367   1.973 -0.0012 -0.5430  0.1087
 3137TIP3    H131046   2.985   1.419   2.017  1.1800 -2.4969  0.7800
 3137TIP3    H231047   2.962   1.332   1.895 -1.2117  0.5710 -1.1337
 3138TIP3   OH231048   6.366   6.179   9.195 -0.1127  0.4301  0.4994
 3138TIP3    H131049   6.443   6.215   9.238  0.0094  0.5947  0.1492
 3138TIP3    H231050   6.366   6.086   9.218  0.8528  0.1749 -0.4737
 3139TIP3   OH231051   3.285   3.661   2.257  0.1869 -0.0874 -0.5830
 3139TIP3    H131052   3.215   3.652   2.191 -0.3157  1.4298 -0.3137
 3139TIP3    H231053   3.333   3.739   2.229  0.2930  0.2674  0.5580
 3140TIP3   OH231054   5.692   3.726   2.538 -0.0844 -0.3922 -0.0042
 3140TIP3    H131055   5.686   3.792   2.607  1.4970  0.3485 -0.5071
 3140TIP3    H231056   5.606   3.686   2.535 -1.6135  2.6286 -0.6139
 3141TIP3   OH231057   3.665   4.168   0.115  0.0598 -0.4125 -0.4366
 3141TIP3    H131058   3.646   4.086   0.069  0.1891 -1.5727  1.4743
 3141TIP3    H231059   3.759   4.164   0.134  0.3326  0.8067 -1.4625
 3142TIP3   OH231060   1.143   3.051   1.232 -0.2980  0.6563  0.8966
 3142TIP3    H131061   1.071   3.034   1.171  0.5217 -0.3045  0.1658
 3142TIP3    H231062   1.178   3.136   1.203  0.9432 -0.3991 -0.9002
 3143TIP3   OH231063   4.382   4.868   1.058  0.0971  0.0856  0.1448
 3143TIP3    H131064   4.319   4.819   1.111 -0.4620 -1.7443 -2.0306
 3143TIP3    H231065   4.362   4.960   1.075 -2.4018 -0.4396  0.4375
 3144TIP3   OH231066   3.804   4.780   0.471 -0.2177 -0.2773 -0.5790
 3144TIP3    H131067   3.787   4.874   0.463  0.3992 -0.3224 -3.1452
 3144TIP3    H231068   3.783   4.744   0.385 -0.5360 -2.5389  0.3651
 3145TIP3   OH231069   0.688   4.658   2.761  0.6366  0.6486  0.3345
 3145TIP3    H131070   0.617   4.653   2.825  0.2108 -1.0195 -0.2237
 3145TIP3    H231071   0.651   4.704   2.686  0.5190  0.8143  0.4925
 3146TIP3   OH231072   2.916   3.658   2.414  0.0069 -0.0496 -0.1096
 3146TIP3    H131073   2.880   3.724   2.356  0.5069 -0.3553 -0.7920
 3146TIP3    H231074   2.886   3.575   2.378  0.1613 -0.2360  0.1836
 3147TIP3   OH231075   4.595   0.353   0.265 -0.1208 -0.2839  0.2290
 3147TIP3    H131076   4.506   0.317   0.264 -0.2396 -0.1696  2.0384
 3147TIP3    H231077   4.589   0.426   0.327  1.1326  0.0013  0.0249
 3148TIP3   OH231078   4.620   6.505   0.349  0.1833 -0.3231 -0.2048
 3148TIP3    H131079   4.616   6.530   0.441 -0.5610  3.3047 -1.0766
 3148TIP3    H231080   4.713   6.508   0.327  0.1859  1.2465 -0.0874
 3149TIP3   OH231081   1.531   1.433   0.611  0.3254  0.4071 -0.5927
 3149TIP3    H131082   1.478   1.374   0.664  0.2943  0.6619 -0.3353
 3149TIP3    H231083   1.468   1.484   0.561  0.2765  1.2901  0.3301
 3150TIP3   OH231084   1.230   0.139   9.095  0.2082 -0.6410 -0.6266
 3150TIP3    H131085   1.211   0.232   9.086  1.2976 -0.5313 -2.4965
 3150TIP3    H231086   1.145   0.096   9.095 -0.2886  0.3226 -0.1084
 3151TIP3   OH231087   3.290   3.081   2.010  0.3371  0.3794  0.4002
 3151TIP3    H131088   3.379   3.046   2.002  0.5664  0.9118  0.5615
 3151TIP3    H231089   3.300   3.175   1.996  0.6239  1.3052  5.0044
 3152TIP3   OH231090   0.914   6.047   2.089 -0.0727  0.7465  0.2564
 3152TIP3    H131091   0.884   6.051   2.180 -2.9830 -2.2609 -0.3883
 3152TIP3    H231092   0.987   5.984   2.091  0.6378  1.5669  0.6372
 3153TIP3   OH231093   5.436   3.123   8.570 -0.1847  0.0132 -0.0351
 3153TIP3    H131094   5.446   3.091   8.660  1.2224  0.5596  0.0163
 3153TIP3    H231095   5.525   3.134   8.538 -0.6609 -0.8530 -1.7658
 3154TIP3   OH231096   4.461   0.367   0.008  0.1267 -0.1338  0.1066
 3154TIP3    H131097   4.554   0.356   0.029  0.1000 -0.8833 -0.1388
 3154TIP3    H231098   4.420   0.285   0.036 -0.2825 -0.2377 -0.7469
 3155TIP3   OH231099   0.362   0.872   7.899  0.0061 -0.4071  0.0236
 3155TIP3    H131100   0.284   0.883   7.845 -0.2186 -0.8385  0.2572
 3155TIP3    H231101   0.344   0.923   7.978  0.3715  0.2970 -0.3382
 3156TIP3   OH231102   6.175   0.682   0.140  0.6039  0.8760  0.1395
 3156TIP3    H131103   6.217   0.598   0.157 -1.0678  0.3642  2.0851
 3156TIP3    H231104   6.172   0.688   0.044  0.5510 -1.4090 -0.0524
 3157TIP3   OH231105   2.474   5.233   8.660 -0.9041  0.7847  0.4461
 3157TIP3    H131106   2.401   5.206   8.716 -2.2973  0.7192 -1.3179
 3157TIP3    H231107   2.482   5.164   8.594  2.6016 -0.6242  2.0687
 3158TIP3   OH231108   6.354   0.590   2.955 -0.4335 -0.1537 -0.2561
 3158TIP3    H131109   6.391   0.506   2.928 -1.0357 -0.0389 -1.4884
 3158TIP3    H231110   6.264   0.589   2.921 -1.0262  0.2847  1.2072
 3159TIP3   OH231111   3.380   6.554   0.095  0.4657  0.1675 -0.5871
 3159TIP3    H131112   3.430   6.498   0.155 -0.7277  0.1426  0.4115
 3159TIP3    H231113   3.306   6.500   0.068  0.3082  0.6267 -1.0846
 3160TIP3   OH231114   3.902   2.634   9.205 -0.0566  0.0937 -0.1910
 3160TIP3    H131115   3.994   2.622   9.181  0.4442  1.1797  1.0173
 3160TIP3    H231116   3.886   2.568   9.272 -0.6061 -1.0457 -1.4120
 3161TIP3   OH231117   5.215   3.401   0.922  0.3004  0.0167 -0.2769
 3161TIP3    H131118   5.289   3.442   0.967  0.5223 -0.4283 -0.2361
 3161TIP3    H231119   5.193   3.462   0.851 -0.9201  1.4189  1.2277
 3162TIP3   OH231120   1.119   1.408   1.489  0.4021 -0.5630  0.4455
 3162TIP3    H131121   1.148   1.499   1.496  0.8980 -0.7124  0.3560
 3162TIP3    H231122   1.176   1.370   1.423 -0.6796 -0.5943 -0.5006
 3163TIP3   OH231123   2.585   4.432   1.687 -0.3783  0.2270  0.5517
 3163TIP3    H131124   2.581   4.346   1.727 -1.2347 -0.3782 -0.7494
 3163TIP3    H231125   2.576   4.415   1.593 -0.7596  1.7492  0.2840
 3164TIP3   OH231126   3.481   1.965   1.718 -0.2379  0.0597  0.3288
 3164TIP3    H131127   3.534   1.892   1.748 -1.6083 -0.5397  1.4322
 3164TIP3    H231128   3.527   2.000   1.642  1.1050 -1.1338  0.5671
 3165TIP3   OH231129   5.112   4.257   1.155  0.2799  0.1983 -0.2908
 3165TIP3    H131130   5.186   4.207   1.187  0.2541  0.0937 -0.3917
 3165TIP3    H231131   5.077   4.204   1.083  1.3379  1.1915 -1.5828
 3166TIP3   OH231132   3.542   4.911   0.595 -0.5364  0.0431  0.2684
 3166TIP3    H131133   3.616   4.971   0.596  0.0675 -0.6928  1.0000
 3166TIP3    H231134   3.484   4.942   0.665 -0.4113  0.0052  0.3887
 3167TIP3   OH231135   5.778   1.097   2.409 -1.0853  0.3776 -0.1781
 3167TIP3    H131136   5.735   1.180   2.426 -1.0039  0.7479 -1.6571
 3167TIP3    H231137   5.728   1.058   2.337 -1.7830 -1.3741  1.1776
 3168TIP3   OH231138   5.181   2.662   1.330 -0.2013  0.7004 -0.6280
 3168TIP3    H131139   5.245   2.731   1.315  0.5106  0.1362 -0.2959
 3168TIP3    H231140   5.216   2.613   1.405  1.1414 -2.0777 -2.8487
 3169TIP3   OH231141   1.706   3.128   0.421 -1.0663  0.2752  0.1504
 3169TIP3    H131142   1.633   3.094   0.369 -1.1239  1.5570 -0.6606
 3169TIP3    H231143   1.773   3.060   0.415 -1.5996 -0.2214 -0.4259
 3170TIP3   OH231144   3.059   5.833   0.965  0.1062  0.2197 -0.0734
 3170TIP3    H131145   2.985   5.836   0.905  0.0463 -1.8244 -0.1628
 3170TIP3    H231146   3.129   5.791   0.915  0.5845  0.0252  0.7356
 3171TIP3   OH231147   0.923   3.379   2.112 -0.2021 -0.4035  0.2061
 3171TIP3    H131148   0.944   3.311   2.048  0.1828  0.1257 -0.2357
 3171TIP3    H231149   1.002   3.432   2.118 -0.5233  0.0538  0.4879
 3172TIP3   OH231150   3.033   5.683   8.757 -0.1693 -0.0719  0.0362
 3172TIP3    H131151   3.065   5.700   8.668  2.6304  0.2456  0.9806
 3172TIP3    H231152   3.060   5.593   8.775 -2.1176 -0.6823  0.0643
 3173TIP3   OH231153   4.035   4.411   7.893  0.1506  0.0251  0.5148
 3173TIP3    H131154   4.112   4.466   7.907  1.1687 -1.4003  0.7174
 3173TIP3    H231155   4.020   4.369   7.977 -0.3411 -0.3533  0.2422
 3174TIP3   OH231156   0.148   2.507   8.560  0.8064  0.3996 -0.1057
 3174TIP3    H131157   0.177   2.586   8.515  0.5554 -0.4771 -1.8738
 3174TIP3    H231158   0.173   2.521   8.651 -0.1584  2.9453 -0.1573
 3175TIP3   OH231159   1.156   1.686   2.821 -0.2320 -0.5165  0.1520
 3175TIP3    H131160   1.222   1.735   2.870 -0.6624 -1.2298  1.4873
 3175TIP3    H231161   1.137   1.741   2.745  0.0086  0.9296  1.0986
 3176TIP3   OH231162   1.347   0.513   2.257  0.0889  0.1789  0.6239
 3176TIP3    H131163   1.428   0.484   2.215 -0.3319 -0.2435  0.0899
 3176TIP3    H231164   1.283   0.516   2.186 -0.1435  1.4040  0.8658
 3177TIP3   OH231165   2.134   3.122   2.514 -0.4559 -0.2417  0.0813
 3177TIP3    H131166   2.081   3.042   2.520 -1.8482  0.5169 -1.3668
 3177TIP3    H231167   2.212   3.095   2.465  0.0670 -1.1520  1.3672
 3178TIP3   OH231168   0.191   2.889   1.620  0.2371  0.8379 -0.3102
 3178TIP3    H131169   0.222   2.874   1.531 -0.3017 -0.9436 -0.2257
 3178TIP3    H231170   0.207   2.807   1.665 -0.7295  1.2760  0.8753
 3179TIP3   OH231171   3.966   1.382   1.710 -0.1920 -0.1498 -0.4467
 3179TIP3    H131172   3.918   1.449   1.661 -0.8089 -1.0872 -1.1622
 3179TIP3    H231173   4.047   1.426   1.737 -0.5067  0.8306 -1.0337
 3180TIP3   OH231174   5.444   2.579   8.702 -0.1643 -0.7202 -0.1042
 3180TIP3    H131175   5.431   2.510   8.638 -2.4352 -1.0798  0.6787
 3180TIP3    H231176   5.416   2.659   8.657  0.4199 -0.6123 -0.2900
 3181TIP3   OH231177   5.416   2.787   0.354 -0.0315  0.2195  0.0121
 3181TIP3    H131178   5.355   2.719   0.326  1.4349 -1.1444  0.0269
 3181TIP3    H231179   5.364   2.843   0.411 -1.2588 -0.9176  0.0635
 3182TIP3   OH231180   3.862   5.966   1.894 -0.5971  0.3487 -0.8815
 3182TIP3    H131181   3.956   5.983   1.887 -0.8602  1.1634 -2.9608
 3182TIP3    H231182   3.856   5.894   1.957  1.3954  0.3975 -0.5668
 3183TIP3   OH231183   0.808   3.517   7.945 -0.4667  0.3788  0.2029
 3183TIP3    H131184   0.841   3.502   8.034 -0.2931 -1.2031 -0.1057
 3183TIP3    H231185   0.881   3.560   7.900 -0.1449  0.1795  0.5207
 3184TIP3   OH231186   4.159   4.518   0.811 -1.0545  0.5911  0.0588
 3184TIP3    H131187   4.205   4.450   0.762 -1.1340 -0.4014  1.3092
 3184TIP3    H231188   4.227   4.580   0.836 -0.6417 -0.0546  0.5669
 3185TIP3   OH231189   5.813   1.623   0.891  0.4181 -0.7461 -0.3311
 3185TIP3    H131190   5.791   1.708   0.851 -0.1268 -1.2729 -1.1771
 3185TIP3    H231191   5.909   1.620   0.888  0.4182 -0.4556 -0.9418
 3186TIP3   OH231192   2.517   6.685   2.296  0.4400 -0.2638 -0.1717
 3186TIP3    H131193   2.457   6.647   2.360  2.3736  0.3033  2.1551
 3186TIP3    H231194   2.578   6.738   2.349  2.7508 -0.5149 -2.3812
 3187TIP3   OH231195   0.257   3.238   8.307  0.4791 -0.5536  0.1736
 3187TIP3    H131196   0.272   3.195   8.223  0.0229 -0.8911  0.2600
 3187TIP3    H231197   0.164   3.224   8.325  0.3255  0.4386  0.2278
 3188TIP3   OH231198   6.367   0.364   2.335  0.4814  0.2976  0.1188
 3188TIP3    H131199   6.291   0.377   2.393  1.2019  1.4900  0.8553
 3188TIP3    H231200   6.348   0.420   2.260 -0.7220 -1.6874 -1.1378
 3189TIP3   OH231201   5.340   0.671   1.002  0.4423 -0.4965  0.0945
 3189TIP3    H131202   5.287   0.592   0.986 -1.0709  0.5532 -0.2365
 3189TIP3    H231203   5.304   0.736   0.943  3.4379 -0.2543 -1.6460
 3190TIP3   OH231204   1.322   2.534   7.992 -0.2329 -0.4054 -0.0619
 3190TIP3    H131205   1.275   2.457   7.959 -0.2067 -0.0294 -1.0065
 3190TIP3    H231206   1.383   2.498   8.056 -1.0644 -1.0212  0.4067
 3191TIP3   OH231207   0.840   3.193   0.532 -0.0227 -0.1003  0.2728
 3191TIP3    H131208   0.918   3.202   0.478  0.1588  0.4298  0.6168
 3191TIP3    H231209   0.832   3.277   0.578 -0.7430 -0.1759  0.3097
 3192TIP3   OH231210   1.982   4.888   2.881  0.2906 -0.5868  0.3453
 3192TIP3    H131211   2.028   4.809   2.851  0.6749 -0.2609  0.0570
 3192TIP3    H231212   1.986   4.947   2.806 -0.9216 -0.6764  0.1908
 3193TIP3   OH231213   4.120   4.966   7.889  0.0060 -0.0030 -0.4220
 3193TIP3    H131214   4.191   5.027   7.908 -1.2289  1.0402  1.0444
 3193TIP3    H231215   4.063   5.014   7.828  1.0154 -1.2179 -2.4362
 3194TIP3   OH231216   4.272   5.048   0.798  0.5259  0.4379  0.2729
 3194TIP3    H131217   4.230   5.093   0.871 -1.8889  1.1031 -1.3803
 3194TIP3    H231218   4.317   5.117   0.749 -0.0894  0.4679 -0.2694
 3195TIP3   OH231219   0.270   5.783   8.706 -0.0776  0.4078  0.0301
 3195TIP3    H131220   0.276   5.873   8.738  2.0262  0.1984  0.3379
 3195TIP3    H231221   0.327   5.733   8.764 -2.0834 -1.3801  0.5706
 3196TIP3   OH231222   0.637   3.922   1.217 -0.2929  0.4725 -0.6350
 3196TIP3    H131223   0.644   3.827   1.219  1.1348  0.5435 -0.8633
 3196TIP3    H231224   0.695   3.952   1.287 -0.5312  1.1660 -0.7279
 3197TIP3   OH231225   0.247   6.274   0.281  0.7389 -0.0041  0.8589
 3197TIP3    H131226   0.157   6.257   0.306  0.2027  2.0796  0.5250
 3197TIP3    H231227   0.277   6.192   0.241 -0.7262 -0.9802  1.6880
 3198TIP3   OH231228   2.925   5.482   9.180  0.0398 -0.7044  0.3257
 3198TIP3    H131229   2.878   5.404   9.212 -3.5326  0.2140 -2.0657
 3198TIP3    H231230   2.856   5.538   9.144  2.8434  1.9941 -1.3126
 3199TIP3   OH231231   5.903   3.303   0.492  0.3834  0.1451  0.0552
 3199TIP3    H131232   5.925   3.395   0.475 -0.1897  0.2924  0.0597
 3199TIP3    H231233   5.809   3.305   0.514  0.1805 -0.5323 -0.6983
 3200TIP3   OH231234   5.829   0.597   0.190  0.0304 -0.8695 -0.5896
 3200TIP3    H131235   5.791   0.529   0.247 -2.3100  0.7825 -0.0078
 3200TIP3    H231236   5.873   0.657   0.251  1.9618 -1.6948 -1.0874
 3201TIP3   OH231237   1.811   4.525   2.720  0.2833 -0.1274  0.6360
 3201TIP3    H131238   1.824   4.479   2.803 -0.5921  2.3569  2.2716
 3201TIP3    H231239   1.716   4.525   2.709  0.3319  0.4994  0.2149
 3202TIP3   OH231240   1.424   5.505   1.902 -0.4311 -0.3947 -0.4035
 3202TIP3    H131241   1.432   5.432   1.840  0.2049 -1.2718  0.6746
 3202TIP3    H231242   1.347   5.553   1.872 -0.9657 -1.5947 -1.0589
 3203TIP3   OH231243   0.212   3.478   1.754 -0.0939  0.3935  0.6593
 3203TIP3    H131244   0.282   3.460   1.691 -0.8790  1.7961 -0.6552
 3203TIP3    H231245   0.202   3.573   1.753 -1.0784  0.3230  1.8699
 3204TIP3   OH231246   0.702   0.812   1.422  0.3376 -0.1015  0.4334
 3204TIP3    H131247   0.731   0.784   1.336 -0.6149 -0.5613  0.2367
 3204TIP3    H231248   0.767   0.776   1.483  0.9682  0.1644 -0.0828
 3205TIP3   OH231249   5.802   4.139   8.805  0.5093  0.0512  0.3679
 3205TIP3    H131250   5.723   4.088   8.789  0.6319 -0.0980  0.2408
 3205TIP3    H231251   5.770   4.223   8.838  0.3489 -0.6734  2.2020
 3206TIP3   OH231252   4.100   3.951   2.313 -0.5181  0.3113 -0.3412
 3206TIP3    H131253   4.077   3.922   2.225 -1.5433  0.2943 -0.0709
 3206TIP3    H231254   4.078   3.877   2.369 -0.9202  0.7387  0.0670
 3207TIP3   OH231255   3.127   6.174   8.228  0.0066 -0.2105  0.1916
 3207TIP3    H131256   3.041   6.131   8.229 -0.1508  0.1022  0.6903
 3207TIP3    H231257   3.159   6.162   8.139  0.7661 -2.9305  0.7449
 3208TIP3   OH231258   2.863   0.141   8.419  0.2317 -0.4796 -0.3547
 3208TIP3    H131259   2.842   0.219   8.368  0.8106  0.9465  1.4815
 3208TIP3    H231260   2.911   0.085   8.358 -0.8678  0.2447 -1.9306
 3209TIP3   OH231261   1.336   2.047   0.445 -0.0869 -0.9749 -0.3170
 3209TIP3    H131262   1.385   1.999   0.512  1.3137  0.1978 -0.4474
 3209TIP3    H231263   1.340   1.990   0.368  0.1364 -1.3864 -0.0103
 3210TIP3   OH231264   5.549   2.046   8.439  0.6898  0.0826  0.0103
 3210TIP3    H131265   5.528   2.014   8.527 -2.0700  2.4610  0.3561
 3210TIP3    H231266   5.602   2.124   8.454 -0.2537  0.8189 -0.3272
 3211TIP3   OH231267   6.018   4.851   0.958 -0.3158 -1.1590 -0.4707
 3211TIP3    H131268   6.072   4.809   0.892 -0.7392 -2.4899 -0.0095
 3211TIP3    H231269   6.064   4.835   1.041 -0.8661 -1.3691 -0.2000
 3212TIP3   OH231270   6.136   3.239   0.995  0.3913 -0.3400  0.0079
 3212TIP3    H131271   6.076   3.311   1.012  0.0427 -0.9952  1.7920
 3212TIP3    H231272   6.098   3.194   0.919  0.0623  0.7496 -0.4849
 3213TIP3   OH231273   6.110   6.217   0.583 -0.1960  0.0635 -0.1065
 3213TIP3    H131274   6.186   6.221   0.641  0.1738 -1.6227 -0.4126
 3213TIP3    H231275   6.061   6.296   0.602  1.2005  0.7754  0.7077
 3214TIP3   OH231276   4.059   3.653   1.079 -0.7565  0.4581  0.3775
 3214TIP3    H131277   4.034   3.568   1.116  1.9579 -0.3100  0.6572
 3214TIP3    H231278   4.011   3.717   1.133 -0.8983 -0.8106  1.8389
 3215TIP3   OH231279   3.943   5.559   9.025  0.1143  0.2819 -0.0439
 3215TIP3    H131280   4.011   5.595   9.082  1.0503 -0.8971 -0.3675
 3215TIP3    H231281   3.969   5.587   8.937  0.3652 -0.4158 -0.1988
 3216TIP3   OH231282   5.350   1.459   7.665 -0.1169  0.3667 -0.1222
 3216TIP3    H131283   5.346   1.430   7.574  0.8636  3.5748 -1.3179
 3216TIP3    H231284   5.276   1.519   7.675  1.4132  2.3109  0.2047
 3217TIP3   OH231285   3.448   1.481   2.636 -0.1015 -0.8362 -0.1792
 3217TIP3    H131286   3.427   1.522   2.720 -0.8817 -0.0246 -0.7576
 3217TIP3    H231287   3.541   1.461   2.643  0.0393 -0.0277  0.5721
 3218TIP3   OH231288   1.682   3.371   8.546 -0.2771  0.5538 -0.0415
 3218TIP3    H131289   1.684   3.453   8.594  1.7339  0.2409  0.5009
 3218TIP3    H231290   1.691   3.396   8.455 -0.9850  0.9813 -0.0039
 3219TIP3   OH231291   0.513   1.209   0.138  0.2433  0.1194  0.8969
 3219TIP3    H131292   0.608   1.213   0.132  0.2600 -0.7548  0.5262
 3219TIP3    H231293   0.489   1.124   0.101 -0.7684  0.8451 -0.2348
 3220TIP3   OH231294   1.432   1.270   7.614 -0.0853 -0.2773  0.9626
 3220TIP3    H131295   1.377   1.244   7.540  0.9452 -1.3022  0.5281
 3220TIP3    H231296   1.514   1.223   7.601  0.9752  1.3268  1.4979
 3221TIP3   OH231297   4.465   5.610   8.934  0.1715 -0.0737 -0.1529
 3221TIP3    H131298   4.472   5.689   8.988  2.2085  0.6054 -1.2483
 3221TIP3    H231299   4.422   5.546   8.989  0.0618  1.2834  1.4223
 3222TIP3   OH231300   5.100   4.982   1.904  0.3868 -0.6733  0.0322
 3222TIP3    H131301   5.093   4.888   1.884  1.5668 -0.6368 -0.6424
 3222TIP3    H231302   5.064   5.025   1.826  0.9266 -0.5635 -0.1592
 3223TIP3   OH231303   4.826   3.413   2.245 -0.2177 -0.2374  0.0702
 3223TIP3    H131304   4.853   3.465   2.321 -2.0507 -0.3822  0.8727
 3223TIP3    H231305   4.731   3.405   2.253 -0.5581  0.1412 -2.5118
 3224TIP3   OH231306   5.750   6.522   1.483 -0.7355 -0.4922  0.6765
 3224TIP3    H131307   5.657   6.515   1.506 -1.0798 -1.0444 -0.7954
 3224TIP3    H231308   5.764   6.452   1.420 -0.0440  1.3431 -1.3266
 3225TIP3   OH231309   3.490   0.208   1.647  0.6149  0.3999 -0.5041
 3225TIP3    H131310   3.416   0.148   1.633  1.0151  0.1708 -1.6955
 3225TIP3    H231311   3.451   0.295   1.640  0.5662  0.2856 -1.8297
 3226TIP3   OH231312   5.652   4.536   1.876 -0.3837  0.3429 -0.7456
 3226TIP3    H131313   5.672   4.613   1.928  1.7944  0.4571 -1.6681
 3226TIP3    H231314   5.693   4.464   1.923  2.7375  0.6165 -2.7952
 3227TIP3   OH231315   2.889   3.562   8.677  0.3977  0.4111 -0.1181
 3227TIP3    H131316   2.799   3.578   8.708  0.1397 -0.5487 -0.3449
 3227TIP3    H231317   2.878   3.507   8.599  1.2231 -0.4054  0.3282
 3228TIP3   OH231318   5.395   5.700   2.262 -0.9395  0.2639  0.1816
 3228TIP3    H131319   5.323   5.638   2.251 -1.1987  0.6784 -0.5207
 3228TIP3    H231320   5.435   5.706   2.176 -0.0544  0.0366  0.5697
 3229TIP3   OH231321   3.486   2.034   0.583  0.5414 -0.1990 -0.6586
 3229TIP3    H131322   3.555   1.974   0.556  0.4083 -0.9715  0.6602
 3229TIP3    H231323   3.426   2.036   0.508  1.2089 -0.7019 -1.2175
 3230TIP3   OH231324   1.095   5.765   0.691  0.4648  0.1071 -0.7192
 3230TIP3    H131325   1.072   5.724   0.774 -0.0702 -1.6504 -1.6962
 3230TIP3    H231326   1.169   5.822   0.713  0.2393 -0.1861  0.9723
 3231TIP3   OH231327   1.139   0.345   8.835 -0.1686 -0.1273  0.5203
 3231TIP3    H131328   1.058   0.294   8.842 -0.3971  0.1593  0.0513
 3231TIP3    H231329   1.165   0.361   8.925 -0.3808 -0.6237  0.6737
 3232TIP3   OH231330   5.394   5.352   1.019 -0.1163 -0.1112 -0.4710
 3232TIP3    H131331   5.480   5.365   1.059 -0.4122 -0.4240  0.2933
 3232TIP3    H231332   5.393   5.411   0.944  1.2119 -0.9618 -1.1861
 3233TIP3   OH231333   4.571   2.435   1.011 -0.4426 -0.2088  0.1027
 3233TIP3    H131334   4.535   2.478   0.934  0.6083  1.2348  0.3732
 3233TIP3    H231335   4.654   2.398   0.982  1.4585  2.8914  1.1022
 3234TIP3   OH231336   0.757   2.477   0.633  0.1397  0.5790  0.4922
 3234TIP3    H131337   0.780   2.388   0.605  0.1530  0.6500  0.2730
 3234TIP3    H231338   0.700   2.510   0.563  0.4216  0.8689  0.3941
 3235TIP3   OH231339   3.170   5.091   0.678  0.8196 -0.3541 -0.2911
 3235TIP3    H131340   3.186   5.139   0.596  1.3974  0.3256  0.2112
 3235TIP3    H231341   3.075   5.087   0.685  0.6690  2.6153  0.7073
 3236TIP3   OH231342   0.720   2.632   0.369  0.7360  0.3581 -0.0586
 3236TIP3    H131343   0.709   2.584   0.287  2.2151 -0.4091  0.1375
 3236TIP3    H231344   0.717   2.724   0.344 -0.0100  0.1507 -0.7824
 3237TIP3   OH231345   2.469   4.735   1.721 -0.2938  0.1836  0.0457
 3237TIP3    H131346   2.449   4.769   1.634 -0.9412 -0.2641  0.0137
 3237TIP3    H231347   2.481   4.641   1.708  0.6367  0.2618  0.2711
 3238TIP3   OH231348   3.300   5.596   2.902  0.3658  0.6286  0.1046
 3238TIP3    H131349   3.262   5.511   2.924  1.6366 -0.4247 -1.5786
 3238TIP3    H231350   3.225   5.655   2.899 -0.6778 -0.6326  0.3421
 3239TIP3   OH231351   4.803   5.431   1.202  0.0755 -0.2119 -0.2198
 3239TIP3    H131352   4.825   5.431   1.295  1.5993 -0.9129 -0.5521
 3239TIP3    H231353   4.874   5.480   1.160 -0.1779 -0.5761 -1.0930
 3240TIP3   OH231354   6.235   2.382   8.806 -0.4800  0.0006 -0.3664
 3240TIP3    H131355   6.184   2.413   8.881  1.4963  0.3359  0.9080
 3240TIP3    H231356   6.230   2.286   8.812  0.6362  0.0043  0.9217
 3241TIP3   OH231357   5.162   1.735   8.028  0.3495 -0.2552  0.0649
 3241TIP3    H131358   5.075   1.725   8.067  0.1723 -0.4437 -0.3797
 3241TIP3    H231359   5.149   1.720   7.935  0.1283  3.5604 -0.6617
 3242TIP3   OH231360   0.645   5.397   0.103  0.0463 -0.2795 -0.7999
 3242TIP3    H131361   0.595   5.374   0.025 -2.0208  0.0381  0.3499
 3242TIP3    H231362   0.689   5.315   0.128 -0.1960 -0.6720 -1.6382
 3243TIP3   OH231363   0.120   4.545   1.314  0.3029 -0.1468  0.2689
 3243TIP3    H131364   0.178   4.554   1.390  0.6861  1.5360 -0.1874
 3243TIP3    H231365   0.041   4.593   1.338 -1.0751 -2.5682  0.9548
 3244TIP3   OH231366   0.816   0.560   1.864 -0.2996  0.2682 -0.3211
 3244TIP3    H131367   0.823   0.573   1.958 -0.5392 -0.4277 -0.1985
 3244TIP3    H231368   0.831   0.647   1.826  2.1341  0.1640  0.2365
 3245TIP3   OH231369   0.909   2.541   1.052  0.2893 -0.1817 -0.1620
 3245TIP3    H131370   0.861   2.577   0.978  0.1082 -0.8118 -0.3571
 3245TIP3    H231371   0.845   2.486   1.097  0.5060 -0.1059  0.2454
 3246TIP3   OH231372   1.647   3.778   7.781  0.0093 -0.1370 -0.8779
 3246TIP3    H131373   1.690   3.777   7.867  0.3228  1.7255 -0.9609
 3246TIP3    H231374   1.560   3.741   7.797 -0.4349  1.3845  0.5731
 3247TIP3   OH231375   4.923   5.460   8.967 -0.5136 -0.4668  0.0397
 3247TIP3    H131376   4.848   5.409   8.998 -1.7785  0.5313 -1.2455
 3247TIP3    H231377   4.945   5.517   9.041  0.4941 -2.2988  1.2497
 3248TIP3   OH231378   3.863   1.432   0.779  0.2144 -0.1009 -0.7526
 3248TIP3    H131379   3.863   1.395   0.867  0.9305  0.7254 -0.3848
 3248TIP3    H231380   3.918   1.372   0.728  0.2389 -0.2945 -0.5034
 3249TIP3   OH231381   1.426   5.576   9.065 -0.1658  0.7099 -0.1434
 3249TIP3    H131382   1.348   5.632   9.073  2.4029  4.6951 -0.3070
 3249TIP3    H231383   1.478   5.616   8.996  1.9420 -2.0071 -0.3100
 3250TIP3   OH231384   3.446   2.024   9.207  0.0479 -0.4274  0.2309
 3250TIP3    H131385   3.514   1.996   9.267  0.1522  1.8625  1.2871
 3250TIP3    H231386   3.365   1.989   9.244  0.3104 -0.5417  0.7049
 3251TIP3   OH231387   4.244   2.500   2.457 -0.3462  0.1263 -0.1364
 3251TIP3    H131388   4.196   2.571   2.498  0.2113  0.0865  0.6162
 3251TIP3    H231389   4.336   2.517   2.480  0.2189  0.9834 -2.6641
 3252TIP3   OH231390   3.856   2.358   2.005  0.2744 -0.3232 -0.5457
 3252TIP3    H131391   3.871   2.282   1.948  0.3125 -1.2481  0.6558
 3252TIP3    H231392   3.778   2.400   1.968 -1.1310 -2.2580  0.0333
 3253TIP3   OH231393   1.510   3.314   8.814 -0.2335 -0.2778  0.0461
 3253TIP3    H131394   1.556   3.382   8.862  0.7627 -0.8632 -0.0612
 3253TIP3    H231395   1.532   3.329   8.722  0.9702 -1.4479  0.1238
 3254TIP3   OH231396   3.980   0.262   8.366 -0.2878 -0.1016 -0.7159
 3254TIP3    H131397   4.017   0.184   8.324 -0.6463 -0.6884  0.0418
 3254TIP3    H231398   3.933   0.229   8.442  0.4971  0.9661  0.2701
 3255TIP3   OH231399   4.796   1.444   3.299 -0.3635 -0.1065 -0.3589
 3255TIP3    H131400   4.867   1.444   3.363  0.7044 -2.1177 -1.4545
 3255TIP3    H231401   4.717   1.436   3.353  0.3606  0.2190  0.7950
 3256TIP3   OH231402   3.210   1.434   8.408  0.2051  0.4305 -0.3529
 3256TIP3    H131403   3.292   1.385   8.416  0.1965  0.5883  0.7574
 3256TIP3    H231404   3.209   1.463   8.316  0.7742 -0.6409 -0.7228
 3257TIP3   OH231405   0.603   4.344   8.630 -0.4242 -0.4757 -0.2527
 3257TIP3    H131406   0.607   4.396   8.550  0.0084 -0.2235 -0.0668
 3257TIP3    H231407   0.649   4.262   8.609  1.4524  0.3843  0.3355
 3258TIP3   OH231408   3.150   1.037   2.533 -0.0132 -0.1383  0.2258
 3258TIP3    H131409   3.059   1.041   2.561  0.0780 -2.2506  0.9466
 3258TIP3    H231410   3.166   1.122   2.491 -2.2762  0.2891  0.1375
 3259TIP3   OH231411   1.144   6.648   1.597 -0.4875 -0.5267 -0.3765
 3259TIP3    H131412   1.064   6.632   1.546  0.5298 -1.5708 -1.7159
 3259TIP3    H231413   1.204   6.689   1.535  0.4042 -0.7785  0.3021
 3260TIP3   OH231414   2.510   4.707   2.524 -0.2370  0.4583  0.2955
 3260TIP3    H131415   2.435   4.761   2.550  1.0515  2.1520  0.7181
 3260TIP3    H231416   2.528   4.733   2.433 -0.0108  0.2481  0.2778
 3261TIP3   OH231417   0.075   5.751   2.957 -0.5110 -0.0758  0.1263
 3261TIP3    H131418  -0.016   5.768   2.933 -1.0607 -0.2405  1.9265
 3261TIP3    H231419   0.073   5.662   2.994  0.4294 -0.1880 -0.0893
 3262TIP3   OH231420   5.658   6.555   0.655 -0.0538  0.5348  0.0436
 3262TIP3    H131421   5.585   6.613   0.676  0.2539  0.6456  0.8635
 3262TIP3    H231422   5.648   6.535   0.562 -2.4412 -1.2790  0.5959
 3263TIP3   OH231423   2.207   3.327   7.912  0.1435  0.8843  0.6709
 3263TIP3    H131424   2.291   3.370   7.895  0.5873 -0.6493 -1.4399
 3263TIP3    H231425   2.231   3.248   7.961 -0.0310  0.3950 -0.0206
 3264TIP3   OH231426   4.865   2.983   7.095  0.2082  0.0440  0.1723
 3264TIP3    H131427   4.950   3.028   7.091  0.0729  0.3704  0.7993
 3264TIP3    H231428   4.833   3.002   7.183 -0.2165 -0.6282  0.1656
 3265TIP3   OH231429   4.919   1.706   1.377 -0.1222  0.4030  0.4195
 3265TIP3    H131430   5.010   1.718   1.348 -0.3652 -1.5243 -1.4587
 3265TIP3    H231431   4.872   1.780   1.340  0.3782  0.3785 -0.2960
 3266TIP3   OH231432   5.748   5.574   1.420  0.4408  0.2327  0.4880
 3266TIP3    H131433   5.654   5.558   1.431  0.6837 -1.5814  0.2298
 3266TIP3    H231434   5.755   5.669   1.410 -1.3078  0.4517  1.0065
 3267TIP3   OH231435   2.554   5.146   1.077  0.1577 -0.2599  0.1713
 3267TIP3    H131436   2.489   5.096   1.028 -0.2209  0.2171  0.1818
 3267TIP3    H231437   2.537   5.237   1.054 -0.2400  0.0054  1.4301
 3268TIP3   OH231438   4.458   2.408   7.759 -0.1540  0.3097  0.4915
 3268TIP3    H131439   4.470   2.365   7.674  2.8365  0.0465  0.9329
 3268TIP3    H231440   4.478   2.500   7.743  0.6517  0.2202  0.9271
 3269TIP3   OH231441   3.777   4.002   2.435  0.2725  0.3927 -1.0640
 3269TIP3    H131442   3.842   4.053   2.484 -0.1945 -0.0752  0.0828
 3269TIP3    H231443   3.800   3.911   2.454 -0.4422  0.2209 -1.0099
 3270TIP3   OH231444   2.995   3.104   2.606 -0.2599 -0.2809  0.6622
 3270TIP3    H131445   2.996   3.198   2.627 -1.7267 -0.2831  0.8349
 3270TIP3    H231446   2.963   3.063   2.686 -2.2121 -0.6586 -0.2632
 3271TIP3   OH231447   6.677   6.200   0.285  0.4462 -0.4369 -0.2722
 3271TIP3    H131448   6.588   6.230   0.302  0.4671 -0.2702 -0.4460
 3271TIP3    H231449   6.682   6.113   0.324  0.5470 -0.0027  0.7032
 3272TIP3   OH231450   4.581   5.799   7.193  0.3626  0.2326  0.3215
 3272TIP3    H131451   4.487   5.782   7.190  0.4037 -0.2832  1.3728
 3272TIP3    H231452   4.592   5.880   7.144 -0.5801  0.1041 -0.1331
 3273TIP3   OH231453   4.213   1.518   2.238 -0.0574 -0.7068  0.1524
 3273TIP3    H131454   4.226   1.573   2.316  1.7887  0.6509 -1.0459
 3273TIP3    H231455   4.256   1.435   2.260  0.1314 -0.4650  0.7064
 3274TIP3   OH231456   5.054   2.687   8.019 -0.3387  0.3153 -0.3464
 3274TIP3    H131457   5.112   2.618   7.987 -0.2562  0.7906 -1.2478
 3274TIP3    H231458   5.110   2.764   8.028 -0.0903 -0.0950  2.1618
 3275TIP3   OH231459   4.039   0.550   8.255 -0.9132 -0.1575  0.5167
 3275TIP3    H131460   3.959   0.602   8.258  0.4059  1.9657  1.2142
 3275TIP3    H231461   4.013   0.463   8.286 -3.0022  0.3337  0.2744
 3276TIP3   OH231462   5.046   3.055   9.137  0.3139 -0.2325  0.0251
 3276TIP3    H131463   4.961   3.059   9.180  0.0005  0.0399 -0.6032
 3276TIP3    H231464   5.043   2.975   9.084  0.2648  0.0226 -0.3633
 3277TIP3   OH231465   2.723   2.125   0.921 -0.2509 -0.2014 -0.3728
 3277TIP3    H131466   2.735   2.065   0.848 -3.3132 -0.7278 -0.5933
 3277TIP3    H231467   2.713   2.211   0.880 -0.3206 -0.2495 -0.4583
 3278TIP3   OH231468   1.497   5.622   8.797 -0.0785  0.1526  0.0609
 3278TIP3    H131469   1.462   5.534   8.789  0.1516  0.0279  0.4015
 3278TIP3    H231470   1.463   5.669   8.720  2.2789 -1.0574 -1.8754
 3279TIP3   OH231471   3.975   3.556   2.241 -0.0480 -0.0032  0.3520
 3279TIP3    H131472   4.049   3.507   2.207 -0.6487 -0.6288 -0.0594
 3279TIP3    H231473   3.908   3.551   2.173  0.0183  1.7400  0.1164
 3280TIP3   OH231474   4.140   1.784   1.073 -0.4893 -0.1502 -0.5236
 3280TIP3    H131475   4.189   1.715   1.118  1.1507  0.7329 -0.8791
 3280TIP3    H231476   4.162   1.864   1.119 -1.5138  0.3035 -0.7873
 3281TIP3   OH231477   4.312   5.220   0.113  0.2059  0.6490 -0.7979
 3281TIP3    H131478   4.230   5.237   0.159  0.6732  2.5406 -0.5944
 3281TIP3    H231479   4.290   5.154   0.048 -0.7980 -1.0299  1.1328
 3282TIP3   OH231480   1.053   1.793   8.670  0.2472 -0.2387 -0.4955
 3282TIP3    H131481   1.145   1.800   8.695  0.6442  2.1434 -2.2822
 3282TIP3    H231482   1.056   1.776   8.576 -1.1660 -1.4981 -0.3390
 3283TIP3   OH231483   3.107   2.179   7.747 -0.5807 -0.0755 -0.8123
 3283TIP3    H131484   3.106   2.275   7.737 -2.1839  0.1216  0.7448
 3283TIP3    H231485   3.146   2.165   7.833 -1.0043 -0.7712 -0.7280
 3284TIP3   OH231486   6.438   6.163   1.645 -0.2694 -0.2953 -0.0754
 3284TIP3    H131487   6.527   6.130   1.657  0.0196  0.9693  1.4097
 3284TIP3    H231488   6.427   6.166   1.549  1.7683  0.8111 -0.3137
 3285TIP3   OH231489   1.408   2.368   1.108  0.5422  0.1171  0.8159
 3285TIP3    H131490   1.472   2.302   1.078  0.2259 -1.0801  2.6031
 3285TIP3    H231491   1.449   2.452   1.088  0.5474 -0.5289 -2.4362
 3286TIP3   OH231492   3.815   1.870   3.128  0.1758 -0.0603  0.2944
 3286TIP3    H131493   3.785   1.960   3.140  2.5569  0.8984 -0.3142
 3286TIP3    H231494   3.824   1.836   3.217 -2.8124 -0.5380  0.5201
 3287TIP3   OH231495   3.841   6.369   9.157 -0.3419  0.4308 -0.3408
 3287TIP3    H131496   3.831   6.275   9.147 -0.2671  0.6104 -2.3450
 3287TIP3    H231497   3.935   6.383   9.167 -0.4289  0.2419  0.9175
 3288TIP3   OH231498   6.170   5.730   8.128 -0.4859 -0.3239 -0.0147
 3288TIP3    H131499   6.120   5.800   8.170 -1.9962 -0.3696 -1.6162
 3288TIP3    H231500   6.116   5.652   8.139 -0.8268 -0.3745 -1.7709
 3289TIP3   OH231501   1.667   5.762   0.438  0.1126 -0.0362  0.1689
 3289TIP3    H131502   1.676   5.671   0.466 -0.7402 -0.4631 -0.8644
 3289TIP3    H231503   1.754   5.786   0.406 -0.0947 -1.1285 -1.3143
 3290TIP3   OH231504   2.389   5.490   1.771  0.5786 -0.3249  0.0346
 3290TIP3    H131505   2.319   5.476   1.834  0.5802 -0.2751  0.0480
 3290TIP3    H231506   2.408   5.404   1.735 -2.1307  0.1121 -2.8233
 3291TIP3   OH231507   1.085   3.530   8.657  1.0274 -0.5698 -0.4439
 3291TIP3    H131508   1.087   3.543   8.562 -0.4710 -0.4402 -0.4887
 3291TIP3    H231509   1.031   3.452   8.670  0.8242 -0.3131  0.3163
 3292TIP3   OH231510   3.443   0.223   2.414  0.2801 -0.1190 -0.0761
 3292TIP3    H131511   3.352   0.197   2.428  0.4071 -0.7312 -0.3808
 3292TIP3    H231512   3.495   0.146   2.438  0.7072  0.1368 -0.1554
 3293TIP3   OH231513   2.674   3.930   6.942  0.6477 -0.9640 -0.4266
 3293TIP3    H131514   2.605   3.994   6.959  0.1511 -1.1706 -1.5404
 3293TIP3    H231515   2.750   3.962   6.991  0.4124  0.4839 -0.9524
 3294TIP3   OH231516   3.222   3.820   1.156 -0.2658  0.2691 -0.3192
 3294TIP3    H131517   3.305   3.834   1.202 -0.7908 -1.3811  1.2229
 3294TIP3    H231518   3.211   3.899   1.102  2.5814  0.2590 -1.0559
 3295TIP3   OH231519   6.538   5.541   0.811  0.8049 -0.0262 -0.0775
 3295TIP3    H131520   6.629   5.513   0.822  1.3130  0.6364 -2.1477
 3295TIP3    H231521   6.536   5.581   0.724 -1.7638 -1.2391 -0.6641
 3296TIP3   OH231522   1.810   2.513   8.540 -0.5885  0.0002 -0.0292
 3296TIP3    H131523   1.730   2.534   8.587  0.9315  2.3415  1.7951
 3296TIP3    H231524   1.875   2.574   8.576  1.5993 -0.5959 -2.6463
 3297TIP3   OH231525   4.191   4.027   1.258 -0.6425  1.1001 -0.3801
 3297TIP3    H131526   4.193   4.116   1.222 -1.0188  0.9165 -0.8606
 3297TIP3    H231527   4.192   4.040   1.353  1.0285  1.5715 -0.4320
 3298TIP3   OH231528   4.684   1.562   1.442 -0.2567  0.2699 -0.9890
 3298TIP3    H131529   4.673   1.587   1.534  1.4209  2.2769 -1.2703
 3298TIP3    H231530   4.778   1.569   1.426 -0.2921 -1.7665 -2.4455
 3299TIP3   OH231531   2.075   4.118   7.600 -0.5029  0.7104  1.1907
 3299TIP3    H131532   2.032   4.128   7.685  0.1738  1.1720  1.4838
 3299TIP3    H231533   2.097   4.207   7.573  0.2299  0.4834  1.0219
 3300TIP3   OH231534   2.891   5.313   7.538  0.0561 -0.3415  0.4701
 3300TIP3    H131535   2.913   5.226   7.572 -0.0529 -0.7237 -0.4067
 3300TIP3    H231536   2.797   5.309   7.521 -0.4587  0.7683  2.7202
 3301TIP3   OH231537   5.614   1.316   1.315 -0.1897 -0.9056  0.1758
 3301TIP3    H131538   5.535   1.367   1.296 -0.1253 -0.9418 -0.1814
 3301TIP3    H231539   5.685   1.364   1.273 -0.2871 -1.9379 -1.2516
 3302TIP3   OH231540   3.920   1.348   2.890 -0.1435  0.0806  0.0029
 3302TIP3    H131541   3.937   1.254   2.887  0.0191 -0.1308  3.3972
 3302TIP3    H231542   3.992   1.384   2.941 -2.0204  1.4553  1.8382
 3303TIP3   OH231543   0.334   1.133   0.343 -0.4813  0.2036 -0.0603
 3303TIP3    H131544   0.283   1.200   0.298 -2.2727 -1.3898 -0.5558
 3303TIP3    H231545   0.413   1.123   0.290 -0.1090  1.9569  0.0966
 3304TIP3   OH231546   2.273   2.659   9.012  0.2952 -0.2654 -0.2570
 3304TIP3    H131547   2.284   2.570   8.978  0.7156  0.3113 -1.7316
 3304TIP3    H231548   2.202   2.695   8.958  1.1929  0.7983 -0.7425
 3305TIP3   OH231549   0.625   0.041   8.493 -0.0591 -0.5629  0.5484
 3305TIP3    H131550   0.573   0.033   8.574  0.0266 -0.5399  0.6054
 3305TIP3    H231551   0.610   0.131   8.464 -0.1743 -0.6034  0.4816
 3306TIP3   OH231552   4.207   3.525   7.985 -0.2981 -0.3017 -0.4014
 3306TIP3    H131553   4.291   3.556   7.953  0.1457 -0.1271  0.8704
 3306TIP3    H231554   4.146   3.597   7.965  0.6253  1.3291  2.0797
 3307TIP3   OH231555   1.261   6.309   0.197  0.3526  0.9897  0.1434
 3307TIP3    H131556   1.257   6.225   0.242 -0.1310  0.3391 -1.0824
 3307TIP3    H231557   1.244   6.374   0.266  0.1056  0.0528  0.9833
 3308TIP3   OH231558   4.957   1.659   1.076 -0.3965 -0.0312  0.2961
 3308TIP3    H131559   5.033   1.688   1.025 -1.2719  0.2108 -0.9174
 3308TIP3    H231560   4.974   1.692   1.165 -0.2242  2.2204 -0.4930
 3309TIP3   OH231561   1.574   2.611   8.642 -0.0739 -0.3880 -0.0818
 3309TIP3    H131562   1.528   2.644   8.565  0.2693 -0.7241 -0.4379
 3309TIP3    H231563   1.628   2.684   8.671 -0.2057 -0.2583 -0.1631
 3310TIP3   OH231564   3.170   5.685   0.217 -0.2865  0.6402 -0.3186
 3310TIP3    H131565   3.232   5.746   0.258 -0.5390  0.8623 -0.2692
 3310TIP3    H231566   3.085   5.726   0.228 -0.9505 -1.2148  2.6753
 3311TIP3   OH231567   3.099   3.514   2.570 -0.0225 -0.3480 -0.1472
 3311TIP3    H131568   3.016   3.550   2.541  0.1740  0.2792  0.0431
 3311TIP3    H231569   3.105   3.429   2.528  0.6874  0.8777 -2.7260
 3312TIP3   OH231570   1.928   2.870   7.932 -0.0077 -0.4564 -0.1171
 3312TIP3    H131571   1.989   2.921   7.879 -0.2744  1.1798  1.0668
 3312TIP3    H231572   1.889   2.808   7.870  0.7763  0.3607 -1.4923
 3313TIP3   OH231573   0.701   5.120   0.142 -0.4834 -0.1088 -0.3083
 3313TIP3    H131574   0.688   5.127   0.047  2.5673  0.0163 -0.8084
 3313TIP3    H231575   0.690   5.027   0.161 -0.9222 -0.1651 -0.7998
 3314TIP3   OH231576   5.045   2.334   2.231  0.1971  0.5599 -0.4251
 3314TIP3    H131577   5.076   2.411   2.183  0.0234  1.0990  0.3185
 3314TIP3    H231578   5.090   2.338   2.315 -0.3850  0.2655 -0.0940
 3315TIP3   OH231579   5.242   3.790   1.756  0.0776 -0.0141  0.2659
 3315TIP3    H131580   5.272   3.736   1.683  0.4840 -0.6905  0.9182
 3315TIP3    H231581   5.153   3.760   1.774  0.2869 -0.4504  0.5994
 3316TIP3   OH231582   1.227   4.541   0.406 -0.2929 -0.3767 -0.4591
 3316TIP3    H131583   1.219   4.472   0.472  0.6531 -0.1448 -0.0810
 3316TIP3    H231584   1.235   4.622   0.457  2.2618 -0.3608 -0.7412
 3317TIP3   OH231585   4.576   1.002   8.157 -0.0052 -0.0841 -0.1752
 3317TIP3    H131586   4.482   0.996   8.142  0.2358  0.0042 -2.0010
 3317TIP3    H231587   4.586   1.073   8.220 -1.1590 -0.1361  0.0851
 3318TIP3   OH231588   0.460   1.869   0.231  0.4554 -0.0721 -0.0775
 3318TIP3    H131589   0.550   1.865   0.265  0.4398 -0.5671 -0.0918
 3318TIP3    H231590   0.409   1.819   0.294  0.5032 -1.4194 -1.0791
 3319TIP3   OH231591   0.358   2.349   0.298 -0.7203 -0.1143 -0.1921
 3319TIP3    H131592   0.451   2.374   0.297 -0.4694 -0.9977 -0.0951
 3319TIP3    H231593   0.334   2.352   0.391 -0.8703  0.3773 -0.2430
 3320TIP3   OH231594   0.823   3.653   2.931 -0.4295  0.0948  0.0466
 3320TIP3    H131595   0.752   3.591   2.911 -0.8999  0.9477 -1.0687
 3320TIP3    H231596   0.784   3.739   2.914  0.5194  0.6435  0.5892
 3321TIP3   OH231597   3.872   6.272   0.989  0.2262 -0.1862  0.5464
 3321TIP3    H131598   3.952   6.325   0.991 -0.0965  0.3354 -0.0660
 3321TIP3    H231599   3.812   6.317   1.048 -0.2542  0.4797 -0.4332
 3322TIP3   OH231600   1.614   0.528   0.455  0.4430 -0.4591  0.5788
 3322TIP3    H131601   1.566   0.566   0.529  0.7696  1.5940 -0.1935
 3322TIP3    H231602   1.558   0.456   0.425 -0.9245  0.2657  1.2744
 3323TIP3   OH231603   2.303   1.575   0.685  0.2048 -0.0793 -0.3856
 3323TIP3    H131604   2.250   1.566   0.763  0.8598 -2.0828 -0.1213
 3323TIP3    H231605   2.392   1.584   0.717  0.3492  0.2788 -0.8757
 3324TIP3   OH231606   4.861   6.652   8.194 -0.9237 -0.4948  0.0155
 3324TIP3    H131607   4.860   6.677   8.286 -0.1679  1.4723 -0.4427
 3324TIP3    H231608   4.774   6.676   8.162 -1.1652 -1.1210  0.1896
 3325TIP3   OH231609   4.713   1.233   1.142  0.0686  0.4435  0.2324
 3325TIP3    H131610   4.727   1.140   1.124 -0.7437  0.6332 -1.5437
 3325TIP3    H231611   4.800   1.272   1.140  0.6422 -0.5050  2.7621
 3326TIP3   OH231612   1.384   6.252   0.830 -0.0805  0.1449 -0.2450
 3326TIP3    H131613   1.462   6.279   0.879 -0.8927  2.2510 -0.0442
 3326TIP3    H231614   1.417   6.231   0.742  0.8342  0.0360  0.1140
 3327TIP3   OH231615   1.135   0.792   1.304 -0.2210  0.2860 -0.1372
 3327TIP3    H131616   1.121   0.822   1.215 -1.3750 -0.1949 -0.1267
 3327TIP3    H231617   1.197   0.856   1.341  0.5456  0.2861 -1.3657
 3328TIP3   OH231618   0.336   3.657   2.186 -0.0903  0.5519 -0.2006
 3328TIP3    H131619   0.291   3.636   2.268 -0.9955 -1.8142 -1.1897
 3328TIP3    H231620   0.276   3.626   2.117  2.2292 -1.1159 -1.6366
 3329TIP3   OH231621   0.673   4.862   2.134  0.3303 -0.1700 -0.6090
 3329TIP3    H131622   0.598   4.896   2.085  0.0843  0.5370  0.2342
 3329TIP3    H231623   0.671   4.767   2.119  0.0240 -0.0096 -1.6181
 3330TIP3   OH231624   6.513   2.805   7.437  0.1498  0.0235  0.0477
 3330TIP3    H131625   6.540   2.717   7.464  1.3836  0.2604 -0.3551
 3330TIP3    H231626   6.527   2.807   7.342  0.0857  0.6449  0.0458
 3331TIP3   OH231627   5.924   3.764   1.033  0.6757 -0.4537 -0.2902
 3331TIP3    H131628   5.972   3.839   0.999  2.2992 -0.8032  1.0856
 3331TIP3    H231629   5.935   3.769   1.128 -2.5216 -0.2820  0.1897
 3332TIP3   OH231630   6.418   0.945   7.095 -0.3243  0.0984  0.6522
 3332TIP3    H131631   6.456   1.033   7.087 -1.5595  0.4564 -3.5708
 3332TIP3    H231632   6.324   0.960   7.103 -0.5460 -0.8014 -0.0580
 3333TIP3   OH231633   1.649   2.205   1.517  0.1198  0.3524 -0.5588
 3333TIP3    H131634   1.649   2.112   1.540  1.7274 -0.2268 -2.5679
 3333TIP3    H231635   1.557   2.229   1.513 -0.3002 -0.6981  1.5415
 3334TIP3   OH231636   0.469   0.510   2.626 -0.2115 -0.3113 -0.0889
 3334TIP3    H131637   0.530   0.444   2.657 -1.5270 -1.1537  0.7878
 3334TIP3    H231638   0.384   0.483   2.660 -1.2245  0.4076 -1.8906
 3335TIP3   OH231639   6.252   3.321   1.488  0.1643 -0.0738 -0.2682
 3335TIP3    H131640   6.166   3.347   1.455  0.2881  0.3122 -0.2939
 3335TIP3    H231641   6.276   3.391   1.548  0.7801  0.1856 -0.8052
 3336TIP3   OH231642   1.067   3.606   7.913 -0.1388 -0.3144  0.3832
 3336TIP3    H131643   1.102   3.522   7.944 -0.3705 -0.6909 -0.3554
 3336TIP3    H231644   1.127   3.632   7.843 -0.1637  0.0554  0.5005
 3337TIP3   OH231645   2.056   2.709   1.021 -0.2801  0.1182  0.4574
 3337TIP3    H131646   2.024   2.771   1.086 -1.9857 -0.8644  0.6148
 3337TIP3    H231647   2.110   2.648   1.071  2.4938  2.0917  0.1051
 3338TIP3   OH231648   1.286   6.273   7.581  0.1625  0.2889  0.3169
 3338TIP3    H131649   1.307   6.343   7.642  0.6342 -0.4269  1.0000
 3338TIP3    H231650   1.200   6.242   7.608 -0.5127  1.2706 -0.6350
 3339TIP3   OH231651   2.479   2.427   0.668 -0.1494  0.3276  0.1521
 3339TIP3    H131652   2.570   2.441   0.694 -0.4747  1.7636  0.5693
 3339TIP3    H231653   2.435   2.402   0.749  0.0326 -1.4296 -0.2309
 3340TIP3   OH231654   0.433   5.030   8.668 -0.2133 -0.2965 -0.5242
 3340TIP3    H131655   0.353   4.978   8.666  0.0989 -0.7689 -1.2007
 3340TIP3    H231656   0.504   4.964   8.666  0.1944  0.0964  0.4090
 3341TIP3   OH231657   0.642   2.556   1.705 -0.3613 -0.4436  0.3406
 3341TIP3    H131658   0.556   2.566   1.663  0.9770  0.9465 -2.3541
 3341TIP3    H231659   0.668   2.466   1.685 -0.5703 -0.4016 -0.1255
 3342TIP3   OH231660   4.444   3.962   0.312  0.4547  0.0624 -0.1515
 3342TIP3    H131661   4.356   3.928   0.298  0.0453 -0.1500  2.4346
 3342TIP3    H231662   4.502   3.892   0.281 -0.3314 -0.8976  0.4769
 3343TIP3   OH231663   2.688   0.727   7.956  0.2697  0.3485 -0.2023
 3343TIP3    H131664   2.625   0.799   7.946 -1.0429 -0.8831 -1.2385
 3343TIP3    H231665   2.646   0.652   7.913  1.1541 -1.3163  1.6680
 3344TIP3   OH231666   4.930   1.270   2.113  0.5262 -0.3895  0.2050
 3344TIP3    H131667   4.930   1.226   2.028 -0.5722  0.3341 -0.1892
 3344TIP3    H231668   4.955   1.360   2.094 -0.0399 -0.1430  0.6006
 3345TIP3   OH231669   1.146   2.838   8.781 -0.2436 -0.3515 -0.2704
 3345TIP3    H131670   1.120   2.924   8.749 -0.0092 -0.5464 -1.0160
 3345TIP3    H231671   1.199   2.801   8.710  0.2853 -0.8085  0.3492
 3346TIP3   OH231672   0.889   2.372   8.355 -0.0965 -0.2431  0.1072
 3346TIP3    H131673   0.796   2.350   8.355  0.1286 -1.2742 -0.2782
 3346TIP3    H231674   0.910   2.386   8.263 -0.1514  1.3563  0.3083
 3347TIP3   OH231675   6.385   2.985   7.779 -1.0153  0.3040 -0.5126
 3347TIP3    H131676   6.337   2.909   7.745 -1.3759  0.1784  0.2539
 3347TIP3    H231677   6.319   3.036   7.825 -0.3574 -0.0441  0.8513
 3348TIP3   OH231678   3.396   6.432   0.718 -0.4678 -0.7406  0.5072
 3348TIP3    H131679   3.392   6.353   0.663  1.0766 -0.2144 -0.4241
 3348TIP3    H231680   3.453   6.407   0.790  0.5354 -0.3144 -0.1182
 3349TIP3   OH231681   2.524   0.646   1.091  0.6163  0.0306  0.0687
 3349TIP3    H131682   2.590   0.677   1.029  1.6445 -2.7114 -0.3508
 3349TIP3    H231683   2.568   0.647   1.176  0.6223 -0.1685  0.0685
 3350TIP3   OH231684   3.224   6.074   8.836  0.3806 -0.7223 -0.0673
 3350TIP3    H131685   3.199   5.992   8.881  0.8563 -1.0658 -0.4207
 3350TIP3    H231686   3.319   6.075   8.840  0.3446  0.8235  1.7091
 3351TIP3   OH231687   1.910   1.252   0.335  0.4056  0.7198  0.1338
 3351TIP3    H131688   1.955   1.313   0.393 -0.7783  1.4100  0.3644
 3351TIP3    H231689   1.832   1.225   0.385 -0.2891  0.8179 -0.8709
 3352TIP3   OH231690   5.017   4.883   2.258  0.1887  0.2848 -0.3678
 3352TIP3    H131691   4.969   4.931   2.324 -0.0904 -1.3836  0.7142
 3352TIP3    H231692   4.954   4.871   2.186  0.1610  1.1969 -0.5052
 3353TIP3   OH231693   2.645   1.048   0.163 -0.5060 -0.1192 -0.0425
 3353TIP3    H131694   2.706   0.975   0.150  0.4404  0.7135 -0.3496
 3353TIP3    H231695   2.579   1.036   0.095  0.1234 -0.2152 -0.6494
 3354TIP3   OH231696   1.102   4.698   8.558 -0.4674 -0.5061 -0.1033
 3354TIP3    H131697   1.021   4.734   8.523 -1.4271 -0.7994  1.7036
 3354TIP3    H231698   1.151   4.774   8.589  0.0068 -0.3240 -1.2460
 3355TIP3   OH231699   0.711   4.220   3.097 -0.0615  0.2434  0.4239
 3355TIP3    H131700   0.692   4.169   3.018  1.2861 -1.7349  1.2994
 3355TIP3    H231701   0.774   4.286   3.068  0.3788 -0.4177 -0.1674
 3356TIP3   OH231702   6.462   0.595   0.119 -0.3225  0.3304  0.1648
 3356TIP3    H131703   6.502   0.625   0.200  1.1309 -0.6205 -0.1612
 3356TIP3    H231704   6.394   0.534   0.147 -0.7613  1.0546  0.7010
 3357TIP3   OH231705   6.657   0.939   8.957 -0.1697  0.0507  0.3093
 3357TIP3    H131706   6.688   0.996   9.027  2.4875  0.4867 -1.0801
 3357TIP3    H231707   6.688   0.851   8.982  0.4277  0.1402 -0.0949
 3358TIP3   OH231708   3.989   4.767   1.704  0.0092  0.2980  0.5982
 3358TIP3    H131709   3.951   4.804   1.784  0.9152  0.1734  1.0932
 3358TIP3    H231710   4.008   4.676   1.726  1.9123  0.7173  0.8497
 3359TIP3   OH231711   3.510   5.641   0.042 -0.1092  0.1662  0.5800
 3359TIP3    H131712   3.505   5.574  -0.026  0.8765 -0.1924  0.8458
 3359TIP3    H231713   3.599   5.676   0.036  1.1894 -2.1347  3.7137
 3360TIP3   OH231714   5.110   1.311   7.817  0.3460  0.0721 -0.5072
 3360TIP3    H131715   5.140   1.377   7.755  2.1145  0.1117  0.3279
 3360TIP3    H231716   5.042   1.263   7.770 -1.1123  2.5522 -1.0724
 3361TIP3   OH231717   0.106   2.900   6.652 -0.1260  0.3977 -0.8072
 3361TIP3    H131718   0.018   2.936   6.662 -0.2249  0.0256 -0.2461
 3361TIP3    H231719   0.152   2.930   6.731 -0.3109 -0.9533 -0.1475
 3362TIP3   OH231720   0.772   0.772   8.366 -0.1402  0.5909 -0.1012
 3362TIP3    H131721   0.743   0.809   8.449  0.4013  0.2713  0.2345
 3362TIP3    H231722   0.866   0.760   8.376 -0.1690 -0.0507 -0.5277
 3363TIP3   OH231723   4.131   3.185   7.767 -0.3188  0.4952 -0.1076
 3363TIP3    H131724   4.179   3.155   7.689 -0.0574  2.6162 -0.8200
 3363TIP3    H231725   4.064   3.244   7.733 -0.1492  1.5394  1.2752
 3364TIP3   OH231726   3.144   4.040   8.599 -0.6556  0.3998 -0.5437
 3364TIP3    H131727   3.106   4.109   8.653  0.7599  0.6114  0.2533
 3364TIP3    H231728   3.090   3.963   8.616 -0.3505  0.5049  1.0890
 3365TIP3   OH231729   0.519   5.483   2.239  0.8010 -0.1164 -0.3012
 3365TIP3    H131730   0.583   5.417   2.267  1.6186  1.1089  0.8124
 3365TIP3    H231731   0.551   5.565   2.276 -1.5561  0.5202  0.5109
 3366TIP3   OH231732   4.857   5.222   0.500 -0.4533  0.8641 -0.0071
 3366TIP3    H131733   4.774   5.261   0.475  0.1134  2.1746  0.0817
 3366TIP3    H231734   4.881   5.167   0.425  0.0584  2.8535 -1.3795
 3367TIP3   OH231735   6.082   2.788   2.370 -0.6760 -0.7140 -0.0933
 3367TIP3    H131736   6.157   2.729   2.375  0.5984  0.9293  2.4681
 3367TIP3    H231737   6.119   2.873   2.350 -1.6565  0.3112  2.0864
 3368TIP3   OH231738   1.676   0.207   7.263 -0.2897  0.0160 -0.4331
 3368TIP3    H131739   1.676   0.301   7.283 -0.3568  0.2555 -1.4882
 3368TIP3    H231740   1.741   0.197   7.194 -0.2688 -0.7197 -0.3099
 3369TIP3   OH231741   2.667   2.065   0.163  0.3960 -0.1660  0.1816
 3369TIP3    H131742   2.709   1.990   0.122  2.0929  0.9598 -0.2622
 3369TIP3    H231743   2.600   2.092   0.100  0.4047 -0.7314 -0.0789
 3370TIP3   OH231744   4.990   1.398   1.034 -0.2816  0.1939 -0.4074
 3370TIP3    H131745   4.904   1.361   1.015  0.5288 -1.9687 -0.0634
 3370TIP3    H231746   4.974   1.492   1.043 -2.9931 -0.3503  1.7856
 3371TIP3   OH231747   1.060   1.255   2.683  0.1722 -0.4941 -0.7267
 3371TIP3    H131748   1.126   1.268   2.751 -1.5904 -1.7265  1.3783
 3371TIP3    H231749   1.076   1.166   2.651 -0.7475 -1.0020  0.1779
 3372TIP3   OH231750   5.605   6.029   8.813  0.2170  0.0365  0.7295
 3372TIP3    H131751   5.542   6.060   8.748  0.9184 -0.4428 -0.2089
 3372TIP3    H231752   5.647   6.109   8.845  0.9803  0.2218 -0.6034
 3373TIP3   OH231753   3.659   0.456   8.965  0.7523  0.5180  0.2461
 3373TIP3    H131754   3.661   0.364   8.938 -1.0684  0.8794 -1.2830
 3373TIP3    H231755   3.628   0.504   8.888 -1.1508  2.0588  1.8536
 3374TIP3   OH231756   5.766   6.395   1.783 -0.0339 -0.3711  0.6452
 3374TIP3    H131757   5.787   6.427   1.696  0.1182  1.8094  1.4265
 3374TIP3    H231758   5.845   6.350   1.812  1.1677  1.7578  0.8785
 3375TIP3   OH231759   6.018   0.734   0.357 -0.3691  0.0992 -0.9437
 3375TIP3    H131760   6.055   0.681   0.428 -0.9178 -1.5031 -1.8018
 3375TIP3    H231761   6.065   0.707   0.279 -2.0168 -0.6261 -1.7387
 3376TIP3   OH231762   2.373   6.481   9.179  0.0952 -0.4177  0.5258
 3376TIP3    H131763   2.329   6.550   9.230 -1.5181  0.1458 -1.5118
 3376TIP3    H231764   2.458   6.518   9.156  0.9206 -0.7186  2.7664
 3377TIP3   OH231765   0.345   4.117   8.959 -0.4315  0.1396  0.2643
 3377TIP3    H131766   0.259   4.076   8.957 -1.3496  1.9456  0.8284
 3377TIP3    H231767   0.384   4.087   9.041 -0.6462 -0.4268  0.1622
 3378TIP3   OH231768   5.102   4.610   2.180 -0.2994  0.1222 -0.3674
 3378TIP3    H131769   5.041   4.626   2.107  0.2452  0.5317 -0.7399
 3378TIP3    H231770   5.091   4.686   2.237 -2.2426 -1.1580  1.0821
 3379TIP3   OH231771   3.810   1.555   1.538  1.2178 -0.2637  0.0148
 3379TIP3    H131772   3.739   1.610   1.571 -0.1198 -1.6119 -0.5203
 3379TIP3    H231773   3.846   1.605   1.464  0.8067  0.4035  0.2557
 3380TIP3   OH231774   4.348   3.869   9.186  0.1411  0.0226  0.2830
 3380TIP3    H131775   4.434   3.862   9.227 -0.8421 -2.0022  2.2057
 3380TIP3    H231776   4.345   3.796   9.124 -0.8025 -1.0672  1.5593
 3381TIP3   OH231777   4.993   4.369   7.698  0.2212  0.1310 -0.5598
 3381TIP3    H131778   4.915   4.412   7.732  0.7891  1.2228 -0.6144
 3381TIP3    H231779   4.960   4.288   7.659 -1.0197  1.0370 -1.4610
 3382TIP3   OH231780   2.675   4.030   7.303  0.0738  0.6469  0.4257
 3382TIP3    H131781   2.750   3.996   7.254  0.2616 -0.6550  1.5593
 3382TIP3    H231782   2.623   4.076   7.237  0.7956 -0.2299 -0.8089
 3383TIP3   OH231783   0.918   5.323   8.011  0.2058  0.3575 -0.0608
 3383TIP3    H131784   0.836   5.358   8.046  0.4643  1.1504 -0.2332
 3383TIP3    H231785   0.981   5.394   8.021  0.8470 -0.2032 -0.0414
 3384TIP3   OH231786   1.942   0.304   8.865 -1.1990  0.7257 -0.1005
 3384TIP3    H131787   1.997   0.317   8.943 -0.6140  1.6674 -0.6552
 3384TIP3    H231788   1.929   0.209   8.861 -3.6752  0.7945  2.7971
 3385TIP3   OH231789   0.812   1.484   7.546 -0.9692 -0.2587 -0.3607
 3385TIP3    H131790   0.897   1.496   7.504 -1.0338  0.9700 -0.1795
 3385TIP3    H231791   0.808   1.391   7.567  1.1651 -0.0411  1.3445
 3386TIP3   OH231792   4.886   2.143   3.074  0.0198  0.7689  0.2547
 3386TIP3    H131793   4.916   2.054   3.057  0.0618  1.2151 -2.4561
 3386TIP3    H231794   4.965   2.190   3.101  0.2647  0.3157  0.3403
 3387TIP3   OH231795   5.555   5.153   0.428  0.0615  0.5384 -0.5906
 3387TIP3    H131796   5.543   5.066   0.466  3.4809  0.5231  0.8270
 3387TIP3    H231797   5.514   5.212   0.491  3.5585  0.3180  2.2348
 3388TIP3   OH231798   0.511   1.525   0.700 -1.2159  0.0575 -0.1169
 3388TIP3    H131799   0.480   1.475   0.625  0.6242 -0.7091 -0.4036
 3388TIP3    H231800   0.554   1.461   0.757 -1.7505  0.7746  1.1605
 3389TIP3   OH231801   4.043   6.414   2.303  0.2880 -0.1256  0.3027
 3389TIP3    H131802   4.060   6.505   2.278  1.9918 -0.2325  0.9569
 3389TIP3    H231803   4.020   6.419   2.396  0.2907 -0.3624  0.3167
 3390TIP3   OH231804   3.163   3.979   7.869  0.2468 -0.1911 -0.2922
 3390TIP3    H131805   3.166   3.983   7.965  1.2641 -1.2740 -0.2658
 3390TIP3    H231806   3.241   4.027   7.841 -0.6892  1.1965 -0.6434
 3391TIP3   OH231807   5.482   5.681   1.811 -0.0366  0.3993 -0.4214
 3391TIP3    H131808   5.447   5.620   1.746  2.2559  0.5251 -1.8804
 3391TIP3    H231809   5.575   5.689   1.789  0.2597  2.5249  1.2660
 3392TIP3   OH231810   4.771   2.137   8.562  0.1007  0.3320 -0.0907
 3392TIP3    H131811   4.809   2.139   8.650 -0.9628  2.5098  0.3877
 3392TIP3    H231812   4.846   2.138   8.503  0.8646 -2.2032  0.7157
 3393TIP3   OH231813   3.501   1.956   0.263  0.7049  0.2548  0.3545
 3393TIP3    H131814   3.441   1.992   0.329 -0.0366  1.2383 -0.8109
 3393TIP3    H231815   3.494   1.861   0.274 -0.4845  0.3673  0.7588
 3394TIP3   OH231816   5.812   3.784   0.252 -0.3492 -0.0273  0.1002
 3394TIP3    H131817   5.816   3.876   0.224  0.6776 -0.1295 -0.1390
 3394TIP3    H231818   5.898   3.768   0.291 -0.2653 -1.0968 -0.5072
 3395TIP3   OH231819   5.705   2.165   2.656  0.3951 -0.3237  0.3159
 3395TIP3    H131820   5.793   2.139   2.684  0.2000 -1.1091  0.1991
 3395TIP3    H231821   5.646   2.111   2.707 -0.0430  0.4585  0.6589
 3396TIP3   OH231822   3.983   2.738   8.732 -0.4608 -0.4182 -0.3533
 3396TIP3    H131823   4.043   2.800   8.691 -0.2325 -1.6750 -1.9882
 3396TIP3    H231824   3.902   2.787   8.742  0.6209  1.1723  1.4928
 3397TIP3   OH231825   5.385   2.473   0.055  0.1887 -0.2524  0.0665
 3397TIP3    H131826   5.393   2.412   0.128  2.3342 -1.1085 -0.7953
 3397TIP3    H231827   5.335   2.547   0.090 -2.3528 -2.3679  1.1917
 3398TIP3   OH231828   1.585   2.626   1.106  0.1266 -0.2584  0.3809
 3398TIP3    H131829   1.591   2.721   1.098  0.5863 -0.2290  0.9925
 3398TIP3    H231830   1.675   2.597   1.119 -0.0249 -0.7665  0.3278
 3399TIP3   OH231831   3.307   6.607   2.305  0.1061  0.6850 -0.1069
 3399TIP3    H131832   3.254   6.647   2.374 -0.6280  0.9799 -0.8280
 3399TIP3    H231833   3.312   6.515   2.330 -1.1190  0.5612 -0.2463
 3400TIP3   OH231834   2.271   1.293   0.710  0.0823 -0.4126 -0.7410
 3400TIP3    H131835   2.282   1.382   0.676  0.1456  0.0734  0.5072
 3400TIP3    H231836   2.179   1.273   0.695  0.4314 -0.8072 -2.5581
 3401TIP3   OH231837   5.804   3.052   1.621  0.1372 -0.4257  0.4017
 3401TIP3    H131838   5.896   3.056   1.595 -0.0956 -0.9728 -0.5600
 3401TIP3    H231839   5.787   2.959   1.636 -0.0786 -0.2535  1.2892
 3402TIP3   OH231840   0.175   3.705   7.666  0.1554  0.5158  0.1190
 3402TIP3    H131841   0.230   3.767   7.619 -0.6181  1.2556  0.1723
 3402TIP3    H231842   0.133   3.757   7.735 -2.0913  0.4274 -1.0839
 3403TIP3   OH231843   4.196   3.390   1.161  0.3037  0.2620  0.3117
 3403TIP3    H131844   4.249   3.312   1.173  0.6204  0.6764  1.8966
 3403TIP3    H231845   4.112   3.369   1.201 -0.1490  0.2088 -0.6424
 3404TIP3   OH231846   5.961   1.691   0.573 -0.1234 -0.7660 -0.4147
 3404TIP3    H131847   5.939   1.782   0.593 -2.7197 -1.1348 -1.2033
 3404TIP3    H231848   6.030   1.669   0.635 -1.4111  0.8862  1.7336
 3405TIP3   OH231849   0.464   0.173   2.535  0.2588 -0.3277  0.1096
 3405TIP3    H131850   0.555   0.200   2.519 -0.0062  1.4103  1.2813
 3405TIP3    H231851   0.437   0.225   2.610 -2.4077  0.8274 -1.5102
 3406TIP3   OH231852   5.246   4.571   8.918  0.3572  0.3218 -0.0883
 3406TIP3    H131853   5.333   4.555   8.882  1.1356 -1.7144  2.4005
 3406TIP3    H231854   5.192   4.502   8.881  0.3616  0.2243  0.0843
 3407TIP3   OH231855   3.721   5.207   1.330  0.2014  0.1281  0.0821
 3407TIP3    H131856   3.774   5.182   1.406 -0.5730 -1.0067  0.2690
 3407TIP3    H231857   3.717   5.302   1.333  0.8322  0.1302  1.0152
 3408TIP3   OH231858   4.984   5.559   2.958 -0.2588  0.2436  0.1936
 3408TIP3    H131859   4.913   5.495   2.970  0.2487 -0.2358  0.7009
 3408TIP3    H231860   5.064   5.506   2.957  0.0754  0.7507 -0.7024
 3409TIP3   OH231861   4.193   4.102   1.519  0.3696 -0.5572 -0.0382
 3409TIP3    H131862   4.139   4.172   1.554  0.2486 -0.8774  0.4243
 3409TIP3    H231863   4.250   4.076   1.591 -0.4602 -1.7872  0.2036
 3410TIP3   OH231864   1.155   6.277   8.915 -0.1967  0.3565  0.4973
 3410TIP3    H131865   1.068   6.309   8.893  0.6299  2.2801 -0.2512
 3410TIP3    H231866   1.169   6.305   9.005 -0.2590  0.2766  0.5316
 3411TIP3   OH231867   3.948   5.507   7.670  0.0517 -0.1697  0.4435
 3411TIP3    H131868   3.876   5.545   7.620 -0.2513  0.9715  1.6800
 3411TIP3    H231869   3.941   5.548   7.756  1.8157 -0.5132  0.7790
 3412TIP3   OH231870   5.902   4.526   1.645 -0.2323 -0.2899  0.0074
 3412TIP3    H131871   5.880   4.471   1.570  0.0458  0.0189 -0.3055
 3412TIP3    H231872   5.822   4.576   1.661 -0.7652 -1.3716  0.8222
 3413TIP3   OH231873   4.315   4.135   2.272 -0.8271  0.4079 -0.0432
 3413TIP3    H131874   4.247   4.073   2.299  0.9246 -0.7484  1.9948
 3413TIP3    H231875   4.350   4.170   2.354  1.3338  0.6263 -0.9906
 3414TIP3   OH231876   0.609   5.216   8.816 -0.0303 -0.5997 -0.1647
 3414TIP3    H131877   0.680   5.194   8.756 -0.7698 -0.4271 -1.1386
 3414TIP3    H231878   0.545   5.145   8.804 -0.2101 -0.5345  0.3838
 3415TIP3   OH231879   2.724   1.605   1.347 -0.0225 -0.5327 -0.6722
 3415TIP3    H131880   2.647   1.593   1.291  0.3812 -1.2197 -1.0894
 3415TIP3    H231881   2.798   1.596   1.288  0.4035  1.4092 -0.5264
 3416TIP3   OH231882   5.888   2.430   7.835  0.2041 -0.2330 -0.9556
 3416TIP3    H131883   5.930   2.406   7.917 -1.1167  1.2565  0.2037
 3416TIP3    H231884   5.838   2.353   7.809  0.9585 -0.8517 -0.5991
 3417TIP3   OH231885   3.881   4.346   0.512 -0.0891  0.6034 -0.3231
 3417TIP3    H131886   3.795   4.388   0.512 -1.0076 -1.1885 -1.4753
 3417TIP3    H231887   3.898   4.327   0.420  1.5195  0.8449 -0.1001
 3418TIP3   OH231888   1.917   4.873   0.493 -0.4915  0.0952  0.1129
 3418TIP3    H131889   1.883   4.845   0.578 -0.9034  0.5229  0.0908
 3418TIP3    H231890   1.847   4.924   0.454  0.1157  0.8657 -0.0006
 3419TIP3   OH231891   5.743   6.559   9.008  0.1406  0.3535 -0.0113
 3419TIP3    H131892   5.736   6.626   8.940 -1.2208  1.2684  0.9808
 3419TIP3    H231893   5.693   6.485   8.975  1.0276  0.0730 -0.7821
 3420TIP3   OH231894   6.175   2.381   7.524 -0.3137 -0.0337 -0.3683
 3420TIP3    H131895   6.212   2.391   7.436  0.1700 -0.1883 -0.1867
 3420TIP3    H231896   6.213   2.299   7.556  1.1635  1.0269  0.7691
 3421TIP3   OH231897   3.034   1.456   8.145 -0.1198  0.5182 -0.3616
 3421TIP3    H131898   3.116   1.419   8.111 -1.1941 -0.8063 -1.6561
 3421TIP3    H231899   3.032   1.545   8.109  0.5143  0.3962 -0.7279
 3422TIP3   OH231900   4.306   3.934   7.855  0.2573 -0.5556 -0.3134
 3422TIP3    H131901   4.226   3.906   7.809 -0.5270 -2.3073  1.9224
 3422TIP3    H231902   4.371   3.945   7.786 -1.3480 -1.1844 -2.0144
 3423TIP3   OH231903   6.595   3.055   7.934  0.8810  0.3078  0.1750
 3423TIP3    H131904   6.634   3.112   7.867  0.1377  0.5077 -0.0968
 3423TIP3    H231905   6.507   3.037   7.902  1.0305 -0.8249  0.3695
 3424TIP3   OH231906   1.949   1.027   1.251  0.0345 -0.2136 -0.4989
 3424TIP3    H131907   1.986   0.942   1.273  0.0945 -0.4498 -1.4600
 3424TIP3    H231908   1.968   1.083   1.327  0.2174 -0.9800  0.0283
 3425TIP3   OH231909   0.067   1.107   0.670  0.8567 -0.0393  0.0014
 3425TIP3    H131910   0.087   1.177   0.608 -1.8474 -0.0610 -1.0296
 3425TIP3    H231911   0.104   1.137   0.753  2.7577  0.9591 -1.1521
 3426TIP3   OH231912   3.361   0.030   2.035  0.2199  0.4802  0.5029
 3426TIP3    H131913   3.434   0.015   1.976 -1.6748 -0.8502 -1.6740
 3426TIP3    H231914   3.366  -0.041   2.099  0.4686  0.0105 -0.0339
 3427TIP3   OH231915   6.138   3.467   8.302  0.2144  0.0849  0.1541
 3427TIP3    H131916   6.168   3.531   8.237 -1.4668  0.9127  0.1513
 3427TIP3    H231917   6.151   3.510   8.386 -0.1754  0.1176  0.1995
 3428TIP3   OH231918   1.454   0.276   7.679  0.3450 -0.7619 -0.0372
 3428TIP3    H131919   1.455   0.184   7.654 -1.5804 -0.4083 -1.7172
 3428TIP3    H231920   1.424   0.276   7.770  1.2872 -1.8053  0.2938
 3429TIP3   OH231921   3.974   1.496   3.221  0.3731  0.1667 -0.4772
 3429TIP3    H131922   3.886   1.460   3.207  0.4623 -1.4299  2.3697
 3429TIP3    H231923   3.980   1.510   3.315  2.4540  2.3449 -0.8458
 3430TIP3   OH231924   3.739   3.375   0.665  0.4688 -0.2886 -0.1546
 3430TIP3    H131925   3.724   3.306   0.729 -2.2932 -0.1611 -0.5621
 3430TIP3    H231926   3.728   3.332   0.580  0.6543  0.2595 -0.4619
 3431TIP3   OH231927   5.182   2.493   7.844 -0.4817 -0.0292  0.4812
 3431TIP3    H131928   5.275   2.475   7.850 -0.1882  0.8498 -0.9564
 3431TIP3    H231929   5.143   2.409   7.817 -0.1143 -0.4046  1.1105
 3432TIP3   OH231930   2.343   3.900   8.623 -0.2357 -0.2030  0.4031
 3432TIP3    H131931   2.341   3.806   8.603 -0.9436 -0.3238  1.0020
 3432TIP3    H231932   2.373   3.904   8.714  0.0537  0.1685  0.2916
 3433TIP3   OH231933   4.536   1.232   1.843 -0.0479  0.5476  0.2440
 3433TIP3    H131934   4.472   1.272   1.784 -0.0753  0.7628  0.4171
 3433TIP3    H231935   4.620   1.268   1.816 -0.1261  1.0823  0.6953
 3434TIP3   OH231936   5.161   1.441   1.251 -0.0019  0.1399 -0.6554
 3434TIP3    H131937   5.112   1.412   1.173  0.4495  0.7034 -1.1570
 3434TIP3    H231938   5.152   1.536   1.250  1.1459  0.2569 -0.7821
 3435TIP3   OH231939   1.971   2.950   0.388 -0.1831  0.2617  0.5710
 3435TIP3    H131940   2.022   2.877   0.424 -1.8168 -0.5855  1.2479
 3435TIP3    H231941   1.959   2.928   0.296  0.6569  0.4840  0.3935
 3436TIP3   OH231942   3.099   2.268   0.626  0.1564 -0.6138 -0.6431
 3436TIP3    H131943   3.005   2.260   0.611  0.1774 -0.5802 -0.7871
 3436TIP3    H231944   3.117   2.362   0.619 -0.4595 -0.0511  3.1380
 3437TIP3   OH231945   1.066   2.146   1.520 -0.1242 -0.1171  0.1168
 3437TIP3    H131946   1.039   2.105   1.602 -1.0189 -0.0826 -0.1495
 3437TIP3    H231947   1.136   2.207   1.546 -0.3585 -0.1430  0.8442
 3438TIP3   OH231948   3.243   0.987   7.988 -0.5324  0.1080 -0.7469
 3438TIP3    H131949   3.235   0.921   8.057 -2.7255 -1.4784 -2.3840
 3438TIP3    H231950   3.168   1.044   8.000 -1.3483 -0.6090 -2.1794
 3439TIP3   OH231951   2.508   4.836   8.154 -0.0304 -0.2397 -0.6529
 3439TIP3    H131952   2.416   4.848   8.133  0.2432 -1.0619 -2.6191
 3439TIP3    H231953   2.509   4.772   8.225 -0.9690  0.2550 -0.1776
 3440TIP3   OH231954   0.457   0.867   1.342  0.2851  0.1127 -0.0620
 3440TIP3    H131955   0.437   0.809   1.269  0.3061  1.3034 -1.0455
 3440TIP3    H231956   0.547   0.845   1.366  0.8542  0.8063 -1.4707
 3441TIP3   OH231957   5.469   0.277   0.107 -0.4679 -0.0069  0.1026
 3441TIP3    H131958   5.500   0.368   0.107 -0.7061  0.0733 -0.0914
 3441TIP3    H231959   5.403   0.274   0.038 -1.0052 -0.1454  0.6197
 3442TIP3   OH231960   1.823   2.655   1.913 -0.3740  0.2514  0.1348
 3442TIP3    H131961   1.758   2.696   1.854  2.3620  2.3050 -1.7018
 3442TIP3    H231962   1.827   2.564   1.884 -1.7360  0.3076 -0.3223
 3443TIP3   OH231963   3.603   4.384   1.225 -0.4860 -0.2990 -0.3344
 3443TIP3    H131964   3.614   4.380   1.320 -2.1817 -0.7236 -0.1140
 3443TIP3    H231965   3.683   4.425   1.193 -0.3928  0.9933  1.3895
 3444TIP3   OH231966   1.743   4.889   2.714  0.2524  0.6981 -0.5959
 3444TIP3    H131967   1.658   4.905   2.756  0.1724 -1.1844  0.0396
 3444TIP3    H231968   1.807   4.923   2.776  0.0302  0.2687 -0.1208
 3445TIP3   OH231969   4.081   0.296   0.348  0.3538 -0.2926 -0.5090
 3445TIP3    H131970   4.093   0.383   0.387 -0.9721 -0.9312  1.4503
 3445TIP3    H231971   4.018   0.253   0.404  1.4606 -2.7856 -1.0598
 3446TIP3   OH231972   2.346   5.474   8.619  0.2647  0.0518  0.2670
 3446TIP3    H131973   2.271   5.474   8.679  0.1190 -0.3345  0.0855
 3446TIP3    H231974   2.403   5.404   8.651 -0.2010 -0.7070 -0.5210
 3447TIP3   OH231975   1.905   2.635   2.220 -0.3159  0.0670 -0.2330
 3447TIP3    H131976   1.868   2.591   2.297 -0.1559  0.8874  0.3283
 3447TIP3    H231977   1.829   2.657   2.167 -0.4747  0.0284 -0.0247
 3448TIP3   OH231978   4.198   3.868   0.211  0.5348 -0.2844 -0.1171
 3448TIP3    H131979   4.250   3.885   0.132 -1.9385  3.6525 -1.2228
 3448TIP3    H231980   4.130   3.807   0.182 -0.6225  1.4625 -1.3462
 3449TIP3   OH231981   1.799   3.612   2.188  0.1122 -0.0679 -0.2090
 3449TIP3    H131982   1.714   3.651   2.170 -0.6222  0.1259  3.1744
 3449TIP3    H231983   1.786   3.518   2.177 -1.4741 -0.3536  3.0544
 3450TIP3   OH231984   1.947   0.636   2.321 -0.0671  0.4014  0.2628
 3450TIP3    H131985   2.027   0.584   2.318 -0.8845 -0.8772 -0.0176
 3450TIP3    H231986   1.972   0.721   2.284  0.8171 -0.4406 -1.1639
 3451TIP3   OH231987   0.170   3.563   7.959 -0.4458 -0.1448  0.5244
 3451TIP3    H131988   0.099   3.604   7.911 -0.2602 -1.9930 -1.4663
 3451TIP3    H231989   0.205   3.633   8.014 -1.6308  1.6924 -0.9292
 3452TIP3   OH231990   2.171   6.685   7.323  0.3238 -0.1080 -0.3828
 3452TIP3    H131991   2.094   6.714   7.274 -0.3141  1.0335  1.2193
 3452TIP3    H231992   2.174   6.590   7.309 -1.5396 -0.2200 -0.2600
 3453TIP3   OH231993   5.001   5.602   1.745  0.2036 -0.0389  0.7646
 3453TIP3    H131994   4.916   5.639   1.769  0.6260  1.0287  0.6732
 3453TIP3    H231995   5.007   5.521   1.795 -0.4298  0.3962  1.5702
 3454TIP3   OH231996   0.592   0.730   7.838 -0.9943  0.2568 -0.8422
 3454TIP3    H131997   0.516   0.786   7.853 -0.9353 -0.2235  1.7034
 3454TIP3    H231998   0.556   0.649   7.801 -1.2773  1.2003 -2.7809
 3455TIP3   OH231999   5.735   2.678   2.200  0.0075 -0.1705 -0.1283
 3455TIP3    H132000   5.754   2.743   2.132 -2.9137 -1.5592 -2.5467
 3455TIP3    H232001   5.667   2.719   2.253 -1.0832 -0.8104 -1.0067
 3456TIP3   OH232002   2.789   6.485   0.156  0.2758 -0.3476  0.4023
 3456TIP3    H132003   2.879   6.502   0.182  0.5040 -0.5137 -0.2738
 3456TIP3    H232004   2.787   6.500   0.062 -0.4247 -0.2629  0.4203
 3457TIP3   OH232005   5.498   3.290   7.357 -0.2861 -0.0818 -0.4280
 3457TIP3    H132006   5.452   3.278   7.273 -1.2882 -0.9327  0.2240
 3457TIP3    H232007   5.443   3.351   7.405  0.3577  0.5056 -0.4156
 3458TIP3   OH232008   6.098   0.753   0.969  0.3064  0.6846  0.8522
 3458TIP3    H132009   6.073   0.667   1.004  2.3891  0.6647  2.4179
 3458TIP3    H232010   6.014   0.798   0.956 -0.7379 -0.8366  1.9498
 3459TIP3   OH232011   5.239   4.578   8.064 -0.1063  0.4529 -0.3002
 3459TIP3    H132012   5.329   4.602   8.084 -0.3614 -0.1540  1.7796
 3459TIP3    H232013   5.194   4.662   8.053  0.9692  0.7670 -2.9185
 3460TIP3   OH232014   3.215   4.897   1.215  0.7347 -0.1779  0.4200
 3460TIP3    H132015   3.250   4.924   1.300  0.4021  0.6346  0.3038
 3460TIP3    H232016   3.263   4.817   1.194  1.8832  0.4304  0.6702
 3461TIP3   OH232017   5.596   1.263   8.081 -0.1817  0.1254  0.0379
 3461TIP3    H132018   5.577   1.329   8.014  0.5923 -0.0989 -0.4199
 3461TIP3    H232019   5.528   1.276   8.148  0.5910  2.1430  0.5147
 3462TIP3   OH232020   0.521   0.479   7.671  0.6723  0.4173 -0.1980
 3462TIP3    H132021   0.526   0.566   7.631 -1.4679 -0.0149 -1.5219
 3462TIP3    H232022   0.510   0.419   7.597 -1.0670 -0.6394  0.8520
 3463TIP3   OH232023   0.689   1.597   2.981 -0.3608 -0.5488 -0.0522
 3463TIP3    H132024   0.659   1.593   3.072 -1.5524  2.0149 -0.2327
 3463TIP3    H232025   0.780   1.627   2.988 -1.4059  3.0000  0.3648
 3464TIP3   OH232026   0.934   4.309   7.613 -0.1343  0.2221 -0.3844
 3464TIP3    H132027   0.992   4.249   7.567  0.6914  0.6316  0.0767
 3464TIP3    H232028   0.951   4.394   7.572  2.5083  1.1193  2.1822
 3465TIP3   OH232029   0.132   1.406   2.074 -0.0371  0.3265 -0.0595
 3465TIP3    H132030   0.184   1.375   2.148  0.5564 -1.3264 -1.1014
 3465TIP3    H232031   0.097   1.326   2.035 -2.2700  1.3099 -0.2073
 3466TIP3   OH232032   2.411   2.547   0.416  0.7382  0.0086  0.0237
 3466TIP3    H132033   2.318   2.553   0.399  0.6545 -0.7197  0.1742
 3466TIP3    H232034   2.418   2.487   0.491  1.2891  0.5076  0.3807
 3467TIP3   OH232035   1.826   3.895   2.802  0.2556  0.4252  0.0914
 3467TIP3    H132036   1.888   3.915   2.732 -0.1821 -0.0597 -0.4445
 3467TIP3    H232037   1.881   3.875   2.878  0.7299  1.5278  0.0630
 3468TIP3   OH232038   5.650   3.176   0.600 -0.0129  0.5959 -0.1237
 3468TIP3    H132039   5.704   3.239   0.648 -1.4278  2.4320 -0.8196
 3468TIP3    H232040   5.560   3.204   0.617 -0.6164  0.0471 -2.1055
 3469TIP3   OH232041   0.779   3.477   8.279  0.4407  0.1159  0.0618
 3469TIP3    H132042   0.863   3.505   8.316 -0.0405  1.4584  0.1961
 3469TIP3    H232043   0.787   3.382   8.269  2.0389  0.2407 -0.0866
 3470TIP3   OH232044   1.253   4.461   7.426  0.6135 -0.3719  0.3408
 3470TIP3    H132045   1.343   4.435   7.404  1.9349  2.3242  2.0127
 3470TIP3    H232046   1.215   4.488   7.343  2.0191  0.1871 -0.1586
 3471TIP3   OH232047   3.045   1.613   7.793  0.2814 -0.0697  0.5649
 3471TIP3    H132048   3.016   1.603   7.884  0.7771  0.0391  0.7389
 3471TIP3    H232049   3.038   1.707   7.776  1.8869  0.1619  1.0791
 3472TIP3   OH232050   6.223   2.080   7.767  0.1694  0.4459 -0.0294
 3472TIP3    H132051   6.288   2.117   7.707 -0.3944  0.3627 -0.7102
 3472TIP3    H232052   6.241   2.122   7.851  1.8032 -0.3904  0.0771
 3473TIP3   OH232053   4.758   5.870   0.689 -0.1893 -0.1986 -0.0618
 3473TIP3    H132054   4.769   5.791   0.742 -2.4547 -0.2969  0.3967
 3473TIP3    H232055   4.790   5.846   0.602  1.2979 -0.8415  0.6390
 3474TIP3   OH232056   0.340   6.023   0.206 -0.0240  0.3953 -0.6136
 3474TIP3    H132057   0.307   5.958   0.269 -1.0754  0.6038 -0.9194
 3474TIP3    H232058   0.345   5.975   0.123  0.4358  0.3751 -0.5766
 3475TIP3   OH232059   5.068   2.988   1.675 -0.2242 -0.4115 -0.0223
 3475TIP3    H132060   5.001   3.012   1.610 -0.3672  0.8013  0.5353
 3475TIP3    H232061   5.021   2.989   1.759  0.8402  2.4775  0.6636
 3476TIP3   OH232062   2.455   4.324   1.440  0.2266  0.0470 -0.3135
 3476TIP3    H132063   2.391   4.380   1.483  1.9022  1.9971 -0.2081
 3476TIP3    H232064   2.431   4.325   1.348 -0.6684 -0.3898 -0.1002
 3477TIP3   OH232065   1.161   2.325   1.857  0.6285 -0.5162  0.0879
 3477TIP3    H132066   1.133   2.233   1.856 -2.4369  0.2826  1.1513
 3477TIP3    H232067   1.145   2.356   1.768 -0.5035 -0.4867  0.2857
 3478TIP3   OH232068   0.021   6.002   8.659 -0.1457  0.0954  0.2943
 3478TIP3    H132069   0.097   6.030   8.710 -0.2176 -0.8777  0.9464
 3478TIP3    H232070  -0.042   6.073   8.670 -0.2755 -0.2257  1.8218
 3479TIP3   OH232071   2.942   2.878   2.462  0.2504 -0.4477 -0.2478
 3479TIP3    H132072   2.963   2.808   2.400 -1.5752 -1.4559  0.2146
 3479TIP3    H232073   2.970   2.845   2.547 -0.7495 -0.6928 -0.0061
 3480TIP3   OH232074   1.267   6.242   1.148 -0.3428  0.4827  0.1657
 3480TIP3    H132075   1.340   6.186   1.173 -1.2654 -0.9604 -0.2652
 3480TIP3    H232076   1.265   6.311   1.214  1.2288  0.3880  0.3335
 3481TIP3   OH232077   1.884   2.346   1.564  0.1944 -0.0200 -0.5008
 3481TIP3    H132078   1.941   2.294   1.508  0.7363 -0.0751  0.0845
 3481TIP3    H232079   1.796   2.312   1.548  0.3295  0.0471 -1.3892
 3482TIP3   OH232080   5.195   5.169   2.233 -0.6313 -0.0823 -0.3120
 3482TIP3    H132081   5.129   5.149   2.167  0.7611 -1.2135 -1.4415
 3482TIP3    H232082   5.194   5.094   2.292 -1.1896  0.4703  0.3907
 3483TIP3   OH232083   5.210   3.921   0.930 -0.3586  0.0190 -0.1551
 3483TIP3    H132084   5.248   3.932   0.842 -0.2463  0.2193 -0.0821
 3483TIP3    H232085   5.154   3.998   0.941  1.9426  1.6305  1.1406
 3484TIP3   OH232086   2.085   4.047   0.221  0.1191  0.4855  0.0647
 3484TIP3    H132087   2.146   4.097   0.276 -0.0704  0.7466  0.0422
 3484TIP3    H232088   2.120   3.958   0.220  1.8078  1.1135 -1.8354
 3485TIP3   OH232089   6.273   0.768   0.722 -0.4487 -0.3135 -0.1151
 3485TIP3    H132090   6.215   0.839   0.753 -1.9202 -1.2843 -0.5255
 3485TIP3    H232091   6.239   0.690   0.766 -0.1899 -1.1006 -1.2981
 3486TIP3   OH232092   2.954   1.700   1.838  0.2859 -0.4543 -0.5302
 3486TIP3    H132093   2.940   1.795   1.844  0.3586 -0.4695 -0.0893
 3486TIP3    H232094   2.873   1.666   1.800 -0.8658 -0.5139  1.7980
 3487TIP3   OH232095   3.787   5.057   9.208 -1.1414  0.2698 -0.1896
 3487TIP3    H132096   3.711   5.039   9.263 -0.3258  0.3521  1.0138
 3487TIP3    H232097   3.775   5.147   9.179 -2.8303 -0.5447 -2.2758
 3488TIP3   OH232098   3.935   4.547   8.455  0.1245  0.0095  0.1545
 3488TIP3    H132099   4.017   4.592   8.438  0.3888 -0.5037  0.0408
 3488TIP3    H232100   3.893   4.598   8.524  0.2248  0.6558 -0.2602
 3489TIP3   OH232101   4.308   2.024   8.449  0.0067  0.1993  0.7893
 3489TIP3    H132102   4.266   1.939   8.444  0.9656 -0.2236 -1.5229
 3489TIP3    H232103   4.393   2.007   8.489  0.2997  0.0069  0.0965
 3490TIP3   OH232104   0.396   0.999   0.662  0.5759  0.3444 -0.0724
 3490TIP3    H132105   0.359   1.051   0.591  1.6279 -0.6671 -1.4109
 3490TIP3    H232106   0.491   1.011   0.654  0.8987 -2.1685 -0.7901
 3491TIP3   OH232107   3.065   0.147   0.179 -0.1406 -0.2404  0.1385
 3491TIP3    H132108   3.139   0.202   0.153 -1.5264  2.5963  1.6689
 3491TIP3    H232109   2.990   0.183   0.131 -0.8227 -1.9859 -0.1623
 3492TIP3   OH232110   2.415   4.721   7.542  0.3334 -0.0291 -0.2039
 3492TIP3    H132111   2.388   4.701   7.452 -0.3963  0.0681 -0.0100
 3492TIP3    H232112   2.338   4.704   7.595  0.8763 -0.4657  0.4677
 3493TIP3   OH232113   1.094   0.951   0.146  0.5184  0.0569 -0.4504
 3493TIP3    H132114   1.032   1.007   0.193 -0.3829  0.2874 -1.8311
 3493TIP3    H232115   1.132   0.895   0.213 -1.1213 -0.0182  0.4589
 3494TIP3   OH232116   0.982   3.699   1.105  0.6020  0.2205 -0.6903
 3494TIP3    H132117   0.914   3.759   1.134 -1.0501 -2.2801  1.0719
 3494TIP3    H232118   0.958   3.615   1.144  2.6629 -1.6661 -3.1084
 3495TIP3   OH232119   2.642   2.394   2.374 -0.7713  0.1723  0.4055
 3495TIP3    H132120   2.563   2.369   2.325 -0.5099 -1.6258  0.8491
 3495TIP3    H232121   2.626   2.364   2.463  0.2204  0.2490  0.6230
 3496TIP3   OH232122   4.603   5.433   2.761 -0.5390  0.1071  0.3919
 3496TIP3    H132123   4.531   5.494   2.745 -3.2017 -2.1829  2.6561
 3496TIP3    H232124   4.587   5.361   2.700  1.4608  0.6644 -0.9079
 3497TIP3   OH232125   1.622   5.054   7.768  0.6771  0.0333  0.1918
 3497TIP3    H132126   1.630   5.126   7.705 -0.3378 -1.3599 -1.6616
 3497TIP3    H232127   1.533   5.064   7.803  0.5937 -0.1847  0.0505
 3498TIP3   OH232128   5.987   6.290   1.923 -0.1648  0.3454 -0.0258
 3498TIP3    H132129   6.008   6.301   2.016  2.3233  0.7321 -0.5609
 3498TIP3    H232130   6.072   6.278   1.881 -1.2785 -0.3955 -2.2041
 3499TIP3   OH232131   1.561   5.494   1.050 -0.2950  0.0189 -0.1855
 3499TIP3    H132132   1.550   5.407   1.088 -0.0339  0.1476  0.1905
 3499TIP3    H232133   1.655   5.501   1.034 -0.1201  0.7365  1.0196
 3500TIP3   OH232134   3.069   4.066   8.992 -0.3674 -0.1998  0.0134
 3500TIP3    H132135   3.033   4.139   9.044  0.6329 -0.2556  0.8239
 3500TIP3    H232136   3.128   4.108   8.930  0.0398 -0.2899  0.3331
 3501TIP3   OH232137   1.565   3.886   0.716 -0.3802 -0.2912 -0.1065
 3501TIP3    H132138   1.631   3.821   0.744  0.5729  0.4845 -0.4906
 3501TIP3    H232139   1.573   3.889   0.621 -0.7078  0.0986 -0.1243
 3502TIP3   OH232140   3.615   2.507   2.689  0.4213  0.7011 -0.7142
 3502TIP3    H132141   3.619   2.590   2.642 -0.6467  1.5624  0.6590
 3502TIP3    H232142   3.531   2.509   2.734  1.2872 -0.2067  1.0271
 3503TIP3   OH232143   4.995   1.973   0.101  0.1159 -0.0994 -0.0659
 3503TIP3    H132144   4.987   2.009   0.190  1.2585  2.3907 -0.8835
 3503TIP3    H232145   4.908   1.938   0.082 -0.8242  1.3637  1.2373
 3504TIP3   OH232146   2.596   0.827   8.392  0.1308 -0.0862  0.4857
 3504TIP3    H132147   2.627   0.916   8.376  0.6593 -0.5867 -1.7026
 3504TIP3    H232148   2.537   0.809   8.319  1.1463 -1.9924  0.0577
 3505TIP3   OH232149   5.136   1.417   8.656 -0.0679  0.0365  0.2977
 3505TIP3    H132150   5.186   1.359   8.597  0.1457  0.5840 -0.0765
 3505TIP3    H232151   5.046   1.412   8.623 -0.1077 -0.3153  0.4557
 3506TIP3   OH232152   1.632   0.261   1.791 -0.3722  0.0274 -0.4380
 3506TIP3    H132153   1.621   0.254   1.696 -1.6187 -0.6900 -0.2700
 3506TIP3    H232154   1.593   0.345   1.813 -3.0076 -1.1448 -0.2346
 3507TIP3   OH232155   3.240   2.765   9.015 -0.0887  0.0932  0.0562
 3507TIP3    H132156   3.292   2.751   9.094 -0.5544  0.0387  0.3606
 3507TIP3    H232157   3.161   2.712   9.029 -0.5036  0.6524 -0.1217
 3508TIP3   OH232158   3.237   1.302   0.707  0.1094 -1.1498 -0.2566
 3508TIP3    H132159   3.298   1.374   0.694 -0.8453 -0.3865 -0.5692
 3508TIP3    H232160   3.216   1.272   0.619 -1.8682  0.2289 -0.3083
 3509TIP3   OH232161   2.665   3.514   7.805 -0.2941 -0.4011  0.0886
 3509TIP3    H132162   2.609   3.511   7.727 -0.3074 -1.2995  0.1270
 3509TIP3    H232163   2.717   3.594   7.794  0.4763 -1.0603 -1.3796
 3510TIP3   OH232164   5.182   3.867   0.318 -0.3751  0.8308 -0.1279
 3510TIP3    H132165   5.144   3.952   0.341  2.0772  2.2009 -0.7636
 3510TIP3    H232166   5.273   3.886   0.298  0.4323 -2.0779  0.2670
 3511TIP3   OH232167   2.019   4.862   8.283 -0.0945 -0.1328 -0.4155
 3511TIP3    H132168   2.039   4.921   8.356  0.0382 -0.5928 -0.0773
 3511TIP3    H232169   1.934   4.825   8.304  0.6928 -1.5753  0.3837
 3512TIP3   OH232170   0.683   2.666   2.525 -0.1297 -0.2361 -0.0107
 3512TIP3    H132171   0.606   2.644   2.577 -0.1253 -0.8774 -0.2681
 3512TIP3    H232172   0.731   2.729   2.579  0.1730 -1.3161  1.0513
 3513TIP3   OH232173   5.586   0.292   0.971  0.7057  0.6165 -0.6501
 3513TIP3    H132174   5.606   0.206   1.008  0.3104  0.7417 -0.1315
 3513TIP3    H232175   5.664   0.315   0.920  0.1564 -0.8176 -2.2576
 3514TIP3   OH232176   0.532   1.792   1.516 -0.0667 -0.0672  0.0020
 3514TIP3    H132177   0.455   1.735   1.518 -0.2894  0.2462  1.2155
 3514TIP3    H232178   0.504   1.868   1.466 -0.1813 -0.4342 -0.5052
 3515TIP3   OH232179   0.848   0.853   1.196 -0.0887 -0.4660  0.1484
 3515TIP3    H132180   0.812   0.941   1.187 -0.5089 -0.7606 -1.3893
 3515TIP3    H232181   0.916   0.848   1.128 -2.2900 -2.3446 -2.1482
 3516TIP3   OH232182   1.850   1.739   8.167  0.1180 -0.7673 -0.0889
 3516TIP3    H132183   1.923   1.802   8.168  1.1992 -1.9794  0.1283
 3516TIP3    H232184   1.881   1.666   8.220 -1.4939 -1.0841  0.4474
 3517TIP3   OH232185   2.006   0.742   9.052  0.0196  0.2086 -0.1181
 3517TIP3    H132186   1.954   0.756   8.973  0.0654 -1.4223 -0.4746
 3517TIP3    H232187   2.051   0.825   9.066 -2.7532  1.7570  0.3086
 3518TIP3   OH232188   4.785   3.563   7.168 -0.1094 -0.2677  0.2221
 3518TIP3    H132189   4.723   3.607   7.226 -0.3730  0.7837 -0.8039
 3518TIP3    H232190   4.734   3.493   7.127 -0.5602  0.3789 -0.3631
 3519TIP3   OH232191   0.774   6.564   1.013  0.5429 -0.5681 -0.5935
 3519TIP3    H132192   0.715   6.522   0.950 -0.8100  1.6280 -0.9085
 3519TIP3    H232193   0.791   6.651   0.976  0.7860  0.2992  1.3919
 3520TIP3   OH232194   2.057   3.729   2.099 -0.0044  0.1035  0.7101
 3520TIP3    H132195   1.983   3.672   2.122 -0.3363 -0.4021 -1.4199
 3520TIP3    H232196   2.017   3.809   2.065  0.4629  0.7082  1.5385
 3521TIP3   OH232197   3.744   2.615   1.123  0.6550 -0.5771 -0.2730
 3521TIP3    H132198   3.836   2.642   1.128 -0.0690  2.1095  0.2009
 3521TIP3    H232199   3.734   2.578   1.036  1.9262  0.2525 -0.8024
 3522TIP3   OH232200   5.551   0.616   0.111  0.5326  0.0769 -0.1834
 3522TIP3    H132201   5.490   0.672   0.063 -0.2600 -0.2797  0.3844
 3522TIP3    H232202   5.636   0.659   0.101  0.1767  0.6410 -0.8988
 3523TIP3   OH232203   1.172   1.254   0.524  0.3322 -0.7873 -0.0447
 3523TIP3    H132204   1.201   1.236   0.613  0.8652 -0.2314 -0.1028
 3523TIP3    H232205   1.230   1.323   0.493 -0.2201 -0.5681 -0.6222
 3524TIP3   OH232206   5.504   4.554   8.731  0.5883  0.0494 -0.0215
 3524TIP3    H132207   5.549   4.513   8.657 -0.8130  0.0151 -0.8967
 3524TIP3    H232208   5.567   4.618   8.765  1.1166  0.3740 -1.5173
 3525TIP3   OH232209   2.596   0.544   0.205  0.2327 -0.2889 -0.1277
 3525TIP3    H132210   2.574   0.592   0.125 -0.9259 -0.0902  0.2880
 3525TIP3    H232211   2.521   0.558   0.263  1.8914  1.2155  1.7902
 3526TIP3   OH232212   6.155   4.781   1.567 -0.1014 -0.1416 -0.3499
 3526TIP3    H132213   6.137   4.711   1.504  2.3084  0.2565 -1.5936
 3526TIP3    H232214   6.234   4.753   1.613 -1.2679  0.0378  1.8876
 3527TIP3   OH232215   4.715   0.175   2.196 -0.1223  0.3128 -0.3623
 3527TIP3    H132216   4.673   0.182   2.110  0.0765 -0.8816 -0.5786
 3527TIP3    H232217   4.750   0.086   2.198 -2.6251 -0.7882  2.0436
 3528TIP3   OH232218   0.508   3.357   8.598  0.0944 -0.0289  0.2640
 3528TIP3    H132219   0.557   3.439   8.593 -0.0677  0.0797  0.4640
 3528TIP3    H232220   0.524   3.314   8.514  0.4762  0.0400  0.3011
 3529TIP3   OH232221   0.230   3.432   7.710  0.2948 -0.0416  0.0868
 3529TIP3    H132222   0.228   3.527   7.720  0.3815 -0.0320  0.0099
 3529TIP3    H232223   0.323   3.410   7.702  0.2032  0.0815 -1.9414
 3530TIP3   OH232224   6.386   5.184   0.997  0.2259 -0.0433  0.6134
 3530TIP3    H132225   6.420   5.273   0.986  0.2406 -0.3333 -2.6470
 3530TIP3    H232226   6.298   5.196   1.032 -0.7910  1.5224 -2.1654
 3531TIP3   OH232227   2.451   1.097   1.535  0.0027  0.2519 -0.0975
 3531TIP3    H132228   2.480   1.007   1.525 -0.8628  0.0314 -0.6768
 3531TIP3    H232229   2.496   1.144   1.465  1.1036  0.4524  0.7052
 3532TIP3   OH232230   3.400   2.752   0.802  0.2366  0.1277 -0.4336
 3532TIP3    H132231   3.389   2.724   0.712 -0.4430 -0.9492 -0.0274
 3532TIP3    H232232   3.312   2.751   0.839  0.6029 -0.2032  0.4616
 3533TIP3   OH232233   6.316   3.577   2.067 -0.2643 -1.1480 -0.3348
 3533TIP3    H132234   6.256   3.503   2.073  1.1786 -2.5513 -1.9449
 3533TIP3    H232235   6.353   3.587   2.155 -1.9572 -0.9912  0.3849
 3534TIP3   OH232236   6.528   5.222   7.875  0.5024 -0.6939  0.4101
 3534TIP3    H132237   6.448   5.173   7.890 -0.1549  0.1833 -0.1128
 3534TIP3    H232238   6.527   5.290   7.943  0.1093  0.1456 -0.4235
 3535TIP3   OH232239   5.137   6.067   2.218  0.3144 -0.5386 -0.1151
 3535TIP3    H132240   5.216   6.040   2.171  0.7650  1.2056 -0.3956
 3535TIP3    H232241   5.066   6.057   2.155  0.4235 -1.2675 -0.1346
 3536TIP3   OH232242   4.528   0.906   0.623 -0.2114  0.3187  0.1936
 3536TIP3    H132243   4.611   0.859   0.624 -0.2296  0.1916 -1.5228
 3536TIP3    H232244   4.546   0.986   0.574 -1.0357  0.4010  0.0065
 3537TIP3   OH232245   3.148   5.643   9.145  0.0136  0.2891 -0.1583
 3537TIP3    H132246   3.080   5.579   9.163 -0.0178  0.8819  2.0737
 3537TIP3    H232247   3.161   5.689   9.228  1.2550  1.9983 -1.2255
 3538TIP3   OH232248   0.558   6.202   0.245  0.0497  0.1926 -0.3593
 3538TIP3    H132249   0.509   6.126   0.277 -0.2874  0.6006  0.1195
 3538TIP3    H232250   0.590   6.244   0.324  1.3398 -0.1638 -0.6743
 3539TIP3   OH232251   2.251   1.877   2.793  1.1997  0.3129 -0.0417
 3539TIP3    H132252   2.291   1.795   2.820  0.1240 -0.0687  0.4015
 3539TIP3    H232253   2.247   1.930   2.873 -0.8769 -0.3636  0.3440
 3540TIP3   OH232254   4.720   1.731   2.295  0.2613 -0.5914  0.2811
 3540TIP3    H132255   4.626   1.721   2.311  0.4678 -0.9111  1.4127
 3540TIP3    H232256   4.738   1.670   2.223 -0.4760 -0.1705 -0.2744
 3541TIP3   OH232257   4.772   6.684   2.886 -0.4321  0.1883 -0.1071
 3541TIP3    H132258   4.757   6.622   2.815 -0.4334 -1.1796  1.0465
 3541TIP3    H232259   4.858   6.722   2.867 -0.2155 -0.5211 -0.5768
 3542TIP3   OH232260   1.206   1.469   3.171  0.5439 -0.2820 -0.4013
 3542TIP3    H132261   1.298   1.448   3.186  0.1463 -2.0551 -0.1832
 3542TIP3    H232262   1.190   1.548   3.223  1.6274 -0.7040  0.6227
 3543TIP3   OH232263   3.129   2.219   1.770  0.5349  0.7796  0.8077
 3543TIP3    H132264   3.165   2.202   1.857  0.8447 -0.4595  0.4599
 3543TIP3    H232265   3.205   2.234   1.715  0.5040 -0.6633  0.3165
 3544TIP3   OH232266   3.554   4.891   1.536 -0.0983  0.0067 -0.7199
 3544TIP3    H132267   3.535   4.812   1.586  0.2302 -0.2090 -0.9295
 3544TIP3    H232268   3.602   4.947   1.597  0.0394 -0.1334 -0.6972
 3545TIP3   OH232269   0.949   0.219   1.295  0.1834  0.3619  0.1111
 3545TIP3    H132270   0.989   0.228   1.209  1.3656  1.2582  0.7211
 3545TIP3    H232271   0.940   0.124   1.307 -0.8649  0.2483 -1.3503
 3546TIP3   OH232272   1.995   3.254   0.354 -0.0165 -0.0243  0.2583
 3546TIP3    H132273   1.995   3.162   0.380 -0.0329  0.4712  2.1893
 3546TIP3    H232274   1.913   3.288   0.389  0.9924  1.2047  1.5429
 3547TIP3   OH232275   3.655   4.970   7.667  0.9074 -1.0321 -0.3058
 3547TIP3    H132276   3.726   4.956   7.729 -0.2831 -0.8524  1.1363
 3547TIP3    H232277   3.599   4.893   7.677 -1.5492  0.8649  2.0151
 3548TIP3   OH232278   3.396   5.871   9.140  0.0476 -0.1225 -0.0045
 3548TIP3    H132279   3.422   5.782   9.163 -1.2783 -0.4846  0.1964
 3548TIP3    H232280   3.329   5.860   9.072  0.0753  0.7374 -0.1914
 3549TIP3   OH232281   4.625   3.676   2.165  0.2260  0.2831 -0.2164
 3549TIP3    H132282   4.670   3.735   2.225 -0.8204  2.5075 -1.4636
 3549TIP3    H232283   4.694   3.622   2.128  1.5128  1.8137 -0.1747
 3550TIP3   OH232284   4.901   3.102   1.487  0.0095  0.1035  0.4470
 3550TIP3    H132285   4.812   3.079   1.515 -0.0463 -0.2206  0.0045
 3550TIP3    H232286   4.891   3.132   1.397  0.2871  0.5034  0.5480
 3551TIP3   OH232287   3.517   6.640   8.474 -0.0298  0.7352 -0.5187
 3551TIP3    H132288   3.464   6.680   8.543 -0.8105 -2.6313  1.0628
 3551TIP3    H232289   3.584   6.591   8.522 -0.2147 -1.1926 -2.1183
 3552TIP3   OH232290   0.168   6.627   6.998 -0.1432  0.0231  0.3705
 3552TIP3    H132291   0.086   6.597   6.961  0.2101  1.4392 -1.7284
 3552TIP3    H232292   0.149   6.715   7.031  0.4712  0.3022  0.0018
 3553TIP3   OH232293   5.151   6.429   0.252  0.5902 -0.0616  0.0944
 3553TIP3    H132294   5.144   6.372   0.175  1.7577 -0.4293  0.2377
 3553TIP3    H232295   5.230   6.480   0.236  0.5277  0.2616  0.7969
 3554TIP3   OH232296   0.930   3.622   1.584  0.1238  0.2913  0.1039
 3554TIP3    H132297   0.977   3.545   1.551 -1.7549 -0.5484 -0.7247
 3554TIP3    H232298   0.838   3.598   1.580 -0.5647  2.8149 -0.7122
 3555TIP3   OH232299   5.513   4.143   1.520 -0.1973 -0.1957  0.0410
 3555TIP3    H132300   5.438   4.089   1.547  0.7876 -0.6445  2.0642
 3555TIP3    H232301   5.527   4.202   1.594  2.1812 -0.9619  0.2767
 3556TIP3   OH232302   3.761   6.016   7.401 -0.3357 -0.3371  0.3649
 3556TIP3    H132303   3.761   5.928   7.363 -1.5157  0.3813 -1.4140
 3556TIP3    H232304   3.853   6.040   7.407 -0.0416 -1.3498  0.0570
 3557TIP3   OH232305   2.098   0.368   9.123  0.0240  0.5016  0.0664
 3557TIP3    H132306   2.155   0.292   9.134 -0.4671  0.0698 -0.2971
 3557TIP3    H232307   2.135   0.434   9.181  0.5170  0.0174  0.3175
 3558TIP3   OH232308   0.972   1.157   2.200 -0.2256  0.5319  0.7543
 3558TIP3    H132309   1.032   1.189   2.267  0.2841  3.1367 -0.8082
 3558TIP3    H232310   0.885   1.171   2.237  0.0459 -0.9831  2.0573
 3559TIP3   OH232311   1.400   3.486   2.310 -0.4140  0.0369 -0.3665
 3559TIP3    H132312   1.443   3.519   2.231  1.2778 -2.9911 -0.8815
 3559TIP3    H232313   1.471   3.480   2.374 -1.3439  0.4852  0.7195
 3560TIP3   OH232314   2.093   3.007   9.153 -0.3314 -0.2964  0.2099
 3560TIP3    H132315   2.115   3.045   9.068  0.3667 -0.3494  0.3647
 3560TIP3    H232316   2.176   3.000   9.199 -0.7205 -0.1014  0.9704
 3561TIP3   OH232317   2.795   0.606   2.034 -0.2873  0.2122 -0.0268
 3561TIP3    H132318   2.711   0.604   1.988  0.3252 -3.5640 -1.3405
 3561TIP3    H232319   2.775   0.644   2.119 -2.9023  1.0797 -0.9228
 3562TIP3   OH232320   6.503   2.657   0.251 -0.4154  0.1568  0.4339
 3562TIP3    H132321   6.463   2.604   0.182 -1.1917  1.7640 -0.4049
 3562TIP3    H232322   6.520   2.742   0.209 -0.9887  1.2160  2.2466
 3563TIP3   OH232323   6.336   0.717   8.942 -0.1902 -0.1331 -0.1486
 3563TIP3    H132324   6.326   0.800   8.989 -1.9470 -0.0379 -0.6215
 3563TIP3    H232325   6.421   0.684   8.970 -0.2356  0.9663  1.4203
 3564TIP3   OH232326   5.461   6.624   9.079  0.8349 -0.5227  0.1804
 3564TIP3    H132327   5.443   6.717   9.092 -0.5381 -0.9114  1.3295
 3564TIP3    H232328   5.555   6.620   9.059  0.5760  1.2436 -1.6904
 3565TIP3   OH232329   1.720   3.494   7.278  0.0438 -0.5601 -0.1712
 3565TIP3    H132330   1.730   3.586   7.254 -1.2430 -0.2793  0.2709
 3565TIP3    H232331   1.741   3.491   7.372 -1.4216 -0.4040  0.1862
 3566TIP3   OH232332   2.768   0.087   7.659  0.3468 -0.8412 -0.1913
 3566TIP3    H132333   2.745   0.109   7.749 -2.9893  3.9209 -1.8203
 3566TIP3    H232334   2.860   0.112   7.651  1.1446 -2.7013  2.0984
 3567TIP3   OH232335   0.194   2.386   1.820  0.4355  0.0145  0.6501
 3567TIP3    H132336   0.288   2.392   1.807  0.1745  2.3938 -0.5078
 3567TIP3    H232337   0.179   2.293   1.838  2.8614 -0.5793 -0.0097
 3568TIP3   OH232338   1.630   4.706   0.367  0.3571  0.1213 -0.1194
 3568TIP3    H132339   1.584   4.629   0.333  2.1740 -1.0939  0.0355
 3568TIP3    H232340   1.678   4.740   0.291  3.4471 -1.8738  0.7815
 3569TIP3   OH232341   0.989   0.022   8.238 -0.0681  0.2057 -0.0651
 3569TIP3    H132342   0.920   0.079   8.205 -1.3657 -0.4372  1.3907
 3569TIP3    H232343   1.069   0.072   8.228 -0.9730  1.6501 -0.2786
 3570TIP3   OH232344   0.971   2.849   7.881 -0.1214 -0.4024 -0.1068
 3570TIP3    H132345   0.960   2.849   7.786 -1.7545 -0.0351  0.0554
 3570TIP3    H232346   0.960   2.758   7.907 -0.6475 -0.3656 -0.1870
 3571TIP3   OH232347   3.733   2.853   8.788  0.1965 -0.6387 -0.3208
 3571TIP3    H132348   3.675   2.808   8.849  0.6842 -0.2714  0.4325
 3571TIP3    H232349   3.683   2.858   8.707 -0.0891 -2.0130 -0.2600
 3572TIP3   OH232350   1.653   1.353   1.055  0.2796 -0.1571 -0.1826
 3572TIP3    H132351   1.633   1.433   1.103 -1.0504 -0.9685  0.7048
 3572TIP3    H232352   1.653   1.284   1.122  0.9136 -0.9667 -0.9895
 3573TIP3   OH232353   0.742   5.809   2.530  0.4263  0.0590  0.2310
 3573TIP3    H132354   0.792   5.740   2.573 -0.2821 -0.1169  0.7905
 3573TIP3    H232355   0.650   5.788   2.549  0.1733  0.8336 -0.0777
 3574TIP3   OH232356   0.419   1.465   0.215 -0.4521 -0.1378 -0.2203
 3574TIP3    H132357   0.423   1.386   0.160  0.4147  0.9268 -1.7570
 3574TIP3    H232358   0.438   1.537   0.155  1.6633  1.0045  1.6784
 3575TIP3   OH232359   0.658   5.170   7.824 -0.0267  0.0688 -0.2665
 3575TIP3    H132360   0.595   5.168   7.751  0.3663 -0.2912 -0.6017
 3575TIP3    H232361   0.743   5.172   7.781  0.2176 -0.4858  0.1825
 3576TIP3   OH232362   1.846   6.487   0.600  0.0991 -0.0912  0.1787
 3576TIP3    H132363   1.895   6.478   0.518  0.2962 -0.5344  0.3372
 3576TIP3    H232364   1.769   6.538   0.577  0.5757  0.5173 -0.1024
 3577TIP3   OH232365   5.627   0.792   7.623  0.2932  0.4431  0.0470
 3577TIP3    H132366   5.556   0.729   7.640  0.7431 -0.0732  0.0463
 3577TIP3    H232367   5.591   0.876   7.650 -0.1511  0.1149  0.5104
 3578TIP3   OH232368   0.929   6.674   2.470  0.4025  0.8533  0.1985
 3578TIP3    H132369   0.917   6.748   2.411 -1.9344  2.1460  2.0991
 3578TIP3    H232370   0.843   6.661   2.510  0.7464 -2.8544  0.0793
 3579TIP3   OH232371   4.824   2.087   1.625 -0.3660 -0.4075  1.1248
 3579TIP3    H132372   4.914   2.054   1.618 -0.4248 -0.1619 -1.5352
 3579TIP3    H232373   4.822   2.132   1.710  2.6549  1.3983  0.3861
 3580TIP3   OH232374   1.739   5.684   7.440 -0.1856 -0.4003  0.0260
 3580TIP3    H132375   1.749   5.593   7.466 -0.5486 -0.2887  0.5710
 3580TIP3    H232376   1.741   5.682   7.344  2.0002 -0.7210  0.0245
 3581TIP3   OH232377   5.506   3.374   0.985  0.2845 -0.9099  0.2022
 3581TIP3    H132378   5.574   3.442   0.978  1.1171 -1.6945  0.4032
 3581TIP3    H232379   5.546   3.297   0.945 -1.0156 -1.0361 -0.9321
 3582TIP3   OH232380   3.049   1.950   0.590 -0.3398  0.1100  0.0488
 3582TIP3    H132381   3.110   2.006   0.639 -0.0833 -0.3604  0.2709
 3582TIP3    H232382   2.963   1.976   0.621 -0.2233  0.4128  0.1215
 3583TIP3   OH232383   0.161   0.092   1.641  0.2262  0.2942  0.2714
 3583TIP3    H132384   0.191   0.126   1.726  0.7138  0.9995 -0.1713
 3583TIP3    H232385   0.227   0.026   1.617 -0.0943 -0.1501  0.5889
 3584TIP3   OH232386   5.728   0.901   8.584 -0.1171 -0.1440 -0.0560
 3584TIP3    H132387   5.687   0.964   8.525 -0.5600 -0.8051 -0.4742
 3584TIP3    H232388   5.668   0.895   8.658 -0.2339 -0.3009 -0.1618
 3585TIP3   OH232389   0.223   2.092   0.745  0.6001 -0.0919 -0.0435
 3585TIP3    H132390   0.292   2.157   0.752  0.9978 -0.5435  0.3134
 3585TIP3    H232391   0.141   2.142   0.749  0.8183  0.1944  2.7250
 3586TIP3   OH232392   0.747   1.112   1.101  0.2063  0.4503 -0.2011
 3586TIP3    H132393   0.828   1.162   1.101  0.5310 -0.0673  0.2386
 3586TIP3    H232394   0.688   1.161   1.159  0.3766  0.5633 -0.1252
 3587TIP3   OH232395   0.866   3.796   8.993  0.1639  0.0476  0.1523
 3587TIP3    H132396   0.951   3.761   9.020 -0.7460 -1.9420  0.5929
 3587TIP3    H232397   0.806   3.722   9.001 -1.9429  1.7595  1.3434
 3588TIP3   OH232398   1.926   4.946   9.002  0.3603  0.2132 -0.0128
 3588TIP3    H132399   1.911   5.027   9.050  0.4240  0.5332 -0.5315
 3588TIP3    H232400   1.952   4.883   9.069  1.3440  0.8870  0.2572
 3589TIP3   OH232401   1.754   2.203   7.880  0.2847 -0.1260 -0.1206
 3589TIP3    H132402   1.785   2.154   7.805  0.9858  1.1405 -0.6915
 3589TIP3    H232403   1.695   2.143   7.926 -0.4883 -0.7756 -1.9018
 3590TIP3   OH232404   2.389   2.686   7.289  0.1819 -0.2769 -0.4057
 3590TIP3    H132405   2.340   2.735   7.223  0.1754  0.8331  0.3871
 3590TIP3    H232406   2.478   2.722   7.286 -0.3059  1.2697  1.5513
 3591TIP3   OH232407   0.080   4.327   7.692 -0.0708 -0.2891  0.1483
 3591TIP3    H132408   0.024   4.390   7.738  1.8847 -0.2217  2.6757
 3591TIP3    H232409   0.112   4.269   7.761  0.5751 -2.2083 -1.6611
 3592TIP3   OH232410   3.457   6.508   8.820 -0.3225  0.3911 -0.4529
 3592TIP3    H132411   3.546   6.505   8.787 -0.0065  2.2825  0.1343
 3592TIP3    H232412   3.453   6.438   8.885  0.4875 -0.1767 -0.9951
 3593TIP3   OH232413   5.707   1.670   8.875 -0.3937  0.0298  0.5320
 3593TIP3    H132414   5.704   1.730   8.800  1.5145  0.1863  0.5344
 3593TIP3    H232415   5.700   1.727   8.952 -0.9055  0.0033  0.5114
 3594TIP3   OH232416   6.166   5.899   2.675 -0.3073 -0.0686  0.4782
 3594TIP3    H132417   6.211   5.815   2.664 -0.7458 -0.6804  2.8955
 3594TIP3    H232418   6.079   5.876   2.707 -0.4949  1.3138  1.0418
 3595TIP3   OH232419   1.494   5.195   0.357 -0.4035  0.1289 -0.9496
 3595TIP3    H132420   1.416   5.142   0.341  0.6762 -1.3481 -1.4571
 3595TIP3    H232421   1.462   5.285   0.353 -1.9449 -0.4210 -1.9464
 3596TIP3   OH232422   6.528   0.513   8.107  0.0375  0.2460 -0.1795
 3596TIP3    H132423   6.506   0.448   8.040 -0.6667  1.5458 -1.2612
 3596TIP3    H232424   6.444   0.532   8.149  0.6548 -1.5098  2.0479
 3597TIP3   OH232425   3.903   5.093   7.740  0.0492 -0.3231 -0.5690
 3597TIP3    H132426   3.961   5.154   7.694 -0.6271 -0.0640 -1.0813
 3597TIP3    H232427   3.887   5.135   7.825  1.1129 -0.6945 -0.1698
 3598TIP3   OH232428   5.399   0.573   8.426  0.4162 -0.4238  0.6173
 3598TIP3    H132429   5.328   0.612   8.375  0.6933  0.2944  0.7722
 3598TIP3    H232430   5.371   0.482   8.440  1.2394 -1.2708 -2.5293
 3599TIP3   OH232431   6.205   2.504   7.787  0.2846  0.3570  0.6098
 3599TIP3    H132432   6.193   2.464   7.701  0.1372  0.4440  0.5908
 3599TIP3    H232433   6.268   2.447   7.831  0.9858  0.7551  0.1512
 3600TIP3   OH232434   3.269   2.105   7.946 -0.2546 -0.2336  0.1269
 3600TIP3    H132435   3.237   2.092   8.035 -1.3122 -1.5083 -0.4060
 3600TIP3    H232436   3.320   2.186   7.951 -1.0625  0.2298  1.6813
 3601TIP3   OH232437   1.608   5.922   7.504 -0.6759 -0.0989  0.0999
 3601TIP3    H132438   1.640   5.968   7.427  3.4071  0.1100  1.6646
 3601TIP3    H232439   1.651   5.836   7.499 -1.2520 -0.4951  1.5811
 3602TIP3   OH232440   5.244   4.395   7.806  0.0126  0.0421  0.1885
 3602TIP3    H132441   5.255   4.453   7.881 -0.6080 -0.7186  0.8732
 3602TIP3    H232442   5.158   4.417   7.770  0.0409 -0.0251  0.0769
 3603TIP3   OH232443   0.433   2.388   0.009 -0.0448 -0.3064  0.4941
 3603TIP3    H132444   0.500   2.321  -0.004  0.6249  0.2805  0.8405
 3603TIP3    H232445   0.395   2.367   0.094 -2.5264 -2.5072 -0.9774
 3604TIP3   OH232446   3.739   0.199   8.897 -0.0366 -0.3626  0.1995
 3604TIP3    H132447   3.760   0.204   8.990  0.9622  1.2837 -0.0807
 3604TIP3    H232448   3.790   0.126   8.864  0.6719 -0.0981  0.6933
 3605TIP3   OH232449   1.948   5.851   0.570 -0.1401 -0.3067 -0.1541
 3605TIP3    H132450   1.878   5.900   0.612  0.4615 -0.4020  0.9988
 3605TIP3    H232451   1.928   5.856   0.476 -0.4877  1.4966 -0.0144
 3606TIP3   OH232452   6.424   4.267   1.735  0.4375 -0.7405  0.3524
 3606TIP3    H132453   6.469   4.351   1.730 -1.3946  0.2564 -0.4640
 3606TIP3    H232454   6.492   4.202   1.716  1.5899  0.6492 -0.4551
 3607TIP3   OH232455   5.683   1.400   2.413 -0.1331 -0.0568  0.2007
 3607TIP3    H132456   5.695   1.373   2.504 -1.0279  1.3478  0.7830
 3607TIP3    H232457   5.613   1.466   2.417 -0.5489 -0.3260 -1.5733
 3608TIP3   OH232458   3.556   0.088   0.736  0.5369  0.1739  0.3247
 3608TIP3    H132459   3.570   0.138   0.817 -0.0958 -0.9253  1.1352
 3608TIP3    H232460   3.462   0.072   0.734  0.2980  1.4501 -1.4291
 3609TIP3   OH232461   5.589   0.986   1.684  0.1575 -0.1790  0.5916
 3609TIP3    H132462   5.570   1.034   1.766  0.4789  1.1965 -0.1054
 3609TIP3    H232463   5.542   1.035   1.617  1.4696 -0.1316 -0.3236
 3610TIP3   OH232464   1.400   4.252   8.769 -0.5208  0.0776  0.4967
 3610TIP3    H132465   1.488   4.273   8.736  0.8947  1.1845  4.3738
 3610TIP3    H232466   1.343   4.318   8.730  0.8287  0.7940 -0.3305
 3611TIP3   OH232467   2.578   6.333   2.465  0.1498 -0.0056  0.1952
 3611TIP3    H132468   2.617   6.343   2.552  0.7590  1.0479 -0.1751
 3611TIP3    H232469   2.651   6.346   2.404 -0.5283  0.7576 -0.4970
 3612TIP3   OH232470   2.222   5.108   1.278  0.1981  0.5384 -0.3441
 3612TIP3    H132471   2.220   5.022   1.319  0.5220  0.2099 -0.9991
 3612TIP3    H232472   2.166   5.163   1.333  0.7283  0.1444  0.5892
 3613TIP3   OH232473   6.091   3.414   2.119  0.1535 -0.0277 -0.1161
 3613TIP3    H132474   6.065   3.372   2.201  2.6183 -0.0608  0.7321
 3613TIP3    H232475   6.095   3.342   2.056 -0.6834 -0.1823 -0.0057
 3614TIP3   OH232476   1.718   2.678   1.420  0.0832  0.0246  0.1126
 3614TIP3    H132477   1.667   2.615   1.470 -0.1758 -0.0739 -0.2712
 3614TIP3    H232478   1.768   2.625   1.358  0.1324  0.1697  0.0271
 3615TIP3   OH232479   3.203   4.252   8.809  1.0160  0.0781 -0.5841
 3615TIP3    H132480   3.248   4.325   8.851 -0.0158 -0.0310  0.7692
 3615TIP3    H232481   3.273   4.191   8.785  2.0632  2.0087 -2.9419
 3616TIP3   OH232482   2.947   1.141   7.650 -0.4189  0.8974  0.2066
 3616TIP3    H132483   2.976   1.178   7.567 -0.1653  1.2896  0.4657
 3616TIP3    H232484   3.015   1.077   7.673 -0.7888  0.3629 -0.1751
 3617TIP3   OH232485   1.699   6.605   9.039 -0.1373 -0.9523 -0.5027
 3617TIP3    H132486   1.659   6.654   8.967  0.3952 -0.6025 -0.5646
 3617TIP3    H232487   1.787   6.641   9.046  0.7823 -2.8476 -1.5154
 3618TIP3   OH232488   6.112   3.315   7.673  0.4320 -0.6954  0.2833
 3618TIP3    H132489   6.042   3.333   7.611  1.0366  1.5385  0.1363
 3618TIP3    H232490   6.090   3.231   7.712 -1.5000 -0.7599 -0.8519
 3619TIP3   OH232491   4.471   3.616   9.040  0.0781  0.6247  0.3663
 3619TIP3    H132492   4.457   3.620   9.135 -1.8556  1.0746  0.1190
 3619TIP3    H232493   4.405   3.553   9.010  2.2046 -1.3516 -0.4711
 3620TIP3   OH232494   0.207   0.112   8.338 -0.0141  0.1489  0.3616
 3620TIP3    H132495   0.233   0.043   8.399  0.4038  1.9422  2.2777
 3620TIP3    H232496   0.268   0.102   8.264 -0.9371 -2.4511 -0.1784
 3621TIP3   OH232497   0.411   4.619   2.843  0.0357 -0.2886 -0.2322
 3621TIP3    H132498   0.346   4.577   2.900 -0.4040  0.0084 -0.5055
 3621TIP3    H232499   0.426   4.555   2.773  1.4024 -1.1218  0.7756
 3622TIP3   OH232500   1.585   1.452   7.820 -0.4824 -0.1158  0.0233
 3622TIP3    H132501   1.679   1.436   7.814 -0.2662  0.6089  1.1364
 3622TIP3    H232502   1.546   1.365   7.823  0.2468 -0.4341  0.6673
 3623TIP3   OH232503   5.619   3.986   8.559 -0.1649  0.6221 -0.3435
 3623TIP3    H132504   5.616   4.010   8.467  0.2708  1.5272 -0.1334
 3623TIP3    H232505   5.543   4.029   8.598 -0.3157  0.2889 -0.2637
 3624TIP3   OH232506   4.207   5.277   7.835  0.1248  0.1795 -0.1297
 3624TIP3    H132507   4.177   5.296   7.924  2.4187  2.8726  0.2402
 3624TIP3    H232508   4.135   5.307   7.779 -0.7265 -0.1331  0.7546
 3625TIP3   OH232509   0.388   0.704   0.047  0.3716  0.5308  0.4608
 3625TIP3    H132510   0.306   0.657   0.062  0.1388 -0.0479 -2.0964
 3625TIP3    H232511   0.452   0.659   0.103 -0.6629 -0.2174  1.0765
 3626TIP3   OH232512   1.698   2.375   8.170 -0.6349 -0.6074  0.1972
 3626TIP3    H132513   1.616   2.351   8.127  0.1970 -2.1054 -0.6475
 3626TIP3    H232514   1.744   2.292   8.182  1.2199  0.2883 -0.3142
 3627TIP3   OH232515   0.376   4.265   8.008  0.2462 -0.1908 -0.0990
 3627TIP3    H132516   0.369   4.339   7.949  0.9340  0.5358  0.7017
 3627TIP3    H232517   0.420   4.197   7.958  1.5382  0.6907 -0.1799
 3628TIP3   OH232518   6.282   0.676   0.442  0.3974  0.0326 -0.4106
 3628TIP3    H132519   6.285   0.585   0.470 -0.1385  0.2334  0.3403
 3628TIP3    H232520   6.289   0.726   0.523  0.1644  0.6527 -0.7654
 3629TIP3   OH232521   4.535   4.810   2.087 -0.3919  0.3307 -0.0828
 3629TIP3    H132522   4.520   4.779   1.998  1.2558 -0.5387 -0.0988
 3629TIP3    H232523   4.476   4.757   2.141  0.1385 -0.6706 -0.4555
 3630TIP3   OH232524   0.480   0.728   7.550  0.0525  0.0923 -0.2905
 3630TIP3    H132525   0.568   0.719   7.513  0.7422 -0.8763  1.4987
 3630TIP3    H232526   0.429   0.767   7.479  1.3540 -1.4433 -2.1670
 3631TIP3   OH232527   6.059   1.708   7.133  0.1787 -0.1059  0.2582
 3631TIP3    H132528   6.150   1.707   7.162 -0.1549 -0.4166  1.3299
 3631TIP3    H232529   6.024   1.622   7.158  0.0579 -0.7035 -1.7541
 3632TIP3   OH232530   0.739   2.258   9.011 -0.4104  0.2198 -1.0830
 3632TIP3    H132531   0.654   2.226   8.980 -1.3265 -0.4986  1.8401
 3632TIP3    H232532   0.747   2.346   8.974 -2.3897  0.2605 -1.5131
 3633TIP3   OH232533   2.976   6.189   0.764 -0.5493  0.5968  0.0296
 3633TIP3    H132534   2.957   6.095   0.767  0.2007  0.4599  1.4880
 3633TIP3    H232535   2.994   6.212   0.855 -0.3054  2.0719 -0.3768
 3634TIP3   OH232536   6.504   1.954   1.744  0.2183  0.2203 -0.0114
 3634TIP3    H132537   6.550   1.875   1.717  2.0888  0.6781  1.5353
 3634TIP3    H232538   6.413   1.928   1.754  0.7260 -1.6266  0.0851
 3635TIP3   OH232539   2.202   2.978   8.324 -0.1420 -0.3467 -0.2464
 3635TIP3    H132540   2.132   3.013   8.270  2.2079  0.8374 -2.8033
 3635TIP3    H232541   2.231   2.899   8.278  1.2559  0.1134 -0.2054
 3636TIP3   OH232542   3.001   1.129   2.299 -0.2311 -0.2130 -0.4991
 3636TIP3    H132543   2.982   1.107   2.208 -1.1803  1.2290 -0.6956
 3636TIP3    H232544   3.068   1.198   2.294 -0.3337 -0.0820 -0.1273
 3637TIP3   OH232545   6.572   3.914   1.424  0.1016 -0.3370 -0.3179
 3637TIP3    H132546   6.512   3.847   1.457 -1.9945  0.8115 -1.5469
 3637TIP3    H232547   6.637   3.865   1.374 -0.3460 -1.5713  0.2730
 3638TIP3   OH232548   0.924   4.255   0.431  0.0254  0.2821  0.3406
 3638TIP3    H132549   0.938   4.167   0.466 -2.5108 -0.5311 -0.4167
 3638TIP3    H232550   0.888   4.240   0.343 -2.4988  1.9367  0.9671
 3639TIP3   OH232551   4.999   6.016   9.077  0.1313 -0.4907 -0.7677
 3639TIP3    H132552   4.950   5.935   9.091  1.5184 -1.4105 -0.9832
 3639TIP3    H232553   5.089   5.987   9.064  0.4390  0.9913 -2.2395
 3640TIP3   OH232554   4.611   6.043   7.563  0.9880  0.0503 -0.3088
 3640TIP3    H132555   4.641   6.130   7.539  1.8950 -0.3371 -0.6380
 3640TIP3    H232556   4.657   5.984   7.503 -1.0288 -0.5465 -1.3508
 3641TIP3   OH232557   5.082   3.875   7.837  0.3407  0.0434 -0.7779
 3641TIP3    H132558   5.105   3.929   7.912  1.4350 -1.2955 -0.1004
 3641TIP3    H232559   5.121   3.920   7.762 -0.5121  1.2395 -0.5386
 3642TIP3   OH232560   1.416   5.470   7.396  0.0643 -0.5112 -0.3651
 3642TIP3    H132561   1.466   5.388   7.395  1.0530  0.0592  0.2332
 3642TIP3    H232562   1.451   5.519   7.322  1.5149  0.5077  0.9305
 3643TIP3   OH232563   5.682   3.628   0.087  0.0702  0.1881  0.5524
 3643TIP3    H132564   5.598   3.671   0.067  0.1824  0.4505  0.6412
 3643TIP3    H232565   5.732   3.695   0.134  0.4776  0.1559  0.1591
 3644TIP3   OH232566   0.712   6.113   2.345 -0.0710 -0.3225  0.2367
 3644TIP3    H132567   0.631   6.064   2.357 -0.5197  0.1664 -0.6491
 3644TIP3    H232568   0.728   6.153   2.431 -0.6450 -0.6019  0.4833
 3645TIP3   OH232569   1.183   3.023   7.965  0.6822  0.2003 -0.5622
 3645TIP3    H132570   1.234   3.024   7.884  0.6497  2.0077 -0.6161
 3645TIP3    H232571   1.097   2.991   7.939  1.2328 -1.1106 -0.8319
 3646TIP3   OH232572   4.242   2.914   1.122  0.3025 -0.0470 -0.3298
 3646TIP3    H132573   4.302   2.860   1.174  0.2656  0.3208  0.1024
 3646TIP3    H232574   4.266   2.896   1.031  3.0044  2.2112 -0.1961
 3647TIP3   OH232575   0.374   1.534   8.448  0.4346 -0.5177 -0.3036
 3647TIP3    H132576   0.316   1.610   8.437  0.7682 -0.5203 -2.6639
 3647TIP3    H232577   0.323   1.472   8.500 -1.6814 -0.4418 -2.1485
 3648TIP3   OH232578   1.086   4.047   0.532 -0.1010 -0.0074 -0.2343
 3648TIP3    H132579   1.052   4.001   0.609 -0.3803 -0.6713 -0.7401
 3648TIP3    H232580   1.163   3.997   0.506 -1.3171 -1.2003 -1.7420
 3649TIP3   OH232581   0.089   6.418   7.721  0.1729  1.4826 -0.7916
 3649TIP3    H132582   0.176   6.432   7.684  0.4250 -1.3544 -1.4893
 3649TIP3    H232583   0.029   6.452   7.656  0.7262  0.3741 -1.9278
 3650TIP3   OH232584   6.614   5.170   8.124  0.3826 -0.0289  0.3607
 3650TIP3    H132585   6.708   5.191   8.119  0.2483  0.6633  0.6178
 3650TIP3    H232586   6.608   5.081   8.092  1.2249 -0.3176  0.9565
 3651TIP3   OH232587   1.396   0.584   0.885  0.8764  0.3747  0.3936
 3651TIP3    H132588   1.319   0.627   0.848  1.5671  1.8669  0.5956
 3651TIP3    H232589   1.470   0.626   0.840  1.6384  0.5106  1.7261
 3652TIP3   OH232590   4.725   1.415   0.824 -0.3575 -0.2860 -0.3983
 3652TIP3    H132591   4.642   1.461   0.841 -0.4133 -0.6050  0.2559
 3652TIP3    H232592   4.698   1.327   0.797 -0.3140 -1.5377  3.0118
 3653TIP3   OH232593   2.937   5.786   2.531  0.3413 -0.1544  0.7102
 3653TIP3    H132594   2.959   5.695   2.509  2.1117 -0.0797  1.9928
 3653TIP3    H232595   3.022   5.830   2.540 -0.4808  1.5715  0.4137
 3654TIP3   OH232596   3.566   5.522   0.354  0.3238  0.1736 -0.4147
 3654TIP3    H132597   3.538   5.472   0.276 -1.1079  0.4916 -0.1370
 3654TIP3    H232598   3.484   5.549   0.395  1.0743  1.5528  0.2267
 3655TIP3   OH232599   2.343   3.429   0.655  0.2803 -0.4661 -0.1189
 3655TIP3    H132600   2.423   3.422   0.604  0.2699 -1.1922 -0.0468
 3655TIP3    H232601   2.373   3.446   0.745  0.2773  1.8527 -0.4879
 3656TIP3   OH232602   1.676   2.695   3.218 -0.1036  0.3649  0.3681
 3656TIP3    H132603   1.733   2.663   3.147 -1.4328 -0.5424 -0.3282
 3656TIP3    H232604   1.670   2.789   3.203  0.6186  0.3629  0.0110
 3657TIP3   OH232605   0.271   3.312   9.018 -0.3300 -0.3856  0.9308
 3657TIP3    H132606   0.279   3.303   8.923 -0.8343 -1.1793  0.9527
 3657TIP3    H232607   0.361   3.328   9.047 -0.3545  1.3189  0.2066
 3658TIP3   OH232608   0.415   6.440   8.640 -0.3104  0.2727 -0.4494
 3658TIP3    H132609   0.433   6.506   8.708 -2.8575  0.0372  0.5525
 3658TIP3    H232610   0.321   6.424   8.646 -0.4186 -0.6799 -3.2608
 3659TIP3   OH232611   6.036   4.174   0.717  0.5363  0.5081  0.0539
 3659TIP3    H132612   5.972   4.124   0.665  1.2762 -1.7128  1.1993
 3659TIP3    H232613   6.003   4.264   0.713 -1.7943 -0.2916 -0.7045
 3660TIP3   OH232614   1.144   4.497   7.162 -0.1733  0.5873  0.3493
 3660TIP3    H132615   1.138   4.566   7.096 -0.7342 -0.3867 -0.6516
 3660TIP3    H232616   1.084   4.429   7.131  0.1540 -0.2331  1.4541
 3661TIP3   OH232617   3.063   5.340   1.074  0.0466  0.0447 -0.4766
 3661TIP3    H132618   3.093   5.254   1.044 -1.3998 -0.3370 -0.9275
 3661TIP3    H232619   3.001   5.368   1.007 -1.0985  0.4806  0.7190
 3662TIP3   OH232620   1.737   5.922   1.641  0.1510  0.2621  0.4768
 3662TIP3    H132621   1.784   6.004   1.653  0.5887  0.1585 -0.4279
 3662TIP3    H232622   1.778   5.861   1.702  0.3905  0.4987  0.5530
 3663TIP3   OH232623   2.064   0.491   8.526  0.0273  0.3429  0.0335
 3663TIP3    H132624   2.033   0.513   8.438 -1.1313  1.0026  0.5801
 3663TIP3    H232625   2.084   0.576   8.566  0.1829  0.0736  0.5370
 3664TIP3   OH232626   3.404   4.980   8.580 -0.2752  0.1785  0.0204
 3664TIP3    H132627   3.323   5.009   8.538 -0.4325 -1.6568 -1.0735
 3664TIP3    H232628   3.384   4.981   8.674 -0.5666  2.4803  0.0011
 3665TIP3   OH232629   5.747   1.041   9.126  0.0001  0.5246 -0.0923
 3665TIP3    H132630   5.712   1.077   9.207 -0.9684 -0.9342  0.1882
 3665TIP3    H232631   5.673   1.040   9.066 -0.2628 -1.6904  0.1823
 3666TIP3   OH232632   1.985   3.557   2.857  0.5766  0.3054 -0.4749
 3666TIP3    H132633   2.071   3.586   2.826  2.2642  0.2408  3.5412
 3666TIP3    H232634   1.961   3.621   2.924 -1.5891 -0.7662 -0.1525
 3667TIP3   OH232635   3.665   0.067   2.495 -0.2732 -0.0185  0.4248
 3667TIP3    H132636   3.711   0.037   2.416 -1.7544 -0.9252 -0.1384
 3667TIP3    H232637   3.731   0.116   2.544  0.8055  0.1862 -1.1571
 3668TIP3   OH232638   4.216   2.432   1.300  0.3035 -0.1015  0.8344
 3668TIP3    H132639   4.125   2.404   1.292  0.1402  0.4880  0.5914
 3668TIP3    H232640   4.263   2.352   1.325  0.0430 -0.8941 -1.0175
 3669TIP3   OH232641   3.327   5.873   0.628 -0.0049 -0.2889 -0.7312
 3669TIP3    H132642   3.316   5.840   0.717  0.4661  0.2531 -0.4656
 3669TIP3    H232643   3.387   5.946   0.637 -2.4817  1.9307 -1.0163
 3670TIP3   OH232644   4.550   1.217   0.764  0.8909  0.4159 -0.0920
 3670TIP3    H132645   4.469   1.197   0.811  1.2118  0.3539  0.4359
 3670TIP3    H232646   4.530   1.193   0.673  1.2027 -2.2681  0.4549
 3671TIP3   OH232647   5.338   4.452   2.195 -0.2055  0.6141  0.1404
 3671TIP3    H132648   5.266   4.513   2.210 -1.7851 -1.5458  2.1459
 3671TIP3    H232649   5.394   4.461   2.273  0.8968  1.1499 -0.6771
 3672TIP3   OH232650   0.271   5.063   0.851 -0.9285 -0.3093  0.2688
 3672TIP3    H132651   0.261   4.968   0.838 -0.0631 -0.4420  0.5238
 3672TIP3    H232652   0.278   5.098   0.762 -1.4895 -0.4532  0.1636
 3673TIP3   OH232653   2.195   3.765   0.255 -0.0531 -0.0532 -0.4457
 3673TIP3    H132654   2.242   3.758   0.172  2.1151 -2.3201  0.8356
 3673TIP3    H232655   2.260   3.800   0.316 -0.7471 -1.0227  0.8817
 3674TIP3   OH232656   6.187   0.987   7.876 -0.0359 -0.8107  0.0379
 3674TIP3    H132657   6.237   0.989   7.957  0.3135 -0.6664 -0.1807
 3674TIP3    H232658   6.155   1.076   7.865 -0.1087 -0.8373  0.0338
 3675TIP3   OH232659   3.940   3.809   2.135 -0.8261 -0.5325  0.0785
 3675TIP3    H132660   3.929   3.730   2.188  0.6440 -0.3961  0.6380
 3675TIP3    H232661   3.910   3.783   2.047 -0.6526 -1.6221  0.3204
 3676TIP3   OH232662   5.419   6.418   8.223 -0.0320  0.1860  0.2815
 3676TIP3    H132663   5.479   6.492   8.211 -0.2086  0.1084 -1.4196
 3676TIP3    H232664   5.438   6.360   8.150 -0.1802 -1.2820  1.3773
 3677TIP3   OH232665   0.514   6.007   6.991 -0.1990 -0.2054 -0.1530
 3677TIP3    H132666   0.429   5.964   6.998 -0.3088  0.0028 -0.2389
 3677TIP3    H232667   0.548   5.980   6.906  0.1213 -0.8410  0.1617
 3678TIP3   OH232668   1.534   1.037   7.505 -0.7226  0.4988  0.7311
 3678TIP3    H132669   1.569   0.988   7.431 -0.2930  2.0189 -0.1198
 3678TIP3    H232670   1.571   0.994   7.582  1.0232  0.5196 -0.0561
 3679TIP3   OH232671   4.390   0.465   2.245 -0.3687 -0.2939 -0.1157
 3679TIP3    H132672   4.389   0.516   2.165 -1.6822  1.0156  0.6844
 3679TIP3    H232673   4.483   0.452   2.264  0.0895  2.7211  0.1626
 3680TIP3   OH232674   4.564   6.158   8.733  0.3711 -0.0513  0.7074
 3680TIP3    H132675   4.631   6.098   8.765  1.6403  2.2657  2.6921
 3680TIP3    H232676   4.608   6.243   8.728 -1.9535  1.2141  0.3175
 3681TIP3   OH232677   6.562   4.693   1.361 -0.0209 -0.3207 -0.5798
 3681TIP3    H132678   6.556   4.750   1.437  0.4185  0.0057 -0.7870
 3681TIP3    H232679   6.512   4.615   1.385 -1.4335  0.5216 -0.6478
 3682TIP3   OH232680   6.201   2.785   1.027  0.1133 -0.7116 -0.2302
 3682TIP3    H132681   6.251   2.844   1.084 -1.7679  0.2325  0.5395
 3682TIP3    H232682   6.248   2.786   0.944  1.6481 -0.2904  0.6126
 3683TIP3   OH232683   3.611   0.949   3.410  0.6972 -0.5520  0.1677
 3683TIP3    H132684   3.661   0.949   3.492  0.8423  3.2339  0.2443
 3683TIP3    H232685   3.675   0.974   3.343  0.1699 -1.7700 -0.8403
 3684TIP3   OH232686   2.013   2.020   1.386  0.6219 -0.0228  0.6900
 3684TIP3    H132687   1.963   2.067   1.319  1.2602 -0.2057  0.0723
 3684TIP3    H232688   2.025   1.932   1.349  0.7121 -0.2201  1.1847
 3685TIP3   OH232689   5.111   5.945   0.672 -0.0131 -0.1326  0.0626
 3685TIP3    H132690   5.109   5.850   0.682 -1.5533 -0.0228  1.1567
 3685TIP3    H232691   5.093   5.978   0.760  0.2824  1.1739 -0.3507
 3686TIP3   OH232692   1.326   3.951   7.704 -0.0110 -0.1248  0.5865
 3686TIP3    H132693   1.345   4.017   7.638  1.9786 -0.7041  0.5243
 3686TIP3    H232694   1.350   3.868   7.663  2.1755 -0.4203  2.3005
 3687TIP3   OH232695   6.438   3.867   2.404  0.3186  0.0409 -0.2445
 3687TIP3    H132696   6.499   3.825   2.343  1.3803  0.4720  0.4866
 3687TIP3    H232697   6.419   3.799   2.469  1.5996  0.4755  0.6268
 3688TIP3   OH232698   4.114   3.733   0.538 -0.2369 -0.4490  0.0159
 3688TIP3    H132699   4.110   3.747   0.633  1.0864 -0.2898  0.0716
 3688TIP3    H232700   4.115   3.822   0.502  1.0163 -0.4657 -0.0318
 3689TIP3   OH232701   5.369   3.423   6.657 -0.0064  0.6042 -0.2781
 3689TIP3    H132702   5.412   3.350   6.702 -1.0007 -0.6882 -1.3245
 3689TIP3    H232703   5.334   3.478   6.727 -1.3926 -1.2598  0.5857
 3690TIP3   OH232704   5.783   3.278   7.259 -0.0156  0.3125  0.0368
 3690TIP3    H132705   5.864   3.244   7.296  0.1941  0.9096  0.1368
 3690TIP3    H232706   5.717   3.212   7.279  0.1824  0.4272  1.0957
 3691TIP3   OH232707   2.715   4.119   9.158  0.5699 -0.1705  1.0853
 3691TIP3    H132708   2.795   4.154   9.198  0.1439  0.1832  1.6297
 3691TIP3    H232709   2.644   4.150   9.213 -0.0147  0.1243  0.1911
 3692TIP3   OH232710   4.836   1.235   0.474 -0.1260  0.5783 -0.5169
 3692TIP3    H132711   4.921   1.250   0.515  1.3226 -0.8254 -2.7798
 3692TIP3    H232712   4.813   1.318   0.433 -0.5391  1.3486  1.2125
 3693TIP3   OH232713   6.444   4.650   6.859  0.2566  0.5256  0.4798
 3693TIP3    H132714   6.394   4.730   6.842  2.0407  1.4711 -0.7591
 3693TIP3    H232715   6.508   4.676   6.926  0.9299  0.1945 -0.0230
 3694TIP3   OH232716   1.132   4.059   6.616  0.1358  0.2604  0.4407
 3694TIP3    H132717   1.038   4.049   6.598  0.0846  0.5600  0.5315
 3694TIP3    H232718   1.135   4.106   6.700  0.3521  1.6334 -0.3024
 3695TIP3   OH232719   0.011   3.894   0.787 -0.1441 -0.1551 -0.2285
 3695TIP3    H132720   0.016   3.801   0.766 -0.1957 -0.4675  1.0543
 3695TIP3    H232721  -0.051   3.930   0.723  2.2067 -0.3414 -2.7497
 3696TIP3   OH232722   5.561   4.498   0.538 -0.1621 -0.0029  0.1161
 3696TIP3    H132723   5.566   4.582   0.494 -1.3820 -0.8014 -1.6633
 3696TIP3    H232724   5.520   4.517   0.622 -1.4499  1.0469 -0.7178
 3697TIP3   OH232725   3.252   3.902   1.527  0.0963 -0.4582 -0.7041
 3697TIP3    H132726   3.287   3.820   1.490  1.0596 -1.0030  1.2958
 3697TIP3    H232727   3.328   3.959   1.537  0.1875 -0.9032  1.7820
 3698TIP3   OH232728   4.653   0.983   8.494 -0.2898 -0.1428 -0.2757
 3698TIP3    H132729   4.747   0.987   8.508 -0.6552  3.5344  2.5300
 3698TIP3    H232730   4.631   1.069   8.457 -2.4554 -1.5109 -2.4990
 3699TIP3   OH232731   3.257   3.986   7.563  0.0231 -0.5867  0.8064
 3699TIP3    H132732   3.278   3.923   7.495  2.2053  0.7822  0.1107
 3699TIP3    H232733   3.268   4.072   7.521 -0.0646  0.2875  2.4698
 3700TIP3   OH232734   5.864   1.295   8.854 -0.0324  0.0253  0.2821
 3700TIP3    H132735   5.848   1.201   8.862  1.9341 -0.3383  0.4145
 3700TIP3    H232736   5.958   1.305   8.869 -0.0893  1.9545 -0.3370
 3701TIP3   OH232737   4.188   3.580   8.387 -0.0456  0.1654  0.1025
 3701TIP3    H132738   4.094   3.580   8.374  0.2086 -1.4131 -2.2833
 3701TIP3    H232739   4.225   3.600   8.301  1.7952 -1.4237  0.4372
 3702TIP3   OH232740   4.512   5.227   2.610  0.2759 -0.0230  0.1329
 3702TIP3    H132741   4.522   5.141   2.570 -1.3786 -0.1162 -0.1666
 3702TIP3    H232742   4.449   5.272   2.555 -0.3756  0.6623  1.3809
 3703TIP3   OH232743   2.012   2.821   7.521 -0.1314 -0.5128 -0.0329
 3703TIP3    H132744   2.056   2.877   7.585  0.2119  0.0373 -0.7393
 3703TIP3    H232745   2.048   2.734   7.536  1.4173 -0.0269 -0.7767
 3704TIP3   OH232746   3.562   6.577   1.839  0.1418 -0.5945  0.0568
 3704TIP3    H132747   3.597   6.502   1.886  1.3049 -1.1877 -1.6701
 3704TIP3    H232748   3.627   6.646   1.850  0.1528 -0.5609 -0.2009
 3705TIP3   OH232749   2.598   2.162   8.466 -0.2911  0.4083  0.6076
 3705TIP3    H132750   2.598   2.258   8.469 -1.7929  0.4661 -0.3896
 3705TIP3    H232751   2.569   2.141   8.377  3.1930 -0.9927 -0.3534
 3706TIP3   OH232752   4.337   6.229   0.496 -0.3600  0.3427 -0.6451
 3706TIP3    H132753   4.417   6.237   0.547  0.2500  1.8739 -1.7708
 3706TIP3    H232754   4.266   6.241   0.559  0.2311 -1.7044  0.4807
 3707TIP3   OH232755   3.985   0.764   0.836  0.0106  0.2895 -0.1781
 3707TIP3    H132756   4.016   0.724   0.917 -0.2034 -0.8377 -0.6342
 3707TIP3    H232757   3.892   0.783   0.853  0.2075  0.9608  0.1714
 3708TIP3   OH232758   5.533   2.393   7.352 -0.1239  0.0669 -0.3394
 3708TIP3    H132759   5.489   2.403   7.268 -0.3590  0.0468 -0.2203
 3708TIP3    H232760   5.532   2.480   7.391 -0.5265 -0.0399 -0.1079
 3709TIP3   OH232761   2.968   6.324   9.131 -0.1143  0.3481 -0.2124
 3709TIP3    H132762   3.028   6.393   9.159  1.4985 -1.0159 -0.1078
 3709TIP3    H232763   2.978   6.321   9.036 -0.3517  0.4172 -0.2391
 3710TIP3   OH232764   6.291   3.244   8.883  0.4391  0.4626 -0.0557
 3710TIP3    H132765   6.369   3.285   8.845 -0.6379  1.8989 -0.7732
 3710TIP3    H232766   6.282   3.285   8.969 -0.0700  1.0238 -0.3702
 3711TIP3   OH232767   5.516   4.843   0.877 -0.1249  0.5289 -0.3445
 3711TIP3    H132768   5.583   4.903   0.908  1.2147 -0.5965 -0.9140
 3711TIP3    H232769   5.443   4.899   0.850  1.0517  1.8800 -0.8256
 3712TIP3   OH232770   4.237   5.953   8.405 -0.0443 -0.2316 -0.1401
 3712TIP3    H132771   4.293   5.897   8.351 -0.6202 -0.8147 -0.1445
 3712TIP3    H232772   4.276   5.948   8.493  0.8988  0.7272 -0.4754
 3713TIP3   OH232773   4.545   3.234   7.136  0.4318 -0.0887 -0.2595
 3713TIP3    H132774   4.461   3.253   7.177  1.0052  1.2045  0.3701
 3713TIP3    H232775   4.535   3.147   7.099 -1.3172  0.2036 -0.5369
 3714TIP3   OH232776   5.574   1.302   1.935  0.3398 -0.7171 -0.1698
 3714TIP3    H132777   5.491   1.258   1.915 -0.3698 -0.1756  1.3554
 3714TIP3    H232778   5.583   1.293   2.030  1.7695 -0.3009 -0.2486
 3715TIP3   OH232779   4.320   6.205   1.079  0.6175  0.7838 -0.0243
 3715TIP3    H132780   4.299   6.282   1.132  1.5357  1.4008 -0.5117
 3715TIP3    H232781   4.235   6.168   1.054  0.1328  2.2365 -0.6245
 3716TIP3   OH232782   1.950   3.629   7.521 -0.4062 -0.0197  0.2056
 3716TIP3    H132783   1.886   3.698   7.542  0.4217  0.6068  0.7165
 3716TIP3    H232784   1.904   3.547   7.540 -1.2775  0.3900 -0.0513
 3717TIP3   OH232785   5.522   3.864   7.348  0.1117 -0.2113  0.3209
 3717TIP3    H132786   5.615   3.848   7.331 -0.0621 -1.1372  0.1681
 3717TIP3    H232787   5.507   3.954   7.320  1.1169  0.1887  1.0145
 3718TIP3   OH232788   0.629   4.534   8.838 -0.0130 -0.0014 -0.1970
 3718TIP3    H132789   0.618   4.498   8.750 -0.7482 -0.3229  0.0169
 3718TIP3    H232790   0.675   4.465   8.886  0.4750  0.2127 -0.3451
 3719TIP3   OH232791   3.504   4.806   0.347  0.2047 -0.4759  0.1380
 3719TIP3    H132792   3.534   4.825   0.436  1.1818 -2.3865  0.2657
 3719TIP3    H232793   3.490   4.712   0.346 -2.3350 -0.1601 -1.0212
 3720TIP3   OH232794   4.982   4.183   8.288  0.2233  0.3378 -0.2184
 3720TIP3    H132795   5.061   4.215   8.245 -0.2630 -0.0105 -1.4326
 3720TIP3    H232796   4.999   4.090   8.302 -0.6626 -0.1901 -2.2527
 3721TIP3   OH232797   1.207   4.743   8.967 -0.8182  0.4102  0.6710
 3721TIP3    H132798   1.158   4.677   8.918 -0.2641  0.3321  0.2134
 3721TIP3    H232799   1.255   4.693   9.033 -3.1763  0.6871  2.7444
 3722TIP3   OH232800   5.082   5.425   7.219 -0.1594 -0.3119  0.3185
 3722TIP3    H132801   5.097   5.516   7.194 -1.4912 -0.3105 -0.5595
 3722TIP3    H232802   5.027   5.389   7.150  1.2276 -2.1261  0.0792
 3723TIP3   OH232803   0.439   0.859   2.343  0.2034 -0.0413 -0.4401
 3723TIP3    H132804   0.422   0.811   2.262  3.3467  0.9118 -1.7862
 3723TIP3    H232805   0.498   0.803   2.393 -1.4278 -0.4611  1.1399
 3724TIP3   OH232806   1.215   0.105   8.563 -0.3221  0.0396 -0.0241
 3724TIP3    H132807   1.256   0.072   8.484  0.9126  0.0671  0.5736
 3724TIP3    H232808   1.143   0.044   8.581 -0.5190 -0.0481 -1.0619
 3725TIP3   OH232809   1.504   1.661   2.478  0.4217 -0.1216 -0.0815
 3725TIP3    H132810   1.423   1.661   2.529 -0.1188  0.9185 -0.8664
 3725TIP3    H232811   1.558   1.729   2.518  1.7187 -2.0353  1.5723
 3726TIP3   OH232812   4.808   2.337   0.883  0.5286  0.1919 -0.3262
 3726TIP3    H132813   4.808   2.408   0.818  1.5108  0.9405  0.4552
 3726TIP3    H232814   4.848   2.376   0.961  1.6780 -1.4220 -0.0659
 3727TIP3   OH232815   0.099   3.612   0.678  0.3659  0.7560 -0.6137
 3727TIP3    H132816   0.140   3.621   0.764  1.5692  0.2891 -1.1302
 3727TIP3    H232817   0.048   3.532   0.684 -4.4052  3.4779  1.5582
 3728TIP3   OH232818   0.263   5.815   7.909  0.6078  0.3097  0.4077
 3728TIP3    H132819   0.244   5.827   8.002 -0.6023 -1.9630  0.5069
 3728TIP3    H232820   0.202   5.874   7.865  0.0047  0.1412  1.0012
 3729TIP3   OH232821   5.008   5.481   8.098  0.0607  0.2686 -0.2948
 3729TIP3    H132822   4.941   5.412   8.097  1.6398 -1.3507 -2.2907
 3729TIP3    H232823   5.023   5.497   8.191 -1.8712 -0.5167  0.2173
 3730TIP3   OH232824   4.221   2.503   7.319 -0.1924  0.2557  0.1711
 3730TIP3    H132825   4.185   2.578   7.366 -0.0775  0.2953  0.1950
 3730TIP3    H232826   4.239   2.439   7.387  2.1882  1.1760  0.4966
 3731TIP3   OH232827   3.674   1.876   0.829  0.7185 -0.4700  0.0165
 3731TIP3    H132828   3.729   1.861   0.906  0.8185  1.0536  0.2637
 3731TIP3    H232829   3.734   1.910   0.763  0.1161  1.1984  0.2852
 3732TIP3   OH232830   1.741   5.494   0.505 -0.1971 -0.6630 -0.3343
 3732TIP3    H132831   1.729   5.496   0.600  2.3758 -2.1440  0.1413
 3732TIP3    H232832   1.711   5.407   0.479  0.8468 -0.9965 -0.5087
 3733TIP3   OH232833   1.344   2.124   2.091 -0.5886 -0.4024  0.3728
 3733TIP3    H132834   1.298   2.041   2.076 -0.8106 -0.3703  0.8551
 3733TIP3    H232835   1.436   2.099   2.095 -0.3829 -0.2680 -2.0976
 3734TIP3   OH232836   3.558   3.358   9.140 -0.1024  0.3990  0.1386
 3734TIP3    H132837   3.598   3.272   9.128  0.6645  0.6062  1.0077
 3734TIP3    H232838   3.528   3.358   9.231 -1.1073  0.6589 -0.1744
 3735TIP3   OH232839   2.382   4.395   0.472  0.3809 -0.2983 -0.4963
 3735TIP3    H132840   2.302   4.441   0.445  1.9869  2.5668 -0.7648
 3735TIP3    H232841   2.372   4.383   0.566  0.9934  3.2360  0.1499
 3736TIP3   OH232842   0.735   4.048   0.665  0.2698  0.1827 -0.0265
 3736TIP3    H132843   0.697   3.962   0.649 -1.6344  1.0084 -0.1055
 3736TIP3    H232844   0.821   4.029   0.703 -0.8038 -1.7594  1.6149
 3737TIP3   OH232845   4.900   1.722   1.653 -0.1355 -0.1457 -0.6792
 3737TIP3    H132846   4.907   1.736   1.558 -1.1193 -2.3057 -1.1258
 3737TIP3    H232847   4.964   1.783   1.691  0.9410  0.1081 -2.7751
 3738TIP3   OH232848   2.110   6.148   0.647  0.0697 -0.0104  0.3285
 3738TIP3    H132849   2.064   6.159   0.730 -0.4343  0.5403 -0.0135
 3738TIP3    H232850   2.041   6.138   0.582  0.4393  0.3250 -0.1251
 3739TIP3   OH232851   1.130   6.328   8.295 -0.0873 -0.4345 -0.2184
 3739TIP3    H132852   1.077   6.335   8.375 -0.9363 -0.7009 -0.7447
 3739TIP3    H232853   1.218   6.306   8.326  0.1702  1.7506  0.8046
 3740TIP3   OH232854   5.173   6.008   1.754 -0.8862  0.3128  0.3022
 3740TIP3    H132855   5.245   5.957   1.718 -0.2818  2.1298 -1.2454
 3740TIP3    H232856   5.216   6.073   1.810 -1.3836  0.9374 -0.0281
 3741TIP3   OH232857   1.189   5.413   7.508 -0.0305 -0.4742  0.2850
 3741TIP3    H132858   1.280   5.416   7.480 -0.2448  0.1927 -0.3638
 3741TIP3    H232859   1.139   5.439   7.431 -0.7869 -1.0857  0.5618
 3742TIP3   OH232860   3.735   4.851   8.258  0.2402  0.5187  0.0219
 3742TIP3    H132861   3.691   4.837   8.174 -1.1557 -0.1575  0.8352
 3742TIP3    H232862   3.688   4.796   8.319  1.0357  1.2453  1.3270
 3743TIP3   OH232863   3.912   4.525   1.523 -0.3028  0.4273 -0.2606
 3743TIP3    H132864   3.827   4.560   1.550 -0.4902  1.1358 -1.6586
 3743TIP3    H232865   3.912   4.532   1.428  1.2639  0.2942 -0.3041
 3744TIP3   OH232866   2.212   2.060   8.443  0.5368 -0.0879 -0.2362
 3744TIP3    H132867   2.143   2.075   8.508 -1.3042  0.3614 -2.2002
 3744TIP3    H232868   2.258   2.143   8.438  0.6793 -0.1170  0.4625
 3745TIP3   OH232869   3.100   5.490   0.785 -0.4377  0.2029 -0.1381
 3745TIP3    H132870   3.066   5.479   0.696  0.2672 -1.0509 -0.2792
 3745TIP3    H232871   3.163   5.418   0.796 -0.7012  0.1731  1.4639
 3746TIP3   OH232872   1.947   3.158   1.800  0.0948  0.2008  0.2566
 3746TIP3    H132873   1.944   3.086   1.863  0.3988  0.5176  0.6387
 3746TIP3    H232874   1.944   3.115   1.714 -2.1719 -0.1822  0.4538
 3747TIP3   OH232875   6.482   2.471   1.530  0.4910  0.3315 -0.4209
 3747TIP3    H132876   6.426   2.488   1.605  1.0826  2.1756 -0.3499
 3747TIP3    H232877   6.432   2.501   1.454  1.4208  2.2784 -0.3283
 3748TIP3   OH232878   5.836   2.872   7.023  0.1914  0.2121 -0.2832
 3748TIP3    H132879   5.817   2.780   7.042  0.3105  0.2063 -0.1878
 3748TIP3    H232880   5.905   2.896   7.086  0.1779  0.3592 -0.3232
 3749TIP3   OH232881   4.394   3.300   7.898  0.0180  0.3475 -0.2754
 3749TIP3    H132882   4.303   3.283   7.877  0.1857 -0.1370 -0.6248
 3749TIP3    H232883   4.403   3.395   7.893 -0.9072  0.5648  1.5972
 3750TIP3   OH232884   2.266   1.356   2.315  0.1091  0.4675 -0.8794
 3750TIP3    H132885   2.274   1.446   2.347  0.2883  0.0162  0.3758
 3750TIP3    H232886   2.331   1.306   2.365 -2.9318 -1.2284  1.7626
 3751TIP3   OH232887   2.162   4.539   0.315 -0.0171  0.3264  0.4273
 3751TIP3    H132888   2.247   4.568   0.283 -0.5981  2.1595  0.4429
 3751TIP3    H232889   2.108   4.617   0.314 -1.7636 -0.8249  0.2834
 3752TIP3   OH232890   0.426   3.491   0.916 -0.3749 -0.0554 -0.2684
 3752TIP3    H132891   0.433   3.414   0.859 -0.8024  0.6907 -1.3477
 3752TIP3    H232892   0.440   3.566   0.858 -2.7423  0.8209  0.1856
 3753TIP3   OH232893   4.076   2.037   0.498  0.4374 -0.2401 -0.1838
 3753TIP3    H132894   4.167   2.034   0.527  1.0199 -1.2770 -1.8847
 3753TIP3    H232895   4.062   2.127   0.470  0.5083  0.2442  1.2961
 3754TIP3   OH232896   1.642   4.255   1.949 -0.6451 -0.1368  0.4441
 3754TIP3    H132897   1.685   4.266   2.034  1.5104  1.6327 -0.7904
 3754TIP3    H232898   1.595   4.338   1.935  0.6454  0.4047 -0.9166
 3755TIP3   OH232899   1.335   4.191   1.083  0.4534 -0.1800  0.1265
 3755TIP3    H132900   1.380   4.242   1.150  0.4199  0.5134 -0.3771
 3755TIP3    H232901   1.406   4.156   1.029  0.4055  1.0260 -0.7502
 3756TIP3   OH232902   0.080   5.105   7.579 -0.3365  0.0339 -0.1452
 3756TIP3    H132903   0.008   5.116   7.517  0.3858 -0.7067 -1.1443
 3756TIP3    H232904   0.101   5.194   7.608 -1.3684  0.2866 -0.1518
 3757TIP3   OH232905   2.450   5.972   8.111  0.0993  0.0639  0.1668
 3757TIP3    H132906   2.501   5.994   8.189 -0.1007 -1.7577  0.8677
 3757TIP3    H232907   2.392   6.047   8.099  1.2835  1.1254  0.7490
 3758TIP3   OH232908   0.503   2.700   0.545 -0.3025 -0.3081 -0.1304
 3758TIP3    H132909   0.531   2.781   0.587  0.6396 -0.5373 -0.2952
 3758TIP3    H232910   0.580   2.670   0.496 -0.5841 -1.3834  0.0474
 3759TIP3   OH232911   2.523   0.470   1.974 -0.2211  0.5302  0.5859
 3759TIP3    H132912   2.522   0.384   2.014  0.7715  0.0215 -0.4134
 3759TIP3    H232913   2.494   0.530   2.043 -0.6919 -0.5693  1.3556
 3760TIP3   OH232914   4.176   1.791   0.346  0.5784 -0.2550 -0.1413
 3760TIP3    H132915   4.208   1.823   0.430  0.9674 -2.1614  0.4928
 3760TIP3    H232916   4.185   1.865   0.287  1.3968  0.7822  1.2246
 3761TIP3   OH232917   4.428   3.531   8.195  0.6222  0.4410 -0.2848
 3761TIP3    H132918   4.445   3.479   8.117  3.3218  0.2636  0.3361
 3761TIP3    H232919   4.459   3.477   8.268 -2.3088  0.3692  1.0476
 3762TIP3   OH232920   2.118   0.183   0.902 -0.3621  0.0517 -0.1534
 3762TIP3    H132921   2.205   0.178   0.941  0.0024  0.3932 -0.8890
 3762TIP3    H232922   2.080   0.096   0.914  0.1859 -0.1724 -0.0514
 3763TIP3   OH232923   4.135   6.637   9.157 -0.0709  0.4354  0.0504
 3763TIP3    H132924   4.098   6.716   9.196  0.0075  0.0799  0.8842
 3763TIP3    H232925   4.099   6.565   9.210 -0.3989 -0.1103 -0.9017
 3764TIP3   OH232926   2.102   1.849   8.031  0.2759  0.4695  0.1423
 3764TIP3    H132927   2.061   1.878   7.950 -0.5118  0.0327  0.3692
 3764TIP3    H232928   2.118   1.929   8.081  1.1606  0.7776 -0.6147
 3765TIP3   OH232929   1.795   4.725   8.301 -0.2837  0.3897 -0.0539
 3765TIP3    H132930   1.817   4.654   8.241 -1.0644  2.2081 -2.6826
 3765TIP3    H232931   1.701   4.715   8.318 -0.1451  0.1040  0.5521
 3766TIP3   OH232932   2.994   0.835   2.389 -0.3946  0.8721  0.3397
 3766TIP3    H132933   3.048   0.899   2.436 -0.5898  0.9336  0.4811
 3766TIP3    H232934   2.985   0.872   2.301  1.4148 -0.0813 -0.2884
 3767TIP3   OH232935   0.667   2.292   1.164  0.1110  0.0558 -0.5096
 3767TIP3    H132936   0.582   2.247   1.164  0.0457  0.1147 -2.1734
 3767TIP3    H232937   0.728   2.226   1.199 -0.5545 -0.0624  0.4914
 3768TIP3   OH232938   5.247   0.919   0.540 -0.2579  0.3368  0.6229
 3768TIP3    H132939   5.247   1.012   0.564  0.3165  0.0686  1.7323
 3768TIP3    H232940   5.324   0.909   0.485 -2.9298  1.4939 -3.8493
 3769TIP3   OH232941   0.246   0.760   0.724  0.3080 -0.4363  0.7859
 3769TIP3    H132942   0.189   0.800   0.789 -3.0515  1.0815 -2.7296
 3769TIP3    H232943   0.289   0.834   0.681 -0.5865 -1.0048 -1.2041
 3770TIP3   OH232944   0.375   2.307   2.528  0.2640  0.5647  0.2159
 3770TIP3    H132945   0.455   2.326   2.576  0.3577 -1.8728  1.1726
 3770TIP3    H232946   0.364   2.212   2.536 -0.9445  0.3520 -2.7083
 3771TIP3   OH232947   3.548   4.347   8.247 -0.2357  0.1864 -0.6229
 3771TIP3    H132948   3.588   4.266   8.279 -2.6521 -0.6286  0.6289
 3771TIP3    H232949   3.473   4.316   8.194  0.3411  1.6124 -2.3752
 3772TIP3   OH232950   2.273   3.316   2.055  0.1005  0.3817 -0.2564
 3772TIP3    H132951   2.330   3.325   2.131  0.0366  1.9533 -0.3501
 3772TIP3    H232952   2.192   3.280   2.090  0.7702 -0.8848  0.0512
 3773TIP3   OH232953   0.485   1.357   2.274 -1.4232  0.0676 -0.1595
 3773TIP3    H132954   0.415   1.419   2.293 -0.8137  0.1810  1.9330
 3773TIP3    H232955   0.469   1.283   2.332  0.2776  0.2029  0.5526
 3774TIP3   OH232956   0.378   5.577   0.944  0.0780 -0.3672 -0.4106
 3774TIP3    H132957   0.326   5.498   0.956 -0.4182 -0.3034 -1.9518
 3774TIP3    H232958   0.315   5.645   0.921  0.5416  0.4151  0.5414
 3775TIP3   OH232959   3.191   2.015   2.747 -0.1868 -0.6670  0.1369
 3775TIP3    H132960   3.267   1.971   2.783  0.4864  0.1783 -0.1959
 3775TIP3    H232961   3.124   1.947   2.738  0.7609 -1.5705 -0.2179
 3776TIP3   OH232962   2.029   2.751   8.941  0.1358  0.3146 -0.0157
 3776TIP3    H132963   1.964   2.819   8.961  0.9492  1.0774  0.1436
 3776TIP3    H232964   2.017   2.686   9.010  2.2118  2.4176  2.5790
 3777TIP3   OH232965   6.563   4.963   8.836  0.2030  0.0966 -0.5658
 3777TIP3    H132966   6.611   5.021   8.895  3.5070 -3.1310  0.3087
 3777TIP3    H232967   6.478   4.952   8.877  0.5130  2.0603  0.7226
 3778TIP3   OH232968   5.288   5.002   7.266 -0.3283 -0.8034  0.1999
 3778TIP3    H132969   5.285   5.097   7.249 -1.7482 -0.8977 -0.1732
 3778TIP3    H232970   5.198   4.979   7.289 -0.6758 -2.5299 -2.4533
 3779TIP3   OH232971   4.074   1.943   7.479  0.7680 -0.6288  0.0018
 3779TIP3    H132972   4.059   1.975   7.390  0.5804 -0.1275  0.2057
 3779TIP3    H232973   4.105   2.020   7.527 -0.0010 -0.6582  0.5842
 3780TIP3   OH232974   2.285   4.376   1.827  0.1478  0.1421 -0.1019
 3780TIP3    H132975   2.358   4.315   1.818 -2.0644 -2.4911 -1.6227
 3780TIP3    H232976   2.289   4.430   1.748 -1.4402 -2.3561 -2.0283
 3781TIP3   OH232977   2.533   0.457   7.857  0.2746  0.0101 -0.3795
 3781TIP3    H132978   2.618   0.414   7.863  0.6981  0.7650 -0.9944
 3781TIP3    H232979   2.493   0.420   7.778 -0.5972 -1.4285  0.6761
 3782TIP3   OH232980   2.743   0.337   1.067 -0.6778  0.2639  0.2389
 3782TIP3    H132981   2.813   0.304   1.123 -1.6629 -1.7998  0.3326
 3782TIP3    H232982   2.695   0.398   1.123 -1.5681 -1.6541  1.7065
 3783TIP3   OH232983   1.525   4.512   7.603 -0.9746  0.5050  0.5863
 3783TIP3    H132984   1.495   4.473   7.521  1.1645  1.8914 -0.9566
 3783TIP3    H232985   1.601   4.459   7.628 -1.6736  0.0282  1.7786
 3784TIP3   OH232986   5.569   3.558   8.294 -0.3343  0.2707  0.2940
 3784TIP3    H132987   5.556   3.653   8.289 -0.9164  0.1598 -0.5278
 3784TIP3    H232988   5.584   3.532   8.203  0.9184 -0.2786  0.6463
 3785TIP3   OH232989   2.761   1.606   8.092 -0.1456 -1.2806 -0.8657
 3785TIP3    H132990   2.847   1.644   8.110  0.0772 -2.2678  0.3132
 3785TIP3    H232991   2.719   1.602   8.178 -2.3562  1.3774 -1.6900
 3786TIP3   OH232992   1.797   1.765   1.471 -0.3969  0.0314 -0.4445
 3786TIP3    H132993   1.822   1.763   1.379 -0.0733  1.3169 -0.3972
 3786TIP3    H232994   1.861   1.823   1.512 -1.8352  1.2463  0.1676
 3787TIP3   OH232995   4.488   4.028   8.086  0.0120  0.0540  0.0821
 3787TIP3    H132996   4.430   3.998   8.016 -2.9125  3.4444  0.7878
 3787TIP3    H232997   4.469   3.969   8.159  0.1787 -1.0551 -0.7305
 3788TIP3   OH232998   4.184   4.527   0.266  0.3952 -0.3578 -0.4240
 3788TIP3    H132999   4.137   4.572   0.336 -1.6070 -1.1686 -1.1658
 3788TIP3    H233000   4.196   4.438   0.299  2.6198  0.1336  0.2579
 3789TIP3   OH233001   0.852   4.398   6.620 -0.6855  0.0887  0.0029
 3789TIP3    H133002   0.843   4.491   6.603 -0.1658  0.3567  1.0988
 3789TIP3    H233003   0.928   4.391   6.678 -1.9380 -0.7966  1.6083
 3790TIP3   OH233004   0.997   5.424   1.981 -0.5642  0.5321  0.0009
 3790TIP3    H133005   1.027   5.391   2.066  1.2283  1.1834 -0.3326
 3790TIP3    H233006   0.951   5.349   1.942  1.5056 -0.9269  0.1704
 3791TIP3   OH233007   4.657   0.686   8.494 -0.8318  0.1030 -0.5099
 3791TIP3    H133008   4.743   0.652   8.469 -0.3189  0.6248  0.5014
 3791TIP3    H233009   4.664   0.781   8.478 -1.5824  0.0226 -1.4181
 3792TIP3   OH233010   2.434   3.358   2.294  0.0904 -0.0826 -0.0325
 3792TIP3    H133011   2.490   3.331   2.367  0.5978  1.7206  0.2823
 3792TIP3    H233012   2.416   3.450   2.310 -0.3684  0.1754 -1.8263
 3793TIP3   OH233013   6.200   6.103   7.810 -0.3368 -0.3173  1.0180
 3793TIP3    H133014   6.196   6.169   7.740 -1.4194 -0.9567  0.4467
 3793TIP3    H233015   6.290   6.069   7.804  0.6421  1.8394  2.0790
 3794TIP3   OH233016   5.745   0.324   0.709 -0.2628  0.4813  0.1841
 3794TIP3    H133017   5.817   0.264   0.728 -0.4545  0.4911  0.9566
 3794TIP3    H233018   5.693   0.278   0.642  0.6188  0.6152 -0.6210
 3795TIP3   OH233019   6.484   2.233   1.726 -0.4186  0.3708 -0.2850
 3795TIP3    H133020   6.512   2.146   1.698  0.3002  0.4622  0.0981
 3795TIP3    H233021   6.504   2.290   1.652  0.4462  0.4309 -0.0247
 3796TIP3   OH233022   1.153   1.073   1.134 -0.2107 -0.1688  0.0383
 3796TIP3    H133023   1.219   1.005   1.133 -0.0255 -0.0975 -3.2436
 3796TIP3    H233024   1.199   1.152   1.163 -0.0516 -0.9781  2.2264
 3797TIP3   OH233025   0.713   4.618   7.675 -0.1371 -0.5535 -0.1526
 3797TIP3    H133026   0.660   4.557   7.622  0.2020 -1.0240  0.0498
 3797TIP3    H233027   0.802   4.606   7.643  0.0474 -0.7247  0.4094
 3798TIP3   OH233028   1.848   5.246   8.683  0.0883  0.2047  0.5930
 3798TIP3    H133029   1.853   5.342   8.687  0.3431  0.1553  1.6275
 3798TIP3    H233030   1.760   5.225   8.712  0.1723  0.1019  0.7732
 3799TIP3   OH233031   6.456   2.370   0.654  0.1984  0.3947  0.4349
 3799TIP3    H133032   6.385   2.378   0.718  0.4051  1.8042  0.5233
 3799TIP3    H233033   6.527   2.329   0.702  0.5875  2.0462  1.3602
 3800TIP3   OH233034   4.067   0.710   2.132  0.3107  0.1458 -0.1480
 3800TIP3    H133035   4.091   0.795   2.096  0.4256  0.2836  0.2475
 3800TIP3    H233036   3.971   0.712   2.136  0.2727 -0.0502 -0.8708
 3801TIP3   OH233037   0.425   1.404   0.484 -0.0653  0.1760 -0.1146
 3801TIP3    H133038   0.347   1.357   0.517  0.6295 -0.7650  0.2342
 3801TIP3    H233039   0.423   1.390   0.389  0.3911 -0.9963  0.0333
 3802TIP3   OH233040   0.859   2.220   2.524  0.4767  0.2815  0.2078
 3802TIP3    H133041   0.855   2.270   2.442  3.2512  1.3183  0.5680
 3802TIP3    H233042   0.873   2.130   2.497 -0.2711  0.3489 -0.4423
 3803TIP3   OH233043   4.022   2.040   2.108  0.9500  1.2781 -0.2091
 3803TIP3    H133044   4.046   1.969   2.168  2.4517  2.1127  0.2122
 3803TIP3    H233045   4.003   1.995   2.026 -0.3655  0.1864  0.6365
 3804TIP3   OH233046   3.668   3.136   8.476 -0.6773 -0.4036  0.4106
 3804TIP3    H133047   3.658   3.212   8.420 -1.0356 -0.2704  0.6521
 3804TIP3    H233048   3.752   3.097   8.449 -1.1785 -0.7559 -0.7063
 3805TIP3   OH233049   6.275   5.788   7.572  0.1398  0.1514 -0.4079
 3805TIP3    H133050   6.216   5.811   7.501  0.5040 -0.3562 -0.8854
 3805TIP3    H233051   6.220   5.745   7.637 -0.6125  2.5244  0.6352
 3806TIP3   OH233052   5.125   1.333   9.170  0.2294  0.2743 -0.5096
 3806TIP3    H133053   5.177   1.304   9.094 -0.4427 -1.8059 -0.2498
 3806TIP3    H233054   5.099   1.252   9.213 -2.3088  1.2759  0.0135
 3807TIP3   OH233055   6.544   5.191   1.859  0.0583 -0.6321  0.1448
 3807TIP3    H133056   6.481   5.139   1.908 -0.4485 -0.6563 -0.5160
 3807TIP3    H233057   6.545   5.276   1.904 -0.7974 -0.4770 -0.1092
 3808TIP3   OH233058   0.476   0.740   2.795  0.6261 -0.6715 -0.1506
 3808TIP3    H133059   0.494   0.695   2.712 -0.4069 -0.2321 -0.6195
 3808TIP3    H233060   0.433   0.822   2.770 -2.0446 -1.6529  0.8806
 3809TIP3   OH233061   6.645   3.242   2.165 -0.5576  0.5650  0.8801
 3809TIP3    H133062   6.655   3.324   2.214  0.8201 -0.5416  2.5634
 3809TIP3    H233063   6.734   3.215   2.145 -1.0454  0.1149 -0.8301
 3810TIP3   OH233064   2.962   3.136   8.719  0.2232  0.9950 -0.3954
 3810TIP3    H133065   3.024   3.086   8.772 -1.7363 -1.3579 -0.1972
 3810TIP3    H233066   3.005   3.147   8.634  0.8089 -0.8935 -0.3727
 3811TIP3   OH233067   0.509   0.837   8.252 -0.9172  0.0784  0.0462
 3811TIP3    H133068   0.602   0.814   8.259 -1.0605 -0.9829 -1.3162
 3811TIP3    H233069   0.473   0.818   8.339  0.3947  1.8854  1.0658
 3812TIP3   OH233070   5.563   2.580   9.079  0.5514  0.1178  0.2442
 3812TIP3    H133071   5.498   2.647   9.057 -0.0976 -1.1456 -2.0204
 3812TIP3    H233072   5.548   2.561   9.172 -1.7078  0.5007  0.0044
 3813TIP3   OH233073   2.238   0.972   0.728 -0.0331 -0.0378  0.4122
 3813TIP3    H133074   2.155   0.987   0.683  0.0106 -1.4905 -0.2082
 3813TIP3    H233075   2.219   0.989   0.820 -0.7673  0.5819  0.1532
 3814TIP3   OH233076   2.160   5.978   8.151  0.2733  0.0117 -0.9309
 3814TIP3    H133077   2.192   5.931   8.228 -2.1979  1.2434  0.9908
 3814TIP3    H233078   2.207   6.062   8.153 -1.0865  0.7850  0.3859
 3815TIP3   OH233079   6.014   2.250   2.364 -0.0959  0.2933  0.3776
 3815TIP3    H133080   5.978   2.318   2.421  0.1563  1.0046 -0.2918
 3815TIP3    H233081   6.106   2.243   2.391 -0.0443  0.4374  0.2380
 3816TIP3   OH233082   5.650   4.361   2.111  0.1306 -0.3914  0.0422
 3816TIP3    H133083   5.594   4.284   2.113  0.8780 -0.9303  0.8963
 3816TIP3    H233084   5.605   4.425   2.167 -1.9004  0.8616 -2.7821
 3817TIP3   OH233085   2.087   4.301   8.105 -0.0688  0.0580 -0.0807
 3817TIP3    H133086   2.067   4.309   8.198  0.3868  1.9924 -0.0975
 3817TIP3    H233087   2.011   4.339   8.060 -0.0299 -0.3175 -0.4764
 3818TIP3   OH233088   0.202   2.502   2.516 -0.0781 -0.9345 -0.0683
 3818TIP3    H133089   0.163   2.499   2.429  0.7089 -1.3318 -0.4200
 3818TIP3    H233090   0.272   2.436   2.514 -0.1437 -1.0549  0.9109
 3819TIP3   OH233091   0.285   2.265   8.716 -0.2846 -0.1289  0.8320
 3819TIP3    H133092   0.319   2.353   8.730  1.5198 -0.8699  1.3123
 3819TIP3    H233093   0.201   2.265   8.762 -0.5905  1.4861  0.3525
 3820TIP3   OH233094   5.527   1.073   8.929 -0.4724  0.6093  0.3059
 3820TIP3    H133095   5.549   0.994   8.881 -0.8412  0.3195  0.6120
 3820TIP3    H233096   5.535   1.143   8.864 -1.0329  0.2123 -0.1967
 3821TIP3   OH233097   3.275   1.636   8.730 -0.3129  0.2195 -0.3278
 3821TIP3    H133098   3.252   1.698   8.799  2.2736  0.9604 -0.0219
 3821TIP3    H233099   3.235   1.553   8.757  0.4200  0.5603  1.9432
 3822TIP3   OH233100   1.776   1.933   8.336 -0.4489  0.3387  0.0042
 3822TIP3    H133101   1.847   1.907   8.394 -0.6391  0.5758  0.3487
 3822TIP3    H233102   1.763   1.858   8.278  0.3344  0.4383 -0.3132
 3823TIP3   OH233103   3.712   4.254   8.005  0.3285 -0.0290 -0.5124
 3823TIP3    H133104   3.804   4.268   8.028  0.7903 -0.9922 -1.6806
 3823TIP3    H233105   3.711   4.252   7.910 -0.7438 -0.9678 -0.5083
 3824TIP3   OH233106   2.614   1.453   1.547  0.6599  0.2868 -0.5008
 3824TIP3    H133107   2.624   1.374   1.494 -1.4879  0.9820 -2.0714
 3824TIP3    H233108   2.633   1.525   1.487  0.3359  1.0341  0.2824
 3825TIP3   OH233109   6.167   3.740   0.013 -0.3975 -0.2647  0.1861
 3825TIP3    H133110   6.245   3.693   0.045 -0.8973 -0.9940  0.3773
 3825TIP3    H233111   6.122   3.676  -0.043 -1.3316 -0.1792  0.8117
 3826TIP3   OH233112   3.946   6.348   7.971 -0.8516 -0.2720 -0.2997
 3826TIP3    H133113   3.902   6.361   8.055  0.3348 -2.7193  0.8003
 3826TIP3    H233114   4.034   6.383   7.984 -1.1671  0.8909 -1.1350
 3827TIP3   OH233115   3.035   6.217   7.295  0.1969 -0.2205 -0.2193
 3827TIP3    H133116   2.987   6.217   7.378  1.3800  2.3922  0.5780
 3827TIP3    H233117   3.074   6.304   7.290  0.2145 -0.2914 -3.5373
 3828TIP3   OH233118   0.379   2.064   1.992  0.2847  0.1571  0.1002
 3828TIP3    H133119   0.325   1.985   1.998  0.8455 -0.4800 -2.1649
 3828TIP3    H233120   0.334   2.119   1.928  0.9083  0.8260  0.2225
 3829TIP3   OH233121   0.449   5.678   2.002  0.1836  0.3554 -0.4567
 3829TIP3    H133122   0.443   5.600   2.057  0.1427  0.1922 -0.6900
 3829TIP3    H233123   0.462   5.750   2.064 -1.6273  0.4188 -0.0821
 3830TIP3   OH233124   5.557   0.947   1.300 -0.3899 -0.1104  0.5495
 3830TIP3    H133125   5.604   0.941   1.216 -1.7515  3.9254 -0.7542
 3830TIP3    H233126   5.623   0.979   1.362 -0.1122  0.0640  0.1697
 3831TIP3   OH233127   4.335   0.962   2.654  0.7806  0.0911  0.1718
 3831TIP3    H133128   4.280   1.039   2.645 -0.4922 -0.6863  1.0085
 3831TIP3    H233129   4.400   0.986   2.720 -0.4954  0.0035  1.5113
 3832TIP3   OH233130   0.466   2.471   0.945  0.0995  0.3387  0.2779
 3832TIP3    H133131   0.406   2.441   1.014  0.3284 -1.4679 -0.2557
 3832TIP3    H233132   0.443   2.418   0.869  2.2182 -0.2641  0.0014
 3833TIP3   OH233133   5.329   4.204   8.388 -0.1000 -0.6638 -0.6144
 3833TIP3    H133134   5.275   4.231   8.313  0.8332 -1.2340 -1.5286
 3833TIP3    H233135   5.304   4.113   8.403  0.1563 -0.7377 -0.6370
 3834TIP3   OH233136   5.744   4.659   0.778 -0.0220 -0.6360  0.4767
 3834TIP3    H133137   5.695   4.577   0.782  1.9440 -1.8699  0.6932
 3834TIP3    H233138   5.730   4.699   0.864 -1.6911 -0.2752  0.0671
 3835TIP3   OH233139   5.102   1.862   1.794  0.7603  0.4106  0.6275
 3835TIP3    H133140   5.165   1.816   1.848  0.6948 -0.4322  0.0143
 3835TIP3    H233141   5.150   1.936   1.757  1.9010 -1.1168 -1.1145
 3836TIP3   OH233142   2.949   0.440   1.801 -0.4152 -0.3598  1.0542
 3836TIP3    H133143   2.857   0.416   1.789 -1.2867  1.9404  2.3329
 3836TIP3    H233144   2.963   0.432   1.895  0.8649 -1.1466  0.8120
 3837TIP3   OH233145   5.457   4.913   8.831  0.3867  0.2790  0.8995
 3837TIP3    H133146   5.509   4.909   8.751 -2.8627 -0.1451 -1.4379
 3837TIP3    H233147   5.502   4.976   8.887  2.5342  1.0239 -1.5169
 3838TIP3   OH233148   2.540   3.631   8.052  0.0045 -0.1897 -0.1374
 3838TIP3    H133149   2.471   3.567   8.074  0.9110 -0.8153  0.9880
 3838TIP3    H233150   2.591   3.588   7.984  1.5117 -1.3907  1.6376
 3839TIP3   OH233151   1.581   4.494   1.649  0.9264  0.0202 -0.3415
 3839TIP3    H133152   1.647   4.454   1.592 -0.9354  0.1005 -2.7315
 3839TIP3    H233153   1.520   4.536   1.588 -0.9923  0.4833  1.7884
 3840TIP3   OH233154   4.688   6.590   7.629  0.0719 -0.3447  0.4663
 3840TIP3    H133155   4.729   6.668   7.592  0.4163 -0.6884  0.1054
 3840TIP3    H233156   4.730   6.579   7.714  0.4363 -0.4594  0.2735
 3841TIP3   OH233157   2.269   1.633   8.176  0.0648 -0.0329  0.2384
 3841TIP3    H133158   2.224   1.693   8.116  2.5164  1.5656 -0.1460
 3841TIP3    H233159   2.275   1.681   8.258  3.4565  1.0620 -0.5194
 3842TIP3   OH233160   1.613   2.729   1.711  0.4978 -0.0359  0.4285
 3842TIP3    H133161   1.637   2.811   1.668  1.9199 -0.1791  0.9109
 3842TIP3    H233162   1.519   2.737   1.725  0.8172  2.2065  1.8233
 3843TIP3   OH233163   3.539   6.116   8.804 -0.2407  0.1254 -0.1835
 3843TIP3    H133164   3.572   6.178   8.739 -1.3424 -0.7065 -1.5902
 3843TIP3    H233165   3.569   6.030   8.773 -0.4530 -0.2556  0.6249
 3844TIP3   OH233166   2.360   4.719   7.886  0.4673 -0.1503 -0.4022
 3844TIP3    H133167   2.299   4.647   7.872 -0.0543  0.3253 -0.6038
 3844TIP3    H233168   2.307   4.790   7.920  0.8683  0.3374 -0.7686
 3845TIP3   OH233169   2.969   3.683   7.120 -0.2583  0.2170  0.0913
 3845TIP3    H133170   2.938   3.621   7.054 -0.2696 -1.1953  1.3563
 3845TIP3    H233171   3.053   3.647   7.149 -0.6472  0.3272  1.4286
 3846TIP3   OH233172   1.147   2.843   2.005  0.0527  0.2803 -0.1368
 3846TIP3    H133173   1.133   2.932   2.035  1.1116  0.3366  0.2188
 3846TIP3    H233174   1.242   2.830   2.009 -0.2149 -1.5526  1.8064
 3847TIP3   OH233175   0.113   1.384   8.198 -0.4333 -0.0949 -0.3364
 3847TIP3    H133176   0.208   1.397   8.196 -0.1472 -1.8663 -0.0469
 3847TIP3    H233177   0.085   1.419   8.282  0.1308 -0.4123 -0.0062
 3848TIP3   OH233178   5.073   0.751   1.263  0.4075  0.4029 -0.0027
 3848TIP3    H133179   5.156   0.793   1.237 -0.0109  2.3658  1.6090
 3848TIP3    H233180   5.015   0.764   1.188  1.3402 -0.4943 -0.9224
 3849TIP3   OH233181   3.135   2.260   1.185  0.0276  0.6112 -0.5305
 3849TIP3    H133182   3.047   2.295   1.200 -0.4690 -0.4057 -0.9768
 3849TIP3    H233183   3.194   2.326   1.224 -0.9699  0.6446  1.0192
 3850TIP3   OH233184   4.302   5.724   7.167  0.2423 -0.1126 -0.1293
 3850TIP3    H133185   4.281   5.718   7.074  0.8898  1.2939 -0.4007
 3850TIP3    H233186   4.235   5.783   7.203 -0.0014 -0.6442  0.2976
 3851TIP3   OH233187   3.621   6.240   2.706  0.2320  0.2268  0.0263
 3851TIP3    H133188   3.573   6.215   2.627  2.0687 -1.1543 -0.7146
 3851TIP3    H233189   3.571   6.201   2.777 -0.8302  0.5248 -0.5315
 3852TIP3   OH233190   0.198   0.527   2.351  0.0594  0.2387  0.7113
 3852TIP3    H133191   0.142   0.599   2.324 -0.8549 -0.6573  0.1499
 3852TIP3    H233192   0.287   0.559   2.338 -0.2815  0.0701 -3.0375
 3853TIP3   OH233193   2.254   6.092   2.467  0.2413 -0.6290 -0.6851
 3853TIP3    H133194   2.238   6.041   2.547  0.5208 -0.0050 -0.2266
 3853TIP3    H233195   2.346   6.077   2.447  0.7921  1.0382  0.4280
 3854TIP3   OH233196   6.097   6.072   0.994 -0.4516 -0.2466  0.1902
 3854TIP3    H133197   6.122   6.021   0.917  1.1139 -0.9863  1.1394
 3854TIP3    H233198   6.160   6.143   0.998  0.2797 -0.9223  1.4427
 3855TIP3   OH233199   0.817   0.437   1.403 -0.0196  0.0445  0.8693
 3855TIP3    H133200   0.854   0.359   1.362 -1.6125  0.1297 -0.8489
 3855TIP3    H233201   0.803   0.412   1.494  0.8664 -1.1797  0.6864
 3856TIP3   OH233202   6.498   2.420   8.979  0.1767  0.0412  0.0553
 3856TIP3    H133203   6.427   2.454   8.925  0.2154  0.7511  0.4342
 3856TIP3    H233204   6.543   2.498   9.012  1.6793 -0.3750 -0.8906
 3857TIP3   OH233205   1.210   5.785   1.003 -0.1517 -0.8214  0.2307
 3857TIP3    H133206   1.275   5.852   0.987 -2.0104  0.5945 -1.8878
 3857TIP3    H233207   1.242   5.708   0.955 -0.2536  0.0210 -1.2404
 3858TIP3   OH233208   0.593   3.753   8.216 -0.8641 -0.0386 -0.6129
 3858TIP3    H133209   0.658   3.683   8.224  0.6519  1.1255 -2.0143
 3858TIP3    H233210   0.620   3.817   8.282  0.7625  1.3921 -2.5592
 3859TIP3   OH233211   2.238   0.108   1.568 -0.3765  0.6843 -0.3940
 3859TIP3    H133212   2.159   0.110   1.515 -0.4929 -3.2030 -0.6545
 3859TIP3    H233213   2.299   0.052   1.519  1.5177  1.2912  1.1184
 3860TIP3   OH233214   4.860   0.681   1.888 -0.1105  0.1918  0.0789
 3860TIP3    H133215   4.910   0.616   1.839 -0.5657 -1.1916  1.3579
 3860TIP3    H233216   4.780   0.694   1.836  0.0932 -0.0825 -0.3082
 3861TIP3   OH233217   0.581   1.604   8.290  0.1616 -0.3371 -0.0694
 3861TIP3    H133218   0.523   1.564   8.356 -0.4120 -0.3674 -0.5754
 3861TIP3    H233219   0.597   1.692   8.323  0.9149 -0.7555  0.7403
 3862TIP3   OH233220   1.711   0.291   1.349 -0.2357 -0.6976  0.1449
 3862TIP3    H133221   1.788   0.254   1.391  0.1126 -0.9057 -0.6841
 3862TIP3    H233222   1.743   0.329   1.267 -0.4440  1.9760  1.1862
 3863TIP3   OH233223   2.690   4.239   8.259  0.3559 -0.6840 -0.3515
 3863TIP3    H133224   2.720   4.311   8.204 -1.0979 -1.1509 -1.8393
 3863TIP3    H233225   2.596   4.232   8.239  0.2120 -2.1716  0.7160
 3864TIP3   OH233226   2.377   5.106   7.544 -0.2377  0.2249  0.1401
 3864TIP3    H133227   2.330   5.051   7.481 -0.6805  0.6192  0.1184
 3864TIP3    H233228   2.338   5.084   7.629  0.8411 -0.8236  0.3957
 3865TIP3   OH233229   4.454   6.574   2.263 -0.0030  0.0955 -0.3367
 3865TIP3    H133230   4.370   6.562   2.217 -0.7914 -0.5588  1.2248
 3865TIP3    H233231   4.517   6.524   2.211 -1.3234 -2.6210  0.5442
 3866TIP3   OH233232   0.876   1.999   2.095  0.0914 -0.5566 -0.4769
 3866TIP3    H133233   0.924   2.025   2.016 -0.3744 -2.7859 -1.5570
 3866TIP3    H233234   0.785   2.018   2.075  0.0583 -0.3206 -0.1109
 3867TIP3   OH233235   4.347   5.020   2.088 -0.5931 -1.0123 -0.5246
 3867TIP3    H133236   4.426   4.967   2.082  0.2791 -0.0710  1.6910
 3867TIP3    H233237   4.307   5.013   2.001  0.8897 -3.0550 -1.1140
 3868TIP3   OH233238   3.948   6.209   0.192  0.4585  0.4852 -0.3534
 3868TIP3    H133239   4.039   6.213   0.220  0.6142  0.0285 -0.7748
 3868TIP3    H233240   3.942   6.128   0.140 -0.3067  0.2428  0.0911
 3869TIP3   OH233241   6.510   6.124   8.307  0.2163 -0.0950  0.0754
 3869TIP3    H133242   6.493   6.078   8.225  0.7946  0.7989 -0.5604
 3869TIP3    H233243   6.588   6.082   8.342  0.6516  0.2916 -0.4227
 3870TIP3   OH233244   3.572   4.734   7.795  0.2544  0.3435 -0.8402
 3870TIP3    H133245   3.657   4.699   7.819  0.2768 -0.4556 -2.0465
 3870TIP3    H233246   3.544   4.782   7.873  1.3751 -0.1737 -0.0886
 3871TIP3   OH233247   3.340   2.712   8.636  0.0943  0.2502  0.0249
 3871TIP3    H133248   3.409   2.675   8.581 -0.7164 -1.6491  0.2040
 3871TIP3    H233249   3.342   2.659   8.716 -0.2419  1.4977  0.8939
 3872TIP3   OH233250   5.076   4.331   2.776  0.5500  0.1055  0.0722
 3872TIP3    H133251   5.022   4.271   2.724  0.0885  0.7465 -0.2000
 3872TIP3    H233252   5.149   4.353   2.719  0.3842  0.3009 -0.0648
 3873TIP3   OH233253   3.058   3.020   0.518 -0.5349 -0.3124  0.2539
 3873TIP3    H133254   3.099   3.043   0.434 -0.7767 -0.6209  0.0495
 3873TIP3    H233255   3.110   3.067   0.583  0.9730 -1.7181  0.1214
 3874TIP3   OH233256   4.023   0.435   2.525 -0.2048  0.0457  0.0889
 3874TIP3    H133257   3.957   0.457   2.591 -1.8765 -1.2870 -1.0649
 3874TIP3    H233258   4.033   0.514   2.473 -0.2439  0.5246  0.8034
 3875TIP3   OH233259   2.577   5.429   2.444 -0.2870  0.0045 -0.3456
 3875TIP3    H133260   2.620   5.480   2.513  0.4031 -0.7295 -0.2154
 3875TIP3    H233261   2.565   5.342   2.483 -2.1871  0.2623 -0.2785
 3876TIP3   OH233262   2.514   0.518   8.213 -0.2028 -0.3314 -0.1670
 3876TIP3    H133263   2.522   0.600   8.165 -1.9530 -0.4419 -0.7072
 3876TIP3    H233264   2.420   0.498   8.212 -0.0102 -1.5294  1.3184
 3877TIP3   OH233265   5.126   2.543   2.083 -0.1727  0.2927  0.0816
 3877TIP3    H133266   5.201   2.589   2.045  0.8778  0.6016  2.3588
 3877TIP3    H233267   5.055   2.557   2.020  1.8741 -0.9706 -2.7519
 3878TIP3   OH233268   1.704   5.789   1.108  0.4867 -0.0128  0.2840
 3878TIP3    H133269   1.721   5.750   1.022  0.6995  2.2108 -0.7605
 3878TIP3    H233270   1.609   5.780   1.120  0.4483 -0.3145 -0.2031
 3879TIP3   OH233271   6.107   5.603   1.421  0.4564  0.1667 -0.4377
 3879TIP3    H133272   6.117   5.615   1.516  1.0645 -0.3306 -0.4286
 3879TIP3    H233273   6.030   5.547   1.412  0.4119  0.1923 -0.2331
 3880TIP3   OH233274   5.315   6.367   7.135 -0.2608  0.1120  0.0183
 3880TIP3    H133275   5.228   6.397   7.161 -0.1901  1.0131 -0.7249
 3880TIP3    H233276   5.300   6.284   7.091 -0.7886  0.4363 -0.4189
 3881TIP3   OH233277   3.785   6.002   8.514 -0.1233 -0.6255 -0.6067
 3881TIP3    H133278   3.850   5.981   8.448  0.2813 -2.6276  0.3376
 3881TIP3    H233279   3.832   6.055   8.578 -0.3190  0.6695 -1.5018
 3882TIP3   OH233280   2.675   3.344   2.167  0.0964 -0.1105 -0.3168
 3882TIP3    H133281   2.597   3.297   2.195  1.2407 -1.7144  0.2802
 3882TIP3    H233282   2.715   3.376   2.248  0.8341 -0.5704 -0.4915
 3883TIP3   OH233283   1.586   6.494   1.119 -0.0648 -0.5107  0.1715
 3883TIP3    H133284   1.586   6.410   1.074 -2.1896  0.0470 -0.9699
 3883TIP3    H233285   1.574   6.473   1.211  0.0285 -1.4613 -0.0289
 3884TIP3   OH233286   2.847   1.700   8.455 -0.8601  0.2680  0.3825
 3884TIP3    H133287   2.788   1.630   8.426 -1.3902  1.0669 -0.5219
 3884TIP3    H233288   2.905   1.658   8.518 -1.5125 -0.8617  0.2501
 3885TIP3   OH233289   2.108   5.683   1.890 -0.2689 -0.3574  0.5245
 3885TIP3    H133290   2.013   5.686   1.878  0.0303 -0.0191 -2.3067
 3885TIP3    H233291   2.127   5.592   1.914 -1.3027 -0.3470  1.4692
 3886TIP3   OH233292   2.425   2.208   7.412  0.1335 -0.1693 -0.1644
 3886TIP3    H133293   2.496   2.151   7.381  0.4027 -0.3042  0.6514
 3886TIP3    H233294   2.467   2.293   7.426  0.0392 -0.1344 -0.0959
 3887TIP3   OH233295   4.587   0.077   8.998  0.0999 -0.6462  0.2708
 3887TIP3    H133296   4.522   0.097   9.066 -0.4959  3.3287 -1.1678
 3887TIP3    H233297   4.540   0.022   8.935 -1.4731  0.9150  0.0057
 3888TIP3   OH233298   3.137   4.736   8.035 -0.6010 -0.5163 -0.1896
 3888TIP3    H133299   3.178   4.760   7.952 -0.7053 -0.2369 -0.1617
 3888TIP3    H233300   3.055   4.785   8.036 -0.7329 -0.7404 -0.0499
 3889TIP3   OH233301   3.265   3.446   8.258  0.3723 -0.0180 -0.0210
 3889TIP3    H133302   3.275   3.351   8.251  0.0891  0.0302 -1.5000
 3889TIP3    H233303   3.274   3.465   8.351 -0.6737 -1.6232  0.4430
 3890TIP3   OH233304   4.496   6.666   2.995 -0.0983  0.0683 -0.1578
 3890TIP3    H133305   4.510   6.687   3.087  0.4258 -0.7886 -0.0273
 3890TIP3    H233306   4.584   6.669   2.956 -0.4836  1.9094 -0.9820
 3891TIP3   OH233307   0.755   0.784   0.017 -0.1478  0.0719  0.3657
 3891TIP3    H133308   0.750   0.696  -0.019 -1.0017 -0.2048  1.1027
 3891TIP3    H233309   0.825   0.827  -0.032 -1.1147 -0.3331 -1.4688
 3892TIP3   OH233310   2.840   3.704   1.860 -0.9178 -0.1935 -0.1332
 3892TIP3    H133311   2.916   3.649   1.842 -1.6053 -0.5126 -2.4116
 3892TIP3    H233312   2.792   3.657   1.928  1.0094  0.1763  1.5751
 3893TIP3   OH233313   2.339   3.107   1.570 -0.2373 -0.5844 -0.1881
 3893TIP3    H133314   2.319   3.134   1.660  1.5634 -1.4049  0.4964
 3893TIP3    H233315   2.258   3.064   1.540 -1.2652  0.7227  0.5927
 3894TIP3   OH233316   2.733   5.122   0.480 -0.5356  0.0788  0.0438
 3894TIP3    H133317   2.767   5.139   0.568 -0.3760  0.5745 -0.1112
 3894TIP3    H233318   2.678   5.198   0.460  1.2699  1.1370 -1.2094
 3895TIP3   OH233319   3.247   1.822   0.948  0.2099  0.0774  0.7038
 3895TIP3    H133320   3.213   1.846   1.034  2.9486  1.9453  1.3792
 3895TIP3    H233321   3.244   1.903   0.897 -1.0812 -0.9262 -0.9211
 3896TIP3   OH233322   4.369   3.361   0.583 -0.1174  0.6550 -0.1502
 3896TIP3    H133323   4.304   3.310   0.631  1.9194  0.6975  2.9237
 3896TIP3    H233324   4.357   3.451   0.613 -0.1070  1.0781 -1.3433
 3897TIP3   OH233325   4.253   1.750   7.571 -0.6563  0.0943 -0.2286
 3897TIP3    H133326   4.173   1.729   7.618 -0.8928 -0.6679 -0.9314
 3897TIP3    H233327   4.235   1.833   7.527 -0.5521  0.6348  0.7181
 3898TIP3   OH233328   4.789   5.565   0.604  0.3004  0.6045  0.4894
 3898TIP3    H133329   4.694   5.551   0.606  0.2596  0.9076  0.6864
 3898TIP3    H233330   4.822   5.519   0.681  0.8794 -3.5122 -1.8932
 3899TIP3   OH233331   3.813   1.455   8.469 -0.0602 -0.6234  0.1951
 3899TIP3    H133332   3.866   1.381   8.498 -0.5044 -0.4035  1.6694
 3899TIP3    H233333   3.836   1.466   8.376  0.4530 -2.2149  0.0898
 3900TIP3   OH233334   2.981   2.421   7.238 -0.1746  0.1914  0.5780
 3900TIP3    H133335   2.927   2.343   7.234 -0.9618  0.6882  1.2077
 3900TIP3    H233336   2.932   2.487   7.189  0.5989  0.2378 -0.1596
 3901TIP3   OH233337   1.423   3.570   1.616  0.1117  0.8627  0.4877
 3901TIP3    H133338   1.416   3.536   1.527 -1.1867  1.0320  0.5151
 3901TIP3    H233339   1.454   3.495   1.668 -0.6029  0.3261  0.1561
 3902TIP3   OH233340   2.947   1.044   2.721  0.2387 -0.4351  0.3122
 3902TIP3    H133341   2.878   1.045   2.788 -0.5268 -0.7198 -0.4439
 3902TIP3    H233342   2.956   0.951   2.698  0.1208 -0.2882 -0.3423
 3903TIP3   OH233343   2.174   4.977   7.710  0.1076 -0.5482 -0.5938
 3903TIP3    H133344   2.138   4.891   7.686 -2.3007  0.5440 -1.1844
 3903TIP3    H233345   2.120   5.040   7.662  0.9679  1.3658  0.8164
 3904TIP3   OH233346   3.261   4.933   8.824 -0.2463  0.1535 -0.0925
 3904TIP3    H133347   3.307   4.849   8.816  2.6483  1.4519  1.5338
 3904TIP3    H233348   3.280   4.963   8.912 -3.4440  1.3954  0.3160
 3905TIP3   OH233349   1.600   1.294   8.712  0.3152  0.0636 -0.4791
 3905TIP3    H133350   1.687   1.300   8.752 -0.2306 -1.1754  0.9928
 3905TIP3    H233351   1.615   1.256   8.626  1.0990 -1.7651  0.4292
 3906TIP3   OH233352   3.219   3.188   8.226 -0.0049  0.2943  0.2753
 3906TIP3    H133353   3.248   3.190   8.135  0.0228 -1.2428  0.2209
 3906TIP3    H233354   3.197   3.096   8.242 -3.1813  1.0224  0.8451
 3907TIP3   OH233355   5.465   0.394   0.457 -0.5158  0.9325  0.0078
 3907TIP3    H133356   5.416   0.347   0.389  2.0288 -1.2097 -0.4955
 3907TIP3    H233357   5.409   0.469   0.479 -1.9045  1.2300 -3.7460
 3908TIP3   OH233358   0.249   4.789   0.917  0.3288 -0.9951  0.1175
 3908TIP3    H133359   0.206   4.744   0.989  0.7480  0.3175  1.2278
 3908TIP3    H233360   0.272   4.719   0.855 -0.4760 -2.0844  1.0073
 3909TIP3   OH233361   5.478   6.069   7.261 -0.2577  0.1241  0.1765
 3909TIP3    H133362   5.411   6.000   7.258  0.2241 -0.3350 -1.1299
 3909TIP3    H233363   5.461   6.121   7.183 -0.2586  1.1640  0.8589
 3910TIP3   OH233364   6.049   2.918   8.179  0.5500  0.2279 -0.0742
 3910TIP3    H133365   6.070   2.846   8.120  0.2261 -1.0705  1.3449
 3910TIP3    H233366   6.124   2.978   8.171  0.7015 -0.1041 -1.4594
 3911TIP3   OH233367   6.502   6.147   8.951 -0.7448 -0.0161 -0.3029
 3911TIP3    H133368   6.450   6.175   9.026  0.9438 -0.2110  1.0149
 3911TIP3    H233369   6.476   6.056   8.936 -0.7812 -0.1196  0.3560
 3912TIP3   OH233370   6.468   2.733   9.057 -0.5386  0.4122 -0.3110
 3912TIP3    H133371   6.431   2.675   9.124 -1.2056  0.4851 -0.6121
 3912TIP3    H233372   6.400   2.798   9.041 -0.4128  0.3592 -1.1122
 3913TIP3   OH233373   4.602   3.658   7.575  0.0409  0.4800  0.3350
 3913TIP3    H133374   4.523   3.691   7.533  0.2685  0.5401 -0.0472
 3913TIP3    H233375   4.673   3.682   7.516  0.4665  1.3047  1.1493
 3914TIP3   OH233376   2.447   1.686   1.907  0.2296  0.1913 -0.0056
 3914TIP3    H133377   2.416   1.641   1.829  1.8115 -0.3327 -0.3823
 3914TIP3    H233378   2.415   1.776   1.899 -0.0144  0.0160 -1.0227
 3915TIP3   OH233379   4.765   5.279   8.305  0.2797  0.5117 -0.6298
 3915TIP3    H133380   4.703   5.262   8.376  1.7765  2.2888  1.2118
 3915TIP3    H233381   4.825   5.205   8.308 -0.3168  0.0098 -0.8164
 3916TIP3   OH233382   4.116   5.318   8.093 -0.2446  0.1596  0.5851
 3916TIP3    H133383   4.199   5.361   8.112 -0.0210 -0.2397  0.5118
 3916TIP3    H233384   4.049   5.379   8.125  0.1041 -0.4658  2.6961
 3917TIP3   OH233385   0.739   2.370   1.481  0.2887 -0.1574  0.0234
 3917TIP3    H133386   0.828   2.344   1.458 -0.4255 -2.6846 -0.1704
 3917TIP3    H233387   0.683   2.311   1.430 -1.5412  1.7366 -0.2964
 3918TIP3   OH233388   0.681   4.203   1.602  0.2270  0.1451  0.0282
 3918TIP3    H133389   0.694   4.250   1.685 -2.2834 -0.4931  0.8716
 3918TIP3    H233390   0.608   4.249   1.560  3.3481  2.4478 -3.4737
 3919TIP3   OH233391   5.113   2.610   0.497 -0.7136 -0.3561 -0.2932
 3919TIP3    H133392   5.188   2.570   0.454  0.2139  1.3363 -0.3357
 3919TIP3    H233393   5.134   2.607   0.590 -1.0198 -0.6940 -0.2326
 3920TIP3   OH233394   6.246   4.767   1.114 -0.0063  0.1469  0.2779
 3920TIP3    H133395   6.246   4.843   1.172 -1.3486  0.2465  0.1732
 3920TIP3    H233396   6.339   4.745   1.103  0.6006  2.9791 -1.2583
 3921TIP3   OH233397   4.635   2.189   9.166 -0.2973 -0.4241  0.4880
 3921TIP3    H133398   4.710   2.231   9.208  0.1780 -1.0669  0.3044
 3921TIP3    H233399   4.598   2.256   9.109  0.4493 -0.2519  0.1998
 3922TIP3   OH233400   0.699   6.172   1.484 -0.5575  0.1801  0.2389
 3922TIP3    H133401   0.671   6.173   1.393 -0.7262 -0.4584  0.2791
 3922TIP3    H233402   0.791   6.147   1.481 -0.3992  0.7728  0.2027
 3923TIP3   OH233403   3.523   6.168   7.369  0.3503  0.0025  0.3268
 3923TIP3    H133404   3.567   6.237   7.420 -0.2520 -1.1391  2.5372
 3923TIP3    H233405   3.592   6.105   7.349  0.5250  0.2869  0.0183
 3924TIP3   OH233406   1.380   2.688   8.869 -0.0419  0.4226  0.3470
 3924TIP3    H133407   1.287   2.678   8.847  0.0396  0.5931 -0.0925
 3924TIP3    H233408   1.426   2.673   8.786  0.2961  0.8132  0.4597
 3925TIP3   OH233409   6.397   5.618   2.045 -0.0925 -0.4376 -0.0627
 3925TIP3    H133410   6.330   5.672   2.004  0.3334 -0.6449 -1.0719
 3925TIP3    H233411   6.425   5.667   2.122 -0.5383  0.2212 -0.3191
 3926TIP3   OH233412   3.234   0.428   2.453 -0.1398  0.0777  0.2163
 3926TIP3    H133413   3.212   0.336   2.443  1.3035 -0.4133  1.1338
 3926TIP3    H233414   3.222   0.446   2.547 -0.9696  0.9951 -0.0463
 3927TIP3   OH233415   5.505   2.318   0.240  0.6736  0.0293 -0.1568
 3927TIP3    H133416   5.548   2.274   0.313 -0.5690 -0.1526  0.4929
 3927TIP3    H233417   5.565   2.307   0.166  1.0246 -1.5424  0.3284
 3928TIP3   OH233418   3.102   6.468   8.093  0.0306 -0.4126  0.0489
 3928TIP3    H133419   3.060   6.390   8.129 -1.6375  0.0943 -0.7239
 3928TIP3    H233420   3.041   6.501   8.028  0.6609  1.5958  0.4083
 3929TIP3   OH233421   2.845   4.867   0.891 -0.2019 -0.0706  0.0424
 3929TIP3    H133422   2.773   4.911   0.846 -0.2921 -1.9933 -1.8932
 3929TIP3    H233423   2.804   4.828   0.968 -0.0922  3.0903  1.8557
 3930TIP3   OH233424   6.083   0.596   1.630 -0.0281  0.4421  0.8805
 3930TIP3    H133425   6.060   0.608   1.723  0.4893 -2.2994  1.4567
 3930TIP3    H233426   5.999   0.590   1.585 -0.3088  0.5873  1.3750
 3931TIP3   OH233427   1.422   4.777   0.779 -0.1058  0.2413  0.0395
 3931TIP3    H133428   1.492   4.839   0.799 -1.0492  0.7412  2.0125
 3931TIP3    H233429   1.456   4.692   0.807  0.7452  0.0076 -1.6016
 3932TIP3   OH233430   4.420   0.654   0.647  0.1588  0.0425  0.1283
 3932TIP3    H133431   4.472   0.733   0.661  1.0088 -0.3392 -0.7439
 3932TIP3    H233432   4.335   0.686   0.617  0.6955  0.6284 -0.8188
 3933TIP3   OH233433   2.095   4.216   2.508  0.0603 -0.1179  0.0263
 3933TIP3    H133434   2.175   4.191   2.553 -0.6712 -0.4297  1.1794
 3933TIP3    H233435   2.027   4.216   2.575 -1.4147 -2.2353 -1.3094
 3934TIP3   OH233436   3.210   4.357   7.863 -0.0900  0.9598 -0.2276
 3934TIP3    H133437   3.132   4.351   7.918 -0.0548 -1.3130 -0.3320
 3934TIP3    H233438   3.186   4.420   7.795 -1.5026  0.9891  0.2582
 3935TIP3   OH233439   4.905   3.955   8.103 -0.0482  0.2175  0.1759
 3935TIP3    H133440   4.887   4.046   8.126 -0.2964 -0.5089  3.2798
 3935TIP3    H233441   4.880   3.905   8.181 -1.8113 -2.7796 -2.0708
 3936TIP3   OH233442   0.214   4.873   8.712  0.0564 -0.5530 -0.3531
 3936TIP3    H133443   0.137   4.872   8.654  0.2396 -0.4710 -0.5997
 3936TIP3    H233444   0.249   4.783   8.707 -0.6932 -0.9191  0.6687
 3937TIP3   OH233445   2.029   3.629   0.943 -0.4842  0.0395 -0.0060
 3937TIP3    H133446   2.068   3.655   0.859 -0.0096 -1.4520 -0.2802
 3937TIP3    H233447   2.096   3.575   0.985 -0.2783  1.6608  1.8735
 3938TIP3   OH233448   3.847   4.685   8.662 -0.2029  0.0221  0.3220
 3938TIP3    H133449   3.758   4.670   8.693 -0.1321 -1.4702 -0.1441
 3938TIP3    H233450   3.859   4.780   8.669 -1.3127  0.0862  1.7406
 3939TIP3   OH233451   6.667   0.178   8.507 -0.2084  0.3962  0.5085
 3939TIP3    H133452   6.638   0.086   8.515 -0.1974  0.4572  1.4389
 3939TIP3    H233453   6.630   0.220   8.585 -0.7326  1.3293 -0.2298
 3940TIP3   OH233454   3.011   1.257   1.366 -0.0514  0.0400 -0.2612
 3940TIP3    H133455   2.963   1.242   1.448 -0.1589  0.0906 -0.3146
 3940TIP3    H233456   3.018   1.352   1.359  1.6109  0.0156  0.6424
 3941TIP3   OH233457   6.375   2.489   0.070  0.1673  0.1801 -0.9498
 3941TIP3    H133458   6.325   2.443   0.002 -1.9579  0.7337  0.1402
 3941TIP3    H233459   6.318   2.487   0.146  1.0906  2.3892 -0.1135
 3942TIP3   OH233460   5.009   2.137   9.087 -0.3867 -0.2270 -0.7597
 3942TIP3    H133461   5.031   2.082   9.162  0.2143 -0.0165 -0.7755
 3942TIP3    H233462   4.969   2.215   9.124 -1.4635 -0.7702 -0.7501
 3943TIP3   OH233463   3.256   2.771   1.722  0.1358  0.5785 -0.0074
 3943TIP3    H133464   3.343   2.801   1.751  0.0583  0.6370  0.1614
 3943TIP3    H233465   3.237   2.695   1.777  0.9078 -0.6125 -1.3013
 3944TIP3   OH233466   2.579   2.923   2.441  0.0839  0.6193 -0.4877
 3944TIP3    H133467   2.544   2.858   2.380  0.6053 -0.7935  0.6491
 3944TIP3    H233468   2.623   2.871   2.508  0.1362  2.1576  0.7184
 3945TIP3   OH233469   5.709   2.668   8.753  0.0422 -0.1044  0.4407
 3945TIP3    H133470   5.621   2.631   8.748 -0.2961  0.7269  0.0921
 3945TIP3    H233471   5.696   2.757   8.783  0.5525  0.7165 -1.6049
 3946TIP3   OH233472   6.525   6.386   0.139  0.8246 -0.2669  0.0343
 3946TIP3    H133473   6.610   6.366   0.177  0.4896 -0.4526  0.7085
 3946TIP3    H233474   6.488   6.452   0.197  0.8787  0.4854 -0.7648
 3947TIP3   OH233475   6.523   6.659   7.658 -0.1844  0.4376  0.3565
 3947TIP3    H133476   6.564   6.601   7.593  0.9767  2.2401 -0.5910
 3947TIP3    H233477   6.429   6.654   7.638  0.0774  0.3039 -0.9306
 3948TIP3   OH233478   4.616   6.241   8.424 -0.3230  0.0067 -0.3681
 3948TIP3    H133479   4.653   6.326   8.400  1.8193 -0.7518 -0.0219
 3948TIP3    H233480   4.584   6.253   8.513 -1.8675  0.9451 -1.0108
 3949TIP3   OH233481   0.069   1.399   7.753  0.0611 -0.2146  0.0783
 3949TIP3    H133482   0.081   1.468   7.818 -0.9558 -2.0288  2.2975
 3949TIP3    H233483   0.122   1.428   7.678 -1.1690  3.4693  0.4163
 3950TIP3   OH233484   0.494   3.003   0.403  0.0137 -0.0558 -0.2278
 3950TIP3    H133485   0.427   2.970   0.343 -1.3108  2.1833 -0.0899
 3950TIP3    H233486   0.484   2.951   0.483 -0.8278 -0.4515 -0.5839
 3951TIP3   OH233487   2.345   6.103   8.952  0.0844  0.6661  0.0139
 3951TIP3    H133488   2.413   6.060   9.004  1.1056  1.0700 -0.9522
 3951TIP3    H233489   2.293   6.151   9.017  1.4694  1.3456  0.6689
 3952TIP3   OH233490   4.382   5.981   2.715 -0.3097  0.4004  0.0961
 3952TIP3    H133491   4.314   5.914   2.710 -0.9602  1.0256  0.3964
 3952TIP3    H233492   4.355   6.038   2.787  0.1222  1.1023 -0.2847
 3953TIP3   OH233493   6.516   2.050   0.107  0.5990  0.0293  0.7902
 3953TIP3    H133494   6.523   2.143   0.128  1.4500  0.4546 -1.2276
 3953TIP3    H233495   6.500   2.047   0.013  3.0818 -1.9040  0.3331
 3954TIP3   OH233496   2.736   1.899   0.661  0.0194  0.4651 -0.5782
 3954TIP3    H133497   2.649   1.930   0.686 -0.6035  0.4207 -2.5253
 3954TIP3    H233498   2.734   1.896   0.565  2.2454  0.6637 -0.6903
 3955TIP3   OH233499   4.531   2.027   2.842  0.4228  0.0618  0.3631
 3955TIP3    H133500   4.591   1.961   2.806 -1.8926 -1.1852 -1.4967
 3955TIP3    H233501   4.582   2.108   2.841  1.6288 -0.5681 -2.7119
 3956TIP3   OH233502   3.675   4.954   8.964  0.6841 -0.3311 -0.4270
 3956TIP3    H133503   3.744   4.984   9.024  0.4518  1.7850 -1.1429
 3956TIP3    H233504   3.595   4.994   8.999  0.4004  0.1447 -1.6006
 3957TIP3   OH233505   2.236   6.520   8.701 -0.2398 -0.0454 -0.0612
 3957TIP3    H133506   2.219   6.567   8.783  2.4195  3.8180 -1.4179
 3957TIP3    H233507   2.319   6.476   8.715  0.4618  1.0116 -0.7230
 3958TIP3   OH233508   5.393   4.677   1.558 -0.2072  0.0323  0.1073
 3958TIP3    H133509   5.357   4.589   1.564 -0.7553  0.2558  0.2213
 3958TIP3    H233510   5.385   4.712   1.647 -0.6108  0.4261 -0.0774
 3959TIP3   OH233511   0.232   3.367   8.728 -0.1734 -0.2390 -0.0852
 3959TIP3    H133512   0.190   3.415   8.657  1.1961  2.4293  0.7836
 3959TIP3    H233513   0.324   3.362   8.702  0.5134  1.5202  1.7971
 3960TIP3   OH233514   6.336   0.138   8.009  0.1137  0.2676 -0.0828
 3960TIP3    H133515   6.322   0.043   8.016  0.0948  0.2740 -0.0386
 3960TIP3    H233516   6.265   0.176   8.061  0.6597  0.2846  0.6674
 3961TIP3   OH233517   6.261   0.366   8.964  0.3593 -0.1997  0.2115
 3961TIP3    H133518   6.233   0.275   8.955  0.3594 -0.1912  0.1263
 3961TIP3    H233519   6.337   0.362   9.023 -0.5621 -0.0988  1.4591
 3962TIP3   OH233520   1.722   0.978   2.119 -0.5407 -1.1857  0.1742
 3962TIP3    H133521   1.775   0.898   2.118  2.5214  0.7222 -0.3737
 3962TIP3    H233522   1.764   1.035   2.183 -2.7454  0.0049  0.6701
 3963TIP3   OH233523   4.618   4.783   9.185  0.3293 -0.5071 -0.4884
 3963TIP3    H133524   4.551   4.733   9.139 -0.4254 -0.1466  0.1783
 3963TIP3    H233525   4.699   4.735   9.171  0.0617 -0.5635 -1.9235
 3964TIP3   OH233526   4.979   5.125   2.095 -0.6223  0.3755 -0.0455
 3964TIP3    H133527   4.886   5.102   2.086 -0.9133  1.4365  0.0382
 3964TIP3    H233528   5.024   5.068   2.033 -1.4612  0.5958 -0.8815
 3965TIP3   OH233529   0.879   6.555   1.828 -0.0128 -0.6093  0.2456
 3965TIP3    H133530   0.915   6.554   1.740  1.7600  0.9793  0.8698
 3965TIP3    H233531   0.789   6.524   1.818 -0.5493  1.4132 -2.4450
 3966TIP3   OH233532   3.416   0.115   1.238  0.0586 -0.3606  0.1275
 3966TIP3    H133533   3.394   0.034   1.192 -1.8800  0.0592  0.2382
 3966TIP3    H233534   3.398   0.184   1.174 -0.5737  0.1038  0.7975
 3967TIP3   OH233535   4.352   5.285   2.210  0.2308 -0.1244 -0.2426
 3967TIP3    H133536   4.317   5.203   2.174 -3.7431  0.8256  0.9098
 3967TIP3    H233537   4.306   5.295   2.293  1.1310  2.9346 -0.0053
 3968TIP3   OH233538   4.243   5.532   2.114 -0.3979  0.2308  0.0284
 3968TIP3    H133539   4.277   5.445   2.137 -0.7216 -0.0957 -0.7040
 3968TIP3    H233540   4.167   5.544   2.171 -0.5175 -0.0818 -0.0635
 3969TIP3   OH233541   5.920   3.136   9.182 -0.3646  0.4410 -0.5706
 3969TIP3    H133542   5.969   3.183   9.250 -0.0556 -0.2472 -0.3089
 3969TIP3    H233543   5.856   3.200   9.151 -1.2527  0.4561  1.1368
 3970TIP3   OH233544   4.559   3.770   0.941 -0.5647  0.9604  0.5052
 3970TIP3    H133545   4.551   3.675   0.927 -0.7592  1.2045 -1.2946
 3970TIP3    H233546   4.474   3.797   0.974 -0.8678  0.6401  0.0135
 3971TIP3   OH233547   4.152   5.404   7.152  0.3292 -0.4197 -0.2592
 3971TIP3    H133548   4.163   5.497   7.133 -1.5107  0.0696  0.8904
 3971TIP3    H233549   4.233   5.380   7.199  0.9887  0.4710 -0.9016
 3972TIP3   OH233550   0.585   1.701   2.053  0.1761 -0.4517 -0.2902
 3972TIP3    H133551   0.549   1.777   2.099  0.9892 -0.1417 -0.1378
 3972TIP3    H233552   0.627   1.738   1.975 -1.8486 -1.0460 -1.7329
 3973TIP3   OH233553   3.857   1.596   1.147 -0.4593 -0.1763 -0.5424
 3973TIP3    H133554   3.849   1.666   1.081 -1.2317 -0.5944 -0.9139
 3973TIP3    H233555   3.845   1.515   1.097  0.6454 -0.5927 -0.1471
 3974TIP3   OH233556   0.258   5.426   2.131  0.5548 -0.6293 -0.5803
 3974TIP3    H133557   0.247   5.332   2.120 -0.3940 -0.4760 -1.0294
 3974TIP3    H233558   0.334   5.435   2.187 -0.8972 -1.7543  1.6981
 3975TIP3   OH233559   1.326   4.365   1.441  0.2845 -0.0384 -0.6030
 3975TIP3    H133560   1.406   4.376   1.391  0.5471  0.8567 -0.0205
 3975TIP3    H233561   1.257   4.396   1.382  0.3245 -1.0316 -1.1903
 3976TIP3   OH233562   4.066   1.972   2.626 -0.3858  0.9160  0.0978
 3976TIP3    H133563   4.018   2.043   2.669  1.0937  1.3667  1.0920
 3976TIP3    H233564   4.156   2.004   2.620  0.1199 -0.4990 -0.3178
 3977TIP3   OH233565   2.941   2.132   8.405 -0.6093 -0.2746 -0.0895
 3977TIP3    H133566   2.979   2.106   8.489 -0.0781 -0.0933 -0.2716
 3977TIP3    H233567   2.848   2.109   8.412 -0.3553 -1.2542  0.1436
 3978TIP3   OH233568   0.222   0.155   2.934  0.0886  0.6836  0.5691
 3978TIP3    H133569   0.254   0.224   2.877  0.6837  1.0168  1.2969
 3978TIP3    H233570   0.297   0.098   2.949  0.0208  0.7523  1.2334
 3979TIP3   OH233571   3.151   0.673   0.054 -0.7274 -0.2874  0.1634
 3979TIP3    H133572   3.137   0.578   0.061 -0.5931 -0.3149  0.0583
 3979TIP3    H233573   3.200   0.684  -0.027  0.7277 -0.2868  1.0144
 3980TIP3   OH233574   2.637   3.727   0.831 -0.0416 -1.0377  0.5123
 3980TIP3    H133575   2.544   3.746   0.843  0.2004  0.8161 -0.0971
 3980TIP3    H233576   2.662   3.675   0.906 -1.0373  0.5647  2.0279
 3981TIP3   OH233577   1.056   4.178   1.736 -0.1011  0.3851  0.0859
 3981TIP3    H133578   1.019   4.173   1.825 -0.1327  1.1045  0.1208
 3981TIP3    H233579   1.042   4.091   1.699 -0.6562  0.2640  0.5670
 3982TIP3   OH233580   5.487   1.754   0.510  0.0313  0.9353 -0.5232
 3982TIP3    H133581   5.557   1.716   0.564  0.5233  1.4944 -0.7504
 3982TIP3    H233582   5.423   1.787   0.572 -0.8174 -0.9793 -0.3215
 3983TIP3   OH233583   4.735   5.417   3.000  0.2402  0.2877  0.2913
 3983TIP3    H133584   4.689   5.441   2.920  0.8332  1.4019  0.2707
 3983TIP3    H233585   4.675   5.358   3.046 -0.5397  0.4800 -0.4681
 3984TIP3   OH233586   5.417   5.271   7.491  0.0056  0.3708 -0.2539
 3984TIP3    H133587   5.386   5.275   7.401 -0.0031 -1.6504 -0.3687
 3984TIP3    H233588   5.505   5.235   7.485  0.3616  1.0861  0.4858
 3985TIP3   OH233589   0.694   5.309   6.825  0.2942 -0.0274  0.2236
 3985TIP3    H133590   0.777   5.357   6.818 -0.1073  0.4317 -3.2119
 3985TIP3    H233591   0.717   5.219   6.800 -0.3670  0.3729 -2.0037
 3986TIP3   OH233592   5.789   6.393   2.315  0.3287 -0.0781 -0.3013
 3986TIP3    H133593   5.772   6.359   2.403 -0.6101  0.6105 -0.1941
 3986TIP3    H233594   5.706   6.381   2.269  0.9386 -0.8347 -1.2446
 3987TIP3   OH233595   4.893   0.558   8.450 -0.3647 -0.1368  0.2795
 3987TIP3    H133596   4.939   0.532   8.370  0.5006  0.1493  0.6727
 3987TIP3    H233597   4.962   0.590   8.508 -1.0296  0.0179  1.0008
 3988TIP3   OH233598   5.712   4.846   0.553  0.1000 -0.1070 -0.8093
 3988TIP3    H133599   5.731   4.812   0.640  0.7057 -0.1152 -0.9407
 3988TIP3    H233600   5.629   4.892   0.563  0.7744  0.9823  0.0738
 3989TIP3   OH233601   3.748   1.171   2.596  0.4185  0.1031  0.1867
 3989TIP3    H133602   3.755   1.096   2.537  0.1084  0.5671 -0.4518
 3989TIP3    H233603   3.778   1.138   2.681  1.6583 -0.3481 -0.4132
 3990TIP3   OH233604   2.641   4.460   0.390  0.2786 -0.7131 -0.4660
 3990TIP3    H133605   2.596   4.523   0.334  0.2910 -0.4874 -0.2214
 3990TIP3    H233606   2.574   4.427   0.449 -0.2648 -2.5919 -2.0179
 3991TIP3   OH233607   6.102   3.805   2.105  0.8110 -0.1736  0.0172
 3991TIP3    H133608   6.162   3.733   2.083  1.7406  0.6803 -0.3171
 3991TIP3    H233609   6.151   3.884   2.083  0.4976  0.6383  2.0267
 3992TIP3   OH233610   4.101   2.016   7.808 -0.0644 -0.0962  0.8560
 3992TIP3    H133611   4.149   2.052   7.734 -2.0436  2.7098  0.7969
 3992TIP3    H233612   4.169   1.992   7.872  1.5016  2.1294  0.1217
 3993TIP3   OH233613   4.368   3.486   8.763  0.3727  0.2268 -0.1762
 3993TIP3    H133614   4.286   3.519   8.799  0.1075  0.3869 -0.9019
 3993TIP3    H233615   4.342   3.431   8.690  0.9537  1.6912 -1.5486
 3994TIP3   OH233616   4.156   4.193   8.555 -0.5154 -0.1866 -0.0975
 3994TIP3    H133617   4.126   4.154   8.636  0.9772 -1.0274  0.0977
 3994TIP3    H233618   4.206   4.123   8.512 -0.0282  0.6948 -1.0142
 3995TIP3   OH233619   6.350   2.570   1.288 -0.3123  0.3889  0.4597
 3995TIP3    H133620   6.395   2.624   1.223 -0.1323  0.2953  0.5057
 3995TIP3    H233621   6.271   2.540   1.242  0.9108 -1.5475 -0.5547
 3996TIP3   OH233622   5.240   0.351   8.473  0.5082  0.3397  0.2604
 3996TIP3    H133623   5.249   0.305   8.389  0.2640 -0.3392  0.6013
 3996TIP3    H233624   5.165   0.309   8.515  0.4250  0.9030  0.6759
 3997TIP3   OH233625   2.144   2.512   7.262  0.4716 -0.1634  1.2733
 3997TIP3    H133626   2.144   2.417   7.276  2.3683 -0.7426 -1.6029
 3997TIP3    H233627   2.184   2.548   7.341 -0.2045 -1.7241  2.3907
 3998TIP3   OH233628   0.551   3.167   7.861  0.1574 -0.3188 -0.1307
 3998TIP3    H133629   0.518   3.257   7.861 -0.9232 -0.6931 -0.4050
 3998TIP3    H233630   0.486   3.118   7.809  0.2982 -1.4036  0.6817
 3999TIP3   OH233631   1.658   5.142   1.072 -0.1712 -0.6888 -0.2146
 3999TIP3    H133632   1.704   5.118   1.153  0.9450  1.5605 -0.1068
 3999TIP3    H233633   1.566   5.152   1.099  0.1363 -0.2830  0.7268
 4000TIP3   OH233634   0.804   4.776   0.850 -0.2619  0.5904 -0.0493
 4000TIP3    H133635   0.871   4.721   0.809 -0.6096 -0.4619  0.7552
 4000TIP3    H233636   0.853   4.838   0.903  0.1413  1.1785 -1.0767
 4001TIP3   OH233637   5.315   0.644   0.553  0.6111 -0.1866 -0.0858
 4001TIP3    H133638   5.296   0.620   0.462  0.5483 -1.3068  0.2080
 4001TIP3    H233639   5.308   0.739   0.555 -1.1608 -0.2629 -0.8589
 4002TIP3   OH233640   5.713   3.147   8.644 -0.3825  0.2186  0.6600
 4002TIP3    H133641   5.733   3.227   8.691  1.9070  0.0258  0.1343
 4002TIP3    H233642   5.794   3.097   8.646 -1.0254 -1.0176 -1.0997
 4003TIP3   OH233643   3.610   2.712   7.898  0.7696  0.6237  0.0923
 4003TIP3    H133644   3.558   2.662   7.835  1.4639  0.2137 -0.1657
 4003TIP3    H233645   3.557   2.713   7.978  0.3689  0.2203 -0.1655
 4004TIP3   OH233646   3.269   1.639   2.510 -0.1962 -0.2302  0.4228
 4004TIP3    H133647   3.223   1.648   2.594 -0.0307  0.8209  0.4165
 4004TIP3    H233648   3.348   1.590   2.531  1.8880  3.2715  1.7545
 4005TIP3   OH233649   6.507   2.294   8.298 -0.0065 -0.0800 -0.8146
 4005TIP3    H133650   6.580   2.351   8.274 -0.8412  0.5968 -1.9044
 4005TIP3    H233651   6.547   2.210   8.318  1.0558  0.1837 -1.7056
 4006TIP3   OH233652   6.683   4.696   2.310 -0.3285 -0.0167 -0.0475
 4006TIP3    H133653   6.751   4.645   2.354 -0.3933 -1.2272 -1.2734
 4006TIP3    H233654   6.608   4.692   2.368 -0.4863 -1.7794 -0.3251
 4007TIP3   OH233655   2.509   0.146   8.363 -0.4538  0.1588 -0.7188
 4007TIP3    H133656   2.489   0.233   8.328 -1.0357  0.0669 -0.6165
 4007TIP3    H233657   2.542   0.163   8.451 -0.6896  0.2654 -0.6505
 4008TIP3   OH233658   3.098   5.744   8.501  0.4106 -0.0065 -0.1613
 4008TIP3    H133659   3.011   5.780   8.486  0.5401  0.2166 -0.3675
 4008TIP3    H233660   3.158   5.810   8.468  0.7247  0.6893  1.6567
 4009TIP3   OH233661   2.844   3.012   0.031 -0.4350  0.3123 -0.5914
 4009TIP3    H133662   2.892   3.077  -0.021  0.5992 -1.6402 -2.2144
 4009TIP3    H233663   2.910   2.976   0.091 -0.5720 -0.3960 -0.8607
 4010TIP3   OH233664   0.680   3.833   8.521 -0.5007 -0.6983 -0.7901
 4010TIP3    H133665   0.694   3.741   8.543 -0.0016 -0.1901  1.1475
 4010TIP3    H233666   0.768   3.870   8.512 -0.6957 -0.2266 -0.7941
 4011TIP3   OH233667   4.023   6.424   2.564  0.0691  0.2778 -0.0831
 4011TIP3    H133668   4.034   6.491   2.632  0.5490 -0.5677  0.6900
 4011TIP3    H233669   4.065   6.346   2.600  0.0172 -0.2885 -1.2107
 4012TIP3   OH233670   1.178   2.637   0.047  0.1559 -0.2895 -0.5443
 4012TIP3    H133671   1.238   2.564   0.061  0.3442 -0.1815 -0.7608
 4012TIP3    H233672   1.091   2.600   0.057  0.2725 -0.2672  0.6358
 4013TIP3   OH233673   2.280   4.908   0.225  0.5714  0.1755 -0.0588
 4013TIP3    H133674   2.363   4.906   0.272  0.9117  0.0154 -0.6506
 4013TIP3    H233675   2.243   4.994   0.245  0.2232 -0.2689  1.3035
 4014TIP3   OH233676   5.430   2.379   8.532 -0.3735 -0.0942 -0.5334
 4014TIP3    H133677   5.511   2.349   8.490  0.0402  1.0087 -0.5314
 4014TIP3    H233678   5.399   2.303   8.581 -0.2370 -1.0594 -1.8695
 4015TIP3   OH233679   2.484   2.657   8.647 -0.1662  0.2834 -0.1618
 4015TIP3    H133680   2.448   2.629   8.731 -1.4182  1.5287 -0.2415
 4015TIP3    H233681   2.574   2.682   8.666  0.2179 -1.3783  0.3794
 4016TIP3   OH233682   4.598   4.538   0.743  0.4958 -0.1069 -0.3282
 4016TIP3    H133683   4.567   4.449   0.733  2.4405 -0.7610 -1.0426
 4016TIP3    H233684   4.566   4.566   0.829  0.5679 -1.7905  0.2749
 4017TIP3   OH233685   3.439   1.499   8.983 -0.6321 -0.3260  0.2129
 4017TIP3    H133686   3.449   1.404   8.978  1.0208 -0.2996  1.9120
 4017TIP3    H233687   3.454   1.530   8.893 -1.7889 -1.6829 -0.4800
 4018TIP3   OH233688   5.991   0.909   2.352 -1.1464  0.0976  0.1014
 4018TIP3    H133689   5.917   0.948   2.398  0.8350  0.3944  3.3078
 4018TIP3    H233690   6.054   0.980   2.344 -0.5688 -0.5366 -1.1957
 4019TIP3   OH233691   4.047   4.578   2.074 -0.3186  0.5412  0.0220
 4019TIP3    H133692   4.063   4.508   2.137 -1.5667 -0.6089 -0.9047
 4019TIP3    H233693   4.004   4.646   2.125  0.8473  0.6557  0.9158
 4020TIP3   OH233694   0.700   6.155   0.466  0.3180  0.0640  0.0678
 4020TIP3    H133695   0.722   6.086   0.404  0.7331 -0.1935  0.4989
 4020TIP3    H233696   0.645   6.113   0.531  0.2058  0.2430  0.0909
 4021TIP3   OH233697   2.369   5.557   0.680 -0.0029  0.1982  0.2384
 4021TIP3    H133698   2.336   5.480   0.725 -0.3947  0.2525  0.0596
 4021TIP3    H233699   2.291   5.593   0.635  0.2051  0.6042  0.1967
 4022TIP3   OH233700   1.168   6.476   0.462  0.1353 -0.2572 -0.3355
 4022TIP3    H133701   1.174   6.562   0.503  0.3722  0.0089 -0.9083
 4022TIP3    H233702   1.256   6.439   0.471 -0.0082 -0.5144  0.0558
 4023TIP3   OH233703   2.430   3.837   2.435 -0.3209 -0.7010  0.0509
 4023TIP3    H133704   2.469   3.879   2.512  0.7830  0.0391 -0.8790
 4023TIP3    H233705   2.368   3.774   2.471  1.1582 -1.3595  1.5720
 4024TIP3   OH233706   6.064   0.435   8.096 -0.0854  0.4089  0.2252
 4024TIP3    H133707   6.084   0.488   8.019  2.4007 -0.1732  0.3833
 4024TIP3    H233708   6.033   0.498   8.161 -1.8327  0.9546 -1.0683
 4025TIP3   OH233709   4.456   1.514   1.889  0.0540  0.0871 -0.0966
 4025TIP3    H133710   4.522   1.559   1.836 -0.2741  1.7322  0.8076
 4025TIP3    H233711   4.506   1.464   1.953  0.4241 -0.1564 -0.5667
 4026TIP3   OH233712   3.704   1.573   0.581 -0.0137 -0.2744  0.0495
 4026TIP3    H133713   3.759   1.545   0.508 -0.2095 -0.2609 -0.1008
 4026TIP3    H233714   3.723   1.509   0.650 -0.0098 -0.4287 -0.0934
 4027TIP3   OH233715   6.585   2.828   8.508 -0.1834 -0.8018  0.1868
 4027TIP3    H133716   6.580   2.913   8.552  1.4894  0.0344 -1.1544
 4027TIP3    H233717   6.514   2.830   8.443 -1.1616 -1.1169  1.2003
 4028TIP3   OH233718   4.922   6.507   0.375  0.8559  0.5459 -0.7288
 4028TIP3    H133719   4.983   6.453   0.325  0.8851  0.6540 -0.8118
 4028TIP3    H233720   4.927   6.593   0.333  0.4732  0.4945 -0.8823
 4029TIP3   OH233721   3.451   1.456   0.659  0.1303  0.7800  0.1451
 4029TIP3    H133722   3.467   1.496   0.573 -0.0118  0.3601 -0.0835
 4029TIP3    H233723   3.527   1.480   0.711  0.5595  0.4523 -0.3199
 4030TIP3   OH233724   5.864   3.552   2.181 -0.2744 -0.4286  0.2491
 4030TIP3    H133725   5.860   3.510   2.267  0.2702  0.7682  0.8771
 4030TIP3    H233726   5.937   3.509   2.136 -0.3109 -0.7870  0.5311
 4031TIP3   OH233727   2.419   5.225   0.207 -0.1749 -0.2239 -0.7120
 4031TIP3    H133728   2.371   5.221   0.124 -0.9586 -1.1055 -0.2405
 4031TIP3    H233729   2.370   5.289   0.259 -1.0288 -1.3275 -0.1299
 4032TIP3   OH233730   2.762   2.677   7.665  0.2124 -0.3318  0.2891
 4032TIP3    H133731   2.767   2.581   7.659  1.2451 -0.2355 -0.7930
 4032TIP3    H233732   2.767   2.707   7.574 -1.9681  0.7118  0.4552
 4033TIP3   OH233733   6.345   4.026   2.089  0.3515 -0.0858  0.2145
 4033TIP3    H133734   6.274   4.088   2.102  1.6075  1.8160 -1.3344
 4033TIP3    H233735   6.378   4.007   2.177 -0.3891  1.0601  0.7595
 4034TIP3   OH233736   6.475   1.650   8.352 -0.5147 -0.3499 -0.2852
 4034TIP3    H133737   6.433   1.668   8.436  0.7043 -0.2211  0.3207
 4034TIP3    H233738   6.483   1.736   8.310 -2.6323 -0.5758 -1.3357
 4035TIP3   OH233739   0.058   1.126   8.152  0.2453 -0.0193  0.1175
 4035TIP3    H133740   0.062   1.222   8.158  0.9036 -0.1256  2.0203
 4035TIP3    H233741   0.149   1.100   8.134  0.6315 -0.3745  2.2797
 4036TIP3   OH233742   3.616   1.869   1.225 -0.4993 -0.6702  1.0285
 4036TIP3    H133743   3.604   1.783   1.265  0.4001 -1.0380  0.5424
 4036TIP3    H233744   3.693   1.859   1.169 -2.1215 -0.4288 -1.4023
 4037TIP3   OH233745   2.049   5.062   8.788  0.0457  0.1041 -0.0255
 4037TIP3    H133746   1.978   5.121   8.764 -0.7058 -0.1461  1.4491
 4037TIP3    H233747   2.006   4.993   8.839  1.0485 -1.1735 -0.8594
 4038TIP3   OH233748   0.355   2.007   7.151 -0.1410  0.2089 -0.1698
 4038TIP3    H133749   0.362   1.953   7.230 -0.0138 -0.8330 -0.8736
 4038TIP3    H233750   0.445   2.017   7.121  0.1879  3.0604  1.3619
 4039TIP3   OH233751   0.180   4.684   0.601  0.6802 -0.2422 -0.3563
 4039TIP3    H133752   0.230   4.748   0.551  0.7603  0.0613  0.1077
 4039TIP3    H233753   0.090   4.713   0.595  0.5735 -0.6642 -1.0028
 4040TIP3   OH233754   3.225   6.049   7.845 -0.1617 -0.2542 -0.2304
 4040TIP3    H133755   3.133   6.026   7.862 -0.0264 -1.0066 -0.4534
 4040TIP3    H233756   3.221   6.121   7.782 -0.6023 -1.5706 -1.7794
 4041TIP3   OH233757   3.839   6.138   2.243  0.8991 -0.3070  0.6610
 4041TIP3    H133758   3.745   6.154   2.235  0.9896 -0.0549  0.0487
 4041TIP3    H233759   3.860   6.162   2.334  0.1740 -1.4302  1.1509
 4042TIP3   OH233760   1.753   3.763   7.249 -0.3512 -0.8067  1.0421
 4042TIP3    H133761   1.799   3.795   7.327  0.9967 -2.8831  1.1734
 4042TIP3    H233762   1.821   3.725   7.194 -1.6521 -2.1684  0.2884
 4043TIP3   OH233763   2.606   5.335   8.890  0.2728  0.3222 -0.4990
 4043TIP3    H133764   2.553   5.300   8.818  0.2833 -0.4620 -0.1397
 4043TIP3    H233765   2.604   5.266   8.956 -0.9984  1.6280  0.9115
 4044TIP3   OH233766   2.788   0.929   8.679  0.2737 -0.1274 -0.2553
 4044TIP3    H133767   2.849   0.999   8.656  1.7918 -0.9756  1.0092
 4044TIP3    H233768   2.765   0.888   8.596  1.0366  0.5153 -0.7893
 4045TIP3   OH233769   2.348   6.575   1.371 -0.3397  0.0057 -0.2286
 4045TIP3    H133770   2.397   6.495   1.356  0.9543  0.8381 -0.6095
 4045TIP3    H233771   2.256   6.550   1.357  0.0352 -1.3914 -0.3340
 4046TIP3   OH233772   6.536   0.041   1.352  0.0701  0.0316 -0.1364
 4046TIP3    H133773   6.622   0.022   1.314 -0.0560 -0.7909 -0.0148
 4046TIP3    H233774   6.548   0.031   1.447  0.5258  2.6122  0.1651
 4047TIP3   OH233775   0.102   1.901   8.743 -0.1900 -0.2607 -0.0438
 4047TIP3    H133776   0.072   1.973   8.799  4.0444  1.2610  0.6286
 4047TIP3    H233777   0.133   1.835   8.804 -0.9718 -1.2202 -0.6664
 4048TIP3   OH233778   0.552   5.326   9.065 -0.3746 -0.3212 -0.0297
 4048TIP3    H133779   0.475   5.382   9.053 -1.3124 -1.5717 -0.0289
 4048TIP3    H233780   0.575   5.298   8.976 -2.1535 -2.7995  0.1844
 4049TIP3   OH233781   2.485   0.875   2.720 -0.1550 -0.4744 -0.1456
 4049TIP3    H133782   2.424   0.851   2.650  0.3310  0.4525 -0.9112
 4049TIP3    H233783   2.569   0.884   2.676  0.1164  0.3178  0.5172
 4050TIP3   OH233784   1.150   4.478   2.139  0.1910  0.0173  0.2617
 4050TIP3    H133785   1.055   4.480   2.131  0.0818 -2.7389  0.0042
 4050TIP3    H233786   1.167   4.475   2.233 -0.0870 -1.3248  0.2831
 4051TIP3   OH233787   4.788   6.558   7.896 -0.1026 -0.2106  0.1412
 4051TIP3    H133788   4.832   6.627   7.846 -0.9950  0.2897  0.0313
 4051TIP3    H233789   4.810   6.576   7.987  0.3158 -0.2469  0.0474
 4052TIP3   OH233790   6.372   5.243   9.188  0.0537 -0.2098 -0.6434
 4052TIP3    H133791   6.325   5.184   9.246 -0.6940 -1.4221 -2.4081
 4052TIP3    H233792   6.304   5.299   9.150  0.6021  0.9562  0.0076
 4053TIP3   OH233793   1.969   2.820   0.118  0.0866  0.0451 -0.4909
 4053TIP3    H133794   1.991   2.869   0.039  1.1779 -0.9806 -0.8458
 4053TIP3    H233795   1.876   2.800   0.109 -0.0599  0.8964 -0.9656
 4054TIP3   OH233796   3.081   5.272   0.434  0.2367  0.0146  0.2592
 4054TIP3    H133797   3.048   5.362   0.439  1.7599  0.5492  1.7852
 4054TIP3    H233798   3.170   5.282   0.401  0.8459 -0.7771  1.5746
 4055TIP3   OH233799   3.440   3.650   1.023 -0.2845  0.2316  0.0291
 4055TIP3    H133800   3.360   3.702   1.033 -0.2553  0.5474 -1.2469
 4055TIP3    H233801   3.470   3.670   0.935  0.5373 -0.8351  0.0581
 4056TIP3   OH233802   2.250   3.611   7.533 -0.0743 -0.3014 -0.2931
 4056TIP3    H133803   2.156   3.605   7.518  0.0345  1.0559 -1.7828
 4056TIP3    H233804   2.285   3.653   7.454  1.5275  1.0190  1.0364
 4057TIP3   OH233805   3.160   5.076   7.357  0.0565 -0.1065 -0.4718
 4057TIP3    H133806   3.172   5.132   7.280  0.2522  0.4479 -0.0437
 4057TIP3    H233807   3.163   4.987   7.322 -2.1713  0.1422 -1.4440
 4058TIP3   OH233808   1.220   4.169   8.977 -0.1474 -0.4730 -0.4178
 4058TIP3    H133809   1.142   4.220   8.960  1.5082  1.9166 -1.3361
 4058TIP3    H233810   1.290   4.215   8.931  1.8365 -2.4543  0.4050
 4059TIP3   OH233811   4.108   4.517   1.814  0.5617 -0.4074 -0.0082
 4059TIP3    H133812   4.202   4.506   1.826  0.6780  1.5370  1.4592
 4059TIP3    H233813   4.079   4.563   1.893 -1.1673  1.2470 -1.5032
 4060TIP3   OH233814   5.716   5.104   0.079 -0.3735  0.0089 -0.1425
 4060TIP3    H133815   5.748   5.016   0.096 -0.5951 -0.0094  0.1840
 4060TIP3    H233816   5.743   5.154   0.156  0.0650  0.3095 -0.4862
 4061TIP3   OH233817   0.401   0.726   2.101 -0.2186  0.3580 -0.1462
 4061TIP3    H133818   0.425   0.753   2.013  0.3912  1.2965  0.2935
 4061TIP3    H233819   0.412   0.631   2.101 -0.3670  0.3325 -1.1122
 4062TIP3   OH233820   5.394   6.188   2.642 -0.1977  0.0335 -0.6204
 4062TIP3    H133821   5.447   6.116   2.607  0.5882  1.3668 -2.2764
 4062TIP3    H233822   5.436   6.209   2.726  0.2122 -0.7191 -0.6266
 4063TIP3   OH233823   6.482   2.411   7.449 -0.5060 -0.2845  0.3094
 4063TIP3    H133824   6.430   2.415   7.368  0.5356 -1.1444 -0.4256
 4063TIP3    H233825   6.544   2.483   7.440  0.0334 -0.7745  0.0243
 4064TIP3   OH233826   2.945   3.340   0.846 -0.4611 -0.3080 -0.2904
 4064TIP3    H133827   2.863   3.294   0.862 -0.3986 -0.2299  0.2889
 4064TIP3    H233828   3.000   3.317   0.921 -0.0112 -0.2406 -0.6008
 4065TIP3   OH233829   3.659   4.564   8.091 -0.6575  0.1520  0.1000
 4065TIP3    H133830   3.595   4.556   8.020 -0.9778 -1.4325  0.5334
 4065TIP3    H233831   3.625   4.507   8.161  1.3862 -1.0275  0.2132
 4066TIP3   OH233832   0.107   1.562   7.984 -0.3675 -0.3054  0.4303
 4066TIP3    H133833   0.106   1.481   8.035 -2.1629 -1.3161 -1.0865
 4066TIP3    H233834   0.076   1.630   8.045 -2.0421 -1.3998  0.8682
 4067TIP3   OH233835   5.731   4.489   7.166 -0.2011  0.1730  0.3695
 4067TIP3    H133836   5.744   4.584   7.166 -0.1314  0.1818  1.7677
 4067TIP3    H233837   5.817   4.454   7.142 -0.3342  0.4596 -0.5711
 4068TIP3   OH233838   1.046   3.534   3.097 -0.9159  0.0958  0.1223
 4068TIP3    H133839   0.964   3.563   3.057 -0.4286  0.7496 -0.4275
 4068TIP3    H233840   1.100   3.613   3.100 -0.2896 -0.3390  0.4276
 4069TIP3   OH233841   4.925   5.406   0.189 -0.2981 -0.7674 -0.1816
 4069TIP3    H133842   4.948   5.444   0.274  0.5363  0.3394 -0.8759
 4069TIP3    H233843   4.834   5.378   0.199  0.1205 -1.6360  1.3970
 4070TIP3   OH233844   6.543   5.967   0.581 -0.6908  0.0767 -0.0085
 4070TIP3    H133845   6.491   5.957   0.502 -0.1026  0.1884 -0.4093
 4070TIP3    H233846   6.479   5.959   0.652 -1.3976  1.0725 -0.5038
 4071TIP3   OH233847   4.101   3.245   2.648 -0.2115  0.1946 -0.0229
 4071TIP3    H133848   4.105   3.195   2.730  2.6788  0.3514  0.0348
 4071TIP3    H233849   4.063   3.329   2.673  0.7204  0.2822  1.2012
 4072TIP3   OH233850   5.097   5.172   8.597  0.4219  0.3585 -0.7001
 4072TIP3    H133851   5.043   5.152   8.673 -0.4143  3.1170 -0.4664
 4072TIP3    H233852   5.186   5.149   8.625  0.1587  1.4028  1.1990
 4073TIP3   OH233853   2.302   0.801   8.680 -0.2808  0.3588  0.3139
 4073TIP3    H133854   2.231   0.815   8.743 -0.4273 -1.4529  0.6158
 4073TIP3    H233855   2.289   0.868   8.613  0.3536  2.8819  2.5566
 4074TIP3   OH233856   4.796   2.427   7.984  0.0215 -0.3588  0.6896
 4074TIP3    H133857   4.863   2.496   7.976  0.4453 -0.8092  0.3230
 4074TIP3    H233858   4.798   2.381   7.900 -1.3640  0.1624  0.3416
 4075TIP3   OH233859   5.051   5.715   8.885  0.6137  0.0692  0.5547
 4075TIP3    H133860   5.088   5.637   8.843 -0.2487  0.8727 -1.8384
 4075TIP3    H233861   5.114   5.737   8.953  1.5911 -1.8847  0.3631
 4076TIP3   OH233862   1.396   0.453   7.930  0.3667  0.2919 -0.3383
 4076TIP3    H133863   1.428   0.528   7.879  1.2071 -0.3632 -0.8084
 4076TIP3    H233864   1.311   0.432   7.892 -0.7416  2.0995  0.9633
 4077TIP3   OH233865   6.486   1.094   0.488 -0.2321 -0.3254 -0.3339
 4077TIP3    H133866   6.427   1.019   0.499 -1.1080  0.1435 -1.5651
 4077TIP3    H233867   6.572   1.056   0.476 -0.8552 -1.2297 -2.2400
 4078TIP3   OH233868   2.512   4.113   7.533  0.6573  0.4700 -0.3154
 4078TIP3    H133869   2.504   4.049   7.605 -0.2463  0.8409 -0.0695
 4078TIP3    H233870   2.556   4.065   7.463 -3.0465 -1.6380 -1.4791
 4079TIP3   OH233871   4.684   4.455   7.720 -0.4215 -0.3119 -0.1604
 4079TIP3    H133872   4.701   4.518   7.790 -1.6659  0.8275 -0.8566
 4079TIP3    H233873   4.713   4.499   7.640  0.2501 -1.2956 -0.4885
 4080TIP3   OH233874   6.415   3.910   1.136  0.1335 -0.2618 -0.1285
 4080TIP3    H133875   6.377   3.944   1.054  0.4116  0.1869 -0.0772
 4080TIP3    H233876   6.495   3.865   1.109  0.2863 -0.0133 -0.0927
 4081TIP3   OH233877   6.145   4.528   1.826 -0.1738  0.9051  0.0052
 4081TIP3    H133878   6.218   4.566   1.778  0.8008 -1.9464 -1.0175
 4081TIP3    H233879   6.071   4.531   1.765  0.4960 -0.7531 -0.9542
 4082TIP3   OH233880   1.052   3.110   2.131 -0.4049  0.0214 -0.3415
 4082TIP3    H133881   1.077   3.152   2.212 -2.2615 -1.4179  1.0875
 4082TIP3    H233882   1.122   3.131   2.069  1.6233  0.2600  1.9170
 4083TIP3   OH233883   5.524   2.472   8.129 -0.1498  0.1545 -0.0536
 4083TIP3    H133884   5.472   2.392   8.133 -1.2515  0.8219 -0.7475
 4083TIP3    H233885   5.461   2.542   8.115  1.1159  0.6961 -4.2516
 4084TIP3   OH233886   2.250   3.420   1.409 -0.2593 -0.3923 -0.7538
 4084TIP3    H133887   2.299   3.440   1.329  0.2580  0.1880 -0.2918
 4084TIP3    H233888   2.302   3.354   1.453 -1.3366 -1.9140 -1.6540
 4085TIP3   OH233889   3.914   4.887   1.967 -0.0242  0.6038 -0.1827
 4085TIP3    H133890   3.949   4.852   2.049 -0.0004 -0.9457 -0.8210
 4085TIP3    H233891   3.821   4.868   1.971 -0.0580  0.7168 -0.4340
 4086TIP3   OH233892   3.847   6.666   1.403  0.2806  0.1560  0.2485
 4086TIP3    H133893   3.765   6.668   1.354  0.4559  0.1631 -0.0447
 4086TIP3    H233894   3.827   6.709   1.486  0.2447  1.0479 -0.2142
 4087TIP3   OH233895   2.570   3.686   1.692  0.5998  0.3204 -0.4070
 4087TIP3    H133896   2.656   3.723   1.677  0.1338  1.3474 -0.6458
 4087TIP3    H233897   2.586   3.600   1.732  1.6904  1.0066  0.6675
 4088TIP3   OH233898   1.343   3.570   1.903  0.2011 -0.1411 -0.1599
 4088TIP3    H133899   1.250   3.560   1.924  0.0593  2.1596  0.5813
 4088TIP3    H233900   1.344   3.595   1.810  0.0195  0.4381 -0.0095
 4089TIP3   OH233901   0.702   2.144   8.242  0.3105  0.5162 -0.2237
 4089TIP3    H133902   0.654   2.063   8.258  0.7819 -0.3072 -2.6033
 4089TIP3    H233903   0.789   2.128   8.279 -0.5461  1.3029  2.3763
 4090TIP3   OH233904   4.992   1.647   2.791  0.0102 -0.3032 -0.3532
 4090TIP3    H133905   4.978   1.554   2.771 -0.0499 -0.4099  0.1690
 4090TIP3    H233906   5.087   1.654   2.804  0.1892 -0.0254 -1.6803
 4091TIP3   OH233907   4.333   3.955   1.986 -0.4525 -0.5261  0.4267
 4091TIP3    H133908   4.383   3.979   2.063 -0.5838 -0.8282  0.6099
 4091TIP3    H233909   4.322   3.860   1.993 -0.6145 -0.5319  0.1279
 4092TIP3   OH233910   0.592   2.619   2.965 -0.1827 -0.0872 -0.3958
 4092TIP3    H133911   0.640   2.664   3.035 -0.8299 -1.3076  0.8808
 4092TIP3    H233912   0.557   2.690   2.911 -0.3629  0.9203  0.9793
 4093TIP3   OH233913   3.386   4.594   2.713 -0.6059  0.1613  0.2094
 4093TIP3    H133914   3.300   4.623   2.742 -0.9121 -0.2557 -0.2576
 4093TIP3    H233915   3.369   4.548   2.630 -0.0191 -0.4799  0.4344
 4094TIP3   OH233916   4.425   2.098   2.247  0.8845 -0.2629 -0.5199
 4094TIP3    H133917   4.334   2.079   2.270  0.9057 -0.7924 -0.8543
 4094TIP3    H233918   4.430   2.194   2.245  0.3582 -0.2316 -0.4044
 4095TIP3   OH233919   2.061   6.252   2.385 -0.5894 -0.3196 -0.5318
 4095TIP3    H133920   2.115   6.324   2.352 -1.0806  1.8468  2.9098
 4095TIP3    H233921   2.124   6.184   2.410  0.2894  0.6973  0.1039
 4096TIP3   OH233922   0.891   2.301   0.195  0.0037 -0.3700  0.7491
 4096TIP3    H133923   0.920   2.251   0.119  0.8959 -0.2684  1.0051
 4096TIP3    H233924   0.871   2.388   0.160  2.6075  0.3848  0.9281
 4097TIP3   OH233925   4.112   6.399   1.152 -0.8203 -0.0233  0.1068
 4097TIP3    H133926   4.053   6.433   1.220  1.0872  1.8286  0.9587
 4097TIP3    H233927   4.175   6.470   1.139  2.3949 -2.5620  0.6983
 4098TIP3   OH233928   4.768   1.127   2.306  0.5790 -0.4399 -0.7838
 4098TIP3    H133929   4.850   1.159   2.267 -0.0816  2.1462 -0.2512
 4098TIP3    H233930   4.702   1.142   2.238  0.0790  0.3880 -0.1411
 4099TIP3   OH233931   1.660   0.879   0.420  0.1170 -0.1717  0.2812
 4099TIP3    H133932   1.581   0.917   0.385 -0.2047 -1.5984 -0.6247
 4099TIP3    H233933   1.723   0.880   0.348  0.4304 -0.4214  0.5404
 4100TIP3   OH233934   1.261   3.464   7.527  0.6669  0.2575 -0.6530
 4100TIP3    H133935   1.211   3.395   7.484  1.0409  0.9667 -2.3086
 4100TIP3    H233936   1.331   3.485   7.465  1.0392  1.5518  0.1661
 4101TIP3   OH233937   2.592   0.112   0.090  0.4761 -0.5823 -0.5406
 4101TIP3    H133938   2.635   0.193   0.062 -0.7509 -0.7107 -3.0671
 4101TIP3    H233939   2.590   0.058   0.012  0.3377 -2.6874  0.8389
 4102TIP3   OH233940   6.057   1.455   7.212  0.5534 -0.2037 -0.1351
 4102TIP3    H133941   6.042   1.361   7.205 -1.4934 -0.1542  2.2651
 4102TIP3    H233942   6.099   1.466   7.298  1.4772  1.0482 -0.7092
 4103TIP3   OH233943   3.589   1.732   3.064 -0.1734 -0.4844  0.4580
 4103TIP3    H133944   3.637   1.650   3.079  0.1848  0.0623  2.6386
 4103TIP3    H233945   3.652   1.801   3.083 -1.4225  0.2569  2.2501
 4104TIP3   OH233946   3.063   2.481   3.188  0.5305 -0.0014  0.7517
 4104TIP3    H133947   3.118   2.500   3.112 -1.7962 -0.3509 -1.1517
 4104TIP3    H233948   3.022   2.396   3.168 -1.0642  0.4665  1.7983
 4105TIP3   OH233949   3.718   6.360   1.190 -0.0530 -0.4670  0.0978
 4105TIP3    H133950   3.751   6.281   1.234  1.6360 -0.2497 -0.7126
 4105TIP3    H233951   3.712   6.425   1.259 -0.6401 -1.0466  0.6118
 4106TIP3   OH233952   0.437   0.675   1.115 -0.7853  0.3731 -0.4280
 4106TIP3    H133953   0.460   0.679   1.022 -0.4454 -1.5784 -0.4804
 4106TIP3    H233954   0.479   0.595   1.146 -1.7841  0.4222  1.1580
 4107TIP3   OH233955   2.802   6.176   3.092 -0.2380  0.2749  0.5163
 4107TIP3    H133956   2.722   6.131   3.116 -0.0854  0.1831  0.8558
 4107TIP3    H233957   2.773   6.257   3.051 -0.5524 -0.6343 -1.1738
 4108TIP3   OH233958   0.538   0.406   1.786 -0.0894 -0.3045  0.2147
 4108TIP3    H133959   0.486   0.358   1.851  0.2057 -0.0841  0.6174
 4108TIP3    H233960   0.615   0.437   1.835  0.3340 -0.4814 -0.3346
 4109TIP3   OH233961   6.339   0.944   2.272  0.1484 -0.1543 -0.0514
 4109TIP3    H133962   6.262   0.947   2.215  0.6632 -0.3926 -0.7809
 4109TIP3    H233963   6.394   1.015   2.241  0.9165 -0.9590 -0.5709
 4110TIP3   OH233964   1.624   3.512   2.459  0.3250 -0.1726  0.6690
 4110TIP3    H133965   1.704   3.467   2.433  2.0528  2.8571  0.3910
 4110TIP3    H233966   1.592   3.461   2.534  1.7999 -2.1471  0.0466
 4111TIP3   OH233967   1.286   1.270   8.019  0.4939  0.4983  0.1610
 4111TIP3    H133968   1.221   1.236   8.080  1.3309  0.8084  1.2797
 4111TIP3    H233969   1.355   1.203   8.018  1.1835  1.1825  0.7495
 4112TIP3   OH233970   0.823   5.140   0.840 -0.6054 -0.1682 -0.4290
 4112TIP3    H133971   0.888   5.070   0.850 -1.9910 -1.9104 -2.5349
 4112TIP3    H233972   0.775   5.117   0.760 -1.3454  3.0770 -1.0733
 4113TIP3   OH233973   1.913   0.848   8.229  0.1139  0.1404 -0.0162
 4113TIP3    H133974   1.909   0.787   8.155  0.8726  0.8418 -0.6582
 4113TIP3    H233975   2.007   0.866   8.240  0.0927 -0.6680  1.7280
 4114TIP3   OH233976   4.183   6.094   9.043  0.1836  0.3007 -0.0791
 4114TIP3    H133977   4.185   6.000   9.024 -0.0241  0.6468 -2.1289
 4114TIP3    H233978   4.273   6.123   9.029  0.5168  0.2515  1.7281
 4115TIP3   OH233979   4.064   2.799   8.007 -0.3655  0.3007 -0.2951
 4115TIP3    H133980   3.984   2.777   8.055  0.5492 -1.3093  0.5936
 4115TIP3    H233981   4.130   2.811   8.076  0.4772  0.1525 -1.0616
 4116TIP3   OH233982   5.630   4.593   2.318  0.6875 -0.6254 -0.1044
 4116TIP3    H133983   5.580   4.656   2.267  1.5717 -0.0005 -0.2029
 4116TIP3    H233984   5.566   4.557   2.380  0.2561  0.6386  0.2095
 4117TIP3   OH233985   0.711   6.260   7.330  0.1851  0.1557 -0.6201
 4117TIP3    H133986   0.758   6.296   7.255  0.0141  0.9019 -0.3758
 4117TIP3    H233987   0.749   6.303   7.406 -0.1000 -0.0935 -0.3328
 4118TIP3   OH233988   2.282   4.426   7.345  0.3908  0.4481  0.0220
 4118TIP3    H133989   2.197   4.469   7.349  0.5961  0.8658 -0.0358
 4118TIP3    H233990   2.306   4.413   7.437  1.2663  2.3649  0.1233
 4119TIP3   OH233991   2.615   4.497   8.926 -0.2129  0.5968 -0.1334
 4119TIP3    H133992   2.569   4.435   8.869  1.7916 -0.8213 -0.3456
 4119TIP3    H233993   2.660   4.556   8.865  1.5922 -0.6640 -0.1339
 4120TIP3   OH233994   1.171   4.245   0.253  0.0751 -0.7553  0.4502
 4120TIP3    H133995   1.131   4.332   0.253  2.0063  0.1806  0.7454
 4120TIP3    H233996   1.159   4.213   0.342 -1.5477 -1.2788  0.0846
 4121TIP3   OH233997   2.862   0.864   0.102  0.2755  0.6468  0.4346
 4121TIP3    H133998   2.946   0.889   0.063  0.3861 -1.8682 -1.2097
 4121TIP3    H233999   2.884   0.793   0.162 -0.5525  0.8169  0.9577
 4122TIP3   OH234000   6.590   4.101   8.277 -0.1374  0.1686 -0.1011
 4122TIP3    H134001   6.638   4.171   8.233 -1.0703  0.5489 -0.5551
 4122TIP3    H234002   6.499   4.113   8.248 -0.4586 -0.6936  0.5100
 4123TIP3   OH234003   0.858   0.360   1.664 -0.1726  0.4237  0.3141
 4123TIP3    H134004   0.827   0.422   1.730 -1.3631  0.4105 -0.2025
 4123TIP3    H234005   0.847   0.274   1.705  0.1481  0.4690  0.5028
 4124TIP3   OH234006   1.150   0.330   7.554  0.0623  0.1035  0.6628
 4124TIP3    H134007   1.128   0.252   7.603 -0.8722  0.4742  0.8574
 4124TIP3    H234008   1.216   0.302   7.492 -0.0207 -0.7607  0.9587
 4125TIP3   OH234009   0.135   3.272   1.914 -0.0294  0.4529  0.0134
 4125TIP3    H134010   0.123   3.188   1.869 -0.8238  0.4147  0.2749
 4125TIP3    H234011   0.184   3.325   1.851  0.3182 -0.1424 -0.2296
 4126TIP3   OH234012   0.364   1.169   8.442  0.1857  0.6154  0.5066
 4126TIP3    H134013   0.278   1.199   8.412  0.5969 -0.0711 -1.5196
 4126TIP3    H234014   0.345   1.115   8.519 -1.3682 -0.6168 -0.6549
 4127TIP3   OH234015   5.940   3.124   0.846 -0.7730  0.6454  0.2813
 4127TIP3    H134016   5.981   3.107   0.761  2.1432 -0.0209  1.6847
 4127TIP3    H234017   5.927   3.038   0.885 -1.6777  0.9576  0.6921
 4128TIP3   OH234018   3.126   2.135   0.153 -0.5954  0.6022 -0.4428
 4128TIP3    H134019   3.121   2.122   0.059  0.3404  0.7343 -0.5243
 4128TIP3    H234020   3.085   2.220   0.168  0.6324  1.3082 -0.9414
 4129TIP3   OH234021   0.460   6.498   8.046 -0.1441  0.1230 -0.7600
 4129TIP3    H134022   0.419   6.570   7.997  2.0831  0.2445 -2.6408
 4129TIP3    H234023   0.498   6.540   8.123 -0.3935  0.6503 -0.9207
 4130TIP3   OH234024   1.344   5.441   8.410 -0.3314  0.1558 -0.5793
 4130TIP3    H134025   1.285   5.421   8.338  0.0262  0.0444 -0.8438
 4130TIP3    H234026   1.288   5.478   8.478 -1.1030 -1.9569  0.0349
 4131TIP3   OH234027   1.894   2.271   8.755 -0.0188 -0.2996  0.0949
 4131TIP3    H134028   1.940   2.259   8.672  0.7038 -0.3058  0.4882
 4131TIP3    H234029   1.802   2.281   8.730 -0.1687 -2.6917 -0.5416
 4132TIP3   OH234030   0.925   4.715   1.699 -0.0664  0.2871  0.4458
 4132TIP3    H134031   0.972   4.663   1.635 -1.7144 -1.1714  0.3492
 4132TIP3    H234032   0.978   4.795   1.709  1.6136 -0.6278 -0.6912
 4133TIP3   OH234033   3.856   1.001   1.939 -0.6134 -0.0544  0.4231
 4133TIP3    H134034   3.790   0.938   1.969 -1.3658 -0.0450 -1.1119
 4133TIP3    H234035   3.816   1.087   1.954 -0.6435 -0.0261  0.1834
 4134TIP3   OH234036   3.804   0.002   0.632  0.1932 -0.0698  0.3369
 4134TIP3    H134037   3.719   0.047   0.631 -0.7290 -1.7502  0.2830
 4134TIP3    H234038   3.851   0.041   0.706 -1.2226 -0.1643  1.3258
 4135TIP3   OH234039   1.297   1.821   8.886  0.1566  0.0667  0.5324
 4135TIP3    H134040   1.271   1.742   8.837  0.4019  0.9837 -1.1799
 4135TIP3    H234041   1.255   1.892   8.838  3.8429  1.4157 -0.9721
 4136TIP3   OH234042   3.327   0.031   7.823  0.0549  0.1930  0.6385
 4136TIP3    H134043   3.351   0.113   7.781  0.1370  0.4999  1.2697
 4136TIP3    H234044   3.332  -0.035   7.753 -2.6888  1.1386 -0.5775
 4137TIP3   OH234045   4.364   1.890   1.385  0.3009  0.1955  0.2256
 4137TIP3    H134046   4.342   1.829   1.456 -0.8543  0.2302 -0.0888
 4137TIP3    H234047   4.420   1.838   1.327 -0.5409 -0.5374  0.0398
 4138TIP3   OH234048   1.181   3.962   2.042 -0.3630  0.1108  0.1704
 4138TIP3    H134049   1.237   3.929   2.113  2.0762  0.4934 -1.4322
 4138TIP3    H234050   1.203   4.055   2.035 -0.4704  0.0660 -1.0947
 4139TIP3   OH234051   1.355   0.602   1.171  0.7536  0.0831 -0.4286
 4139TIP3    H134052   1.371   0.587   1.077 -0.3143  1.8372 -0.9503
 4139TIP3    H234053   1.260   0.597   1.180  0.4070  3.7818 -0.3121
 4140TIP3   OH234054   0.034   3.416   1.019 -0.0526 -0.2274 -0.5812
 4140TIP3    H134055   0.021   3.380   0.932  1.8094 -1.9004 -0.2382
 4140TIP3    H234056   0.074   3.502   1.004 -1.0219  0.1050 -1.3618
 4141TIP3   OH234057   4.592   2.652   9.077 -0.1776  0.3575  0.9504
 4141TIP3    H134058   4.618   2.732   9.033  0.2016 -0.0598  0.4042
 4141TIP3    H234059   4.671   2.598   9.077  0.3392  0.9691  3.6127
 4142TIP3   OH234060   6.541   0.358   7.879  0.0353 -0.2007  0.0242
 4142TIP3    H134061   6.505   0.276   7.847 -1.8135  1.2810 -2.0132
 4142TIP3    H234062   6.532   0.419   7.806  2.5753  1.5112  0.9851
 4143TIP3   OH234063   5.350   6.280   9.143 -0.6145 -0.4164  1.1068
 4143TIP3    H134064   5.415   6.218   9.175 -0.4212  0.2927  2.1510
 4143TIP3    H234065   5.395   6.329   9.074 -0.1853 -0.2328  1.5176
 4144TIP3   OH234066   3.952   4.197   9.023 -0.4557  0.0071  0.2813
 4144TIP3    H134067   3.999   4.189   9.106 -1.9530  3.3167  1.6521
 4144TIP3    H234068   3.891   4.124   9.022  0.1454 -0.5511  1.7204
 4145TIP3   OH234069   2.289   5.607   1.242 -0.8898 -0.5742  0.2536
 4145TIP3    H134070   2.362   5.661   1.211  0.5029 -2.4076  0.1024
 4145TIP3    H234071   2.294   5.611   1.337 -0.7068 -0.5239  0.2418
 4146TIP3   OH234072   5.234   5.798   9.069 -0.3499 -0.3341 -0.7195
 4146TIP3    H134073   5.329   5.788   9.069 -0.3219 -0.0933 -1.2182
 4146TIP3    H234074   5.211   5.809   9.161  0.2169  0.6408 -0.6793
 4147TIP3   OH234075   2.473   6.139   1.404  0.9843 -0.1497  0.1970
 4147TIP3    H134076   2.407   6.070   1.398 -0.0955  0.6968  1.6960
 4147TIP3    H234077   2.444   6.206   1.342  1.2014 -0.3830 -0.1568
 4148TIP3   OH234078   4.037   5.268   7.579  0.6094  0.0810  0.9878
 4148TIP3    H134079   4.019   5.253   7.487  2.5335 -0.1804  0.6110
 4148TIP3    H234080   3.987   5.346   7.602  0.2371  0.2435 -0.3234
 4149TIP3   OH234081   5.035   3.060   6.818  0.5604 -0.5059  0.3899
 4149TIP3    H134082   5.045   2.967   6.835 -0.1618 -0.5581  0.5608
 4149TIP3    H234083   5.089   3.076   6.740  2.1146 -0.7005  1.3943
 4150TIP3   OH234084   0.727   4.905   7.899  0.4084 -0.2600  0.4062
 4150TIP3    H134085   0.648   4.856   7.922  1.3441 -2.6655 -1.1240
 4150TIP3    H234086   0.694   4.983   7.854 -1.1565 -1.8904 -1.4975
 4151TIP3   OH234087   5.961   2.129   1.033 -0.1591 -0.4320  0.1255
 4151TIP3    H134088   5.960   2.219   1.002  3.6394  0.0086  0.8450
 4151TIP3    H234089   5.920   2.132   1.119 -1.0663  0.3465 -0.3156
 4152TIP3   OH234090   2.605   2.184   1.734  0.2386  0.2320 -0.5181
 4152TIP3    H134091   2.609   2.251   1.802  0.9456  0.6652 -0.9834
 4152TIP3    H234092   2.695   2.153   1.724 -0.1890 -1.3605  0.2427
 4153TIP3   OH234093   4.978   5.155   8.075  0.3181 -0.1566 -0.0847
 4153TIP3    H134094   4.978   5.147   8.171  1.1968  0.8235  0.0192
 4153TIP3    H234095   5.064   5.121   8.049  0.2071 -0.1166 -0.4978
 4154TIP3   OH234096   3.694   2.203   0.996  0.2171 -0.2854  0.0844
 4154TIP3    H134097   3.671   2.296   1.005  1.7295  0.1532 -0.3413
 4154TIP3    H234098   3.612   2.160   0.972  0.0018  1.3491 -2.3981
 4155TIP3   OH234099   5.171   5.322   7.780 -0.2810 -0.1931  0.5457
 4155TIP3    H134100   5.258   5.302   7.813  0.5998  0.7646 -1.0750
 4155TIP3    H234101   5.169   5.286   7.691 -2.4773 -2.4646  1.3855
 4156TIP3   OH234102   1.974   5.385   8.995 -0.8433  0.6518  0.1170
 4156TIP3    H134103   1.966   5.302   9.042  0.4726  0.5042  0.1015
 4156TIP3    H234104   1.888   5.398   8.955 -0.9397 -0.9391 -0.2584
 4157TIP3   OH234105   1.144   2.836   2.313 -0.2725 -0.1270  0.1913
 4157TIP3    H134106   1.221   2.891   2.298  0.9009 -1.5018  0.8690
 4157TIP3    H234107   1.165   2.753   2.270 -0.4728 -1.2187  2.0824
 4158TIP3   OH234108   6.588   0.753   3.019  0.3045 -0.2725 -0.2844
 4158TIP3    H134109   6.542   0.740   2.936  0.1583 -0.6113 -0.1531
 4158TIP3    H234110   6.558   0.681   3.074  1.0611 -0.5415 -0.2200
 4159TIP3   OH234111   3.289   4.786   0.822  0.1671  0.8534 -0.1915
 4159TIP3    H134112   3.289   4.762   0.915 -0.0591  1.1188 -0.1199
 4159TIP3    H234113   3.330   4.872   0.820  0.8428  0.5287 -0.4273
 4160TIP3   OH234114   6.135   4.458   7.681 -0.3550  0.0246 -0.0630
 4160TIP3    H134115   6.138   4.554   7.675 -1.5200  0.0896  0.0982
 4160TIP3    H234116   6.207   4.435   7.740  1.4313  0.5879 -1.8821
 4161TIP3   OH234117   2.962   0.606   7.440 -0.1217  0.1234  0.2878
 4161TIP3    H134118   2.947   0.550   7.364 -0.1125  2.9416 -1.9682
 4161TIP3    H234119   3.057   0.613   7.447 -0.1238  0.5740 -0.0546
 4162TIP3   OH234120   5.985   1.955   0.650 -0.4634 -0.1705 -0.3423
 4162TIP3    H134121   5.948   2.019   0.712 -1.5370  0.5680 -1.6948
 4162TIP3    H234122   6.068   1.992   0.623 -0.0236 -0.4564  0.5549
 4163TIP3   OH234123   5.302   5.756   8.132  0.3987  0.0094  0.3283
 4163TIP3    H134124   5.281   5.664   8.149 -1.4212  0.2587 -0.3605
 4163TIP3    H234125   5.335   5.788   8.216  3.0126 -1.7198  0.0828
 4164TIP3   OH234126   4.569   2.383   8.185 -0.0840  0.1847  0.8347
 4164TIP3    H134127   4.520   2.351   8.109  0.6557 -0.3825  0.5867
 4164TIP3    H234128   4.633   2.444   8.149 -0.8849  1.2684  1.2089
 4165TIP3   OH234129   6.120   5.969   2.982 -0.2050  0.0820  0.5221
 4165TIP3    H134130   6.058   5.923   2.924  1.7420 -0.5640 -1.1885
 4165TIP3    H234131   6.162   5.900   3.032  0.6993  0.2502  0.0253
 4166TIP3   OH234132   2.894   4.065   8.232  0.3262  0.1639  0.0368
 4166TIP3    H134133   2.808   4.107   8.244  0.8389  0.8265  1.7177
 4166TIP3    H234134   2.875   3.983   8.187 -1.0372  0.8930 -0.7837
 4167TIP3   OH234135   2.728   4.796   0.567 -0.2769  0.0228 -0.1641
 4167TIP3    H134136   2.688   4.872   0.609 -2.2806 -0.2609 -1.4207
 4167TIP3    H234137   2.697   4.721   0.619  2.1037 -0.0017  1.3874
 4168TIP3   OH234138   2.766   2.482   2.134  0.3371 -0.0937 -0.2857
 4168TIP3    H134139   2.831   2.547   2.160  0.6476 -0.8622  0.9338
 4168TIP3    H234140   2.717   2.464   2.214 -2.3358  1.4494 -1.4112
 4169TIP3   OH234141   2.899   2.140   7.998  0.2410  0.0090  0.6329
 4169TIP3    H134142   2.877   2.063   8.049 -3.2006  1.3197  1.3971
 4169TIP3    H234143   2.900   2.212   8.061 -0.0872  1.0826 -0.5297
 4170TIP3   OH234144   3.293   0.717   9.022  0.4088  0.1179  0.0548
 4170TIP3    H134145   3.274   0.769   8.944  0.5912 -0.0964 -0.1310
 4170TIP3    H234146   3.352   0.772   9.074  2.4188 -0.7807 -1.1693
 4171TIP3   OH234147   2.503   2.923   7.912  0.0146  0.2732 -0.2371
 4171TIP3    H134148   2.570   2.856   7.915  0.2984  0.5160 -0.8681
 4171TIP3    H234149   2.434   2.885   7.857  0.4093  0.6886 -1.0420
 4172TIP3   OH234150   1.916   2.312   7.627 -0.0100 -0.0512 -0.0350
 4172TIP3    H134151   1.853   2.240   7.618 -1.2046  1.0786 -1.1499
 4172TIP3    H234152   1.998   2.276   7.594 -0.2242 -1.3419  0.7741
 4173TIP3   OH234153   2.328   0.256   9.161  0.1586  0.3127  0.1845
 4173TIP3    H134154   2.397   0.204   9.202 -0.6294 -0.2240  0.8791
 4173TIP3    H234155   2.368   0.340   9.142  1.2055 -0.2367 -0.1096
 4174TIP3   OH234156   0.250   5.025   1.581  0.3963 -0.4770 -0.0210
 4174TIP3    H134157   0.289   5.093   1.526  2.2183 -0.9224  0.6736
 4174TIP3    H234158   0.301   5.026   1.661 -0.7552 -1.4158  0.7614
 4175TIP3   OH234159   2.662   1.004   1.179 -0.6069 -0.4708 -0.2380
 4175TIP3    H134160   2.685   0.915   1.206  0.9880 -0.0847 -0.2109
 4175TIP3    H234161   2.603   0.993   1.105  0.4804 -1.5637 -0.9714
 4176TIP3   OH234162   2.255   0.335   2.784  0.6377 -0.3505 -0.5046
 4176TIP3    H134163   2.327   0.396   2.798  0.3465  0.5477 -2.6615
 4176TIP3    H234164   2.176   0.390   2.785  0.3814 -0.6297 -2.5808
 4177TIP3   OH234165   3.369   3.879   8.219  0.0235 -0.4345  0.1567
 4177TIP3    H134166   3.284   3.921   8.231  0.2027 -0.4107  1.5008
 4177TIP3    H234167   3.417   3.938   8.160 -0.6847 -0.1669 -0.1605
 4178TIP3   OH234168   5.166   1.445   0.803  0.5145 -0.2282 -0.0923
 4178TIP3    H134169   5.112   1.418   0.877 -0.3200  0.5115 -0.4142
 4178TIP3    H234170   5.254   1.413   0.825 -0.0217 -1.3647  0.4836
 4179TIP3   OH234171   1.720   4.338   9.149  0.0173  0.0957 -0.2065
 4179TIP3    H134172   1.631   4.357   9.178 -0.2502 -0.3246 -0.7313
 4179TIP3    H234173   1.725   4.374   9.060 -0.0848 -1.0817 -0.7102
 4180TIP3   OH234174   4.641   0.665   1.696 -0.0090  0.2443 -0.4718
 4180TIP3    H134175   4.639   0.602   1.623 -0.0732  1.3857 -1.4867
 4180TIP3    H234176   4.549   0.678   1.719  0.0826 -1.5560  1.1389
 4181TIP3   OH234177   0.263   2.077   9.057 -0.0892  0.7799 -0.4487
 4181TIP3    H134178   0.180   2.040   9.026 -0.5641  1.7543 -0.3803
 4181TIP3    H234179   0.277   2.035   9.142 -0.0397 -0.0607 -0.8597
 4182TIP3   OH234180   1.548   0.923   1.906  0.1531 -0.1775 -0.5811
 4182TIP3    H134181   1.462   0.899   1.941  0.4415 -0.5379 -0.1003
 4182TIP3    H234182   1.591   0.969   1.979  0.4568 -0.2063 -0.7403
 4183TIP3   OH234183   2.215   5.820   7.765 -0.3447  0.0995 -1.0605
 4183TIP3    H134184   2.279   5.795   7.698  0.3723 -0.6873 -0.1119
 4183TIP3    H234185   2.268   5.837   7.843 -1.3567 -3.1536  0.5542
 4184TIP3   OH234186   0.904   4.380   1.600  0.0362 -0.1847 -0.0735
 4184TIP3    H134187   0.895   4.428   1.682  0.4755  2.0587 -1.2426
 4184TIP3    H234188   0.960   4.306   1.622 -0.2464  0.0873  1.7404
 4185TIP3   OH234189   2.942   1.111   2.041 -0.0340 -0.1609 -0.0053
 4185TIP3    H134190   2.887   1.082   1.968 -0.2286 -0.3474  0.2139
 4185TIP3    H234191   2.964   1.202   2.020  0.4690 -0.4150 -0.6369
 4186TIP3   OH234192   4.511   0.698   8.734  0.3045  0.3792 -0.0337
 4186TIP3    H134193   4.562   0.683   8.654  0.0212  0.2488 -0.1920
 4186TIP3    H234194   4.489   0.610   8.765 -0.6345  0.4429 -0.4918
 4187TIP3   OH234195   1.283   4.647   7.655  0.0718 -0.2354 -0.5250
 4187TIP3    H134196   1.322   4.583   7.595 -0.7179 -1.7139  0.4603
 4187TIP3    H234197   1.316   4.621   7.741 -0.1784  0.7736 -0.1140
 4188TIP3   OH234198   1.971   4.953   1.058  0.2536  0.1546  0.1262
 4188TIP3    H134199   1.892   4.949   1.003  0.9983  1.4974 -1.1098
 4188TIP3    H234200   1.937   4.959   1.148 -1.0509  0.5463 -0.3710
 4189TIP3   OH234201   5.095   5.549   8.334  0.0317 -0.2894  0.4386
 4189TIP3    H134202   5.061   5.521   8.419  0.8038 -1.1197  0.4892
 4189TIP3    H234203   5.190   5.543   8.343  0.1341 -0.0117 -0.3652
 4190TIP3   OH234204   0.198   2.866   7.135  0.6196 -0.2627 -0.5063
 4190TIP3    H134205   0.255   2.935   7.166 -1.8117  1.3597  0.6852
 4190TIP3    H234206   0.189   2.806   7.209 -0.1245  0.1309 -0.2691
 4191TIP3   OH234207   4.948   5.646   7.592 -0.4265  0.6546  0.4682
 4191TIP3    H134208   4.911   5.572   7.639  2.6520  0.1844  2.4430
 4191TIP3    H234209   4.951   5.717   7.656 -0.2002  1.4110 -0.3527
 4192TIP3   OH234210   0.513   3.320   0.447  0.6889  0.4334 -0.7130
 4192TIP3    H134211   0.569   3.260   0.398 -0.3989 -0.9739 -0.3194
 4192TIP3    H234212   0.426   3.308   0.408 -0.5901 -1.9219  2.3724
 4193TIP3   OH234213   1.964   1.021   0.648  0.0432 -0.0881  0.2146
 4193TIP3    H134214   1.988   1.111   0.668  0.1041 -0.4672  2.0462
 4193TIP3    H234215   1.869   1.018   0.660  0.0716 -0.3071  0.3983
 4194TIP3   OH234216   1.711   3.201   2.713 -0.0666 -0.2185  0.6766
 4194TIP3    H134217   1.635   3.251   2.685 -0.0700 -0.5358  0.0984
 4194TIP3    H234218   1.683   3.156   2.793 -0.8079 -1.0872 -0.0546
 4195TIP3   OH234219   4.183   1.533   1.784  0.2232 -0.2525 -0.2142
 4195TIP3    H134220   4.275   1.544   1.811  0.6984 -1.7275 -1.1060
 4195TIP3    H234221   4.133   1.573   1.855  1.5681  2.7603 -0.7945
 4196TIP3   OH234222   3.234   5.030   2.539  0.6960 -0.0673  0.4398
 4196TIP3    H134223   3.210   5.035   2.632  0.2833  0.3446  0.3102
 4196TIP3    H234224   3.154   5.004   2.495  1.0413 -0.8783  0.2576
 4197TIP3   OH234225   2.866   5.635   0.834  0.2399  0.3733 -0.1144
 4197TIP3    H134226   2.805   5.586   0.889  0.0666 -2.0627 -2.2358
 4197TIP3    H234227   2.952   5.601   0.857  0.3601  0.7667  0.0146
 4198TIP3   OH234228   2.353   2.442   0.908 -0.6574  0.4827  0.3761
 4198TIP3    H134229   2.392   2.528   0.926  2.2274 -0.4634 -0.8047
 4198TIP3    H234230   2.337   2.405   0.995 -1.0746  1.8182  0.8992
 4199TIP3   OH234231   5.912   4.680   2.254 -0.2722 -0.7510  0.5982
 4199TIP3    H134232   5.827   4.644   2.279 -0.5572 -1.2464 -0.9717
 4199TIP3    H234233   5.960   4.606   2.217  0.7759 -0.4296  1.2683
 4200TIP3   OH234234   4.834   3.947   8.986  0.0501  1.1504  0.1883
 4200TIP3    H134235   4.889   3.960   8.909  0.4861  0.6413  0.4118
 4200TIP3    H234236   4.827   3.852   8.995 -0.4183  1.2089  0.4785
 4201TIP3   OH234237   6.116   6.583   8.788 -0.3331  0.0527  0.6250
 4201TIP3    H134238   6.100   6.507   8.732  1.2462 -0.0053  0.1833
 4201TIP3    H234239   6.035   6.633   8.786 -0.0188  0.6755 -2.7050
 4202TIP3   OH234240   5.527   4.453   6.858  0.2108  0.3329 -0.2313
 4202TIP3    H134241   5.499   4.544   6.846  1.4046  0.6554 -0.8443
 4202TIP3    H234242   5.622   4.456   6.842  0.6648 -0.6265  1.9956
 4203TIP3   OH234243   0.686   5.310   1.988 -0.1701 -0.3939  0.2971
 4203TIP3    H134244   0.645   5.274   2.067 -1.0915 -0.8330 -0.3661
 4203TIP3    H234245   0.735   5.237   1.951 -1.0100 -0.6466 -0.3613
 4204TIP3   OH234246   5.545   5.193   8.322  0.2962  0.1198  0.0858
 4204TIP3    H134247   5.538   5.098   8.313  0.5946  0.1006  0.0495
 4204TIP3    H234248   5.592   5.221   8.243  3.9440 -0.1588  1.9369
 4205TIP3   OH234249   5.058   4.814   0.104  0.2635  0.3104 -0.2671
 4205TIP3    H134250   5.087   4.764   0.180 -2.0687  1.0423  1.2148
 4205TIP3    H234251   5.137   4.859   0.074  1.6639 -1.5399  0.4650
 4206TIP3   OH234252   3.276   5.154   8.063  0.0478  0.2038  0.2343
 4206TIP3    H134253   3.325   5.078   8.094  0.1944 -0.3434 -1.2506
 4206TIP3    H234254   3.187   5.122   8.051 -0.0066  0.3978  0.1145
 4207TIP3   OH234255   3.440   4.104   8.459  0.0961 -1.1637  0.2943
 4207TIP3    H134256   3.377   4.039   8.427 -0.7974  0.5360 -1.6181
 4207TIP3    H234257   3.505   4.111   8.389  0.6316 -0.5834  0.8404
 4208TIP3   OH234258   1.995   6.144   0.381  0.0495 -0.6072 -0.0308
 4208TIP3    H134259   2.032   6.233   0.375 -0.8463 -0.2749 -0.8225
 4208TIP3    H234260   2.030   6.099   0.304  0.5132 -0.9551  0.3773
 4209TIP3   OH234261   6.256   0.428   0.172  0.1529  0.0893 -0.3561
 4209TIP3    H134262   6.270   0.392   0.259  0.5976  2.4830  0.6345
 4209TIP3    H234263   6.179   0.381   0.139  0.7005 -1.7190  0.7907
 4210TIP3   OH234264   2.342   0.419   1.375  0.6091  0.9604  0.6121
 4210TIP3    H134265   2.356   0.418   1.280 -1.7647  0.8508  0.1918
 4210TIP3    H234266   2.328   0.511   1.396 -2.3850  0.7277  0.1450
 4211TIP3   OH234267   1.865   0.868   1.683 -0.1062 -0.6530 -0.2184
 4211TIP3    H134268   1.866   0.949   1.733 -0.4685  1.0421 -2.7796
 4211TIP3    H234269   1.774   0.838   1.685 -0.2543 -0.2144 -0.4493
 4212TIP3   OH234270   0.955   6.314   0.353 -0.1732  0.5677  0.0425
 4212TIP3    H134271   0.871   6.344   0.385  0.3833  1.0479  1.0956
 4212TIP3    H234272   1.018   6.378   0.387  0.5464  0.5976 -1.2795
 4213TIP3   OH234273   1.001   6.253   0.017 -0.2074  0.2883 -0.2909
 4213TIP3    H134274   1.027   6.198   0.091 -0.7536  1.0989  0.5294
 4213TIP3    H234275   1.080   6.302  -0.005 -0.0080 -0.0465 -0.3364
 4214TIP3   OH234276   2.981   4.614   1.051 -0.3983  0.4572  0.2950
 4214TIP3    H134277   2.962   4.569   1.133 -0.5824  0.7181  0.3973
 4214TIP3    H234278   2.912   4.586   0.991  0.2096 -0.3841 -0.0264
 4215TIP3   OH234279   1.445   2.233   7.793  0.6472 -0.2090  0.3825
 4215TIP3    H134280   1.489   2.192   7.719  3.3233  1.4175  0.9267
 4215TIP3    H234281   1.366   2.271   7.756  0.9457 -1.0954 -1.2315
 4216TIP3   OH234282   1.951   2.586   3.109 -0.2640  0.1405  0.4869
 4216TIP3    H134283   2.030   2.538   3.082  0.4247  2.2989 -1.7320
 4216TIP3    H234284   1.982   2.645   3.177 -0.2481  0.1000  0.5148
 4217TIP3   OH234285   6.671   6.278   0.601 -0.3559  0.4392  0.1687
 4217TIP3    H134286   6.586   6.285   0.558 -0.6101 -1.0965  0.3633
 4217TIP3    H234287   6.654   6.299   0.692 -0.4377  0.6149  0.1123
 4218TIP3   OH234288   6.074   2.885   2.023 -0.6037  0.2066  0.4229
 4218TIP3    H134289   6.112   2.941   1.956  0.3545  2.0117  2.3544
 4218TIP3    H234290   6.102   2.924   2.106 -0.6555 -2.6158  1.9184
 4219TIP3   OH234291   5.936   6.682   1.872  0.4179 -0.0612 -0.3156
 4219TIP3    H134292   5.922   6.665   1.779  0.3204 -0.8144 -0.1731
 4219TIP3    H234293   5.852   6.714   1.903  0.5873  0.6675 -0.5793
 4220TIP3   OH234294   6.679   1.592   1.220  0.5539  0.3271 -0.0462
 4220TIP3    H134295   6.606   1.531   1.210 -1.5009  2.3672  1.5115
 4220TIP3    H234296   6.680   1.642   1.137 -0.1810  0.6231  0.1148
 4221TIP3   OH234297   3.484   5.985   0.830  0.0291  0.1265  0.9459
 4221TIP3    H134298   3.579   6.000   0.825 -0.1782  1.1174 -0.6843
 4221TIP3    H234299   3.472   5.938   0.913  2.0315 -0.7393  0.8181
 4222TIP3   OH234300   1.097   0.306   2.492 -0.2251  0.9218 -0.3661
 4222TIP3    H134301   1.044   0.303   2.572 -0.2244  1.1684 -0.3538
 4222TIP3    H234302   1.034   0.293   2.421 -0.3095  1.2416 -0.3532
 4223TIP3   OH234303   6.267   1.392   1.720 -0.1444 -0.1075 -0.6235
 4223TIP3    H134304   6.307   1.307   1.701  1.2834  0.6126 -0.9895
 4223TIP3    H234305   6.296   1.413   1.809 -0.8416 -0.1961 -0.3749
 4224TIP3   OH234306   1.860   4.430   8.032  0.1787 -0.3229  0.3708
 4224TIP3    H134307   1.775   4.432   8.075  0.1867 -0.4877  0.3925
 4224TIP3    H234308   1.839   4.420   7.939  0.1518  0.2894  0.3054
 4225TIP3   OH234309   5.450   3.697   1.295  0.4329 -0.0878  0.3924
 4225TIP3    H134310   5.383   3.678   1.229  2.4815 -0.0778 -1.8232
 4225TIP3    H234311   5.444   3.792   1.308 -1.9985 -0.4147  2.6745
 4226TIP3   OH234312   6.378   4.672   2.365  0.2580 -0.1324 -0.2870
 4226TIP3    H134313   6.313   4.611   2.330  1.5667 -0.6230 -2.0412
 4226TIP3    H234314   6.391   4.643   2.456 -0.0814 -1.6910 -0.6956
 4227TIP3   OH234315   0.832   6.077   1.103 -0.1636  0.8015 -0.1210
 4227TIP3    H134316   0.739   6.081   1.125  0.4998  0.7618  3.0597
 4227TIP3    H234317   0.870   6.020   1.169  2.3502  1.8212 -0.5978
 4228TIP3   OH234318   2.602   6.557   7.978 -0.3324  0.2846  0.2418
 4228TIP3    H134319   2.615   6.604   7.895 -1.2258  1.2012  0.6093
 4228TIP3    H234320   2.652   6.607   8.042 -0.6853  0.3108  0.4984
 4229TIP3   OH234321   2.120   2.867   2.680  0.6131  0.3102 -0.2123
 4229TIP3    H134322   2.186   2.799   2.667  1.4739  1.0344  0.2958
 4229TIP3    H234323   2.053   2.825   2.734  2.7886  0.7873  3.1396
 4230TIP3   OH234324   1.749   6.351   7.561  0.0945  0.2214 -1.0786
 4230TIP3    H134325   1.812   6.296   7.515  1.8895 -1.1602  2.6145
 4230TIP3    H234326   1.674   6.294   7.577  0.9789 -0.5200  0.6942
 4231TIP3   OH234327   0.278   5.789   0.356  0.9474  0.7089 -0.1148
 4231TIP3    H134328   0.355   5.772   0.301 -0.0062  1.9277 -1.9604
 4231TIP3    H234329   0.283   5.725   0.426  3.0149  0.0003 -0.8425
 4232TIP3   OH234330   4.686   5.999   1.203  0.2665 -0.5650  0.2119
 4232TIP3    H134331   4.601   5.955   1.191  0.5275 -0.9669 -0.1848
 4232TIP3    H234332   4.728   5.949   1.273 -0.0999  0.0586  0.8940
 4233TIP3   OH234333   3.267   4.990   0.334 -0.0127 -0.0360 -0.1850
 4233TIP3    H134334   3.178   4.957   0.324 -0.1607 -0.2936  1.5736
 4233TIP3    H234335   3.321   4.911   0.336  0.1081  0.0522  0.0142
 4234TIP3   OH234336   0.151   1.366   0.549 -0.0133  0.4337  0.2098
 4234TIP3    H134337   0.111   1.410   0.624 -0.2880 -2.1716  1.7024
 4234TIP3    H234338   0.078   1.350   0.489 -0.0956  1.0265  0.1448
 4235TIP3   OH234339   1.346   0.161   7.939 -0.0138 -0.2909  0.3298
 4235TIP3    H134340   1.312   0.250   7.949  0.7517  0.0336  0.1228
 4235TIP3    H234341   1.316   0.134   7.852  1.1324  0.4101 -0.3172
 4236TIP3   OH234342   0.883   2.954   1.862 -0.1437  0.1926  0.0441
 4236TIP3    H134343   0.843   3.020   1.806 -2.6927 -1.0426  0.2810
 4236TIP3    H234344   0.841   2.966   1.947  4.6691  3.0239  2.4736
 4237TIP3   OH234345   2.213   5.183   1.028 -0.2665 -0.2984  0.3026
 4237TIP3    H134346   2.237   5.158   1.117  1.2930  0.3339  0.0762
 4237TIP3    H234347   2.154   5.113   0.999  0.8411 -1.6045  1.1056
 4238TIP3   OH234348   4.228   3.367   0.214  0.5488  0.1199 -0.0461
 4238TIP3    H134349   4.174   3.343   0.289  1.0243  1.2294  0.6749
 4238TIP3    H234350   4.165   3.385   0.144  0.0673 -0.2485  0.2859
 4239TIP3   OH234351   0.329   3.749   8.148 -0.4003  0.2441 -0.2460
 4239TIP3    H134352   0.420   3.724   8.135 -0.7119  0.3776 -3.3392
 4239TIP3    H234353   0.332   3.842   8.170  0.2812 -0.3297  2.3620
 4240TIP3   OH234354   0.081   0.318   8.085  0.4359  0.1864  0.0355
 4240TIP3    H134355   0.153   0.375   8.055  0.6503  0.2442  0.6507
 4240TIP3    H234356   0.012   0.331   8.019 -0.0321  2.1732  0.8446
 4241TIP3   OH234357   2.067   6.677   8.146 -0.5000  0.1051 -0.0540
 4241TIP3    H134358   2.024   6.738   8.206 -0.1272  1.2604 -0.9116
 4241TIP3    H234359   2.138   6.639   8.197 -1.1188 -0.0850  0.6848
 4242TIP3   OH234360   4.585   5.411   2.138 -0.1542  0.1733  0.1021
 4242TIP3    H134361   4.620   5.344   2.079  0.2741 -0.6579  1.2791
 4242TIP3    H234362   4.513   5.368   2.184 -0.3391  0.7447  0.3644
 4243TIP3   OH234363   2.153   6.288   9.162 -0.7092  0.3894 -0.4445
 4243TIP3    H134364   2.096   6.315   9.089  0.4714  2.1906 -0.7598
 4243TIP3    H234365   2.201   6.367   9.185  2.2680 -1.2099 -0.7301
 4244TIP3   OH234366   4.959   4.374   1.782  0.0212 -0.3416  0.3935
 4244TIP3    H134367   5.041   4.401   1.824  1.3673 -1.1677 -1.5697
 4244TIP3    H234368   4.961   4.417   1.697 -2.4072  0.9230  0.8984
 4245TIP3   OH234369   0.768   0.309   1.023  0.0497 -0.5417 -0.0725
 4245TIP3    H134370   0.728   0.392   0.997  1.3205  0.1735  0.1323
 4245TIP3    H234371   0.695   0.248   1.032 -1.0144  0.7818  0.6160
 4246TIP3   OH234372   5.424   2.072   7.229  0.1017  0.0050  0.6375
 4246TIP3    H134373   5.507   2.109   7.200  0.3708 -0.8426  0.2907
 4246TIP3    H234374   5.357   2.131   7.194  0.5676  1.1372  1.5843
 4247TIP3   OH234375   2.052   6.552   8.436 -0.2483  0.2929  0.2379
 4247TIP3    H134376   2.074   6.639   8.470 -0.2791  0.1338  0.6814
 4247TIP3    H234377   2.116   6.494   8.477 -0.4423  0.0598  0.2118
 4248TIP3   OH234378   6.528   4.153   7.774 -0.5541  0.0953  0.0508
 4248TIP3    H134379   6.527   4.185   7.684  0.1357  1.3555  0.4608
 4248TIP3    H234380   6.456   4.199   7.816  1.2078  2.2373  0.9643
 4249TIP3   OH234381   6.024   5.882   8.593  0.2226  1.0200  0.1207
 4249TIP3    H134382   6.006   5.860   8.502  2.2053 -0.4686  0.0198
 4249TIP3    H234383   6.097   5.945   8.588  1.5874 -0.4549  0.6735
 4250TIP3   OH234384   3.938   2.353   1.335 -0.1170 -0.6192  0.1552
 4250TIP3    H134385   3.968   2.321   1.420 -0.5758  0.1877  0.6368
 4250TIP3    H234386   3.844   2.337   1.335 -0.4054  0.9042  0.5160
 4251TIP3   OH234387   6.231   6.179   1.841 -0.6277 -0.0484 -0.2500
 4251TIP3    H134388   6.262   6.115   1.905  0.1971  0.9822  0.4221
 4251TIP3    H234389   6.295   6.175   1.770 -0.0659  0.6378  0.2024
 4252TIP3   OH234390   5.313   4.425   0.958 -0.0941 -0.0626  0.6976
 4252TIP3    H134391   5.233   4.431   0.905 -0.6594 -1.6694  1.3075
 4252TIP3    H234392   5.328   4.331   0.967 -0.7231  0.0705  4.3896
 4253TIP3   OH234393   4.011   0.003   1.942  0.3285  0.1388 -0.5581
 4253TIP3    H134394   4.011  -0.061   1.871  1.7592  0.1991 -0.6560
 4253TIP3    H234395   4.061   0.077   1.907  0.9951  0.2002  0.4743
 4254TIP3   OH234396   4.976   2.154   1.934  0.0865  0.1491 -0.5355
 4254TIP3    H134397   4.970   2.244   1.966 -0.3378 -0.7027  2.0618
 4254TIP3    H234398   5.065   2.126   1.955 -0.4159 -0.6570  0.6596
 4255TIP3   OH234399   1.233   6.275   1.842  0.4800 -0.5172 -0.5362
 4255TIP3    H134400   1.211   6.205   1.780  0.5360 -1.7856  0.8223
 4255TIP3    H234401   1.285   6.336   1.791 -0.1851 -1.0829 -1.9566
 4256TIP3   OH234402   0.939   3.023   1.060  0.0072  0.0520 -0.4165
 4256TIP3    H134403   0.905   3.025   0.970  0.2172 -0.8653 -0.5211
 4256TIP3    H234404   0.878   2.967   1.107  1.7469 -2.3121 -0.7907
 4257TIP3   OH234405   1.646   3.641   7.510  0.3036 -0.4571  0.0565
 4257TIP3    H134406   1.688   3.558   7.534  0.8000 -0.0696  0.5220
 4257TIP3    H234407   1.611   3.675   7.592  1.8831  0.7992  0.2336
 4258TIP3   OH234408   1.297   1.593   8.742 -0.2455 -1.1587  0.3388
 4258TIP3    H134409   1.280   1.511   8.695  2.2344 -1.3875 -0.3151
 4258TIP3    H234410   1.338   1.566   8.824  0.2764 -0.6029  0.2680
 4259TIP3   OH234411   2.726   0.137   1.877  0.0070  0.2286 -0.6424
 4259TIP3    H134412   2.700   0.229   1.881 -0.2914  0.1764 -1.2215
 4259TIP3    H234413   2.766   0.120   1.962 -1.6066  0.3902  0.1905
 4260TIP3   OH234414   1.959   3.067   2.888 -0.0356  0.5004  0.5778
 4260TIP3    H134415   1.932   2.990   2.838  1.7667  0.4720 -0.4171
 4260TIP3    H234416   1.950   3.140   2.826  3.2065  0.3298 -0.2761
 4261TIP3   OH234417   4.704   0.690   2.153 -0.4077 -0.2963 -0.3485
 4261TIP3    H134418   4.720   0.619   2.215  0.8109  0.5091  0.3013
 4261TIP3    H234419   4.625   0.663   2.106 -0.1293 -1.9472  0.0523
 4262TIP3   OH234420   3.998   6.442   1.418  0.1998 -0.0315  0.3861
 4262TIP3    H134421   3.953   6.399   1.490 -3.2525 -0.2527 -1.6455
 4262TIP3    H234422   3.955   6.527   1.410  2.4998  1.2163  0.2998
 4263TIP3   OH234423   0.001   1.066   0.180  0.6561 -0.8496 -0.0023
 4263TIP3    H134424   0.035   1.012   0.251  2.4372  1.5264  1.0766
 4263TIP3    H234425   0.010   1.156   0.211 -1.4644  0.1700 -2.0074
 4264TIP3   OH234426   4.435   1.860   2.084  0.0101 -0.1400 -0.5008
 4264TIP3    H134427   4.420   1.927   2.151  2.7226 -1.2527  1.4052
 4264TIP3    H234428   4.376   1.789   2.107 -0.4624  0.2492 -0.4928
 4265TIP3   OH234429   5.009   3.659   0.480  0.1350 -0.6462 -0.8793
 4265TIP3    H134430   5.094   3.652   0.438  0.6811  2.6067 -0.5406
 4265TIP3    H234431   5.028   3.687   0.569 -1.2722  0.8015 -0.9849
 4266TIP3   OH234432   0.026   4.144   7.016  0.1452 -0.2764  0.1129
 4266TIP3    H134433   0.072   4.221   7.050 -1.1141  0.6929 -0.2622
 4266TIP3    H234434   0.009   4.090   7.093 -0.0271  0.4328  0.5814
 4267TIP3   OH234435   5.434   5.248   7.777 -0.6508  0.6379  0.6741
 4267TIP3    H134436   5.411   5.219   7.689 -2.3986  0.5295  1.1347
 4267TIP3    H234437   5.403   5.178   7.834 -0.6575  1.2733  1.4582
 4268TIP3   OH234438   1.555   4.855   1.535 -0.1446 -0.0171  0.2872
 4268TIP3    H134439   1.476   4.802   1.547 -0.8545  1.2831  1.6375
 4268TIP3    H234440   1.626   4.792   1.534 -1.1342 -1.1626 -0.2804
 4269TIP3   OH234441   2.782   0.346   0.319  0.2203 -0.4099  0.3496
 4269TIP3    H134442   2.873   0.374   0.308  0.0549  1.0461  2.1698
 4269TIP3    H234443   2.734   0.397   0.254  0.6773 -1.0808 -0.5246
 4270TIP3   OH234444   5.470   2.955   1.155  0.3334  0.0440 -0.5033
 4270TIP3    H134445   5.553   2.931   1.196 -0.4479 -0.9794  0.5436
 4270TIP3    H234446   5.473   3.050   1.150  1.6386  0.0142 -0.6391
 4271TIP3   OH234447   1.731   0.178   0.412  0.0731  0.2055 -0.5124
 4271TIP3    H134448   1.804   0.209   0.359 -0.2786 -0.0673 -1.1579
 4271TIP3    H234449   1.702   0.256   0.460 -0.0415  0.6179 -1.2337
 4272TIP3   OH234450   4.584   5.777   2.801  0.4858 -0.5246 -0.2559
 4272TIP3    H134451   4.542   5.816   2.878  0.2116  1.2632 -1.2618
 4272TIP3    H234452   4.534   5.697   2.785 -0.2142 -0.3056  0.7151
 4273TIP3   OH234453   4.603   0.557   0.450 -0.1149 -0.0362 -0.0645
 4273TIP3    H134454   4.618   0.639   0.402  0.1717 -0.3414 -0.5080
 4273TIP3    H234455   4.561   0.584   0.531  1.3414  0.6957  0.4700
 4274TIP3   OH234456   6.190   3.870   2.681 -0.3206 -0.2521  0.6451
 4274TIP3    H134457   6.144   3.787   2.690 -2.8595  0.7905 -1.4332
 4274TIP3    H234458   6.166   3.920   2.759  1.3601 -1.3976  1.9959
 4275TIP3   OH234459   1.797   4.726   1.538 -0.4518  0.2402  0.1324
 4275TIP3    H134460   1.810   4.638   1.574  0.1952  0.2046 -0.1791
 4275TIP3    H234461   1.848   4.783   1.595  2.7787 -0.1059 -2.1176
 4276TIP3   OH234462   5.248   5.707   1.593  0.3404  0.0291  0.0513
 4276TIP3    H134463   5.215   5.779   1.540  0.1873 -1.0749 -1.4235
 4276TIP3    H234464   5.176   5.686   1.653 -0.2419  0.0321 -0.6342
 4277TIP3   OH234465   4.427   5.420   0.796 -0.4651  0.3633 -0.3557
 4277TIP3    H134466   4.428   5.355   0.725 -0.4753  0.6492 -0.6211
 4277TIP3    H234467   4.519   5.433   0.817 -0.4795  0.0176 -0.0744
 4278TIP3   OH234468   0.612   5.740   2.256  0.3289 -0.2527  0.1791
 4278TIP3    H134469   0.661   5.762   2.335  0.7023  1.3901 -0.4621
 4278TIP3    H234470   0.677   5.743   2.186 -0.5058  1.1001 -0.5711
 4279TIP3   OH234471   5.052   4.658   1.553  0.4298  0.4313  0.4360
 4279TIP3    H134472   5.022   4.710   1.478 -0.9751 -0.5759  0.2650
 4279TIP3    H234473   5.109   4.592   1.515 -1.2394 -0.8435  0.0376
 4280TIP3   OH234474   2.176   3.119   8.901 -0.2099  0.0201  0.0848
 4280TIP3    H134475   2.257   3.094   8.858  0.0209 -0.5037  0.8212
 4280TIP3    H234476   2.109   3.112   8.832  0.1772 -0.6713 -0.2225
 4281TIP3   OH234477   5.126   3.359   2.414  0.4062  0.1875  0.0451
 4281TIP3    H134478   5.088   3.320   2.493  2.0436  1.9216  1.7729
 4281TIP3    H234479   5.196   3.299   2.390  0.4178  0.0626  0.3754
 4282TIP3   OH234480   0.165   5.753   7.457 -0.4778  0.6499  0.1331
 4282TIP3    H134481   0.093   5.697   7.486  0.5378 -0.0454  1.4311
 4282TIP3    H234482   0.143   5.777   7.367 -1.2019 -1.3932 -0.2699
 4283TIP3   OH234483   3.206   0.524   0.485 -0.4317  0.1834  0.0545
 4283TIP3    H134484   3.286   0.534   0.435  0.4501  0.7080  1.5189
 4283TIP3    H234485   3.172   0.438   0.459 -0.2710  0.6196 -1.7444
 4284TIP3   OH234486   5.465   2.377   8.897 -0.5848 -0.1981  0.1178
 4284TIP3    H134487   5.417   2.439   8.842  0.9367  0.3393 -0.6593
 4284TIP3    H234488   5.504   2.431   8.966 -0.9918 -0.6115  0.6811
 4285TIP3   OH234489   1.216   6.621   0.200 -0.3468  0.6423 -0.5220
 4285TIP3    H134490   1.226   6.714   0.216  1.0830  0.3843  0.1801
 4285TIP3    H234491   1.218   6.612   0.105 -2.2626  1.4768 -0.7000
 4286TIP3   OH234492   5.007   0.774   0.120  0.4809 -0.0829  0.2013
 4286TIP3    H134493   5.010   0.767   0.215 -1.1980 -0.9535  0.2295
 4286TIP3    H234494   4.923   0.733   0.096  1.1313 -0.3837 -1.6887
 4287TIP3   OH234495   5.953   5.571   8.093  0.3642 -0.4997  0.3396
 4287TIP3    H134496   5.879   5.583   8.034 -0.0026  2.2278  1.1924
 4287TIP3    H234497   5.920   5.513   8.162 -0.5009 -0.4842 -0.0451
 4288TIP3   OH234498   2.757   5.227   1.648  0.5520 -0.2646 -0.3175
 4288TIP3    H134499   2.815   5.184   1.585 -0.0387 -0.5531 -0.6769
 4288TIP3    H234500   2.675   5.241   1.599 -1.1268 -3.4610  1.3025
 4289TIP3   OH234501   0.644   1.058   1.927 -0.0751 -0.6684 -0.2271
 4289TIP3    H134502   0.612   1.140   1.964  1.5047 -0.2500  0.2717
 4289TIP3    H234503   0.660   1.077   1.835  1.4537 -0.0352  0.1478
 4290TIP3   OH234504   2.427   4.199   8.134  0.1228  0.1502  0.1938
 4290TIP3    H134505   2.432   4.104   8.130 -2.9696 -0.1863  1.5651
 4290TIP3    H234506   2.334   4.218   8.152  0.2626  3.4951 -1.6850
 4291TIP3   OH234507   5.248   6.616   2.424  0.8154 -0.0276  0.0158
 4291TIP3    H134508   5.197   6.579   2.496  0.0442  2.2729  0.7396
 4291TIP3    H234509   5.195   6.599   2.346  0.4922 -0.4282  0.3149
 4292TIP3   OH234510   2.085   1.020   9.069  0.5155 -0.3024  0.4646
 4292TIP3    H134511   2.013   1.055   9.016 -1.4140 -1.6293  2.0217
 4292TIP3    H234512   2.108   1.091   9.128  1.4514  0.5784 -0.9043
 4293TIP3   OH234513   3.899   5.205   7.986  0.5039  0.9148  0.3117
 4293TIP3    H134514   3.958   5.242   8.051  0.1016  0.5711  0.8806
 4293TIP3    H234515   3.825   5.266   7.984  0.3145  0.6890  0.4949
 4294TIP3   OH234516   4.476   2.701   8.588 -0.5939  0.2647  0.3287
 4294TIP3    H134517   4.455   2.626   8.532  0.6547 -0.4070  0.7372
 4294TIP3    H234518   4.416   2.693   8.663 -1.6686  0.6846 -0.4558
 4295TIP3   OH234519   1.217   3.374   7.098  0.6273 -0.8596  0.7610
 4295TIP3    H134520   1.232   3.284   7.068  0.1173 -0.7172  0.0531
 4295TIP3    H234521   1.203   3.424   7.018 -0.9488 -0.4884  1.2350
 4296TIP3   OH234522   0.805   6.169   8.792 -1.0446  0.4874 -0.2489
 4296TIP3    H134523   0.793   6.189   8.885 -1.3744 -0.4444 -0.0762
 4296TIP3    H234524   0.885   6.117   8.789 -0.2488  1.7169 -0.6725
 4297TIP3   OH234525   5.590   4.029   1.037  0.5806 -0.8438  1.0533
 4297TIP3    H134526   5.637   4.010   1.119  1.8675  2.0477  1.1010
 4297TIP3    H234527   5.647   3.993   0.969  0.4665 -1.5543  1.3214
 4298TIP3   OH234528   4.134   0.898   8.772 -0.3319  0.4331 -0.7846
 4298TIP3    H134529   4.191   0.885   8.848 -1.5038 -0.0879  0.0402
 4298TIP3    H234530   4.173   0.845   8.703 -0.6204 -1.1424  0.2100
 4299TIP3   OH234531   3.368   1.153   1.976  0.3799 -0.1236 -0.3004
 4299TIP3    H134532   3.293   1.202   2.010  1.2940  1.3409 -0.2963
 4299TIP3    H234533   3.354   1.063   2.005 -1.2204  0.1799 -0.0652
 4300TIP3   OH234534   3.217   3.907   0.107 -0.6022  0.3525 -0.2782
 4300TIP3    H134535   3.127   3.877   0.092  0.5491 -4.9361  1.3167
 4300TIP3    H234536   3.214   3.954   0.190 -1.8173 -0.4791  0.1757
 4301TIP3   OH234537   5.878   3.396   2.405  0.2357  0.7512  0.1088
 4301TIP3    H134538   5.868   3.447   2.485  0.3045  2.5975 -0.9960
 4301TIP3    H234539   5.956   3.343   2.420 -1.7830 -1.8124  2.6507
 4302TIP3   OH234540   6.020   0.487   1.023 -0.3177 -0.0780  0.1086
 4302TIP3    H134541   6.069   0.406   1.007 -0.7581 -0.0874 -1.3397
 4302TIP3    H234542   5.930   0.459   1.035 -0.1724  0.0395  1.6818
 4303TIP3   OH234543   1.827   2.646   7.790 -0.1736 -0.0593  0.2897
 4303TIP3    H134544   1.765   2.574   7.778 -0.1783 -0.0500  0.2572
 4303TIP3    H234545   1.892   2.633   7.721 -0.4700  0.2762 -0.0633
 4304TIP3   OH234546   2.736   5.978   2.269 -0.3459  0.0492  0.3209
 4304TIP3    H134547   2.761   5.996   2.359 -1.4241  0.1101  0.6180
 4304TIP3    H234548   2.793   5.906   2.242  1.1902  1.1569  0.4601
 4305TIP3   OH234549   5.119   1.684   9.089 -0.1878  0.4195  0.0151
 4305TIP3    H134550   5.190   1.731   9.045  0.2391  1.3947  1.6528
 4305TIP3    H234551   5.044   1.694   9.030  0.0488  2.7118 -0.0049
 4306TIP3   OH234552   4.765   3.517   8.143  0.1695  0.5417 -0.0894
 4306TIP3    H134553   4.829   3.543   8.077  0.2069  1.7029  0.3779
 4306TIP3    H234554   4.748   3.424   8.125  1.2249  0.4741 -0.8386
 4307TIP3   OH234555   6.438   3.648   2.629 -0.2128 -0.1005 -0.9057
 4307TIP3    H134556   6.428   3.556   2.604  0.7487 -0.7804  1.0332
 4307TIP3    H234557   6.525   3.654   2.667 -1.1771  1.0270  1.3271
 4308TIP3   OH234558   4.099   6.682   1.261 -0.4353  0.3789 -0.5064
 4308TIP3    H134559   4.014   6.697   1.302  0.2727 -1.4101  1.8569
 4308TIP3    H234560   4.158   6.664   1.334  1.4514 -0.7590 -2.2081
 4309TIP3   OH234561   6.546   5.445   0.068  0.3707  0.2094 -0.3199
 4309TIP3    H134562   6.477   5.383   0.046 -0.3650  1.3765 -1.4518
 4309TIP3    H234563   6.507   5.501   0.136  1.6819 -1.6679  2.1204
 4310TIP3   OH234564   1.489   0.817   8.362  0.2508  0.2334  0.4840
 4310TIP3    H134565   1.525   0.806   8.274  2.4599 -1.5621  1.5145
 4310TIP3    H234566   1.440   0.736   8.379 -0.8714  0.9217  0.6351
 4311TIP3   OH234567   4.673   6.432   9.059  0.1330  0.0141  0.3903
 4311TIP3    H134568   4.581   6.424   9.086  0.5910 -1.3358  1.7417
 4311TIP3    H234569   4.697   6.343   9.032  0.5049  0.7697 -1.9861
 4312TIP3   OH234570   3.283   3.256   2.633  0.0502  0.7083  0.0171
 4312TIP3    H134571   3.349   3.313   2.672  1.2661 -0.2552 -0.5620
 4312TIP3    H234572   3.291   3.272   2.539 -1.4397  1.4978 -0.0176
 4313TIP3   OH234573   0.149   5.690   2.119  0.6246 -0.2443  0.3616
 4313TIP3    H134574   0.066   5.692   2.166 -0.2093 -0.9800 -1.0167
 4313TIP3    H234575   0.187   5.605   2.141  0.5027 -0.3476  0.1830
 4314TIP3   OH234576   0.191   0.230   8.842  0.2263  0.5712  0.0634
 4314TIP3    H134577   0.215   0.160   8.903 -1.2042  1.0107  1.1891
 4314TIP3    H234578   0.244   0.213   8.764 -0.7781 -2.3582 -0.1035
 4315TIP3   OH234579   1.646   6.612   0.486  0.6801 -0.3721 -0.1790
 4315TIP3    H134580   1.659   6.688   0.430 -1.7600 -0.6735 -1.2996
 4315TIP3    H234581   1.595   6.551   0.433  1.2670 -2.1863  1.2079
 4316TIP3   OH234582   1.339   3.706   8.673 -0.0101  0.0616 -0.5191
 4316TIP3    H134583   1.348   3.790   8.629  1.0467  0.3019  0.1279
 4316TIP3    H234584   1.244   3.694   8.683 -0.1860  0.8785 -1.1567
 4317TIP3   OH234585   1.425   3.500   0.345 -0.2417 -0.1879 -0.1540
 4317TIP3    H134586   1.424   3.469   0.436  1.3435  1.5239  0.5102
 4317TIP3    H234587   1.333   3.516   0.325 -0.6604 -0.9228  1.0217
 4318TIP3   OH234588   5.227   5.023   8.090 -0.0526 -0.2474  0.4226
 4318TIP3    H134589   5.316   5.008   8.057 -0.5736 -1.2364 -0.5938
 4318TIP3    H234590   5.240   5.058   8.178  1.3874  1.7599 -0.4896
 4319TIP3   OH234591   3.529   6.194   0.624  0.0506  0.2114  0.0700
 4319TIP3    H134592   3.501   6.133   0.692 -0.4608 -0.3341 -0.6170
 4319TIP3    H234593   3.625   6.192   0.629  0.0423 -0.5853  0.1117
 4320TIP3   OH234594   6.610   5.340   8.454 -0.3473  0.9739  0.0344
 4320TIP3    H134595   6.613   5.420   8.403  0.3024  0.5596 -0.5963
 4320TIP3    H234596   6.691   5.293   8.432 -1.2645 -0.4147 -0.5429
 4321TIP3   OH234597   0.477   5.298   8.460 -0.3096  0.0327  0.2546
 4321TIP3    H134598   0.508   5.210   8.440 -0.6346 -0.0044 -0.1086
 4321TIP3    H234599   0.555   5.353   8.456 -0.5401  0.3640 -3.0415
 4322TIP3   OH234600   1.516   1.465   1.975  0.0753  0.0138 -0.4660
 4322TIP3    H134601   1.460   1.518   2.032 -1.0870 -0.7411 -0.8733
 4322TIP3    H234602   1.542   1.391   2.030  0.3957  0.1909 -0.3799
 4323TIP3   OH234603   1.659   2.813   2.213  0.2353 -0.2034 -0.4411
 4323TIP3    H134604   1.593   2.784   2.276 -0.2588 -0.1104 -0.9106
 4323TIP3    H234605   1.728   2.852   2.267 -0.0609 -0.3613  0.0586
 4324TIP3   OH234606   0.584   2.159   1.412 -0.7870  0.5570 -0.8047
 4324TIP3    H134607   0.525   2.097   1.369 -2.3097  1.4553 -0.0722
 4324TIP3    H234608   0.608   2.116   1.495 -0.6964  0.3575 -0.9322
 4325TIP3   OH234609   2.439   3.807   1.109  0.2390  0.2530 -0.6955
 4325TIP3    H134610   2.387   3.834   1.184 -0.3230 -0.8226 -0.6807
 4325TIP3    H234611   2.413   3.716   1.092 -0.3016  0.7240 -2.7340
 4326TIP3   OH234612   4.616   2.280   0.679  0.0863  0.7526 -0.4158
 4326TIP3    H134613   4.678   2.277   0.752 -2.5349 -0.4222  1.9577
 4326TIP3    H234614   4.566   2.360   0.694  0.4130  1.2340 -1.7915
 4327TIP3   OH234615   1.880   3.198   9.145 -0.6780 -0.4846  0.1655
 4327TIP3    H134616   1.929   3.118   9.161  1.9679  0.7493 -1.1356
 4327TIP3    H234617   1.896   3.218   9.052 -0.8217  1.7889  0.5723
 4328TIP3   OH234618   0.168   2.930   1.327 -0.1117 -0.3913  0.6217
 4328TIP3    H134619   0.127   2.942   1.241  2.5044  1.1831 -0.5472
 4328TIP3    H234620   0.187   3.019   1.357  0.1752 -0.9704  2.2605
 4329TIP3   OH234621   3.913   6.102   7.882 -0.6220 -0.0624  0.0466
 4329TIP3    H134622   3.903   6.192   7.912  0.0214 -0.5230  1.7355
 4329TIP3    H234623   3.972   6.108   7.807 -0.0911  0.8438  0.5242
 4330TIP3   OH234624   3.246   0.876   0.581  0.2397  0.2530 -0.3905
 4330TIP3    H134625   3.213   0.962   0.555  1.2904  0.7909 -0.0245
 4330TIP3    H234626   3.266   0.832   0.498 -0.4039  0.3118 -0.5808
 4331TIP3   OH234627   5.825   6.266   0.419 -0.3534  0.3708 -0.0003
 4331TIP3    H134628   5.863   6.260   0.507 -0.4721  0.5845  0.0657
 4331TIP3    H234629   5.883   6.326   0.372 -0.0162 -0.1131 -0.2143
 4332TIP3   OH234630   3.742   0.093   1.646 -0.0647  0.4077 -0.1551
 4332TIP3    H134631   3.799   0.164   1.678 -0.4409 -0.1876  2.0045
 4332TIP3    H234632   3.657   0.113   1.684 -0.8382  0.1870 -1.7088
 4333TIP3   OH234633   6.535   6.506   8.230  0.4773  0.4921  0.0922
 4333TIP3    H134634   6.585   6.497   8.149  1.6618 -1.8761  0.9827
 4333TIP3    H234635   6.603   6.510   8.299 -0.5135 -0.3898  1.1600
 4334TIP3   OH234636   3.080   0.879   2.125 -0.3703  0.2614 -0.0517
 4334TIP3    H134637   3.081   0.821   2.048  2.8185  0.3152 -0.1856
 4334TIP3    H234638   3.018   0.948   2.102 -1.3135 -0.9983 -1.5282
 4335TIP3   OH234639   0.391   1.879   0.657  0.2038  0.0894 -0.4715
 4335TIP3    H134640   0.430   1.886   0.745  0.0187  0.4023 -0.4130
 4335TIP3    H234641   0.330   1.952   0.652  0.9279  0.6641 -1.2327
 4336TIP3   OH234642   1.268   6.487   0.927 -0.2901 -0.1449 -0.2764
 4336TIP3    H134643   1.284   6.571   0.885  1.6785  0.2279  1.0583
 4336TIP3    H234644   1.317   6.424   0.873  2.2478  0.3353  1.2852
 4337TIP3   OH234645   2.775   1.835   0.026 -0.5228 -0.3111 -0.0081
 4337TIP3    H134646   2.851   1.841   0.084  0.2014  0.1635 -0.9769
 4337TIP3    H234647   2.811   1.808  -0.058 -1.3410  0.5221 -0.6442
 4338TIP3   OH234648   5.802   6.279   2.615 -0.4790 -0.6718  0.2567
 4338TIP3    H134649   5.828   6.330   2.692  2.0517  0.6041 -1.3078
 4338TIP3    H234650   5.832   6.190   2.634 -0.2530 -0.4634  0.9210
 4339TIP3   OH234651   6.437   2.431   7.955  0.0395  0.0422  0.0209
 4339TIP3    H134652   6.482   2.422   7.871 -0.8961 -0.0951 -0.4736
 4339TIP3    H234653   6.484   2.503   7.999  0.4088  0.2518 -0.6956
 4340TIP3   OH234654   5.995   4.940   9.011 -0.1519 -0.5567 -0.5412
 4340TIP3    H134655   6.001   5.008   9.079 -1.5950  0.7748 -1.6780
 4340TIP3    H234656   6.013   4.859   9.058  0.6793  0.4834  1.0738
 4341TIP3   OH234657   4.729   4.624   1.289 -0.1218  0.0226  0.4390
 4341TIP3    H134658   4.709   4.580   1.372  1.9147  2.9569  2.7114
 4341TIP3    H234659   4.792   4.566   1.246 -2.8278 -2.6166 -0.2648
 4342TIP3   OH234660   1.341   2.943   7.716  0.0933 -0.3755  0.1159
 4342TIP3    H134661   1.404   2.901   7.657 -0.6675  0.5490 -1.4007
 4342TIP3    H234662   1.276   2.982   7.658 -0.6912  0.5688  1.5788
 4343TIP3   OH234663   1.865   3.700   0.010 -0.0025  0.0214  0.1371
 4343TIP3    H134664   1.830   3.681  -0.077 -1.1579  2.1529  0.0646
 4343TIP3    H234665   1.932   3.767  -0.006  0.4090 -0.2230  0.8068
 4344TIP3   OH234666   1.841   4.517   0.097 -0.1014 -0.1980 -0.1647
 4344TIP3    H134667   1.752   4.517   0.132 -0.2578  0.0842 -0.5623
 4344TIP3    H234668   1.839   4.453   0.026  0.1381 -0.5451  0.1375
 4345TIP3   OH234669   1.214   0.472   1.985  0.1443  0.5495 -0.1789
 4345TIP3    H134670   1.204   0.377   1.978 -0.3855  0.6053 -0.2728
 4345TIP3    H234671   1.278   0.494   1.917  0.6220  0.2080  0.1547
 4346TIP3   OH234672   2.348   3.965   1.314  0.2487 -0.1507  0.0330
 4346TIP3    H134673   2.262   3.999   1.288  0.0693  0.1860  1.0341
 4346TIP3    H234674   2.329   3.906   1.387  0.5579 -2.3778 -1.5627
 4347TIP3   OH234675   3.979   2.580   0.822 -0.7157  0.8720  0.1418
 4347TIP3    H134676   4.018   2.639   0.757 -1.6216  0.1380 -1.1135
 4347TIP3    H234677   3.965   2.635   0.899  1.4987  1.4786  0.1768
 4348TIP3   OH234678   1.813   0.651   2.906 -0.3228 -0.3960  0.1685
 4348TIP3    H134679   1.886   0.712   2.912 -1.1938  0.8807 -1.3630
 4348TIP3    H234680   1.742   0.695   2.953 -1.1760  0.1900 -1.5904
 4349TIP3   OH234681   0.136   2.124   1.829 -0.5202 -0.8566  0.9428
 4349TIP3    H134682   0.145   2.048   1.772  1.2238 -0.4328  0.5967
 4349TIP3    H234683   0.075   2.095   1.898 -0.7162 -2.1934  0.2348
 4350TIP3   OH234684   5.873   1.457   1.860  0.2931 -0.2253  0.1491
 4350TIP3    H134685   5.806   1.420   1.803 -1.7669  0.5105  1.9686
 4350TIP3    H234686   5.928   1.510   1.802 -1.5879  0.3275 -1.2145
 4351TIP3   OH234687   0.096   1.266   2.978  0.4500 -0.2692 -0.3376
 4351TIP3    H134688   0.167   1.219   2.934  1.0374 -0.9289  1.2363
 4351TIP3    H234689   0.019   1.211   2.966  0.5201 -0.2493 -0.8722
 4352TIP3   OH234690   1.381   6.199   2.836 -0.2029 -0.0952  0.2321
 4352TIP3    H134691   1.312   6.187   2.772 -0.3762  1.4807  0.0827
 4352TIP3    H234692   1.455   6.147   2.803 -0.0812  1.1473 -1.5725
 4353TIP3   OH234693   1.886   0.170   7.076  0.3792 -0.3443 -0.2417
 4353TIP3    H134694   1.863   0.085   7.113 -0.8473  0.3502  0.6819
 4353TIP3    H234695   1.977   0.184   7.101 -0.1842 -0.2182  2.0083
 4354TIP3   OH234696   4.886   3.466   0.707  0.2197  0.4515 -0.3870
 4354TIP3    H134697   4.808   3.454   0.761  0.3441  0.2228 -0.2557
 4354TIP3    H234698   4.853   3.502   0.625 -0.2178 -1.0784 -0.9155
 4355TIP3   OH234699   4.242   1.008   0.578  0.0943 -0.5546  0.4247
 4355TIP3    H134700   4.337   0.996   0.585  0.3744  0.2905 -1.3917
 4355TIP3    H234701   4.224   1.002   0.485 -1.8089 -1.6580  0.8159
 4356TIP3   OH234702   4.289   0.114   1.112  0.2610 -0.2242 -0.4181
 4356TIP3    H134703   4.245   0.195   1.085 -1.3753 -1.3227 -1.1970
 4356TIP3    H234704   4.230   0.075   1.176  0.2036 -1.5967 -1.2754
 4357TIP3   OH234705   4.474   6.410   0.135  0.4160  0.4827  0.0979
 4357TIP3    H134706   4.498   6.494   0.096  0.9853  0.3624  0.1742
 4357TIP3    H234707   4.512   6.414   0.223 -0.2977  0.4902  0.4155
 4358TIP3   OH234708   5.536   6.114   8.454  0.0703 -0.8476 -0.4966
 4358TIP3    H134709   5.588   6.194   8.455  0.1478 -0.8772  1.1116
 4358TIP3    H234710   5.470   6.127   8.522  0.7208 -2.5338  0.5284
 4359TIP3   OH234711   3.676   2.712   2.537 -0.1416 -0.3869 -0.6325
 4359TIP3    H134712   3.623   2.733   2.460 -0.4384  0.2237 -0.2691
 4359TIP3    H234713   3.709   2.796   2.568  0.4613 -0.6874 -0.4324
 4360TIP3   OH234714   4.788   3.058   0.060  0.0060  0.2876 -0.3604
 4360TIP3    H134715   4.696   3.079   0.073  0.0182  0.0245  0.1856
 4360TIP3    H234716   4.821   3.041   0.148  0.4673 -0.0567 -0.5945
 4361TIP3   OH234717   0.281   0.413   8.327  0.0795 -0.1543  0.0795
 4361TIP3    H134718   0.203   0.460   8.355  0.2512 -0.1188  0.5036
 4361TIP3    H234719   0.305   0.454   8.244 -0.0680  0.1642  0.1928
 4362TIP3   OH234720   2.144   2.109   8.165  0.0500  0.2747  0.2417
 4362TIP3    H134721   2.180   2.109   8.254 -0.2352  1.5672  0.3741
 4362TIP3    H234722   2.056   2.145   8.175 -0.9408 -1.8588 -0.2315
 4363TIP3   OH234723   2.904   4.343   0.180  0.6641 -0.4524 -0.1223
 4363TIP3    H134724   2.859   4.332   0.263  1.1058  0.1940  0.2197
 4363TIP3    H234725   2.901   4.438   0.164  1.2645 -0.4816 -0.4403
 4364TIP3   OH234726   3.055   0.524   1.553 -0.7130  0.1542 -0.3396
 4364TIP3    H134727   3.064   0.619   1.553 -2.1571  0.3471 -2.0803
 4364TIP3    H234728   3.046   0.501   1.645 -1.3936  1.8374  0.0622
 4365TIP3   OH234729   5.146   1.708   0.751  0.3829  0.1142  0.0294
 4365TIP3    H134730   5.146   1.612   0.752  0.7500  0.1139  0.1222
 4365TIP3    H234731   5.055   1.732   0.733  0.7856 -0.2552 -3.0628
 4366TIP3   OH234732   2.818   2.839   0.498 -0.5381 -0.5274 -0.0585
 4366TIP3    H134733   2.884   2.775   0.472 -1.9389 -3.0848  2.2543
 4366TIP3    H234734   2.824   2.908   0.431  1.2136 -2.9174 -2.5574
 4367TIP3   OH234735   1.139   4.317   3.056 -0.9120  0.0617 -0.4569
 4367TIP3    H134736   1.047   4.299   3.036 -0.5573 -1.0873 -1.1410
 4367TIP3    H234737   1.182   4.324   2.971 -0.1080 -0.8717 -0.1483
 4368TIP3   OH234738   3.780   3.158   0.835  0.6590  0.2066 -0.2687
 4368TIP3    H134739   3.724   3.084   0.814  1.4927 -0.8227  0.9763
 4368TIP3    H234740   3.857   3.119   0.876  0.7810  1.7971  1.1106
 4369TIP3   OH234741   6.530   0.430   8.573 -0.4449  0.0190  0.0995
 4369TIP3    H134742   6.463   0.362   8.565 -0.2470 -0.3624  1.3879
 4369TIP3    H234743   6.481   0.510   8.591 -0.5705 -0.5117  2.5179
 4370TIP3   OH234744   2.455   3.706   7.329 -0.1070  0.0984  0.3579
 4370TIP3    H134745   2.542   3.727   7.364 -1.0757  0.3333  2.8900
 4370TIP3    H234746   2.472   3.665   7.244  2.4742  0.0339  0.8160
 4371TIP3   OH234747   1.636   5.456   1.452  0.4069 -0.3809  0.3072
 4371TIP3    H134748   1.621   5.364   1.428 -2.4004 -0.1556  0.8298
 4371TIP3    H234749   1.677   5.452   1.538 -0.1022 -1.1777  0.5277
 4372TIP3   OH234750   5.508   6.267   8.003 -0.2893  0.4216 -0.2346
 4372TIP3    H134751   5.573   6.297   7.940  0.5174 -0.1694  0.2966
 4372TIP3    H234752   5.509   6.172   7.995 -0.4534  0.3631  0.3996
 4373TIP3   OH234753   4.597   3.062   1.485 -0.0837  0.2072 -0.3550
 4373TIP3    H134754   4.567   3.147   1.452 -4.2109 -0.8135  0.2016
 4373TIP3    H234755   4.544   3.046   1.563 -1.0649 -3.7521 -1.6073
 4374TIP3   OH234756   4.114   0.155   0.618  0.3475  0.7397 -0.1009
 4374TIP3    H134757   4.039   0.175   0.674  0.1202  0.1236 -0.1847
 4374TIP3    H234758   4.154   0.241   0.600  0.7651  0.8993  1.4662
 4375TIP3   OH234759   6.097   3.131   0.614  0.1044  0.3859  0.0580
 4375TIP3    H134760   6.182   3.165   0.642  0.7445 -1.4695  0.5514
 4375TIP3    H234761   6.059   3.201   0.562  2.6506  0.6935 -1.5982
 4376TIP3   OH234762   4.848   4.537   8.661  0.5954  0.1960  0.5782
 4376TIP3    H134763   4.850   4.596   8.586  1.1554 -0.3620  0.1436
 4376TIP3    H234764   4.854   4.594   8.737 -0.6803  0.8185  0.2302
 4377TIP3   OH234765   5.838   4.929   8.253  0.0791 -0.5251 -0.6057
 4377TIP3    H134766   5.923   4.935   8.297 -0.2499  1.0154 -0.1159
 4377TIP3    H234767   5.844   4.994   8.182 -1.2901  0.8932  0.5225
 4378TIP3   OH234768   6.148   6.556   8.337 -0.1946 -0.2741 -0.1159
 4378TIP3    H134769   6.112   6.469   8.350 -1.2725  0.0107 -1.0341
 4378TIP3    H234770   6.081   6.615   8.372 -0.3559  0.2407 -1.2514
 4379TIP3   OH234771   0.073   5.904   8.986  0.3951  0.5744 -0.1662
 4379TIP3    H134772   0.063   5.998   8.976  0.2630  0.3143 -4.7766
 4379TIP3    H234773   0.163   5.886   8.956  1.1614 -0.6850  2.5544
 4380TIP3   OH234774   3.027   5.343   7.323 -0.3990  0.4369  0.4627
 4380TIP3    H134775   2.956   5.373   7.266 -2.1978 -1.0593  1.7974
 4380TIP3    H234776   2.983   5.319   7.404  1.6989 -0.3527  1.4157
 4381TIP3   OH234777   1.184   5.592   1.805  0.4009  0.3013 -0.3654
 4381TIP3    H134778   1.137   5.671   1.778  1.7606  1.0707 -0.5457
 4381TIP3    H234779   1.131   5.556   1.877 -1.3182  0.2316 -1.5996
 4382TIP3   OH234780   0.713   0.917   2.164  0.2461  0.0006  0.1139
 4382TIP3    H134781   0.711   0.959   2.078 -0.4831  0.7630  0.4947
 4382TIP3    H234782   0.645   0.961   2.214  0.2476 -0.8576  0.8954
 4383TIP3   OH234783   1.858   4.551   0.442  0.3555  0.2057 -0.4815
 4383TIP3    H134784   1.904   4.547   0.359  1.1336 -0.9429 -0.0294
 4383TIP3    H234785   1.784   4.610   0.427  0.3188 -0.2107 -2.0523
 4384TIP3   OH234786   5.321   1.710   8.244  0.0085 -0.5143  0.0395
 4384TIP3    H134787   5.271   1.744   8.170  2.9719  0.5931 -1.6317
 4384TIP3    H234788   5.288   1.621   8.256 -2.2240  0.1073 -0.9779
 4385TIP3   OH234789   4.372   2.484   8.440  0.3279  0.4915  0.2428
 4385TIP3    H134790   4.295   2.430   8.421  1.2234 -0.6361 -0.3581
 4385TIP3    H234791   4.444   2.421   8.447  1.1071  1.4601  1.3887
 4386TIP3   OH234792   4.690   4.384   1.892 -0.1449 -0.4002 -0.4924
 4386TIP3    H134793   4.621   4.320   1.874 -0.4743  0.2980 -1.8778
 4386TIP3    H234794   4.653   4.468   1.865  1.1913  0.0126 -1.1422
 4387TIP3   OH234795   4.926   1.928   7.999 -0.6034 -0.9202  0.0728
 4387TIP3    H134796   5.005   1.971   8.032 -1.9088  1.1656  0.6691
 4387TIP3    H234797   4.956   1.872   7.928  1.0071  2.7682 -2.3912
 4388TIP3   OH234798   4.884   5.773   2.792 -0.1798  0.2389 -0.7471
 4388TIP3    H134799   4.791   5.772   2.817 -0.4467  0.5700 -1.6899
 4388TIP3    H234800   4.923   5.703   2.844 -1.0464 -0.1890 -0.6471
 4389TIP3   OH234801   2.540   4.225   0.778 -0.0470 -0.1748 -0.1929
 4389TIP3    H134802   2.515   4.187   0.862 -1.2640  1.9985  0.5264
 4389TIP3    H234803   2.463   4.276   0.751  0.8545  0.3915 -1.8917
 4390TIP3   OH234804   2.590   4.754   0.291 -0.2114  0.6348  0.0213
 4390TIP3    H134805   2.557   4.812   0.359  1.8262  1.2758  0.5316
 4390TIP3    H234806   2.683   4.774   0.285  0.6002 -2.5741  0.2054
 4391TIP3   OH234807   6.322   1.349   0.852  0.0434  0.0311  0.4280
 4391TIP3    H134808   6.296   1.262   0.822  0.8512  0.1523 -0.6902
 4391TIP3    H234809   6.332   1.340   0.946  1.8468 -1.6023  0.1563
 4392TIP3   OH234810   6.190   1.280   0.252 -0.0157  0.1958  0.8575
 4392TIP3    H134811   6.162   1.361   0.295  0.8606  0.3438  1.1773
 4392TIP3    H234812   6.170   1.211   0.316  1.3826  0.4258  1.5908
 4393TIP3   OH234813   6.115   3.447   1.688  0.2418  0.1299 -0.3923
 4393TIP3    H134814   6.053   3.415   1.754  1.2394 -1.7522 -0.2939
 4393TIP3    H234815   6.150   3.528   1.726  0.2922 -0.5487  1.0973
 4394TIP3   OH234816   6.303   0.481   7.700  0.8274  0.2898  0.0424
 4394TIP3    H134817   6.298   0.388   7.721  2.1254  0.2829  0.4058
 4394TIP3    H234818   6.393   0.494   7.671  0.2161  1.1311 -1.5647
 4395TIP3   OH234819   3.932   3.821   8.439  0.4199  0.5400 -0.1636
 4395TIP3    H134820   3.883   3.869   8.372  0.0925  0.4958  0.0376
 4395TIP3    H234821   3.917   3.729   8.420 -0.3445  0.5265  0.4375
 4396TIP3   OH234822   2.850   0.102   1.609  0.4566  0.1239  0.2298
 4396TIP3    H134823   2.784   0.046   1.569 -0.4118  2.1032 -1.2339
 4396TIP3    H234824   2.815   0.123   1.695  0.7565 -1.4502  0.7697
 4397TIP3   OH234825   4.579   6.126   0.004  0.0581 -0.0217 -0.5922
 4397TIP3    H134826   4.549   6.057   0.064 -0.9433  0.0998 -0.9220
 4397TIP3    H234827   4.575   6.206   0.055  0.5656 -0.1134 -0.4083
 4398TIP3   OH234828   3.657   3.193   7.629 -0.8093 -0.7462  0.3532
 4398TIP3    H134829   3.671   3.200   7.723  0.1140  0.4712  0.1564
 4398TIP3    H234830   3.582   3.249   7.611  0.2491  0.6495  0.1277
 4399TIP3   OH234831   2.784   6.027   1.862  0.2115 -0.3737  0.3033
 4399TIP3    H134832   2.785   6.122   1.857  0.2845 -0.4193 -0.7283
 4399TIP3    H234833   2.744   6.008   1.947 -0.4732  0.5733  0.2113
 4400TIP3   OH234834   2.037   0.876   0.921 -0.3270 -0.0560  0.1943
 4400TIP3    H134835   1.956   0.899   0.967 -1.0731  1.1055 -1.5675
 4400TIP3    H234836   2.007   0.822   0.847  0.7462 -1.2895  0.6294
 4401TIP3   OH234837   2.892   0.098   2.522 -0.0295  0.0854 -0.1855
 4401TIP3    H134838   2.894   0.064   2.611  1.0665  0.9710  0.1534
 4401TIP3    H234839   2.802   0.084   2.492 -0.7551  0.9405  1.5179
 4402TIP3   OH234840   0.975   1.818   0.133 -0.2708 -0.3109  0.1854
 4402TIP3    H134841   1.035   1.807   0.059  0.1062 -2.3979  0.7470
 4402TIP3    H234842   0.888   1.802   0.097 -0.4851  1.8293 -0.4309
 4403TIP3   OH234843   1.602   5.898   8.161  0.3131 -0.1520  0.0482
 4403TIP3    H134844   1.668   5.853   8.213 -0.3005  0.5676  1.4779
 4403TIP3    H234845   1.643   5.907   8.074  0.8216 -2.5712 -0.0506
 4404TIP3   OH234846   0.354   5.805   7.634  0.6328  1.0193 -0.4609
 4404TIP3    H134847   0.290   5.798   7.563 -0.3770 -0.3704  0.5281
 4404TIP3    H234848   0.310   5.858   7.700  1.2086  1.5347 -0.4813
 4405TIP3   OH234849   1.267   3.194   8.183 -0.7047  0.4848 -0.2824
 4405TIP3    H134850   1.190   3.183   8.240  0.0111 -1.1207  0.4417
 4405TIP3    H234851   1.252   3.133   8.111  0.2789 -0.4540  0.3025
 4406TIP3   OH234852   6.230   2.802   1.403 -0.3261  0.3548  0.4178
 4406TIP3    H134853   6.273   2.883   1.429  0.1886  0.3780 -0.4696
 4406TIP3    H234854   6.298   2.752   1.358 -1.0424  0.1234 -0.4472
 4407TIP3   OH234855   2.126   3.986   0.878 -0.0160 -0.7186  0.2936
 4407TIP3    H134856   2.037   4.003   0.909  0.6999 -1.4677  3.0312
 4407TIP3    H234857   2.120   3.903   0.831 -0.5373 -1.6146  1.8719
 4408TIP3   OH234858   1.709   3.403   0.914 -0.4067  0.4867  0.1398
 4408TIP3    H134859   1.731   3.392   1.006 -3.1425 -1.5398  0.6702
 4408TIP3    H234860   1.701   3.314   0.879 -2.8513  1.0801 -1.0824
 4409TIP3   OH234861   1.813   6.127   7.078 -0.4885 -0.7276 -0.2351
 4409TIP3    H134862   1.850   6.210   7.110  0.6079 -1.5164  0.6346
 4409TIP3    H234863   1.834   6.126   6.985 -1.5021  0.4569 -0.5107
 4410TIP3   OH234864   0.562   4.674   9.060  0.2683  0.3810 -0.0190
 4410TIP3    H134865   0.569   4.608   8.991 -0.1714 -1.0979  1.2946
 4410TIP3    H234866   0.468   4.675   9.082  0.4790  0.4303  0.9161
 4411TIP3   OH234867   0.332   0.517   8.650 -0.1306  0.6572 -0.1738
 4411TIP3    H134868   0.372   0.532   8.736 -0.7193  0.3091  0.1683
 4411TIP3    H234869   0.269   0.589   8.640 -0.5846  0.2921  0.0127
 4412TIP3   OH234870   3.016   1.903   2.543  0.4680  0.0198 -0.4163
 4412TIP3    H134871   3.103   1.878   2.509  1.0433 -0.3275  1.2293
 4412TIP3    H234872   2.965   1.923   2.465  2.0069  0.1462 -1.4326
 4413TIP3   OH234873   0.738   6.152   7.022  0.2934 -0.2965 -0.0946
 4413TIP3    H134874   0.801   6.111   7.081  1.1605  1.7028  0.4833
 4413TIP3    H234875   0.655   6.109   7.042  0.8639 -0.7279  1.5117
 4414TIP3   OH234876   5.738   0.709   0.468 -0.2656 -0.2539 -0.2936
 4414TIP3    H134877   5.709   0.640   0.527  1.9995 -0.7930  0.2625
 4414TIP3    H234878   5.830   0.690   0.451 -0.0949  1.5324 -1.7031
 4415TIP3   OH234879   3.138   2.430   9.122  0.4840 -0.7194 -0.3650
 4415TIP3    H134880   3.078   2.434   9.048  0.8234 -0.7074 -0.6429
 4415TIP3    H234881   3.082   2.411   9.198 -0.0954  0.9350 -0.3387
 4416TIP3   OH234882   6.466   4.813   7.695  0.0304 -0.4362  0.2470
 4416TIP3    H134883   6.372   4.805   7.709 -0.2003 -2.2311 -1.7562
 4416TIP3    H234884   6.474   4.857   7.610  1.0184  0.1145  0.6117
 4417TIP3   OH234885   5.247   5.184   8.304  0.1262 -0.2088 -0.1376
 4417TIP3    H134886   5.335   5.191   8.341 -0.6028 -0.3080  1.7369
 4417TIP3    H234887   5.191   5.234   8.363 -1.2424 -1.0027 -0.6865
 4418TIP3   OH234888   4.435   2.987   8.983 -0.1326 -0.0012  0.2858
 4418TIP3    H134889   4.431   3.069   8.933 -0.7834 -0.1292  0.1091
 4418TIP3    H234890   4.528   2.968   8.991 -0.0061 -0.1427 -1.1695
 4419TIP3   OH234891   0.998   4.420   0.932 -0.2448  0.0228 -0.3564
 4419TIP3    H134892   1.086   4.390   0.953 -0.3674  0.4584  0.8954
 4419TIP3    H234893   1.010   4.488   0.866  0.6112  1.7647  1.4777
 4420TIP3   OH234894   2.714   0.350   0.595  0.0771 -0.1449 -0.1115
 4420TIP3    H134895   2.732   0.401   0.516 -0.6009 -1.4247 -1.1344
 4420TIP3    H234896   2.724   0.412   0.667  3.0443  0.5328 -0.9817
 4421TIP3   OH234897   5.972   1.444   8.446 -0.7920  0.0661 -1.1253
 4421TIP3    H134898   5.990   1.350   8.434 -1.2375  0.0144 -1.4146
 4421TIP3    H234899   6.040   1.474   8.506 -1.7073 -0.8168  0.4038
 4422TIP3   OH234900   6.019   5.661   2.584 -0.5260  0.6262 -0.6828
 4422TIP3    H134901   5.971   5.736   2.617  1.3946  2.3353 -1.5626
 4422TIP3    H234902   6.098   5.657   2.638  0.5801  0.8141 -2.2371
 4423TIP3   OH234903   0.998   6.180   7.639 -0.2812 -0.5397 -0.4152
 4423TIP3    H134904   0.954   6.121   7.701  1.7662 -0.8593  0.8439
 4423TIP3    H234905   0.998   6.265   7.682 -1.0586 -0.1620 -1.1340
 4424TIP3   OH234906   4.828   1.284   8.146  0.1052 -0.4963 -0.2970
 4424TIP3    H134907   4.848   1.203   8.099  0.3395 -1.1004  0.8058
 4424TIP3    H234908   4.788   1.256   8.228  0.8446  0.4603  0.4259
 4425TIP3   OH234909   1.420   3.454   0.838 -0.1444  0.8181  0.0075
 4425TIP3    H134910   1.503   3.409   0.822 -0.6187  0.3153 -1.0853
 4425TIP3    H234911   1.420   3.470   0.933  0.3457 -0.8388  0.3098
 4426TIP3   OH234912   0.131   0.373   1.877  0.4719 -0.1953  0.0303
 4426TIP3    H134913   0.049   0.368   1.829  0.9755 -0.2508 -0.8559
 4426TIP3    H234914   0.106   0.378   1.969 -0.5306  0.2741 -0.2582
 4427TIP3   OH234915   0.309   4.660   1.174  0.2259  0.1584  0.4184
 4427TIP3    H134916   0.317   4.706   1.257 -0.6962  2.8276 -0.8560
 4427TIP3    H234917   0.233   4.603   1.186  0.3087  0.2436  1.4904
 4428TIP3   OH234918   4.688   5.016   1.034  0.5874 -0.2263 -0.1204
 4428TIP3    H134919   4.692   4.947   0.968  0.6270 -0.6386  0.3161
 4428TIP3    H234920   4.595   5.038   1.040  0.7794  1.3262 -1.8757
 4429TIP3   OH234921   1.433   5.482   0.298  0.3368  0.2082  0.2211
 4429TIP3    H134922   1.454   5.552   0.359 -0.4769  0.9547 -0.3298
 4429TIP3    H234923   1.354   5.512   0.253 -1.3707 -2.0231  1.5330
 4430TIP3   OH234924   0.009   1.618   2.306 -0.1905  0.2793 -0.2687
 4430TIP3    H134925   0.054   1.575   2.233 -0.1565 -0.2564  0.0584
 4430TIP3    H234926  -0.080   1.633   2.274 -0.1015  0.2846 -0.5119
 4431TIP3   OH234927   1.107   4.864   6.762  0.5055 -0.3701 -0.2069
 4431TIP3    H134928   1.114   4.823   6.675 -0.8552  0.5380 -0.7831
 4431TIP3    H234929   1.015   4.887   6.770  0.5697 -0.6178  1.5948
 4432TIP3   OH234930   3.400   3.938   0.944 -0.4699  0.0361 -0.1263
 4432TIP3    H134931   3.481   3.975   0.980  0.5298 -1.8622 -0.3477
 4432TIP3    H234932   3.416   3.930   0.850 -0.6222 -1.0216 -0.0747
 4433TIP3   OH234933   1.404   6.584   9.089  0.1584  0.0686  0.1473
 4433TIP3    H134934   1.485   6.570   9.041  0.4676 -0.4033  0.8016
 4433TIP3    H234935   1.371   6.667   9.055  1.2471  0.5980  0.3291
 4434TIP3   OH234936   0.617   0.578   0.212 -0.2077  0.2258  0.4241
 4434TIP3    H134937   0.583   0.490   0.198 -2.3412  0.7941  1.6463
 4434TIP3    H234938   0.692   0.585   0.153 -0.1074 -2.3246  0.1772
 4435TIP3   OH234939   3.230   4.651   8.300  0.8287  0.1375  0.1751
 4435TIP3    H134940   3.168   4.699   8.355 -2.0696 -2.9220 -0.0946
 4435TIP3    H234941   3.209   4.678   8.211  0.4065 -0.3153  0.1341
 4436TIP3   OH234942   5.098   0.710   8.567 -0.0883 -0.3544  0.4449
 4436TIP3    H134943   5.137   0.718   8.480 -1.2621  0.3497 -0.0429
 4436TIP3    H234944   5.169   0.732   8.628  0.6346 -0.4822 -0.3403
 4437TIP3   OH234945   4.338   6.316   8.693 -0.0026 -0.6327 -0.2410
 4437TIP3    H134946   4.399   6.247   8.719  1.4020  1.3426  2.2391
 4437TIP3    H234947   4.394   6.388   8.666 -1.2359  0.7714  0.7842
 4438TIP3   OH234948   4.813   6.190   8.179  0.6989 -0.0083  0.1454
 4438TIP3    H134949   4.747   6.122   8.172 -0.1955  0.6192  1.9132
 4438TIP3    H234950   4.764   6.272   8.180  1.5087  0.4933  1.0337
 4439TIP3   OH234951   3.936   3.575   8.321  0.2145  0.7519  0.1876
 4439TIP3    H134952   3.844   3.586   8.299  0.8881  2.0490 -2.3908
 4439TIP3    H234953   3.965   3.500   8.269  0.8491  1.0248  0.1352
 4440TIP3   OH234954   4.529   0.807   1.040  0.0954  0.0915  0.0038
 4440TIP3    H134955   4.554   0.852   1.120 -0.4465  0.8678 -0.2501
 4440TIP3    H234956   4.445   0.847   1.015  0.3878  0.0632 -1.0938
 4441TIP3   OH234957   6.022   2.512   2.878  0.4355  0.1243 -0.4056
 4441TIP3    H134958   5.966   2.445   2.917  1.8211 -0.8295  0.0134
 4441TIP3    H234959   6.004   2.591   2.929 -0.0545 -0.3176  0.1260
 4442TIP3   OH234960   5.036   5.767   2.290 -0.4431 -0.7899 -0.1331
 4442TIP3    H134961   5.075   5.739   2.207 -0.4048 -1.8524  0.2266
 4442TIP3    H234962   4.942   5.752   2.279 -0.6991  0.9995 -0.7027
 4443TIP3   OH234963   3.164   1.435   2.707  0.1050 -0.0591  0.4904
 4443TIP3    H134964   3.213   1.362   2.744  1.2534  0.3187 -0.2383
 4443TIP3    H234965   3.127   1.400   2.626  0.0588 -0.0310  0.4994
 4444TIP3   OH234966   2.068   2.044   8.732 -0.0211 -0.0081  0.2115
 4444TIP3    H134967   2.009   2.100   8.783  0.9767  1.0938  0.1851
 4444TIP3    H234968   2.146   2.035   8.786  0.4394 -0.0878 -0.4536
 4445TIP3   OH234969   1.366   2.349   1.502  0.2247  0.1764 -0.7854
 4445TIP3    H134970   1.382   2.433   1.459  0.4588 -0.2831 -1.6253
 4445TIP3    H234971   1.363   2.370   1.595 -0.0587  1.1645 -1.0048
 4446TIP3   OH234972   1.527   5.878   0.659  0.2455 -0.2352 -0.9332
 4446TIP3    H134973   1.586   5.839   0.594 -0.3384  0.6062 -1.9990
 4446TIP3    H234974   1.586   5.930   0.715  0.4904  1.2856 -2.4994
 4447TIP3   OH234975   2.943   2.848   8.640  0.5855  0.2463 -0.3561
 4447TIP3    H134976   2.917   2.906   8.569  0.1160  1.2841  0.6429
 4447TIP3    H234977   2.956   2.905   8.715 -0.7211 -0.9997  0.8972
 4448TIP3   OH234978   0.324   4.755   0.288  0.4765 -0.0021  0.0415
 4448TIP3    H134979   0.259   4.711   0.234  0.8313 -0.0388 -0.3625
 4448TIP3    H234980   0.301   4.848   0.283 -2.0576 -0.2893  3.2360
 4449TIP3   OH234981   1.704   4.804   0.117 -0.7903 -0.1328 -0.5812
 4449TIP3    H134982   1.695   4.776   0.026  0.9002  1.1794 -1.1972
 4449TIP3    H234983   1.767   4.876   0.114 -0.7375 -0.0257  1.6348
 4450TIP3   OH234984   2.861   3.001   8.431 -0.4617 -0.2224 -0.1931
 4450TIP3    H134985   2.853   2.935   8.362 -1.7337  0.2203 -0.4977
 4450TIP3    H234986   2.944   3.045   8.413 -0.9460  0.1448 -1.7037
 4451TIP3   OH234987   4.813   2.804   7.996  0.8195  0.6753 -0.2459
 4451TIP3    H134988   4.834   2.896   7.984  0.8354  0.6777 -0.1997
 4451TIP3    H234989   4.898   2.760   8.003  0.8134  0.8933  1.5889
 4452TIP3   OH234990   4.513   3.954   7.662  0.3286 -0.1821 -0.6187
 4452TIP3    H134991   4.537   4.047   7.655  0.3976 -0.1374  0.0743
 4452TIP3    H234992   4.505   3.924   7.572 -0.9500  0.8228 -0.8742
 4453TIP3   OH234993   2.835   4.105   2.124 -0.2450  0.0056 -0.1637
 4453TIP3    H134994   2.910   4.106   2.064 -1.6166  0.5608 -1.9507
 4453TIP3    H234995   2.774   4.042   2.085 -0.5284 -0.8060  1.5284
 4454TIP3   OH234996   1.473   3.802   0.360 -0.4698 -0.0725  0.1160
 4454TIP3    H134997   1.562   3.821   0.387 -0.5812 -1.1388  1.3200
 4454TIP3    H234998   1.479   3.719   0.312 -0.6712  0.4088 -0.7687
 4455TIP3   OH234999   3.770   5.545   2.396 -0.2832  0.0928  0.0538
 4455TIP3    H135000   3.760   5.629   2.441  0.2090  0.0111  0.3294
 4455TIP3    H235001   3.682   5.522   2.368 -0.4029  0.7551 -0.1231
 4456TIP3   OH235002   4.445   0.284   8.112  0.0036  0.8648 -0.1876
 4456TIP3    H135003   4.413   0.277   8.022 -0.0564  0.2787 -0.1273
 4456TIP3    H235004   4.397   0.358   8.149 -1.5329 -0.1639 -0.0134
 4457TIP3   OH235005   3.754   2.596   1.758 -0.0097  0.1674  0.1401
 4457TIP3    H135006   3.714   2.548   1.831  0.9365 -0.8629 -0.0041
 4457TIP3    H235007   3.716   2.684   1.764 -2.0100 -0.6475  0.2337
 4458TIP3   OH235008   3.606   1.191   2.108  0.2424 -0.0693 -0.2997
 4458TIP3    H135009   3.664   1.231   2.044  1.9044 -1.9121 -0.0034
 4458TIP3    H235010   3.528   1.168   2.058  0.6147  0.4872 -1.1658
 4459TIP3   OH235011   1.558   2.768   0.493  0.0597  0.3970 -0.0009
 4459TIP3    H135012   1.477   2.721   0.472 -0.2491  0.6628  0.6006
 4459TIP3    H235013   1.622   2.732   0.431 -0.8108  1.0932 -1.3605
 4460TIP3   OH235014   3.927   5.672   1.398  0.0412 -0.7809 -0.5490
 4460TIP3    H135015   3.996   5.731   1.427 -1.3858  0.2718  0.8705
 4460TIP3    H235016   3.930   5.599   1.459 -0.3058 -0.5673 -0.2721
 4461TIP3   OH235017   1.590   2.128   2.889  0.0892  0.7463 -0.0264
 4461TIP3    H135018   1.605   2.215   2.853 -3.9777  1.0907 -1.4553
 4461TIP3    H235019   1.569   2.143   2.981  0.6490  1.1218  0.0390
 4462TIP3   OH235020   6.399   1.682   7.909 -0.0240 -0.0381  0.0738
 4462TIP3    H135021   6.325   1.731   7.874 -0.7238 -0.4331  0.9691
 4462TIP3    H235022   6.444   1.745   7.966  0.3893  0.2272 -0.5366
 4463TIP3   OH235023   6.141   0.482   2.808 -0.0661 -0.2060  0.0379
 4463TIP3    H135024   6.142   0.388   2.825  0.8674  0.0328  1.4736
 4463TIP3    H235025   6.068   0.495   2.747  0.2322 -1.9307 -0.7278
 4464TIP3   OH235026   5.940   4.911   0.406 -0.2260 -0.4596 -0.0790
 4464TIP3    H135027   5.863   4.877   0.451 -0.7528 -0.2640 -0.7921
 4464TIP3    H235028   6.013   4.860   0.440 -0.1873  1.3467  2.8513
 4465TIP3   OH235029   0.793   6.558   8.649 -0.2055 -0.2982  0.4903
 4465TIP3    H135030   0.877   6.577   8.607 -0.5693  1.2425  0.4060
 4465TIP3    H235031   0.728   6.575   8.581 -0.5799 -2.4748  0.2313
 4466TIP3   OH235032   1.476   6.216   0.582  0.1529 -0.2304 -0.2039
 4466TIP3    H135033   1.549   6.155   0.593  0.6259  0.7745  3.7573
 4466TIP3    H235034   1.505   6.276   0.513  2.0836 -1.2057 -0.3108
 4467TIP3   OH235035   1.676   1.935   1.237  0.2625 -0.7346  0.3248
 4467TIP3    H135036   1.591   1.920   1.279  0.5286 -1.9633  0.4449
 4467TIP3    H235037   1.696   1.853   1.194  0.4346  0.1989 -1.4709
 4468TIP3   OH235038   2.143   6.099   1.741  0.3566  0.6161  0.3653
 4468TIP3    H135039   2.224   6.098   1.791  1.1972 -1.7297 -0.8711
 4468TIP3    H235040   2.133   6.008   1.711 -1.3929  1.3975 -1.6381
 4469TIP3   OH235041   4.865   5.564   2.064  0.1669 -0.4028 -0.2423
 4469TIP3    H135042   4.828   5.640   2.110  2.9710 -0.1683  1.8917
 4469TIP3    H235043   4.791   5.503   2.056 -1.1547  0.7097  2.1664
 4470TIP3   OH235044   3.826   1.790   9.116  0.0182  0.3109  0.3274
 4470TIP3    H135045   3.855   1.747   9.196  0.7747  2.1163  1.0763
 4470TIP3    H235046   3.730   1.786   9.120  0.0441 -1.8737 -0.0113
 4471TIP3   OH235047   3.736   1.029   1.324  0.1340 -0.3540  0.0796
 4471TIP3    H135048   3.812   1.068   1.366  0.7898 -0.0241 -1.3718
 4471TIP3    H235049   3.667   1.094   1.334  0.3508 -0.1736  0.4118
 4472TIP3   OH235050   4.085   3.969   7.620  0.3586 -0.7552 -0.5320
 4472TIP3    H135051   4.150   4.010   7.562  0.8968 -0.2335  0.4231
 4472TIP3    H235052   4.063   3.887   7.576 -0.0022  0.0888 -1.9834
 4473TIP3   OH235053   0.817   4.121   0.187 -0.4186  0.0777 -0.4917
 4473TIP3    H135054   0.819   4.033   0.150 -0.5868  0.8561 -2.4674
 4473TIP3    H235055   0.727   4.131   0.220 -0.0303 -0.9179  0.9563
 4474TIP3   OH235056   0.571   2.448   7.478 -0.4059 -0.1591 -0.6237
 4474TIP3    H135057   0.538   2.534   7.504 -0.0489 -0.0685 -0.4628
 4474TIP3    H235058   0.653   2.467   7.432  0.2743 -0.4716  0.4172
 4475TIP3   OH235059   5.179   3.646   7.530 -0.2868 -0.2924 -0.1486
 4475TIP3    H135060   5.155   3.730   7.569 -0.5032 -0.3534 -0.1500
 4475TIP3    H235061   5.182   3.663   7.436 -0.4044 -0.3066 -0.1541
 4476TIP3   OH235062   2.071   5.571   1.087 -0.1621  0.2933  0.2968
 4476TIP3    H135063   2.141   5.585   1.150  0.6221 -1.7082 -0.0522
 4476TIP3    H235064   1.990   5.584   1.137  0.4527  0.8843  1.1451
 4477TIP3   OH235065   0.708   2.906   2.388  0.0721 -0.5346  0.5341
 4477TIP3    H135066   0.691   2.816   2.415  0.2640 -0.9864 -0.7566
 4477TIP3    H235067   0.663   2.961   2.452  0.8759 -1.5212  1.9811
 4478TIP3   OH235068   5.922   1.110   8.564 -0.0072  0.4886  0.3144
 4478TIP3    H135069   5.867   1.036   8.591 -0.4884  0.7454  0.0637
 4478TIP3    H235070   5.953   1.148   8.645 -1.8874  1.5943  0.5756
 4479TIP3   OH235071   4.496   4.114   8.331 -0.7304  0.1460 -0.6279
 4479TIP3    H135072   4.431   4.071   8.387 -0.8297  0.6887 -0.3198
 4479TIP3    H235073   4.571   4.054   8.331 -0.8438  0.0019 -0.1546
 4480TIP3   OH235074   4.959   4.184   2.591  0.2987  0.1891  0.2279
 4480TIP3    H135075   4.916   4.104   2.561  1.0893 -0.1615  0.0151
 4480TIP3    H235076   5.017   4.209   2.520  0.3546  0.7350  0.4579
 4481TIP3   OH235077   3.945   1.940   8.936 -0.5371 -0.0981 -0.0073
 4481TIP3    H135078   3.934   1.881   9.011 -0.1246 -0.2766 -0.0833
 4481TIP3    H235079   3.931   2.027   8.972  1.7766  0.0246  0.7796
 4482TIP3   OH235080   5.869   1.197   8.316  0.2491 -0.3633 -0.0177
 4482TIP3    H135081   5.818   1.124   8.281  1.1702 -0.1296 -1.9687
 4482TIP3    H235082   5.895   1.169   8.403 -1.9055 -1.1040  0.4397
 4483TIP3   OH235083   5.680   1.785   9.144 -0.1190 -0.1107  0.9522
 4483TIP3    H135084   5.624   1.716   9.180 -2.7369  1.2231 -0.3397
 4483TIP3    H235085   5.738   1.809   9.216  0.4918 -3.1882  1.6173
 4484TIP3   OH235086   6.369   5.839   6.913  0.2655  0.2197  0.3050
 4484TIP3    H135087   6.425   5.917   6.914  2.3528 -1.1291 -1.5674
 4484TIP3    H235088   6.323   5.841   6.997  0.5402  3.2268  0.4685
 4485TIP3   OH235089   1.382   3.501   1.106 -0.0341 -0.6472  0.3672
 4485TIP3    H135090   1.358   3.594   1.105 -0.2230 -0.6729 -1.2640
 4485TIP3    H235091   1.464   3.498   1.154 -0.3310  0.2858  0.9563
 4486TIP3   OH235092   4.755   3.615   8.391  0.1712  0.3766  0.3146
 4486TIP3    H135093   4.763   3.591   8.298  2.1482  1.1158  0.2345
 4486TIP3    H235094   4.821   3.562   8.435 -0.7541  0.0351  1.3236
 4487TIP3   OH235095   3.265   3.321   2.380  0.4100  0.2308  0.4363
 4487TIP3    H135096   3.243   3.385   2.313  2.4402  0.4932 -0.0600
 4487TIP3    H235097   3.216   3.242   2.355  0.3996  0.6124 -0.8204
 4488TIP3   OH235098   0.748   4.409   2.745 -0.0001  0.5856 -0.2167
 4488TIP3    H135099   0.739   4.504   2.736  1.2852  0.6804 -0.7197
 4488TIP3    H235100   0.806   4.397   2.820 -0.1885  0.1999 -0.1313
 4489TIP3   OH235101   3.047   0.416   8.409  0.3598  0.3025  0.0941
 4489TIP3    H135102   3.095   0.493   8.442 -1.4397  1.7359 -0.4716
 4489TIP3    H235103   3.066   0.414   8.316 -0.6830  0.8968 -0.1373
 4490TIP3   OH235104   3.751   2.251   0.671 -0.6300  0.2432  0.0177
 4490TIP3    H135105   3.720   2.204   0.748  0.1960 -2.3048 -1.0757
 4490TIP3    H235106   3.846   2.246   0.677 -0.4661  2.7296  0.3299
 4491TIP3   OH235107   6.024   1.806   8.345 -0.1980 -0.4456 -0.0785
 4491TIP3    H135108   6.039   1.891   8.387 -0.9536 -0.4058  0.1138
 4491TIP3    H235109   6.073   1.812   8.263 -2.1820  1.0973 -1.2230
 4492TIP3   OH235110   3.020   0.050   0.609  0.2168 -0.4044  0.3569
 4492TIP3    H135111   2.935   0.090   0.630 -0.2216  0.0399 -1.9885
 4492TIP3    H235112   3.017  -0.036   0.651 -2.3316 -1.2980 -1.3686
 4493TIP3   OH235113   4.933   2.471   1.099  0.0759 -0.7564  0.0756
 4493TIP3    H135114   4.915   2.564   1.084 -1.5139 -0.8891  0.9240
 4493TIP3    H235115   5.028   2.467   1.113  0.3271  0.5708 -1.0415
 4494TIP3   OH235116   6.035   1.510   1.635  0.3937 -0.4617 -0.5538
 4494TIP3    H135117   6.063   1.601   1.646  0.7134 -0.5749 -0.4079
 4494TIP3    H235118   6.111   1.458   1.664 -0.2145 -0.7777  0.5557
 4495TIP3   OH235119   5.953   6.348   8.401  0.2154 -0.2679  0.2319
 4495TIP3    H135120   5.909   6.339   8.317  1.0821 -0.0185 -0.2613
 4495TIP3    H235121   5.886   6.383   8.460 -0.1483  0.4385 -0.5835
 4496TIP3   OH235122   3.420   1.263   9.113 -0.1070 -0.2368 -0.1669
 4496TIP3    H135123   3.514   1.280   9.103  0.1082 -1.5651 -0.6268
 4496TIP3    H235124   3.413   1.214   9.194 -0.3295 -0.6842 -0.4539
 4497TIP3   OH235125   0.528   4.633   0.461 -0.1267  0.4279 -0.8170
 4497TIP3    H135126   0.513   4.639   0.556  0.8352 -0.5892 -0.5751
 4497TIP3    H235127   0.441   4.648   0.422 -0.9308 -1.0025  0.3108
 4498TIP3   OH235128   4.929   1.675   8.922 -0.5933 -0.2205 -0.0346
 4498TIP3    H135129   4.921   1.633   8.836 -0.2558  0.1777 -0.2648
 4498TIP3    H235130   4.947   1.767   8.902 -0.1574 -0.1947  0.4566
 4499TIP3   OH235131   4.964   5.070   8.341 -0.2678 -0.3054  0.0357
 4499TIP3    H135132   5.012   5.121   8.407 -1.1913  1.1538 -0.3719
 4499TIP3    H235133   5.001   4.982   8.347  0.6065  0.1315  1.5541
 4500TIP3   OH235134   2.228   0.163   8.928 -0.5840  0.3464  0.5525
 4500TIP3    H135135   2.281   0.207   8.995 -0.3846 -1.2719  1.5222
 4500TIP3    H235136   2.247   0.210   8.847  1.9731  0.1583  0.9498
 4501TIP3   OH235137   0.550   4.082   7.837 -0.1018 -0.1276 -0.3870
 4501TIP3    H135138   0.571   3.996   7.873  0.9199  1.3069  2.7885
 4501TIP3    H235139   0.635   4.122   7.818 -0.4759  0.8634 -0.0524
 4502TIP3   OH235140   6.022   5.592   8.674 -0.4826 -0.3605  0.9382
 4502TIP3    H135141   6.030   5.686   8.661  0.2534 -0.4428  0.7076
 4502TIP3    H235142   5.951   5.582   8.737 -0.1772  0.3813  1.4174
 4503TIP3   OH235143   5.614   5.640   1.034 -0.6537  0.4821 -0.0971
 4503TIP3    H135144   5.587   5.601   0.951 -0.8346  0.8799 -0.2295
 4503TIP3    H235145   5.697   5.597   1.055 -0.7078  0.2350 -0.3815
 4504TIP3   OH235146   4.634   1.090   1.462  0.3530  0.1383  0.3798
 4504TIP3    H135147   4.681   1.056   1.538  0.5942  0.6476  0.4634
 4504TIP3    H235148   4.683   1.169   1.437  0.2103  0.0357 -0.2344
 4505TIP3   OH235149   4.706   3.400   3.004 -0.0447 -0.7896  0.0423
 4505TIP3    H135150   4.622   3.447   2.997  0.1270 -0.3508  0.7636
 4505TIP3    H235151   4.685   3.321   3.053  0.2362  0.1067  1.6783
 4506TIP3   OH235152   3.852   0.947   2.455  0.1093 -0.4841  0.0993
 4506TIP3    H135153   3.776   0.900   2.422  1.0998 -0.8360 -1.7845
 4506TIP3    H235154   3.890   0.889   2.521  0.3788 -1.6137 -1.0325
 4507TIP3   OH235155   6.646   5.867   2.586  0.1087  0.2284 -0.2513
 4507TIP3    H135156   6.628   5.946   2.636  1.2699  0.1866  0.2530
 4507TIP3    H235157   6.638   5.894   2.494  1.0077  1.0618 -0.0915
 4508TIP3   OH235158   1.412   5.377   8.700 -0.0434  0.4348  0.1537
 4508TIP3    H135159   1.390   5.418   8.617 -4.4568  0.4032  1.0402
 4508TIP3    H235160   1.476   5.310   8.678 -1.5205 -0.0239 -3.3545
 4509TIP3   OH235161   1.928   2.256   8.482  0.0042 -0.1635 -0.5085
 4509TIP3    H135162   1.976   2.260   8.399  0.5345 -1.0624 -0.2611
 4509TIP3    H235163   1.900   2.346   8.498  1.5413  0.3804 -0.7217
 4510TIP3   OH235164   1.685   4.054   7.704  0.3945 -0.2886 -0.8175
 4510TIP3    H135165   1.666   3.963   7.727 -0.7675 -0.1505 -1.2016
 4510TIP3    H235166   1.633   4.071   7.625 -0.1392  0.9874 -0.2239
 4511TIP3   OH235167   3.108   3.386   7.806  0.2418  0.1121 -0.7561
 4511TIP3    H135168   3.157   3.463   7.776  2.4001 -1.3312 -1.2283
 4511TIP3    H235169   3.102   3.397   7.901 -0.5390  1.3922 -0.9237
 4512TIP3   OH235170   1.812   6.615   7.220 -0.3229  0.2358  0.0902
 4512TIP3    H135171   1.852   6.533   7.191  1.2468  1.2253 -0.7074
 4512TIP3    H235172   1.853   6.633   7.305  0.1914  0.7393 -0.2559
 4513TIP3   OH235173   1.288   4.793   7.902 -0.0981 -0.2496 -0.0075
 4513TIP3    H135174   1.349   4.754   7.964  0.6786  0.6859 -0.1577
 4513TIP3    H235175   1.205   4.750   7.919 -0.6187  1.8095  3.5962
 4514TIP3   OH235176   6.574   5.481   1.905  0.1369 -0.2717 -0.0385
 4514TIP3    H135177   6.517   5.526   1.968  0.4659  0.2006 -0.0700
 4514TIP3    H235178   6.519   5.470   1.828  0.0711  0.1600 -0.0591
 4515TIP3   OH235179   4.595   4.867   7.855  0.2596  0.5215  0.0241
 4515TIP3    H135180   4.569   4.898   7.768 -0.5580  0.2821  0.1746
 4515TIP3    H235181   4.621   4.946   7.903 -1.0458  0.8841  0.1532
 4516TIP3   OH235182   6.531   4.207   0.307 -0.3634 -0.3142 -0.4353
 4516TIP3    H135183   6.590   4.276   0.278  1.3102 -2.3430 -2.2624
 4516TIP3    H235184   6.450   4.221   0.256 -0.0710  0.3409 -0.7255
 4517TIP3   OH235185   4.821   3.894   7.091 -0.0897 -0.3900 -0.2522
 4517TIP3    H135186   4.774   3.830   7.145  1.0430 -1.0426 -0.0104
 4517TIP3    H235187   4.888   3.842   7.046  1.9034  0.8379  1.1534
 4518TIP3   OH235188   4.222   0.756   7.768 -0.1782 -0.3425  0.5524
 4518TIP3    H135189   4.229   0.810   7.847 -0.9709  1.1545 -0.3417
 4518TIP3    H235190   4.160   0.687   7.792 -3.5237  2.2809  0.2154
 4519TIP3   OH235191   6.623   0.451   0.507  0.4336 -0.2324  0.0681
 4519TIP3    H135192   6.610   0.454   0.601  0.6356  1.3257  0.0750
 4519TIP3    H235193   6.682   0.378   0.493  1.7669  0.5469  1.3445
 4520TIP3   OH235194   3.864   0.969   1.671  0.1438  0.1457 -0.2289
 4520TIP3    H135195   3.886   1.040   1.611 -0.7061  0.4929 -0.1555
 4520TIP3    H235196   3.878   1.006   1.758 -1.2661  0.6025 -0.1589
 4521TIP3   OH235197   1.333   2.399   2.077 -0.6005  0.2870  0.1022
 4521TIP3    H135198   1.287   2.411   1.993  0.3672  0.5199 -0.4076
 4521TIP3    H235199   1.347   2.304   2.083  0.0505  0.3399 -0.4101
 4522TIP3   OH235200   2.268   0.399   8.222 -1.1279 -0.1574 -0.0590
 4522TIP3    H135201   2.183   0.439   8.240 -1.0922  0.2475 -0.7873
 4522TIP3    H235202   2.256   0.351   8.140 -0.9333 -0.9526  0.3657
 4523TIP3   OH235203   3.359   4.064   9.045 -0.0825  0.0530  0.0565
 4523TIP3    H135204   3.401   4.036   8.964 -0.2092  0.8434 -0.2950
 4523TIP3    H235205   3.283   4.007   9.055 -0.0403 -0.0754 -0.3644
 4524TIP3   OH235206   0.682   0.274   7.886 -0.2259  0.4446  0.3904
 4524TIP3    H135207   0.590   0.265   7.911 -0.4212 -1.4137 -0.7968
 4524TIP3    H235208   0.694   0.212   7.814  1.3838  2.3555 -1.1269
 4525TIP3   OH235209   0.675   3.075   8.931 -0.6301  0.2365 -0.3632
 4525TIP3    H135210   0.582   3.095   8.921 -0.1993  2.2026 -0.8971
 4525TIP3    H235211   0.715   3.113   8.852  0.5765 -0.9549 -0.3406
 4526TIP3   OH235212   2.427   4.755   1.247  0.0863  0.1968  0.1732
 4526TIP3    H135213   2.342   4.712   1.235  0.7687 -0.8893 -0.9933
 4526TIP3    H235214   2.427   4.783   1.339 -1.9225  1.1151 -0.0491
 4527TIP3   OH235215   3.341   5.652   0.463  0.1767 -0.3987 -0.5604
 4527TIP3    H135216   3.350   5.708   0.540 -0.2211 -2.0895  0.7778
 4527TIP3    H235217   3.260   5.603   0.479  1.3163 -2.4965 -0.8816
 4528TIP3   OH235218   1.382   2.807   0.222 -0.3781  0.2807 -0.1924
 4528TIP3    H135219   1.347   2.780   0.137 -0.7374 -0.7758  0.2773
 4528TIP3    H235220   1.456   2.748   0.237 -0.2308  0.5542  0.1621
 4529TIP3   OH235221   6.337   6.552   2.447  0.4076  0.3915  0.4482
 4529TIP3    H135222   6.387   6.471   2.433 -1.5635 -0.6200 -1.2936
 4529TIP3    H235223   6.389   6.601   2.510  2.8641 -1.1992 -0.1795
 4530TIP3   OH235224   2.329   2.324   0.149  0.0064 -0.2570 -0.4287
 4530TIP3    H135225   2.308   2.338   0.241 -1.0058  0.3426 -0.7396
 4530TIP3    H235226   2.248   2.291   0.111  1.1152 -3.1058 -0.5903
 4531TIP3   OH235227   5.797   0.601   0.732 -0.0902  0.4160 -0.4140
 4531TIP3    H135228   5.738   0.625   0.803  0.1984  2.8916 -0.9014
 4531TIP3    H235229   5.782   0.508   0.718 -0.4636 -0.0808  2.5788
 4532TIP3   OH235230   0.526   6.191   8.727  0.2146 -1.0142 -0.7307
 4532TIP3    H135231   0.617   6.194   8.757  0.0627 -1.0715 -0.2472
 4532TIP3    H235232   0.504   6.282   8.711 -0.1329 -0.8195  0.7054
 4533TIP3   OH235233   6.624   3.588   7.616  0.1586  0.4681  0.1413
 4533TIP3    H135234   6.557   3.634   7.565  1.1682 -0.7511 -2.4926
 4533TIP3    H235235   6.695   3.652   7.624 -0.2275  0.8567  0.5539
 4534TIP3   OH235236   6.398   0.103   2.834  0.0549  0.2136 -0.5611
 4534TIP3    H135237   6.484   0.070   2.862  0.1083  0.5924 -0.2692
 4534TIP3    H235238   6.404   0.105   2.738  0.6696  0.9951 -0.5175
 4535TIP3   OH235239   5.232   5.537   1.386 -0.0323 -0.1036  0.2482
 4535TIP3    H135240   5.302   5.583   1.339 -0.4514 -0.4093 -0.7143
 4535TIP3    H235241   5.237   5.570   1.475  1.0204  0.2486  0.0801
 4536TIP3   OH235242   5.049   1.552   2.019 -0.0811 -0.5103 -0.4335
 4536TIP3    H135243   5.062   1.558   1.924 -0.5869 -0.3491 -0.4949
 4536TIP3    H235244   5.091   1.631   2.054  0.7833 -0.9494 -0.4435
 4537TIP3   OH235245   0.933   2.528   9.195 -0.5080 -0.3076  0.2165
 4537TIP3    H135246   0.838   2.538   9.207 -0.3944  0.2997  0.6745
 4537TIP3    H235247   0.950   2.562   9.108 -0.6091  0.3326  0.4393
 4538TIP3   OH235248   5.508   5.292   0.166  0.1691 -0.3649  0.4002
 4538TIP3    H135249   5.479   5.254   0.249  0.8194 -0.1405  0.7419
 4538TIP3    H235250   5.579   5.234   0.137  0.1784 -0.2446  0.1786
 4539TIP3   OH235251   2.486   1.642   1.197  0.3474 -0.0611 -0.0349
 4539TIP3    H135252   2.413   1.703   1.184  0.4957  0.0339 -0.4437
 4539TIP3    H235253   2.555   1.676   1.140  1.1903  0.6330  1.3489
 4540TIP3   OH235254   4.162   1.795   8.797 -0.1177 -0.4397 -0.4460
 4540TIP3    H135255   4.114   1.870   8.834 -0.5428 -0.4948 -0.8794
 4540TIP3    H235256   4.095   1.745   8.751  0.3541 -0.5493 -1.0086
 4541TIP3   OH235257   2.805   3.861   1.580 -0.2587  0.0089  0.1237
 4541TIP3    H135258   2.812   3.953   1.605  1.2339 -0.1827  0.5460
 4541TIP3    H235259   2.770   3.863   1.491 -2.9882  0.8207  1.1115
 4542TIP3   OH235260   0.466   0.980   1.668 -0.1451  0.2976  0.2879
 4542TIP3    H135261   0.513   1.045   1.616 -1.3927  1.1087  0.1375
 4542TIP3    H235262   0.441   0.913   1.606  1.4267 -0.5290  0.4981
 4543TIP3   OH235263   3.803   3.573   2.004 -0.8619  0.0352 -0.2159
 4543TIP3    H135264   3.710   3.598   2.009 -0.6992  1.3552 -2.5654
 4543TIP3    H235265   3.810   3.521   1.924  0.5325  0.4719 -0.4000
 4544TIP3   OH235266   1.948   2.640   0.775 -0.4213 -0.0754 -0.1484
 4544TIP3    H135267   1.957   2.652   0.870  0.8020 -0.6293 -0.1785
 4544TIP3    H235268   2.036   2.622   0.744 -1.1070 -2.2638 -1.0526
 4545TIP3   OH235269   4.398   3.777   2.573 -0.6517 -0.1858  0.3026
 4545TIP3    H135270   4.344   3.779   2.652 -1.1277  1.6433 -0.0026
 4545TIP3    H235271   4.433   3.867   2.566  2.0018 -1.1262  0.1687
 4546TIP3   OH235272   5.953   4.434   0.815 -0.3301 -0.1222  0.0171
 4546TIP3    H135273   5.898   4.505   0.780  0.4579 -0.1666 -1.3885
 4546TIP3    H235274   5.910   4.409   0.897 -1.6671  0.7219 -0.3880
 4547TIP3   OH235275   1.179   3.170   9.193 -0.2771 -0.1622 -1.1639
 4547TIP3    H135276   1.200   3.128   9.277 -0.8268 -0.6995 -1.2891
 4547TIP3    H235277   1.225   3.118   9.128  2.5806  1.9274 -1.0259
 4548TIP3   OH235278   5.691   0.025   2.184 -0.1853 -0.4996 -0.0125
 4548TIP3    H135279   5.617  -0.014   2.231  0.8279 -1.6840  0.6339
 4548TIP3    H235280   5.715  -0.039   2.118  0.7080 -0.4272  0.2351
 4549TIP3   OH235281   3.098   1.415   2.421 -0.0006 -0.1354  0.1261
 4549TIP3    H135282   3.149   1.495   2.436  0.7933 -0.3655 -1.1772
 4549TIP3    H235283   3.164   1.347   2.406 -0.6749 -0.7384 -0.1640
 4550TIP3   OH235284   1.663   2.096   0.558  0.0910  0.0085 -0.3689
 4550TIP3    H135285   1.700   2.020   0.512 -0.0752 -0.8320  0.8503
 4550TIP3    H235286   1.650   2.066   0.648 -0.3122  1.3813  0.0539
 4551TIP3   OH235287   5.477   1.050   7.882 -0.1398 -0.0446  0.3213
 4551TIP3    H135288   5.472   1.004   7.798  1.6242 -0.1564  0.2445
 4551TIP3    H235289   5.541   1.119   7.868 -1.3831  1.2958  0.9915
 4552TIP3   OH235290   1.507   5.160   2.171 -0.0726  0.0059  0.4118
 4552TIP3    H135291   1.514   5.150   2.265 -1.4867 -0.2572  0.5145
 4552TIP3    H235292   1.522   5.253   2.155 -1.7460  0.4422  1.1440
 4553TIP3   OH235293   3.433   1.497   2.285  0.2563  0.8206 -0.2220
 4553TIP3    H135294   3.525   1.482   2.304  1.1225  0.5100 -3.8816
 4553TIP3    H235295   3.433   1.567   2.220 -2.0797  0.6118 -0.5251
 4554TIP3   OH235296   2.618   3.573   8.310  0.2006  0.4037 -0.4033
 4554TIP3    H135297   2.593   3.601   8.222  1.0685  1.2724 -0.3842
 4554TIP3    H235298   2.685   3.506   8.295  0.1896  0.3951 -0.4133
 4555TIP3   OH235299   2.029   4.583   1.934 -0.0012 -0.2642 -0.0178
 4555TIP3    H135300   2.004   4.591   2.026  2.8649  0.2223  0.8249
 4555TIP3    H235301   2.001   4.495   1.909  1.1298 -1.3256  2.0760
 4556TIP3   OH235302   3.820   0.436   0.979 -0.0566  0.3067  0.3219
 4556TIP3    H135303   3.796   0.429   1.072  0.0088 -0.7934  0.2656
 4556TIP3    H235304   3.891   0.500   0.978  1.0682 -0.8552  1.2713
 4557TIP3   OH235305   5.251   4.600   1.164  0.1888  0.4487 -0.1619
 4557TIP3    H135306   5.276   4.543   1.091 -0.3132  1.2378 -0.9604
 4557TIP3    H235307   5.160   4.577   1.183 -0.0127  0.9617 -0.4789
 4558TIP3   OH235308   5.849   1.946   0.125 -0.6402 -0.3674 -0.3518
 4558TIP3    H135309   5.774   2.004   0.108  0.6320  2.2029  1.9469
 4558TIP3    H235310   5.843   1.926   0.219  0.5257 -1.6852 -0.5311
 4559TIP3   OH235311   2.681   6.548   8.344  0.0968 -0.2319 -0.2386
 4559TIP3    H135312   2.696   6.629   8.295 -1.7762  0.4107  0.1711
 4559TIP3    H235313   2.624   6.496   8.287 -1.5001  0.2148  0.9003
 4560TIP3   OH235314   5.555   0.634   1.214  0.2254  0.7268  0.0632
 4560TIP3    H135315   5.469   0.636   1.171  0.9218 -0.7978 -1.5690
 4560TIP3    H235316   5.538   0.594   1.299 -0.8120  1.2428  0.1130
 4561TIP3   OH235317   1.326   4.603   9.183  0.0650 -0.3306 -0.2649
 4561TIP3    H135318   1.285   4.633   9.264 -0.5715  1.2225 -1.1121
 4561TIP3    H235319   1.387   4.534   9.210 -0.9471 -0.6180  1.3781
 4562TIP3   OH235320   3.770   5.133   1.076  0.4283  0.0213  0.0737
 4562TIP3    H135321   3.760   5.166   1.166  1.4995  0.0482  0.1985
 4562TIP3    H235322   3.734   5.045   1.079  1.0898 -0.2408  0.7217
 4563TIP3   OH235323   3.230   4.124   1.060  0.5333  0.3266 -0.2847
 4563TIP3    H135324   3.253   4.211   1.026  3.1607  0.4189  1.4810
 4563TIP3    H235325   3.296   4.065   1.023  1.6528 -0.0514  2.1150
 4564TIP3   OH235326   6.627   4.544   7.851 -0.2065  0.0093  0.2573
 4564TIP3    H135327   6.558   4.501   7.901 -0.6055  1.4530  1.0111
 4564TIP3    H235328   6.634   4.631   7.890 -0.0897  0.9798 -1.7703
 4565TIP3   OH235329   3.098   6.394   8.403  0.5016  0.0448 -0.8235
 4565TIP3    H135330   3.130   6.318   8.354 -0.4597  0.1059 -1.5714
 4565TIP3    H235331   3.012   6.366   8.436  0.6976  0.3641 -0.0053
 4566TIP3   OH235332   0.492   0.572   1.583  0.3046  0.0557  0.7567
 4566TIP3    H135333   0.521   0.532   1.665 -0.1556  0.3383  1.0592
 4566TIP3    H235334   0.567   0.623   1.554  0.0840  0.9069  1.6168
 4567TIP3   OH235335   3.596   4.109   0.390 -0.3107 -0.0958  0.1377
 4567TIP3    H135336   3.689   4.087   0.400 -0.0598  0.2960 -1.0301
 4567TIP3    H235337   3.590   4.141   0.299 -1.8705 -1.5079 -0.2992
 4568TIP3   OH235338   4.261   5.328   2.472 -0.1118  0.3687  0.1158
 4568TIP3    H135339   4.229   5.255   2.524  1.3229 -0.0211  0.4974
 4568TIP3    H235340   4.236   5.406   2.522  2.3646 -0.0277  2.1513
 4569TIP3   OH235341   5.793   2.641   7.977  0.4373  0.3695 -0.0955
 4569TIP3    H135342   5.784   2.612   8.068  1.1352  1.7202  0.4298
 4569TIP3    H235343   5.835   2.568   7.933 -3.2386 -1.9200 -0.2854
 4570TIP3   OH235344   3.588   6.202   0.351 -0.5770  0.0170 -0.4667
 4570TIP3    H135345   3.548   6.121   0.320 -0.9994  0.0030  0.0929
 4570TIP3    H235346   3.581   6.197   0.447  0.5269  0.1387 -0.3640
 4571TIP3   OH235347   4.488   0.269   1.439  0.3810  0.4932 -0.0459
 4571TIP3    H135348   4.404   0.248   1.480  0.6747 -0.1824  0.2352
 4571TIP3    H235349   4.540   0.189   1.450  0.7920  0.6361 -0.9087
 4572TIP3   OH235350   5.023   5.857   7.768 -0.5152 -0.1237  0.0674
 4572TIP3    H135351   4.961   5.854   7.841 -0.8844 -1.2095 -0.2741
 4572TIP3    H235352   5.109   5.865   7.810 -0.7674 -0.0843  0.5914
 4573TIP3   OH235353   6.560   5.695   8.940 -0.1127 -0.1440 -0.1653
 4573TIP3    H135354   6.594   5.606   8.946 -0.1669 -0.1488  0.0620
 4573TIP3    H235355   6.637   5.751   8.956  0.2908 -0.1203 -1.9504
 4574TIP3   OH235356   1.256   2.088   3.002  0.1655  0.1111 -0.6012
 4574TIP3    H135357   1.281   2.181   3.001  0.1506  0.1148 -1.1787
 4574TIP3    H235358   1.198   2.079   2.926  2.1515 -0.9200 -2.0730
 4575TIP3   OH235359   4.789   0.908   1.655  0.1237 -0.1887 -0.0152
 4575TIP3    H135360   4.817   0.902   1.746 -0.5419  0.5954  0.2503
 4575TIP3    H235361   4.750   0.822   1.637 -1.3244  0.2016  1.0045
 4576TIP3   OH235362   2.272   3.567   1.776 -0.6228 -0.5247 -0.0459
 4576TIP3    H135363   2.275   3.512   1.698 -2.5979  0.8445 -1.1743
 4576TIP3    H235364   2.222   3.516   1.839 -2.9152  0.0963 -1.2708
 4577TIP3   OH235365   0.675   5.646   1.487 -0.4902  0.1588  0.1107
 4577TIP3    H135366   0.607   5.702   1.524 -0.8140  0.3782 -0.7938
 4577TIP3    H235367   0.702   5.691   1.407 -0.4414 -0.7596 -0.3959
 4578TIP3   OH235368   4.185   6.046   2.201 -0.0416 -0.0411 -0.6009
 4578TIP3    H135369   4.141   6.065   2.118 -1.0277 -2.9110 -0.8358
 4578TIP3    H235370   4.269   6.009   2.176  0.2166  0.3235 -0.2754
 4579TIP3   OH235371   3.528   3.097   1.510 -0.0310  0.1680  0.3423
 4579TIP3    H135372   3.552   3.189   1.511  1.0549 -0.1023  1.5352
 4579TIP3    H235373   3.605   3.052   1.475 -0.7880 -0.2587 -0.8714
 4580TIP3   OH235374   4.432   2.002   1.093 -0.0913  0.2360 -0.3894
 4580TIP3    H135375   4.440   2.083   1.142  0.3925  1.2137 -1.9986
 4580TIP3    H235376   4.340   1.998   1.067 -1.1312 -1.8510  3.0388
 4581TIP3   OH235377   4.443   3.567   7.859 -0.4555  0.7525 -0.0292
 4581TIP3    H135378   4.524   3.614   7.878 -0.8749  0.8290  1.7826
 4581TIP3    H235379   4.399   3.620   7.792  0.5369  1.2311 -0.3102
 4582TIP3   OH235380   5.604   3.605   6.559 -0.4567  0.2451 -0.2528
 4582TIP3    H135381   5.589   3.682   6.505 -2.8447 -0.1722 -0.2895
 4582TIP3    H235382   5.529   3.601   6.618  0.5199 -1.0569  0.9927
 4583TIP3   OH235383   1.405   1.067   8.496 -0.4224 -0.0140 -0.1182
 4583TIP3    H135384   1.457   1.138   8.458  1.3657 -0.6543  0.9659
 4583TIP3    H235385   1.458   0.989   8.481 -2.4709 -1.2239 -1.5317
 4584TIP3   OH235386   0.704   1.425   1.997 -1.2347  0.1140 -0.4968
 4584TIP3    H135387   0.638   1.403   2.063 -0.2464  1.4462  0.9861
 4584TIP3    H235388   0.696   1.520   1.986 -1.0678 -0.0212 -1.9836
 4585TIP3   OH235389   4.291   5.928   0.445 -0.0986  0.6585  0.5079
 4585TIP3    H135390   4.349   5.879   0.503 -0.3222  1.1405  1.1573
 4585TIP3    H235391   4.335   6.013   0.434  0.2479  0.3560 -0.5387
 4586TIP3   OH235392   3.398   3.539   9.001  0.4457  0.2245 -0.3698
 4586TIP3    H135393   3.467   3.489   9.046 -0.3490 -0.8044 -0.2452
 4586TIP3    H235394   3.341   3.471   8.963 -1.0147  1.0215  0.3241
 4587TIP3   OH235395   4.179   1.241   1.977  0.5792 -0.3310 -0.1277
 4587TIP3    H135396   4.201   1.183   1.905  1.9987 -0.1599  0.1364
 4587TIP3    H235397   4.165   1.327   1.936  0.7666 -0.3688 -0.2722
 4588TIP3   OH235398   3.767   1.279   1.901  0.1002  0.5533 -0.1755
 4588TIP3    H135399   3.720   1.349   1.856  0.3302 -1.1442 -3.3537
 4588TIP3    H235400   3.856   1.283   1.865  0.3530 -0.8239  0.2126
 4589TIP3   OH235401   1.229   2.772   1.215  0.0065 -0.2697 -0.4232
 4589TIP3    H135402   1.208   2.762   1.308 -0.0464 -0.9949 -0.5063
 4589TIP3    H235403   1.204   2.862   1.195 -1.0604 -0.4591 -0.0114
 4590TIP3   OH235404   1.671   3.864   8.574  0.1007 -0.3734  0.2273
 4590TIP3    H135405   1.664   3.914   8.656 -0.1771  1.9503 -1.1160
 4590TIP3    H235406   1.592   3.887   8.525 -0.0478 -2.2293 -0.4543
 4591TIP3   OH235407   5.929   5.024   8.589  0.2976 -0.0776  0.4785
 4591TIP3    H135408   5.948   4.949   8.646 -1.1448 -0.8660 -0.0098
 4591TIP3    H235409   5.983   5.010   8.511  1.2336  0.2703  1.0428
 4592TIP3   OH235410   1.801   1.233   7.633 -0.1523  0.0035 -0.2165
 4592TIP3    H135411   1.865   1.196   7.571 -0.4729 -1.7525  0.4287
 4592TIP3    H235412   1.838   1.317   7.658  0.9868 -0.1492 -1.2566
 4593TIP3   OH235413   0.135   6.371   8.661  0.7787  0.8569  0.0921
 4593TIP3    H135414   0.044   6.355   8.687  1.2432 -3.3158 -0.0642
 4593TIP3    H235415   0.138   6.341   8.570  2.5436 -0.5109  0.5545
 4594TIP3   OH235416   0.032   2.819   9.148 -0.2862 -0.3842 -0.1058
 4594TIP3    H135417  -0.051   2.797   9.105 -0.7104 -1.2417  1.1185
 4594TIP3    H235418   0.078   2.736   9.156  0.6003  0.0471 -0.5343
 4595TIP3   OH235419   0.866   5.654   9.014  0.3951  0.3357  0.1479
 4595TIP3    H135420   0.796   5.610   9.063  0.0794  0.4935 -0.1551
 4595TIP3    H235421   0.905   5.715   9.076  1.5387 -1.0936  0.9032
 4596TIP3   OH235422   2.595   2.779   0.659 -0.1176 -0.1979  0.3445
 4596TIP3    H135423   2.635   2.761   0.574 -0.4098  0.4756  0.0564
 4596TIP3    H235424   2.511   2.733   0.657 -0.7354  0.9150 -0.2775
 4597TIP3   OH235425   2.108   5.613   8.676  0.2764 -0.0994  0.1122
 4597TIP3    H135426   2.141   5.637   8.763 -0.0155 -0.6032  0.3675
 4597TIP3    H235427   2.114   5.694   8.625 -3.4895  1.5049  1.7621
 4598TIP3   OH235428   2.398   2.409   7.137  0.3617  0.0941 -0.2516
 4598TIP3    H135429   2.355   2.494   7.137  1.9547  0.9305 -0.6955
 4598TIP3    H235430   2.328   2.347   7.162 -0.3623  1.7353  2.1902
 4599TIP3   OH235431   4.727   2.272   1.215 -0.1944  0.0963 -0.9748
 4599TIP3    H135432   4.764   2.332   1.150 -0.5401  1.8772  0.3849
 4599TIP3    H235433   4.723   2.323   1.296 -1.4017 -1.4753  0.0394
 4600TIP3   OH235434   2.138   1.087   8.433  0.4712  0.1540 -0.1185
 4600TIP3    H135435   2.207   1.150   8.453  2.9251 -1.4750 -2.7394
 4600TIP3    H235436   2.100   1.065   8.519  3.4639  0.8815  1.5056
 4601TIP3   OH235437   1.378   6.464   7.819  0.0495  0.2722  0.2135
 4601TIP3    H135438   1.373   6.458   7.915 -0.5784  1.8258  0.3054
 4601TIP3    H235439   1.368   6.557   7.800  1.8813  0.2176 -1.2979
 4602TIP3   OH235440   6.030   4.075   2.225  0.4375 -0.4622 -0.8247
 4602TIP3    H135441   6.092   4.039   2.289 -0.6045 -0.7396  0.0616
 4602TIP3    H235442   6.028   4.169   2.244 -2.0575 -0.8656  1.6494
 4603TIP3   OH235443   5.932   6.675   1.597 -0.4511 -0.2812 -0.0605
 4603TIP3    H135444   6.016   6.680   1.551  0.1896 -1.7874  0.8765
 4603TIP3    H235445   5.882   6.610   1.548 -0.9393  0.3174 -0.3754
 4604TIP3   OH235446   6.115   2.534   1.057  0.0444  0.3327  1.1688
 4604TIP3    H135447   6.153   2.621   1.047  1.0181 -0.0985  0.9130
 4604TIP3    H235448   6.045   2.545   1.121 -0.6828  1.5380  0.1984
 4605TIP3   OH235449   0.634   2.130   2.062  0.0299 -0.4424 -0.0319
 4605TIP3    H135450   0.552   2.102   2.022 -0.1495 -0.2675  0.2064
 4605TIP3    H235451   0.609   2.203   2.119  0.6203  0.9268 -1.4471
 4606TIP3   OH235452   2.982   2.663   2.186 -0.5566 -0.4284 -0.4836
 4606TIP3    H135453   3.031   2.741   2.159 -1.5680  1.2259  2.0650
 4606TIP3    H235454   3.049   2.595   2.197  0.7652  0.8745 -0.1069
 4607TIP3   OH235455   1.252   2.170   8.677 -0.2213 -0.0922  0.2523
 4607TIP3    H135456   1.185   2.142   8.739 -0.0942  2.2667  1.5723
 4607TIP3    H235457   1.314   2.220   8.730  0.5374  1.0036 -1.5802
 4608TIP3   OH235458   1.219   3.389   7.972 -0.1952  0.2728  0.5460
 4608TIP3    H135459   1.270   3.353   7.899 -2.2726 -0.9790 -0.3838
 4608TIP3    H235460   1.258   3.349   8.050  1.0146  0.3340 -0.0000
 4609TIP3   OH235461   3.187   4.307   1.686 -0.2562  0.2187 -0.4506
 4609TIP3    H135462   3.257   4.275   1.742  1.4308  0.1473 -2.4664
 4609TIP3    H235463   3.111   4.255   1.710  1.7429 -3.7739 -1.8726
 4610TIP3   OH235464   0.174   2.921   8.918 -0.4192  0.1601  0.3014
 4610TIP3    H135465   0.115   2.868   8.973 -1.0371 -0.2207 -0.7040
 4610TIP3    H235466   0.124   2.938   8.839  0.6125  0.3500 -0.3243
 4611TIP3   OH235467   6.629   0.340   1.046 -0.5072 -0.5584  0.3465
 4611TIP3    H135468   6.630   0.390   0.965 -2.4846 -1.5552 -0.3810
 4611TIP3    H235469   6.630   0.248   1.018 -0.6516 -0.9216  1.4628
 4612TIP3   OH235470   4.696   6.420   8.218 -0.2371  0.4166 -0.1646
 4612TIP3    H135471   4.619   6.470   8.245  0.2616  0.1038  2.0077
 4612TIP3    H235472   4.767   6.484   8.215  0.0991  0.1486  1.2210
 4613TIP3   OH235473   0.751   4.834   0.491  0.0152 -0.4822  0.2925
 4613TIP3    H135474   0.833   4.826   0.442 -1.5719 -0.4056 -2.5812
 4613TIP3    H235475   0.694   4.769   0.452 -2.0746  1.1105  0.5374
 4614TIP3   OH235476   5.569   3.431   8.024 -0.0627  0.0971  0.0956
 4614TIP3    H135477   5.537   3.370   7.958 -0.3013  1.3370 -0.9831
 4614TIP3    H235478   5.604   3.505   7.973 -0.5600  1.2424  1.3530
 4615TIP3   OH235479   4.518   5.034   8.291  1.1808 -0.1825  0.1935
 4615TIP3    H135480   4.473   4.951   8.278  0.9955 -0.1999  0.9074
 4615TIP3    H235481   4.590   5.032   8.228  1.5511 -1.1591  0.6186
 4616TIP3   OH235482   1.663   1.633   0.927 -0.2264  0.5086 -0.6596
 4616TIP3    H135483   1.579   1.632   0.880  0.2627  0.8477 -1.5717
 4616TIP3    H235484   1.728   1.653   0.859  0.6003  0.2135  0.0276
 4617TIP3   OH235485   1.638   2.970   0.890  0.3587  0.5994  0.0482
 4617TIP3    H135486   1.713   3.026   0.868  0.1063  0.8920 -0.0697
 4617TIP3    H235487   1.622   2.919   0.811  1.6049 -0.8164  0.6630
 4618TIP3   OH235488   5.729   2.945   1.297 -0.8162 -0.3120  0.6584
 4618TIP3    H135489   5.751   3.038   1.293  0.5496 -0.6491 -0.7525
 4618TIP3    H235490   5.811   2.901   1.321 -0.7470 -1.3223 -1.2015
 4619TIP3   OH235491   2.784   2.137   2.054 -0.2577  0.7925  0.2017
 4619TIP3    H135492   2.844   2.212   2.059 -1.1543  1.4662  1.1817
 4619TIP3    H235493   2.829   2.074   1.998  0.8706  1.7387  0.0143
 4620TIP3   OH235494   0.846   6.526   6.880 -0.3653  0.0208  0.5082
 4620TIP3    H135495   0.894   6.488   6.954  1.6136  1.3586 -0.0170
 4620TIP3    H235496   0.862   6.620   6.886 -0.5468  0.2081 -1.3316
 4621TIP3   OH235497   0.647   3.584   0.531 -0.8709 -0.8562  0.0083
 4621TIP3    H135498   0.620   3.497   0.501 -1.5092 -0.8994  0.6945
 4621TIP3    H235499   0.698   3.567   0.611 -1.6884 -0.5570  0.6064
 4622TIP3   OH235500   0.665   1.304   0.857 -0.1920 -0.2596 -0.0023
 4622TIP3    H135501   0.620   1.238   0.805 -0.5125 -0.0312 -0.0187
 4622TIP3    H235502   0.729   1.254   0.909 -0.5593 -0.6062  0.1244
 4623TIP3   OH235503   3.278   6.465   1.754  0.3094  0.0209 -0.1911
 4623TIP3    H135504   3.368   6.432   1.749  0.2994  0.0897 -1.1297
 4623TIP3    H235505   3.289   6.558   1.774  0.3429 -0.4405  2.2058
 4624TIP3   OH235506   2.672   6.097   0.751  0.4384 -0.4483 -0.2019
 4624TIP3    H135507   2.691   6.157   0.823 -1.4208  0.9039 -0.7671
 4624TIP3    H235508   2.715   6.136   0.675  0.7610 -0.8177 -0.2083
 4625TIP3   OH235509   3.224   2.779   2.563 -0.3619  0.3632  0.0277
 4625TIP3    H135510   3.259   2.691   2.575 -0.6701  0.3026  0.5420
 4625TIP3    H235511   3.148   2.782   2.621  0.0708  1.2101  0.5700
 4626TIP3   OH235512   6.103   2.521   9.041  0.3416 -0.2179 -0.0512
 4626TIP3    H135513   6.064   2.520   9.128 -0.6006 -1.2049 -0.4658
 4626TIP3    H235514   6.060   2.594   8.996  1.2329  0.6512  0.4627
 4627TIP3   OH235515   5.391   0.632   7.705 -0.2241 -0.2168 -0.2431
 4627TIP3    H135516   5.312   0.578   7.701 -0.3325  0.0068 -2.9184
 4627TIP3    H235517   5.364   0.708   7.756 -0.8960 -1.3568  1.1911
 4628TIP3   OH235518   2.926   4.623   2.163 -0.0540 -0.3654 -0.3042
 4628TIP3    H135519   2.838   4.609   2.128 -0.9317 -1.2471  2.0562
 4628TIP3    H235520   2.946   4.544   2.212  0.9453  0.8745  1.4184
 4629TIP3   OH235521   2.970   4.678   0.470  0.2484 -0.1304 -0.2903
 4629TIP3    H135522   3.020   4.687   0.551  0.3266  0.8084 -0.4302
 4629TIP3    H235523   2.889   4.727   0.485 -1.2902 -2.6977  0.4077
 4630TIP3   OH235524   5.623   0.601   8.293 -0.2851  0.2078  0.3932
 4630TIP3    H135525   5.591   0.618   8.204 -1.2490  1.1229  0.8966
 4630TIP3    H235526   5.545   0.602   8.348  0.3055 -0.2721  1.2729
 4631TIP3   OH235527   5.381   6.636   0.774 -0.1129 -0.2014  0.6556
 4631TIP3    H135528   5.393   6.715   0.720  0.8724 -0.7786  0.0035
 4631TIP3    H235529   5.424   6.658   0.856  3.2170 -1.1745 -0.6480
 4632TIP3   OH235530   4.279   2.257   8.298 -0.2641 -0.1213 -0.2627
 4632TIP3    H135531   4.280   2.189   8.366  1.4270  0.2734  0.1372
 4632TIP3    H235532   4.339   2.225   8.231 -0.0289  0.6409 -0.4192
 4633TIP3   OH235533   2.465   6.277   0.666 -0.1510  0.2577 -0.0339
 4633TIP3    H135534   2.534   6.340   0.686  0.2585 -0.7625  2.0391
 4633TIP3    H235535   2.506   6.192   0.676 -0.8430 -0.4092 -2.2151
 4634TIP3   OH235536   3.567   1.067   1.804  0.0017  0.4538 -0.0542
 4634TIP3    H135537   3.490   1.113   1.837 -0.1787  0.9505 -1.1347
 4634TIP3    H235538   3.626   1.137   1.775  0.3959  0.0448 -0.2489
 4635TIP3   OH235539   0.933   0.920   0.628  0.2251  0.0420 -0.4211
 4635TIP3    H135540   0.956   0.923   0.535 -1.4710 -1.6042 -0.9317
 4635TIP3    H235541   0.998   0.861   0.666 -0.2324 -0.8267 -0.9526
 4636TIP3   OH235542   4.403   2.408   7.052 -0.1146 -0.9269  0.4462
 4636TIP3    H135543   4.467   2.459   7.103  0.0865  0.3900 -1.0311
 4636TIP3    H235544   4.318   2.436   7.085  0.0332 -1.1250  1.0027
 4637TIP3   OH235545   2.291   0.217   1.912 -0.1957 -0.3503  0.1081
 4637TIP3    H135546   2.365   0.252   1.962 -0.1772 -0.6953  0.3244
 4637TIP3    H235547   2.314   0.124   1.898  1.0060  0.2509 -2.6717
 4638TIP3   OH235548   2.019   3.928   9.189  0.1240  0.3214 -0.1121
 4638TIP3    H135549   2.048   3.999   9.246  0.5627  0.0661 -0.0188
 4638TIP3    H235550   1.939   3.962   9.148  0.8811  1.2797 -0.8625
 4639TIP3   OH235551   0.060   6.534   9.064 -0.0530 -0.1206  0.2160
 4639TIP3    H135552   0.078   6.448   9.100  0.0409 -0.1274  0.1539
 4639TIP3    H235553   0.140   6.558   9.017  0.1936  0.3135  0.8411
 4640TIP3   OH235554   3.500   3.471   8.735 -0.3509  0.1430 -0.1618
 4640TIP3    H135555   3.505   3.546   8.794  0.7458 -1.0962  1.4095
 4640TIP3    H235556   3.564   3.491   8.667  1.4410 -0.1968  1.3333
 4641TIP3   OH235557   2.662   3.579   0.313  0.1630  0.3422  0.1447
 4641TIP3    H135558   2.646   3.616   0.400 -0.2114  0.5960 -0.0279
 4641TIP3    H235559   2.575   3.570   0.275  0.3761  0.9792 -0.5086
 4642TIP3   OH235560   4.606   0.934   8.850 -0.1682 -0.5956  0.0500
 4642TIP3    H135561   4.525   0.980   8.868 -0.6774 -1.7720  0.8706
 4642TIP3    H235562   4.581   0.861   8.794  0.3533 -0.8272  0.1048
 4643TIP3   OH235563   3.232   5.777   8.933 -0.1594  0.1577  0.1464
 4643TIP3    H135564   3.155   5.786   8.877  0.5509 -1.0459 -1.0819
 4643TIP3    H235565   3.213   5.702   8.989 -0.6904  1.0977  1.2553
 4644TIP3   OH235566   1.907   0.287   0.230  0.5915  0.2689 -0.6039
 4644TIP3    H135567   1.997   0.301   0.199  0.9786  1.5602  0.9422
 4644TIP3    H235568   1.860   0.366   0.203 -0.1622 -0.4845 -1.5741
 4645TIP3   OH235569   4.494   6.537   1.966  0.6689 -0.1537  0.0373
 4645TIP3    H135570   4.410   6.493   1.973 -0.2251  1.0945 -1.9354
 4645TIP3    H235571   4.477   6.628   1.991  1.5967 -0.0413  0.3219
 4646TIP3   OH235572   6.461   3.584   2.312  0.0820 -0.2722  0.1121
 4646TIP3    H135573   6.522   3.523   2.354  0.9686  0.6661  0.2133
 4646TIP3    H235574   6.382   3.579   2.366  0.8879  0.2423  1.3808
 4647TIP3   OH235575   4.662   2.054   2.403 -0.6038 -0.0658  0.0411
 4647TIP3    H135576   4.598   2.036   2.334 -0.7763 -3.5185  0.9216
 4647TIP3    H235577   4.633   2.137   2.441 -1.3986  1.1469 -2.9549
 4648TIP3   OH235578   5.171   3.717   2.567 -0.3315 -1.1241  0.1469
 4648TIP3    H135579   5.226   3.795   2.563  0.8728 -1.8824  1.2339
 4648TIP3    H235580   5.089   3.748   2.606 -0.2893 -0.2069 -0.4456
 4649TIP3   OH235581   3.238   3.633   1.866  0.1012  0.1032  0.2590
 4649TIP3    H135582   3.188   3.672   1.794  1.8416  0.8557 -0.6098
 4649TIP3    H235583   3.194   3.665   1.946 -0.0780  1.7371 -0.4505
 4650TIP3   OH235584   3.198   2.315   3.446 -0.5958  0.2171  1.0149
 4650TIP3    H135585   3.291   2.334   3.432 -0.2710 -0.1350  2.5150
 4650TIP3    H235586   3.154   2.399   3.434  0.0152  0.5505  1.0642
 4651TIP3   OH235587   6.476   3.411   1.678  0.4914 -0.0685  0.3232
 4651TIP3    H135588   6.509   3.352   1.746  1.9663  1.8001  1.3151
 4651TIP3    H235589   6.468   3.496   1.722 -2.2761  0.3829 -0.8566
 4652TIP3   OH235590   4.801   5.885   8.612 -0.5918 -0.5851  0.3452
 4652TIP3    H135591   4.896   5.890   8.606 -0.7028  2.2525 -0.3990
 4652TIP3    H235592   4.782   5.791   8.616  2.0675 -1.4330 -2.7289
 4653TIP3   OH235593   5.667   3.507   7.181  0.0811 -0.0509  0.5150
 4653TIP3    H135594   5.726   3.570   7.221  2.4394 -1.5917 -0.3048
 4653TIP3    H235595   5.701   3.422   7.209 -1.4904 -1.0351 -0.4118
 4654TIP3   OH235596   5.855   3.569   0.467 -0.5765  0.0914 -0.3031
 4654TIP3    H135597   5.774   3.617   0.452 -0.5092  0.4560  0.4860
 4654TIP3    H235598   5.922   3.637   0.477 -0.5554 -0.1280  1.2533
 4655TIP3   OH235599   2.821   4.575   0.078  0.6555  0.4321 -0.6121
 4655TIP3    H135600   2.741   4.525   0.062  0.5919  0.4094 -0.2337
 4655TIP3    H235601   2.863   4.583  -0.008 -0.2294  1.2576 -0.9827
 4656TIP3   OH235602   1.196   6.026   7.821 -0.1932  0.7524  0.7117
 4656TIP3    H135603   1.133   6.048   7.752  0.8411  0.1289 -0.4686
 4656TIP3    H235604   1.178   6.089   7.891  0.1787  2.8618 -1.0034
 4657TIP3   OH235605   3.188   4.546   0.356 -0.4986  0.7403 -0.2483
 4657TIP3    H135606   3.116   4.601   0.388 -0.0365  1.7726 -0.9382
 4657TIP3    H235607   3.168   4.531   0.264 -0.7820 -0.5327  0.0087
 4658TIP3   OH235608   6.183   5.316   2.273 -0.1017  0.4232 -0.1248
 4658TIP3    H135609   6.104   5.359   2.305 -0.0995  0.5335 -0.2628
 4658TIP3    H235610   6.246   5.324   2.344  0.0571  1.0797 -0.3253
 4659TIP3   OH235611   6.540   4.925   9.208 -0.4822 -0.0895  0.3198
 4659TIP3    H135612   6.615   4.984   9.198  0.1067 -0.7073  1.0031
 4659TIP3    H235613   6.470   4.967   9.158 -0.7514  2.2962  2.4982
 4660TIP3   OH235614   5.483   6.688   7.525 -0.7218 -0.1940 -0.3285
 4660TIP3    H135615   5.469   6.613   7.466  0.4917 -0.1393 -0.7194
 4660TIP3    H235616   5.469   6.765   7.470 -0.0707 -0.1426 -0.4294
 4661TIP3   OH235617   0.264   1.402   8.839 -0.1620  0.3061 -0.3091
 4661TIP3    H135618   0.219   1.406   8.755  0.3652  0.4025 -0.5939
 4661TIP3    H235619   0.268   1.308   8.861 -3.3513  0.4124  1.3171
 4662TIP3   OH235620   2.279   2.854   7.742 -0.7110  0.5812  0.3064
 4662TIP3    H135621   2.335   2.866   7.665  2.9289  2.5451  2.9774
 4662TIP3    H235622   2.237   2.939   7.755 -1.3102  0.2603  0.5394
 4663TIP3   OH235623   2.906   5.803   0.290  0.5699 -0.1653  0.9766
 4663TIP3    H135624   2.839   5.784   0.356 -0.1037  0.2051  0.4023
 4663TIP3    H235625   2.948   5.883   0.322 -0.0942  0.2998  0.7068
 4664TIP3   OH235626   2.625   6.247   0.995  0.2135  0.0081 -0.4374
 4664TIP3    H135627   2.626   6.341   0.977 -0.8295 -0.1191 -1.2847
 4664TIP3    H235628   2.667   6.238   1.080 -0.3019  1.3145 -0.0189
 4665TIP3   OH235629   3.360   2.755   8.014 -0.0246 -0.4532  0.4417
 4665TIP3    H135630   3.335   2.670   8.052 -0.4956 -0.8180 -0.6630
 4665TIP3    H235631   3.339   2.747   7.921 -4.6009  2.5143  0.9306
 4666TIP3   OH235632   3.079   0.004   2.032 -0.3384 -0.0656 -0.1385
 4666TIP3    H135633   3.065   0.076   1.970 -0.0511 -1.3028 -1.7348
 4666TIP3    H235634   3.174  -0.005   2.037 -0.3719 -1.0155 -0.8462
 4667TIP3   OH235635   0.888   2.650   1.596  0.4934 -0.0019  0.1003
 4667TIP3    H135636   0.798   2.618   1.608 -0.0726  2.1577  2.6253
 4667TIP3    H235637   0.913   2.621   1.509 -3.1593  0.4615 -1.2563
 4668TIP3   OH235638   5.033   4.108   0.404  0.0966 -0.4705  0.0050
 4668TIP3    H135639   5.086   4.171   0.356 -0.2391 -0.3386 -0.1973
 4668TIP3    H235640   4.945   4.116   0.365 -0.5027  0.5600  1.4847
 4669TIP3   OH235641   4.597   3.082   2.702 -0.1408  0.1382  0.5140
 4669TIP3    H135642   4.523   3.022   2.700 -0.3514  0.3329  1.5482
 4669TIP3    H235643   4.660   3.045   2.640 -1.0919 -0.0209 -0.3785
 4670TIP3   OH235644   1.328   0.837   1.677 -0.0721  0.2233  0.2647
 4670TIP3    H135645   1.297   0.746   1.672  0.6190 -0.1068  1.5485
 4670TIP3    H235646   1.283   0.874   1.753 -1.4525  1.4416 -1.0695
 4671TIP3   OH235647   3.904   6.124   1.597  0.5533 -0.3412  1.1005
 4671TIP3    H135648   3.975   6.091   1.652  1.5461  0.2997  0.2483
 4671TIP3    H235649   3.870   6.200   1.644 -0.6952 -1.5715  2.2984
 4672TIP3   OH235650   6.550   0.480   2.688 -0.0681  0.0954 -0.1590
 4672TIP3    H135651   6.594   0.464   2.771  0.7995  0.7348 -0.4780
 4672TIP3    H235652   6.512   0.567   2.697 -2.3462 -0.8930  0.5417
 4673TIP3   OH235653   4.021   5.333   8.585  0.3643  0.2995  0.3537
 4673TIP3    H135654   3.960   5.260   8.571  0.1641  0.1103  2.0269
 4673TIP3    H235655   4.083   5.326   8.512 -2.9629  2.0189 -2.9402
 4674TIP3   OH235656   1.983   5.056   8.487 -0.3908  0.2678 -0.8078
 4674TIP3    H135657   2.040   5.124   8.453  1.3255  0.0858  1.4649
 4674TIP3    H235658   1.912   5.103   8.531 -0.4323  0.5412 -1.1682
 4675TIP3   OH235659   6.097   4.728   7.583 -0.3684  0.6157 -0.0945
 4675TIP3    H135660   6.144   4.812   7.583  0.6390  0.0760 -0.1745
 4675TIP3    H235661   6.036   4.735   7.510 -0.5779  1.4286  0.1477
 4676TIP3   OH235662   3.464   1.127   0.552  0.0084 -0.0650  0.5037
 4676TIP3    H135663   3.463   1.070   0.475  0.0486  0.5293  0.0567
 4676TIP3    H235664   3.399   1.089   0.611  0.8705 -1.2690  0.7330
 4677TIP3   OH235665   5.696   6.262   8.979 -0.1962 -0.2872 -0.1875
 4677TIP3    H135666   5.790   6.250   8.961 -0.2986 -1.6215  0.0542
 4677TIP3    H235667   5.690   6.254   9.074 -0.5463 -0.0143 -0.1857
 4678TIP3   OH235668   3.043   1.417   1.632  0.5801 -0.1633 -0.6249
 4678TIP3    H135669   3.082   1.346   1.684 -0.2865 -0.8478 -0.8850
 4678TIP3    H235670   2.952   1.421   1.661  0.0623 -0.5874 -2.1034
 4679TIP3   OH235671   5.764   4.324   7.633 -0.0423  0.1718  0.2456
 4679TIP3    H135672   5.684   4.289   7.593 -0.3991  0.5274  0.6280
 4679TIP3    H235673   5.789   4.397   7.577  1.8830 -1.8886 -1.7565
 4680TIP3   OH235674   2.764   3.386   6.983 -0.3809  0.3712 -0.5428
 4680TIP3    H135675   2.847   3.382   7.031 -0.4550  0.7653 -0.3843
 4680TIP3    H235676   2.700   3.344   7.041 -0.3172  0.1741 -0.6143
 4681TIP3   OH235677   0.714   2.794   8.862 -0.2519 -0.1885 -0.3681
 4681TIP3    H135678   0.627   2.755   8.870  0.4264 -1.5361  0.7994
 4681TIP3    H235679   0.703   2.884   8.891 -0.8961 -0.8949  1.7373
 4682TIP3   OH235680   1.020   4.248   8.430  0.2975 -0.3308 -0.1914
 4682TIP3    H135681   1.060   4.189   8.495  1.2309  2.3469  1.8364
 4682TIP3    H235682   0.926   4.230   8.437  0.6102 -2.4953 -0.6860
 4683TIP3   OH235683   0.282   4.535   1.531 -0.6546  0.4905  0.2111
 4683TIP3    H135684   0.360   4.590   1.532 -0.0094 -0.4163  0.8985
 4683TIP3    H235685   0.272   4.505   1.622 -1.4274  0.0770  0.0006
 4684TIP3   OH235686   5.385   1.509   0.422  0.2903  0.3614  0.0617
 4684TIP3    H135687   5.395   1.465   0.507  0.0271 -0.3650 -0.2805
 4684TIP3    H235688   5.419   1.598   0.438 -0.9254  0.6482  1.2724
 4685TIP3   OH235689   3.318   5.329   8.375  0.0462  0.4499 -0.0604
 4685TIP3    H135690   3.393   5.337   8.316 -1.8244  1.1376 -2.4842
 4685TIP3    H235691   3.246   5.373   8.329 -1.4193  1.5935  3.0195
 4686TIP3   OH235692   1.496   2.945   2.629 -0.8940 -0.3201 -0.7867
 4686TIP3    H135693   1.551   2.970   2.703 -3.4813  1.2442  0.7703
 4686TIP3    H235694   1.455   2.863   2.655 -0.6394 -0.5769 -1.1807
 4687TIP3   OH235695   0.354   6.219   9.017  0.6677  0.1205 -0.3796
 4687TIP3    H135696   0.263   6.192   9.027  1.1426 -1.4822 -0.1471
 4687TIP3    H235697   0.349   6.306   8.978 -0.9705  0.3999  0.3951
 4688TIP3   OH235698   0.823   4.135   7.806  0.4830 -0.0878  0.0545
 4688TIP3    H135699   0.909   4.096   7.822  0.8545  0.5149 -0.4045
 4688TIP3    H235700   0.839   4.203   7.740 -0.4147 -0.2429 -0.3446
 4689TIP3   OH235701   5.543   2.096   2.350 -0.0845 -0.3382 -0.4076
 4689TIP3    H135702   5.555   2.127   2.440 -1.9940 -0.0223 -0.2230
 4689TIP3    H235703   5.540   2.001   2.358 -0.7592 -0.2960 -0.0365
 4690TIP3   OH235704   1.211   3.777   0.946 -0.0025  0.3716  0.4469
 4690TIP3    H135705   1.154   3.772   1.022 -0.2614 -0.0800  0.2254
 4690TIP3    H235706   1.287   3.827   0.976 -0.5900  1.1313  0.6924
 4691TIP3   OH235707   0.178   2.809   0.453  0.4761  0.2723 -0.0801
 4691TIP3    H135708   0.223   2.868   0.392 -1.9702  1.5008 -0.8200
 4691TIP3    H235709   0.156   2.732   0.401  0.6024  0.2168 -0.0525
 4692TIP3   OH235710   6.466   1.146   1.494 -0.2336  0.2751  0.1144
 4692TIP3    H135711   6.531   1.172   1.430  1.7663 -1.4169  1.3054
 4692TIP3    H235712   6.426   1.067   1.458  1.3687 -1.0723  1.1240
 4693TIP3   OH235713   5.709   2.333   2.248 -0.3533  0.0736  0.4800
 4693TIP3    H135714   5.684   2.244   2.225 -1.0191  0.6486 -1.1490
 4693TIP3    H235715   5.690   2.339   2.342 -0.1361 -1.5351  0.6527
 4694TIP3   OH235716   6.582   1.804   0.201 -0.5571  0.6334  0.0848
 4694TIP3    H135717   6.577   1.883   0.147 -0.6574  0.4612 -0.1583
 4694TIP3    H235718   6.674   1.778   0.198 -0.5904  0.5392 -0.1245
 4695TIP3   OH235719   1.116   5.463   8.239  0.3197 -0.9917 -0.1096
 4695TIP3    H135720   1.120   5.527   8.168  1.6073 -0.8347  0.0781
 4695TIP3    H235721   1.048   5.496   8.298  0.4415 -0.2008 -0.3963
 4696TIP3   OH235722   2.309   5.538   1.509  0.1320 -0.1612 -0.3640
 4696TIP3    H135723   2.274   5.454   1.479 -0.7029 -0.0369  0.2374
 4696TIP3    H235724   2.302   5.534   1.605 -0.2302  0.7309 -0.3449
 4697TIP3   OH235725   5.465   3.208   7.909 -0.0694  0.0906 -0.3733
 4697TIP3    H135726   5.405   3.194   7.836  0.9187  1.1994 -1.4427
 4697TIP3    H235727   5.552   3.196   7.871  0.4294 -1.2115  1.0831
 4698TIP3   OH235728   1.841   1.520   8.463 -0.9266  0.1428  0.3000
 4698TIP3    H135729   1.932   1.498   8.440 -0.2339  0.9276  2.0912
 4698TIP3    H235730   1.788   1.470   8.401  0.7128 -0.6014 -0.5813
 4699TIP3   OH235731   3.520   2.986   0.152 -0.1646 -0.2691 -0.6103
 4699TIP3    H135732   3.591   3.048   0.170 -1.4561  0.9882  0.4181
 4699TIP3    H235733   3.563   2.910   0.115  1.7133  0.4827 -0.0661
 4700TIP3   OH235734   4.067   1.099   0.773  0.6379  0.2635  0.0618
 4700TIP3    H135735   4.037   1.177   0.726  1.1100  0.6834  0.4531
 4700TIP3    H235736   4.142   1.068   0.724 -0.1405 -0.5334 -0.6641
 4701TIP3   OH235737   3.018   0.749   1.885  0.1818 -0.3438  0.3226
 4701TIP3    H135738   2.974   0.666   1.905  1.1856 -0.8019  0.6745
 4701TIP3    H235739   3.096   0.724   1.837  0.3754  0.4185  0.2316
 4702TIP3   OH235740   5.615   0.452   2.084 -0.1855  0.3634  1.1361
 4702TIP3    H135741   5.649   0.527   2.036 -3.1793  1.1845  0.0639
 4702TIP3    H235742   5.596   0.486   2.171 -2.0389  1.1077  0.4976
 4703TIP3   OH235743   2.002   3.438   7.776  0.3797  0.0736 -0.5662
 4703TIP3    H135744   2.089   3.402   7.794  0.3680 -0.5645 -1.7039
 4703TIP3    H235745   1.962   3.375   7.717 -0.4868  0.8619 -0.8444
 4704TIP3   OH235746   4.016   3.426   9.204 -0.2463 -0.3232  0.3185
 4704TIP3    H135747   3.942   3.430   9.144  1.0537  1.9721 -1.2935
 4704TIP3    H235748   4.076   3.363   9.164 -0.1933 -0.1977  0.1987
 4705TIP3   OH235749   4.911   6.530   8.986 -0.3659  0.3316  0.3642
 4705TIP3    H135750   4.943   6.451   8.943 -0.0333  1.3635 -1.3564
 4705TIP3    H235751   4.824   6.506   9.019  0.3074 -1.1572  1.1462
 4706TIP3   OH235752   5.067   5.293   7.462  0.2933 -0.6585 -0.7265
 4706TIP3    H135753   4.972   5.289   7.478  0.4095 -0.4353  0.0995
 4706TIP3    H235754   5.075   5.327   7.373 -0.4108  0.8105 -0.2662
 4707TIP3   OH235755   5.556   2.663   7.145 -0.2837  0.2631  0.1187
 4707TIP3    H135756   5.496   2.590   7.131 -0.0888  0.0892  0.1810
 4707TIP3    H235757   5.643   2.625   7.133 -0.1837  0.4948  0.1095
 4708TIP3   OH235758   2.558   1.119   8.126  0.1611  0.2156  0.0248
 4708TIP3    H135759   2.638   1.155   8.089 -0.9462  0.4220 -2.3921
 4708TIP3    H235760   2.511   1.083   8.050 -3.2106  2.4296  0.8606
 4709TIP3   OH235761   4.196   2.056   0.974  0.3494 -0.3013  0.1099
 4709TIP3    H135762   4.118   2.111   0.976  0.5146 -0.0338 -0.6230
 4709TIP3    H235763   4.164   1.972   0.940  0.8882  0.6998 -3.1370
 4710TIP3   OH235764   0.395   4.894   7.504 -0.2365  0.2619  0.5232
 4710TIP3    H135765   0.457   4.964   7.525 -0.0913 -0.4667  2.8688
 4710TIP3    H235766   0.366   4.913   7.415  1.1966  2.2311  0.4100
 4711TIP3   OH235767   0.527   2.258   8.043  0.0548  0.5037 -0.1418
 4711TIP3    H135768   0.552   2.202   8.117  0.1993  0.1642 -0.4458
 4711TIP3    H235769   0.440   2.292   8.068  0.1739  0.5236  0.2560
 4712TIP3   OH235770   6.609   5.595   7.537 -0.1856 -0.9673  0.0987
 4712TIP3    H135771   6.607   5.505   7.568  0.3610 -1.0559 -0.1140
 4712TIP3    H235772   6.526   5.606   7.489 -1.6104 -0.4571  2.5306
 4713TIP3   OH235773   6.665   5.770   7.746 -0.4082  0.0693 -0.2233
 4713TIP3    H135774   6.658   5.701   7.679  1.0265 -0.4027  0.0906
 4713TIP3    H235775   6.664   5.722   7.829 -0.9836  0.5695  0.0681
 4714TIP3   OH235776   6.303   5.672   2.636  0.2831  0.2255 -0.0297
 4714TIP3    H135777   6.382   5.706   2.593  0.3414  1.0714  0.7229
 4714TIP3    H235778   6.336   5.634   2.718 -0.0696  0.4743  0.2304
 4715TIP3   OH235779   2.696   3.158   1.198  0.3838 -0.3580  0.0111
 4715TIP3    H135780   2.728   3.221   1.263  3.3425 -0.4277 -1.2028
 4715TIP3    H235781   2.689   3.075   1.245  0.3684  0.0305  0.7101
 4716TIP3   OH235782   1.911   0.672   8.002 -0.9311  0.0996 -0.0639
 4716TIP3    H135783   1.829   0.669   7.953 -1.4032  2.0695  0.5057
 4716TIP3    H235784   1.975   0.630   7.944 -2.1204 -0.5484 -0.9504
 4717TIP3   OH235785   6.331   2.956   8.633 -0.3951  0.5731 -0.0793
 4717TIP3    H135786   6.241   2.970   8.605 -0.7756 -0.0999  0.7615
 4717TIP3    H235787   6.330   2.871   8.677  0.8480  0.1170 -0.8797
 4718TIP3   OH235788   2.546   0.666   1.361  0.0301  0.4334  0.2544
 4718TIP3    H135789   2.628   0.643   1.405 -0.2268  0.9080  1.0033
 4718TIP3    H235790   2.507   0.733   1.417 -1.7206 -1.0225  0.8621
 4719TIP3   OH235791   3.531   5.641   2.735  0.3717 -0.2769  0.4364
 4719TIP3    H135792   3.468   5.708   2.711  0.7552 -0.4092 -1.0392
 4719TIP3    H235793   3.481   5.577   2.786 -0.7683 -0.5146 -0.9287
 4720TIP3   OH235794   4.827   0.134   9.133  0.2383  0.4783 -0.2858
 4720TIP3    H135795   4.753   0.121   9.074 -0.4562  1.4166  0.3505
 4720TIP3    H235796   4.904   0.113   9.080 -0.4020  0.7223 -1.3416
 4721TIP3   OH235797   2.380   3.928   8.151 -0.0469 -0.4041  0.0913
 4721TIP3    H135798   2.408   3.857   8.210 -1.2430 -2.0539 -1.2234
 4721TIP3    H235799   2.291   3.947   8.179  0.3271  0.7551  0.5463
 4722TIP3   OH235800   1.035   6.326   8.602 -0.0908  0.3831 -0.2981
 4722TIP3    H135801   1.026   6.238   8.564 -0.2417 -0.0280  0.6623
 4722TIP3    H235802   0.980   6.324   8.681  0.8903  0.9331  0.4218
 4723TIP3   OH235803   3.495   2.867   1.808 -0.3186  0.0488 -0.3660
 4723TIP3    H135804   3.565   2.917   1.765  0.4270  0.2686  1.0447
 4723TIP3    H235805   3.524   2.858   1.898 -1.1085 -1.7369 -0.2432
 4724TIP3   OH235806   5.457   1.849   0.180  0.0329 -0.4905  0.1517
 4724TIP3    H135807   5.412   1.860   0.264 -1.8484  0.9725 -0.9811
 4724TIP3    H235808   5.540   1.808   0.203  0.3884  1.5273  2.9676
 4725TIP3   OH235809   4.754   2.551   8.724 -0.1142 -0.0510  0.0421
 4725TIP3    H135810   4.791   2.639   8.716 -0.0971 -0.1097 -0.6112
 4725TIP3    H235811   4.719   2.532   8.637 -0.6622 -0.4510  0.3490
 4726TIP3   OH235812   1.252   3.653   8.283 -0.0096  0.4140  0.1439
 4726TIP3    H135813   1.236   3.742   8.250 -1.1097 -0.6452 -2.5367
 4726TIP3    H235814   1.320   3.619   8.225 -0.7787 -1.0072  0.0347
 4727TIP3   OH235815   6.668   6.210   8.080 -0.2368  0.0862  0.0436
 4727TIP3    H135816   6.627   6.277   8.026 -1.2471 -0.4615  0.1040
 4727TIP3    H235817   6.648   6.236   8.170  0.6916  0.5199  0.1411
 4728TIP3   OH235818   1.924   1.729   2.330 -0.3171  0.2824  0.6580
 4728TIP3    H135819   1.854   1.749   2.267  0.0513 -0.4309  0.0097
 4728TIP3    H235820   1.913   1.795   2.399  0.6201  2.4972 -1.1693
 4729TIP3   OH235821   3.401   2.973   7.790 -0.1851  0.1148 -0.2394
 4729TIP3    H135822   3.470   2.970   7.857 -1.2255 -1.1933  0.8210
 4729TIP3    H235823   3.434   2.918   7.719  0.5774  0.8623 -0.4812
 4730TIP3   OH235824   5.083   5.293   1.352 -0.2305 -0.1185 -0.7679
 4730TIP3    H135825   5.020   5.343   1.404  0.4456 -0.6698  0.6301
 4730TIP3    H235826   5.157   5.353   1.341  0.4911 -0.6890  0.7254
 4731TIP3   OH235827   0.947   1.771   1.702 -0.0389  0.2178 -0.0437
 4731TIP3    H135828   0.971   1.853   1.745 -0.5860  0.9246 -1.0520
 4731TIP3    H235829   0.979   1.703   1.761  0.0131  1.1492  1.0353
 4732TIP3   OH235830   2.287   4.386   0.714 -0.2517 -0.3867  0.6432
 4732TIP3    H135831   2.276   4.418   0.804 -2.0113  1.6093 -0.1957
 4732TIP3    H235832   2.205   4.341   0.695 -0.4953  0.4586 -0.4003
 4733TIP3   OH235833   4.730   3.034   7.599  0.4083 -0.0697  0.2965
 4733TIP3    H135834   4.722   3.124   7.630 -2.0157 -0.3756  0.7172
 4733TIP3    H235835   4.729   2.981   7.678  0.0301 -0.5480 -0.0207
 4734TIP3   OH235836   0.788   1.112   1.667  0.2634 -0.0543 -0.4169
 4734TIP3    H135837   0.827   1.199   1.673 -0.6739  0.3765 -0.4978
 4734TIP3    H235838   0.727   1.118   1.593 -0.3785 -0.5465  0.0602
 4735TIP3   OH235839   3.799   6.652   2.256 -0.8537 -0.2625  0.0222
 4735TIP3    H135840   3.885   6.675   2.289 -0.7518  0.5381 -0.7775
 4735TIP3    H235841   3.781   6.715   2.187 -2.2286 -0.2002  0.4002
 4736TIP3   OH235842   6.455   1.763   3.273  0.7390  0.2709 -0.3642
 4736TIP3    H135843   6.430   1.838   3.328 -1.4758 -0.6844  0.0625
 4736TIP3    H235844   6.371   1.732   3.238  1.9083 -0.2597 -2.8708
 4737TIP3   OH235845   6.285   0.962   8.700  0.0411  0.3625  0.1782
 4737TIP3    H135846   6.277   0.953   8.795 -1.7215 -0.3421  0.0004
 4737TIP3    H235847   6.363   0.912   8.678  0.1963  0.1331  1.2094
 4738TIP3   OH235848   3.590   4.640   1.018 -0.2629 -0.2236 -0.2454
 4738TIP3    H135849   3.518   4.636   1.081 -0.8200  1.0911 -0.7518
 4738TIP3    H235850   3.552   4.609   0.936  0.6460 -2.6015  0.1605
 4739TIP3   OH235851   5.700   2.811   7.773 -0.2072  0.5985 -0.0095
 4739TIP3    H135852   5.708   2.761   7.854 -1.7850  1.3788  0.6769
 4739TIP3    H235853   5.789   2.816   7.739  0.3371 -0.6069  1.1434
 4740TIP3   OH235854   2.884   6.517   2.082 -0.2900  0.1590  0.0646
 4740TIP3    H135855   2.823   6.550   2.016  1.4227  1.9397 -0.7159
 4740TIP3    H235856   2.943   6.590   2.099  0.3046 -0.7802  2.4301
 4741TIP3   OH235857   2.053   6.203   0.957  0.4236 -0.0250  0.0630
 4741TIP3    H135858   2.142   6.238   0.949 -0.1421  1.3084 -0.7096
 4741TIP3    H235859   2.064   6.119   1.001  2.0412  0.2293  0.1930
 4742TIP3   OH235860   3.954   3.480   1.307 -0.1448  0.1538 -0.0952
 4742TIP3    H135861   3.866   3.459   1.274 -0.5244  0.2939  0.7994
 4742TIP3    H235862   3.943   3.485   1.402  0.6227  1.1834 -0.0479
 4743TIP3   OH235863   2.920   1.143   0.030  0.0282 -0.1448 -0.0281
 4743TIP3    H135864   2.883   1.095   0.105  1.7380  1.9850  2.3581
 4743TIP3    H235865   3.003   1.098   0.012  0.3494  0.2714  0.4020
 4744TIP3   OH235866   5.306   1.251   8.523 -0.2213 -0.0301  0.2220
 4744TIP3    H135867   5.270   1.213   8.603  0.0048 -1.6189 -0.3961
 4744TIP3    H235868   5.265   1.201   8.452 -3.7211  3.9600 -1.0200
 4745TIP3   OH235869   5.666   0.441   8.588  0.5179  0.3374 -0.7013
 4745TIP3    H135870   5.625   0.378   8.528  1.1471  0.7673 -1.6097
 4745TIP3    H235871   5.715   0.500   8.530  0.2471  1.4334  0.1534
 4746TIP3   OH235872   2.176   5.522   8.237 -0.3413 -0.3511  0.4816
 4746TIP3    H135873   2.193   5.461   8.165 -1.4608  0.3896 -0.4245
 4746TIP3    H235874   2.263   5.553   8.263  0.1113 -1.0526 -0.1623
 4747TIP3   OH235875   6.669   6.432   2.197  0.3854 -0.1331  0.2039
 4747TIP3    H135876   6.685   6.449   2.290  1.3166  0.4354 -0.0484
 4747TIP3    H235877   6.613   6.504   2.169 -1.2554 -1.1809  0.6836
 4748TIP3   OH235878   0.338   5.494   9.054  0.5712 -0.2812  0.3611
 4748TIP3    H135879   0.256   5.475   9.100  0.1867  0.7358  0.1157
 4748TIP3    H235880   0.315   5.563   8.992  1.9805  1.2221  1.4264
 4749TIP3   OH235881   0.205   3.650   0.992 -0.0769  0.0447  0.1553
 4749TIP3    H135882   0.196   3.722   1.054 -0.8517 -0.7919  1.0327
 4749TIP3    H235883   0.290   3.611   1.012  0.5591  0.9889 -0.6365
 4750TIP3   OH235884   3.107   4.076   7.022 -0.2208  0.2349 -0.7164
 4750TIP3    H135885   3.183   4.105   7.073 -1.2259  2.7960 -0.5100
 4750TIP3    H235886   3.140   4.066   6.933  0.7705 -0.7624 -0.2659
 4751TIP3   OH235887   1.217   0.814   0.374  0.0629  0.5586 -0.2162
 4751TIP3    H135888   1.263   0.897   0.391 -0.8449  1.0657 -0.2099
 4751TIP3    H235889   1.179   0.790   0.459  1.2956 -0.4915  0.0733
 4752TIP3   OH235890   1.522   5.002   1.945  0.3710  0.5460  0.5577
 4752TIP3    H135891   1.505   5.042   2.030  0.7895  0.2869  0.7709
 4752TIP3    H235892   1.592   4.939   1.962  0.6216  0.6565 -0.0256
 4753TIP3   OH235893   1.399   2.087   8.938 -0.2584 -0.2113  0.3462
 4753TIP3    H135894   1.491   2.102   8.914 -0.6329 -0.1485 -1.0867
 4753TIP3    H235895   1.391   1.992   8.945  0.2050 -0.1744  1.7443
 4754TIP3   OH235896   5.153   2.980   8.093  0.9571 -0.0708 -0.5633
 4754TIP3    H135897   5.242   2.975   8.128  0.8320  0.3415 -0.1758
 4754TIP3    H235898   5.165   2.994   7.999  1.2963 -1.5203 -0.7681
 4755TIP3   OH235899   2.062   4.087   1.839  0.8778 -0.0681  0.2018
 4755TIP3    H135900   2.078   4.070   1.746  0.8150 -1.6804  0.4570
 4755TIP3    H235901   2.148   4.106   1.876  1.1842 -1.2667  0.1437
 4756TIP3   OH235902   1.438   3.960   9.010 -0.0184 -0.3072  0.0519
 4756TIP3    H135903   1.457   3.995   8.923 -1.3643  1.0409  0.2602
 4756TIP3    H235904   1.346   3.934   9.007  0.0759 -0.7732  0.8949
 4757TIP3   OH235905   4.025   2.689   1.081  0.1267 -0.0407  0.9127
 4757TIP3    H135906   4.101   2.639   1.050  0.1485  1.3514 -1.5334
 4757TIP3    H235907   4.059   2.741   1.154  1.8446  1.2108 -0.6766
 4758TIP3   OH235908   2.316   0.800   1.655  0.6694  0.2119  0.3340
 4758TIP3    H135909   2.291   0.892   1.657 -0.5121 -0.0977  1.8770
 4758TIP3    H235910   2.250   0.756   1.708  2.8116 -1.0882  2.1246
 4759TIP3   OH235911   4.488   5.976   2.218  0.1608 -0.6620 -0.2083
 4759TIP3    H135912   4.468   6.006   2.306  0.5214  0.0751 -0.3735
 4759TIP3    H235913   4.494   5.881   2.226 -1.2511 -0.7309  0.2682
 4760TIP3   OH235914   3.226   0.744   7.600  0.2333  0.7645 -0.4092
 4760TIP3    H135915   3.308   0.755   7.647 -0.0031  1.0921 -0.0618
 4760TIP3    H235916   3.232   0.657   7.560  0.1517  0.1604  0.8276
 4761TIP3   OH235917   4.062   0.706   0.027  0.6144  0.3610  0.4389
 4761TIP3    H135918   4.148   0.674   0.054  1.0955  0.6360 -0.7222
 4761TIP3    H235919   4.007   0.628   0.022  1.2929 -0.0736 -0.6012
 4762TIP3   OH235920   2.543   3.687   2.205  0.5875  0.1294  0.4666
 4762TIP3    H135921   2.492   3.741   2.266  0.0378 -0.5384  0.6142
 4762TIP3    H235922   2.479   3.656   2.141  0.9389 -0.1611  0.2490
 4763TIP3   OH235923   3.244   2.160   8.827 -0.2935 -0.0223 -0.1062
 4763TIP3    H135924   3.172   2.110   8.787  0.0019  1.1248 -2.2131
 4763TIP3    H235925   3.322   2.134   8.779  0.2710  0.6878  0.3942
 4764TIP3   OH235926   1.224   1.186   1.983 -0.2687  0.0940 -0.3940
 4764TIP3    H135927   1.160   1.256   1.998  0.2690  0.3855  0.6467
 4764TIP3    H235928   1.216   1.130   2.060  1.7594  0.9713  0.5226
 4765TIP3   OH235929   1.996   2.670   8.657  0.5083 -0.1479 -0.6328
 4765TIP3    H135930   2.073   2.699   8.610  0.2560  1.4820 -0.1174
 4765TIP3    H235931   2.022   2.672   8.750 -0.2252  0.7737 -0.4280
 4766TIP3   OH235932   0.689   5.007   1.599  0.2888 -0.2739  0.1248
 4766TIP3    H135933   0.690   4.932   1.540  1.5199  0.9214 -1.4689
 4766TIP3    H235934   0.629   5.070   1.557  1.2636  0.6319  0.0354
 4767TIP3   OH235935   1.412   6.384   2.120 -0.3918 -0.0705 -0.3889
 4767TIP3    H135936   1.507   6.375   2.130 -0.4312  0.7044  0.9210
 4767TIP3    H235937   1.388   6.316   2.057  0.8883 -0.9856  0.0686
 4768TIP3   OH235938   5.651   4.328   0.875 -0.3176  0.1125 -0.0430
 4768TIP3    H135939   5.640   4.398   0.939  1.7220  0.6335 -0.2021
 4768TIP3    H235940   5.711   4.266   0.917  1.7494  0.8773 -1.6963
 4769TIP3   OH235941   3.653   5.876   1.723  0.0772  0.6800  0.4989
 4769TIP3    H135942   3.579   5.901   1.778  0.3188  0.3273  0.9948
 4769TIP3    H235943   3.728   5.922   1.762 -0.0047  1.7256 -0.5105
 4770TIP3   OH235944   5.429   0.084   0.325 -0.1504  0.1887  0.1467
 4770TIP3    H135945   5.386   0.003   0.296  0.2996 -0.5570  1.4947
 4770TIP3    H235946   5.460   0.125   0.244 -0.3149 -1.0273 -0.5534
 4771TIP3   OH235947   4.700   5.169   7.629 -0.4573 -0.0277  0.0531
 4771TIP3    H135948   4.642   5.096   7.647 -0.8694  0.5991  1.4301
 4771TIP3    H235949   4.749   5.182   7.710 -0.3082  1.1371 -0.1926
 4772TIP3   OH235950   5.878   0.185   1.325 -0.3214 -0.0843  0.0564
 4772TIP3    H135951   5.945   0.214   1.262 -2.1891 -0.4523 -2.2265
 4772TIP3    H235952   5.910   0.217   1.409  3.2315 -1.0596 -0.7069
 4773TIP3   OH235953   6.232   1.466   7.946 -0.0463  0.1753  0.7066
 4773TIP3    H135954   6.147   1.506   7.960  0.3256  0.4186  2.5525
 4773TIP3    H235955   6.292   1.540   7.934 -0.0704  0.0066 -0.5909
 4774TIP3   OH235956   5.932   0.287   8.640 -0.9687 -0.0839  0.1961
 4774TIP3    H135957   5.900   0.361   8.691  1.0675 -0.5285  2.3229
 4774TIP3    H235958   5.917   0.312   8.548 -2.3664  1.9419  0.9171
 4775TIP3   OH235959   0.091   0.828   0.952  0.6545  0.7073 -0.0589
 4775TIP3    H135960   0.050   0.843   1.037 -1.8468  0.3695 -1.1184
 4775TIP3    H235961   0.087   0.914   0.909 -2.7709 -0.0516 -1.6324
 4776TIP3   OH235962   2.855   1.913   8.178 -0.0365 -0.9157  0.2129
 4776TIP3    H135963   2.838   1.860   8.256  0.3688 -3.1372 -1.1122
 4776TIP3    H235964   2.780   1.897   8.121  0.4688 -0.6702 -0.5337
 4777TIP3   OH235965   0.600   5.860   6.782 -0.5271 -0.0956 -0.1767
 4777TIP3    H135966   0.632   5.797   6.718 -0.8819 -0.6685  0.1921
 4777TIP3    H235967   0.573   5.936   6.731 -1.7877 -0.9467 -0.8164
 4778TIP3   OH235968   4.566   1.959   8.556 -0.1548  0.5441  0.1494
 4778TIP3    H135969   4.597   1.879   8.514 -0.5499  0.4285  0.0787
 4778TIP3    H235970   4.640   2.020   8.547  0.3350  0.0320  0.6498
 4779TIP3   OH235971   3.377   3.514   1.641  0.5179 -0.4491 -0.6381
 4779TIP3    H135972   3.398   3.579   1.708 -0.5016 -0.3058 -0.4448
 4779TIP3    H235973   3.338   3.565   1.570  0.4910 -0.7433 -0.8352
 4780TIP3   OH235974   1.691   1.123   0.115  0.0680 -0.3052 -0.2356
 4780TIP3    H135975   1.740   1.041   0.117  1.8028  0.6808  0.3144
 4780TIP3    H235976   1.753   1.187   0.080 -1.1965  0.8047 -0.5454
 4781TIP3   OH235977   3.241   3.937   0.543 -0.3462 -0.2422  0.1828
 4781TIP3    H135978   3.268   3.968   0.456  1.3604 -2.4798 -0.1420
 4781TIP3    H235979   3.184   3.862   0.525 -1.5413  0.4169  1.0210
 4782TIP3   OH235980   1.214   6.104   6.988  0.0186 -0.1715  0.2522
 4782TIP3    H135981   1.166   6.054   6.922 -0.6299  1.3025 -0.4284
 4782TIP3    H235982   1.299   6.121   6.948 -0.2386  0.3954 -0.0650
 4783TIP3   OH235983   1.537   4.557   8.339  0.2678 -0.1846  0.5692
 4783TIP3    H135984   1.563   4.471   8.307  0.3210 -0.0119  0.1520
 4783TIP3    H235985   1.547   4.551   8.434  0.5914 -0.5312  0.5139
 4784TIP3   OH235986   6.500   0.718   8.433  0.3062 -0.1700 -0.1241
 4784TIP3    H135987   6.533   0.743   8.347  0.5880 -1.4387 -0.4037
 4784TIP3    H235988   6.477   0.801   8.475  1.4512  0.5633 -0.8921
 4785TIP3   OH235989   1.078   5.687   0.435 -0.2460 -0.1280 -0.0676
 4785TIP3    H135990   1.094   5.729   0.519 -0.2682  0.1496 -0.2005
 4785TIP3    H235991   1.165   5.662   0.404 -0.3470 -1.4818  0.6711
 4786TIP3   OH235992   0.068   5.037   7.865  0.3020  0.7440 -0.2728
 4786TIP3    H135993   0.001   5.104   7.875 -1.2037 -0.8117  0.4230
 4786TIP3    H235994   0.097   5.047   7.774 -1.9909  0.4688 -1.1056
 4787TIP3   OH235995   6.173   6.226   0.178 -0.5375  0.0566  0.4681
 4787TIP3    H135996   6.213   6.241   0.092 -2.0709  0.7609 -0.1675
 4787TIP3    H235997   6.245   6.196   0.233  0.2614 -1.5996 -1.3704
 4788TIP3   OH235998   2.051   4.784   0.276 -0.1412 -0.1794 -0.7458
 4788TIP3    H135999   2.127   4.833   0.245  0.3604 -0.6784 -0.3307
 4788TIP3    H236000   2.019   4.833   0.351  1.0296 -1.0542  0.3529
 4789TIP3   OH236001   5.503   4.285   7.847 -0.3025 -0.3035  0.5347
 4789TIP3    H136002   5.527   4.283   7.755 -1.7854 -2.3256  0.1226
 4789TIP3    H236003   5.411   4.312   7.848  0.1898  1.5362  1.6083
 4790TIP3   OH236004   2.929   5.055   0.130 -0.3481 -0.0049 -0.4402
 4790TIP3    H136005   2.911   4.961   0.128  4.0379 -1.0240 -1.7626
 4790TIP3    H236006   2.987   5.068   0.204  0.0458  1.4442 -0.9518
 4791TIP3   OH236007   0.768   3.909   2.830  0.0774 -0.3009  0.3426
 4791TIP3    H136008   0.698   3.960   2.871  0.8473 -0.6242  2.1699
 4791TIP3    H236009   0.833   3.975   2.805 -1.4013  0.1794 -2.7332
 4792TIP3   OH236010   4.143   1.831   3.370 -0.0735  0.4049  0.0423
 4792TIP3    H136011   4.222   1.878   3.398  0.7123 -0.6689 -0.2950
 4792TIP3    H236012   4.101   1.891   3.308  2.5923 -0.4824 -2.9238
 4793TIP3   OH236013   2.490   0.943   7.895 -0.4685 -0.0556 -0.0806
 4793TIP3    H136014   2.398   0.940   7.869 -0.2409  1.2234 -1.1180
 4793TIP3    H236015   2.538   0.925   7.814  0.2311  1.9793 -0.1565
 4794TIP3   OH236016   5.325   5.929   0.497 -0.2317  0.4581 -0.0522
 4794TIP3    H136017   5.319   5.980   0.417  0.0506  0.4238 -0.0951
 4794TIP3    H236018   5.247   5.955   0.548 -1.3504 -0.7922 -1.0598
 4795TIP3   OH236019   5.541   1.702   8.012 -0.6089 -0.0132 -0.1448
 4795TIP3    H136020   5.562   1.765   8.081 -0.1171 -1.0335  0.6707
 4795TIP3    H236021   5.532   1.755   7.933 -0.0482  1.0572  0.4817
 4796TIP3   OH236022   3.800   0.985   0.642  0.0751  0.2057  0.3069
 4796TIP3    H136023   3.723   0.930   0.629 -0.7989  1.0692  1.6029
 4796TIP3    H236024   3.835   0.957   0.726 -1.0540  2.3159  1.5681
 4797TIP3   OH236025   1.087   2.033   2.760 -0.9328 -0.6281  0.5362
 4797TIP3    H136026   1.045   1.972   2.820 -2.7650  0.0999  0.0901
 4797TIP3    H236027   1.060   2.004   2.673  0.3554 -0.7142  0.1432
 4798TIP3   OH236028   5.934   5.861   2.824  0.5887 -0.1672  0.1723
 4798TIP3    H136029   5.892   5.795   2.880  0.8558 -1.8896 -1.5485
 4798TIP3    H236030   5.862   5.909   2.785  0.2404 -1.5925 -1.0033
 4799TIP3   OH236031   0.823   1.695   8.813 -0.2425  0.5263 -0.4113
 4799TIP3    H136032   0.892   1.682   8.747  0.1303 -2.4362  0.4216
 4799TIP3    H236033   0.741   1.680   8.765 -0.0713  0.0351 -0.5584
 4800TIP3   OH236034   4.797   5.377   8.737 -0.3599 -0.4951 -0.1729
 4800TIP3    H136035   4.867   5.409   8.793  2.5795  0.2039 -3.8582
 4800TIP3    H236036   4.809   5.282   8.733 -1.6999 -0.7980  1.5637
 4801TIP3   OH236037   4.459   6.136   1.680 -0.5009  0.1613 -0.1199
 4801TIP3    H136038   4.380   6.106   1.636 -0.2364  0.0471 -0.5302
 4801TIP3    H236039   4.461   6.088   1.762 -1.6577  1.2982  0.5950
 4802TIP3   OH236040   0.100   6.057   0.692  0.5919 -1.0142 -0.1353
 4802TIP3    H136041   0.054   5.979   0.662  0.7807 -1.4205  0.6006
 4802TIP3    H236042   0.041   6.130   0.670 -1.0615 -1.6185  1.9455
 4803TIP3   OH236043   2.962   0.553   2.322  0.1331 -0.1961 -0.4674
 4803TIP3    H136044   2.981   0.646   2.338 -0.5582 -0.2256  0.6536
 4803TIP3    H236045   2.993   0.509   2.402 -2.3581 -0.5206  0.3986
 4804TIP3   OH236046   5.864   3.406   1.840  0.2110  0.0522 -0.2467
 4804TIP3    H136047   5.810   3.416   1.919  1.3509 -1.1283  0.7062
 4804TIP3    H236048   5.800   3.400   1.769 -0.9537 -1.4529  0.8615
 4805TIP3   OH236049   1.206   4.485   8.801  0.2813  0.6085  0.1741
 4805TIP3    H136050   1.128   4.501   8.853  0.2708 -0.7277  0.6194
 4805TIP3    H236051   1.175   4.435   8.725  0.8087 -0.8437  0.8753
 4806TIP3   OH236052   6.438   5.009   8.295 -0.0110  0.2374  0.2101
 4806TIP3    H136053   6.448   4.935   8.236  0.4966  0.8837 -0.5274
 4806TIP3    H236054   6.484   5.081   8.252 -0.1446  0.8789  1.1066
 4807TIP3   OH236055   1.140   3.513   0.230  0.3313 -0.2660 -0.6190
 4807TIP3    H136056   1.085   3.435   0.235 -0.5138  0.2759 -1.0779
 4807TIP3    H236057   1.138   3.537   0.137 -1.9544  2.0298 -0.0976
 4808TIP3   OH236058   6.501   4.325   1.102  0.1604  0.0035  0.6533
 4808TIP3    H136059   6.502   4.256   1.169  1.6919 -0.3770  0.2863
 4808TIP3    H236060   6.415   4.366   1.111 -0.1071 -0.7861  2.0826
 4809TIP3   OH236061   4.692   3.274   1.153  0.1682 -0.6984 -0.4407
 4809TIP3    H136062   4.628   3.319   1.208  1.4308  0.2543  0.3179
 4809TIP3    H236063   4.668   3.299   1.064  0.4528  1.0295 -0.0687
 4810TIP3   OH236064   4.659   0.057   8.394  0.1510 -0.3732 -0.4948
 4810TIP3    H136065   4.684   0.102   8.475 -1.0526  1.3341 -0.9963
 4810TIP3    H236066   4.607  -0.018   8.424  0.5466 -0.3249  0.3446
 4811TIP3   OH236067   3.736   2.296   8.965  0.5549 -0.1861  0.2083
 4811TIP3    H136068   3.691   2.371   9.002 -0.1857 -0.4005 -0.2217
 4811TIP3    H236069   3.669   2.227   8.961  0.4867 -0.0599 -1.8263
 4812TIP3   OH236070   3.562   1.946   8.484  0.1461 -0.0857 -0.2325
 4812TIP3    H136071   3.605   1.910   8.562  0.3329 -0.7336 -0.6271
 4812TIP3    H236072   3.474   1.909   8.486  0.6985 -1.5227 -1.2560
 4813TIP3   OH236073   5.018   1.474   2.326  0.1026 -0.2438 -0.3011
 4813TIP3    H136074   4.972   1.471   2.410  0.9724  1.1501  0.2477
 4813TIP3    H236075   5.018   1.383   2.296 -0.2604 -0.7657  1.1883
 4814TIP3   OH236076   3.667   0.301   1.981  0.1067 -0.3805  0.2911
 4814TIP3    H136077   3.666   0.322   2.075 -1.6595 -0.2507  0.2790
 4814TIP3    H236078   3.619   0.373   1.940 -0.6470 -1.3074 -0.4941
 4815TIP3   OH236079   4.190   5.310   8.831 -0.3196  0.6052  0.4093
 4815TIP3    H136080   4.100   5.279   8.837 -0.1901  0.1174 -0.0654
 4815TIP3    H236081   4.207   5.351   8.916 -1.3435  1.6996  0.1154
 4816TIP3   OH236082   2.940   6.003   2.889  0.1035 -0.5036  0.0134
 4816TIP3    H136083   2.876   6.024   2.821 -2.5000 -1.7286  1.9065
 4816TIP3    H236084   2.913   6.056   2.964  1.3782 -0.9899  0.8499
 4817TIP3   OH236085   5.300   4.883   1.093  0.2897  0.4664  0.6981
 4817TIP3    H136086   5.322   4.790   1.095 -2.8669 -0.4100  0.5853
 4817TIP3    H236087   5.332   4.913   1.008 -0.3684 -1.0521 -0.1235
 4818TIP3   OH236088   5.367   2.821   0.755  0.3459 -0.3142 -0.6106
 4818TIP3    H136089   5.333   2.858   0.673  0.5952 -1.5269 -1.2826
 4818TIP3    H236090   5.460   2.844   0.755  0.2538  0.0674 -0.4441
 4819TIP3   OH236091   5.687   2.760   0.341 -0.8092 -0.6745  0.4454
 4819TIP3    H136092   5.603   2.779   0.384 -1.5540  0.0976 -1.2429
 4819TIP3    H236093   5.748   2.824   0.377 -1.7271  0.7865 -0.4707
 4820TIP3   OH236094   0.392   4.462   2.617 -0.2143  0.5398 -0.3316
 4820TIP3    H136095   0.414   4.528   2.550 -0.2080  0.1198 -0.7505
 4820TIP3    H236096   0.355   4.389   2.567  4.2062 -1.8952 -0.5254
 4821TIP3   OH236097   2.625   2.844   9.209  0.1035  0.7417  0.0085
 4821TIP3    H136098   2.589   2.846   9.298  1.3039 -1.4520  0.6108
 4821TIP3    H236099   2.707   2.893   9.215  0.4776  0.0907  0.2695
 4822TIP3   OH236100   0.401   5.151   7.304 -0.2645 -0.3244  0.1604
 4822TIP3    H136101   0.477   5.152   7.245  0.6474 -0.0078  1.3005
 4822TIP3    H236102   0.326   5.169   7.247  0.4081 -1.3819 -1.1133
 4823TIP3   OH236103   1.941   1.958   1.638 -0.3483 -0.8554  0.2717
 4823TIP3    H136104   1.907   2.034   1.685 -1.1411 -0.4710 -0.8846
 4823TIP3    H236105   1.985   1.995   1.561 -0.7146 -1.5645 -0.2811
 4824TIP3   OH236106   2.701   6.198   9.157  0.7063 -0.2052  0.4386
 4824TIP3    H136107   2.713   6.168   9.067  0.0417  0.9065 -0.0381
 4824TIP3    H236108   2.789   6.202   9.193  1.3918  2.4494 -1.2224
 4825TIP3   OH236109   5.999   2.213   0.296 -0.7039  0.3920  0.1240
 4825TIP3    H136110   5.952   2.212   0.379 -1.1268  1.3500 -0.0870
 4825TIP3    H236111   5.933   2.189   0.231 -0.5717  0.4167 -0.0195
 4826TIP3   OH236112   3.154   1.141   0.497 -0.6842  0.2181  0.4874
 4826TIP3    H136113   3.059   1.139   0.511 -0.5228  0.6006  1.7071
 4826TIP3    H236114   3.164   1.178   0.409 -1.6052  2.0825  1.1212
 4827TIP3   OH236115   0.665   2.783   1.851 -0.3120 -0.2167 -0.6703
 4827TIP3    H136116   0.671   2.703   1.799  1.3817  0.5148 -1.6951
 4827TIP3    H236117   0.757   2.807   1.867 -0.7996  1.0419  0.3838
 4828TIP3   OH236118   0.047   3.081   8.720 -0.4685  0.9942 -0.2437
 4828TIP3    H136119  -0.021   3.125   8.669  0.1910  1.9838 -0.3020
 4828TIP3    H236120   0.130   3.112   8.682  0.0215  0.5981  0.4668
 4829TIP3   OH236121   3.313   2.937   2.366  0.2990  0.0893 -0.2242
 4829TIP3    H136122   3.235   2.992   2.360  0.6715  0.5912 -0.6506
 4829TIP3    H236123   3.287   2.864   2.422 -0.8067 -0.3172 -1.2023
 4830TIP3   OH236124   2.055   3.454   8.694  0.6293 -0.2056  0.0514
 4830TIP3    H136125   1.990   3.408   8.749 -1.8182 -0.1602 -2.5721
 4830TIP3    H236126   2.115   3.385   8.665  1.4162 -0.3803  1.9232
 4831TIP3   OH236127   5.023   6.648   0.585 -0.2042  0.2568 -0.1965
 4831TIP3    H136128   4.985   6.598   0.513  0.7080 -1.3884  0.4261
 4831TIP3    H236129   5.102   6.687   0.549  0.2271 -0.5274 -0.0978
 4832TIP3   OH236130   6.112   5.345   8.386 -0.7112 -0.1142 -0.0829
 4832TIP3    H136131   6.112   5.331   8.480 -2.2276 -1.0333 -0.1863
 4832TIP3    H236132   6.161   5.426   8.374 -0.4275 -0.0255  1.4839
 4833TIP3   OH236133   0.359   0.017   7.879  0.0237 -0.0477  0.3653
 4833TIP3    H136134   0.422   0.029   7.808  0.1767 -0.0966  0.4922
 4833TIP3    H236135   0.387   0.080   7.946 -0.9880  1.0578 -0.2005
 4834TIP3   OH236136   2.339   3.468   8.154  0.9885  0.0765  0.4809
 4834TIP3    H136137   2.266   3.503   8.205  2.2755  2.3340  0.8993
 4834TIP3    H236138   2.357   3.382   8.193 -1.2792 -0.4645  0.4728
 4835TIP3   OH236139   4.241   1.472   0.822  0.9250  0.0889 -0.3579
 4835TIP3    H136140   4.327   1.513   0.822  0.1964  1.7142  0.5003
 4835TIP3    H236141   4.190   1.522   0.758  0.3247 -0.1923 -0.1162
 4836TIP3   OH236142   3.356   0.498   0.179  0.1073 -0.1102  0.5776
 4836TIP3    H136143   3.438   0.505   0.129 -0.3983 -2.3047 -0.6752
 4836TIP3    H236144   3.300   0.441   0.126 -0.8031 -1.8771  3.2284
 4837TIP3   OH236145   5.684   3.484   7.488  0.4524 -0.5582 -0.3409
 4837TIP3    H136146   5.711   3.441   7.407 -0.4705 -1.5730 -0.1376
 4837TIP3    H236147   5.590   3.470   7.493  0.1643  1.2520 -0.0899
 4838TIP3   OH236148   2.237   2.174   1.486  0.0353  0.0159  0.6749
 4838TIP3    H136149   2.327   2.163   1.456  0.5145 -0.6389  2.2304
 4838TIP3    H236150   2.191   2.097   1.453 -0.9858  2.0198 -3.2769
 4839TIP3   OH236151   4.613   2.951   3.038  0.0143 -0.4414 -0.1765
 4839TIP3    H136152   4.678   2.882   3.026  1.6583  0.7363  1.4015
 4839TIP3    H236153   4.534   2.917   2.995  1.1890 -2.6079 -0.7855
 4840TIP3   OH236154   0.653   4.209   7.382  0.1689 -0.1789 -0.2892
 4840TIP3    H136155   0.744   4.193   7.357  0.8682 -0.7584  2.3179
 4840TIP3    H236156   0.611   4.123   7.375  0.3577 -0.3343  0.3246
 4841TIP3   OH236157   1.822   4.921   7.352  0.2609 -0.3466  0.1880
 4841TIP3    H136158   1.832   4.921   7.447  0.1673  2.4949  0.2847
 4841TIP3    H236159   1.908   4.896   7.319 -0.1525 -3.0715  0.9363
 4842TIP3   OH236160   2.350   3.896   7.129 -0.4741 -0.0675  0.1275
 4842TIP3    H136161   2.275   3.843   7.102  1.4377 -2.1299 -1.6251
 4842TIP3    H236162   2.395   3.842   7.195  0.5130  0.1834 -0.3180
 4843TIP3   OH236163   2.409   5.771   7.600  0.3119 -0.1048  0.8120
 4843TIP3    H136164   2.433   5.698   7.543  1.9474  1.1737 -0.2360
 4843TIP3    H236165   2.478   5.836   7.586 -1.7736  2.2356  0.6556
 4844TIP3   OH236166   3.171   2.999   1.629 -0.1580 -0.3959 -0.2566
 4844TIP3    H136167   3.194   2.908   1.645  0.0379 -0.5106 -1.1833
 4844TIP3    H236168   3.150   3.003   1.536 -0.2130  0.4949 -0.2127
 4845TIP3   OH236169   3.031   0.577   3.566  0.3153  0.4722 -0.1201
 4845TIP3    H136170   3.075   0.512   3.510  1.4756 -0.0488  1.3232
 4845TIP3    H236171   3.101   0.638   3.591  0.4845 -0.7883  2.8385
 4846TIP3   OH236172   4.494   2.915   0.674  0.1289  0.8754  0.1824
 4846TIP3    H136173   4.479   2.885   0.584 -0.6923 -0.6981  0.8079
 4846TIP3    H236174   4.585   2.892   0.692 -0.1643 -0.2447  0.2718
 4847TIP3   OH236175   6.605   5.635   0.544  0.0108  0.2626  0.3163
 4847TIP3    H136176   6.633   5.723   0.569  1.4183 -0.2388  0.6485
 4847TIP3    H236177   6.515   5.645   0.514 -0.4003  1.5448  1.8752
 4848TIP3   OH236178   0.514   5.008   9.142 -0.3206 -0.0797  0.2216
 4848TIP3    H136179   0.462   5.017   9.062 -0.4156 -0.0950  0.2822
 4848TIP3    H236180   0.582   4.945   9.119  1.5065  2.1054 -0.8208
 4849TIP3   OH236181   0.641   1.615   7.724  0.3240  0.0414  0.7065
 4849TIP3    H136182   0.709   1.672   7.762 -0.3803  1.2363  0.2212
 4849TIP3    H236183   0.686   1.570   7.652  0.4474  1.4266 -0.1343
 4850TIP3   OH236184   2.470   1.523   2.639 -0.0554  0.8964  0.1239
 4850TIP3    H136185   2.423   1.591   2.592  0.3192  1.2130  0.2015
 4850TIP3    H236186   2.449   1.539   2.731 -0.3872  0.5824  0.1065
 4851TIP3   OH236187   0.577   5.747   1.050  0.3238  0.0855 -0.2615
 4851TIP3    H136188   0.519   5.673   1.031  1.0728 -0.3881 -0.7469
 4851TIP3    H236189   0.608   5.776   0.964 -0.1138  1.0996 -0.0977
 4852TIP3   OH236190   3.379   5.256   0.011  0.1626  0.5874  0.6481
 4852TIP3    H136191   3.315   5.311   0.056 -0.0721  1.5383 -0.7801
 4852TIP3    H236192   3.351   5.256  -0.081  1.4119 -0.1366  0.2352
 4853TIP3   OH236193   2.273   0.694   2.879 -0.4677  0.3657  0.2524
 4853TIP3    H136194   2.264   0.725   2.789 -2.0183  1.0849  0.6206
 4853TIP3    H236195   2.354   0.642   2.879  0.0670  1.1432 -1.3160
 4854TIP3   OH236196   2.840   1.021   0.953  0.4249 -0.2236 -0.4825
 4854TIP3    H136197   2.751   0.989   0.938  0.3258  0.5108 -1.5033
 4854TIP3    H236198   2.834   1.070   1.035 -0.5943  1.5281 -1.5443
 4855TIP3   OH236199   2.336   5.606   0.145  0.4801 -0.1760  0.0065
 4855TIP3    H136200   2.404   5.645   0.091 -0.3888  2.1007  0.4393
 4855TIP3    H236201   2.256   5.612   0.092 -0.1792  1.1617  1.0603
 4856TIP3   OH236202   0.342   0.523   7.070 -0.6427 -0.2483 -0.0131
 4856TIP3    H136203   0.410   0.487   7.127 -1.9424 -2.4676  0.2433
 4856TIP3    H236204   0.331   0.613   7.100  1.2152 -0.2483  0.8246
 4857TIP3   OH236205   6.148   0.489   0.717  0.1359  0.2997 -0.5093
 4857TIP3    H136206   6.061   0.527   0.732  0.8803  1.8414  0.0765
 4857TIP3    H236207   6.142   0.450   0.630 -1.3798 -0.3674 -0.1502
 4858TIP3   OH236208   2.061   4.293   2.245 -0.5121  0.5031  0.1054
 4858TIP3    H136209   2.052   4.388   2.237  2.2452  0.9355  1.1330
 4858TIP3    H236210   2.055   4.275   2.339  0.0152 -0.1812  0.0203
 4859TIP3   OH236211   0.071   3.949   0.078  0.0861  0.0736  0.1439
 4859TIP3    H136212  -0.023   3.944   0.063 -0.2864 -0.0361  2.1703
 4859TIP3    H236213   0.093   3.868   0.123  0.8774  0.6800  0.8943
 4860TIP3   OH236214   6.411   5.934   1.492 -0.2763  0.1731 -0.3982
 4860TIP3    H136215   6.446   5.846   1.501 -0.5878  0.1803  1.0887
 4860TIP3    H236216   6.332   5.934   1.545  0.1579  1.5824  0.2907
 4861TIP3   OH236217   4.845   2.589   0.766  0.0627 -0.0438  0.9324
 4861TIP3    H136218   4.940   2.584   0.758  0.0888  0.1912  1.0947
 4861TIP3    H236219   4.823   2.680   0.745 -0.4249 -0.7267 -2.0127
 4862TIP3   OH236220   3.589   1.708   8.769 -0.3863  0.2501 -0.3015
 4862TIP3    H136221   3.637   1.680   8.847 -2.2371  1.9688  1.5916
 4862TIP3    H236222   3.657   1.739   8.709  1.0779 -0.7693  0.7664
 4863TIP3   OH236223   0.550   4.761   8.500 -0.5216 -0.0208 -0.2676
 4863TIP3    H136224   0.622   4.824   8.512 -0.6531  0.0787  0.0119
 4863TIP3    H236225   0.525   4.771   8.409  0.0053 -0.2537 -0.4403
 4864TIP3   OH236226   6.502   4.452   8.167 -0.1440 -0.0560  0.1959
 4864TIP3    H136227   6.567   4.382   8.158 -0.4787 -0.8911  3.2687
 4864TIP3    H236228   6.441   4.437   8.094  1.4333 -1.0939 -0.9673
 4865TIP3   OH236229   6.558   0.899   8.693  0.3308 -0.2780  0.4601
 4865TIP3    H136230   6.635   0.850   8.723  2.1580  2.3842  0.5005
 4865TIP3    H236231   6.549   0.970   8.756 -2.5417 -0.7689  0.7151
 4866TIP3   OH236232   6.646   4.876   8.593  0.5716 -0.5510  0.0456
 4866TIP3    H136233   6.619   4.907   8.679 -0.5138 -2.6383  0.5352
 4866TIP3    H236234   6.590   4.923   8.531  0.4908  0.0502  0.5696
 4867TIP3   OH236235   2.352   1.946   8.670 -0.1324 -0.2839 -0.3133
 4867TIP3    H136236   2.313   2.011   8.612  2.7884  1.1961 -0.8377
 4867TIP3    H236237   2.400   1.887   8.611  0.3969 -0.5757  0.3880
 4868TIP3   OH236238   5.215   6.539   1.344  0.7213  0.2389 -0.3622
 4868TIP3    H136239   5.230   6.631   1.322 -0.7999  1.5724  3.2975
 4868TIP3    H236240   5.294   6.512   1.390  0.2299  0.5563  0.7006
 4869TIP3   OH236241   5.287   1.918   0.636  0.2715 -0.4158 -0.1786
 4869TIP3    H136242   5.310   2.001   0.676  1.3348  0.2085 -1.9728
 4869TIP3    H236243   5.255   1.864   0.708  0.9766  1.0303  1.2653
 4870TIP3   OH236244   3.306   5.668   0.850  0.4247  0.2914  0.5967
 4870TIP3    H136245   3.382   5.609   0.848  0.1302 -0.0867  0.5302
 4870TIP3    H236246   3.232   5.613   0.825  0.1696  0.7256  0.3961
 4871TIP3   OH236247   6.305   3.284   0.670 -0.7011 -0.3699 -0.0935
 4871TIP3    H136248   6.360   3.245   0.602 -0.5629 -0.7336  0.2210
 4871TIP3    H236249   6.271   3.364   0.631 -0.3718 -0.4172 -0.4788
 4872TIP3   OH236250   4.030   0.034   2.426 -0.5824  0.8069 -0.0974
 4872TIP3    H136251   4.125   0.025   2.437 -0.3779  0.4258 -1.8806
 4872TIP3    H236252   4.004   0.094   2.495  1.3937  3.0660 -1.1579
 4873TIP3   OH236253   2.129   5.844   1.397  0.0352  0.1908  0.1709
 4873TIP3    H136254   2.156   5.863   1.486  1.6426  1.0481 -0.4679
 4873TIP3    H236255   2.145   5.750   1.386 -0.1953  0.0765  0.7772
 4874TIP3   OH236256   0.153   1.906   1.624 -0.2546  0.0975  0.1962
 4874TIP3    H136257   0.123   1.951   1.546 -1.2066  1.1489  1.1302
 4874TIP3    H236258   0.074   1.873   1.666  0.1711  0.1184  1.0536
 4875TIP3   OH236259   3.651   0.449   8.404  0.0649 -0.1137  0.5630
 4875TIP3    H136260   3.700   0.447   8.486 -2.3503  1.6231  2.1999
 4875TIP3    H236261   3.565   0.413   8.428 -0.7845  0.7128 -1.1398
 4876TIP3   OH236262   3.083   0.264   7.468  0.3111  0.2492 -0.5057
 4876TIP3    H136263   3.058   0.249   7.559  0.2253 -1.2594 -0.7387
 4876TIP3    H236264   3.010   0.228   7.417  0.9473 -0.1474 -1.1638
 4877TIP3   OH236265   4.632   3.266   8.036 -0.1009  0.1733 -0.0247
 4877TIP3    H136266   4.588   3.246   8.119  1.8579 -1.1189  0.7827
 4877TIP3    H236267   4.564   3.257   7.970 -0.9207 -2.5882  1.0677
 4878TIP3   OH236268   3.400   3.783   8.497  0.5602 -0.1099  1.0087
 4878TIP3    H136269   3.491   3.753   8.507  0.6722 -0.2551 -0.2881
 4878TIP3    H236270   3.389   3.795   8.403  0.2211  3.0169  1.3244
 4879TIP3   OH236271   4.754   3.040   1.796  0.1460  0.3681 -0.5625
 4879TIP3    H136272   4.779   3.132   1.784  1.6256  0.3745  1.7682
 4879TIP3    H236273   4.659   3.040   1.789  0.0734  2.1698 -0.1720
 4880TIP3   OH236274   0.367   2.705   8.505  0.2959 -0.1232  0.4635
 4880TIP3    H136275   0.434   2.755   8.459  2.6385 -1.8974  1.6865
 4880TIP3    H236276   0.309   2.771   8.543  1.6476  1.5206 -0.2291
 4881TIP3   OH236277   1.367   3.040   3.011 -0.0614  0.0418 -0.4967
 4881TIP3    H136278   1.383   3.085   3.094  2.2693 -2.3813  0.5056
 4881TIP3    H236279   1.298   2.976   3.032  0.0325 -0.1000 -0.6207
 4882TIP3   OH236280   4.001   2.984   0.583 -0.1929  0.3033  0.1177
 4882TIP3    H136281   3.939   3.038   0.631 -2.2286 -1.8727  0.1113
 4882TIP3    H236282   3.951   2.949   0.509  0.9787 -1.6048  0.1456
 4883TIP3   OH236283   4.167   6.631   2.163 -0.2645  0.1750 -0.7728
 4883TIP3    H136284   4.165   6.723   2.191  0.5229  0.6507 -2.1952
 4883TIP3    H236285   4.113   6.629   2.084 -0.0120 -0.5158 -0.9337
 4884TIP3   OH236286   0.565   3.843   0.557  0.3601 -0.2288 -0.3303
 4884TIP3    H136287   0.597   3.753   0.563  0.3617 -0.1309  1.6156
 4884TIP3    H236288   0.479   3.835   0.516  0.2257 -1.1575  0.1138
 4885TIP3   OH236289   5.361   0.265   8.765  0.2946  0.4917 -0.0137
 4885TIP3    H136290   5.341   0.339   8.822 -1.3299 -0.6416  1.0075
 4885TIP3    H236291   5.327   0.291   8.679 -0.5941  0.8160  0.4160
 4886TIP3   OH236292   4.947   3.513   2.736 -0.6952  0.1814 -0.3129
 4886TIP3    H136293   4.965   3.522   2.642 -2.4382  1.6218 -0.5617
 4886TIP3    H236294   4.885   3.440   2.741 -1.0798  0.4988 -0.3692
 4887TIP3   OH236295   3.500   6.299   1.948 -0.4611 -0.3472 -0.4749
 4887TIP3    H136296   3.519   6.353   2.024  1.8036 -2.2118  0.4282
 4887TIP3    H236297   3.586   6.269   1.918 -1.4672 -1.8240 -2.0994
 4888TIP3   OH236298   3.719   3.436   1.746  0.3735 -0.1378  0.0930
 4888TIP3    H136299   3.639   3.480   1.719 -0.0548  0.9451  2.8122
 4888TIP3    H236300   3.692   3.346   1.765  0.0080 -0.0248  0.1089
 4889TIP3   OH236301   3.774   2.953   1.538 -0.0267 -0.3493  0.1721
 4889TIP3    H136302   3.864   2.927   1.524  1.1565  2.7353  1.0705
 4889TIP3    H236303   3.770   2.977   1.631 -2.0095 -1.1885  0.3501
 4890TIP3   OH236304   2.840   0.181   7.268 -0.1855  0.5517 -0.0361
 4890TIP3    H136305   2.864   0.095   7.235  0.0296 -0.6991  3.0424
 4890TIP3    H236306   2.757   0.167   7.315  0.4968  1.6975  1.6161
 4891TIP3   OH236307   4.471   6.263   1.310 -0.0369 -0.0322 -0.4578
 4891TIP3    H136308   4.465   6.220   1.225  0.4708 -2.2225  0.5096
 4891TIP3    H236309   4.396   6.230   1.359 -0.1471  0.9418  0.0578
 4892TIP3   OH236310   6.466   6.541   8.977 -0.2829 -0.5592  0.1709
 4892TIP3    H136311   6.458   6.447   8.994 -1.6687 -0.3780  0.6109
 4892TIP3    H236312   6.555   6.563   9.006 -0.5939 -1.3773  1.8332
 4893TIP3   OH236313   3.285   2.710   7.261 -0.1659 -0.4617  0.1876
 4893TIP3    H136314   3.334   2.793   7.259  0.8626 -0.9367  2.4351
 4893TIP3    H236315   3.351   2.645   7.285 -1.5018 -1.4934  1.1367
 4894TIP3   OH236316   0.627   1.691   1.086 -0.1966  0.0334  0.1026
 4894TIP3    H136317   0.539   1.685   1.123  1.2592 -0.1229  4.0699
 4894TIP3    H236318   0.648   1.784   1.088  0.1287 -0.0408  0.2821
 4895TIP3   OH236319   2.180   4.659   1.448  0.1490 -0.2562  0.0886
 4895TIP3    H136320   2.117   4.725   1.416  1.1569  0.3938 -0.6109
 4895TIP3    H236321   2.185   4.675   1.542 -1.3668 -0.8832  0.3007
 4896TIP3   OH236322   2.898   4.471   9.015  0.2744 -0.0032 -0.1197
 4896TIP3    H136323   2.911   4.403   8.949 -2.3299 -1.9966  1.2698
 4896TIP3    H236324   2.832   4.529   8.978  0.0118 -0.1802  0.0707
 4897TIP3   OH236325   3.146   0.790   1.589 -0.1334 -0.3331 -0.1969
 4897TIP3    H136326   3.182   0.875   1.616 -0.9584 -0.0513  0.0474
 4897TIP3    H236327   3.216   0.749   1.538 -0.1784  1.0571 -1.4501
 4898TIP3   OH236328   2.121   5.920   2.637 -0.4966  0.2340 -0.2028
 4898TIP3    H136329   2.197   5.902   2.692 -0.2658  0.5460 -0.4183
 4898TIP3    H236330   2.046   5.906   2.694 -0.3184 -1.1137 -0.2741
 4899TIP3   OH236331   5.554   4.132   7.282 -0.3911 -0.6103  0.0261
 4899TIP3    H136332   5.462   4.155   7.288  0.4027  2.9702  1.1750
 4899TIP3    H236333   5.579   4.152   7.192 -0.3111  0.5798  0.2962
 4900TIP3   OH236334   4.986   0.655   0.828  0.0702 -0.1751  0.8129
 4900TIP3    H136335   5.046   0.729   0.835 -2.5305  2.1016  0.7321
 4900TIP3    H236336   4.935   0.657   0.909 -1.4296 -0.5545 -0.0845
 4901TIP3   OH236337   3.058   0.411   2.054  0.6524  0.2231  0.0708
 4901TIP3    H136338   3.108   0.371   2.125 -1.3786 -2.3997  0.1799
 4901TIP3    H236339   3.020   0.490   2.093  0.9222 -0.2700  1.3972
 4902TIP3   OH236340   2.505   2.872   1.369  0.3204 -0.6189 -0.2934
 4902TIP3    H136341   2.456   2.861   1.451 -0.1254 -0.0625 -0.4739
 4902TIP3    H236342   2.597   2.871   1.395  0.1768 -0.1402  0.2608
 4903TIP3   OH236343   6.664   0.787   8.233  0.4037 -0.3133  0.5021
 4903TIP3    H136344   6.728   0.856   8.213  0.8297 -0.8421  0.0137
 4903TIP3    H236345   6.682   0.718   8.170 -0.3611 -0.6651  0.6523
 4904TIP3   OH236346   0.331   4.963   8.365 -0.0115 -0.3293  0.0703
 4904TIP3    H136347   0.408   5.020   8.362 -0.6039  0.4580 -2.8374
 4904TIP3    H236348   0.355   4.886   8.315 -1.0333 -0.1379 -0.7504
 4905TIP3   OH236349   2.712   0.338   8.239  0.3225 -0.1767  0.2247
 4905TIP3    H136350   2.641   0.402   8.233  0.6631  0.2287  0.3832
 4905TIP3    H236351   2.792   0.392   8.235  0.6786 -0.7762 -2.1089
 4906TIP3   OH236352   5.298   2.719   1.953  0.5863  0.0392 -0.0914
 4906TIP3    H136353   5.259   2.727   1.866  1.5226  1.4669 -0.4179
 4906TIP3    H236354   5.382   2.676   1.937  0.8847  0.5599  0.0559
 4907TIP3   OH236355   0.005   6.208   2.051 -0.3207 -0.0885  0.0366
 4907TIP3    H136356  -0.043   6.286   2.079  2.0231  0.2787  3.5751
 4907TIP3    H236357  -0.032   6.137   2.104 -1.2143 -1.1265 -1.8765
 4908TIP3   OH236358   4.187   3.287   8.135  0.2397  0.3164  0.1431
 4908TIP3    H136359   4.202   3.353   8.067  0.1768 -0.7557 -0.9375
 4908TIP3    H236360   4.131   3.222   8.094  1.6624 -1.2886  0.6070
 4909TIP3   OH236361   6.164   0.364   8.415 -0.5633  0.2587  0.3546
 4909TIP3    H136362   6.208   0.449   8.409 -0.3657  0.1961  0.8650
 4909TIP3    H236363   6.070   0.386   8.414 -0.5675  0.3183 -1.7636
 4910TIP3   OH236364   3.235   6.683   8.650  0.3531  0.3531 -0.5469
 4910TIP3    H136365   3.221   6.749   8.583  1.6766 -0.4584 -1.6882
 4910TIP3    H236366   3.148   6.645   8.665  0.1873 -0.2203 -2.6581
 4911TIP3   OH236367   4.406   5.239   1.901  0.0023 -0.0993  0.0547
 4911TIP3    H136368   4.334   5.202   1.951  0.6419 -0.6786  0.5765
 4911TIP3    H236369   4.440   5.165   1.850 -0.4787  0.4233 -1.0598
 4912TIP3   OH236370   0.774   6.690   7.756 -0.5576 -0.3014  0.1032
 4912TIP3    H136371   0.767   6.612   7.812  1.7189 -0.3219  0.4592
 4912TIP3    H236372   0.694   6.688   7.703 -0.8939 -2.5120  0.5579
 4913TIP3   OH236373   0.621   5.362   1.157  0.3873  0.0482 -0.2919
 4913TIP3    H136374   0.625   5.270   1.181 -0.1605 -0.0563 -0.5904
 4913TIP3    H236375   0.561   5.401   1.220  1.9402  0.5615  0.9252
 4914TIP3   OH236376   4.908   4.577   1.985 -0.2998 -0.2944 -1.1017
 4914TIP3    H136377   4.861   4.509   1.937 -2.4671  1.4423 -1.5899
 4914TIP3    H236378   4.966   4.616   1.921  0.1210 -0.9070 -1.1063
 4915TIP3   OH236379   5.262   6.388   0.797 -0.0413  0.2889  0.0890
 4915TIP3    H136380   5.261   6.392   0.893 -0.7368  2.4209  0.0377
 4915TIP3    H236381   5.337   6.442   0.772 -0.2508  0.2653 -0.5932
 4916TIP3   OH236382   4.745   3.840   2.335 -0.1878 -0.6601 -0.5726
 4916TIP3    H136383   4.717   3.864   2.423  0.1568 -3.9397  0.5602
 4916TIP3    H236384   4.838   3.862   2.333 -0.8429  2.4300 -1.3653
 4917TIP3   OH236385   0.328   3.889   9.180 -0.2871  0.3960 -0.4686
 4917TIP3    H136386   0.396   3.927   9.236  0.2477 -1.5118  0.2586
 4917TIP3    H236387   0.247   3.932   9.207  0.3885  1.6691 -0.3609
 4918TIP3   OH236388   0.751   2.946   0.865 -0.4208 -0.0245 -0.0472
 4918TIP3    H136389   0.724   2.864   0.826  0.7379 -1.0398  1.1568
 4918TIP3    H236390   0.739   2.933   0.959 -1.4126  1.6649  0.1060
 4919TIP3   OH236391   0.708   2.844   1.115  0.1365 -0.3618 -0.4700
 4919TIP3    H136392   0.698   2.752   1.136 -0.2609 -0.1460  0.3191
 4919TIP3    H236393   0.659   2.890   1.183  1.0058  0.4637 -0.3747
 4920TIP3   OH236394   1.763   3.698   8.965  0.6381  0.1108  0.0070
 4920TIP3    H136395   1.698   3.643   8.922 -0.4711  1.4948 -0.1748
 4920TIP3    H236396   1.820   3.728   8.894 -0.3405  1.2570 -0.3332
 4921TIP3   OH236397   0.227   5.740   8.448 -0.3564 -0.5391  0.4159
 4921TIP3    H136398   0.147   5.794   8.446 -1.0777 -1.5982 -0.2733
 4921TIP3    H236399   0.258   5.747   8.538 -1.3571 -0.2736  0.7530
 4922TIP3   OH236400   0.155   0.690   0.200 -0.3447  0.3116 -0.4224
 4922TIP3    H136401   0.205   0.749   0.256 -0.2113  0.8178 -1.0759
 4922TIP3    H236402   0.063   0.710   0.219 -0.3706 -1.0739  1.2767
 4923TIP3   OH236403   0.715   0.990   0.863  0.4112 -0.2186 -0.1482
 4923TIP3    H136404   0.721   1.018   0.954 -0.1438  1.6657 -0.6483
 4923TIP3    H236405   0.803   0.960   0.841  0.5296 -0.7643  1.0113
 4924TIP3   OH236406   1.361   0.517   8.201  0.2438  0.6454 -0.5486
 4924TIP3    H136407   1.392   0.521   8.111  2.5564 -0.0902  0.1576
 4924TIP3    H236408   1.276   0.473   8.195 -0.3621  1.9554 -2.4890
 4925TIP3   OH236409   6.552   1.350   0.554  0.3925  0.7888  0.1260
 4925TIP3    H136410   6.540   1.255   0.548  0.7574  0.7159  0.5072
 4925TIP3    H236411   6.579   1.365   0.644 -1.1115  1.4212  0.4930
 4926TIP3   OH236412   6.416   2.856   6.901 -0.1905  0.1633 -0.7139
 4926TIP3    H136413   6.377   2.862   6.814 -2.0999  1.9942  0.1897
 4926TIP3    H236414   6.351   2.808   6.953 -0.6334  1.9427  0.4556
 4927TIP3   OH236415   0.925   1.439   3.190 -0.2583 -0.3654  0.4614
 4927TIP3    H136416   1.018   1.425   3.170 -0.8803 -1.2089 -2.3130
 4927TIP3    H236417   0.902   1.518   3.142 -1.1894 -0.7526  0.2502
 4928TIP3   OH236418   1.692   2.881   8.240  0.3006 -0.1272 -0.6120
 4928TIP3    H136419   1.644   2.884   8.157 -0.5722  0.6623 -0.0916
 4928TIP3    H236420   1.726   2.791   8.244  0.7229 -0.0663 -2.0073
 4929TIP3   OH236421   6.675   3.288   7.790  0.0128  0.0166  0.1255
 4929TIP3    H136422   6.628   3.371   7.799  1.3707  0.6629  1.9950
 4929TIP3    H236423   6.768   3.314   7.785  0.3643 -1.3302 -0.7765
 4930TIP3   OH236424   2.946   6.118   2.525  0.0850  0.0843  0.3567
 4930TIP3    H136425   2.933   6.212   2.539 -1.0573  0.2815 -1.7105
 4930TIP3    H236426   3.030   6.112   2.479  0.4225  0.0295  0.9692
 4931TIP3   OH236427   2.554   0.138   1.337 -0.6572  0.1629  0.3187
 4931TIP3    H136428   2.499   0.211   1.366 -2.1986 -0.3793 -1.0768
 4931TIP3    H236429   2.492   0.075   1.301  0.9598  0.0573 -2.5103
 4932TIP3   OH236430   0.869   0.678   2.730 -0.5908  0.5780  0.0982
 4932TIP3    H136431   0.891   0.597   2.775 -0.1353  0.7710  0.2207
 4932TIP3    H236432   0.810   0.724   2.790  1.8942  1.9694  1.6341
 4933TIP3   OH236433   5.846   4.018   2.609 -0.3787 -0.0208 -0.2605
 4933TIP3    H136434   5.799   3.963   2.673 -0.2716 -1.0460 -1.0410
 4933TIP3    H236435   5.932   3.977   2.601 -0.3519  0.1632 -0.9846
 4934TIP3   OH236436   3.625   4.421   1.509 -0.5769 -0.5252 -0.1565
 4934TIP3    H136437   3.542   4.452   1.545 -0.7817 -1.3189  0.0987
 4934TIP3    H236438   3.661   4.365   1.578 -0.5663 -1.3925 -0.8398
 4935TIP3   OH236439   1.492   6.032   1.735  0.2876 -0.7823  0.0098
 4935TIP3    H136440   1.445   5.960   1.694  0.3605  0.0922 -1.7016
 4935TIP3    H236441   1.584   6.005   1.733  0.3551 -0.5271 -0.9535
 4936TIP3   OH236442   4.239   1.285   7.999  0.2875  0.1341  0.5814
 4936TIP3    H136443   4.272   1.365   7.957 -1.5847  1.0451  0.7709
 4936TIP3    H236444   4.162   1.262   7.948 -1.2154  0.4510  2.6177
 4937TIP3   OH236445   0.395   3.794   2.598  0.1761  0.4828  0.1656
 4937TIP3    H136446   0.399   3.702   2.622  0.4072  0.6396  0.7418
 4937TIP3    H236447   0.319   3.801   2.540  0.8966 -0.3036 -0.9248
 4938TIP3   OH236448   3.494   0.546   0.420  0.0786  0.1214 -0.0413
 4938TIP3    H136449   3.493   0.533   0.325 -0.4528 -1.7095  0.1577
 4938TIP3    H236450   3.586   0.548   0.443  0.2111  0.2965 -0.5611
 4939TIP3   OH236451   3.692   6.602   8.232 -0.5492 -0.3248 -0.7722
 4939TIP3    H136452   3.703   6.513   8.197 -3.4555 -0.0892 -2.5736
 4939TIP3    H236453   3.614   6.596   8.288 -0.1044  0.8772  0.0000
 4940TIP3   OH236454   2.113   3.898   8.271 -0.0530  0.2287 -0.5697
 4940TIP3    H136455   2.031   3.939   8.243 -1.5270 -2.0437  0.1633
 4940TIP3    H236456   2.102   3.882   8.365  1.6690  0.7795 -0.2276
 4941TIP3   OH236457   4.070   1.879   1.892  0.0205 -0.3428 -0.6310
 4941TIP3    H136458   4.084   1.801   1.946  1.4764 -0.4989 -1.2010
 4941TIP3    H236459   4.004   1.851   1.829 -1.9490 -0.0655  1.1758
 4942TIP3   OH236460   2.976   4.254   9.149 -0.6620 -0.4192 -0.0871
 4942TIP3    H136461   2.957   4.290   9.235 -0.0185  1.6209 -0.7487
 4942TIP3    H236462   2.966   4.328   9.088 -2.3749 -2.0653 -1.9797
 4943TIP3   OH236463   2.793   5.153   6.921 -0.2697  0.4567  0.4439
 4943TIP3    H136464   2.818   5.201   6.842 -0.5033 -2.7765 -1.7505
 4943TIP3    H236465   2.707   5.115   6.900 -0.1279 -0.8603  2.0856
 4944TIP3   OH236466   1.392   6.120   8.650  0.3955  0.4495 -0.3739
 4944TIP3    H136467   1.474   6.124   8.601  0.5239 -0.7539 -0.2805
 4944TIP3    H236468   1.340   6.054   8.605 -0.1546  0.5478  0.1079
 4945TIP3   OH236469   3.588   2.698   2.272 -0.4268 -0.5549  0.5449
 4945TIP3    H136470   3.627   2.737   2.193  0.8812 -0.3562  1.2628
 4945TIP3    H236471   3.496   2.689   2.250 -0.7156  2.3443  0.0605
 4946TIP3   OH236472   1.890   5.904   8.081 -0.3119 -0.0777 -0.5668
 4946TIP3    H136473   1.844   5.988   8.074 -1.3055 -0.2504  2.5471
 4946TIP3    H236474   1.982   5.929   8.089 -0.3727  0.5575 -1.5328
 4947TIP3   OH236475   6.083   4.367   0.379 -0.0995 -0.0184 -0.0523
 4947TIP3    H136476   5.996   4.370   0.420  0.1761 -1.0048  0.6247
 4947TIP3    H236477   6.114   4.278   0.393  1.2695  0.4753  0.2028
 4948TIP3   OH236478   6.332   1.682   1.021  0.5451 -0.1310  0.0687
 4948TIP3    H136479   6.305   1.724   1.103  0.2507 -1.2366  0.5583
 4948TIP3    H236480   6.361   1.754   0.965 -1.7383  0.9717  0.1790
 4949TIP3   OH236481   3.453   5.914   7.892  0.2304 -0.5572 -0.1748
 4949TIP3    H136482   3.455   5.858   7.814  1.1926 -0.4771 -0.2246
 4949TIP3    H236483   3.368   5.958   7.889  1.3223  1.6129 -2.7194
 4950TIP3   OH236484   4.781   0.119   0.587  0.7286 -0.3577 -0.4169
 4950TIP3    H136485   4.865   0.073   0.578  0.5252 -0.3799 -3.1074
 4950TIP3    H236486   4.779   0.178   0.512 -1.5018 -0.0947 -0.1995
 4951TIP3   OH236487   6.088   1.251   1.459  0.0514 -0.1295  0.1587
 4951TIP3    H136488   6.017   1.239   1.521  1.5157  0.3767  2.0517
 4951TIP3    H236489   6.110   1.163   1.429 -0.4364 -0.4263  0.6613
 4952TIP3   OH236490   1.941   6.024   8.894  0.0369 -0.3797 -0.5709
 4952TIP3    H136491   2.033   6.045   8.879 -0.3838  0.7073 -1.7562
 4952TIP3    H236492   1.943   5.940   8.941  1.5891 -0.8979 -1.5053
 4953TIP3   OH236493   3.990   3.205   1.668 -0.4862 -0.0540 -0.5777
 4953TIP3    H136494   4.043   3.283   1.689  0.9747 -1.1673  0.0606
 4953TIP3    H236495   3.938   3.190   1.747  1.7872 -1.6792  0.7276
 4954TIP3   OH236496   6.318   1.135   1.722  0.2106 -0.1581 -0.0920
 4954TIP3    H136497   6.363   1.139   1.638  0.4527 -1.4333 -0.0395
 4954TIP3    H236498   6.259   1.060   1.714 -0.3954  0.2401  0.5696
 4955TIP3   OH236499   3.882   1.460   8.196  0.1701 -0.2163 -0.1972
 4955TIP3    H136500   3.814   1.504   8.145 -0.4457  1.1060  1.6446
 4955TIP3    H236501   3.882   1.370   8.164 -2.1925 -0.1585 -0.5364
 4956TIP3   OH236502   4.097   4.875   8.672 -0.3364 -0.2139 -0.2370
 4956TIP3    H136503   4.186   4.911   8.674 -0.1229 -0.7284  1.3476
 4956TIP3    H236504   4.106   4.791   8.627 -0.7037  1.2485 -3.2807
 4957TIP3   OH236505   4.193   5.090   9.099 -0.0914  0.3747 -0.3220
 4957TIP3    H136506   4.125   5.147   9.135  1.0331  1.7641 -0.3373
 4957TIP3    H236507   4.144   5.026   9.047 -1.4189  1.0977 -0.0187
 4958TIP3   OH236508   5.367   1.345   8.959 -0.6102 -0.4458  0.3793
 4958TIP3    H136509   5.343   1.393   8.879 -0.9083  0.4162  0.9765
 4958TIP3    H236510   5.462   1.360   8.968 -0.4061 -1.2686 -0.2762
 4959TIP3   OH236511   2.552   3.232   2.516 -0.2002 -0.4405  0.1699
 4959TIP3    H136512   2.541   3.252   2.609  1.8787  0.2738  0.3108
 4959TIP3    H236513   2.631   3.179   2.512  0.5321  0.6901 -1.2937
 4960TIP3   OH236514   0.656   3.570   2.484  0.3721 -0.3357  1.0113
 4960TIP3    H136515   0.592   3.560   2.554  0.3278  0.1491  1.0416
 4960TIP3    H236516   0.698   3.484   2.478 -0.4761 -0.7482  0.8001
 4961TIP3   OH236517   1.266   2.852   8.182 -0.3230  0.2684  0.1333
 4961TIP3    H136518   1.218   2.909   8.122 -0.2218 -0.0566 -0.2619
 4961TIP3    H236519   1.200   2.792   8.216 -0.4141  0.5653  0.4864
 4962TIP3   OH236520   0.432   2.345   7.103 -0.4664  0.2315 -0.5094
 4962TIP3    H136521   0.457   2.288   7.030  2.2757  0.5988  0.0343
 4962TIP3    H236522   0.455   2.433   7.074  3.2925  0.1695  1.5832
 4963TIP3   OH236523   1.368   5.671   2.635  0.3272  0.0525  0.4513
 4963TIP3    H136524   1.433   5.721   2.586  0.0048  0.0379 -0.0014
 4963TIP3    H236525   1.373   5.583   2.599 -0.0911  0.1035  0.2585
 4964TIP3   OH236526   2.678   0.976   7.703  0.1947  0.1076  0.0606
 4964TIP3    H136527   2.709   0.948   7.616  0.7171  1.7768 -0.3195
 4964TIP3    H236528   2.732   1.051   7.724  0.7527 -0.8567  2.3101
 4965TIP3   OH236529   1.767   4.401   1.110 -0.1912  0.1876  0.8518
 4965TIP3    H136530   1.672   4.412   1.106 -0.6068 -2.3279  2.1464
 4965TIP3    H236531   1.799   4.436   1.027 -2.2623  0.7648  0.2383
 4966TIP3   OH236532   6.367   4.674   1.714 -0.5630  0.4126  0.1809
 4966TIP3    H136533   6.390   4.754   1.761 -0.5828 -0.5220  1.8470
 4966TIP3    H236534   6.447   4.622   1.716 -0.6081  0.3040 -0.7210
 4967TIP3   OH236535   0.188   3.185   1.040 -0.5082 -0.0961 -0.0487
 4967TIP3    H136536   0.278   3.200   1.069 -0.5501 -0.0847  0.0775
 4967TIP3    H236537   0.156   3.272   1.015 -0.0955 -0.2702 -1.2374
 4968TIP3   OH236538   4.731   4.176   8.609 -0.0844 -0.7100  0.1267
 4968TIP3    H136539   4.693   4.218   8.532 -0.6276 -0.8320  0.3211
 4968TIP3    H236540   4.698   4.227   8.683  1.1757 -0.0217  0.2435
 4969TIP3   OH236541   6.194   5.512   9.198  0.3592 -0.2546  0.1284
 4969TIP3    H136542   6.197   5.541   9.107  3.0140 -0.1867  0.1770
 4969TIP3    H236543   6.106   5.475   9.208 -0.4130  0.7919 -2.0986
 4970TIP3   OH236544   6.348   5.818   0.916  0.9914 -0.2298  0.2188
 4970TIP3    H136545   6.370   5.911   0.915  1.1613 -0.2752 -0.3285
 4970TIP3    H236546   6.421   5.777   0.962  0.4646  0.0175  1.2964
 4971TIP3   OH236547   4.301   2.113   9.104  0.0336 -0.1800  0.0599
 4971TIP3    H136548   4.246   2.182   9.068  1.3442  0.4242 -0.8651
 4971TIP3    H236549   4.327   2.060   9.029 -2.0584 -2.5976  0.8866
 4972TIP3   OH236550   4.484   0.413   1.757  0.3137  0.2473 -0.8717
 4972TIP3    H136551   4.388   0.410   1.763  0.3669 -0.5268 -0.1214
 4972TIP3    H236552   4.502   0.463   1.677 -0.7319 -0.5386 -1.6336
 4973TIP3   OH236553   4.653   0.528   8.087 -0.2385  0.1753 -0.0354
 4973TIP3    H136554   4.704   0.447   8.093 -1.3503 -0.5062  0.7113
 4973TIP3    H236555   4.564   0.498   8.070 -0.6459  1.2457  0.1748
 4974TIP3   OH236556   4.263   3.041   1.499 -0.2288  0.2033  0.4395
 4974TIP3    H136557   4.292   3.001   1.581 -1.1167  0.5859  0.9550
 4974TIP3    H236558   4.271   2.971   1.434  2.1731  0.3853  0.4443
 4975TIP3   OH236559   2.497   5.147   1.357 -0.8484  0.4044 -0.5194
 4975TIP3    H136560   2.409   5.179   1.337 -0.9687  0.7778  0.5134
 4975TIP3    H236561   2.545   5.153   1.274 -1.3969  1.5361 -0.7697
 4976TIP3   OH236562   3.321   3.143   7.974 -0.4587  0.1707 -0.3661
 4976TIP3    H136563   3.327   3.081   7.901 -0.8609  0.9408 -1.0626
 4976TIP3    H236564   3.411   3.148   8.007 -0.3813 -0.6376 -0.4164
 4977TIP3   OH236565   6.638   1.545   1.918  0.1053  0.0531  0.3382
 4977TIP3    H136566   6.586   1.468   1.893  0.2085 -0.4569  1.6446
 4977TIP3    H236567   6.717   1.510   1.959  1.1592  0.8393 -0.9351
 4978TIP3   OH236568   5.325   5.899   2.443  0.6044 -0.1190  0.6172
 4978TIP3    H136569   5.396   5.892   2.506  0.2222 -0.1868  1.0432
 4978TIP3    H236570   5.351   5.842   2.370  0.5233 -0.9311  1.2119
 4979TIP3   OH236571   2.462   3.094   8.717 -0.0935  0.5577  0.3132
 4979TIP3    H136572   2.539   3.082   8.773  0.9334  0.3349 -1.0878
 4979TIP3    H236573   2.491   3.064   8.631 -2.6118 -2.1495  0.2887
 4980TIP3   OH236574   5.507   5.217   2.536 -0.0658 -0.4909 -0.3989
 4980TIP3    H136575   5.509   5.123   2.549 -0.4196 -0.4804 -0.2612
 4980TIP3    H236576   5.429   5.247   2.584  0.8677  0.0619  0.8394
 4981TIP3   OH236577   2.717   3.620   0.012  0.1252 -0.5536  0.0302
 4981TIP3    H136578   2.781   3.665  -0.042 -0.5349 -0.6928 -0.8983
 4981TIP3    H236579   2.669   3.564  -0.049 -1.0488 -0.2599  0.6421
 4982TIP3   OH236580   4.044   1.690   8.116 -0.2624  0.7581 -0.4069
 4982TIP3    H136581   4.032   1.595   8.125  1.5604  0.1377 -3.3095
 4982TIP3    H236582   3.963   1.721   8.075 -1.3336  0.7423  1.5555
 4983TIP3   OH236583   1.081   4.406   8.219  0.3168 -0.1052  0.8783
 4983TIP3    H136584   1.037   4.489   8.235 -1.0213 -0.7720  0.8403
 4983TIP3    H236585   1.049   4.348   8.288  0.6839 -0.7765  0.4971
 4984TIP3   OH236586   3.301   5.218   1.479 -0.7505 -0.4715 -0.0762
 4984TIP3    H136587   3.333   5.140   1.435 -0.2635  0.0937 -0.7404
 4984TIP3    H236588   3.345   5.291   1.435 -2.9427  0.3485 -1.0175
 4985TIP3   OH236589   3.330   0.455   0.731 -0.4992  0.1483  0.3024
 4985TIP3    H136590   3.276   0.448   0.653  0.0587 -1.4864  0.0304
 4985TIP3    H236591   3.284   0.403   0.797 -0.5476  0.8441  0.8242
 4986TIP3   OH236592   5.871   5.168   1.301 -0.0266 -0.2848  0.4089
 4986TIP3    H136593   5.958   5.128   1.300  0.7395  1.3147 -0.4741
 4986TIP3    H236594   5.812   5.095   1.281  1.3014 -1.0008 -1.2488
 4987TIP3   OH236595   5.335   6.100   8.659  0.2517 -0.5565  0.2882
 4987TIP3    H136596   5.271   6.168   8.638  1.8001  0.5347 -1.1688
 4987TIP3    H236597   5.283   6.020   8.668 -1.5333  0.6653  1.3368
 4988TIP3   OH236598   2.106   0.396   0.539 -0.3931 -0.3493 -0.2395
 4988TIP3    H136599   2.023   0.404   0.586 -1.3015 -1.3923 -1.6069
 4988TIP3    H236600   2.098   0.456   0.465  0.9184  1.0722  0.7194
 4989TIP3   OH236601   3.701   2.424   2.290 -0.1426 -0.8024  0.4612
 4989TIP3    H136602   3.633   2.361   2.268 -0.5167  0.0033 -0.8152
 4989TIP3    H236603   3.668   2.508   2.258  1.1487 -0.2757  0.4145
 4990TIP3   OH236604   0.238   1.079   0.898 -0.1247  0.0219 -0.5698
 4990TIP3    H136605   0.286   1.071   0.816  1.5357 -0.5526  0.4084
 4990TIP3    H236606   0.298   1.047   0.965 -1.0567  1.3424  1.0049
 4991TIP3   OH236607   3.634   1.772   1.846  0.3369  0.2408  0.0869
 4991TIP3    H136608   3.723   1.793   1.818  0.9597  0.2570  1.9615
 4991TIP3    H236609   3.639   1.682   1.878 -0.1740  0.4410  0.7702
 4992TIP3   OH236610   0.052   4.276   1.497  0.0075  0.3817  0.6879
 4992TIP3    H136611   0.080   4.364   1.471  0.0542 -0.2461 -1.5767
 4992TIP3    H236612  -0.020   4.255   1.439 -0.9686 -0.5637  2.1652
 4993TIP3   OH236613   5.039   5.455   0.502  0.2428 -0.2920  0.2829
 4993TIP3    H136614   4.954   5.498   0.514 -0.3453 -0.9597 -1.1915
 4993TIP3    H236615   5.017   5.364   0.483  1.2856 -0.4823 -0.0538
 4994TIP3   OH236616   4.772   2.685   0.431 -0.3970  0.2715  0.1409
 4994TIP3    H136617   4.805   2.696   0.342 -0.2729  1.7506  0.3429
 4994TIP3    H236618   4.796   2.595   0.455 -0.6152 -0.2261 -1.3771
 4995TIP3   OH236619   1.622   4.110   7.978 -0.4168 -0.1200 -0.1880
 4995TIP3    H136620   1.654   4.092   7.890  0.2853  0.0421  0.0235
 4995TIP3    H236621   1.529   4.089   7.975 -0.5058  0.3759 -1.0993
 4996TIP3   OH236622   3.546   2.073   7.981 -0.1485  0.0455 -0.3896
 4996TIP3    H136623   3.551   1.984   8.017  1.5787  0.1932 -0.1563
 4996TIP3    H236624   3.516   2.126   8.054  0.3617 -0.1219 -0.0483
 4997TIP3   OH236625   1.146   4.367   1.211 -0.1758 -0.1282 -0.3402
 4997TIP3    H136626   1.150   4.278   1.246 -0.8610  0.6785  1.9872
 4997TIP3    H236627   1.052   4.387   1.206 -0.0285  0.6901 -0.1256
 4998TIP3   OH236628   6.651   6.109   2.861  0.1402 -0.0982  0.0538
 4998TIP3    H136629   6.644   6.188   2.915 -0.6953 -0.5473  0.6265
 4998TIP3    H236630   6.635   6.140   2.772  1.0354  0.5678  0.1050
 4999TIP3   OH236631   4.417   1.109   0.262 -0.2582 -0.0226  0.0650
 4999TIP3    H136632   4.370   1.026   0.254 -0.2164 -0.1612  1.1134
 4999TIP3    H236633   4.477   1.109   0.187 -1.9476  0.2022 -1.3520
 5000TIP3   OH236634   3.367   6.161   1.648  0.6248 -0.1277  0.4853
 5000TIP3    H136635   3.414   6.162   1.564  0.9164 -1.2999  0.6137
 5000TIP3    H236636   3.288   6.213   1.632  0.2940 -0.9649 -0.7446
 5001TIP3   OH236637   4.639   3.376   7.564  0.0355  0.3022 -0.8210
 5001TIP3    H136638   4.627   3.468   7.586 -0.3690  0.1446 -0.3592
 5001TIP3    H236639   4.551   3.344   7.546  0.0214 -0.2601  0.1253
 5002TIP3   OH236640   3.264   5.576   1.109 -0.2956  0.0363  0.4678
 5002TIP3    H136641   3.207   5.499   1.101  0.5102 -0.5135 -0.2570
 5002TIP3    H236642   3.267   5.612   1.020 -0.3836  0.7022  0.7310
 5003TIP3   OH236643   1.966   3.798   3.006  0.2300 -0.0412 -0.2258
 5003TIP3    H136644   2.034   3.840   3.060  0.3615 -1.3906  0.7103
 5003TIP3    H236645   1.890   3.792   3.063 -0.4539  0.7569 -1.0239
 5004TIP3   OH236646   3.243   0.623   8.427 -0.4669  0.9206 -0.2020
 5004TIP3    H136647   3.217   0.657   8.342  0.1056  0.6995 -0.4679
 5004TIP3    H236648   3.316   0.678   8.454  0.3922 -0.0018 -0.5843
 5005TIP3   OH236649   0.297   2.944   0.243  0.3810 -0.4290 -0.0180
 5005TIP3    H136650   0.259   3.031   0.256  2.1012  0.1386  1.6806
 5005TIP3    H236651   0.296   2.932   0.148 -1.1496  0.8192 -0.2202
 5006TIP3   OH236652   1.793   4.423   8.919  0.1639  0.2665  0.0616
 5006TIP3    H136653   1.878   4.380   8.924 -0.3315 -0.9307 -1.1823
 5006TIP3    H236654   1.751   4.385   8.842 -1.0434  1.6767 -0.0254
 5007TIP3   OH236655   4.575   1.477   9.154  0.8015 -0.2406 -0.3916
 5007TIP3    H136656   4.667   1.472   9.128  0.5109  1.9578 -2.1534
 5007TIP3    H236657   4.552   1.569   9.143 -1.8616 -0.8696 -0.9058
 5008TIP3   OH236658   3.753   0.364   1.650  0.6002 -0.0359  0.6335
 5008TIP3    H136659   3.767   0.451   1.688 -0.2838  0.4360 -0.0928
 5008TIP3    H236660   3.672   0.332   1.691  1.5623 -1.0642  1.8248
 5009TIP3   OH236661   4.722   2.016   1.102  0.3193 -0.3577  0.3127
 5009TIP3    H136662   4.729   2.095   1.156  0.8611 -0.0577 -0.1820
 5009TIP3    H236663   4.630   2.012   1.076  0.3194  0.1910  0.2261
 5010TIP3   OH236664   2.358   5.131   2.114 -0.6251 -0.3473 -0.9039
 5010TIP3    H136665   2.288   5.184   2.153 -0.1819  1.8311 -2.8101
 5010TIP3    H236666   2.426   5.127   2.182 -1.6593 -0.5111  0.1373
 5011TIP3   OH236667   5.614   0.452   8.860  0.3948 -0.4828  0.1515
 5011TIP3    H136668   5.677   0.524   8.853 -0.0576 -0.0540  0.3627
 5011TIP3    H236669   5.608   0.416   8.772 -0.0041  0.2949 -0.1542
 5012TIP3   OH236670   2.173   0.580   0.928 -0.1001 -0.5068  0.0526
 5012TIP3    H136671   2.250   0.632   0.903 -1.2682  1.3536  0.1316
 5012TIP3    H236672   2.104   0.608   0.868 -1.4670 -0.0507  1.7536
 5013TIP3   OH236673   3.084   6.482   0.255 -0.0534 -0.5311 -0.5009
 5013TIP3    H136674   3.113   6.444   0.172  2.9996  0.6782 -0.1276
 5013TIP3    H236675   3.143   6.556   0.269 -2.7018  1.4606  1.0990
 5014TIP3   OH236676   4.605   5.440   8.123  0.3258 -0.2631 -0.0030
 5014TIP3    H136677   4.536   5.432   8.189  0.5076 -0.7529  0.1333
 5014TIP3    H236678   4.676   5.384   8.156  1.2915  1.1757  0.4882
 5015TIP3   OH236679   2.812   4.158   0.725 -0.2217  0.3054  0.3815
 5015TIP3    H136680   2.817   4.063   0.719  0.6591  0.3812 -0.3168
 5015TIP3    H236681   2.718   4.178   0.727 -0.4244 -0.6389  2.0244
 5016TIP3   OH236682   6.625   4.835   0.556  0.2205  0.1212  0.1510
 5016TIP3    H136683   6.668   4.884   0.486  0.6542  0.5890  0.7407
 5016TIP3    H236684   6.564   4.777   0.510  0.5902  0.3309 -0.6205
 5017TIP3   OH236685   6.075   5.702   0.160  0.4174  0.0413  0.2100
 5017TIP3    H136686   5.995   5.702   0.107  0.1376 -0.7773  0.6240
 5017TIP3    H236687   6.140   5.659   0.105  0.7033  1.0652 -0.2891
 5018TIP3   OH236688   3.776   5.115   8.338  0.0696 -0.2371  0.3709
 5018TIP3    H136689   3.792   5.045   8.275  0.9960  1.2629 -1.1295
 5018TIP3    H236690   3.817   5.084   8.419  1.5928 -0.8861 -0.6105
 5019TIP3   OH236691   5.743   2.751   2.878  0.0751 -0.0758  0.2988
 5019TIP3    H136692   5.694   2.715   2.952 -0.1067  0.1855  0.3083
 5019TIP3    H236693   5.833   2.759   2.910 -0.0762  0.3948  0.6184
 5020TIP3   OH236694   2.515   6.426   2.174 -0.3031 -0.2044 -0.1041
 5020TIP3    H136695   2.506   6.520   2.192  1.2429 -0.0361 -0.0984
 5020TIP3    H236696   2.608   6.408   2.184 -0.6958 -1.9703  0.9407
 5021TIP3   OH236697   0.561   4.790   0.136  0.2541 -0.1680 -0.5067
 5021TIP3    H136698   0.519   4.847   0.072 -0.7228 -0.3575 -0.0547
 5021TIP3    H236699   0.490   4.765   0.195  0.6236 -2.0078 -0.8042
 5022TIP3   OH236700   3.710   2.448   8.367 -0.1215  0.1675 -0.0939
 5022TIP3    H136701   3.735   2.363   8.405 -1.2473  0.1424  0.6300
 5022TIP3    H236702   3.626   2.431   8.325  1.0466  0.2160 -2.6220
 5023TIP3   OH236703   1.273   0.471   0.593  0.4439 -0.6539 -0.2752
 5023TIP3    H136704   1.258   0.563   0.616 -0.0726 -0.2280 -2.1433
 5023TIP3    H236705   1.190   0.428   0.610  0.0379 -0.3241 -1.3477
 5024TIP3   OH236706   0.393   1.083   8.108  0.6424 -0.0559 -0.4811
 5024TIP3    H136707   0.394   1.165   8.157  0.9335 -0.0331 -0.5263
 5024TIP3    H236708   0.469   1.034   8.141  1.4341  0.3730 -1.6179
 5025TIP3   OH236709   2.507   3.432   0.891 -0.2327 -0.2892 -0.5581
 5025TIP3    H136710   2.548   3.500   0.944 -1.1861  0.1560 -0.3653
 5025TIP3    H236711   2.572   3.362   0.887 -0.5252 -0.8247  2.1393
 5026TIP3   OH236712   5.267   6.425   7.912 -0.1383  0.0403 -0.1486
 5026TIP3    H136713   5.227   6.424   7.999  0.1553  1.0242  0.0025
 5026TIP3    H236714   5.352   6.382   7.925 -0.1494  0.0685  0.0259
 5027TIP3   OH236715   5.713   4.995   8.919 -0.5102  0.4056  0.3722
 5027TIP3    H136716   5.765   4.919   8.943 -1.3533 -0.1357  0.5170
 5027TIP3    H236717   5.761   5.069   8.957 -0.6895 -0.2310  1.9323
 5028TIP3   OH236718   3.454   4.797   8.037 -0.6737  0.2489 -0.1969
 5028TIP3    H136719   3.411   4.828   8.117  1.2810  1.0531  0.6073
 5028TIP3    H236720   3.428   4.706   8.030 -2.4601  0.6694  0.2379
 5029TIP3   OH236721   3.923   4.668   8.141 -0.4312 -0.2231  0.0502
 5029TIP3    H136722   3.871   4.725   8.198 -0.4390  0.2870 -0.4577
 5029TIP3    H236723   3.859   4.617   8.093 -0.4996  0.6562 -0.8355
 5030TIP3   OH236724   4.140   5.049   1.914 -0.0516  0.2112  0.8358
 5030TIP3    H136725   4.141   5.087   1.827  2.1179  0.1085  0.7516
 5030TIP3    H236726   4.060   4.997   1.917 -0.8424  1.2951 -0.5909
 5031TIP3   OH236727   5.103   6.209   0.033  0.3185  0.0404  0.3998
 5031TIP3    H136728   5.043   6.161  -0.025  2.1633 -3.5041  1.1496
 5031TIP3    H236729   5.177   6.232  -0.023  0.9480 -1.0990  0.7312
 5032TIP3   OH236730   5.612   0.645   0.928 -0.1832  0.8070  0.4338
 5032TIP3    H136731   5.576   0.643   1.016 -0.2673 -0.4580  0.3931
 5032TIP3    H236732   5.538   0.668   0.872 -0.8273 -1.1707  0.4131
 5033TIP3   OH236733   4.158   3.808   1.491  0.8700  0.1546 -0.3283
 5033TIP3    H136734   4.217   3.879   1.520  0.3580  0.2036  0.6201
 5033TIP3    H236735   4.094   3.800   1.561  0.2534 -0.4992 -0.9532
 5034TIP3   OH236736   2.370   3.073   2.346  0.0929 -0.7785  0.7790
 5034TIP3    H136737   2.455   3.034   2.365 -0.2611 -2.1191 -0.1441
 5034TIP3    H236738   2.390   3.161   2.314  1.0276 -0.6240  1.7375
 5035TIP3   OH236739   2.692   0.370   0.016 -0.6179 -0.1513 -0.1732
 5035TIP3    H136740   2.712   0.419  -0.063  1.1542  1.0781  0.9684
 5035TIP3    H236741   2.634   0.427   0.066 -0.4553 -0.2281  0.1080
 5036TIP3   OH236742   4.453   5.028   2.373 -0.3016  0.2596  0.4790
 5036TIP3    H136743   4.526   4.968   2.358 -0.3358  0.1966  0.5700
 5036TIP3    H236744   4.440   5.071   2.288 -0.4834 -0.0884  0.3310
 5037TIP3   OH236745   3.514   4.384   0.092  0.2864  0.4466 -0.4027
 5037TIP3    H136746   3.426   4.347   0.096 -0.0553  1.2909  2.4306
 5037TIP3    H236747   3.572   4.309   0.094 -0.3645 -0.0860 -1.0508
 5038TIP3   OH236748   4.353   0.848   0.289  0.3288 -0.5886  0.1060
 5038TIP3    H136749   4.304   0.788   0.233  0.5152 -1.0559  0.4364
 5038TIP3    H236750   4.445   0.832   0.267  0.3320  0.4949 -0.7235
 5039TIP3   OH236751   5.239   4.277   0.314  0.0446  0.0906 -0.4506
 5039TIP3    H136752   5.267   4.350   0.258  3.2683 -1.1368 -0.6594
 5039TIP3    H236753   5.307   4.271   0.381 -1.4731 -1.1951  1.0553
 5040TIP3   OH236754   4.244   2.945   7.083 -0.3185 -0.3336 -0.1827
 5040TIP3    H136755   4.153   2.933   7.111 -0.0682  0.5889  1.1196
 5040TIP3    H236756   4.253   3.039   7.070 -0.0079 -0.5858 -2.0822
 5041TIP3   OH236757   5.689   5.695   8.210 -0.3733  0.1353 -0.9863
 5041TIP3    H136758   5.660   5.615   8.166 -1.9918  0.5963 -0.7954
 5041TIP3    H236759   5.703   5.757   8.139 -0.7595  0.1930 -1.0105
 5042TIP3   OH236760   5.744   4.345   0.194 -0.9052 -0.4088  0.3012
 5042TIP3    H136761   5.751   4.251   0.210  0.7636 -0.1836  1.1842
 5042TIP3    H236762   5.778   4.386   0.274  0.3142  0.9014 -0.8253
 5043TIP3   OH236763   2.421   2.275   2.213 -0.4293  0.2750  0.2343
 5043TIP3    H136764   2.351   2.284   2.149  0.8843  1.2576 -1.1299
 5043TIP3    H236765   2.436   2.180   2.218 -0.0804  0.2060 -1.4845
 5044TIP3   OH236766   1.995   4.395   7.605 -1.3071  0.5792  0.2752
 5044TIP3    H136767   2.045   4.442   7.672  3.1895 -2.9229 -0.1557
 5044TIP3    H236768   2.005   4.448   7.526 -0.8870  1.4366  0.8929
 5045TIP3   OH236769   1.872   1.462   7.812  0.2444 -0.4399 -0.0699
 5045TIP3    H136770   1.858   1.433   7.902 -0.0895  1.7109  0.6283
 5045TIP3    H236771   1.965   1.482   7.807  0.4909 -1.5999 -0.5771
 5046TIP3   OH236772   6.303   4.346   7.011  0.2170 -0.1654 -0.1922
 5046TIP3    H136773   6.245   4.422   7.021 -1.1277 -1.2311  0.4542
 5046TIP3    H236774   6.245   4.271   7.021  1.5233 -1.2893 -0.8135
 5047TIP3   OH236775   0.136   0.824   8.473 -0.2450  0.4796 -0.1636
 5047TIP3    H136776   0.123   0.773   8.553 -1.0928 -0.6489 -0.9804
 5047TIP3    H236777   0.082   0.780   8.408 -1.7836  3.0132 -0.7013
 5048TIP3   OH236778   6.542   4.160   6.753 -0.2110  0.4005  0.5608
 5048TIP3    H136779   6.613   4.162   6.817 -0.0007 -0.4471  0.3545
 5048TIP3    H236780   6.535   4.251   6.723 -1.2193  1.1288  2.7467
 5049TIP3   OH236781   6.400   0.265   1.515 -0.2081 -0.3415 -0.2947
 5049TIP3    H136782   6.483   0.224   1.540 -0.3588  0.7891  2.3976
 5049TIP3    H236783   6.417   0.303   1.429  1.2781 -2.1581 -0.8859
 5050TIP3   OH236784   3.672   1.264   1.621  0.2201 -0.3612 -0.2696
 5050TIP3    H136785   3.622   1.279   1.541  1.1279 -1.0901 -0.9958
 5050TIP3    H236786   3.758   1.236   1.591  0.7298 -0.1948  0.9638
 5051TIP3   OH236787   5.836   2.101   2.128  0.7036 -0.3915 -0.2088
 5051TIP3    H136788   5.808   2.056   2.208 -0.0531  0.3963 -0.0192
 5051TIP3    H236789   5.832   2.033   2.060 -0.6532 -0.5727  0.0268
 5052TIP3   OH236790   0.241   6.182   1.874 -0.6863  0.4071 -0.0333
 5052TIP3    H136791   0.252   6.275   1.856 -0.1244  0.7396  1.8654
 5052TIP3    H236792   0.152   6.174   1.908 -0.8862  0.1653 -0.5938
 5053TIP3   OH236793   2.559   5.634   9.202  0.2837 -0.2548  0.0916
 5053TIP3    H136794   2.635   5.691   9.217  0.4117 -0.0283 -1.2669
 5053TIP3    H236795   2.585   5.579   9.128 -0.9408 -0.0686 -0.4902
 5054TIP3   OH236796   6.101   1.242   7.848  0.1107  0.0506  0.3865
 5054TIP3    H136797   6.156   1.320   7.844 -0.3281  0.3314 -1.4005
 5054TIP3    H236798   6.082   1.223   7.756  1.6258 -3.2158  0.6333
 5055TIP3   OH236799   6.395   0.309   1.198  0.0865 -0.1708  1.0334
 5055TIP3    H136800   6.355   0.366   1.132  0.7419 -0.3199  0.4996
 5055TIP3    H236801   6.466   0.265   1.151  3.3710  2.7949  2.7583
 5056TIP3   OH236802   5.597   3.228   8.267 -0.2886  0.1232 -0.7339
 5056TIP3    H136803   5.538   3.275   8.208 -0.3807  1.7115  0.5231
 5056TIP3    H236804   5.685   3.258   8.243 -0.1752 -0.5900 -1.2130
 5057TIP3   OH236805   3.104   2.734   0.549 -0.6775  0.1964  0.3697
 5057TIP3    H136806   3.115   2.709   0.457  1.5693  0.9117  0.3821
 5057TIP3    H236807   3.086   2.828   0.547 -2.2229 -0.0657  0.6291
 5058TIP3   OH236808   0.770   6.259   2.564  0.2859 -0.1924  0.0499
 5058TIP3    H136809   0.834   6.327   2.587 -0.6220  1.4068 -1.9146
 5058TIP3    H236810   0.685   6.301   2.575 -0.3100 -1.0838 -1.0033
 5059TIP3   OH236811   4.584   5.772   2.519  1.2921  0.1964 -0.3594
 5059TIP3    H136812   4.542   5.745   2.601  3.1849 -2.7596 -0.1907
 5059TIP3    H236813   4.627   5.855   2.541 -1.3147  1.4186  0.4628
 5060TIP3   OH236814   5.942   3.302   0.218  0.4354 -0.0543 -0.2150
 5060TIP3    H136815   5.982   3.390   0.223 -0.9985  0.6031  0.1312
 5060TIP3    H236816   5.914   3.283   0.307  0.8001 -0.9184 -0.2750
 5061TIP3   OH236817   6.140   3.004   8.898 -0.5941 -0.0315 -0.4233
 5061TIP3    H136818   6.111   3.021   8.808  0.3031  1.6191 -0.4251
 5061TIP3    H236819   6.211   3.066   8.913  1.7122 -2.6115  0.2411
 5062TIP3   OH236820   0.307   2.581   6.992  0.1123  0.1995  0.0646
 5062TIP3    H136821   0.259   2.520   7.048  0.3742 -0.2350 -0.1819
 5062TIP3    H236822   0.276   2.667   7.019 -0.1234 -0.0315  0.5431
 5063TIP3   OH236823   3.233   1.854   2.341  0.0525  0.3991 -0.6132
 5063TIP3    H136824   3.244   1.761   2.362  0.4914  0.4751 -0.4990
 5063TIP3    H236825   3.218   1.856   2.247  0.8686  0.2745 -0.7508
 5064TIP3   OH236826   2.074   5.123   0.292 -0.0531 -0.1294  0.2488
 5064TIP3    H136827   2.013   5.189   0.259  0.0816 -0.0972  0.0652
 5064TIP3    H236828   2.078   5.140   0.386 -1.9003 -1.4247  0.6220
 5065TIP3   OH236829   1.142   4.148   6.856 -0.0260  0.2248 -0.2695
 5065TIP3    H136830   1.134   4.240   6.882 -1.1998  0.0728 -0.0142
 5065TIP3    H236831   1.081   4.102   6.913  0.3606 -0.6782 -0.5747
 5066TIP3   OH236832   2.130   0.641   0.061 -0.2007  0.2131  0.6111
 5066TIP3    H136833   2.189   0.713   0.085 -0.0643  0.4857 -0.4494
 5066TIP3    H236834   2.100   0.664  -0.027 -0.2446 -0.9687  0.2972
 5067TIP3   OH236835   0.873   5.529   0.215  0.3393 -0.1181  0.1426
 5067TIP3    H136836   0.901   5.611   0.255 -0.0052 -0.1540  0.4693
 5067TIP3    H236837   0.777   5.537   0.210  0.4011  0.0107 -0.9504
 5068TIP3   OH236838   5.922   0.454   9.194 -0.0680 -0.3516 -0.1031
 5068TIP3    H136839   5.899   0.524   9.255 -1.0310 -0.5292 -0.2551
 5068TIP3    H236840   5.845   0.398   9.191 -0.4274  0.1781 -2.2335
 5069TIP3   OH236841   3.400   4.077   2.358 -0.6920 -0.4780  0.3585
 5069TIP3    H136842   3.455   4.097   2.433 -0.2492 -0.4077  0.0146
 5069TIP3    H236843   3.323   4.133   2.370 -0.5188 -0.2947  0.6373
 5070TIP3   OH236844   4.083   0.412   2.076 -0.2473 -0.4697  0.7803
 5070TIP3    H136845   4.125   0.497   2.084 -0.5175 -0.0238 -1.7994
 5070TIP3    H236846   3.998   0.423   2.120 -0.0485  0.4172  0.9499
 5071TIP3   OH236847   6.309   5.111   2.003  0.5706 -0.2105 -0.3455
 5071TIP3    H136848   6.235   5.172   1.994  0.6436 -0.1421 -0.4804
 5071TIP3    H236849   6.280   5.049   2.070  0.7285  0.3128  0.2202
 5072TIP3   OH236850   2.632   2.575   1.135 -0.0081  0.2554  0.3102
 5072TIP3    H136851   2.724   2.579   1.160 -0.1360 -1.3754  1.1998
 5072TIP3    H236852   2.620   2.648   1.074  1.4626  1.4966  1.4352
 5073TIP3   OH236853   3.318   5.455   0.179 -0.1176 -0.4143 -0.3207
 5073TIP3    H136854   3.247   5.494   0.229 -0.1652  0.5910 -1.1513
 5073TIP3    H236855   3.368   5.529   0.145 -0.2278 -1.0460 -1.9556
 5074TIP3   OH236856   5.829   2.663   0.859  0.2246  0.9253 -0.1993
 5074TIP3    H136857   5.892   2.726   0.896 -0.1278  1.8624 -1.1539
 5074TIP3    H236858   5.854   2.656   0.767 -1.5323  1.9010 -0.7782
 5075TIP3   OH236859   4.315   2.649   3.175 -0.1215  0.1243  0.4871
 5075TIP3    H136860   4.384   2.640   3.240 -0.4233  0.5075  0.8639
 5075TIP3    H236861   4.294   2.559   3.149  0.7987  0.0247  0.0665
 5076TIP3   OH236862   5.281   0.737   2.285  0.9695  0.0115  0.3444
 5076TIP3    H136863   5.279   0.788   2.367 -0.5345  1.0915 -0.3216
 5076TIP3    H236864   5.273   0.646   2.314  0.4959  0.3689  1.4070
 5077TIP3   OH236865   4.694   6.299   1.715 -0.1706  0.2101 -0.0145
 5077TIP3    H136866   4.770   6.243   1.702  0.7244  0.8370  2.0592
 5077TIP3    H236867   4.619   6.240   1.704  0.5084 -0.2457 -2.8958
 5078TIP3   OH236868   0.629   1.699   9.123  0.0308 -0.4364 -0.4304
 5078TIP3    H136869   0.702   1.648   9.157 -0.8664 -1.2419  0.3633
 5078TIP3    H236870   0.603   1.652   9.043 -0.2291 -0.7373 -0.1771
 5079TIP3   OH236871   6.532   2.658   8.106  0.0183  0.5231  0.1948
 5079TIP3    H136872   6.450   2.702   8.130 -0.1651 -0.3339  1.1723
 5079TIP3    H236873   6.587   2.665   8.184 -0.0411 -1.0503  0.4033
 5080TIP3   OH236874   4.724   1.874   0.062 -0.2827  0.2489  0.4144
 5080TIP3    H136875   4.646   1.907   0.105 -1.3160  0.7241 -1.6939
 5080TIP3    H236876   4.712   1.897  -0.031  2.6292  0.8936  0.0889
 5081TIP3   OH236877   2.120   2.952   2.222  0.2778  0.0137 -0.1134
 5081TIP3    H136878   2.212   2.970   2.241 -0.1853  1.9326  0.6170
 5081TIP3    H236879   2.087   2.907   2.300  0.2754  0.6218  0.2430
 5082TIP3   OH236880   2.679   5.836   2.582  0.5061 -0.0422 -0.5345
 5082TIP3    H136881   2.699   5.916   2.631  1.3884  0.1459 -1.1758
 5082TIP3    H236882   2.764   5.808   2.547 -0.1055 -0.1525 -1.9670
 5083TIP3   OH236883   2.724   3.059   8.834  0.0755 -0.3149 -0.1850
 5083TIP3    H136884   2.808   3.071   8.788 -1.2504  0.7605 -2.5037
 5083TIP3    H236885   2.721   2.966   8.855  2.6350 -0.0902  1.6721
 5084TIP3   OH236886   3.644   3.434   7.994 -0.0591 -0.3670 -0.0100
 5084TIP3    H136887   3.642   3.454   7.900  3.4239  0.1715 -0.1093
 5084TIP3    H236888   3.583   3.496   8.033 -0.0845  0.7652 -1.7490
 5085TIP3   OH236889   6.382   0.006   8.355  0.5369 -0.9121  0.3674
 5085TIP3    H136890   6.302  -0.046   8.346  0.1765 -0.1145 -1.5813
 5085TIP3    H236891   6.449  -0.046   8.310  0.6534 -0.6733  0.2648
 5086TIP3   OH236892   4.071   4.401   1.266 -0.3554 -0.1410  0.4771
 5086TIP3    H136893   4.017   4.477   1.244  0.8810  0.6867  0.1825
 5086TIP3    H236894   4.117   4.380   1.185  0.6289 -0.0925  1.0122
 5087TIP3   OH236895   1.621   6.410   8.120 -0.5734 -0.2972  0.1228
 5087TIP3    H136896   1.684   6.396   8.190  0.1089  0.2356 -0.3656
 5087TIP3    H236897   1.558   6.472   8.156  0.5753  1.0911 -0.1886
 5088TIP3   OH236898   3.561   5.631   1.576 -0.7043  0.0277 -0.8567
 5088TIP3    H136899   3.597   5.705   1.627  1.0779 -0.3423 -1.4982
 5088TIP3    H236900   3.539   5.669   1.491 -3.0883  0.5106 -0.0874
 5089TIP3   OH236901   4.535   3.539   7.278 -0.2784  0.0640  0.2379
 5089TIP3    H136902   4.486   3.532   7.196  0.6989 -0.2027 -0.3336
 5089TIP3    H236903   4.491   3.478   7.337  0.0047 -0.9710 -0.5902
 5090TIP3   OH236904   0.876   1.386   1.659  0.5032 -0.4332 -0.0815
 5090TIP3    H136905   0.914   1.417   1.577  1.2624  0.5347  0.6159
 5090TIP3    H236906   0.936   1.417   1.727 -0.9302  0.1451  0.9678
 5091TIP3   OH236907   5.542   3.686   0.424 -0.3474 -0.0653  0.4527
 5091TIP3    H136908   5.451   3.666   0.445 -0.5679  0.1224 -0.2891
 5091TIP3    H236909   5.557   3.644   0.339  1.0743 -2.4415  1.7594
 5092TIP3   OH236910   0.039   5.828   1.909 -0.2470  0.0839  0.2453
 5092TIP3    H136911   0.092   5.809   1.986  1.0372  2.7770  0.1496
 5092TIP3    H236912   0.075   5.774   1.839  1.0279  0.3240  0.6992
 5093TIP3   OH236913   4.737   2.994   2.485  0.1204 -0.2704 -0.3856
 5093TIP3    H136914   4.660   2.965   2.437  0.6259 -0.5098 -1.0720
 5093TIP3    H236915   4.773   2.914   2.523 -0.0642 -0.1337  0.0875
 5094TIP3   OH236916   3.397   6.618   1.019  0.3886  0.3725  0.4334
 5094TIP3    H136917   3.363   6.538   1.059 -0.8593  1.1658  1.0176
 5094TIP3    H236918   3.393   6.601   0.924  0.3754 -0.3397  0.5547
 5095TIP3   OH236919   5.291   4.121   1.294  0.2245 -0.1307  0.2517
 5095TIP3    H136920   5.365   4.134   1.353  0.5001 -0.4955 -0.0091
 5095TIP3    H236921   5.246   4.043   1.328  1.2304 -1.2388 -0.8518
 5096TIP3   OH236922   2.006   4.446   1.653  0.5886 -0.3240  0.1077
 5096TIP3    H136923   2.080   4.494   1.691 -0.1102  0.7921  0.1049
 5096TIP3    H236924   1.963   4.407   1.728  0.9598 -0.6729  0.1453
 5097TIP3   OH236925   4.514   4.443   8.927 -0.0121 -0.0347 -0.0390
 5097TIP3    H136926   4.589   4.399   8.969  0.8681 -0.4971 -2.0016
 5097TIP3    H236927   4.537   4.445   8.834 -0.3839  3.8620 -0.1907
 5098TIP3   OH236928   3.242   2.498   0.811 -0.3903 -0.4320  0.3540
 5098TIP3    H136929   3.173   2.445   0.850  0.8378 -1.4828  1.1821
 5098TIP3    H236930   3.323   2.465   0.850  0.5679  0.9426 -0.3765
 5099TIP3   OH236931   0.404   2.695   1.886  0.2867 -0.3549 -0.1173
 5099TIP3    H136932   0.393   2.655   1.800  0.8127  0.3946 -0.5545
 5099TIP3    H236933   0.490   2.738   1.881 -0.9299  2.2847 -0.3218
 5100TIP3   OH236934   6.615   6.153   2.572  0.0382  0.0230  0.1111
 5100TIP3    H136935   6.521   6.167   2.584  0.3297  0.6600  2.0502
 5100TIP3    H236936   6.626   6.148   2.477 -1.9641 -0.2152 -0.1668
 5101TIP3   OH236937   6.149   1.290   8.855  0.1849  0.0465  0.3509
 5101TIP3    H136938   6.153   1.346   8.778  1.4352 -0.6291 -0.1001
 5101TIP3    H236939   6.224   1.317   8.909 -1.1215  1.0559  1.7396
 5102TIP3   OH236940   5.469   0.880   2.509 -0.0622 -0.0951  0.3895
 5102TIP3    H136941   5.514   0.832   2.578 -0.0875  0.4447  0.7914
 5102TIP3    H236942   5.480   0.826   2.430  0.4233 -0.4562  0.6995
 5103TIP3   OH236943   2.172   2.968   1.349 -0.2559  0.2749 -0.4587
 5103TIP3    H136944   2.096   2.924   1.311 -0.0775 -0.1104 -0.3628
 5103TIP3    H236945   2.246   2.910   1.330 -0.3125 -0.4655  1.4312
 5104TIP3   OH236946   3.072   5.725   1.467 -0.7801  0.0228  0.6707
 5104TIP3    H136947   3.067   5.654   1.403 -2.3003  0.7013 -0.0106
 5104TIP3    H236948   3.102   5.801   1.416 -0.6742  0.2462  1.0602
 5105TIP3   OH236949   0.385   4.111   0.721 -0.7298 -0.2556 -0.4839
 5105TIP3    H136950   0.366   4.136   0.631  0.2784 -0.9546 -0.9123
 5105TIP3    H236951   0.302   4.079   0.756 -1.1347  0.0651 -1.1492
 5106TIP3   OH236952   2.790   0.607   3.411 -0.3756  0.0446  0.1306
 5106TIP3    H136953   2.876   0.587   3.448 -0.6174  2.0073  1.9313
 5106TIP3    H236954   2.737   0.631   3.487 -2.0850  0.3707 -1.1176
 5107TIP3   OH236955   1.254   4.359   2.783 -0.9058  0.4028 -0.8510
 5107TIP3    H136956   1.274   4.452   2.784 -0.6563  0.4083  2.0781
 5107TIP3    H236957   1.333   4.317   2.749 -0.3739  1.1744 -0.5768
 5108TIP3   OH236958   2.097   2.639   8.035 -0.0427 -0.0155  0.2938
 5108TIP3    H136959   2.117   2.570   7.972 -0.1634  0.5450 -0.3723
 5108TIP3    H236960   2.002   2.648   8.031 -0.3397 -1.5402  2.2492
 5109TIP3   OH236961   5.518   0.200   7.738  0.4552 -0.5497 -0.4792
 5109TIP3    H136962   5.475   0.150   7.668 -1.6722  0.2947  0.1407
 5109TIP3    H236963   5.461   0.188   7.814  2.2529 -0.7133  0.8867
 5110TIP3   OH236964   1.813   1.699   1.166 -0.4389 -0.0503  0.3561
 5110TIP3    H136965   1.759   1.673   1.091  0.2673 -0.2110 -0.1060
 5110TIP3    H236966   1.903   1.686   1.136 -0.0211  2.4603  0.2507
 5111TIP3   OH236967   0.700   5.111   1.212 -0.5394  0.1378 -0.0078
 5111TIP3    H136968   0.655   5.042   1.165  0.5576  0.1993 -1.2058
 5111TIP3    H236969   0.788   5.076   1.227 -0.6843  0.3427  1.5318
 5112TIP3   OH236970   5.642   4.383   8.556  0.5127  0.2289  0.5737
 5112TIP3    H136971   5.722   4.331   8.559  0.5399  0.2894  0.9934
 5112TIP3    H236972   5.628   4.401   8.463  0.6134 -0.3484  0.4448
 5113TIP3   OH236973   4.471   5.791   0.917  0.4653  0.0955 -0.0376
 5113TIP3    H136974   4.474   5.886   0.927 -0.0566  0.0549  0.6718
 5113TIP3    H236975   4.535   5.758   0.980  0.7975 -0.0192 -0.4320
 5114TIP3   OH236976   2.825   5.474   1.718  1.0483 -0.7918  0.3569
 5114TIP3    H136977   2.769   5.487   1.794  0.2980 -0.1915 -0.2773
 5114TIP3    H236978   2.796   5.391   1.680 -0.7070  0.3236 -0.9758
 5115TIP3   OH236979   3.660   6.162   9.054  0.3481  0.3462  0.0711
 5115TIP3    H136980   3.632   6.141   8.965 -0.4301 -0.2770  0.4526
 5115TIP3    H236981   3.753   6.137   9.056  0.2497 -0.0779 -0.4124
 5116TIP3   OH236982   2.876   4.014   7.830  0.2290  0.0989  0.3125
 5116TIP3    H136983   2.965   3.990   7.808  0.1756  0.3791 -0.2194
 5116TIP3    H236984   2.829   3.931   7.834  0.2646  0.0317 -0.5354
 5117TIP3   OH236985   3.620   1.785   7.647  0.1207 -0.1821 -0.7133
 5117TIP3    H136986   3.644   1.699   7.681 -0.9878 -0.3156 -0.2204
 5117TIP3    H236987   3.612   1.773   7.552  2.3868 -0.0136 -0.9782
 5118TIP3   OH236988   0.340   3.100   7.123  0.3848 -0.5101 -0.7440
 5118TIP3    H136989   0.386   3.081   7.205 -0.1608  1.3678  0.0641
 5118TIP3    H236990   0.401   3.075   7.054  1.9397  0.3230  0.2667
 5119TIP3   OH236991   6.166   1.899   8.702  0.1788 -0.2726  0.3379
 5119TIP3    H136992   6.076   1.880   8.676  0.0226  0.4178  0.3564
 5119TIP3    H236993   6.194   1.822   8.751  0.4186 -1.5608 -1.7106
 5120TIP3   OH236994   6.182   1.179   2.098  0.4549 -0.1283  0.1565
 5120TIP3    H136995   6.096   1.139   2.083  1.0878 -1.8862  0.8907
 5120TIP3    H236996   6.244   1.116   2.062  1.5024  0.4392  0.9181
 5121TIP3   OH236997   2.499   1.271   2.549 -0.1146 -0.3459  0.5891
 5121TIP3    H136998   2.457   1.232   2.626  1.7428 -2.7008  0.5033
 5121TIP3    H236999   2.516   1.362   2.575 -1.4456 -0.4970  2.1315
 5122TIP3   OH237000   0.782   4.919   8.518  0.1591  0.0384  0.0258
 5122TIP3    H137001   0.819   4.986   8.576  2.2767 -0.6650 -0.4334
 5122TIP3    H237002   0.849   4.905   8.452 -0.8347 -1.5493 -0.6957
 5123TIP3   OH237003   5.933   2.727   0.602 -0.0057  0.2011 -0.2672
 5123TIP3    H137004   5.880   2.802   0.575 -0.4560 -0.3770 -1.0336
 5123TIP3    H237005   6.023   2.756   0.591 -0.1640  0.0771 -2.2250
 5124TIP3   OH237006   3.253   5.971   8.387  0.2206  0.0112  0.2070
 5124TIP3    H137007   3.250   6.035   8.458 -0.1186  0.0537  0.1583
 5124TIP3    H237008   3.210   6.016   8.313 -0.8981 -0.6042  0.4525
 5125TIP3   OH237009   3.671   4.781   1.991  0.2291  0.2167 -0.1199
 5125TIP3    H137010   3.582   4.777   1.955  0.6057 -3.1613 -1.1015
 5125TIP3    H237011   3.658   4.795   2.085 -1.3589 -0.1464 -0.2466
 5126TIP3   OH237012   5.234   4.516   0.039  0.0916  0.6853  0.4826
 5126TIP3    H137013   5.285   4.594   0.019  2.3105 -0.5088  1.1020
 5126TIP3    H237014   5.242   4.506   0.134 -0.7367  0.0732  0.5011
 5127TIP3   OH237015   0.122   2.443   2.257  0.2652  0.0074  0.6975
 5127TIP3    H137016   0.178   2.370   2.234 -0.0518  0.4162 -1.6901
 5127TIP3    H237017   0.107   2.488   2.174 -0.9885  1.7504  1.8017
 5128TIP3   OH237018   4.211   5.548   1.841 -0.1072  0.3197  0.3686
 5128TIP3    H137019   4.120   5.575   1.833 -1.1654 -2.9750 -0.1318
 5128TIP3    H237020   4.228   5.547   1.935 -1.0401 -0.3328  0.5417
 5129TIP3   OH237021   3.208   2.245   8.488  0.3331  0.3683 -0.0708
 5129TIP3    H137022   3.147   2.211   8.553  0.2220  0.3173 -0.2004
 5129TIP3    H237023   3.291   2.202   8.508  0.8218  1.8211  1.2778
 5130TIP3   OH237024   5.868   3.121   2.109 -0.6299 -0.6277 -0.2867
 5130TIP3    H137025   5.825   3.205   2.093 -2.3900 -1.5999 -0.9410
 5130TIP3    H237026   5.958   3.135   2.080 -0.7963  1.1235 -0.0704
 5131TIP3   OH237027   5.430   3.339   0.711 -0.5907 -0.8100  0.6877
 5131TIP3    H137028   5.405   3.430   0.694 -0.7309 -0.6412  1.7100
 5131TIP3    H237029   5.453   3.338   0.804 -2.9452 -2.3043  1.3448
 5132TIP3   OH237030   3.452   2.618   1.156  0.3880  0.1928  0.3081
 5132TIP3    H137031   3.423   2.701   1.118 -0.4707  0.6048  1.7718
 5132TIP3    H237032   3.530   2.640   1.206  0.1221  0.1506  0.7520
 5133TIP3   OH237033   3.330   4.283   0.799  0.0747  0.1719 -0.1829
 5133TIP3    H137034   3.305   4.374   0.780 -2.3950 -0.3744  0.0490
 5133TIP3    H237035   3.379   4.255   0.722  0.5494  1.5917 -0.4205
 5134TIP3   OH237036   2.569   5.353   8.332 -0.1621 -0.0251 -0.4439
 5134TIP3    H137037   2.578   5.259   8.346 -1.3277 -0.0860 -0.0161
 5134TIP3    H237038   2.631   5.393   8.393 -0.9725 -0.4647  0.6888
 5135TIP3   OH237039   6.207   2.726   8.038  0.5408  0.5929  0.3252
 5135TIP3    H137040   6.202   2.682   7.953  1.1898 -0.5607  0.8684
 5135TIP3    H237041   6.168   2.665   8.100  1.2439  0.8648  1.0609
 5136TIP3   OH237042   4.581   4.311   0.405 -0.5799  0.2454 -0.2282
 5136TIP3    H137043   4.644   4.262   0.458  0.6737  0.9625 -1.0021
 5136TIP3    H237044   4.568   4.256   0.327 -0.5343  0.3218 -0.2903
 5137TIP3   OH237045   1.557   0.613   2.020  0.0867 -0.0288  0.5553
 5137TIP3    H137046   1.585   0.545   2.081  1.4529 -1.5084 -1.5583
 5137TIP3    H237047   1.538   0.566   1.939  1.3371  2.0725 -1.0813
 5138TIP3   OH237048   5.292   4.424   7.427  0.0591 -0.3773 -0.6530
 5138TIP3    H137049   5.347   4.447   7.353 -0.3072 -0.7726 -1.0586
 5138TIP3    H237050   5.234   4.355   7.394 -3.1509  2.3709 -1.3335
 5139TIP3   OH237051   4.677   3.910   0.026  0.2592 -0.1733 -0.4345
 5139TIP3    H137052   4.726   3.983  -0.011  0.8020  0.4003  1.3595
 5139TIP3    H237053   4.743   3.853   0.065 -0.4153  0.3851  1.6339
 5140TIP3   OH237054   3.939   5.667   7.887  0.6666 -0.4322  0.0330
 5140TIP3    H137055   3.886   5.742   7.860  0.3841 -0.4590  0.4923
 5140TIP3    H237056   3.894   5.633   7.965 -0.4281 -2.3694 -1.3228
 5141TIP3   OH237057   4.431   5.228   0.629  0.6010 -0.4399 -0.0770
 5141TIP3    H137058   4.488   5.162   0.589  1.9712  0.0714  0.9283
 5141TIP3    H237059   4.371   5.254   0.559  2.6156  0.1002 -1.7019
 5142TIP3   OH237060   0.133   2.589   7.756 -0.5823 -0.0955  0.3313
 5142TIP3    H137061   0.109   2.682   7.762 -1.9527 -0.3713 -0.5015
 5142TIP3    H237062   0.202   2.587   7.689 -2.1133  0.0965 -1.3364
 5143TIP3   OH237063   0.933   4.959   1.249 -0.2534 -0.3820  0.7107
 5143TIP3    H137064   0.871   4.916   1.308  0.0537 -0.2862  1.1057
 5143TIP3    H237065   1.015   4.911   1.263 -0.2340 -0.4986  0.2017
 5144TIP3   OH237066   2.092   2.233   0.060 -0.0095  0.1695  0.5910
 5144TIP3    H137067   2.074   2.144   0.031  1.0154 -0.3198  1.4241
 5144TIP3    H237068   2.086   2.286  -0.020 -0.3933 -0.6651  0.0563
 5145TIP3   OH237069   4.086   4.407   2.278 -0.5209 -0.3958 -0.0578
 5145TIP3    H137070   4.121   4.328   2.318  0.2486  0.6505  1.4220
 5145TIP3    H237071   3.993   4.406   2.299 -0.4688 -0.7911  0.1442
 5146TIP3   OH237072   0.847   5.635   8.117  0.9004  0.4342  0.0626
 5146TIP3    H137073   0.832   5.590   8.034 -0.6205  0.7313  0.1555
 5146TIP3    H237074   0.919   5.695   8.099 -0.6490  1.9182 -1.6205
 5147TIP3   OH237075   4.245   5.840   9.126 -0.3371  0.2595 -0.1611
 5147TIP3    H137076   4.251   5.879   9.213 -0.9084  1.9266 -0.8167
 5147TIP3    H237077   4.332   5.854   9.088 -0.7513  1.6446 -0.6606
 5148TIP3   OH237078   6.363   4.499   1.454  0.2637  0.3119 -0.8329
 5148TIP3    H137079   6.278   4.464   1.427 -0.3898  0.7138  0.5853
 5148TIP3    H237080   6.369   4.476   1.547  2.9010 -2.0150 -1.4485
 5149TIP3   OH237081   5.191   3.671   8.696 -0.3713 -0.0405 -0.1471
 5149TIP3    H137082   5.260   3.732   8.670 -1.3728  1.4582  0.6216
 5149TIP3    H237083   5.237   3.587   8.703  1.1900  0.7275 -0.5413
 5150TIP3   OH237084   2.813   6.289   1.210 -0.4674  0.4700  0.0090
 5150TIP3    H137085   2.822   6.312   1.303 -1.2287 -0.4915  0.3316
 5150TIP3    H237086   2.847   6.200   1.203  0.1509  0.7480 -0.7675
 5151TIP3   OH237087   1.589   2.334   8.709 -0.1390 -0.2094  0.8245
 5151TIP3    H137088   1.565   2.381   8.789 -3.1829 -1.5146  0.8461
 5151TIP3    H237089   1.568   2.395   8.638  0.3461  0.1166  0.9611
 5152TIP3   OH237090   0.030   0.451   0.048 -0.7403  0.3883  0.0675
 5152TIP3    H137091  -0.051   0.412   0.080 -0.2989  0.3770  1.2084
 5152TIP3    H237092   0.024   0.543   0.073 -0.6361  0.5014 -0.3191
 5153TIP3   OH237093   3.453   0.446   1.267 -0.1943 -0.4042 -0.6200
 5153TIP3    H137094   3.461   0.450   1.172 -0.3344 -0.6219 -0.6421
 5153TIP3    H237095   3.539   0.416   1.298 -0.9243 -2.9578 -0.8677
 5154TIP3   OH237096   6.467   2.904   0.144 -0.3368  0.4105 -0.3087
 5154TIP3    H137097   6.428   2.925   0.059  0.9516  0.2704 -0.9634
 5154TIP3    H237098   6.551   2.949   0.143  0.4735 -1.0449  0.1513
 5155TIP3   OH237099   6.196   4.266   0.971 -0.3238 -0.2654 -0.1122
 5155TIP3    H137100   6.243   4.183   0.960  1.9140  1.0567 -1.3166
 5155TIP3    H237101   6.186   4.301   0.883 -2.7564  0.0194  0.2138
 5156TIP3   OH237102   2.534   0.728   3.175 -0.1538 -0.0172 -0.7459
 5156TIP3    H137103   2.462   0.787   3.152 -1.5477 -0.5093  1.9482
 5156TIP3    H237104   2.496   0.640   3.171  0.2348 -0.2857  0.7715
 5157TIP3   OH237105   5.876   4.039   0.501  0.7098 -0.1843  0.0004
 5157TIP3    H137106   5.786   4.006   0.495  0.3680  0.9765 -3.0406
 5157TIP3    H237107   5.930   3.966   0.471  0.5231 -0.1229 -0.5106
 5158TIP3   OH237108   1.683   0.400   2.150 -0.2159 -0.5217 -0.0888
 5158TIP3    H137109   1.732   0.373   2.227  0.9171 -1.0067 -0.9545
 5158TIP3    H237110   1.626   0.326   2.131 -0.1253 -0.6117 -0.0149
 5159TIP3   OH237111   5.403   0.961   8.674 -0.5594 -0.2047 -0.0000
 5159TIP3    H137112   5.380   1.052   8.695 -3.6721 -0.7636 -0.4968
 5159TIP3    H237113   5.397   0.957   8.578 -1.2795 -1.0956  0.0672
 5160TIP3   OH237114   1.210   0.945   2.523  0.9303 -0.6296 -0.3544
 5160TIP3    H137115   1.121   0.909   2.516 -0.6791  3.1903 -2.8162
 5160TIP3    H237116   1.224   0.957   2.617 -1.6112 -0.3448  0.0552
 5161TIP3   OH237117   6.101   4.251   1.919 -0.3000  0.2610 -0.4893
 5161TIP3    H137118   6.126   4.208   1.837  0.6858 -0.0886 -0.0272
 5161TIP3    H237119   6.134   4.340   1.909 -1.1460  0.5355 -0.9024
 5162TIP3   OH237120   3.651   5.391   8.016 -0.3216 -0.3260 -0.0318
 5162TIP3    H137121   3.646   5.360   7.926  0.6977 -1.1698  0.1870
 5162TIP3    H237122   3.573   5.354   8.058  0.4849 -2.0149  0.0358
 5163TIP3   OH237123   3.878   1.855   1.052  0.3617  0.2934  0.0841
 5163TIP3    H137124   3.969   1.836   1.025  0.7031  1.4479  0.3554
 5163TIP3    H237125   3.879   1.949   1.073 -1.3302  0.7829 -1.7005
 5164TIP3   OH237126   3.083   2.994   2.957  0.2533 -0.6457 -0.1872
 5164TIP3    H137127   3.080   2.902   2.982 -0.4302 -0.9182 -1.1744
 5164TIP3    H237128   3.029   3.039   3.022  0.5701 -0.9503  0.2858
 5165TIP3   OH237129   0.641   5.887   8.972 -0.2022  1.0364 -0.4304
 5165TIP3    H137130   0.683   5.873   8.887  0.1711  1.5513 -0.3337
 5165TIP3    H237131   0.680   5.821   9.029  0.2076  1.2677 -0.4367
 5166TIP3   OH237132   3.557   6.081   2.114  0.0521 -0.0842 -0.1605
 5166TIP3    H137133   3.568   6.006   2.055  0.2480  1.0132 -1.5688
 5166TIP3    H237134   3.505   6.144   2.063 -2.1269 -0.1376  1.8247
 5167TIP3   OH237135   5.603   1.543   2.751  0.7208 -0.7299  0.2388
 5167TIP3    H137136   5.645   1.462   2.778 -1.2557 -2.0065 -0.3387
 5167TIP3    H237137   5.629   1.607   2.819  2.0431 -1.8891  0.8758
 5168TIP3   OH237138   3.468   2.330   0.556 -0.6137  0.4128  0.2817
 5168TIP3    H137139   3.447   2.363   0.643 -1.3433  0.4243  0.1128
 5168TIP3    H237140   3.507   2.244   0.571  1.5800  1.4135  0.7492
 5169TIP3   OH237141   0.231   0.639   8.160  0.0919 -0.1587 -0.0809
 5169TIP3    H137142   0.234   0.720   8.211 -1.5313 -0.0933 -0.0628
 5169TIP3    H237143   0.231   0.669   8.069 -1.4096 -0.0715 -0.0734
 5170TIP3   OH237144   2.981   6.097   0.112 -0.7114 -0.5562  0.1665
 5170TIP3    H137145   3.050   6.072   0.173 -1.3620 -2.3179  0.2463
 5170TIP3    H237146   2.974   6.023   0.052 -2.7020 -0.5575  0.3244
 5171TIP3   OH237147   6.677   0.330   1.511 -0.0279  0.2858 -0.1123
 5171TIP3    H137148   6.708   0.269   1.443  1.4363  0.5353  0.2877
 5171TIP3    H237149   6.700   0.287   1.593 -1.8620 -0.0477  0.2620
 5172TIP3   OH237150   6.369   5.350   2.875 -0.0609  0.4929  0.3795
 5172TIP3    H137151   6.437   5.379   2.814 -1.1315  1.7951 -0.2493
 5172TIP3    H237152   6.355   5.258   2.853 -0.1050  0.8218 -1.0415
 5173TIP3   OH237153   3.109   6.455   0.735  0.0983 -0.2025 -0.3675
 5173TIP3    H137154   3.093   6.436   0.828  1.0602 -2.0603 -0.5273
 5173TIP3    H237155   3.202   6.437   0.723 -0.5798 -2.9695 -2.3035
 5174TIP3   OH237156   3.157   0.701   8.182  0.1584  0.2232  0.2705
 5174TIP3    H137157   3.182   0.713   8.091 -0.2839  0.2275  0.1443
 5174TIP3    H237158   3.078   0.754   8.192 -1.2313 -1.7006 -0.0239
 5175TIP3   OH237159   5.443   3.619   1.577 -0.2198 -0.1466  0.0422
 5175TIP3    H137160   5.482   3.646   1.494  0.4612 -0.2112  0.3320
 5175TIP3    H237161   5.448   3.523   1.575  2.7226 -0.1372  1.4664
 5176TIP3   OH237162   1.251   5.944   8.444 -0.1921  0.0498 -0.3664
 5176TIP3    H137163   1.302   5.874   8.403 -0.1983 -0.0126 -0.2679
 5176TIP3    H237164   1.222   5.998   8.371 -1.5319 -0.9423 -0.5946
 5177TIP3   OH237165   0.576   4.050   9.188 -0.1327 -0.6152 -0.0766
 5177TIP3    H137166   0.648   4.080   9.132 -0.8280  2.2230  0.4106
 5177TIP3    H237167   0.584   4.101   9.268 -1.5797 -1.6420  0.7772
 5178TIP3   OH237168   3.216   4.538   7.662 -0.6520 -0.0524 -0.5473
 5178TIP3    H137169   3.282   4.477   7.631 -1.8202 -0.9121 -1.4760
 5178TIP3    H237170   3.169   4.566   7.582  0.0464  2.3574 -0.2091
 5179TIP3   OH237171   2.181   4.273   1.035  0.1389 -0.0875  0.4776
 5179TIP3    H137172   2.127   4.242   1.107 -0.0061 -1.3677 -0.1423
 5179TIP3    H237173   2.185   4.198   0.975  0.2085  0.9597 -0.8591
 5180TIP3   OH237174   5.881   0.958   0.849  0.3813 -0.5888  0.3131
 5180TIP3    H137175   5.817   0.928   0.786 -2.0475  1.8815  1.4062
 5180TIP3    H237176   5.898   1.050   0.825  1.5710 -0.4464  1.5630
 5181TIP3   OH237177   6.174   0.172   0.020 -0.5760  0.7346  0.3636
 5181TIP3    H137178   6.114   0.182  -0.054 -0.1724 -0.8166 -0.2000
 5181TIP3    H237179   6.256   0.211  -0.011 -1.3482  3.4057  1.3455
 5182TIP3   OH237180   5.891   3.696   1.873 -0.0546  0.0291  0.2019
 5182TIP3    H137181   5.845   3.719   1.793 -1.2239  1.1921  1.1571
 5182TIP3    H237182   5.916   3.605   1.862 -1.1239 -0.1293 -1.0358
 5183TIP3   OH237183   1.979   2.567   9.151 -0.0120 -0.8279  0.3988
 5183TIP3    H137184   1.968   2.478   9.117  0.3725 -0.5473 -0.4921
 5183TIP3    H237185   1.965   2.558   9.245 -2.2313 -1.4572  0.0763
 5184TIP3   OH237186   2.326   4.235   9.168 -0.1007 -0.1543  0.3167
 5184TIP3    H137187   2.323   4.145   9.134 -0.1018 -0.1520  0.3109
 5184TIP3    H237188   2.250   4.241   9.225  0.0592 -0.2491  0.5417
 5185TIP3   OH237189   5.634   5.498   0.779 -0.1823  0.2925  0.0787
 5185TIP3    H137190   5.689   5.555   0.724 -2.2272 -0.1566 -2.6322
 5185TIP3    H237191   5.676   5.412   0.774 -0.2679  0.2884 -0.6875
 5186TIP3   OH237192   0.474   4.819   2.624  0.0895  0.3626 -0.1641
 5186TIP3    H137193   0.445   4.808   2.714  1.4671  0.3066  0.3083
 5186TIP3    H237194   0.409   4.772   2.572 -1.2229  1.1690  0.7044
 5187TIP3   OH237195   5.788   5.623   7.236  0.0481 -0.4736  0.8561
 5187TIP3    H137196   5.760   5.701   7.284 -0.1837 -0.0444  0.0490
 5187TIP3    H237197   5.878   5.643   7.210 -0.3623  0.0332 -0.3037
 5188TIP3   OH237198   3.250   4.789   7.779 -0.2239 -0.0315  0.2690
 5188TIP3    H137199   3.329   4.809   7.728 -1.0633  0.6734 -0.7997
 5188TIP3    H237200   3.238   4.694   7.767  0.5269 -0.1695  0.5572
 5189TIP3   OH237201   4.717   4.629   7.947  0.3520 -0.2814  0.4026
 5189TIP3    H137202   4.766   4.634   8.029 -1.1661 -0.7401  1.3896
 5189TIP3    H237203   4.681   4.716   7.935 -0.6597 -0.5851  1.0624
 5190TIP3   OH237204   6.316   0.064   8.946  0.2822  0.1021  0.5951
 5190TIP3    H137205   6.390   0.010   8.972  0.6402  0.4161  0.2334
 5190TIP3    H237206   6.278   0.017   8.871 -0.6483 -0.7142  1.5341
 5191TIP3   OH237207   0.395   0.246   2.251  1.1283 -0.0795  0.4071
 5191TIP3    H137208   0.408   0.315   2.187  0.6864 -1.6658 -1.5118
 5191TIP3    H237209   0.440   0.276   2.330 -0.6969  3.2369  0.3409
 5192TIP3   OH237210   5.902   0.885   8.046  0.2576 -0.6154  0.1140
 5192TIP3    H137211   5.910   0.803   8.095  0.6095 -0.6058  0.0733
 5192TIP3    H237212   5.979   0.887   7.990  2.2897  1.5079  2.7230
 5193TIP3   OH237213   3.522   5.497   0.885  0.2314 -0.3662  0.1377
 5193TIP3    H137214   3.493   5.415   0.844  0.4218 -0.5764  0.4262
 5193TIP3    H237215   3.611   5.479   0.915  0.9569  0.5011 -1.3786
 5194TIP3   OH237216   2.946   4.449   7.846 -0.2358  0.8083  0.1464
 5194TIP3    H137217   2.863   4.411   7.819 -1.9913  2.2645  2.9999
 5194TIP3    H237218   2.952   4.531   7.797  1.2060 -0.6754 -2.4044
 5195TIP3   OH237219   6.367   0.087   0.242 -0.1925 -0.4120 -0.3036
 5195TIP3    H137220   6.290   0.088   0.184 -0.5631  1.0111  0.1765
 5195TIP3    H237221   6.354   0.010   0.297 -1.3505 -0.1272 -0.1456
 5196TIP3   OH237222   1.348   6.032   8.147 -0.5505 -0.1788  0.1533
 5196TIP3    H137223   1.378   6.096   8.083 -2.8613 -0.5383 -1.4517
 5196TIP3    H237224   1.427   5.987   8.176  0.8674  1.8266 -0.3959
 5197TIP3   OH237225   3.669   3.829   8.035  0.3931 -0.5982  0.0724
 5197TIP3    H137226   3.619   3.909   8.051  0.4323 -0.5951  0.1776
 5197TIP3    H237227   3.659   3.814   7.941  0.0741 -0.6802  0.1204
 5198TIP3   OH237228   2.584   0.953   1.889  0.2987 -0.3295  0.5694
 5198TIP3    H137229   2.520   0.892   1.926  0.8243 -0.9634  0.4568
 5198TIP3    H237230   2.599   1.016   1.959 -1.3280  0.5284  0.1711
 5199TIP3   OH237231   1.334   3.343   0.553  0.2241 -0.4220  0.2737
 5199TIP3    H137232   1.295   3.399   0.620 -1.4917 -2.7018  1.2740
 5199TIP3    H237233   1.426   3.338   0.577  0.3663  1.6460  0.3439
 5200TIP3   OH237234   0.246   0.610   1.831 -0.2570 -0.5397 -0.5619
 5200TIP3    H137235   0.196   0.530   1.848  0.8018 -0.7159  2.1294
 5200TIP3    H237236   0.327   0.580   1.791 -0.1233 -0.7509 -0.1316
 5201TIP3   OH237237   0.883   5.751   2.929 -0.4396  0.6588  0.1289
 5201TIP3    H137238   0.942   5.676   2.924  0.8267  1.6060  0.4443
 5201TIP3    H237239   0.824   5.739   2.854 -2.1330 -2.1171  1.7459
 5202TIP3   OH237240   3.228   3.318   8.880  0.0543 -0.9613  0.0407
 5202TIP3    H137241   3.303   3.261   8.890  0.4861 -0.7858 -1.8446
 5202TIP3    H237242   3.209   3.318   8.786 -1.5878 -0.0982  0.3185
 5203TIP3   OH237243   0.124   3.526   2.046 -0.6937  0.1286 -0.2659
 5203TIP3    H137244   0.144   3.444   2.002  0.9332  1.3376 -1.9132
 5203TIP3    H237245   0.067   3.573   1.985  0.5847  1.3118 -0.5969
 5204TIP3   OH237246   5.395   6.092   7.635 -0.5623  0.6945 -0.3287
 5204TIP3    H137247   5.322   6.060   7.582  0.0761 -0.4967 -0.5296
 5204TIP3    H237248   5.452   6.137   7.573  0.0623 -0.4846 -0.6329
 5205TIP3   OH237249   2.601   0.284   8.601  0.5215  0.8709 -0.1738
 5205TIP3    H137250   2.597   0.366   8.553  1.0940  2.1576  1.8241
 5205TIP3    H237251   2.694   0.262   8.603  0.5082  0.8485  0.3351
 5206TIP3   OH237252   0.973   0.289   9.163 -0.3626  0.2640 -0.5729
 5206TIP3    H137253   1.023   0.303   9.243  0.5126 -0.1658 -1.0327
 5206TIP3    H237254   0.952   0.196   9.163 -2.0738  0.6020  0.1138
 5207TIP3   OH237255   1.561   1.166   1.726 -0.1328 -0.2616 -0.0438
 5207TIP3    H137256   1.476   1.210   1.725  0.4219  0.8483 -0.0902
 5207TIP3    H237257   1.543   1.080   1.763 -1.1752  0.1689  0.4965
 5208TIP3   OH237258   2.308   0.812   1.216  0.2899 -0.0677  0.2827
 5208TIP3    H137259   2.271   0.760   1.286  0.3755 -2.0584 -1.0654
 5208TIP3    H237260   2.378   0.757   1.179  2.1716  2.0720  0.4202
 5209TIP3   OH237261   2.671   4.892   1.151 -0.0924 -0.1649 -0.1149
 5209TIP3    H137262   2.605   4.835   1.190 -1.0066  2.2649  2.2268
 5209TIP3    H237263   2.625   4.974   1.134  2.1281  1.3998  1.0043
 5210TIP3   OH237264   5.839   0.619   2.414 -0.0012  0.6419 -0.4478
 5210TIP3    H137265   5.873   0.678   2.482 -0.5157 -0.6728  1.0073
 5210TIP3    H237266   5.912   0.560   2.395  0.1554  1.0315 -1.1004
 5211TIP3   OH237267   3.376   3.168   1.726 -0.4719 -0.4602  0.3421
 5211TIP3    H137268   3.406   3.139   1.640  0.1435 -1.7538  0.9678
 5211TIP3    H237269   3.298   3.116   1.744 -0.9618  0.2519  0.3091
 5212TIP3   OH237270   2.769   4.119   8.848  1.1324 -0.1504  0.1549
 5212TIP3    H137271   2.811   4.191   8.799  1.4612  0.0323  0.7031
 5212TIP3    H237272   2.742   4.159   8.930 -0.5647 -0.1407 -0.3637
 5213TIP3   OH237273   2.740   6.240   0.518 -0.1780  1.0028 -0.1119
 5213TIP3    H137274   2.738   6.156   0.472  0.2473 -0.5873  2.6060
 5213TIP3    H237275   2.677   6.294   0.470 -0.7771 -0.9581 -1.6981
 5214TIP3   OH237276   2.292   5.150   8.863 -0.7210  0.2292  0.0825
 5214TIP3    H137277   2.198   5.147   8.844 -0.4653 -1.0537 -1.0474
 5214TIP3    H237278   2.300   5.109   8.949 -0.9774 -1.8364 -0.8286
 5215TIP3   OH237279   2.758   5.475   1.030  0.2583  0.0557 -0.2285
 5215TIP3    H137280   2.795   5.389   1.012  1.8459  0.8821 -1.1577
 5215TIP3    H237281   2.752   5.479   1.125 -2.3789 -2.0508 -0.1980
 5216TIP3   OH237282   0.413   5.188   0.595 -0.0622 -0.0552 -0.2540
 5216TIP3    H137283   0.394   5.268   0.547  0.8228  1.2614  1.4509
 5216TIP3    H237284   0.454   5.218   0.676  0.2897 -2.2467  0.4583
 5217TIP3   OH237285   3.345   2.240   1.586 -0.2340 -0.8326  0.0948
 5217TIP3    H137286   3.440   2.254   1.589 -0.0560 -2.1068  2.3363
 5217TIP3    H237287   3.332   2.180   1.512  0.8207 -1.3156  0.2850
 5218TIP3   OH237288   3.933   5.436   1.558  0.4129 -0.2802  0.2580
 5218TIP3    H137289   3.905   5.345   1.567  1.6879 -0.6473  0.6566
 5218TIP3    H237290   3.989   5.452   1.634  0.5421  0.7101 -0.0292
 5219TIP3   OH237291   3.278   0.086   0.704 -0.3836 -0.4629  0.2589
 5219TIP3    H137292   3.192   0.076   0.665 -0.3777  0.5296 -0.0469
 5219TIP3    H237293   3.265   0.147   0.777  0.0528 -0.2793  0.1907
 5220TIP3   OH237294   1.030   0.869   0.980  0.1644 -0.1737  0.5730
 5220TIP3    H137295   1.079   0.948   1.002  1.1445 -0.7438  0.4582
 5220TIP3    H237296   1.066   0.840   0.896 -1.5676  0.3622 -0.3991
 5221TIP3   OH237297   4.506   0.980   1.241 -0.3785  0.0819  0.6621
 5221TIP3    H137298   4.523   1.005   1.332 -0.2836  0.8456  0.4431
 5221TIP3    H237299   4.480   1.062   1.199 -1.9699 -0.5330  0.3599
 5222TIP3   OH237300   1.739   4.278   2.433 -0.1648  0.1779 -0.2066
 5222TIP3    H137301   1.785   4.231   2.502  0.7185  0.0280 -0.8699
 5222TIP3    H237302   1.712   4.360   2.474  1.1017  0.4648  0.0994
 5223TIP3   OH237303   1.441   2.850   8.379  0.1246 -0.1889 -0.2289
 5223TIP3    H137304   1.394   2.832   8.298  1.5073 -1.3166 -0.8425
 5223TIP3    H237305   1.526   2.883   8.350  0.7604 -0.9217  0.7229
 5224TIP3   OH237306   2.660   4.363   1.136 -0.3233  0.0262  0.2513
 5224TIP3    H137307   2.653   4.269   1.157  0.6781 -0.6032 -2.0116
 5224TIP3    H237308   2.570   4.395   1.145 -1.2575 -1.8074 -1.6792
 5225TIP3   OH237309   6.140   4.593   8.568 -0.3972  0.1994 -0.1117
 5225TIP3    H137310   6.062   4.564   8.522 -1.3958  0.5757  1.2760
 5225TIP3    H237311   6.213   4.559   8.516 -1.4515  0.5096 -1.8795
 5226TIP3   OH237312   1.365   5.725   0.466  0.0431 -0.0533  0.2829
 5226TIP3    H137313   1.386   5.760   0.379  0.3025 -2.1324 -0.5413
 5226TIP3    H237314   1.425   5.771   0.525 -0.9156  2.2509 -0.3916
 5227TIP3   OH237315   5.993   3.724   1.288 -0.0411  0.5221  0.1519
 5227TIP3    H137316   6.088   3.733   1.285  0.2012 -1.7601 -0.1211
 5227TIP3    H237317   5.970   3.747   1.379  0.3371  3.9502 -0.4674
 5228TIP3   OH237318   6.607   1.173   7.794 -0.1375  0.1439 -0.4941
 5228TIP3    H137319   6.677   1.238   7.788  1.4403 -1.2394  1.4809
 5228TIP3    H237320   6.559   1.197   7.873 -0.4123 -0.2678 -0.5308
 5229TIP3   OH237321   6.329   1.666   2.924  0.6160  0.2071 -0.6777
 5229TIP3    H137322   6.325   1.652   3.018 -0.1998  1.6210 -0.4749
 5229TIP3    H237323   6.296   1.754   2.911 -0.3386 -0.3427 -2.3930
 5230TIP3   OH237324   3.219   6.285   0.092  0.4581  0.1966  1.0553
 5230TIP3    H137325   3.132   6.249   0.077  0.8855 -1.7853  2.8471
 5230TIP3    H237326   3.276   6.238   0.032  0.2946  1.8875 -0.5216
 5231TIP3   OH237327   6.068   3.982   0.946  0.2197  0.3461  0.5140
 5231TIP3    H137328   6.146   3.928   0.933 -0.3173 -0.6711  1.3284
 5231TIP3    H237329   6.069   4.044   0.874  1.8580  0.4545  0.5908
 5232TIP3   OH237330   5.281   5.443   8.107 -0.5373  0.1831  0.4675
 5232TIP3    H137331   5.191   5.449   8.075 -0.9501 -0.9814  1.3639
 5232TIP3    H237332   5.275   5.395   8.190  0.8033  0.8919  1.0240
 5233TIP3   OH237333   3.931   3.151   1.988 -0.1326  0.0129 -0.2234
 5233TIP3    H137334   3.878   3.113   2.057  0.4719  0.9529  0.7828
 5233TIP3    H237335   3.995   3.083   1.967 -1.6242 -1.1116 -1.4058
 5234TIP3   OH237336   6.159   6.024   1.620  0.5823 -0.3124  0.2262
 5234TIP3    H137337   6.115   5.953   1.668 -1.8922  0.3867 -0.8319
 5234TIP3    H237338   6.188   6.085   1.688 -0.0863 -0.8211  0.9862
 5235TIP3   OH237339   1.704   5.918   6.892  0.3942  0.7038 -0.0617
 5235TIP3    H137340   1.790   5.880   6.912  0.9407  0.8681 -1.9340
 5235TIP3    H237341   1.642   5.848   6.912  0.9985  0.3932  0.7901
 5236TIP3   OH237342   3.143   1.689   2.743  0.0236 -0.5358 -0.7832
 5236TIP3    H137343   3.154   1.594   2.742  0.5860 -0.4682 -1.6542
 5236TIP3    H237344   3.088   1.706   2.820  2.8563 -1.2559  1.5615
 5237TIP3   OH237345   6.158   5.531   2.895  0.1773  0.1925 -0.0720
 5237TIP3    H137346   6.233   5.474   2.914  0.5996  0.3668 -1.1488
 5237TIP3    H237347   6.090   5.471   2.864  0.4232  0.1980 -0.6373
 5238TIP3   OH237348   1.189   3.680   7.663 -0.3832  0.7723 -0.4441
 5238TIP3    H137349   1.093   3.679   7.660 -0.4227  2.3742 -1.0263
 5238TIP3    H237350   1.216   3.621   7.592 -1.0450  3.1371 -2.8678
 5239TIP3   OH237351   1.722   5.602   7.732 -0.1341  0.0397 -0.0954
 5239TIP3    H137352   1.710   5.515   7.695 -1.2021  0.3422 -0.5020
 5239TIP3    H237353   1.817   5.612   7.739 -0.0037 -1.6658  1.2189
 5240TIP3   OH237354   0.401   4.020   8.447 -0.0837  0.8075  0.3057
 5240TIP3    H137355   0.469   4.016   8.380  0.4227  1.6288  0.7539
 5240TIP3    H237356   0.444   4.059   8.523 -0.4520 -0.7566  1.3678
 5241TIP3   OH237357   2.195   0.909   8.255  0.2538  0.4040 -0.6334
 5241TIP3    H137358   2.177   0.971   8.327 -1.3594 -0.2567 -0.4262
 5241TIP3    H237359   2.288   0.889   8.264  0.2769  0.9767  0.7772
 5242TIP3   OH237360   2.985   3.505   9.202 -0.3124  0.4553  0.6613
 5242TIP3    H137361   3.043   3.542   9.135 -1.4885 -1.9570 -1.8922
 5242TIP3    H237362   3.029   3.424   9.229 -1.1975 -0.0371  0.6748
 5243TIP3   OH237363   1.293   2.362   9.022  0.6380  0.1649 -0.0702
 5243TIP3    H137364   1.285   2.268   9.007  2.5299 -0.4098  1.9070
 5243TIP3    H237365   1.230   2.402   8.962 -1.4275 -2.4274  0.1831
 5244TIP3   OH237366   6.292   3.826   0.885 -0.1744 -0.2626 -0.5828
 5244TIP3    H137367   6.301   3.854   0.794  2.8493  0.5444 -0.1493
 5244TIP3    H237368   6.348   3.749   0.892 -0.7190 -0.5732  0.4856
 5245TIP3   OH237369   3.034   5.190   1.571  0.2976  0.1460 -0.5404
 5245TIP3    H137370   3.122   5.218   1.543  1.0928 -0.1565  1.4915
 5245TIP3    H237371   3.047   5.101   1.605 -0.7799  0.1166 -0.1780
 5246TIP3   OH237372   3.951   0.664   8.804 -0.1513  0.1728  0.2399
 5246TIP3    H137373   3.983   0.732   8.864 -0.7010  0.8603 -0.2238
 5246TIP3    H237374   4.006   0.673   8.726 -1.2050  1.1386 -0.4304
 5247TIP3   OH237375   5.555   2.778   2.391  0.7104  0.4800  0.6951
 5247TIP3    H137376   5.616   2.776   2.465  1.2682  0.6890  0.2497
 5247TIP3    H237377   5.531   2.870   2.381 -0.5690  0.2668  1.5700
 5248TIP3   OH237378   4.792   3.139   2.154  0.1752  0.2572  0.6663
 5248TIP3    H137379   4.766   3.210   2.095 -0.0305 -0.5470 -0.2301
 5248TIP3    H237380   4.827   3.184   2.231 -1.1854  1.3468  0.6900
 5249TIP3   OH237381   4.822   3.888   0.875 -0.2913 -0.2033 -0.0623
 5249TIP3    H137382   4.826   3.868   0.781 -1.5904 -0.2000 -0.1397
 5249TIP3    H237383   4.737   3.855   0.902 -0.8968  1.8179  0.6329
 5250TIP3   OH237384   2.961   3.851   9.194  0.1203  0.7367  0.5836
 5250TIP3    H137385   2.984   3.921   9.133  0.0405  1.9136  1.8270
 5250TIP3    H237386   3.003   3.773   9.160 -1.4436  0.8974 -1.9687
 5251TIP3   OH237387   0.180   5.749   2.689 -0.2508 -0.1598  0.3068
 5251TIP3    H137388   0.137   5.665   2.676  0.7481 -0.7006  0.4250
 5251TIP3    H237389   0.111   5.814   2.674 -0.8420 -0.9718 -0.5663
 5252TIP3   OH237390   2.979   6.492   1.495 -0.2999 -0.2023 -0.1021
 5252TIP3    H137391   2.986   6.518   1.587 -0.4021 -1.3961  0.2540
 5252TIP3    H237392   2.885   6.497   1.476 -0.5214 -1.7548  0.4264
 5253TIP3   OH237393   4.198   4.651   8.528  0.3410 -0.5320  0.4117
 5253TIP3    H137394   4.209   4.626   8.436 -0.5315  1.4033 -0.2913
 5253TIP3    H237395   4.233   4.577   8.578 -1.0606 -2.5819 -1.4399
 5254TIP3   OH237396   1.950   0.033   9.013  0.0842  0.3950 -0.0559
 5254TIP3    H137397   1.929   0.014   8.922 -2.5572  2.1540  0.0503
 5254TIP3    H237398   2.039   0.068   9.011  0.9621 -1.7599 -1.5655
 5255TIP3   OH237399   4.782   3.247   0.438  0.4337 -0.0321 -0.0536
 5255TIP3    H137400   4.851   3.205   0.387  1.3897  1.7852 -0.3360
 5255TIP3    H237401   4.754   3.180   0.501  1.2463 -1.3529 -1.0414
 5256TIP3   OH237402   1.991   6.419   8.984 -0.3091  0.4720 -0.2076
 5256TIP3    H137403   2.068   6.476   8.980 -0.9225  1.5113  1.4117
 5256TIP3    H237404   1.934   6.461   9.048 -1.0419 -1.6998  0.6703
 5257TIP3   OH237405   4.928   0.965   2.495 -0.8480  0.1158  0.7777
 5257TIP3    H137406   4.889   0.905   2.559 -1.0880 -1.3936 -0.6841
 5257TIP3    H237407   4.862   1.034   2.484 -1.4365 -0.3788  1.1116
 5258TIP3   OH237408   5.483   0.618   8.069  0.5763  0.2755  0.6315
 5258TIP3    H137409   5.468   0.681   7.999  1.3008 -1.1037 -0.8215
 5258TIP3    H237410   5.396   0.580   8.086  0.6902 -0.7175 -0.8690
 5259TIP3   OH237411   1.109   4.074   8.630 -0.3508 -0.1676 -0.0716
 5259TIP3    H137412   1.202   4.052   8.640 -0.4658 -0.3010  0.7493
 5259TIP3    H237413   1.067   4.040   8.709 -0.9244  0.8761  0.0931
 5260TIP3   OH237414   3.705   3.750   1.354  0.0825 -0.7342  0.4662
 5260TIP3    H137415   3.684   3.739   1.446  0.2124  0.6478  0.6784
 5260TIP3    H237416   3.784   3.803   1.353 -0.3873 -0.0117 -0.4414
 5261TIP3   OH237417   3.980   4.293   8.123  0.1402 -0.4531 -0.3184
 5261TIP3    H137418   4.073   4.273   8.139  0.4742  0.5524 -0.9269
 5261TIP3    H237419   3.946   4.315   8.210  0.7767  0.3487 -0.2565
 5262TIP3   OH237420   4.583   4.225   1.415  0.1440 -0.7827  0.2154
 5262TIP3    H137421   4.505   4.265   1.377 -0.5680  0.0057  2.3328
 5262TIP3    H237422   4.549   4.164   1.481  1.1827  1.4130  3.0001
 5263TIP3   OH237423   1.977   0.241   8.197  0.5598 -0.7374 -0.4327
 5263TIP3    H137424   1.945   0.328   8.222 -2.7701 -1.2845 -2.2291
 5263TIP3    H237425   2.029   0.257   8.118  1.2113 -0.2624  0.0788
 5264TIP3   OH237426   1.728   2.774   0.715 -0.5398 -0.2396  0.5062
 5264TIP3    H137427   1.807   2.720   0.716 -0.3602  0.0188  0.6884
 5264TIP3    H237428   1.687   2.755   0.631 -0.3245 -0.4372  0.4428
 5265TIP3   OH237429   5.923   1.518   2.125  0.1979  0.1631  0.1921
 5265TIP3    H137430   5.908   1.496   2.033  2.0634 -1.0566  0.1341
 5265TIP3    H237431   5.973   1.600   2.123  1.3060 -0.5006  0.0486
 5266TIP3   OH237432   5.484   3.195   8.996  0.2949  0.2375 -0.0802
 5266TIP3    H137433   5.498   3.124   9.059  2.6297  0.3413 -0.3942
 5266TIP3    H237434   5.455   3.150   8.916  0.5100 -0.2430  0.1087
 5267TIP3   OH237435   1.974   1.953   7.726 -0.5816 -0.5878  0.4667
 5267TIP3    H137436   1.905   2.005   7.684  1.9429  1.7682 -1.0937
 5267TIP3    H237437   2.007   1.896   7.657  0.9096  0.4065  0.3186
 5268TIP3   OH237438   5.866   0.946   3.065  0.3688  0.1918 -1.0138
 5268TIP3    H137439   5.835   0.928   2.976 -1.4804 -1.1138 -0.1817
 5268TIP3    H237440   5.896   0.861   3.097 -0.9304  0.1748  0.2714
 5269TIP3   OH237441   4.694   2.439   1.651  0.6160 -0.2306 -0.0594
 5269TIP3    H137442   4.624   2.456   1.589  1.7750  1.3171 -1.0186
 5269TIP3    H237443   4.773   2.433   1.597  1.2365 -2.1473  0.9603
 5270TIP3   OH237444   1.862   4.136   0.941  0.3325  0.0526  0.3493
 5270TIP3    H137445   1.858   4.224   0.904 -3.4175 -1.1304 -2.8157
 5270TIP3    H237446   1.801   4.139   1.016 -1.1471 -0.1228 -0.7942
 5271TIP3   OH237447   5.017   0.450   0.323 -0.8244  0.0916  0.2056
 5271TIP3    H137448   5.100   0.416   0.355  0.4986  1.6905 -1.2768
 5271TIP3    H237449   5.003   0.531   0.372  1.8192  3.2040 -3.5467
 5272TIP3   OH237450   2.617   0.068   1.007  0.0420 -0.2511 -0.2498
 5272TIP3    H137451   2.575   0.100   0.927  0.0846  1.1247  0.2681
 5272TIP3    H237452   2.650   0.146   1.051  0.7646 -1.0628  0.7107
 5273TIP3   OH237453   1.007   2.288   8.119 -0.3459 -0.4204 -0.3615
 5273TIP3    H137454   1.039   2.198   8.131  0.7186  0.0540  0.4419
 5273TIP3    H237455   1.048   2.317   8.037 -0.2491 -0.4753 -0.3332
 5274TIP3   OH237456   3.592   3.006   2.364 -0.2149  0.2010 -0.1414
 5274TIP3    H137457   3.612   3.075   2.427  1.7102 -2.8208  2.8767
 5274TIP3    H237458   3.498   2.988   2.377  0.1942 -0.5514  2.2698
 5275TIP3   OH237459   3.406   5.997   1.862  0.0228 -0.1648  0.2289
 5275TIP3    H137460   3.378   6.085   1.836  0.1352 -0.0497  0.5013
 5275TIP3    H237461   3.331   5.941   1.839 -0.2420  0.0731  0.5015
 5276TIP3   OH237462   4.446   2.281   0.414 -0.4218  0.1498  0.6599
 5276TIP3    H137463   4.518   2.221   0.429 -1.1006 -0.9072 -0.1572
 5276TIP3    H237464   4.431   2.277   0.319 -1.4441  0.4577  0.7969
 5277TIP3   OH237465   3.519   5.928   0.368  0.8899  0.0612 -0.3207
 5277TIP3    H137466   3.590   5.936   0.432  1.3145 -2.3361 -0.3878
 5277TIP3    H237467   3.478   5.844   0.388 -2.5472  1.7218  0.2219
 5278TIP3   OH237468   3.295   1.044   1.714  0.2507 -0.3748  0.0230
 5278TIP3    H137469   3.380   1.001   1.717  0.6431  0.4223  1.3801
 5278TIP3    H237470   3.308   1.121   1.659  0.8873  0.6380  1.5197
 5279TIP3   OH237471   1.299   6.508   8.105 -0.0494  0.0388  0.5177
 5279TIP3    H137472   1.309   6.599   8.134  0.3421 -0.5837  2.4876
 5279TIP3    H237473   1.279   6.459   8.186 -1.3930 -1.4688 -0.6517
 5280TIP3   OH237474   5.364   5.089   8.650 -0.1054  0.9851  0.0367
 5280TIP3    H137475   5.446   5.059   8.611  0.0023  1.0666  0.2010
 5280TIP3    H237476   5.358   5.043   8.733 -1.2707 -0.6394 -0.9023
 5281TIP3   OH237477   4.770   3.374   1.819 -0.2369  0.2490  0.0986
 5281TIP3    H137478   4.834   3.439   1.794 -0.2076  1.3242  2.6201
 5281TIP3    H237479   4.730   3.409   1.899 -0.1300 -2.8227  1.6793
 5282TIP3   OH237480   4.809   2.852   1.183 -0.1313 -0.4171  0.6626
 5282TIP3    H137481   4.841   2.942   1.169 -1.5861  0.2315  1.3150
 5282TIP3    H237482   4.882   2.797   1.155  0.1368  0.9138 -1.5292
 5283TIP3   OH237483   5.070   5.835   2.618  0.2246  0.2930 -0.4590
 5283TIP3    H137484   5.004   5.810   2.682  1.7435 -1.1433  0.6235
 5283TIP3    H237485   5.150   5.845   2.668  0.5794  3.8129 -1.4353
 5284TIP3   OH237486   2.714   5.941   1.373  0.0745  0.4215 -0.1484
 5284TIP3    H137487   2.738   5.861   1.420  1.3867  0.8488 -0.0456
 5284TIP3    H237488   2.621   5.951   1.389 -0.5353 -2.0570 -1.6725
 5285TIP3   OH237489   1.540   6.431   1.374 -0.1568 -0.1292 -0.3939
 5285TIP3    H137490   1.605   6.490   1.411  1.5181 -2.2454  0.2496
 5285TIP3    H237491   1.532   6.360   1.438 -3.9669  0.5113  0.0816
 5286TIP3   OH237492   4.493   0.263   1.005  0.3082 -0.1534 -0.3787
 5286TIP3    H137493   4.469   0.330   0.941  0.5545  1.1466  0.8181
 5286TIP3    H237494   4.411   0.219   1.026 -0.1731  0.9042  0.0228
 5287TIP3   OH237495   1.336   3.924   0.555 -0.1989  0.0486  0.5093
 5287TIP3    H137496   1.362   3.909   0.464  0.5055 -0.5853  0.7997
 5287TIP3    H237497   1.356   3.841   0.600 -2.5642 -0.4309  0.8286
 5288TIP3   OH237498   1.426   4.123   1.830 -0.0362  0.6978  0.3215
 5288TIP3    H137499   1.512   4.159   1.852  0.2882  0.5446 -0.6555
 5288TIP3    H237500   1.364   4.184   1.869  0.4939  0.2239  1.9890
 5289TIP3   OH237501   5.761   1.912   3.422  0.5205  0.4178  0.4659
 5289TIP3    H137502   5.743   1.999   3.387 -0.0091  0.4716  0.8534
 5289TIP3    H237503   5.816   1.870   3.356 -1.3299  0.1184 -0.9655
 5290TIP3   OH237504   3.013   3.158   9.096 -0.0659  0.2295 -0.6267
 5290TIP3    H137505   2.979   3.224   9.035  0.0383 -0.8497 -1.9077
 5290TIP3    H237506   3.104   3.184   9.112 -0.6667  1.6576  0.7307
 5291TIP3   OH237507   0.684   6.361   1.743  0.7397 -0.0430  0.0506
 5291TIP3    H137508   0.709   6.275   1.776 -3.0692 -1.1948  0.4172
 5291TIP3    H237509   0.656   6.345   1.653 -0.0109  0.7929  0.1217
 5292TIP3   OH237510   2.418   2.574   0.028  0.5386  0.1667  0.1796
 5292TIP3    H137511   2.349   2.559  -0.036 -1.5068  0.4825  2.1973
 5292TIP3    H237512   2.391   2.524   0.105  0.9472  2.7155  2.1053
 5293TIP3   OH237513   4.057   4.126   0.106  0.5328 -0.2186  0.0393
 5293TIP3    H137514   4.056   4.056   0.040 -0.2795  0.3761 -0.6012
 5293TIP3    H237515   4.146   4.124   0.141  0.1949 -2.4003  0.9449
 5294TIP3   OH237516   2.856   1.820   1.506  0.6539 -0.0278  0.0954
 5294TIP3    H137517   2.933   1.763   1.511 -0.8621 -2.1024  1.4294
 5294TIP3    H237518   2.804   1.785   1.434  0.7277  1.1322 -0.5582
 5295TIP3   OH237519   6.173   1.026   0.458  0.2853 -0.8420 -0.2135
 5295TIP3    H137520   6.196   1.056   0.546  0.1155 -2.6554  0.4901
 5295TIP3    H237521   6.079   1.010   0.461  0.5516 -2.5538 -0.1719
 5296TIP3   OH237522   6.476   3.714   1.576  0.4094 -0.8620  0.3480
 5296TIP3    H137523   6.444   3.644   1.519 -0.5891 -0.3972  0.3077
 5296TIP3    H237524   6.402   3.732   1.634  0.0593  1.2094 -0.6577
 5297TIP3   OH237525   4.221   6.236   0.232  0.1673  0.5210  0.0372
 5297TIP3    H137526   4.263   6.185   0.164 -0.9858 -1.0530  0.4447
 5297TIP3    H237527   4.279   6.227   0.308 -0.7666 -1.5624  0.5720
 5298TIP3   OH237528   0.709   6.562   8.014 -0.1064 -0.8021 -0.1186
 5298TIP3    H137529   0.706   6.602   8.101 -2.9102  2.2695 -1.3938
 5298TIP3    H237530   0.639   6.496   8.015 -1.1334  0.2439 -0.3788
 5299TIP3   OH237531   4.956   6.576   1.506 -0.2062  0.3015 -0.6117
 5299TIP3    H137532   5.005   6.649   1.469  0.1109 -0.2110 -1.2330
 5299TIP3    H237533   5.023   6.509   1.524 -0.5033  0.1263 -0.1550
 5300TIP3   OH237534   1.060   4.944   1.700 -0.1132 -0.2370  0.1329
 5300TIP3    H137535   1.050   5.019   1.642 -0.7345 -0.8209 -0.5362
 5300TIP3    H237536   1.155   4.936   1.713 -0.0035  0.2728 -0.3068
 5301TIP3   OH237537   2.072   0.167   2.100  0.2012 -0.8166 -0.1348
 5301TIP3    H137538   2.027   0.215   2.030  1.1944  2.8448  1.5157
 5301TIP3    H237539   2.165   0.171   2.076  0.3930 -1.0447  0.5424
 5302TIP3   OH237540   6.443   4.549   7.588  0.0193 -0.2717 -0.4355
 5302TIP3    H137541   6.491   4.489   7.645  1.9088  1.8290  0.3434
 5302TIP3    H237542   6.435   4.629   7.640 -0.9883  0.6953 -2.0032
 5303TIP3   OH237543   3.424   5.543   8.552 -0.0325 -0.1592  0.2131
 5303TIP3    H137544   3.429   5.630   8.511  2.0483 -0.8909 -1.2429
 5303TIP3    H237545   3.381   5.488   8.487  1.2866 -0.8338 -0.1170
 5304TIP3   OH237546   3.731   5.672   8.527  0.2829 -0.0220  0.4355
 5304TIP3    H137547   3.741   5.672   8.623 -0.0044 -1.9324  0.4954
 5304TIP3    H237548   3.641   5.701   8.513 -0.1831 -1.2082  0.8431
 5305TIP3   OH237549   3.668   3.663   9.082 -0.3111  0.2607  0.0932
 5305TIP3    H137550   3.599   3.597   9.095 -0.5599  0.6568  0.8485
 5305TIP3    H237551   3.646   3.733   9.144  0.0553  0.9714 -0.5709
 5306TIP3   OH237552   0.589   5.068   8.363 -0.2932 -0.3117 -0.3339
 5306TIP3    H137553   0.655   5.129   8.330  0.8450 -1.6392 -0.5832
 5306TIP3    H237554   0.638   5.003   8.412 -1.0819 -2.6233 -2.4144
 5307TIP3   OH237555   5.683   0.017   1.277 -0.2550 -0.3948 -0.4763
 5307TIP3    H137556   5.749   0.072   1.317 -3.2922  1.8905  1.8066
 5307TIP3    H237557   5.697  -0.070   1.315  1.2482  0.0913  0.1183
 5308TIP3   OH237558   0.757   5.664   1.230  0.4871 -0.2058 -0.3763
 5308TIP3    H137559   0.702   5.713   1.168  0.6213 -0.7879 -0.9695
 5308TIP3    H237560   0.782   5.585   1.182 -0.0931 -1.0842  0.7060
 5309TIP3   OH237561   2.388   1.822   2.264 -0.2333  0.0723  0.4540
 5309TIP3    H137562   2.386   1.886   2.335  1.4415 -2.1354  2.6702
 5309TIP3    H237563   2.447   1.860   2.198  1.0305  0.6859  1.8789
 5310TIP3   OH237564   4.669   3.861   8.355  0.3060  0.0418 -0.0288
 5310TIP3    H137565   4.685   3.767   8.347 -2.4358 -0.6709  1.5627
 5310TIP3    H237566   4.729   3.890   8.423  1.8646 -0.2831 -1.2001
 5311TIP3   OH237567   1.367   1.872   2.838 -0.5618 -0.3777 -0.8789
 5311TIP3    H137568   1.401   1.949   2.884 -2.3508  1.0134 -1.7443
 5311TIP3    H237569   1.434   1.805   2.851  1.4144  1.5043 -0.6429
 5312TIP3   OH237570   4.895   3.608   2.463 -0.5532  0.2395  0.4166
 5312TIP3    H137571   4.799   3.609   2.461 -0.5892 -1.1542  0.0733
 5312TIP3    H237572   4.920   3.693   2.498 -1.9979 -0.2887  2.9548
 5313TIP3   OH237573   2.329   6.629   8.311 -0.8157  0.3017 -0.1219
 5313TIP3    H137574   2.361   6.567   8.376  0.4258 -0.1970 -1.1609
 5313TIP3    H237575   2.373   6.711   8.333 -1.3387  0.4542  0.3810
 5314TIP3   OH237576   2.235   0.831   3.123  0.0683  0.1802  0.0749
 5314TIP3    H137577   2.162   0.788   3.166  1.3506 -1.2500  0.9301
 5314TIP3    H237578   2.241   0.788   3.037  0.0977  0.0724  0.1306
 5315TIP3   OH237579   4.624   5.970   8.372 -0.0679  0.1530  0.0068
 5315TIP3    H137580   4.677   5.958   8.451 -0.8090  0.8535  0.6292
 5315TIP3    H237581   4.611   6.064   8.367 -0.4058  0.0705 -0.7105
 5316TIP3   OH237582   3.666   2.612   3.055 -0.0994  0.0771  0.0157
 5316TIP3    H137583   3.571   2.626   3.049  0.1228  1.1911 -2.3860
 5316TIP3    H237584   3.676   2.536   3.111 -2.3874  0.2408  0.7513
 5317TIP3   OH237585   1.233   5.469   0.552 -0.0748  0.0611  0.2418
 5317TIP3    H137586   1.139   5.469   0.572  0.0720 -0.2366  0.9826
 5317TIP3    H237587   1.244   5.541   0.490 -0.7876  0.1300  0.1816
 5318TIP3   OH237588   0.645   2.326   0.324  0.5523 -0.1489 -0.3409
 5318TIP3    H137589   0.735   2.309   0.297  1.0895  0.6239  0.8974
 5318TIP3    H237590   0.630   2.264   0.396  1.3052  2.0049  1.7747
 5319TIP3   OH237591   4.499   5.908   0.650  0.3827 -0.1714 -0.6602
 5319TIP3    H137592   4.464   5.935   0.734  1.5524  0.5272 -0.3766
 5319TIP3    H237593   4.589   5.881   0.669  0.3124 -1.0885 -1.5043
 5320TIP3   OH237594   6.334   2.638   2.403  0.4942  0.3258 -0.3339
 5320TIP3    H137595   6.276   2.594   2.465 -0.3437 -0.6634 -1.7627
 5320TIP3    H237596   6.415   2.587   2.405  0.8249  0.8637  0.6171
 5321TIP3   OH237597   0.447   5.157   7.581  0.2975 -0.0345  0.7608
 5321TIP3    H137598   0.363   5.184   7.619  1.4257  1.3761  2.3738
 5321TIP3    H237599   0.429   5.151   7.487 -1.1365  2.2365  0.8181
 5322TIP3   OH237600   6.273   3.371   9.173 -0.0993  0.5463 -0.7842
 5322TIP3    H137601   6.346   3.424   9.205 -0.3353  0.4912 -0.1525
 5322TIP3    H237602   6.231   3.426   9.107  0.2721  0.7354 -0.8663
 5323TIP3   OH237603   3.147   2.888   2.127  0.2407 -0.0987  0.1380
 5323TIP3    H137604   3.179   2.975   2.100 -1.6730  0.2455 -1.2012
 5323TIP3    H237605   3.222   2.849   2.172  1.4576  1.8929 -0.0012
 5324TIP3   OH237606   3.618   4.552   8.696 -0.1326  0.4915  0.1276
 5324TIP3    H137607   3.645   4.541   8.604  2.4712 -1.2665  1.0007
 5324TIP3    H237608   3.566   4.474   8.715  0.2791  0.2982  0.4579
 5325TIP3   OH237609   3.284   1.142   8.914  0.0588  0.8942  0.2490
 5325TIP3    H137610   3.273   1.214   8.852  0.4333  1.7395  1.1367
 5325TIP3    H237611   3.338   1.179   8.984  0.0723 -0.1900  0.8289
 5326TIP3   OH237612   1.782   1.299   1.574 -0.0467 -0.2556  0.0154
 5326TIP3    H137613   1.853   1.311   1.636  0.2868 -0.6265 -0.2860
 5326TIP3    H237614   1.709   1.267   1.627 -0.3842  1.2846  0.5251
 5327TIP3   OH237615   3.898   4.002   1.610  0.1103 -0.2549  0.2051
 5327TIP3    H137616   3.914   3.994   1.705  1.3850  0.0358  0.0365
 5327TIP3    H237617   3.929   4.089   1.588 -0.7441 -0.0985 -0.3869
 5328TIP3   OH237618   2.458   3.591   7.096  0.0134  0.4761  0.8750
 5328TIP3    H137619   2.450   3.502   7.061 -1.2698  0.8260  0.1944
 5328TIP3    H237620   2.479   3.645   7.020 -2.3256  1.1726  0.6352
 5329TIP3   OH237621   6.687   2.023   9.040  0.4442 -0.5319 -0.0433
 5329TIP3    H137622   6.607   2.072   9.022  0.8602  0.3766  0.5321
 5329TIP3    H237623   6.656   1.934   9.057 -0.6348  0.1334  1.8110
 5330TIP3   OH237624   1.796   0.697   8.849  0.3303 -0.4821 -0.0228
 5330TIP3    H137625   1.790   0.603   8.832  1.5886 -0.8637  1.3869
 5330TIP3    H237626   1.728   0.713   8.915  1.2817 -0.7955  1.0710
 5331TIP3   OH237627   5.471   0.461   1.473  0.0672 -0.2129  0.3249
 5331TIP3    H137628   5.464   0.556   1.485  0.7921 -0.2010  0.7561
 5331TIP3    H237629   5.468   0.426   1.562 -2.0609 -0.7622  0.0843
 5332TIP3   OH237630   1.829   1.770   0.731  0.4017  0.4614  0.3560
 5332TIP3    H137631   1.914   1.813   0.724  0.0821  1.4123  1.8257
 5332TIP3    H237632   1.796   1.765   0.642  1.5309  1.0417 -0.1035
 5333TIP3   OH237633   4.790   5.982   7.367  0.6042 -0.1332 -0.5137
 5333TIP3    H137634   4.838   6.050   7.318  1.0423 -0.7131 -0.9026
 5333TIP3    H237635   4.859   5.931   7.410  0.3374 -0.9167 -0.9920
 5334TIP3   OH237636   2.668   3.399   1.553  0.3268  0.0204  0.1439
 5334TIP3    H137637   2.621   3.330   1.506  1.7894 -1.6929  1.1306
 5334TIP3    H237638   2.677   3.367   1.642  3.6540  0.0675 -0.0638
 5335TIP3   OH237639   2.008   4.674   8.889 -0.0828  0.2792  0.3295
 5335TIP3    H137640   2.014   4.689   8.984  0.4778 -4.1684  1.2348
 5335TIP3    H237641   1.915   4.658   8.873  0.1852 -2.7539  1.0833
 5336TIP3   OH237642   0.480   2.758   7.319  0.3348  0.1574  0.2065
 5336TIP3    H137643   0.524   2.727   7.397 -0.3042  0.5296  0.7237
 5336TIP3    H237644   0.408   2.697   7.306  0.1378  0.3923  0.1979
 5337TIP3   OH237645   4.220   3.455   7.624  0.4250 -0.6970 -0.0603
 5337TIP3    H137646   4.262   3.413   7.548  0.6436  0.2347 -0.4672
 5337TIP3    H237647   4.160   3.389   7.658 -1.1870 -0.4770 -2.2575
 5338TIP3   OH237648   2.821   4.137   1.613  0.5733  0.6443 -0.3262
 5338TIP3    H137649   2.858   4.161   1.528 -2.4263  1.0375 -1.6609
 5338TIP3    H237650   2.726   4.140   1.599 -0.1061 -3.8972  1.7493
 5339TIP3   OH237651   4.833   6.614   8.703  0.5748 -0.5227  0.1015
 5339TIP3    H137652   4.805   6.599   8.794  1.0435 -1.0705  0.1585
 5339TIP3    H237653   4.751   6.611   8.653  0.1545  0.9756  0.6376
 5340TIP3   OH237654   5.608   6.329   7.753  0.0946 -0.3798 -0.2252
 5340TIP3    H137655   5.687   6.284   7.724  0.0889  1.2232 -3.0339
 5340TIP3    H237656   5.541   6.303   7.690 -0.3279  2.0672 -0.8865
 5341TIP3   OH237657   5.494   5.004   8.009 -0.1377 -0.2738 -0.1847
 5341TIP3    H137658   5.508   4.964   8.094  0.6952 -0.4471 -0.3986
 5341TIP3    H237659   5.571   4.979   7.957  0.4115  1.5515 -0.3341
 5342TIP3   OH237660   5.348   3.356   8.673  0.6089  0.4384 -0.2313
 5342TIP3    H137661   5.362   3.272   8.630  0.3166 -0.4502  1.3570
 5342TIP3    H237662   5.363   3.421   8.603  0.2456 -0.9231 -1.6274
 5343TIP3   OH237663   0.101   4.986   1.061 -0.1132  0.2205 -0.7713
 5343TIP3    H137664   0.156   4.978   0.983 -0.4769 -0.2383 -0.9881
 5343TIP3    H237665   0.149   4.938   1.129 -0.4957 -0.6473 -1.1017
 5344TIP3   OH237666   4.270   4.291   0.691  0.3193 -0.0606 -0.1052
 5344TIP3    H137667   4.279   4.308   0.597 -0.5962 -1.1082 -0.4135
 5344TIP3    H237668   4.344   4.235   0.712 -0.4437 -1.3166 -0.6307
 5345TIP3   OH237669   4.343   2.546   0.517 -0.1972  0.0096 -0.0023
 5345TIP3    H137670   4.356   2.471   0.459  0.5641 -0.2792  0.5272
 5345TIP3    H237671   4.396   2.615   0.478  0.9719 -0.4219  0.7664
 5346TIP3   OH237672   1.815   0.870   0.194  0.0162 -0.0330  0.3874
 5346TIP3    H137673   1.778   0.806   0.133  0.6708 -0.6096  0.5837
 5346TIP3    H237674   1.907   0.875   0.170  0.2474 -0.1536  1.2294
 5347TIP3   OH237675   6.476   3.523   8.845 -0.2815  0.3645  0.2521
 5347TIP3    H137676   6.507   3.495   8.759  0.4402  1.7718  0.0251
 5347TIP3    H237677   6.556   3.539   8.895 -0.6922 -0.4123  1.1827
 5348TIP3   OH237678   4.838   6.005   2.459  0.3520  0.4875  0.3163
 5348TIP3    H137679   4.828   6.096   2.431  1.4474  1.2574  2.2030
 5348TIP3    H237680   4.820   6.007   2.553 -1.5692 -1.6377  0.0819
 5349TIP3   OH237681   5.468   4.037   8.870 -0.0532  0.1051  0.6409
 5349TIP3    H137682   5.497   3.949   8.846  0.1307 -0.0322  1.3650
 5349TIP3    H237683   5.451   4.080   8.786 -0.9480 -0.8866  0.2892
 5350TIP3   OH237684   2.176   3.161   0.889  0.6538  0.7085 -0.3957
 5350TIP3    H137685   2.124   3.083   0.870  0.9724  0.7978 -1.7916
 5350TIP3    H237686   2.136   3.230   0.837  0.7432  1.3399  0.3548
 5351TIP3   OH237687   0.767   4.800   1.434 -0.2860 -0.7927 -0.2177
 5351TIP3    H137688   0.764   4.746   1.356  0.3252  0.3635 -1.0720
 5351TIP3    H237689   0.829   4.756   1.492  0.1837 -1.0167 -0.8899
 5352TIP3   OH237690   2.019   0.470   1.583  0.4755 -0.1776  0.2343
 5352TIP3    H137691   1.925   0.454   1.584  0.2178  1.1287  1.7066
 5352TIP3    H237692   2.055   0.398   1.531 -1.1700 -1.6062  0.9510
 5353TIP3   OH237693   3.747   0.272   0.205 -0.2610 -0.4737  0.1210
 5353TIP3    H137694   3.662   0.267   0.248 -0.5553 -3.1236 -0.5521
 5353TIP3    H237695   3.811   0.272   0.276 -0.7972  0.7538  0.6151
 5354TIP3   OH237696   0.045   4.303   8.137 -0.2307 -0.2500  0.2478
 5354TIP3    H137697   0.087   4.385   8.111 -0.4176 -0.2678 -0.1135
 5354TIP3    H237698   0.044   4.250   8.058 -1.5646  0.0246  0.0637
 5355TIP3   OH237699   5.938   3.342   8.494  0.0841 -0.0595 -0.2331
 5355TIP3    H137700   5.941   3.376   8.584 -2.5174  2.0117 -0.7825
 5355TIP3    H237701   5.927   3.247   8.505 -1.3627  0.2557  1.7364
 5356TIP3   OH237702   4.556   1.392   3.421  0.3609 -0.5307  0.7721
 5356TIP3    H137703   4.567   1.311   3.470 -0.6901 -0.9377  0.3712
 5356TIP3    H237704   4.461   1.398   3.406  0.3869  0.9077  1.0365
 5357TIP3   OH237705   6.027   3.357   8.759 -0.2676  0.0816 -0.0986
 5357TIP3    H137706   6.074   3.274   8.758 -0.8600 -0.2493 -1.0267
 5357TIP3    H237707   5.941   3.336   8.794 -0.6000  0.1968 -0.8292
 5358TIP3   OH237708   0.802   2.464   8.859 -0.2861 -0.3103 -0.1852
 5358TIP3    H137709   0.819   2.423   8.775  0.7410 -1.4294  0.5361
 5358TIP3    H237710   0.756   2.545   8.837  1.9551  0.5929 -1.9999
 5359TIP3   OH237711   1.839   3.771   1.794 -0.1758 -0.3057 -0.1824
 5359TIP3    H137712   1.778   3.699   1.807  0.3601 -0.4923  1.5120
 5359TIP3    H237713   1.854   3.806   1.882  0.5861  1.0358 -0.8127
 5360TIP3   OH237714   3.171   1.003   7.729 -0.2107  0.1722  0.7261
 5360TIP3    H137715   3.172   0.913   7.696 -0.5111 -0.4509  2.3021
 5360TIP3    H237716   3.192   0.994   7.822  1.5165  1.9167  0.5699
 5361TIP3   OH237717   6.471   0.351   9.138  0.0530  0.3649 -0.1580
 5361TIP3    H137718   6.528   0.282   9.105  1.1824  1.1482  0.1001
 5361TIP3    H237719   6.465   0.334   9.232 -2.9389 -1.7029 -0.5642
 5362TIP3   OH237720   0.122   4.317   1.763 -0.3429 -0.3414 -0.3015
 5362TIP3    H137721   0.194   4.378   1.778 -1.1700  1.3589 -2.5924
 5362TIP3    H237722   0.124   4.301   1.668 -0.8739 -3.0252  0.0740
 5363TIP3   OH237723   0.520   6.088   8.280  0.5794 -0.1065 -0.1392
 5363TIP3    H137724   0.516   6.129   8.194 -0.8574  1.7389  0.7442
 5363TIP3    H237725   0.597   6.030   8.276  0.6335  0.0662 -2.5654
 5364TIP3   OH237726   6.567   5.591   2.498 -0.3404  0.1294 -0.6799
 5364TIP3    H137727   6.533   5.516   2.547 -1.6508  0.9042 -0.3425
 5364TIP3    H237728   6.591   5.654   2.566 -1.0100  0.7332 -0.9893
 5365TIP3   OH237729   6.313   2.982   0.338 -0.1467 -0.4995  0.0512
 5365TIP3    H137730   6.376   2.946   0.277  0.5157  0.6566  0.0313
 5365TIP3    H237731   6.273   3.056   0.291  0.7009  0.6973  1.1311
 5366TIP3   OH237732   6.163   4.727   6.793  0.1898  0.0095 -0.1222
 5366TIP3    H137733   6.072   4.749   6.812  0.2295  0.6130 -0.6081
 5366TIP3    H237734   6.192   4.678   6.870 -0.6493 -0.5047 -0.1226
 5367TIP3   OH237735   4.341   3.610   0.626  0.4000 -0.3904 -0.0149
 5367TIP3    H137736   4.261   3.653   0.594 -0.6260 -1.2285  1.3083
 5367TIP3    H237737   4.401   3.682   0.646 -0.3937  0.3089 -0.0957
 5368TIP3   OH237738   6.151   2.073   8.392  0.1626 -0.0876  0.5942
 5368TIP3    H137739   6.160   2.141   8.325 -0.2649 -1.4217 -0.8702
 5368TIP3    H237740   6.158   2.120   8.475 -0.4705  1.7855 -0.3695
 5369TIP3   OH237741   6.603   4.807   1.639 -0.0455 -0.4517 -0.7542
 5369TIP3    H137742   6.615   4.875   1.573  1.0938 -0.6286 -0.7624
 5369TIP3    H237743   6.565   4.852   1.715 -0.0002  0.0403 -1.0219
 5370TIP3   OH237744   6.421   5.423   8.049  0.2605 -0.2868 -0.3162
 5370TIP3    H137745   6.453   5.513   8.055  1.0685 -0.5545 -0.4214
 5370TIP3    H237746   6.441   5.384   8.134 -0.8856 -0.1277  0.0427
 5371TIP3   OH237747   4.950   0.724   8.103  0.1657  0.1418 -0.3618
 5371TIP3    H137748   4.858   0.740   8.086  0.8505  2.0311 -2.9566
 5371TIP3    H237749   4.969   0.643   8.055  0.1847  0.6595 -1.2474
 5372TIP3   OH237750   3.932   4.148   2.145  0.8585 -0.3623  0.3344
 5372TIP3    H137751   3.988   4.109   2.212 -0.7984 -1.4752  1.1262
 5372TIP3    H237752   3.859   4.187   2.194  1.1298  1.4596 -0.6356
 5373TIP3   OH237753   4.845   4.400   0.974 -0.0751 -0.1512 -0.3598
 5373TIP3    H137754   4.760   4.421   0.936 -0.1010  0.0380 -0.1990
 5373TIP3    H237755   4.823   4.357   1.057 -0.0114  0.7406  0.1348
 5374TIP3   OH237756   5.375   5.988   1.290  0.1447 -0.4746 -0.0547
 5374TIP3    H137757   5.401   5.915   1.345 -0.2088  0.5586  1.5412
 5374TIP3    H237758   5.379   5.954   1.201  1.6419 -1.9316  0.5248
 5375TIP3   OH237759   0.755   1.744   7.087  0.7690  0.3924  0.3690
 5375TIP3    H137760   0.758   1.761   7.181 -1.3956  2.1431  0.1940
 5375TIP3    H237761   0.728   1.652   7.080 -2.0149  1.0269  1.5500
 5376TIP3   OH237762   3.956   5.367   2.575  0.4654  0.1019 -0.2066
 5376TIP3    H137763   4.017   5.423   2.623  0.4148  0.9848 -1.1516
 5376TIP3    H237764   3.925   5.421   2.503 -0.7530 -0.6429 -0.2664
 5377TIP3   OH237765   3.140   2.840   0.886 -0.2475  0.1540 -0.7455
 5377TIP3    H137766   3.059   2.869   0.928  0.1611  0.7568 -0.3589
 5377TIP3    H237767   3.192   2.920   0.875  1.0584 -0.4390  0.7076
 5378TIP3   OH237768   1.844   2.100   0.853 -0.4770 -0.0637  0.5056
 5378TIP3    H137769   1.891   2.123   0.933 -1.6534  0.4604  1.0732
 5378TIP3    H237770   1.903   2.124   0.783  0.0274  0.7561  1.1945
 5379TIP3   OH237771   4.382   4.690   0.239  0.3946  0.0186  0.0938
 5379TIP3    H137772   4.344   4.602   0.234  0.7877 -0.0882 -3.4622
 5379TIP3    H237773   4.306   4.748   0.247  0.0170 -0.5314  0.5823
 5380TIP3   OH237774   1.903   5.764   9.042 -0.3440  0.5922  1.1226
 5380TIP3    H137775   1.877   5.725   9.125 -1.1084 -0.6141  0.3496
 5380TIP3    H237776   1.825   5.757   8.987  0.3860  0.6281  0.0485
 5381TIP3   OH237777   6.300   1.460   0.580  0.0872  0.6938 -0.1863
 5381TIP3    H137778   6.324   1.486   0.669  0.2212 -2.7011  0.9118
 5381TIP3    H237779   6.374   1.407   0.551 -1.8369 -1.9538 -0.5108
 5382TIP3   OH237780   2.090   1.093   1.980 -0.0152 -0.4626  0.0586
 5382TIP3    H137781   2.158   1.127   1.922 -0.8517  1.3117  0.0431
 5382TIP3    H237782   2.011   1.093   1.926 -0.7740  1.0525  1.1044
 5383TIP3   OH237783   3.576   4.299   0.905 -0.2442 -0.1995 -0.0622
 5383TIP3    H137784   3.481   4.303   0.906 -0.2767 -0.8195 -0.0244
 5383TIP3    H237785   3.602   4.351   0.829 -0.6611 -0.7867 -0.6189
 5384TIP3   OH237786   4.652   2.796   0.930  0.0444  0.2478  0.2536
 5384TIP3    H137787   4.687   2.812   1.018 -1.3113 -1.9386  1.2921
 5384TIP3    H237788   4.560   2.774   0.945  0.1795 -1.7849 -1.4926
 5385TIP3   OH237789   0.992   2.165   0.779 -0.3390 -0.2262  0.3651
 5385TIP3    H137790   1.072   2.192   0.735  0.3136 -2.9125 -0.3078
 5385TIP3    H237791   0.924   2.173   0.713 -0.4216  0.9560  0.5830
 5386TIP3   OH237792   5.692   6.546   0.367 -0.1538 -0.1927 -0.0215
 5386TIP3    H137793   5.725   6.600   0.295 -0.2066 -1.1067 -0.7647
 5386TIP3    H237794   5.747   6.467   0.364 -0.0400 -0.1699  1.0664
 5387TIP3   OH237795   1.923   0.764   1.400 -0.6129  0.2313 -0.1726
 5387TIP3    H137796   1.962   0.799   1.480 -1.1481 -0.2000  0.2898
 5387TIP3    H237797   1.828   0.767   1.416 -0.6896 -2.1493  0.2471
 5388TIP3   OH237798   2.687   5.945   0.994 -0.5090 -0.6844  0.8855
 5388TIP3    H137799   2.610   5.903   0.957 -0.0855  0.1911 -1.1341
 5388TIP3    H237800   2.681   6.037   0.966  0.2883 -0.1463  2.3349
 5389TIP3   OH237801   1.717   4.706   1.101 -0.2260 -0.0634  0.3139
 5389TIP3    H137802   1.680   4.785   1.141 -0.3377  0.9635 -1.6580
 5389TIP3    H237803   1.666   4.694   1.020  0.9538 -1.1191 -0.3060
 5390TIP3   OH237804   1.060   0.322   0.689  0.0367 -0.2707 -0.1936
 5390TIP3    H137805   1.012   0.282   0.617 -0.2938 -0.4065  0.0999
 5390TIP3    H237806   1.086   0.248   0.745 -1.0110 -0.0461  0.6142
 5391TIP3   OH237807   1.566   5.347   8.327  0.8761  0.2694  0.7845
 5391TIP3    H137808   1.562   5.264   8.279  0.7160  0.6098  0.1925
 5391TIP3    H237809   1.475   5.373   8.339  0.8965 -0.0743  1.7538
 5392TIP3   OH237810   6.068   1.415   2.637 -0.8101 -0.5113  0.5544
 5392TIP3    H137811   6.149   1.454   2.670 -0.2244 -0.1474 -1.2291
 5392TIP3    H237812   6.077   1.322   2.654  1.4328 -0.9358 -2.3772
 5393TIP3   OH237813   0.228   5.499   1.861  0.0630 -0.3084 -0.5285
 5393TIP3    H137814   0.159   5.469   1.920  0.1065 -0.2160 -0.4286
 5393TIP3    H237815   0.279   5.562   1.914 -1.4005  1.7249 -1.4145
 5394TIP3   OH237816   1.268   0.138   8.203 -0.2893 -0.3816  0.5314
 5394TIP3    H137817   1.307   0.164   8.119 -0.4843  0.8023  0.7904
 5394TIP3    H237818   1.340   0.096   8.250  0.5710  1.2802  0.7785
 5395TIP3   OH237819   4.240   1.612   1.276  0.4397 -0.3847  0.9124
 5395TIP3    H137820   4.222   1.582   1.366  0.6362  1.1959  1.5065
 5395TIP3    H237821   4.324   1.657   1.282  0.3457 -0.0681 -0.0161
 5396TIP3   OH237822   0.504   0.100   8.727 -0.4128  0.3085  0.3315
 5396TIP3    H137823   0.448   0.168   8.691 -0.6269 -0.5715 -1.0485
 5396TIP3    H237824   0.451   0.060   8.796 -0.3767  1.3501  0.9807
 5397TIP3   OH237825   1.337   0.872   8.873 -0.1047  0.0956  0.4170
 5397TIP3    H137826   1.325   0.828   8.789  0.4291 -1.2026  0.9991
 5397TIP3    H237827   1.426   0.908   8.868 -1.0497  2.5171 -0.6486
 5398TIP3   OH237828   6.123   0.152   8.189  0.2904  0.6263  0.1455
 5398TIP3    H137829   6.076   0.232   8.213 -2.0163 -0.5459 -0.1076
 5398TIP3    H237830   6.109   0.092   8.262 -1.2995 -0.7746 -1.1993
 5399TIP3   OH237831   4.641   5.214   1.237 -1.0000  0.5534 -0.0314
 5399TIP3    H137832   4.670   5.131   1.198 -3.5175  0.4575 -1.9994
 5399TIP3    H237833   4.701   5.279   1.201 -0.9975 -0.0383 -1.1711
 5400TIP3   OH237834   5.702   3.536   1.348  0.0242 -0.1561 -0.4514
 5400TIP3    H137835   5.779   3.588   1.326  0.5120 -1.9454 -3.7128
 5400TIP3    H237836   5.628   3.588   1.316  0.1989  0.0208 -0.5724
 5401TIP3   OH237837   6.466   4.384   7.245 -0.0824  0.8083  0.5273
 5401TIP3    H137838   6.554   4.345   7.241  0.0402  1.0735  0.6004
 5401TIP3    H237839   6.444   4.402   7.154 -0.1880  0.4616  0.4834
 5402TIP3   OH237840   5.988   4.049   8.352 -0.0340 -0.0243  0.5380
 5402TIP3    H137841   5.940   3.987   8.407  0.6445 -0.2648  0.8714
 5402TIP3    H237842   6.080   4.026   8.364  0.1444  0.1100 -0.4796
 5403TIP3   OH237843   1.829   6.309   0.836  0.7541  1.1300 -0.2160
 5403TIP3    H137844   1.826   6.385   0.778 -2.7132  2.0115  0.8821
 5403TIP3    H237845   1.909   6.321   0.887  0.9618  3.3816 -0.9549
 5404TIP3   OH237846   6.140   6.546   2.016 -0.7539  0.0696 -0.2245
 5404TIP3    H137847   6.185   6.598   2.082 -2.7153  0.0534  1.2116
 5404TIP3    H237848   6.081   6.608   1.973  0.3376  0.0338 -1.8873
 5405TIP3   OH237849   2.753   5.591   8.483 -0.1290 -0.2481 -0.0242
 5405TIP3    H137850   2.745   5.547   8.568 -2.7303 -1.3953 -0.7715
 5405TIP3    H237851   2.803   5.531   8.429  0.9623  0.1868  0.4843
 5406TIP3   OH237852   2.511   2.733   2.200  0.1394  0.0973  0.0845
 5406TIP3    H137853   2.469   2.734   2.114  1.9951 -0.6449 -0.8908
 5406TIP3    H237854   2.467   2.664   2.248 -0.0307 -0.3927 -0.7588
 5407TIP3   OH237855   1.283   0.609   8.759 -0.3112  0.1139 -0.0478
 5407TIP3    H137856   1.345   0.537   8.747  0.3633  0.7892 -0.7339
 5407TIP3    H237857   1.210   0.571   8.808  0.2896 -0.8899  0.0825
 5408TIP3   OH237858   5.863   0.581   8.818  0.1251  0.2765  0.0507
 5408TIP3    H137859   5.907   0.643   8.760 -1.8363  1.8613  0.1613
 5408TIP3    H237860   5.921   0.575   8.894 -0.0729  2.7867  0.4917
 5409TIP3   OH237861   2.342   1.386   1.394 -0.9684 -0.1642 -0.0263
 5409TIP3    H137862   2.312   1.362   1.481  1.3302  0.3930  0.9691
 5409TIP3    H237863   2.266   1.430   1.355 -1.7765  0.3604  1.9972
 5410TIP3   OH237864   5.534   5.094   1.607 -0.1860 -0.8702 -0.1810
 5410TIP3    H137865   5.443   5.098   1.636  0.0778 -0.4360  0.6046
 5410TIP3    H237866   5.528   5.099   1.512 -1.1823 -4.2472 -0.4102
 5411TIP3   OH237867   3.714   4.025   8.866  0.0598 -0.2263 -0.5016
 5411TIP3    H137868   3.729   3.961   8.796  1.0059 -0.5004 -0.0675
 5411TIP3    H237869   3.756   4.105   8.835  1.6715 -0.7139  0.2821
 5412TIP3   OH237870   3.648   3.724   7.554 -0.7211  0.2314 -0.2480
 5412TIP3    H137871   3.575   3.680   7.510 -0.9575  0.5910 -0.2139
 5412TIP3    H237872   3.619   3.814   7.567 -0.6644  0.1336  0.6544
 5413TIP3   OH237873   6.393   1.750   0.666  0.1878 -0.1209 -0.1179
 5413TIP3    H137874   6.376   1.778   0.576  0.3745 -1.3500 -0.5602
 5413TIP3    H237875   6.320   1.691   0.687  1.1144 -1.3100 -0.1480
 5414TIP3   OH237876   4.021   4.436   8.748 -0.2092  0.3213 -0.0464
 5414TIP3    H137877   3.991   4.526   8.734  0.0902  0.6624  1.3564
 5414TIP3    H237878   4.115   4.439   8.731 -0.3361  0.0914 -0.7903
 5415TIP3   OH237879   2.314   0.627   7.984 -0.6519 -0.0956 -0.2796
 5415TIP3    H137880   2.381   0.578   7.937 -1.8262 -1.5768 -0.4571
 5415TIP3    H237881   2.231   0.593   7.951 -1.5121  1.4190  0.2218
 5416TIP3   OH237882   5.775   5.950   8.399  0.0162  0.1456 -0.3554
 5416TIP3    H137883   5.736   6.028   8.359 -1.9645 -0.6855 -0.1560
 5416TIP3    H237884   5.736   5.945   8.486  0.3749 -0.8720 -0.2381
 5417TIP3   OH237885   4.749   1.465   0.386 -0.7284 -0.4930  0.0354
 5417TIP3    H137886   4.668   1.455   0.335 -1.1792 -0.9729  0.8192
 5417TIP3    H237887   4.781   1.552   0.363 -1.9010  0.0376  0.3183
 5418TIP3   OH237888   1.691   2.363   9.155  0.0203 -0.4211  0.0418
 5418TIP3    H137889   1.660   2.298   9.092 -1.2703 -1.4491  1.6264
 5418TIP3    H237890   1.670   2.447   9.115 -1.7037 -1.0527 -0.4918
 5419TIP3   OH237891   3.253   3.983   1.815 -0.4716 -0.1472  0.0695
 5419TIP3    H137892   3.180   3.967   1.875 -0.6805 -1.3545 -0.4665
 5419TIP3    H237893   3.214   3.981   1.728 -0.1680  1.5814 -0.1301
 5420TIP3   OH237894   2.580   2.415   8.803  0.1402  0.1874 -0.5103
 5420TIP3    H137895   2.587   2.475   8.878 -0.6739 -0.4876  0.1223
 5420TIP3    H237896   2.620   2.463   8.731 -2.1988  2.3054 -0.5204
 5421TIP3   OH237897   6.116   2.501   0.248  0.1263 -0.1331 -0.1681
 5421TIP3    H137898   6.179   2.505   0.320 -0.5003  2.4182  0.3700
 5421TIP3    H237899   6.071   2.418   0.260  2.4462 -1.4096  0.2103
 5422TIP3   OH237900   3.827   2.892   0.404  0.2687  0.0954 -0.2061
 5422TIP3    H137901   3.749   2.845   0.434  2.0407 -2.6715  0.4017
 5422TIP3    H237902   3.846   2.856   0.318  0.6208  1.1099 -0.5694
 5423TIP3   OH237903   6.033   5.432   7.147  0.0871 -0.0083  0.7189
 5423TIP3    H137904   6.066   5.507   7.195  1.0095  1.0786 -1.5059
 5423TIP3    H237905   5.976   5.469   7.079 -0.8202 -1.4436  0.6346
 5424TIP3   OH237906   6.571   1.111   2.239  0.4320  0.6967 -0.3417
 5424TIP3    H137907   6.645   1.091   2.297  0.3789 -2.0179 -1.0719
 5424TIP3    H237908   6.611   1.131   2.155  0.3968  1.7930 -0.1116
 5425TIP3   OH237909   4.592   5.936   0.198  0.1539 -0.2620 -0.0055
 5425TIP3    H137910   4.669   5.881   0.181  0.7510 -0.2249  2.2029
 5425TIP3    H237911   4.628   6.014   0.241 -0.9556  0.6577 -0.6923
 5426TIP3   OH237912   3.055   5.029   1.021 -0.5764 -0.7882  0.0191
 5426TIP3    H137913   2.987   4.969   0.993  0.0406 -0.6009 -2.0665
 5426TIP3    H237914   3.092   4.989   1.100 -2.3432 -1.4175  0.5846
 5427TIP3   OH237915   2.901   3.866   2.856  0.2034  0.1228 -0.5520
 5427TIP3    H137916   2.911   3.778   2.891 -0.0889  0.0893 -0.5538
 5427TIP3    H237917   2.981   3.911   2.882 -0.0179  0.1075  0.1908
 5428TIP3   OH237918   1.789   2.925   3.108 -0.3038  0.0640  0.0168
 5428TIP3    H137919   1.857   2.947   3.045 -1.3137  1.6801 -0.5769
 5428TIP3    H237920   1.772   3.007   3.155 -1.8758 -0.2601  0.0806
 5429TIP3   OH237921   1.900   4.737   1.281 -0.8386 -0.1183  0.6403
 5429TIP3    H137922   1.852   4.741   1.364 -1.9074 -0.5719  0.0579
 5429TIP3    H237923   1.832   4.725   1.214  0.0714 -0.5649 -0.2297
 5430TIP3   OH237924   3.987   0.778   2.613  0.4879  0.0779 -0.0302
 5430TIP3    H137925   4.051   0.773   2.684 -0.7710  1.0387  1.2342
 5430TIP3    H237926   3.946   0.691   2.612 -0.6102  0.5390  1.5618
 5431TIP3   OH237927   5.768   3.974   0.859 -0.3604  0.2126 -0.6311
 5431TIP3    H137928   5.779   4.035   0.786 -1.5957 -0.8659 -1.7902
 5431TIP3    H237929   5.856   3.937   0.872 -0.0526  0.6446 -1.3910
 5432TIP3   OH237930   5.304   3.407   7.498  0.4280 -0.1680  0.1382
 5432TIP3    H137931   5.243   3.382   7.429  2.0225  1.0229 -1.7950
 5432TIP3    H237932   5.269   3.490   7.531  0.5874  0.1393 -0.4496
 5433TIP3   OH237933   2.825   0.294   2.755  0.6709 -0.7713 -0.1115
 5433TIP3    H137934   2.742   0.295   2.801  1.8753  1.5159  2.2708
 5433TIP3    H237935   2.877   0.226   2.799  0.9044 -0.4526  0.1111
 5434TIP3   OH237936   2.450   0.284   0.455 -0.1486 -0.5090 -0.1333
 5434TIP3    H137937   2.422   0.330   0.534 -2.5457 -0.9135 -0.6826
 5434TIP3    H237938   2.545   0.295   0.454 -0.0531 -0.2764  2.6514
 5435TIP3   OH237939   1.150   6.280   7.994 -0.0622 -0.0165  0.0402
 5435TIP3    H137940   1.232   6.309   8.034 -0.5299  0.9895  0.3187
 5435TIP3    H237941   1.087   6.348   8.018 -1.3311 -1.4848  1.0326
 5436TIP3   OH237942   2.783   5.689   1.484 -0.4581 -0.3087  0.3298
 5436TIP3    H137943   2.879   5.694   1.487 -0.4529 -0.3124  0.1763
 5436TIP3    H237944   2.759   5.645   1.565 -0.3278 -0.3177  0.3634
 5437TIP3   OH237945   1.558   4.345   1.284  0.7616 -0.3227 -0.4542
 5437TIP3    H137946   1.579   4.260   1.322  1.1546 -0.8994 -1.8848
 5437TIP3    H237947   1.642   4.377   1.250  0.1945 -0.6124 -2.2727
 5438TIP3   OH237948   5.481   1.573   2.507  0.0698  0.1568 -0.4225
 5438TIP3    H137949   5.400   1.526   2.526  0.9984 -1.2424  0.1841
 5438TIP3    H237950   5.529   1.574   2.590  1.2620 -0.2060 -1.0875
 5439TIP3   OH237951   3.535   1.221   1.341 -0.0819  0.2002  0.5250
 5439TIP3    H137952   3.480   1.292   1.309  0.7853  1.3982  1.5677
 5439TIP3    H237953   3.474   1.154   1.370 -0.9110  0.1216 -1.2858
 5440TIP3   OH237954   4.442   3.220   1.822  0.2388 -0.0469  0.4972
 5440TIP3    H137955   4.494   3.285   1.869  0.2511 -1.0237  1.9045
 5440TIP3    H237956   4.389   3.272   1.761  1.0143  1.1810  0.8256
 5441TIP3   OH237957   6.504   0.730   2.196  0.4267  0.5989  0.4616
 5441TIP3    H137958   6.483   0.821   2.217 -1.0563  0.1178  1.2148
 5441TIP3    H237959   6.531   0.693   2.280  1.0462  0.3431  0.1526
 5442TIP3   OH237960   4.105   1.126   8.618  0.8348 -0.2383 -0.3528
 5442TIP3    H137961   4.171   1.118   8.549  0.7550  0.2792 -0.4920
 5442TIP3    H237962   4.100   1.038   8.656  1.5042 -0.3165 -0.4304
 5443TIP3   OH237963   4.763   6.404   1.382  0.5745 -0.0615 -0.1850
 5443TIP3    H137964   4.805   6.470   1.437  0.8734  0.0280 -0.5129
 5443TIP3    H237965   4.672   6.403   1.409  1.0026 -1.0855  1.3680
 5444TIP3   OH237966   0.818   1.667   1.367 -0.3603 -0.2281 -0.0811
 5444TIP3    H137967   0.770   1.667   1.285  1.6597  0.5238 -1.3239
 5444TIP3    H237968   0.893   1.724   1.352  1.1857 -1.6612  1.6091
 5445TIP3   OH237969   2.414   4.059   8.860  1.0180 -0.0737  0.0332
 5445TIP3    H137970   2.457   3.996   8.917 -1.1818 -0.3411  1.4896
 5445TIP3    H237971   2.321   4.037   8.865  0.5158  1.3346 -1.8998
 5446TIP3   OH237972   1.472   0.018   0.957 -0.1892  0.2374  0.4965
 5446TIP3    H137973   1.490  -0.015   0.869  1.6624  0.5176  0.7446
 5446TIP3    H237974   1.482  -0.058   1.014 -0.0526  0.3365  0.6059
 5447TIP3   OH237975   1.118   0.518   1.278  0.1792  0.2602  0.0728
 5447TIP3    H137976   1.051   0.491   1.214 -0.2708  0.6265  0.3841
 5447TIP3    H237977   1.098   0.610   1.295  0.1435  0.0934  0.9355
 5448TIP3   OH237978   0.917   0.173   2.280  0.1703 -0.2967 -0.5369
 5448TIP3    H137979   0.869   0.254   2.298  1.0453 -0.0354  0.7393
 5448TIP3    H237980   0.936   0.177   2.186 -0.7755  0.4217 -0.7193
 5449TIP3   OH237981   5.909   0.675   8.221 -0.1272 -0.2297 -0.2854
 5449TIP3    H137982   5.980   0.690   8.284  0.5545 -1.4579 -0.7354
 5449TIP3    H237983   5.831   0.666   8.275  0.0523  1.0170  0.2252
 5450TIP3   OH237984   3.830   4.571   7.351 -0.2628  0.2878  0.3737
 5450TIP3    H137985   3.748   4.525   7.368  0.5307 -1.0248  0.7993
 5450TIP3    H237986   3.844   4.561   7.257 -0.8162  0.9289  0.2163
 5451TIP3   OH237987   5.511   4.882   0.181  0.1951 -0.6004  0.3139
 5451TIP3    H137988   5.500   4.823   0.107  0.7531 -0.0180 -0.2406
 5451TIP3    H237989   5.460   4.960   0.158  0.7820 -0.2116  0.3002
 5452TIP3   OH237990   4.798   3.718   1.201 -0.7651  0.5275 -0.2757
 5452TIP3    H137991   4.860   3.772   1.154 -0.2039  0.0235 -0.1222
 5452TIP3    H237992   4.712   3.744   1.166 -0.7492  3.1150  1.3608
 5453TIP3   OH237993   0.968   2.366   8.621 -0.0722  0.3259  0.1578
 5453TIP3    H137994   0.931   2.341   8.537  0.3950  1.1352 -0.2989
 5453TIP3    H237995   0.979   2.283   8.668 -0.0317 -0.1631 -0.7064
 5454TIP3   OH237996   2.393   5.273   0.862  0.6419  0.2435 -0.4306
 5454TIP3    H137997   2.428   5.338   0.922  1.8688 -0.5967 -0.2158
 5454TIP3    H237998   2.330   5.224   0.914  0.0434  0.9466 -0.4694
 5455TIP3   OH237999   0.026   0.458   8.794 -0.3929  0.3334  0.6420
 5455TIP3    H138000   0.056   0.368   8.811 -2.2715  0.1406  3.5784
 5455TIP3    H238001  -0.025   0.451   8.713  1.6533 -0.6136 -0.6844
 5456TIP3   OH238002   1.753   6.015   0.788 -0.0816 -0.5813  0.9040
 5456TIP3    H138003   1.770   6.108   0.803 -0.8684 -0.5866  2.0233
 5456TIP3    H238004   1.816   5.969   0.845  0.4788 -0.7534  0.1628
 5457TIP3   OH238005   2.313   4.255   7.879 -0.2856  0.6810  0.3470
 5457TIP3    H138006   2.260   4.204   7.940  1.4072 -2.4326 -0.5662
 5457TIP3    H238007   2.390   4.281   7.930  0.6822 -1.1118 -0.1316
 5458TIP3   OH238008   2.053   2.556   7.637  0.1360  0.4364 -0.5250
 5458TIP3    H138009   2.003   2.476   7.649 -1.4779  1.4494 -0.0707
 5458TIP3    H238010   2.143   2.532   7.658 -0.4813 -0.9956  0.6509
 5459TIP3   OH238011   3.990   4.912   0.119 -0.1394 -0.0185  0.1198
 5459TIP3    H138012   3.940   4.843   0.161  0.5663 -1.4135 -1.2244
 5459TIP3    H238013   3.930   4.950   0.055  0.0842 -0.8149 -0.5846
 5460TIP3   OH238014   6.481   5.411   8.675  0.2712  0.1008 -0.6722
 5460TIP3    H138015   6.390   5.384   8.659 -0.7019  3.5206 -1.6732
 5460TIP3    H238016   6.531   5.368   8.606 -0.5880 -1.5500 -0.3302
 5461TIP3   OH238017   0.098   0.246   0.496 -0.1562  0.0321 -0.0353
 5461TIP3    H138018   0.129   0.242   0.586 -1.1654  0.6936  0.3583
 5461TIP3    H238019   0.097   0.155   0.466  1.1373 -0.0956  0.2721
 5462TIP3   OH238020   5.347   1.807   8.947  0.8871 -0.7970  0.2345
 5462TIP3    H138021   5.364   1.742   8.879  0.2296  0.0893 -0.8169
 5462TIP3    H238022   5.343   1.891   8.900  0.7270 -0.1171  1.4108
 5463TIP3   OH238023   5.552   2.620   3.050 -0.3139  0.0257  0.5211
 5463TIP3    H138024   5.525   2.711   3.042 -1.7247 -0.2669  1.4879
 5463TIP3    H238025   5.496   2.572   2.989  0.2730 -0.2123  0.1701
 5464TIP3   OH238026   5.682   1.588   3.154  0.1609  0.3464 -0.9277
 5464TIP3    H138027   5.605   1.625   3.109 -0.8596 -0.9097 -0.2917
 5464TIP3    H238028   5.654   1.581   3.246  1.3035  0.5259 -0.5571
 5465TIP3   OH238029   4.234   2.814   1.712 -0.1351  0.3041 -0.1991
 5465TIP3    H138030   4.309   2.774   1.755  0.9392  1.5673 -0.8351
 5465TIP3    H238031   4.213   2.754   1.640 -0.4847 -0.6338  0.6586
 5466TIP3   OH238032   0.202   4.575   0.112 -0.1722  0.5696  0.3322
 5466TIP3    H138033   0.195   4.497   0.166 -0.0897  0.2681 -0.0877
 5466TIP3    H238034   0.118   4.620   0.124 -0.8871 -0.4275 -0.7018
 5467TIP3   OH238035   2.106   3.770   1.174  0.0731 -0.1590 -0.5699
 5467TIP3    H138036   2.081   3.730   1.091  0.6690 -0.7536 -0.4767
 5467TIP3    H238037   2.111   3.697   1.236  0.0807  0.2145 -0.1218
 5468TIP3   OH238038   3.331   3.146   9.162 -0.1106 -0.3330  0.4704
 5468TIP3    H138039   3.401   3.104   9.213  2.3446  2.2150 -0.5645
 5468TIP3    H238040   3.367   3.155   9.074 -2.6208 -0.7742 -0.6965
 5469TIP3   OH238041   2.050   5.414   0.553  0.2200  0.1250  0.4077
 5469TIP3    H138042   2.054   5.428   0.648 -1.6629  0.4715  0.4769
 5469TIP3    H238043   2.058   5.319   0.543 -0.2158  0.0213  0.9694
 5470TIP3   OH238044   5.411   2.227   8.129  0.8282 -0.0835 -0.3192
 5470TIP3    H138045   5.350   2.215   8.057  0.8007 -0.0964 -0.2933
 5470TIP3    H238046   5.395   2.152   8.187  0.3774  0.2913  0.0457
 5471TIP3   OH238047   1.935   5.379   8.307  0.0060 -0.5187 -0.4140
 5471TIP3    H138048   1.847   5.415   8.302 -0.6862 -1.4847  2.6331
 5471TIP3    H238049   1.992   5.451   8.283 -1.5076  1.1970  0.8703
 5472TIP3   OH238050   4.311   1.852   0.576  0.6146 -0.0626  0.0597
 5472TIP3    H138051   4.316   1.938   0.619  0.7448 -0.4768  0.8859
 5472TIP3    H238052   4.374   1.798   0.623  2.7458  0.1529 -2.3250
 5473TIP3   OH238053   2.856   3.590   1.342 -0.6228 -0.1298  0.0709
 5473TIP3    H138054   2.876   3.534   1.417 -0.7728 -1.3879 -0.7946
 5473TIP3    H238055   2.773   3.631   1.364  0.2910  1.0539  1.4272
 5474TIP3   OH238056   1.596   0.752   1.700 -0.3376 -0.0434  0.2953
 5474TIP3    H138057   1.586   0.783   1.790  1.2675  3.0650 -0.4617
 5474TIP3    H238058   1.516   0.780   1.656  1.2292  3.8400 -0.4624
 5475TIP3   OH238059   2.766   2.519   2.779 -0.0229  0.2731  0.2479
 5475TIP3    H138060   2.852   2.477   2.781 -0.5155 -0.7753  1.7695
 5475TIP3    H238061   2.749   2.543   2.870 -0.9897  1.2455 -0.1613
 5476TIP3   OH238062   6.411   0.100   1.887  0.9436 -0.2871  0.1920
 5476TIP3    H138063   6.343   0.116   1.952  0.1059 -2.4212 -0.0622
 5476TIP3    H238064   6.394   0.011   1.855  1.3875  0.5932 -2.8718
 5477TIP3   OH238065   1.892   1.083   8.859  0.3805  0.1733 -0.2246
 5477TIP3    H138066   1.891   1.178   8.853  0.2447  0.2889  1.3798
 5477TIP3    H238067   1.812   1.055   8.815 -0.3418  0.8863  0.6243
 5478TIP3   OH238068   1.360   2.988   0.939 -0.3916 -0.2273 -0.1203
 5478TIP3    H138069   1.445   2.951   0.916 -0.5410 -0.4900 -0.2531
 5478TIP3    H238070   1.301   2.913   0.944 -0.2915 -0.2241  1.4466
 5479TIP3   OH238071   4.363   6.255   2.283 -0.1552 -0.3513 -0.0060
 5479TIP3    H138072   4.277   6.212   2.286  0.6575 -2.0529  0.1440
 5479TIP3    H238073   4.406   6.227   2.363  0.5331  0.5305 -0.0599
 5480TIP3   OH238074   2.912   4.166   1.346 -0.2729 -0.2367  0.1591
 5480TIP3    H138075   2.911   4.194   1.255 -2.5561 -0.3088  0.1013
 5480TIP3    H238076   2.988   4.109   1.353  0.3836  0.3882 -1.4939
 5481TIP3   OH238077   3.851   0.731   3.459  0.1801 -0.1378  0.3783
 5481TIP3    H138078   3.845   0.800   3.526  0.1829 -0.4110  0.6614
 5481TIP3    H238079   3.905   0.770   3.390  1.6324 -0.4583  1.2939
 5482TIP3   OH238080   5.522   0.776   2.162  0.3388  0.6766  0.7576
 5482TIP3    H138081   5.432   0.798   2.185 -0.0325  2.4543 -1.9111
 5482TIP3    H238082   5.541   0.697   2.211 -2.6239  0.3221  1.5086
 5483TIP3   OH238083   3.036   2.883   0.164  0.3666  0.3121  0.6207
 5483TIP3    H138084   2.995   2.812   0.213 -0.5359  0.1594 -0.3218
 5483TIP3    H238085   3.126   2.853   0.149  0.5005  0.1376  1.7086
 5484TIP3   OH238086   2.512   5.942   2.010 -0.0649  0.2684  0.1905
 5484TIP3    H138087   2.445   5.913   1.948  0.2242 -0.8708  0.3903
 5484TIP3    H238088   2.502   6.037   2.013  0.8604  0.5577 -2.7432
 5485TIP3   OH238089   2.483   1.129   9.067 -0.0779 -0.2261  0.3939
 5485TIP3    H138090   2.553   1.064   9.063  1.6718  1.5902 -1.1072
 5485TIP3    H238091   2.522   1.204   9.112 -0.6173  1.2416 -1.4516
 5486TIP3   OH238092   2.333   6.650   1.827 -0.9787  0.3823  0.3630
 5486TIP3    H138093   2.303   6.673   1.739 -0.4878 -1.4673 -0.3261
 5486TIP3    H238094   2.299   6.562   1.842 -0.4233  0.3764  1.7409
 5487TIP3   OH238095   0.016   3.158   1.411 -0.0152  0.2304 -0.2314
 5487TIP3    H138096  -0.039   3.234   1.395 -0.0046  0.2605 -0.1286
 5487TIP3    H238097  -0.033   3.107   1.476  1.5460  1.8661  2.4026
 5488TIP3   OH238098   5.742   3.582   0.966  0.3404  0.4806 -0.1164
 5488TIP3    H138099   5.808   3.649   0.981  1.8487 -0.5954 -1.5246
 5488TIP3    H238100   5.660   3.621   0.996  1.6849  1.6247  2.3307
 5489TIP3   OH238101   0.837   1.244   7.970 -0.0384 -0.1764 -0.7719
 5489TIP3    H138102   0.868   1.169   8.021 -0.6870 -0.5110 -0.8592
 5489TIP3    H238103   0.910   1.267   7.914  1.1204  0.9097  1.0796
 5490TIP3   OH238104   0.617   6.370   7.716  0.0337  0.2443  0.0113
 5490TIP3    H138105   0.620   6.292   7.660 -1.1407  0.3213 -0.1739
 5490TIP3    H238106   0.669   6.347   7.792 -0.1224 -0.6430 -0.1448
 5491TIP3   OH238107   4.833   6.254   1.109 -0.2121 -0.0699  0.1510
 5491TIP3    H138108   4.797   6.260   1.020 -2.5006 -2.8686  0.7119
 5491TIP3    H238109   4.777   6.190   1.152  1.8624 -0.0535  3.1353
 5492TIP3   OH238110   5.400   5.698   8.659 -0.5959  0.0013  0.0684
 5492TIP3    H138111   5.446   5.717   8.741 -1.4647 -0.3460  0.6569
 5492TIP3    H238112   5.468   5.660   8.602  0.1405  0.7533  0.4207
 5493TIP3   OH238113   2.573   6.402   0.349  0.4572 -0.2006  0.2528
 5493TIP3    H138114   2.637   6.424   0.281  0.8126 -0.5838  0.4629
 5493TIP3    H238115   2.506   6.352   0.303  0.0331  0.6422 -0.0745
 5494TIP3   OH238116   1.254   6.364   9.146  0.1877 -0.1765 -0.3370
 5494TIP3    H138117   1.309   6.434   9.112  0.3394 -0.0439  0.1733
 5494TIP3    H238118   1.271   6.364   9.241 -0.7530 -0.0760 -0.1586
 5495TIP3   OH238119   2.671   4.618   2.050  0.9004 -0.0186 -0.1594
 5495TIP3    H138120   2.642   4.528   2.063 -3.1019  1.2646  1.3782
 5495TIP3    H238121   2.695   4.623   1.957 -0.0974 -2.3499 -0.6010
 5496TIP3   OH238122   4.152   0.827   8.180 -0.1972  0.7971  0.6110
 5496TIP3    H138123   4.196   0.800   8.260  1.3304  0.5214 -0.2864
 5496TIP3    H238124   4.223   0.852   8.121 -1.2673  0.6073 -0.7982
 5497TIP3   OH238125   5.147   5.299   9.070  0.1136 -0.2970  0.4643
 5497TIP3    H138126   5.222   5.299   9.012  0.3523  0.4140  0.7545
 5497TIP3    H238127   5.081   5.352   9.024  0.9147  1.7676  1.5544
 5498TIP3   OH238128   5.032   0.756   0.415 -0.0447  0.1116 -0.0655
 5498TIP3    H138129   4.951   0.720   0.451 -1.6293  2.7161 -0.8264
 5498TIP3    H238130   5.077   0.794   0.491 -1.6723  2.4363 -0.1634
 5499TIP3   OH238131   1.913   5.854   2.821  0.4139  0.4305 -0.3690
 5499TIP3    H138132   1.841   5.793   2.837  1.1391 -0.2764  0.3036
 5499TIP3    H238133   1.871   5.940   2.817 -0.3744  0.1239  0.8042
 5500TIP3   OH238134   4.703   1.190   8.747  0.1966 -0.3188  0.3246
 5500TIP3    H138135   4.694   1.099   8.773 -1.4412 -1.0407 -2.4221
 5500TIP3    H238136   4.632   1.235   8.793 -0.1360 -0.7591  0.2425
 5501TIP3   OH238137   4.262   3.740   7.646 -0.2692 -0.2477 -0.0980
 5501TIP3    H138138   4.239   3.647   7.647  1.1891 -0.6449  2.3253
 5501TIP3    H238139   4.332   3.747   7.582  1.3274 -1.3431  1.4440
 5502TIP3   OH238140   0.082   1.877   1.369 -0.5326 -0.2028  0.4971
 5502TIP3    H138141   0.126   1.812   1.314 -0.8085 -1.1612  1.3697
 5502TIP3    H238142  -0.000   1.895   1.323 -0.4437 -0.4620  0.2310
 5503TIP3   OH238143   6.298   3.180   1.750  0.8082 -0.4727 -0.7580
 5503TIP3    H138144   6.370   3.188   1.813 -0.3163 -0.3624  0.5673
 5503TIP3    H238145   6.313   3.251   1.688  0.6746  0.9228  0.7445
 5504TIP3   OH238146   1.186   1.813   9.163 -0.2314  0.1794  0.2068
 5504TIP3    H138147   1.204   1.907   9.168 -0.1452  0.1796 -0.0801
 5504TIP3    H238148   1.231   1.784   9.084 -1.9307  0.2990 -0.8686
 5505TIP3   OH238149   6.577   0.198   2.353 -0.2118  0.0450 -0.2561
 5505TIP3    H138150   6.559   0.114   2.311 -0.5028 -0.0098 -0.0251
 5505TIP3    H238151   6.504   0.254   2.327 -1.1259 -0.3888  1.2511
 5506TIP3   OH238152   4.431   3.176   0.346 -0.0444  0.2846 -0.1202
 5506TIP3    H138153   4.384   3.251   0.310 -2.1623 -0.7790  0.2708
 5506TIP3    H238154   4.397   3.166   0.434  0.1820 -1.1486 -0.1677
 5507TIP3   OH238155   4.986   6.073   0.255  0.2232 -0.0045  0.0663
 5507TIP3    H138156   4.893   6.091   0.264  0.1838 -0.3002  0.2624
 5507TIP3    H238157   5.021   6.148   0.206 -0.1146  0.1080 -0.0013
 5508TIP3   OH238158   3.836   1.333   1.036 -0.3465  0.4357 -0.6804
 5508TIP3    H138159   3.750   1.307   1.003 -0.5721  0.6931 -0.3075
 5508TIP3    H238160   3.872   1.254   1.077 -1.1373  0.7487  0.6839
 5509TIP3   OH238161   3.776   2.967   2.954 -0.0164  0.2033 -0.4351
 5509TIP3    H138162   3.839   3.029   2.990  2.7616 -2.0153 -1.1646
 5509TIP3    H238163   3.770   2.898   3.019  1.4663 -1.5439 -2.0480
 5510TIP3   OH238164   1.779   2.892   9.077  0.0914  0.2040 -0.2003
 5510TIP3    H138165   1.711   2.933   9.023  0.1784 -0.8520 -1.1591
 5510TIP3    H238166   1.734   2.868   9.158 -0.3911  0.5489 -0.3606
 5511TIP3   OH238167   3.466   1.256   8.096 -0.4725 -0.2747 -0.4562
 5511TIP3    H138168   3.512   1.309   8.161  0.1531 -1.0168 -0.2756
 5511TIP3    H238169   3.465   1.168   8.133  0.2108 -0.7872 -1.6013
 5512TIP3   OH238170   0.079   2.290   8.878 -0.1024 -0.3581  0.0394
 5512TIP3    H138171   0.005   2.347   8.900  0.3525 -0.2054  1.2168
 5512TIP3    H238172   0.107   2.253   8.962  1.7377  0.2844 -0.2444
 5513TIP3   OH238173   2.881   6.418   2.572  0.0832  0.2615 -0.1736
 5513TIP3    H138174   2.906   6.501   2.613 -0.6569 -0.8479  2.7796
 5513TIP3    H238175   2.796   6.396   2.610  0.2312 -1.8377 -0.8932
 5514TIP3   OH238176   2.553   3.927   7.737 -0.2989  0.1960 -0.0005
 5514TIP3    H138177   2.476   3.875   7.758 -0.4262 -0.4208 -1.8680
 5514TIP3    H238178   2.602   3.930   7.819 -2.1261  0.3413  1.1445
 5515TIP3   OH238179   1.919   4.148   8.744 -0.5410  0.4388  0.3730
 5515TIP3    H138180   1.975   4.223   8.762 -0.3099  0.6856 -1.2453
 5515TIP3    H238181   1.979   4.073   8.745 -0.7108  0.2956  1.6153
 5516TIP3   OH238182   5.670   1.431   0.029 -0.1541  0.9254 -0.0113
 5516TIP3    H138183   5.656   1.339   0.053 -2.0609  1.2136  0.1469
 5516TIP3    H238184   5.632   1.439  -0.058 -0.2852  1.6354  0.1073
 5517TIP3   OH238185   2.320   4.807   8.540  0.4976  0.2086  0.4203
 5517TIP3    H138186   2.307   4.900   8.556 -3.2899 -0.3829  1.7164
 5517TIP3    H238187   2.345   4.771   8.625  1.7462 -0.0219 -0.0304
 5518TIP3   OH238188   0.525   5.895   2.799  0.3082 -0.0107 -0.5478
 5518TIP3    H138189   0.518   5.980   2.757 -2.0013 -0.2940 -0.8766
 5518TIP3    H238190   0.516   5.831   2.728 -2.2490 -0.4830  0.0947
 5519TIP3   OH238191   2.772   5.484   1.292  1.0245 -0.0242  0.5983
 5519TIP3    H138192   2.866   5.489   1.311  0.8874  0.8109  1.0866
 5519TIP3    H238193   2.733   5.555   1.342  0.2575  0.3371 -0.4731
 5520TIP3   OH238194   1.376   6.120   2.038 -0.3196 -0.1674 -0.2623
 5520TIP3    H138195   1.464   6.088   2.016 -0.3140 -0.0642 -0.3964
 5520TIP3    H238196   1.331   6.125   1.954  0.4145  2.3445 -0.5882
 5521TIP3   OH238197   1.041   1.729   8.403 -0.5023 -0.1728  0.0276
 5521TIP3    H138198   1.000   1.643   8.394  0.2627 -0.6043  0.6289
 5521TIP3    H238199   1.040   1.765   8.314 -0.8214 -0.8046 -0.2278
 5522TIP3   OH238200   1.605   1.303   2.182 -0.6048  0.2320  0.3636
 5522TIP3    H138201   1.577   1.353   2.259 -0.0967 -0.4646  1.0143
 5522TIP3    H238202   1.568   1.216   2.195 -0.9353  0.2411 -0.4407
 5523TIP3   OH238203   0.516   0.415   9.111 -0.2666  0.3457 -0.1978
 5523TIP3    H138204   0.423   0.398   9.098 -0.2291 -0.1146  0.1008
 5523TIP3    H238205   0.533   0.388   9.201  0.4308 -0.8600 -0.6550
 5524TIP3   OH238206   2.254   5.448   8.892 -0.8011 -0.0606 -0.1102
 5524TIP3    H138207   2.163   5.427   8.913 -0.1211 -2.9517  0.3949
 5524TIP3    H238208   2.300   5.364   8.897  2.0899  1.4133  0.5954
 5525TIP3   OH238209   1.378   0.427   3.033 -0.3373  0.3608 -0.0262
 5525TIP3    H138210   1.379   0.509   3.081  1.0432  0.1422  0.3600
 5525TIP3    H238211   1.405   0.361   3.097 -0.7540 -0.2906 -0.5084
 5526TIP3   OH238212   5.547   5.825   1.437  1.1927 -0.3590  0.7110
 5526TIP3    H138213   5.535   5.897   1.498 -0.0010 -0.3418  0.4784
 5526TIP3    H238214   5.641   5.810   1.435  1.2744 -0.2484  2.4198
 5527TIP3   OH238215   5.677   2.387   2.506 -0.9114 -0.1318  0.9767
 5527TIP3    H138216   5.685   2.307   2.558 -1.5600  1.0069  2.9441
 5527TIP3    H238217   5.600   2.431   2.542 -0.0745  1.7823  0.5532
 5528TIP3   OH238218   6.294   3.828   8.992  1.1977 -0.3757  0.4655
 5528TIP3    H138219   6.248   3.772   9.054  0.3607 -1.5161 -1.0948
 5528TIP3    H238220   6.385   3.800   8.998  0.8673 -1.6356  0.0612
 5529TIP3   OH238221   5.432   2.937   8.150  0.9236  0.2503 -0.2284
 5529TIP3    H138222   5.489   2.959   8.223  0.4901  0.3842  0.0758
 5529TIP3    H238223   5.456   2.997   8.081  0.3210  1.1374  0.3118
 5530TIP3   OH238224   5.434   4.747   9.166  0.1726  0.3718  0.0391
 5530TIP3    H138225   5.410   4.766   9.075 -1.0505  1.0013  0.4700
 5530TIP3    H238226   5.523   4.711   9.160  0.9330  2.2615 -1.2292
 5531TIP3   OH238227   2.585   0.515   8.460  0.6025 -0.5899 -0.0247
 5531TIP3    H138228   2.597   0.610   8.456 -0.2506 -0.5117 -1.0447
 5531TIP3    H238229   2.530   0.495   8.384 -1.3053 -1.5726  1.5308
 5532TIP3   OH238230   0.832   6.498   0.086 -0.0680 -0.5894 -0.0356
 5532TIP3    H138231   0.880   6.425   0.124  0.6175  0.6361  1.5676
 5532TIP3    H238232   0.741   6.469   0.085  0.3300 -1.8719 -0.4836
 5533TIP3   OH238233   0.892   2.656   7.613  0.0025 -0.5903 -0.3675
 5533TIP3    H138234   0.945   2.736   7.604  0.4428 -1.0802 -2.8112
 5533TIP3    H238235   0.805   2.688   7.635  0.5697  0.4470  0.4637
 5534TIP3   OH238236   0.712   5.038   2.330  0.0547 -0.4442 -0.3869
 5534TIP3    H138237   0.697   4.971   2.264 -0.8872  0.5779 -1.2551
 5534TIP3    H238238   0.724   4.989   2.411 -2.8775 -1.6614 -0.5358
 5535TIP3   OH238239   0.722   1.664   7.348 -0.1357 -0.5524 -0.3416
 5535TIP3    H138240   0.738   1.588   7.405 -0.3126 -0.8274 -0.6545
 5535TIP3    H238241   0.755   1.739   7.399 -0.1611 -0.8089  0.0626
 5536TIP3   OH238242   2.196   3.435   8.383 -0.0861 -0.0045 -0.1520
 5536TIP3    H138243   2.108   3.471   8.387  0.2587  0.7828  1.0157
 5536TIP3    H238244   2.195   3.362   8.445  0.1936  0.2883  0.2031
 5537TIP3   OH238245   0.151   2.561   0.304  0.0008 -0.1121  0.5019
 5537TIP3    H138246   0.222   2.529   0.248  0.3102 -0.7085  1.2065
 5537TIP3    H238247   0.096   2.483   0.318 -1.0694  0.4570 -0.4330
 5538TIP3   OH238248   5.604   4.705   0.367  0.0026  0.2686  0.1468
 5538TIP3    H138249   5.647   4.758   0.435 -1.5503  1.6373  0.1533
 5538TIP3    H238250   5.578   4.769   0.301 -1.1726 -0.6093 -0.2709
 5539TIP3   OH238251   3.848   3.341   8.693  1.0361 -0.2879 -0.5835
 5539TIP3    H138252   3.869   3.431   8.717  1.0175 -0.5111  0.2986
 5539TIP3    H238253   3.896   3.327   8.611  0.5000  0.7297 -1.0933
 5540TIP3   OH238254   5.278   2.734   2.239  0.3901 -0.5643 -0.4612
 5540TIP3    H138255   5.289   2.757   2.147  0.2227  0.8531 -0.1505
 5540TIP3    H238256   5.368   2.723   2.271  0.4484 -3.8103 -1.3785
 5541TIP3   OH238257   5.371   2.042   1.679  0.0198  0.8279  0.1360
 5541TIP3    H138258   5.392   1.978   1.747  0.0100 -0.2310 -0.8124
 5541TIP3    H238259   5.455   2.076   1.651  0.3687 -1.2528 -1.6326
 5542TIP3   OH238260   5.949   6.167   8.892 -0.2596 -0.0412  0.2021
 5542TIP3    H138261   5.984   6.234   8.832 -1.1319  1.6465  1.4773
 5542TIP3    H238262   6.025   6.140   8.944  0.1171 -0.0870 -0.3613
 5543TIP3   OH238263   2.879   2.221   8.778  0.1734  0.0463 -0.2696
 5543TIP3    H138264   2.878   2.300   8.832  2.5930 -0.1629  0.1892
 5543TIP3    H238265   2.787   2.198   8.768 -0.4634  0.7614  2.8295
 5544TIP3   OH238266   5.221   0.413   7.731 -0.5767  0.3490 -0.4152
 5544TIP3    H138267   5.148   0.455   7.776 -1.6413 -0.2812 -1.4844
 5544TIP3    H238268   5.180   0.343   7.679  0.9766 -1.1061  0.2321
 5545TIP3   OH238269   1.011   1.016   8.223  0.1314 -0.1673 -0.2184
 5545TIP3    H138270   1.043   1.026   8.134  0.1149  0.5404 -0.1573
 5545TIP3    H238271   1.080   0.968   8.269  0.3597 -0.0991 -0.4905
 5546TIP3   OH238272   2.870   0.083   1.248 -0.1502 -0.0068  0.3547
 5546TIP3    H138273   2.832   0.034   1.321 -2.5239 -1.5353 -1.7212
 5546TIP3    H238274   2.896   0.015   1.185 -0.8067  1.2580 -1.3849
 5547TIP3   OH238275   3.486   3.712   1.849  0.2870  0.4941 -0.1934
 5547TIP3    H138276   3.481   3.806   1.833  0.7456  0.5394 -0.1007
 5547TIP3    H238277   3.399   3.687   1.878  0.0248  0.7966 -0.7206
 5548TIP3   OH238278   6.074   2.056   1.834  0.0808  0.1971  0.2515
 5548TIP3    H138279   6.094   1.962   1.837 -0.0496  0.1872  0.9970
 5548TIP3    H238280   6.092   2.081   1.743 -0.1409 -0.6021 -0.0252
 5549TIP3   OH238281   0.249   2.724   8.115  0.0449 -0.0020  0.2664
 5549TIP3    H138282   0.173   2.768   8.077  0.0282  2.0889  2.4579
 5549TIP3    H238283   0.289   2.676   8.042 -2.0636  0.6897 -1.4354
 5550TIP3   OH238284   1.852   5.052   0.073 -0.0264  0.2532 -0.4234
 5550TIP3    H138285   1.943   5.081   0.080  0.0413 -0.1939  0.6979
 5550TIP3    H238286   1.807   5.123   0.028 -0.1265  2.7103  3.1618
 5551TIP3   OH238287   2.450   4.682   0.960 -0.3614 -0.3169  0.1021
 5551TIP3    H138288   2.467   4.689   1.054 -1.7314  1.4374  0.2798
 5551TIP3    H238289   2.399   4.602   0.950  1.2865 -1.4746  0.5655
 5552TIP3   OH238290   5.268   6.141   0.315  0.3500  0.1246  0.5290
 5552TIP3    H138291   5.212   6.210   0.351 -1.8200 -0.9650 -0.5221
 5552TIP3    H238292   5.287   6.169   0.226 -0.4383 -0.5319  0.1379
 5553TIP3   OH238293   4.016   2.211   0.711  0.3870 -0.0827 -0.0147
 5553TIP3    H138294   4.104   2.248   0.712 -0.0659  1.0427  0.2913
 5553TIP3    H238295   4.024   2.128   0.759  1.2551  0.0532  0.0887
 5554TIP3   OH238296   0.313   4.172   1.250  0.6986  0.2420  0.2077
 5554TIP3    H138297   0.286   4.092   1.293  0.1698  1.2350  1.8211
 5554TIP3    H238298   0.234   4.203   1.205  0.8735 -0.0803 -0.3251
 5555TIP3   OH238299   0.003   5.047   0.372  0.2210  0.1432  0.3035
 5555TIP3    H138300  -0.042   5.118   0.325  0.5121  1.4818  1.9656
 5555TIP3    H238301   0.094   5.055   0.346  0.1455 -0.0792 -0.0413
 5556TIP3   OH238302   6.019   5.162   8.811 -0.7789 -0.0614 -0.0541
 5556TIP3    H138303   6.027   5.082   8.863 -1.9979 -0.1809 -0.0126
 5556TIP3    H238304   5.965   5.136   8.737  0.0374  0.3802 -0.8157
 5557TIP3   OH238305   3.222   5.430   1.851  0.3302  0.5130 -0.1784
 5557TIP3    H138306   3.138   5.462   1.884 -0.1537 -1.5454  0.7055
 5557TIP3    H238307   3.219   5.449   1.757 -0.7092  1.2996 -0.0092
 5558TIP3   OH238308   1.664   6.012   7.896  0.4270  0.2878  0.3000
 5558TIP3    H138309   1.736   6.044   7.841  1.7049 -0.6606  1.3709
 5558TIP3    H238310   1.594   6.075   7.882  0.8705  0.3411 -2.0431
 5559TIP3   OH238311   3.618   1.636   1.347 -0.2887 -0.2896 -0.0308
 5559TIP3    H138312   3.549   1.594   1.398 -0.2435  0.6507  0.8458
 5559TIP3    H238313   3.646   1.569   1.285 -1.3672 -0.9812  0.1960
 5560TIP3   OH238314   6.173   4.513   0.681 -0.3349 -0.1544 -0.3007
 5560TIP3    H138315   6.230   4.439   0.661  0.6832 -0.3079  2.6969
 5560TIP3    H238316   6.093   4.472   0.715 -0.4995  0.1067 -0.3729
 5561TIP3   OH238317   6.430   5.688   8.134 -0.6695 -0.6382  0.0915
 5561TIP3    H138318   6.343   5.727   8.136 -0.2982  0.1845  0.5827
 5561TIP3    H238319   6.466   5.705   8.221 -0.1235 -1.2179 -0.0145
 5562TIP3   OH238320   1.838   2.375   1.828  0.4696 -0.4644  0.3232
 5562TIP3    H138321   1.852   2.375   1.733  0.2247  0.0022  0.2817
 5562TIP3    H238322   1.818   2.284   1.850  1.6454 -0.7966  0.0995
 5563TIP3   OH238323   4.391   3.557   0.088 -0.9671 -0.2429 -0.2923
 5563TIP3    H138324   4.440   3.603   0.155 -0.9834 -0.0761 -0.3951
 5563TIP3    H238325   4.316   3.520   0.135  0.0948 -1.9096  0.2138
 5564TIP3   OH238326   0.237   3.301   7.987  0.3866 -0.1790 -0.1923
 5564TIP3    H138327   0.329   3.327   7.989  0.3153  0.0830 -0.2863
 5564TIP3    H238328   0.188   3.382   8.005  0.1971 -0.4725  0.6289
 5565TIP3   OH238329   1.358   3.936   6.756  0.1378 -0.1571  0.3164
 5565TIP3    H138330   1.264   3.949   6.761  0.1728  0.3061 -0.2507
 5565TIP3    H238331   1.396   4.015   6.794  0.3085  0.0631 -0.3064
 5566TIP3   OH238332   3.890   2.975   8.424 -0.1755 -0.2370 -0.1160
 5566TIP3    H138333   3.844   2.893   8.440 -0.1304 -0.1336  0.6032
 5566TIP3    H238334   3.971   2.968   8.475  0.7715 -0.5476 -1.6329
 5567TIP3   OH238335   0.296   2.358   8.157 -0.3015  0.2464  0.1885
 5567TIP3    H138336   0.243   2.364   8.077 -1.3980 -0.2254  0.8500
 5567TIP3    H238337   0.237   2.387   8.227  1.4277  3.1304  0.5682
 5568TIP3   OH238338   4.139   2.287   2.599 -0.2716 -0.0406 -0.3762
 5568TIP3    H138339   4.184   2.358   2.552 -1.8823 -0.3892 -2.6005
 5568TIP3    H238340   4.052   2.322   2.617 -0.8472 -1.1804 -0.8630
 5569TIP3   OH238341   1.851   5.236   7.786 -0.0740 -0.0999  0.6008
 5569TIP3    H138342   1.822   5.151   7.817  0.1754 -0.7136 -0.7768
 5569TIP3    H238343   1.859   5.289   7.865  0.5225 -1.5743  1.5778
 5570TIP3   OH238344   0.244   5.486   0.171 -0.0661  0.4281  0.0147
 5570TIP3    H138345   0.200   5.494   0.256  1.2891 -3.6678  1.3469
 5570TIP3    H238346   0.173   5.479   0.108 -1.1698  0.8324  1.1590
 5571TIP3   OH238347   1.089   3.257   3.109 -0.4345  0.2959  0.3094
 5571TIP3    H138348   1.084   3.352   3.099  0.5969  0.2200 -1.0871
 5571TIP3    H238349   1.174   3.241   3.150 -1.0397  0.0121  1.5160
 5572TIP3   OH238350   4.708   0.783   7.977 -0.0568  0.1383 -0.6511
 5572TIP3    H138351   4.645   0.794   7.905 -1.3970  0.2033  0.4834
 5572TIP3    H238352   4.692   0.694   8.008  1.8661 -0.6021 -1.6248
 5573TIP3   OH238353   4.591   3.251   0.714  0.7227 -0.1379 -0.0786
 5573TIP3    H138354   4.556   3.300   0.640  0.2080  1.0770  0.9536
 5573TIP3    H238355   4.557   3.162   0.701 -0.8395  0.4679 -0.3467
 5574TIP3   OH238356   1.460   4.465   1.911  0.1262  0.5557 -0.1845
 5574TIP3    H138357   1.509   4.496   1.835 -2.0274  1.6533 -1.2325
 5574TIP3    H238358   1.382   4.424   1.874  0.1529 -1.0380  1.4028
 5575TIP3   OH238359   0.113   6.350   1.581  0.0407  0.0954 -0.2262
 5575TIP3    H138360   0.032   6.392   1.611  0.0566 -0.2895  0.3848
 5575TIP3    H238361   0.181   6.386   1.639  0.1920 -0.1036 -0.2807
 5576TIP3   OH238362   4.308   4.176   0.171 -0.3905  0.1084 -0.2123
 5576TIP3    H138363   4.393   4.136   0.185 -0.2885  0.3069 -0.2678
 5576TIP3    H238364   4.320   4.235   0.097 -0.8460 -0.6651 -0.9173
 5577TIP3   OH238365   3.918   5.065   8.563  0.1943 -0.2910 -0.6345
 5577TIP3    H138366   3.858   5.016   8.619 -0.6738  0.3378 -0.9829
 5577TIP3    H238367   4.004   5.027   8.579 -0.2179 -0.8401  0.2958
 5578TIP3   OH238368   5.428   2.828   0.086  0.5874 -0.7981  0.1740
 5578TIP3    H138369   5.382   2.806   0.167  0.7864  1.3025  0.9202
 5578TIP3    H238370   5.490   2.896   0.111  0.3947  0.1809 -1.8214
 5579TIP3   OH238371   0.075   4.312   1.121 -0.1620  0.3856 -0.5298
 5579TIP3    H138372   0.084   4.396   1.166  1.2931  0.3193 -0.6749
 5579TIP3    H238373  -0.019   4.307   1.100 -0.9556  0.4016  2.4727
 5580TIP3   OH238374   0.741   0.929   0.251  0.9148  0.8373 -0.2472
 5580TIP3    H138375   0.730   0.854   0.193  1.5116  0.9090 -0.4636
 5580TIP3    H238376   0.756   1.003   0.192 -0.5894  1.3153 -0.0761
 5581TIP3   OH238377   4.617   4.530   0.149  0.1150  0.3681  0.1129
 5581TIP3    H138378   4.703   4.572   0.147 -0.2342  1.1289  0.4891
 5581TIP3    H238379   4.558   4.598   0.182 -0.6779 -0.0585 -0.3795
 5582TIP3   OH238380   3.327   2.422   1.284 -0.5511 -0.0996 -0.2581
 5582TIP3    H138381   3.295   2.468   1.362  3.2989  1.1642  0.7961
 5582TIP3    H238382   3.356   2.492   1.225 -0.6592 -1.1156 -1.5697
 5583TIP3   OH238383   2.189   5.223   7.973 -0.2210 -0.3571 -0.1954
 5583TIP3    H138384   2.225   5.307   8.003 -1.4246  0.6121 -1.3146
 5583TIP3    H238385   2.258   5.186   7.917  0.2302  0.0069  0.1132
 5584TIP3   OH238386   0.930   5.899   7.805 -0.1842 -0.1555 -0.1456
 5584TIP3    H138387   0.849   5.848   7.804 -0.4232  0.1195  1.5691
 5584TIP3    H238388   0.951   5.909   7.898  1.4541  0.3697 -0.5384
 5585TIP3   OH238389   2.039   0.846   0.448  0.4199 -0.0203 -0.0447
 5585TIP3    H138390   2.026   0.911   0.379  2.1755  1.0288  0.5536
 5585TIP3    H238391   2.019   0.893   0.529  2.0944 -0.0725  0.4235
 5586TIP3   OH238392   3.398   2.257   8.183 -0.3538 -0.0333  0.0354
 5586TIP3    H138393   3.313   2.223   8.211 -0.6199  0.6334  0.0317
 5586TIP3    H238394   3.457   2.237   8.257  0.3251 -3.5405 -1.2225
 5587TIP3   OH238395   6.107   4.789   0.025  0.5505 -0.0611  0.2715
 5587TIP3    H138396   6.143   4.704  -0.001 -1.1724 -0.7017 -0.1297
 5587TIP3    H238397   6.170   4.822   0.089  2.9974 -0.1118 -1.9148
 5588TIP3   OH238398   2.649   3.590   1.079  0.5254 -0.5683 -0.1902
 5588TIP3    H138399   2.739   3.581   1.112 -0.1953  1.3311  2.6866
 5588TIP3    H238400   2.594   3.582   1.156 -1.6805  0.1895 -1.5898
 5589TIP3   OH238401   2.558   3.076   0.667 -0.4442  0.1270 -0.3711
 5589TIP3    H138402   2.492   3.096   0.601 -1.7618 -1.3780  0.4001
 5589TIP3    H238403   2.600   2.995   0.635  1.8756  1.6318 -1.4021
 5590TIP3   OH238404   3.040   3.440   8.073 -0.7658  0.2242  0.4043
 5590TIP3    H138405   3.101   3.403   8.137 -0.8394 -1.1666 -0.2909
 5590TIP3    H238406   3.047   3.535   8.085  2.1333  0.1715 -0.1652
 5591TIP3   OH238407   3.842   4.000   0.485  0.1895  0.3265  0.2937
 5591TIP3    H138408   3.933   4.017   0.459  0.3480  0.4102  0.8745
 5591TIP3    H238409   3.821   4.073   0.545 -0.3450  0.4488 -0.0376
 5592TIP3   OH238410   1.437   0.455   0.115  0.2312  0.2566  0.4949
 5592TIP3    H138411   1.383   0.491   0.186 -0.3143 -2.0324  1.3564
 5592TIP3    H238412   1.525   0.489   0.133  0.1280 -0.3236  2.3765
 5593TIP3   OH238413   0.937   0.547   8.627  0.5551 -0.2874  0.1657
 5593TIP3    H138414   0.921   0.542   8.722  1.1981 -1.1001  0.2426
 5593TIP3    H238415   0.942   0.456   8.599  0.1995 -0.0490 -0.6925
 5594TIP3   OH238416   2.135   5.304   1.436  0.2676  0.2170  0.0446
 5594TIP3    H138417   2.076   5.301   1.511 -1.4252 -1.7726 -1.2455
 5594TIP3    H238418   2.078   5.328   1.362  1.8102  1.8097 -0.7046
 5595TIP3   OH238419   4.535   5.795   9.126 -0.4547  0.2060 -0.0110
 5595TIP3    H138420   4.625   5.828   9.120 -0.3788  0.0282  0.1268
 5595TIP3    H238421   4.540   5.724   9.190 -0.8655  0.7583  0.6389
 5596TIP3   OH238422   2.495   0.715   9.140  0.1617 -0.2526  0.3320
 5596TIP3    H138423   2.510   0.767   9.061 -1.1006 -1.2295 -0.6040
 5596TIP3    H238424   2.471   0.628   9.107  2.3376 -1.5247  1.8249
 5597TIP3   OH238425   6.205   3.551   8.979 -0.0872  0.0712 -0.1729
 5597TIP3    H138426   6.148   3.516   8.911  0.2882 -0.9761  0.0274
 5597TIP3    H238427   6.290   3.561   8.937 -0.3103  1.2951 -0.3752
 5598TIP3   OH238428   6.075   6.232   2.758  0.1895  0.0672  0.1171
 5598TIP3    H138429   5.998   6.245   2.813  0.2474  0.9141  0.0012
 5598TIP3    H238430   6.095   6.318   2.723  0.8468 -0.2536 -0.3193
 5599TIP3   OH238431   6.066   0.186   0.285  0.0674  0.2074 -0.3918
 5599TIP3    H138432   6.064   0.095   0.314  0.9730  0.3310  0.0994
 5599TIP3    H238433   6.090   0.180   0.192  0.1929 -0.0527 -0.3453
 5600TIP3   OH238434   5.683   2.919   8.857 -0.3705 -0.0733  0.1910
 5600TIP3    H138435   5.726   2.978   8.795  1.8984 -0.3921  1.3395
 5600TIP3    H238436   5.745   2.912   8.930 -1.5580 -2.1282  1.0914
 5601TIP3   OH238437   5.508   6.272   2.374  0.1820 -0.8267  0.1915
 5601TIP3    H138438   5.557   6.202   2.418  1.2129 -0.0822  0.2609
 5601TIP3    H238439   5.428   6.229   2.344  1.2024 -2.2817 -0.5911
 5602TIP3   OH238440   0.859   3.840   0.157 -0.2995 -0.0279 -0.3116
 5602TIP3    H138441   0.862   3.765   0.216 -0.4944 -0.5585 -0.9543
 5602TIP3    H238442   0.945   3.880   0.164  0.3300 -1.1836 -1.0436
 5603TIP3   OH238443   1.700   2.157   2.534 -0.4994 -0.0412 -0.3912
 5603TIP3    H138444   1.781   2.170   2.484 -1.0615  1.1433 -1.0307
 5603TIP3    H238445   1.691   2.062   2.539  1.2483 -0.2185  0.2324
 5604TIP3   OH238446   5.846   4.227   8.521  0.4113 -0.4958  0.0054
 5604TIP3    H138447   5.846   4.152   8.580  0.3562 -1.4435 -1.1738
 5604TIP3    H238448   5.869   4.191   8.436 -2.6983  0.2451 -1.2817
 5605TIP3   OH238449   1.900   5.785   0.286 -0.1718  0.0298  0.5048
 5605TIP3    H138450   1.929   5.844   0.216  1.6240 -0.1177  1.0766
 5605TIP3    H238451   1.950   5.705   0.271 -1.9104 -1.0503  0.2803
 5606TIP3   OH238452   5.579   1.190   0.641  0.0157  0.6855  0.4521
 5606TIP3    H138453   5.663   1.183   0.686 -0.0774 -1.6695  0.3769
 5606TIP3    H238454   5.532   1.259   0.688  1.8495  1.8205  0.6914
 5607TIP3   OH238455   3.692   4.263   1.750  0.2565 -0.6286  0.4664
 5607TIP3    H138456   3.770   4.277   1.803  1.9355 -1.4202 -1.6834
 5607TIP3    H238457   3.653   4.183   1.785  1.7410 -1.5397  0.1060
 5608TIP3   OH238458   0.481   4.327   1.460 -0.0215 -0.1218  0.2250
 5608TIP3    H138459   0.410   4.297   1.404 -0.2637 -1.6169  1.2842
 5608TIP3    H238460   0.439   4.384   1.524 -0.0706 -0.0875  0.1627
 5609TIP3   OH238461   5.153   1.765   1.270  0.7188  0.3197  0.5717
 5609TIP3    H138462   5.191   1.786   1.184  1.1980  2.5621  1.2847
 5609TIP3    H238463   5.178   1.838   1.326 -2.8611  0.8766  1.6706
 5610TIP3   OH238464   2.971   2.579   8.871 -0.0808 -0.0480 -0.0498
 5610TIP3    H138465   2.943   2.667   8.897  0.4653  0.0826  0.1209
 5610TIP3    H238466   3.033   2.594   8.799  1.2749 -0.1706  1.0465
 5611TIP3   OH238467   1.893   6.577   7.520  0.7967  0.0770  0.1741
 5611TIP3    H138468   1.853   6.663   7.507  1.7597  0.3251 -1.4387
 5611TIP3    H238469   1.819   6.519   7.538  0.2454  1.4358  2.7377
 5612TIP3   OH238470   3.466   0.472   1.828  0.0638  0.3018 -0.7573
 5612TIP3    H138471   3.384   0.423   1.826 -1.3910  2.1822  3.2449
 5612TIP3    H238472   3.442   0.558   1.861  3.4617  1.5179 -1.0873
 5613TIP3   OH238473   5.690   3.431   1.605  0.4550 -0.6987 -0.1095
 5613TIP3    H138474   5.702   3.504   1.545  1.4290 -0.5865  0.1999
 5613TIP3    H238475   5.671   3.356   1.548  1.3100 -0.5830 -0.5780
 5614TIP3   OH238476   0.025   1.678   0.564 -0.0457 -0.9129  0.2030
 5614TIP3    H138477   0.073   1.664   0.645  0.0353 -1.3446  0.0866
 5614TIP3    H238478  -0.064   1.701   0.591  0.4237  0.7241  0.4339
 5615TIP3   OH238479   3.434   3.344   0.658 -0.5756  0.0100  0.8193
 5615TIP3    H138480   3.411   3.384   0.742 -0.5448  2.0323 -0.0672
 5615TIP3    H238481   3.511   3.393   0.628 -0.0830 -1.2190 -0.0357
 5616TIP3   OH238482   4.604   4.675   1.613 -0.3046  0.0185  0.1977
 5616TIP3    H138483   4.682   4.622   1.596 -1.4307 -1.1589 -1.8166
 5616TIP3    H238484   4.620   4.757   1.566  0.9166  1.0271  2.2746
 5617TIP3   OH238485   3.618   1.054   8.962  0.1216 -0.5174 -0.4920
 5617TIP3    H138486   3.578   1.007   9.035 -0.9316  0.6181 -0.2972
 5617TIP3    H238487   3.655   1.133   9.003  1.0333 -0.6953 -0.9459
 5618TIP3   OH238488   5.024   3.038   2.349  0.0442 -0.1745  0.2478
 5618TIP3    H138489   5.109   3.080   2.338  0.6838 -0.7145  2.5514
 5618TIP3    H238490   4.975   3.098   2.407 -0.6321 -0.5275  0.0528
 5619TIP3   OH238491   4.696   6.312   7.548 -0.3327 -0.5876  0.1331
 5619TIP3    H138492   4.667   6.403   7.556  0.0560 -0.5384  1.1370
 5619TIP3    H238493   4.790   6.318   7.531 -0.3287 -0.7984  0.0739
 5620TIP3   OH238494   4.665   3.542   1.397  0.4251  1.0620  0.4441
 5620TIP3    H138495   4.742   3.586   1.362  0.0371  1.5368  0.1770
 5620TIP3    H238496   4.601   3.547   1.326  0.6122 -0.5960  0.1010
 5621TIP3   OH238497   2.068   5.525   0.044 -0.0564  0.4499  0.0939
 5621TIP3    H138498   2.000   5.494  -0.016 -1.5960 -0.5773  2.2382
 5621TIP3    H238499   2.036   5.501   0.131  2.0008  2.0066  1.3698
 5622TIP3   OH238500   5.358   4.558   0.278 -0.2221  0.1259  0.2772
 5622TIP3    H138501   5.439   4.606   0.294 -0.5467  0.4324  1.0838
 5622TIP3    H238502   5.299   4.586   0.348 -0.4694 -1.3619  0.7126
 5623TIP3   OH238503   1.419   5.621   0.848 -0.4877 -0.7490 -0.7081
 5623TIP3    H138504   1.464   5.596   0.928 -2.5120 -0.5789  0.5550
 5623TIP3    H238505   1.487   5.659   0.793  0.5163  1.7284  2.0210
 5624TIP3   OH238506   3.737   0.538   2.375  0.2114  0.3532 -0.5773
 5624TIP3    H138507   3.689   0.514   2.455 -1.2944  2.3486 -0.8041
 5624TIP3    H238508   3.745   0.456   2.326 -1.3177 -0.4002  0.3553
 5625TIP3   OH238509   6.407   4.094   0.909  0.4373 -0.2197  0.0544
 5625TIP3    H138510   6.413   4.093   0.814 -0.6240 -1.9327 -0.0432
 5625TIP3    H238511   6.485   4.140   0.938  0.8624  0.1845 -1.6340
 5626TIP3   OH238512   1.338   4.275   0.023 -0.5789  0.1791 -0.4529
 5626TIP3    H138513   1.294   4.252   0.105  2.9446 -1.6124  1.1347
 5626TIP3    H238514   1.293   4.222  -0.043 -3.8087  2.0115  0.0278
 5627TIP3   OH238515   0.340   2.176   7.694 -0.3798  0.3402 -0.0733
 5627TIP3    H138516   0.364   2.121   7.620  2.5167 -2.1767  2.4281
 5627TIP3    H238517   0.294   2.117   7.754  0.8106  1.1682  1.7484
 5628TIP3   OH238518   6.414   5.931   7.780  0.0034 -0.4736  0.6773
 5628TIP3    H138519   6.368   5.887   7.709  1.1687 -0.1355 -0.3339
 5628TIP3    H238520   6.502   5.893   7.777  0.0535 -0.4977  1.9979
 5629TIP3   OH238521   2.135   3.713   8.798 -0.1344  0.1002  0.2626
 5629TIP3    H138522   2.123   3.629   8.754  1.8771  0.2078 -0.6379
 5629TIP3    H238523   2.212   3.699   8.854 -1.9866  0.2839  3.0636
 5630TIP3   OH238524   3.041   0.156   2.891  0.6063 -0.2695  0.5668
 5630TIP3    H138525   2.971   0.164   2.956  0.2558 -1.8232  0.4261
 5630TIP3    H238526   3.120   0.182   2.938  0.2856 -0.9040  1.5061
 5631TIP3   OH238527   6.579   6.223   7.730 -0.4846 -0.2514  0.3184
 5631TIP3    H138528   6.637   6.296   7.748 -1.9875  0.4595  2.7768
 5631TIP3    H238529   6.510   6.260   7.674 -0.4331 -0.1791  0.3027
 5632TIP3   OH238530   3.791   1.819   3.397 -0.4487  0.6852 -0.1303
 5632TIP3    H138531   3.868   1.777   3.436 -0.6827  2.1650  2.1092
 5632TIP3    H238532   3.717   1.767   3.427 -0.4380 -0.2765 -1.6475
 5633TIP3   OH238533   3.343   4.982   9.080  0.2046 -0.1197  0.1970
 5633TIP3    H138534   3.390   5.032   9.147  0.3657  1.2054 -0.8631
 5633TIP3    H238535   3.251   4.990   9.106  0.2477  0.5519  0.1707
 5634TIP3   OH238536   6.272   4.400   8.373 -0.0586  0.1506  0.2114
 5634TIP3    H138537   6.239   4.481   8.335  0.3819  0.0198 -0.4844
 5634TIP3    H238538   6.368   4.411   8.370  0.1457 -1.4116 -2.3292
 5635TIP3   OH238539   1.914   2.084   2.364  0.0973 -0.0743  0.7778
 5635TIP3    H138540   1.932   2.011   2.423  0.7121 -0.1115  0.5475
 5635TIP3    H238541   1.877   2.043   2.286  1.4617 -0.2679  0.2016
 5636TIP3   OH238542   1.930   1.475   1.018 -0.0504  0.4854  0.3825
 5636TIP3    H138543   1.906   1.393   1.061  1.4595 -0.8941 -1.2511
 5636TIP3    H238544   1.865   1.485   0.948  0.0891  0.3902  0.2393
 5637TIP3   OH238545   3.698   4.025   1.415  0.3257  0.4394 -0.2711
 5637TIP3    H138546   3.761   4.004   1.484  0.2133 -0.6842 -0.4861
 5637TIP3    H238547   3.752   4.047   1.340  0.4814 -0.2556 -0.3749
 5638TIP3   OH238548   5.188   3.284   1.696 -0.0191 -0.5474  0.1569
 5638TIP3    H138549   5.129   3.208   1.690 -0.6536  0.0274 -1.4252
 5638TIP3    H238550   5.164   3.326   1.778 -0.2273 -1.5992  0.6563
 5639TIP3   OH238551   0.783   2.796   8.133  0.3544 -0.8414  0.2772
 5639TIP3    H138552   0.819   2.716   8.096 -1.6592 -1.3494 -0.7148
 5639TIP3    H238553   0.783   2.859   8.061 -0.5357 -0.8045  0.2920
 5640TIP3   OH238554   3.263   5.558   1.613  0.2677  0.6723 -0.0151
 5640TIP3    H138555   3.193   5.591   1.557 -0.3785 -0.6101 -0.0019
 5640TIP3    H238556   3.329   5.524   1.552  0.2207  0.5716 -0.0094
 5641TIP3   OH238557   3.339   4.932   7.527  0.1050  0.1172 -0.6151
 5641TIP3    H138558   3.265   4.914   7.469 -0.4885 -2.1307  0.7046
 5641TIP3    H238559   3.414   4.890   7.485 -0.1856 -0.9065 -0.1578
 5642TIP3   OH238560   3.767   2.017   0.093 -0.1825  0.3423  0.0329
 5642TIP3    H138561   3.849   2.034   0.140 -0.5326 -0.5590  1.0007
 5642TIP3    H238562   3.756   1.922   0.097 -1.6207  0.5026  0.5440
 5643TIP3   OH238563   1.442   0.889   0.641  0.1860 -0.5138  0.0499
 5643TIP3    H138564   1.370   0.828   0.650 -0.1750 -0.1382 -0.2426
 5643TIP3    H238565   1.414   0.950   0.573  0.7525 -0.3275 -0.0283
 5644TIP3   OH238566   0.256   5.213   8.738  0.4963 -0.1927  0.4846
 5644TIP3    H138567   0.322   5.148   8.711 -0.0193 -0.6640  0.3432
 5644TIP3    H238568   0.203   5.227   8.659  1.7959  1.9010 -0.0942
 5645TIP3   OH238569   1.223   5.301   8.861 -0.3612 -0.1955  0.4089
 5645TIP3    H138570   1.301   5.346   8.829 -0.8582 -0.5546 -1.3922
 5645TIP3    H238571   1.254   5.216   8.892 -0.0796 -0.4890 -0.6582
 5646TIP3   OH238572   2.111   1.032   8.698  0.5692  0.0828  0.3086
 5646TIP3    H138573   2.178   1.087   8.740 -0.2341  0.8371  0.6382
 5646TIP3    H238574   2.032   1.049   8.749 -0.1832  0.2163 -0.8894
 5647TIP3   OH238575   1.101   2.037   8.163 -0.2978 -0.2549  0.6716
 5647TIP3    H138576   1.166   2.041   8.233 -0.2176 -0.4416  0.6102
 5647TIP3    H238577   1.097   1.944   8.140  1.1416  0.0183 -0.9282
 5648TIP3   OH238578   0.403   4.828   1.779 -0.3603 -0.5784 -0.0994
 5648TIP3    H138579   0.454   4.884   1.836  1.4888 -0.8738 -1.3743
 5648TIP3    H238580   0.467   4.769   1.738 -1.4231  0.0439 -2.9544
 5649TIP3   OH238581   5.617   5.384   8.799  1.0747  0.5350 -0.5356
 5649TIP3    H138582   5.661   5.469   8.789  0.1264  1.2350  0.9487
 5649TIP3    H238583   5.661   5.343   8.874 -0.6903  1.2164  0.9331
 5650TIP3   OH238584   1.443   3.985   2.186 -0.7557 -0.0617  0.2585
 5650TIP3    H138585   1.435   4.079   2.173  0.8054  0.3437  1.8798
 5650TIP3    H238586   1.387   3.967   2.262 -1.3477 -0.5230 -0.2781
 5651TIP3   OH238587   0.544   2.338   2.261  0.0890  0.2688  0.2454
 5651TIP3    H138588   0.614   2.373   2.317 -0.5086  1.5767  0.2072
 5651TIP3    H238589   0.512   2.261   2.307  0.5440  0.5285  1.0099
 5652TIP3   OH238590   0.890   0.464   7.818  0.7552 -0.3187  0.3184
 5652TIP3    H138591   0.836   0.524   7.767  0.5050 -0.2698  0.6402
 5652TIP3    H238592   0.829   0.395   7.845  0.2624  1.0161  2.8206
 5653TIP3   OH238593   4.286   1.050   1.794 -0.2436  0.3949 -0.1028
 5653TIP3    H138594   4.296   1.122   1.732 -1.0341  0.8360  0.2711
 5653TIP3    H238595   4.375   1.014   1.802  0.3999  2.0103  0.5206
 5654TIP3   OH238596   0.219   6.463   1.812  0.0181 -0.4936  0.0387
 5654TIP3    H138597   0.311   6.452   1.837  0.6696  1.9097 -0.9293
 5654TIP3    H238598   0.188   6.536   1.866  0.0624  1.6249 -2.5768
 5655TIP3   OH238599   4.808   3.860   0.587  0.0175 -0.6555  0.1391
 5655TIP3    H138600   4.888   3.912   0.595 -1.0003  0.7464  2.2579
 5655TIP3    H238601   4.817   3.814   0.504  3.9425 -2.1798  1.1560
 5656TIP3   OH238602   2.201   6.386   1.729 -0.1626 -0.0058 -0.0349
 5656TIP3    H138603   2.265   6.316   1.717  0.3859  0.5070 -0.1157
 5656TIP3    H238604   2.173   6.407   1.639  1.9732  1.9994 -0.2947
 5657TIP3   OH238605   3.979   4.313   0.776  0.3330 -0.1593  0.4007
 5657TIP3    H138606   4.039   4.387   0.786 -0.6487  0.7381 -0.1970
 5657TIP3    H238607   3.972   4.301   0.682 -1.2712  0.4770  0.4125
 5658TIP3   OH238608   5.890   3.075   7.997  0.4105 -0.1975  0.1004
 5658TIP3    H138609   5.943   3.015   8.049  0.2826  0.0482  0.5145
 5658TIP3    H238610   5.889   3.157   8.047 -0.3527 -0.1983  0.0897
 5659TIP3   OH238611   4.719   2.755   2.657  0.3439 -0.7427  0.4679
 5659TIP3    H138612   4.738   2.663   2.637  1.1066 -0.6703  0.8302
 5659TIP3    H238613   4.643   2.751   2.716  0.4129 -1.1454  0.5354
 5660TIP3   OH238614   6.140   5.864   8.849 -0.0849  0.3792 -0.4264
 5660TIP3    H138615   6.236   5.874   8.846 -0.1268  0.9456 -0.0317
 5660TIP3    H238616   6.110   5.886   8.761 -0.1551  3.6633  0.2990
 5661TIP3   OH238617   4.357   0.827   2.415  0.2710  0.0190 -0.7343
 5661TIP3    H138618   4.329   0.876   2.492  1.7516 -1.6519  0.9880
 5661TIP3    H238619   4.452   0.841   2.411  0.4703 -1.3285 -1.1628
 5662TIP3   OH238620   2.878   1.581   2.455  0.2160 -0.1628 -0.5591
 5662TIP3    H138621   2.934   1.655   2.478 -0.0091 -0.1650  0.0028
 5662TIP3    H238622   2.937   1.505   2.459 -0.2033 -0.4434  1.9385
 5663TIP3   OH238623   4.941   6.484   0.837  0.1559 -0.3243  0.2321
 5663TIP3    H138624   4.979   6.542   0.772  1.6619 -0.4397  0.9640
 5663TIP3    H238625   5.016   6.445   0.881 -0.7727  0.2302  2.4682
 5664TIP3   OH238626   2.447   4.883   1.494 -0.0706  0.0809  0.2349
 5664TIP3    H138627   2.392   4.940   1.548 -0.5950  0.0839 -0.2849
 5664TIP3    H238628   2.497   4.943   1.439  0.9830  0.1072  1.1720
 5665TIP3   OH238629   2.818   3.897   0.745 -0.3868  0.0256 -0.2858
 5665TIP3    H138630   2.887   3.872   0.806  0.9934 -0.3245 -1.9042
 5665TIP3    H238631   2.738   3.861   0.782  0.1162  1.1942  2.1012
 5666TIP3   OH238632   4.444   2.700   8.292 -0.3186  0.5584 -0.3915
 5666TIP3    H138633   4.441   2.610   8.324  0.1131  0.8095  0.3964
 5666TIP3    H238634   4.353   2.726   8.282 -0.4685 -0.6708 -2.7247
 5667TIP3   OH238635   2.729   3.735   2.655 -0.1118 -0.4933 -0.0985
 5667TIP3    H138636   2.715   3.640   2.663  2.1081 -0.8592  0.0473
 5667TIP3    H238637   2.789   3.744   2.582 -0.5759  0.8631 -0.3315
 5668TIP3   OH238638   3.113   6.280   0.437  0.5605 -0.3494  0.1031
 5668TIP3    H138639   3.205   6.254   0.434  1.0369  1.2624 -0.4295
 5668TIP3    H238640   3.106   6.352   0.374 -1.3915 -1.3242 -0.9031
 5669TIP3   OH238641   3.009   2.425   2.811  0.0536 -0.6777 -0.5772
 5669TIP3    H138642   3.077   2.461   2.867 -0.3216 -0.1453 -0.4613
 5669TIP3    H238643   3.057   2.375   2.745  0.4665 -1.9847  0.6581
 5670TIP3   OH238644   3.338   3.269   1.246  0.5078 -0.5613  0.0601
 5670TIP3    H138645   3.430   3.289   1.232  0.4926  1.1195  1.9049
 5670TIP3    H238646   3.291   3.325   1.184  0.6952 -0.4209  0.0459
 5671TIP3   OH238647   3.297   5.521   7.387  0.4468  0.1386 -0.4961
 5671TIP3    H138648   3.210   5.561   7.390 -0.0407 -0.7779 -1.6947
 5671TIP3    H238649   3.358   5.594   7.378 -0.2798  0.7206 -0.7111
 5672TIP3   OH238650   3.939   2.163   9.086  0.2726  0.3041  0.2989
 5672TIP3    H138651   3.895   2.097   9.140  0.1649  1.1573  1.2921
 5672TIP3    H238652   3.868   2.220   9.056  0.3892  0.0981 -0.3737
 5673TIP3   OH238653   2.174   0.158   2.569 -0.4248 -0.0659 -0.0444
 5673TIP3    H138654   2.168   0.225   2.637 -0.0454  1.0836 -1.1021
 5673TIP3    H238655   2.210   0.204   2.493 -0.6489 -1.3582 -0.9714
 5674TIP3   OH238656   0.473   6.456   0.652 -0.1291  0.3219  0.1825
 5674TIP3    H138657   0.460   6.549   0.632  0.9036 -0.1513 -3.4392
 5674TIP3    H238658   0.390   6.415   0.626 -0.5021  0.1269  1.5747
 5675TIP3   OH238659   5.973   2.566   7.595 -0.3358  0.7397  0.0666
 5675TIP3    H138660   6.008   2.502   7.533 -0.9555  2.3938 -2.0761
 5675TIP3    H238661   5.958   2.515   7.675  2.3475 -1.0398 -0.4412
 5676TIP3   OH238662   4.044   5.216   0.212  0.1687 -0.3241 -0.5658
 5676TIP3    H138663   4.023   5.123   0.222 -0.9300  0.0128  0.4739
 5676TIP3    H238664   4.051   5.249   0.301 -0.7641  0.8642 -0.9092
 5677TIP3   OH238665   3.260   0.823   2.966  0.4854 -0.8504 -0.1693
 5677TIP3    H138666   3.207   0.782   2.898  0.3568 -1.3238  0.2136
 5677TIP3    H238667   3.342   0.774   2.967  0.7153 -0.4753 -0.3781
 5678TIP3   OH238668   5.358   5.319   8.860  0.0051 -0.4106 -0.0087
 5678TIP3    H138669   5.431   5.381   8.848 -0.1856 -0.2216 -0.2149
 5678TIP3    H238670   5.367   5.258   8.786 -1.3564  0.9388 -1.3595
 5679TIP3   OH238671   6.103   0.835   1.429 -1.1461  0.2495 -0.0548
 5679TIP3    H138672   6.130   0.743   1.427 -0.6207  0.3780  0.6008
 5679TIP3    H238673   6.010   0.833   1.452 -1.1726 -0.1218 -0.1918
 5680TIP3   OH238674   2.691   2.729   7.919  0.3921  0.1427  0.3944
 5680TIP3    H138675   2.700   2.739   7.824 -1.3283  1.8779  0.3441
 5680TIP3    H238676   2.738   2.649   7.939 -0.7419 -1.3225 -2.2166
 5681TIP3   OH238677   0.969   1.236   9.083 -0.1558  0.0966 -0.3089
 5681TIP3    H138678   1.023   1.312   9.104  0.1524 -0.6156  1.7197
 5681TIP3    H238679   1.022   1.185   9.022  1.8628 -0.8956  2.0908
 5682TIP3   OH238680   2.421   0.544   8.714 -0.0238  0.7203 -0.1673
 5682TIP3    H138681   2.508   0.538   8.677  1.7825 -1.1079  3.7653
 5682TIP3    H238682   2.381   0.620   8.671  2.7204  0.5505 -3.3992
 5683TIP3   OH238683   0.925   5.876   1.295  0.4420  0.2835  0.1644
 5683TIP3    H138684   0.859   5.808   1.280 -0.4041  1.3191 -1.1386
 5683TIP3    H238685   0.938   5.877   1.389  0.2735 -1.4731  0.2335
 5684TIP3   OH238686   0.292   6.379   2.444  0.1653 -0.2264  0.1631
 5684TIP3    H138687   0.210   6.426   2.459  0.5936  1.1529 -1.4707
 5684TIP3    H238688   0.276   6.327   2.365  0.1291 -1.9097  1.2095
 5685TIP3   OH238689   2.535   6.660   8.567 -0.0941  0.5586  0.0174
 5685TIP3    H138690   2.448   6.699   8.563  0.9924  3.2581  0.1188
 5685TIP3    H238691   2.551   6.628   8.478 -0.6121  1.4314 -0.4031
 5686TIP3   OH238692   6.625   0.610   9.032 -0.3084  0.2530  0.2625
 5686TIP3    H138693   6.576   0.546   9.084 -0.2902  1.1920  1.4934
 5686TIP3    H238694   6.674   0.558   8.968 -0.9079 -0.8867  0.7091
 5687TIP3   OH238695   4.214   6.628   1.566 -0.0534 -0.1509  0.5012
 5687TIP3    H138696   4.281   6.561   1.579 -0.3480 -0.2143  1.8515
 5687TIP3    H238697   4.135   6.589   1.602 -0.3984  0.6318  0.5915
 5688TIP3   OH238698   2.303   2.582   7.782  0.2370  0.3887 -0.4727
 5688TIP3    H138699   2.314   2.677   7.789 -1.2263  0.5743 -0.3985
 5688TIP3    H238700   2.344   2.559   7.699 -1.0485  1.3887 -1.4290
 5689TIP3   OH238701   5.277   3.291   8.107 -0.7932  0.6441 -0.1603
 5689TIP3    H138702   5.354   3.270   8.054  0.0116 -2.0652  1.8592
 5689TIP3    H238703   5.294   3.249   8.191 -3.9547  1.0506  0.7907
 5690TIP3   OH238704   0.892   2.721   0.746  0.3995  0.3214  0.2896
 5690TIP3    H138705   0.819   2.689   0.800  0.3319  0.3327  0.2048
 5690TIP3    H238706   0.915   2.647   0.690 -0.8795  0.9167 -1.1211
 5691TIP3   OH238707   5.618   4.029   8.015 -0.4528  0.4742 -0.0612
 5691TIP3    H138708   5.564   4.008   7.939  1.7030  1.5151 -2.0041
 5691TIP3    H238709   5.690   4.082   7.980  1.5660 -0.3912  2.4243
 5692TIP3   OH238710   3.707   1.444   2.276  0.4737  0.0320  0.4784
 5692TIP3    H138711   3.716   1.354   2.245 -0.4599  0.2764 -0.5601
 5692TIP3    H238712   3.774   1.453   2.344  1.1303 -1.1850  0.0174
 5693TIP3   OH238713   5.750   3.370   0.781 -0.2010  0.1181  0.0626
 5693TIP3    H138714   5.833   3.343   0.821 -0.4747  1.5625  1.6849
 5693TIP3    H238715   5.744   3.464   0.798 -1.3491  0.3953 -1.6059
 5694TIP3   OH238716   6.471   5.675   2.913  0.0170  0.5431 -0.1027
 5694TIP3    H138717   6.411   5.647   2.982 -0.6436  0.1268 -0.8337
 5694TIP3    H238718   6.506   5.593   2.876  0.4562  0.7632 -0.1860
 5695TIP3   OH238719   3.507   5.725   2.274 -0.0329 -0.2645 -0.2034
 5695TIP3    H138720   3.530   5.810   2.311 -1.0396  0.1511 -0.5176
 5695TIP3    H238721   3.442   5.689   2.333 -1.6504  0.4022 -1.5109
 5696TIP3   OH238722   5.945   5.594   0.834 -0.2212 -0.9749  0.7381
 5696TIP3    H138723   5.890   5.656   0.786  1.2013  0.1531  0.5034
 5696TIP3    H238724   5.931   5.510   0.790  0.3346 -0.1578 -1.0885
 5697TIP3   OH238725   1.718   0.398   8.770 -0.0870 -0.0479 -0.6119
 5697TIP3    H138726   1.807   0.365   8.765  0.2189  0.6402  0.1944
 5697TIP3    H238727   1.684   0.366   8.853  0.1901  1.5562  0.1514
 5698TIP3   OH238728   0.283   0.490   7.810  0.1091  0.4216  0.9118
 5698TIP3    H138729   0.368   0.495   7.766  1.0072 -2.6490  2.0386
 5698TIP3    H238730   0.228   0.553   7.763  2.5137  1.2905 -0.9528
 5699TIP3   OH238731   4.285   2.768   8.846  0.7918 -0.0832  0.7458
 5699TIP3    H138732   4.354   2.828   8.877  0.2865  0.2238  1.2926
 5699TIP3    H238733   4.205   2.819   8.852  0.5957 -0.1931 -0.5859
 5700TIP3   OH238734   3.811   4.687   0.204  0.3308  0.3978 -0.2199
 5700TIP3    H138735   3.862   4.611   0.174  1.7410  0.2757  2.2736
 5700TIP3    H238736   3.761   4.713   0.127  0.1664 -2.7419 -1.3280
 5701TIP3   OH238737   5.815   0.863   1.884  0.3515  0.4131 -0.0422
 5701TIP3    H138738   5.890   0.877   1.942  0.1947 -0.3686  0.3631
 5701TIP3    H238739   5.742   0.905   1.930  0.7369  2.2575 -1.0073
 5702TIP3   OH238740   3.483   2.183   1.896 -0.0945 -0.3618 -0.7008
 5702TIP3    H138741   3.469   2.123   1.823  1.0310 -0.1810 -1.0799
 5702TIP3    H238742   3.555   2.239   1.868 -1.1691  1.2625 -0.4109
 5703TIP3   OH238743   6.656   1.397   9.135 -0.6777 -0.4884 -0.1398
 5703TIP3    H138744   6.708   1.475   9.114  0.6083 -0.8706  1.4562
 5703TIP3    H238745   6.589   1.428   9.196 -1.1930 -0.3638 -0.7466
 5704TIP3   OH238746   6.336   0.203   7.742 -0.1343 -1.0285  0.5099
 5704TIP3    H138747   6.339   0.124   7.688 -0.9394 -0.4964 -0.3473
 5704TIP3    H238748   6.345   0.171   7.832  1.2896 -1.9335  0.0827
 5705TIP3   OH238749   3.053   4.712   9.088 -0.3227  0.6199  0.6282
 5705TIP3    H138750   3.080   4.698   8.997  1.8370 -1.3100  1.4373
 5705TIP3    H238751   3.063   4.806   9.102  0.5598  0.7667 -0.7942
 5706TIP3   OH238752   6.683   6.481   7.971 -0.0198 -0.6344 -0.3983
 5706TIP3    H138753   6.677   6.488   7.876  0.1586 -1.1622 -0.4502
 5706TIP3    H238754   6.772   6.449   7.987  1.0231  2.2742  0.1028
 5707TIP3   OH238755   1.250   1.391   8.973  0.1836  0.0318 -0.9284
 5707TIP3    H138756   1.207   1.421   9.053  0.0329  0.3144 -1.1128
 5707TIP3    H238757   1.178   1.368   8.914  0.2857 -1.1976 -0.6171
 5708TIP3   OH238758   5.335   6.438   8.849  0.0953 -0.2646 -0.1680
 5708TIP3    H138759   5.331   6.523   8.893  1.8385  0.7940 -1.9358
 5708TIP3    H238760   5.261   6.438   8.789  0.0976  0.0117 -0.1720
 5709TIP3   OH238761   1.476   4.414   9.034 -0.3430  0.2696 -0.2572
 5709TIP3    H138762   1.389   4.395   9.067 -0.7276  0.2796 -1.2291
 5709TIP3    H238763   1.486   4.357   8.957  1.1205 -0.8987  0.7306
 5710TIP3   OH238764   4.634   2.904   8.309 -0.3710 -0.7750 -0.5278
 5710TIP3    H138765   4.592   2.844   8.370 -1.1897 -0.2597 -0.5693
 5710TIP3    H238766   4.630   2.990   8.352 -0.6784 -0.4612 -1.1623
 5711TIP3   OH238767   6.010   4.201   7.594 -0.4431 -0.0683  0.7397
 5711TIP3    H138768   5.925   4.231   7.561 -0.3806 -0.6964 -0.0145
 5711TIP3    H238769   6.052   4.281   7.627  0.2130  0.9672 -2.2854
 5712TIP3   OH238770   0.207   0.866   1.885 -0.2514  0.1694 -0.6529
 5712TIP3    H138771   0.227   0.779   1.851 -0.0063  1.3795 -3.9175
 5712TIP3    H238772   0.132   0.852   1.943  0.8421 -2.3864  0.2795
 5713TIP3   OH238773   0.934   5.298   7.430 -0.3496 -0.3417 -0.2845
 5713TIP3    H138774   0.927   5.332   7.340 -0.0870 -0.7389 -0.4578
 5713TIP3    H238775   1.015   5.247   7.430  0.9328  1.5989  0.8324
 5714TIP3   OH238776   3.909   1.201   8.055  0.8960 -0.4576  0.0095
 5714TIP3    H138777   3.876   1.130   7.999  2.0919 -1.3276  0.3794
 5714TIP3    H238778   4.004   1.195   8.050  1.0302  0.8472  0.4167
 5715TIP3   OH238779   4.220   6.602   0.566 -0.2881  0.1550 -0.4710
 5715TIP3    H138780   4.171   6.685   0.567 -0.5391  0.0128 -0.7483
 5715TIP3    H238781   4.195   6.561   0.483  0.6965  0.3120 -0.8534
 5716TIP3   OH238782   5.820   2.776   1.956  0.3595 -0.1633  0.6298
 5716TIP3    H138783   5.896   2.820   1.993 -0.6110  1.6681  0.5430
 5716TIP3    H238784   5.836   2.777   1.861 -0.2391  1.2139  0.5205
 5717TIP3   OH238785   4.989   3.680   7.011  0.7916 -0.3402 -0.1046
 5717TIP3    H138786   5.053   3.619   6.975 -0.5506 -0.0882 -3.2490
 5717TIP3    H238787   4.921   3.625   7.050  1.0254 -0.7654 -0.2974
 5718TIP3   OH238788   6.353   5.307   0.307 -0.6160  0.1884 -0.4732
 5718TIP3    H138789   6.314   5.280   0.390  1.4365 -1.1654  0.1384
 5718TIP3    H238790   6.295   5.272   0.240 -0.5162 -1.7396  0.3848
 5719TIP3   OH238791   4.834   2.048   8.842 -0.1349  1.1274 -0.1473
 5719TIP3    H138792   4.902   2.063   8.907  1.4319 -1.1930 -1.0980
 5719TIP3    H238793   4.753   2.043   8.892  0.9794 -0.3735  1.6347
 5720TIP3   OH238794   0.143   4.574   8.159 -0.0472  0.7123 -0.8923
 5720TIP3    H138795   0.089   4.624   8.220  0.6636  0.0654  0.3372
 5720TIP3    H238796   0.161   4.634   8.087  0.6698  2.2058  0.4590
 5721TIP3   OH238797   2.887   3.843   7.420 -0.2035 -0.7979 -0.5866
 5721TIP3    H138798   2.908   3.852   7.327  1.4395  0.3967 -0.1456
 5721TIP3    H238799   2.855   3.753   7.429 -1.0496 -0.7195 -2.4056
 5722TIP3   OH238800   2.557   0.232   8.895  0.5511  0.5769  0.1651
 5722TIP3    H138801   2.646   0.259   8.918  0.1018  2.2968  0.0555
 5722TIP3    H238802   2.548   0.253   8.802 -0.5230  2.1968  0.5794
 5723TIP3   OH238803   1.015   0.909   9.096  0.5868 -0.6324  0.1099
 5723TIP3    H138804   1.053   0.979   9.044 -0.3710  0.4951  0.8766
 5723TIP3    H238805   1.036   0.932   9.186 -1.0717 -0.4656  0.4794
 5724TIP3   OH238806   3.835   1.796   0.632  0.7590  0.2618  0.9136
 5724TIP3    H138807   3.803   1.846   0.556  2.6326 -0.6215 -0.5367
 5724TIP3    H238808   3.784   1.716   0.631 -1.2867  1.4452  2.4256
 5725TIP3   OH238809   1.738   5.279   0.277 -0.5163 -0.1960  0.4135
 5725TIP3    H138810   1.749   5.247   0.188  1.6687  2.1197 -0.2443
 5725TIP3    H238811   1.660   5.233   0.309 -1.1531 -1.3807 -2.5076
 5726TIP3   OH238812   5.506   2.486   2.097 -0.1430  0.7729  0.2522
 5726TIP3    H138813   5.481   2.432   2.172  0.2937  1.2847  0.7778
 5726TIP3    H238814   5.588   2.527   2.123  0.6423  0.0615 -0.9618
 5727TIP3   OH238815   4.244   0.406   1.032  0.5585  0.0030 -0.1838
 5727TIP3    H138816   4.216   0.428   1.121 -0.3889  0.4345 -0.5718
 5727TIP3    H238817   4.244   0.489   0.985  0.3600 -0.3152 -0.7674
 5728TIP3   OH238818   3.040   3.615   8.366  0.5327  0.2822  0.1170
 5728TIP3    H138819   2.970   3.554   8.343 -1.6724  2.5081  0.4382
 5728TIP3    H238820   3.109   3.560   8.402 -1.1194 -2.0476 -0.0399
 5729TIP3   OH238821   4.114   0.746   2.862 -0.4502 -0.3317 -0.0437
 5729TIP3    H138822   4.181   0.706   2.917  0.6038 -0.4259 -1.3521
 5729TIP3    H238823   4.130   0.840   2.869  1.6623 -0.4072 -2.4772
 5730TIP3   OH238824   3.989   1.018   0.400  0.0467  0.0492 -0.7148
 5730TIP3    H138825   3.906   1.027   0.447  0.1920  0.3041 -0.5048
 5730TIP3    H238826   4.040   1.094   0.426  0.1564  0.1590 -1.2404
 5731TIP3   OH238827   4.477   4.381   7.904  0.1435  0.2704 -0.1592
 5731TIP3    H138828   4.464   4.329   7.825 -1.6078  0.0670  0.2186
 5731TIP3    H238829   4.498   4.469   7.872  3.3416 -0.5973 -0.8049
 5732TIP3   OH238830   6.520   5.125   0.625  0.3801  0.3394 -0.6991
 5732TIP3    H138831   6.528   5.107   0.718  0.9794  2.2895 -0.3200
 5732TIP3    H238832   6.569   5.056   0.582  3.1263  1.3188  0.6575
 5733TIP3   OH238833   0.174   6.676   0.446 -0.1700 -0.9175  0.1278
 5733TIP3    H138834   0.258   6.722   0.441  0.1340 -1.4196  0.4279
 5733TIP3    H238835   0.197   6.584   0.433 -0.7960 -0.9602 -0.6802
 5734TIP3   OH238836   1.843   0.311   2.761 -0.2121 -0.4900 -0.3121
 5734TIP3    H138837   1.830   0.244   2.694 -0.7029 -0.0968 -0.6210
 5734TIP3    H238838   1.858   0.262   2.842 -0.7314 -0.9761 -0.5049
 5735TIP3   OH238839   5.742   1.423   8.631 -1.0878  0.1315  0.3789
 5735TIP3    H138840   5.795   1.411   8.552 -1.9697  1.7145 -0.5190
 5735TIP3    H238841   5.800   1.399   8.703  0.7948  1.5485 -0.5798
 5736TIP3   OH238842   4.472   1.932   8.213 -0.3404 -0.1901  0.5005
 5736TIP3    H138843   4.439   1.963   8.298  0.5591  0.5249  0.5959
 5736TIP3    H238844   4.558   1.896   8.232 -0.1375 -0.0376 -0.1128
 5737TIP3   OH238845   4.399   0.831   8.003  0.4173  0.4001 -0.1106
 5737TIP3    H138846   4.453   0.849   7.926  1.2006 -1.6327 -0.0892
 5737TIP3    H238847   4.460   0.794   8.067 -0.5472  0.4298  0.8554
 5738TIP3   OH238848   5.459   4.589   0.784 -0.4865 -0.0613 -0.1443
 5738TIP3    H138849   5.410   4.535   0.847 -1.8848 -0.3295 -1.4119
 5738TIP3    H238850   5.476   4.670   0.831 -1.2679 -0.3490  0.6781
 5739TIP3   OH238851   2.661   3.843   8.300  0.2654 -0.2141  0.0733
 5739TIP3    H138852   2.641   3.750   8.309  0.0432 -0.0586  1.3981
 5739TIP3    H238853   2.674   3.874   8.390 -0.8648  1.2963 -0.2419
 5740TIP3   OH238854   5.085   5.882   8.659 -0.3406  0.0629 -0.4318
 5740TIP3    H138855   5.082   5.846   8.748  0.0963  0.6937 -0.1517
 5740TIP3    H238856   5.130   5.815   8.608 -0.5107 -0.2654 -0.1567
 5741TIP3   OH238857   6.156   1.545   0.370 -0.0054 -0.0583 -0.0339
 5741TIP3    H138858   6.202   1.533   0.454 -0.3779  1.5298  0.4283
 5741TIP3    H238859   6.073   1.586   0.394  0.0037  0.6778 -1.2104
 5742TIP3   OH238860   1.667   5.217   0.618 -0.1825  0.3048 -0.1867
 5742TIP3    H138861   1.580   5.179   0.621 -0.2605  0.3891 -1.0635
 5742TIP3    H238862   1.717   5.157   0.563  0.8847 -0.8323  1.8800
 5743TIP3   OH238863   0.630   5.834   3.041  0.5315  1.1078  0.0449
 5743TIP3    H138864   0.631   5.858   2.948 -0.5120  1.1267  0.0237
 5743TIP3    H238865   0.722   5.828   3.065  0.8423  0.2651 -1.2157
 5744TIP3   OH238866   4.045   1.836   2.316  0.2812 -0.2598  0.3064
 5744TIP3    H138867   4.129   1.805   2.349 -0.0399  1.0118  2.5509
 5744TIP3    H238868   3.982   1.809   2.383 -0.6198  1.3363  0.1625
 5745TIP3   OH238869   5.660   3.657   7.879 -0.0333 -0.4517 -0.1474
 5745TIP3    H138870   5.650   3.749   7.901 -0.7781 -0.6995  0.6449
 5745TIP3    H238871   5.711   3.656   7.798  2.6115  0.5257  1.3961
 5746TIP3   OH238872   2.446   3.438   0.246 -0.0804 -0.1384 -0.2577
 5746TIP3    H138873   2.423   3.389   0.167 -1.9470  0.0506  0.1232
 5746TIP3    H238874   2.371   3.495   0.262  0.9254  0.9490  0.7961
 5747TIP3   OH238875   4.277   1.966   2.891 -0.8502  0.0693 -0.1815
 5747TIP3    H138876   4.246   2.055   2.910 -0.2729  0.5116 -1.2222
 5747TIP3    H238877   4.372   1.976   2.882 -0.6500 -0.8613  0.7837
 5748TIP3   OH238878   1.926   3.628   7.059  0.1987  0.6677  0.0884
 5748TIP3    H138879   1.917   3.532   7.057  0.3075  0.6472  0.5695
 5748TIP3    H238880   1.983   3.645   7.133  0.6653  1.0750 -0.3551
 5749TIP3   OH238881   3.163   0.722   7.912 -0.4041 -0.0699  0.0466
 5749TIP3    H138882   3.082   0.707   7.864  1.0090  0.9338 -2.9162
 5749TIP3    H238883   3.231   0.682   7.858  1.2555  0.5210  1.5780
 5750TIP3   OH238884   5.416   4.915   0.542  0.6528  0.2095  0.0083
 5750TIP3    H138885   5.332   4.904   0.497  0.3927  0.8101  0.3376
 5750TIP3    H238886   5.392   4.944   0.630  1.2347  1.6119 -0.2756
 5751TIP3   OH238887   5.173   2.150   0.851  0.4549 -0.1307 -0.3472
 5751TIP3    H138888   5.081   2.125   0.855  0.1085  1.2113  1.1309
 5751TIP3    H238889   5.173   2.238   0.813  1.3223 -0.8001 -2.0048
 5752TIP3   OH238890   2.892   0.823   8.962  0.5368  0.4934  0.2155
 5752TIP3    H138891   2.879   0.730   8.981  0.3692  0.1470 -1.4634
 5752TIP3    H238892   2.851   0.836   8.877 -0.4625  2.3871  0.9494
 5753TIP3   OH238893   1.080   0.570   7.664 -0.5870  0.0645  0.5483
 5753TIP3    H138894   1.013   0.558   7.732 -0.3964  2.2958  1.2008
 5753TIP3    H238895   1.091   0.483   7.626 -4.0647 -0.3501  0.1793
 5754TIP3   OH238896   6.087   1.980   2.174  0.0096 -0.1321 -0.0754
 5754TIP3    H138897   6.174   2.013   2.154  0.4474 -0.8953  0.5233
 5754TIP3    H238898   6.027   2.048   2.143  0.8739  1.1680  1.0279
 5755TIP3   OH238899   6.010   0.818   7.316 -0.1735  0.4387 -0.2168
 5755TIP3    H138900   6.020   0.844   7.224  1.3404 -0.8301 -0.4467
 5755TIP3    H238901   6.045   0.892   7.365  1.7419 -0.0396 -0.7802
 5756TIP3   OH238902   1.747   2.819   8.717  0.2003  0.5572  0.5878
 5756TIP3    H138903   1.756   2.906   8.678 -0.5073 -0.3855 -1.9195
 5756TIP3    H238904   1.833   2.778   8.704 -0.7024 -0.6483 -2.6230
 5757TIP3   OH238905   2.238   5.768   0.976 -0.2152 -0.1360  0.0360
 5757TIP3    H138906   2.175   5.697   0.988  1.1336 -1.2755  0.5672
 5757TIP3    H238907   2.317   5.725   0.945  0.5816  1.1689  0.1897
 5758TIP3   OH238908   5.813   4.239   7.364 -0.0710  0.2708  0.9190
 5758TIP3    H138909   5.720   4.215   7.363  0.2862 -1.2217  0.0474
 5758TIP3    H238910   5.847   4.207   7.281  1.3024  0.4958  1.3635
 5759TIP3   OH238911   6.632   4.040   8.563 -0.5207  0.3593  0.7368
 5759TIP3    H138912   6.713   3.997   8.590 -0.5849  0.2658  0.7794
 5759TIP3    H238913   6.641   4.051   8.469 -0.7093 -0.1734  0.6558
 5760TIP3   OH238914   3.565   1.565   8.508 -0.1680 -0.7728  0.0046
 5760TIP3    H138915   3.564   1.600   8.598  1.3481  1.0118 -0.5962
 5760TIP3    H238916   3.658   1.552   8.489 -0.5014 -1.5793 -1.1575
 5761TIP3   OH238917   1.295   1.640   1.552 -0.2910 -0.7540 -0.2489
 5761TIP3    H138918   1.300   1.614   1.644 -1.3749 -2.0680 -0.5225
 5761TIP3    H238919   1.380   1.615   1.515  0.6252  0.8832  0.6065
 5762TIP3   OH238920   1.237   3.177   1.951 -0.0586  0.2556  0.2350
 5762TIP3    H138921   1.261   3.259   1.908  1.3802  0.1612  0.7833
 5762TIP3    H238922   1.233   3.113   1.880  0.0194  0.5538 -0.0421
 5763TIP3   OH238923   6.261   4.253   8.613  0.4717 -0.0963  0.8407
 5763TIP3    H138924   6.266   4.290   8.524 -1.4309  1.2175  1.2241
 5763TIP3    H238925   6.190   4.189   8.608  0.5889 -0.2639  1.3411
 5764TIP3   OH238926   1.380   3.359   7.759  0.0212  0.1102  0.3329
 5764TIP3    H138927   1.460   3.318   7.725  0.9131  0.7145  1.6305
 5764TIP3    H238928   1.331   3.383   7.680  1.6757  0.8242 -0.5287
 5765TIP3   OH238929   4.149   2.983   8.624 -0.4386 -0.2050 -0.6395
 5765TIP3    H138930   4.183   3.044   8.689  0.3029 -1.0071 -0.2564
 5765TIP3    H238931   4.155   3.031   8.541  0.0709  0.2655 -0.3388
 5766TIP3   OH238932   3.470   4.269   0.556 -0.7705 -0.5658  0.5168
 5766TIP3    H138933   3.523   4.204   0.510  0.0779 -0.9497  1.9711
 5766TIP3    H238934   3.529   4.342   0.572 -1.1528 -0.2917  0.6885
 5767TIP3   OH238935   0.097   3.328   7.492  0.0040  0.2749 -0.1228
 5767TIP3    H138936   0.126   3.341   7.583 -0.4461  0.8640 -0.0614
 5767TIP3    H238937   0.117   3.410   7.448 -1.3395  0.6047 -0.1390
 5768TIP3   OH238938   1.244   0.265   1.784  0.1186  0.0880 -0.2556
 5768TIP3    H138939   1.221   0.183   1.827 -0.9690 -0.0200 -0.9994
 5768TIP3    H238940   1.206   0.258   1.696  1.1537  0.8440 -0.7882
 5769TIP3   OH238941   4.123   1.727   8.406  0.0917  0.5094  0.3036
 5769TIP3    H138942   4.092   1.680   8.483 -0.8542  0.4784 -0.0859
 5769TIP3    H238943   4.061   1.704   8.337  2.2205 -1.3783 -1.1359
 5770TIP3   OH238944   5.234   2.389   0.704 -0.5110  0.6066 -0.3100
 5770TIP3    H138945   5.320   2.407   0.741 -0.3479 -0.0934 -0.3504
 5770TIP3    H238946   5.181   2.464   0.732 -0.4084  0.0759  1.4273
 5771TIP3   OH238947   0.300   6.601   1.526 -0.2139  0.0694  0.2519
 5771TIP3    H138948   0.384   6.597   1.570 -0.0544  1.6456  0.1318
 5771TIP3    H238949   0.304   6.530   1.461  0.6580 -0.4249  0.8197
 5772TIP3   OH238950   0.595   6.595   1.518  0.1127 -0.0870 -0.3545
 5772TIP3    H138951   0.579   6.643   1.599  3.5421  0.2353  0.3080
 5772TIP3    H238952   0.617   6.663   1.454  1.3981 -0.5123 -0.4008
 5773TIP3   OH238953   5.695   4.859   7.903 -0.4003 -0.0793 -0.3127
 5773TIP3    H138954   5.705   4.770   7.869  0.6065 -0.3029  0.5017
 5773TIP3    H238955   5.784   4.891   7.913 -0.5580 -0.2379  2.5488
 5774TIP3   OH238956   0.233   6.397   1.345  0.3895  0.2587  0.2988
 5774TIP3    H138957   0.198   6.370   1.431  0.2904 -1.6306 -0.2815
 5774TIP3    H238958   0.295   6.328   1.322  0.8985  1.0742 -0.8772
 5775TIP3   OH238959   4.194   6.495   0.297 -0.0426  0.7798  0.7702
 5775TIP3    H138960   4.118   6.517   0.244  1.1226  1.1257 -0.8183
 5775TIP3    H238961   4.214   6.404   0.274 -0.5239  0.3626  1.9145
 5776TIP3   OH238962   5.271   2.959   0.519  0.1798 -0.2405  0.0717
 5776TIP3    H138963   5.178   2.978   0.508  0.2634  0.4793  0.5457
 5776TIP3    H238964   5.316   3.031   0.474  0.5195 -0.7119 -0.3696
 5777TIP3   OH238965   3.805   2.725   8.441  0.1015  0.0713  0.6058
 5777TIP3    H138966   3.870   2.655   8.449  1.4575  1.4050  1.5948
 5777TIP3    H238967   3.721   2.678   8.440  1.0373 -1.7036 -0.9810
 5778TIP3   OH238968   5.531   4.943   2.519 -0.2008 -0.1601 -0.0852
 5778TIP3    H138969   5.586   4.880   2.566 -1.7475 -1.3797  0.1614
 5778TIP3    H238970   5.446   4.900   2.512 -1.6976  2.3510  1.1459
 5779TIP3   OH238971   6.339   0.195   8.534 -0.5745  0.2084  0.4586
 5779TIP3    H138972   6.274   0.250   8.490  0.2061  0.2176 -0.7507
 5779TIP3    H238973   6.340   0.114   8.483 -0.7308 -0.3995  1.4038
 5780TIP3   OH238974   5.286   0.820   0.152 -0.3014  0.1674  0.1620
 5780TIP3    H138975   5.298   0.909   0.117 -1.9871  1.0617  1.6809
 5780TIP3    H238976   5.200   0.793   0.118  0.4131 -1.1460 -0.7121
 5781TIP3   OH238977   0.395   2.682   2.585  0.2090  0.1518  0.1906
 5781TIP3    H138978   0.310   2.664   2.546  0.2699  1.4179 -0.6017
 5781TIP3    H238979   0.398   2.626   2.663 -1.1130 -0.3116 -0.0599
 5782TIP3   OH238980   0.431   6.145   7.549  0.6594 -0.3286 -0.0034
 5782TIP3    H138981   0.340   6.146   7.522  1.0170  3.0509 -1.5326
 5782TIP3    H238982   0.429   6.160   7.643 -0.4036  1.6425 -0.2876
 5783TIP3   OH238983   6.374   6.343   1.406 -0.3550  0.5650  0.0047
 5783TIP3    H138984   6.315   6.288   1.355 -1.9549  2.7983 -0.6913
 5783TIP3    H238985   6.317   6.394   1.463  1.0890  1.2958  0.8649
 5784TIP3   OH238986   1.626   1.589   9.081 -0.6142  0.1459  0.3849
 5784TIP3    H138987   1.590   1.502   9.064  0.0602 -0.3965  1.5850
 5784TIP3    H238988   1.712   1.589   9.039 -0.0527 -0.2613  1.4993
 5785TIP3   OH238989   6.583   2.215   1.398 -0.2081 -0.1061 -0.3830
 5785TIP3    H138990   6.656   2.240   1.341 -0.0922  0.3730 -0.0289
 5785TIP3    H238991   6.544   2.298   1.425  2.2222 -0.0085  3.5110
 5786TIP3   OH238992   0.691   1.892   2.712 -0.4445 -0.3872 -0.0053
 5786TIP3    H138993   0.619   1.953   2.695 -0.9611 -0.6893  1.0245
 5786TIP3    H238994   0.733   1.926   2.791 -1.3134 -1.8429  1.1405
 5787TIP3   OH238995   4.026   0.362   1.614  0.2278  0.0501 -0.3224
 5787TIP3    H138996   4.057   0.433   1.558  1.0542 -0.1511 -0.1319
 5787TIP3    H238997   3.934   0.351   1.590  0.3030  0.6528 -0.9109
 5788TIP3   OH238998   6.396   3.902   1.820 -0.1355  0.0979  0.1356
 5788TIP3    H138999   6.483   3.937   1.803  0.1242 -0.9507 -0.8224
 5788TIP3    H239000   6.368   3.945   1.900 -0.7898  4.1849 -2.0312
 5789TIP3   OH239001   5.065   1.270   2.536 -0.1618  0.6237  0.2566
 5789TIP3    H139002   5.084   1.183   2.572 -0.4233  0.8366  0.9395
 5789TIP3    H239003   4.982   1.295   2.577  1.0110  2.1362  1.8640
 5790TIP3   OH239004   5.226   5.615   2.476 -1.1428 -0.2398  0.3783
 5790TIP3    H139005   5.155   5.679   2.485 -0.8645 -0.1343  2.3305
 5790TIP3    H239006   5.288   5.657   2.416 -2.8344 -0.4888 -1.6606
 5791TIP3   OH239007   0.612   3.848   7.917  0.8903  0.3005 -0.0781
 5791TIP3    H139008   0.684   3.804   7.964 -0.5851 -0.6344  1.4125
 5791TIP3    H239009   0.541   3.784   7.916  0.1233  1.1123 -1.7385
 5792TIP3   OH239010   4.376   0.125   0.709 -0.2132 -0.6200 -0.3971
 5792TIP3    H139011   4.384   0.210   0.666  0.1015  0.4336  1.6241
 5792TIP3    H239012   4.282   0.117   0.729 -0.2000 -0.6247 -0.3368
 5793TIP3   OH239013   2.853   6.103   8.178 -0.6217  0.8819  0.0723
 5793TIP3    H139014   2.804   6.154   8.113 -1.6445 -0.1313  0.0100
 5793TIP3    H239015   2.787   6.072   8.239  0.0903  0.3485  0.5933
 5794TIP3   OH239016   6.198   5.121   0.166 -0.2702 -0.1718 -0.5431
 5794TIP3    H139017   6.195   5.031   0.196  0.8323 -0.0673 -0.0790
 5794TIP3    H239018   6.118   5.132   0.114 -0.8988 -1.1150  0.1999
 5795TIP3   OH239019   1.045   4.684   7.951  0.2705 -0.9880  0.2828
 5795TIP3    H139020   1.042   4.591   7.928 -0.9027 -1.8245  3.2242
 5795TIP3    H239021   1.039   4.684   8.047 -1.2473  2.1757  0.2919
 5796TIP3   OH239022   5.276   5.404   1.759  0.4166 -0.5375  0.1791
 5796TIP3    H139023   5.290   5.310   1.770 -3.4888 -1.4262 -0.8743
 5796TIP3    H239024   5.199   5.424   1.812 -2.4511  0.6367 -3.8672
 5797TIP3   OH239025   2.710   6.276   1.480  0.2300 -0.2153  0.0408
 5797TIP3    H139026   2.778   6.208   1.481  0.3323 -0.1146  0.0062
 5797TIP3    H239027   2.633   6.232   1.444  1.2653  0.5727 -3.4842
 5798TIP3   OH239028   1.548   1.910   9.120 -0.0803 -0.0053 -0.0269
 5798TIP3    H139029   1.561   1.815   9.117 -1.2419 -0.1695 -0.8167
 5798TIP3    H239030   1.551   1.932   9.213  0.3451 -0.7945  0.1533
 5799TIP3   OH239031   0.810   5.737   2.025 -0.0072  0.5711 -0.2441
 5799TIP3    H139032   0.780   5.659   1.979 -0.4869  0.3842  0.3791
 5799TIP3    H239033   0.824   5.802   1.956  1.6067 -0.4252 -0.9314
 5800TIP3   OH239034   0.113   3.158   0.287  0.4140 -0.3176  0.2320
 5800TIP3    H139035   0.161   3.240   0.282  1.2584 -0.8079  0.2253
 5800TIP3    H239036   0.092   3.136   0.196 -1.2586  0.7056  0.3170
 5801TIP3   OH239037   5.904   6.264   0.944  0.1026  0.4054  0.1154
 5801TIP3    H139038   5.930   6.173   0.933 -1.1092 -0.0645  0.8742
 5801TIP3    H239039   5.928   6.286   1.034 -0.9415  0.3481  0.4209
 5802TIP3   OH239040   0.015   3.792   7.882  0.4388 -0.3801  0.2843
 5802TIP3    H139041   0.007   3.806   7.976 -0.0854  1.0042  0.0561
 5802TIP3    H239042  -0.074   3.805   7.848  0.5823 -1.0647 -0.3868
 5803TIP3   OH239043   2.832   0.654   8.460  0.9143 -0.5204 -0.5352
 5803TIP3    H139044   2.788   0.708   8.394 -0.2928 -1.4496 -0.5356
 5803TIP3    H239045   2.881   0.589   8.410  1.8954  0.1884 -0.5253
 5804TIP3   OH239046   3.977   5.427   2.858  0.1250  0.1257  0.0756
 5804TIP3    H139047   3.913   5.482   2.902  0.4844  1.0090 -0.4655
 5804TIP3    H239048   4.062   5.457   2.892  0.2731 -0.8027  0.5399
 5805TIP3   OH239049   4.176   3.769   8.565  0.0331  0.0572 -0.0515
 5805TIP3    H139050   4.094   3.739   8.527  0.4800 -0.2365 -0.7960
 5805TIP3    H239051   4.233   3.692   8.564  0.9709  0.7280 -1.3599
 5806TIP3   OH239052   5.052   0.428   0.013 -0.3994  0.1063  0.0956
 5806TIP3    H139053   5.047   0.446   0.107 -1.2361  1.1941 -0.1389
 5806TIP3    H239054   4.962   0.408  -0.013 -0.0843 -0.7485 -0.3834
 5807TIP3   OH239055   2.524   1.751   8.207 -0.2709  0.3437 -0.6351
 5807TIP3    H139056   2.548   1.795   8.125 -0.4504 -0.6140 -1.2211
 5807TIP3    H239057   2.431   1.729   8.195 -0.1282 -0.3685 -0.4445
 5808TIP3   OH239058   3.645   3.479   7.718 -0.5631 -0.0319 -0.4312
 5808TIP3    H139059   3.550   3.473   7.711 -0.5092  0.3799 -1.8970
 5808TIP3    H239060   3.668   3.557   7.666  0.7152 -1.2024 -1.7133
 5809TIP3   OH239061   2.858   0.634   0.293  0.6380  0.4443 -0.6416
 5809TIP3    H139062   2.769   0.605   0.274  0.3997  0.3279  0.5638
 5809TIP3    H239063   2.864   0.631   0.388  1.5748  1.5125 -0.6466
 5810TIP3   OH239064   1.424   6.353   8.339 -0.4579  0.6398  0.2351
 5810TIP3    H139065   1.448   6.270   8.380 -0.3954 -1.3140 -3.3580
 5810TIP3    H239066   1.502   6.408   8.347  0.3886 -0.5827  0.5792
 5811TIP3   OH239067   5.042   6.432   8.089  0.1788 -0.0030 -0.3165
 5811TIP3    H139068   5.033   6.525   8.111  0.0487  0.0416 -0.5624
 5811TIP3    H239069   4.979   6.388   8.145 -0.3861  0.1445 -0.8293
 5812TIP3   OH239070   1.314   1.492   1.805  0.6519 -0.2703  0.2411
 5812TIP3    H139071   1.368   1.463   1.879  1.2732  0.2375 -0.0114
 5812TIP3    H239072   1.304   1.413   1.751  1.2308 -0.3405  0.2328
 5813TIP3   OH239073   0.994   1.634   2.380  0.7177 -0.0639  0.0081
 5813TIP3    H139074   0.946   1.602   2.456  1.4088  0.6017  0.7445
 5813TIP3    H239075   1.014   1.555   2.330 -3.4955 -0.2191 -1.8561
 5814TIP3   OH239076   5.569   2.022   9.099  0.1208  0.0164 -0.7616
 5814TIP3    H139077   5.479   2.042   9.075 -0.2002  2.0726  1.7384
 5814TIP3    H239078   5.566   1.932   9.131 -0.9912 -0.0114 -0.9123
 5815TIP3   OH239079   2.632   1.277   0.563 -0.2007 -0.7564  0.3908
 5815TIP3    H139080   2.676   1.362   0.570  0.8520 -1.2762  0.2651
 5815TIP3    H239081   2.603   1.257   0.652 -0.2842 -0.3453  0.4557
 5816TIP3   OH239082   5.775   3.713   7.650  0.5031 -0.1449  0.1218
 5816TIP3    H139083   5.791   3.646   7.585 -0.2555 -0.2943  0.0848
 5816TIP3    H239084   5.842   3.780   7.633  0.4487 -0.2876 -0.6556
 5817TIP3   OH239085   0.518   3.177   8.398 -0.0241  0.5160  0.1202
 5817TIP3    H139086   0.557   3.123   8.329 -0.2553 -0.4781  0.7428
 5817TIP3    H239087   0.427   3.188   8.372  0.0984  0.8902 -0.1671
 5818TIP3   OH239088   2.521   2.835   0.260  0.0013 -0.0463  0.1059
 5818TIP3    H139089   2.517   2.911   0.318 -1.5351  0.3015 -0.4203
 5818TIP3    H239090   2.430   2.813   0.242  0.4072  0.1961 -2.6063
 5819TIP3   OH239091   1.479   4.718   6.672 -0.9146  0.1212  0.2187
 5819TIP3    H139092   1.411   4.747   6.611  2.4712  1.5977 -3.2577
 5819TIP3    H239093   1.512   4.798   6.711  0.8718 -0.1518 -0.6326
 5820TIP3   OH239094   6.003   4.492   7.967 -0.2608  0.0440 -0.3790
 5820TIP3    H139095   6.093   4.489   7.934 -0.6951  0.1042 -1.6206
 5820TIP3    H239096   5.992   4.411   8.016  0.5859  0.2110  0.1046
 5821TIP3   OH239097   1.415   1.950   8.590 -0.4026  0.0642 -0.1616
 5821TIP3    H139098   1.346   2.015   8.604 -0.3232 -0.0313  0.7248
 5821TIP3    H239099   1.488   2.001   8.554 -0.8245  0.2176 -0.8079
 5822TIP3   OH239100   2.500   1.243   3.105 -0.3196 -0.2101 -0.0994
 5822TIP3    H139101   2.469   1.333   3.089  1.1491  0.7104  1.8254
 5822TIP3    H239102   2.420   1.192   3.115 -1.1983  0.9411 -0.8623
 5823TIP3   OH239103   5.084   0.176   8.962 -0.1926 -0.3134  0.1629
 5823TIP3    H139104   5.165   0.227   8.966  0.5020 -1.3854  0.0215
 5823TIP3    H239105   5.086   0.134   8.876 -1.5420  0.6546 -0.3857
 5824TIP3   OH239106   0.678   1.386   3.299 -0.3774  0.2703 -0.4460
 5824TIP3    H139107   0.650   1.477   3.304  0.1131  0.4304 -0.5989
 5824TIP3    H239108   0.762   1.389   3.253  0.1633 -0.1542  0.5037
 5825TIP3   OH239109   3.107   3.101   2.333  0.2909  0.0184 -0.7371
 5825TIP3    H139110   3.058   3.115   2.252  0.4766 -2.0602 -1.2608
 5825TIP3    H239111   3.040   3.102   2.402  0.0682  1.2631 -0.9477
 5826TIP3   OH239112   3.972   2.178   1.821  0.1888 -0.4422 -0.1366
 5826TIP3    H139113   4.013   2.105   1.867  1.8340  0.4809 -0.0354
 5826TIP3    H239114   4.031   2.252   1.837 -0.3908  0.4388 -1.8290
 5827TIP3   OH239115   2.112   3.749   0.668  0.1756  0.7014 -0.0300
 5827TIP3    H139116   2.051   3.781   0.602 -1.0465 -0.7257  0.3588
 5827TIP3    H239117   2.198   3.754   0.625 -0.6931 -1.2705 -2.2143
 5828TIP3   OH239118   0.152   0.738   2.200  0.2401 -0.7645  0.0977
 5828TIP3    H139119   0.088   0.724   2.130  0.2092  0.1379 -0.0697
 5828TIP3    H239120   0.237   0.742   2.155  0.3703 -1.4729  0.2659
 5829TIP3   OH239121   5.584   1.117   0.356 -0.9959 -0.8147  0.1105
 5829TIP3    H139122   5.579   1.170   0.435  0.0653 -1.0175  0.3181
 5829TIP3    H239123   5.525   1.043   0.373 -0.1996 -1.2596  1.0297
 5830TIP3   OH239124   5.228   2.860   1.007  0.0961 -0.1440 -0.0074
 5830TIP3    H139125   5.288   2.851   0.933  0.4275  1.3898  0.0521
 5830TIP3    H239126   5.271   2.923   1.065 -0.0060 -1.5368  1.6606
 5831TIP3   OH239127   0.090   4.316   7.413 -0.8760  0.0964  0.2227
 5831TIP3    H139128   0.122   4.229   7.393 -1.9025 -0.4268  0.7911
 5831TIP3    H239129   0.056   4.310   7.502  0.1430  1.4012  0.7388
 5832TIP3   OH239130   4.295   5.784   1.930 -0.0204 -0.3346 -0.4928
 5832TIP3    H139131   4.337   5.707   1.892  0.4638 -0.2493 -0.1495
 5832TIP3    H239132   4.322   5.783   2.022 -0.5888 -0.1463 -0.3170
 5833TIP3   OH239133   1.191   1.852   7.724  0.4753 -0.1228 -0.3255
 5833TIP3    H139134   1.159   1.772   7.681  0.8290  0.1548 -1.1355
 5833TIP3    H239135   1.248   1.820   7.794 -0.2124 -0.5914  0.0319
 5834TIP3   OH239136   3.783   5.440   0.969 -0.2759  0.8767 -0.3130
 5834TIP3    H139137   3.866   5.471   1.005 -0.9475  0.4983  1.7209
 5834TIP3    H239138   3.805   5.359   0.924  0.5891  1.3004 -0.6849
 5835TIP3   OH239139   4.475   4.572   7.549  1.2398 -0.0795  0.6258
 5835TIP3    H139140   4.435   4.629   7.483  1.5045  0.8725  1.2710
 5835TIP3    H239141   4.469   4.484   7.511 -2.0159 -0.1235  0.9394
 5836TIP3   OH239142   3.437   1.080   0.118  0.5580 -0.1744 -0.1416
 5836TIP3    H139143   3.416   1.020   0.189  1.0868  0.2067  0.3387
 5836TIP3    H239144   3.510   1.132   0.151 -1.9979  3.1041  0.8676
 5837TIP3   OH239145   1.565   5.422   2.149 -0.6254 -0.1970  0.0581
 5837TIP3    H139146   1.647   5.395   2.107  0.1164 -0.0574  1.3703
 5837TIP3    H239147   1.507   5.445   2.076  0.7764  0.4935 -0.8847
 5838TIP3   OH239148   5.094   2.483   1.740  0.4725 -0.2851  0.2691
 5838TIP3    H139149   5.081   2.571   1.775  1.2856 -0.1493  0.2530
 5838TIP3    H239150   5.189   2.474   1.733  0.3887 -1.0914  0.0811
 5839TIP3   OH239151   2.077   3.380   2.545 -0.5133 -0.7117  0.0312
 5839TIP3    H139152   2.115   3.293   2.539  1.2407 -0.0367  0.8555
 5839TIP3    H239153   2.035   3.383   2.631 -0.3523 -0.6637  0.1085
 5840TIP3   OH239154   5.024   2.729   1.109  0.3336 -0.3871  0.2323
 5840TIP3    H139155   5.094   2.780   1.068  0.3389  0.2910  1.0468
 5840TIP3    H239156   5.059   2.705   1.195 -1.0091  1.4186  1.3642
 5841TIP3   OH239157   5.285   4.803   2.447 -0.2243 -0.3931 -0.0387
 5841TIP3    H139158   5.237   4.882   2.471 -1.6095 -1.0543 -0.5320
 5841TIP3    H239159   5.223   4.732   2.463 -0.0817 -1.1370 -2.4005
 5842TIP3   OH239160   2.284   1.307   8.505 -0.1582 -0.3910  0.4808
 5842TIP3    H139161   2.343   1.365   8.458 -0.1339  0.0617  1.0535
 5842TIP3    H239162   2.314   1.311   8.596 -0.0779 -1.4022  0.5081
 5843TIP3   OH239163   4.790   0.310   8.036 -0.0330  0.0159  0.6670
 5843TIP3    H139164   4.758   0.224   8.064  3.0847 -1.1122  1.1266
 5843TIP3    H239165   4.789   0.306   7.941 -2.1447  0.4563  0.6174
 5844TIP3   OH239166   1.517   1.249   1.363 -0.2918 -0.3482  0.1242
 5844TIP3    H139167   1.569   1.177   1.329 -1.3523 -0.6677 -0.8658
 5844TIP3    H239168   1.566   1.328   1.338 -0.6396 -0.6092 -1.4701
 5845TIP3   OH239169   2.330   2.086   1.178  0.0540  0.0498  0.2207
 5845TIP3    H139170   2.352   2.179   1.172  1.1922 -0.1088  1.5121
 5845TIP3    H239171   2.414   2.043   1.195 -0.7876 -0.9433  2.0865
 5846TIP3   OH239172   2.524   6.115   3.148 -0.9147  0.1860 -0.7739
 5846TIP3    H139173   2.475   6.033   3.142  0.0643 -0.3944 -1.0457
 5846TIP3    H239174   2.513   6.156   3.062 -2.8188  1.1947 -0.0989
 5847TIP3   OH239175   1.472   3.794   0.022 -0.3265 -0.4154  0.3702
 5847TIP3    H139176   1.444   3.837  -0.059  1.4871  0.1452  0.0118
 5847TIP3    H239177   1.502   3.708  -0.005 -1.6757 -1.0451  0.7681
 5848TIP3   OH239178   2.734   5.081   8.745  0.6687 -0.5357 -0.4550
 5848TIP3    H139179   2.694   5.126   8.671  1.4379 -0.7030 -0.9934
 5848TIP3    H239180   2.673   5.010   8.766  0.4908 -0.5552 -1.0119
 5849TIP3   OH239181   0.355   5.084   2.603  0.4031 -0.4365  0.5185
 5849TIP3    H139182   0.378   5.166   2.561 -2.4115 -0.7205 -1.9177
 5849TIP3    H239183   0.399   5.087   2.688  3.8707  1.5820 -1.1674
 5850TIP3   OH239184   5.496   0.135   0.600  0.4589  0.3066 -0.4230
 5850TIP3    H139185   5.486   0.112   0.507 -1.5645 -0.9623  0.0459
 5850TIP3    H239186   5.466   0.225   0.605  0.7428  0.4425 -1.0269
 5851TIP3   OH239187   6.009   5.354   0.529  0.0043 -0.5133  0.0403
 5851TIP3    H139188   6.043   5.442   0.511 -0.9843  0.4441  2.4970
 5851TIP3    H239189   6.087   5.300   0.539  0.6373  0.1889 -0.9166
 5852TIP3   OH239190   6.110   4.910   8.354  0.1807 -0.5095 -0.3535
 5852TIP3    H139191   6.120   4.820   8.321 -0.5195 -1.0358  0.8102
 5852TIP3    H239192   6.194   4.930   8.396  0.5187 -0.4191 -1.0595
 5853TIP3   OH239193   0.831   4.077   9.076 -0.2777  0.2347 -0.1899
 5853TIP3    H139194   0.822   3.992   9.118 -0.8924  0.7104  0.6693
 5853TIP3    H239195   0.884   4.060   8.998 -0.6403 -0.9768 -0.1874
 5854TIP3   OH239196   4.012   3.734   2.469  0.0236  0.0453 -0.3130
 5854TIP3    H139197   4.016   3.658   2.411  0.5866 -0.8122  0.8014
 5854TIP3    H239198   4.001   3.696   2.557  0.9179  1.2235  0.3408
 5855TIP3   OH239199   3.570   4.092   1.121  0.0460  0.3197  0.1990
 5855TIP3    H139200   3.578   4.129   1.210  1.0355  0.7463 -0.0535
 5855TIP3    H239201   3.576   4.168   1.063 -1.6452  0.1660 -0.2191
 5856TIP3   OH239202   5.672   1.659   0.192  0.1157  0.0363  0.0036
 5856TIP3    H139203   5.704   1.647   0.282 -0.8837 -0.5148  0.3038
 5856TIP3    H239204   5.669   1.571   0.155  0.9903  0.3108 -0.7571
 5857TIP3   OH239205   0.523   5.676   2.587 -0.3031  0.6509 -0.1316
 5857TIP3    H139206   0.581   5.600   2.593 -0.0944  0.6340 -1.7432
 5857TIP3    H239207   0.437   5.639   2.569 -0.4828  0.7497  0.5074
 5858TIP3   OH239208   2.927   3.301   0.262 -0.1482  0.8069  0.3234
 5858TIP3    H139209   3.014   3.262   0.271 -0.8617 -0.4516  2.3347
 5858TIP3    H239210   2.867   3.227   0.266 -1.3811  1.7451 -0.0430
 5859TIP3   OH239211   2.723   3.261   9.004 -0.2128 -0.6159 -0.2911
 5859TIP3    H139212   2.804   3.304   8.977  0.3031 -1.6442 -0.4420
 5859TIP3    H239213   2.712   3.189   8.942 -0.9738 -0.7952  0.0383
 5860TIP3   OH239214   2.261   2.802   0.209  0.5932  0.3660  0.3669
 5860TIP3    H139215   2.170   2.771   0.204  0.6801 -0.3031  2.0667
 5860TIP3    H239216   2.276   2.847   0.126 -1.5790  1.2699  0.3990
 5861TIP3   OH239217   2.798   4.426   8.088 -0.1179 -0.3009 -0.2955
 5861TIP3    H139218   2.886   4.426   8.050  0.7707  0.0267  1.6454
 5861TIP3    H239219   2.742   4.456   8.016  1.2099 -1.2329 -1.8062
 5862TIP3   OH239220   5.253   5.443   2.214 -0.2585 -0.2697 -0.3969
 5862TIP3    H139221   5.342   5.451   2.180 -0.1767  0.0552 -0.1130
 5862TIP3    H239222   5.244   5.350   2.234  0.7882 -0.0031  1.5940
 5863TIP3   OH239223   1.148   3.273   7.362 -0.2488 -0.1411  0.4122
 5863TIP3    H139224   1.060   3.310   7.357  0.1239  0.8223  0.7288
 5863TIP3    H239225   1.190   3.299   7.280  0.3599  1.0778  1.0897
 5864TIP3   OH239226   3.076   4.819   8.450  0.3078 -0.3015  0.6806
 5864TIP3    H139227   3.057   4.838   8.542  1.3781 -0.9557  1.0501
 5864TIP3    H239228   3.107   4.902   8.414  2.1425 -0.5787  1.5332
 5865TIP3   OH239229   5.943   5.867   0.480 -1.1820 -0.3479 -0.1681
 5865TIP3    H139230   5.860   5.914   0.491 -1.4795 -0.1682 -2.5819
 5865TIP3    H239231   5.989   5.916   0.412  0.0583 -1.5511 -0.2331
 5866TIP3   OH239232   6.478   5.785   0.257 -0.1273  0.1684  0.2430
 5866TIP3    H139233   6.569   5.802   0.282 -0.5280 -0.8771  2.7196
 5866TIP3    H239234   6.451   5.712   0.313 -1.6287 -1.5482 -2.5057
 5867TIP3   OH239235   0.931   2.629   8.491  0.2201 -0.7513 -0.6896
 5867TIP3    H139236   0.988   2.595   8.560 -1.0257 -1.4532  0.0291
 5867TIP3    H239237   0.903   2.551   8.442 -0.2256 -0.4411 -0.9371
 5868TIP3   OH239238   0.178   6.132   2.288 -0.4472 -0.1554 -0.1239
 5868TIP3    H139239   0.094   6.088   2.284  0.1358 -1.3453  0.3435
 5868TIP3    H239240   0.171   6.203   2.224 -1.6547 -0.4765 -0.3681
 5869TIP3   OH239241   0.569   0.309   0.159  0.1535  0.4568 -0.0187
 5869TIP3    H139242   0.634   0.240   0.168  1.0371  1.3260  0.4855
 5869TIP3    H239243   0.495   0.280   0.213 -0.5229 -1.2320 -1.7444
 5870TIP3   OH239244   4.729   2.208   2.831 -0.1160  0.1698  0.0527
 5870TIP3    H139245   4.792   2.198   2.759 -1.1326  0.4382 -0.8966
 5870TIP3    H239246   4.783   2.234   2.906  0.9713 -0.1315 -0.5986
 5871TIP3   OH239247   3.502   0.979   0.885 -0.0508  0.4460  0.6151
 5871TIP3    H139248   3.416   1.001   0.921  0.0036  0.8238  0.5259
 5871TIP3    H239249   3.553   1.060   0.896  0.4161  0.0987  1.0351
 5872TIP3   OH239250   6.642   3.051   1.046 -0.0606  0.3389  0.4686
 5872TIP3    H139251   6.579   3.120   1.025  0.0942  0.2801 -0.1913
 5872TIP3    H239252   6.727   3.095   1.044  0.0036  0.2132  0.4480
 5873TIP3   OH239253   6.216   4.697   7.931 -0.0022 -0.1781  0.6612
 5873TIP3    H139254   6.239   4.605   7.943 -1.3833 -0.2940  3.0132
 5873TIP3    H239255   6.285   4.746   7.976 -0.5610 -0.2197  1.6020
 5874TIP3   OH239256   3.839   2.376   0.115 -0.0715 -0.1532  0.2520
 5874TIP3    H139257   3.898   2.302   0.097  0.0969  0.1105 -0.2911
 5874TIP3    H239258   3.762   2.358   0.062  1.1152  1.5005 -2.1811
 5875TIP3   OH239259   3.505   0.512   0.996 -0.2738 -0.2480  0.3314
 5875TIP3    H139260   3.589   0.558   0.992  0.3930 -1.2610  1.8755
 5875TIP3    H239261   3.457   0.543   0.919  1.5384  0.3029 -0.6275
 5876TIP3   OH239262   2.957   6.057   8.599  0.7545  0.1804  0.7088
 5876TIP3    H139263   3.027   6.090   8.544  1.9613 -2.0891  0.7588
 5876TIP3    H239264   2.915   5.988   8.546 -0.9956  0.9951  0.9524
 5877TIP3   OH239265   2.744   2.405   0.921  0.4212  0.1399  0.3956
 5877TIP3    H139266   2.662   2.448   0.942 -0.0729  0.3648 -1.7577
 5877TIP3    H239267   2.805   2.476   0.903  1.2967 -0.0084  2.4788
 5878TIP3   OH239268   4.158   4.972   2.301  0.1184 -0.1617  0.1339
 5878TIP3    H139269   4.235   4.973   2.244 -0.6231 -2.1816 -0.9845
 5878TIP3    H239270   4.109   5.050   2.276  0.7329 -0.0117 -0.6588
 5879TIP3   OH239271   0.117   5.459   1.478  0.3293 -0.1726  0.5875
 5879TIP3    H139272   0.113   5.446   1.383 -2.0135  1.5012  0.3695
 5879TIP3    H239273   0.064   5.387   1.514  3.1391 -2.2411  0.9163
 5880TIP3   OH239274   4.560   2.945   7.963  0.2495  0.0146 -0.0185
 5880TIP3    H139275   4.484   2.960   7.907  1.3625 -1.1411 -1.9325
 5880TIP3    H239276   4.629   3.000   7.925  1.3830 -1.7516 -0.6162
 5881TIP3   OH239277   5.067   2.010   1.491  0.2758  0.1780  0.4615
 5881TIP3    H139278   5.045   2.028   1.400  1.1442  1.4241  0.4802
 5881TIP3    H239279   5.160   1.988   1.490  0.8119  2.1850  1.2587
 5882TIP3   OH239280   3.736   0.030   1.989 -0.0230 -0.5877  0.6189
 5882TIP3    H139281   3.708   0.122   1.988  0.2200 -0.4652 -1.7502
 5882TIP3    H239282   3.832   0.034   1.992 -0.0031 -0.7358  0.2879
 5883TIP3   OH239283   1.834   6.118   2.785  0.7189 -0.6366  0.0400
 5883TIP3    H139284   1.909   6.163   2.747  2.4390 -0.0909  3.6880
 5883TIP3    H239285   1.797   6.181   2.847 -1.5430 -1.6349 -0.1946
 5884TIP3   OH239286   2.954   0.218   9.134 -0.4978 -0.1679  0.2106
 5884TIP3    H139287   2.868   0.256   9.118 -0.0010  0.7458 -0.4789
 5884TIP3    H239288   2.965   0.153   9.065  1.1057  2.8527 -2.7170
 5885TIP3   OH239289   4.832   1.475   9.082 -0.6464  0.4341  0.3153
 5885TIP3    H139290   4.836   1.558   9.034 -1.1029 -0.1682 -0.8117
 5885TIP3    H239291   4.921   1.462   9.114 -0.1835  0.6000 -0.8543
 5886TIP3   OH239292   3.925   1.538   2.407 -0.1660 -0.7947  0.0661
 5886TIP3    H139293   4.009   1.507   2.374 -0.1898  0.7898 -1.6986
 5886TIP3    H239294   3.948   1.604   2.472  0.0145  0.0851 -0.8591
 5887TIP3   OH239295   1.342   0.503   2.545  0.0144 -0.3882 -0.3476
 5887TIP3    H139296   1.339   0.500   2.449 -2.9185 -0.6154 -0.3374
 5887TIP3    H239297   1.250   0.500   2.572  0.6349  1.6798  2.4340
 5888TIP3   OH239298   1.144   1.902   3.156  0.1863  0.2424  0.4679
 5888TIP3    H139299   1.190   1.964   3.100 -1.9554  0.9766 -0.5782
 5888TIP3    H239300   1.052   1.907   3.128 -0.6428 -0.8387  2.7049
 5889TIP3   OH239301   0.228   1.495   1.021 -0.0301 -0.2571 -0.0406
 5889TIP3    H139302   0.279   1.451   0.953 -0.3665 -2.2019  0.8929
 5889TIP3    H239303   0.146   1.446   1.025 -0.2291  0.1359  1.4145
 5890TIP3   OH239304   3.092   0.269   0.434 -0.1332 -0.3544  0.3022
 5890TIP3    H139305   3.085   0.212   0.358 -2.5360 -0.2063  0.3145
 5890TIP3    H239306   3.065   0.214   0.508  0.9716 -0.1566  0.8639
 5891TIP3   OH239307   3.669   4.308   7.712  0.3751  0.2582 -0.3454
 5891TIP3    H139308   3.608   4.296   7.639 -2.3364  0.4405  1.7436
 5891TIP3    H239309   3.716   4.389   7.690 -0.9924  0.7919 -1.5054
 5892TIP3   OH239310   1.623   6.236   0.994 -0.2915  0.4675 -0.1944
 5892TIP3    H139311   1.700   6.269   0.947  0.6983 -1.3287  0.0441
 5892TIP3    H239312   1.655   6.160   1.042 -2.1829 -0.2206  0.0858
 5893TIP3   OH239313   6.030   3.950   7.806 -0.0225 -0.4311  0.2149
 5893TIP3    H139314   6.055   3.989   7.889  0.7988 -0.1566 -0.1490
 5893TIP3    H239315   6.091   3.878   7.794 -1.1232 -1.4478  0.5741
 5894TIP3   OH239316   1.897   3.232   8.796  0.1558  0.2097 -0.0212
 5894TIP3    H139317   1.851   3.176   8.858 -0.6044  0.3836 -0.4177
 5894TIP3    H239318   1.931   3.172   8.730 -0.1686  0.1582 -0.1411
 5895TIP3   OH239319   2.542   5.700   1.850  0.3399 -0.0182  0.4151
 5895TIP3    H139320   2.614   5.670   1.906  0.9660 -0.5312 -0.6311
 5895TIP3    H239321   2.503   5.619   1.817  1.0361  0.2657 -1.1861
 5896TIP3   OH239322   6.328   1.673   8.943 -0.4980  0.4088 -0.2962
 5896TIP3    H139323   6.242   1.705   8.969 -0.9071 -2.5892  2.6523
 5896TIP3    H239324   6.389   1.714   9.004 -0.0124  1.2320 -1.3052
 5897TIP3   OH239325   6.118   4.172   1.251  0.2745  0.5433 -0.7014
 5897TIP3    H139326   6.043   4.124   1.217 -0.1173  0.5671  0.1057
 5897TIP3    H239327   6.167   4.200   1.173  0.1118 -0.5263 -1.1948
 5898TIP3   OH239328   3.430   4.413   2.088  0.2951 -0.2812  0.8579
 5898TIP3    H139329   3.388   4.485   2.134 -0.2028 -0.3888  0.5784
 5898TIP3    H239330   3.523   4.438   2.083 -0.0797  1.0093 -0.4400
 5899TIP3   OH239331   5.631   2.828   2.656 -0.1056 -0.2824  0.0288
 5899TIP3    H139332   5.665   2.767   2.721  0.0479 -1.8529 -1.4440
 5899TIP3    H239333   5.685   2.907   2.666 -1.5088  0.4295  3.2289
 5900TIP3   OH239334   1.052   1.552   1.866  0.3819  0.6348 -0.1680
 5900TIP3    H139335   1.143   1.536   1.841 -0.7058 -2.1817 -2.8750
 5900TIP3    H239336   1.028   1.476   1.919 -0.7463  0.7745 -0.4703
 5901TIP3   OH239337   1.230   1.144   2.317  0.1942  0.7616  0.1936
 5901TIP3    H139338   1.317   1.122   2.283  0.1908  0.6697  0.2458
 5901TIP3    H239339   1.215   1.081   2.387  0.8682  1.9503  1.4457
 5902TIP3   OH239340   4.040   2.120   0.166  0.1243  0.8374  0.1146
 5902TIP3    H139341   4.073   2.188   0.225 -2.5663  2.2516  0.1574
 5902TIP3    H239342   4.097   2.124   0.089 -0.2553  3.5504 -0.1029
 5903TIP3   OH239343   0.467   6.202   2.835 -0.0506  0.1491 -0.5325
 5903TIP3    H139344   0.469   6.235   2.745  0.2530  0.8622 -0.2746
 5903TIP3    H239345   0.525   6.261   2.883 -0.3951 -0.0809  0.1772
 5904TIP3   OH239346   2.032   3.581   1.402 -0.5608  0.1051  0.6521
 5904TIP3    H139347   2.119   3.542   1.402  0.0609  1.4367 -0.2021
 5904TIP3    H239348   1.982   3.527   1.464  0.2574 -1.9815 -0.3800
 5905TIP3   OH239349   0.065   2.316   2.675 -0.9284 -0.2678  0.0594
 5905TIP3    H139350   0.106   2.229   2.682 -0.1951  0.1425  1.1119
 5905TIP3    H239351   0.122   2.363   2.614 -2.7423 -1.2681 -2.6033
 5906TIP3   OH239352   1.216   4.649   1.864 -0.2451 -0.2229  0.0990
 5906TIP3    H139353   1.288   4.665   1.925 -0.1918 -1.1488  0.2823
 5906TIP3    H239354   1.194   4.557   1.876 -2.3695  0.3525  1.0197
 5907TIP3   OH239355   0.452   0.779   8.510  0.3785 -0.3381 -0.2457
 5907TIP3    H139356   0.360   0.802   8.516  0.6175  0.4255  0.6972
 5907TIP3    H239357   0.491   0.814   8.590  1.5969 -0.1109 -0.9137
 5908TIP3   OH239358   4.766   2.753   7.733  0.8396 -0.0984  0.2033
 5908TIP3    H139359   4.850   2.790   7.706  1.7261 -1.6996  0.5803
 5908TIP3    H239360   4.764   2.763   7.828 -0.9369  2.8671 -0.0408
 5909TIP3   OH239361   5.855   3.701   7.282  0.2712  0.4618 -1.1823
 5909TIP3    H139362   5.839   3.795   7.270 -0.2828  0.3467 -1.3549
 5909TIP3    H239363   5.933   3.683   7.228  0.7998  0.9572 -0.5976
 5910TIP3   OH239364   1.680   4.050   9.145  0.0430 -0.1169  0.5330
 5910TIP3    H139365   1.679   4.142   9.116  0.6405 -0.2866 -0.0356
 5910TIP3    H239366   1.598   4.014   9.112 -0.6104  0.4237  1.4968
 5911TIP3   OH239367   0.214   0.814   9.022  0.6330  0.3502  0.0161
 5911TIP3    H139368   0.307   0.821   8.997  0.5860 -0.5717 -0.4946
 5911TIP3    H239369   0.216   0.762   9.103  0.5479 -0.0193 -0.2143
 5912TIP3   OH239370   3.879   4.135   1.226  0.2295  0.2025  0.4550
 5912TIP3    H139371   3.854   4.186   1.149 -1.7762 -1.1639  0.1264
 5912TIP3    H239372   3.934   4.194   1.277 -0.3167  1.9574 -0.8973
 5913TIP3   OH239373   4.446   2.384   9.086 -0.1990 -0.0184  0.1993
 5913TIP3    H139374   4.410   2.351   9.004  0.2744 -2.1104  0.7615
 5913TIP3    H239375   4.472   2.474   9.067 -2.1293  0.2733 -1.2824
 5914TIP3   OH239376   2.518   1.662   9.145  0.3138  0.6442  0.3773
 5914TIP3    H139377   2.606   1.626   9.129  0.1286 -0.1554  1.0950
 5914TIP3    H239378   2.513   1.738   9.087  1.4397  0.6386  0.2413
 5915TIP3   OH239379   5.815   5.947   9.015 -0.1937 -0.0147  0.2670
 5915TIP3    H139380   5.876   6.008   8.972  0.7436 -2.0201 -1.4485
 5915TIP3    H239381   5.729   5.975   8.985  0.2156  0.4917 -0.4756
 5916TIP3   OH239382   5.550   0.012   1.036 -0.7534 -0.9686  0.2478
 5916TIP3    H139383   5.562  -0.082   1.026  0.3588 -0.7809 -0.3453
 5916TIP3    H239384   5.590   0.033   1.120  0.6233 -0.7724 -0.4353
 5917TIP3   OH239385   5.606   5.906   0.971 -0.4438  0.8175  0.1884
 5917TIP3    H139386   5.614   5.811   0.983  0.6216  1.0896  2.0736
 5917TIP3    H239387   5.697   5.937   0.966 -0.7534  1.8433  0.7054
 5918TIP3   OH239388   6.440   1.899   0.894  0.0989  0.0532 -0.3139
 5918TIP3    H139389   6.423   1.864   0.806  0.5374  1.6169 -1.0436
 5918TIP3    H239390   6.365   1.954   0.913  0.4330  0.4344 -0.0848
 5919TIP3   OH239391   2.271   1.110   3.116 -0.0729  0.3537 -0.4305
 5919TIP3    H139392   2.273   1.021   3.082  0.8463 -0.1054  0.7300
 5919TIP3    H239393   2.182   1.122   3.146 -0.0528 -0.4169 -0.0263
 5920TIP3   OH239394   2.918   4.061   0.470  0.6928 -0.2096 -1.0419
 5920TIP3    H139395   2.854   4.071   0.400  0.7739 -1.2522 -1.2810
 5920TIP3    H239396   2.938   3.967   0.471  0.5608 -0.2367  0.4998
 5921TIP3   OH239397   2.607   5.003   0.745 -0.1111  0.7166  0.2218
 5921TIP3    H139398   2.525   5.018   0.791 -0.4151 -0.0672 -0.0474
 5921TIP3    H239399   2.598   5.052   0.663 -1.3677 -1.3282 -0.9513
 5922TIP3   OH239400   3.593   4.715   1.329 -0.0052  0.1709  0.0191
 5922TIP3    H139401   3.511   4.668   1.346 -0.0145  0.2297  0.1432
 5922TIP3    H239402   3.602   4.773   1.405 -0.1976  0.6529 -0.3240
 5923TIP3   OH239403   0.226   5.338   7.650  0.3515 -0.2633  0.1456
 5923TIP3    H139404   0.205   5.396   7.724  2.9234  1.4566 -0.3607
 5923TIP3    H239405   0.193   5.385   7.573 -0.8583 -1.2787  0.0226
 5924TIP3   OH239406   5.978   1.764   2.283 -0.3672 -0.2354  0.0229
 5924TIP3    H139407   5.948   1.813   2.359 -1.3748  0.9238 -1.0704
 5924TIP3    H239408   6.007   1.831   2.221  0.0697 -1.1259 -0.7662
 5925TIP3   OH239409   6.659   0.446   2.938  0.7152 -0.4340  0.8931
 5925TIP3    H139410   6.751   0.427   2.953  0.7936 -1.8191 -0.9534
 5925TIP3    H239411   6.613   0.403   3.010  1.4670 -0.3072  1.4533
 5926TIP3   OH239412   6.018   3.473   1.056  0.3103 -0.2599 -0.7295
 5926TIP3    H139413   5.967   3.553   1.039  2.8362  1.4985 -0.5350
 5926TIP3    H239414   6.007   3.457   1.149 -0.2251 -0.1624 -0.7707
 5927TIP3   OH239415   6.489   4.044   0.634  0.4355  0.3620 -0.2228
 5927TIP3    H139416   6.406   3.997   0.636  0.9681 -0.7149 -1.4485
 5927TIP3    H239417   6.525   4.024   0.547  1.6796  1.3053  0.0509
 5928TIP3   OH239418   2.818   5.182   0.999  0.1206 -0.2329  0.0156
 5928TIP3    H139419   2.743   5.133   1.033  0.8031 -1.8999 -0.7774
 5928TIP3    H239420   2.892   5.124   1.012  0.8507  0.2641 -1.6476
 5929TIP3   OH239421   0.174   1.882   0.937 -0.0225  0.2558 -0.7115
 5929TIP3    H139422   0.084   1.866   0.967  0.2981 -0.6567 -0.1857
 5929TIP3    H239423   0.166   1.953   0.874 -1.0507  0.5316 -0.2966
 5930TIP3   OH239424   3.350   5.243   0.408 -0.1017  0.0412  0.3576
 5930TIP3    H139425   3.337   5.150   0.391 -0.9060  0.1832  0.1772
 5930TIP3    H239426   3.413   5.271   0.341  1.0492 -0.6075  1.1279
 5931TIP3   OH239427   1.698   1.049   0.638  0.1709 -0.0637 -0.3567
 5931TIP3    H139428   1.673   0.981   0.575 -0.4007  0.1660 -0.3783
 5931TIP3    H239429   1.630   1.046   0.705 -0.8911  1.7159 -1.2933
 5932TIP3   OH239430   5.799   4.917   7.600 -0.0565 -0.3107 -0.1081
 5932TIP3    H139431   5.823   4.878   7.684  1.9489  1.5980  0.2932
 5932TIP3    H239432   5.846   4.864   7.535 -2.3333 -2.3662 -0.2059
 5933TIP3   OH239433   1.786   0.706   0.000 -0.4447  0.0884 -0.3510
 5933TIP3    H139434   1.707   0.685  -0.048 -0.3231 -1.4760  0.0658
 5933TIP3    H239435   1.855   0.709  -0.067 -0.6103 -0.0946 -0.5332
 5934TIP3   OH239436   2.918   6.514   1.126 -0.6843  0.3158  0.0234
 5934TIP3    H139437   3.003   6.483   1.095  0.0057  1.5658  0.6000
 5934TIP3    H239438   2.870   6.434   1.149 -0.0411 -0.4553 -1.2237
 5935TIP3   OH239439   0.652   1.108   8.516 -0.4983  0.0736  0.5296
 5935TIP3    H139440   0.616   1.118   8.428 -1.2029  2.2313  1.0179
 5935TIP3    H239441   0.581   1.068   8.566 -0.7353  0.4606  0.5103
 5936TIP3   OH239442   3.459   1.675   0.839 -0.5567 -0.0125 -0.5386
 5936TIP3    H139443   3.539   1.728   0.839  0.4515 -1.4843 -0.7934
 5936TIP3    H239444   3.392   1.733   0.876  0.0822  2.0257 -2.3025
 5937TIP3   OH239445   0.040   3.354   0.751  0.2559 -0.1244 -0.5180
 5937TIP3    H139446   0.116   3.306   0.718  0.6818  0.5132 -0.4821
 5937TIP3    H239447  -0.031   3.331   0.690  0.4620 -0.7507 -0.5290
 5938TIP3   OH239448   1.349   4.124   1.576 -0.1652 -0.1828 -0.1245
 5938TIP3    H139449   1.371   4.122   1.669 -0.2360 -0.3163 -0.1096
 5938TIP3    H239450   1.340   4.218   1.555 -0.8734 -0.1725  0.1825
 5939TIP3   OH239451   4.597   3.458   0.426  0.6744  0.2147 -0.1454
 5939TIP3    H139452   4.510   3.441   0.461  1.2540  1.3293  1.9917
 5939TIP3    H239453   4.644   3.375   0.437  0.5050  0.2250  0.7166
 5940TIP3   OH239454   0.779   0.652   2.152 -0.4238  0.3220  0.3758
 5940TIP3    H139455   0.852   0.682   2.205 -0.2919  0.4056  0.1514
 5940TIP3    H239456   0.721   0.728   2.146 -0.1862  0.4744 -0.0280
 5941TIP3   OH239457   5.343   2.262   1.240  0.1510  0.3254  0.3739
 5941TIP3    H139458   5.268   2.273   1.299 -1.3354 -0.0940 -1.3481
 5941TIP3    H239459   5.315   2.195   1.177  1.0137  1.8134 -1.7390
 5942TIP3   OH239460   1.268   1.298   1.242 -0.0207  0.3678 -0.3070
 5942TIP3    H139461   1.277   1.350   1.162  0.8480 -0.8762 -1.0654
 5942TIP3    H239462   1.357   1.294   1.278  0.3045 -1.9734 -1.2186
 5943TIP3   OH239463   0.866   1.892   1.203  0.0394 -0.2160  0.5137
 5943TIP3    H139464   0.920   1.943   1.142 -0.8435 -1.8595 -1.7803
 5943TIP3    H239465   0.778   1.925   1.190 -0.5166 -2.1156 -0.8668
 5944TIP3   OH239466   6.681   2.873   0.838  0.4692  0.1206  0.0573
 5944TIP3    H139467   6.642   2.929   0.905  2.3868  2.3480 -0.5572
 5944TIP3    H239468   6.696   2.789   0.883  2.8343  1.8783  2.9421
 5945TIP3   OH239469   1.286   3.646   0.700 -0.6176 -0.1238 -0.1995
 5945TIP3    H139470   1.343   3.588   0.750 -1.0938  0.1103  0.6484
 5945TIP3    H239471   1.255   3.710   0.765  0.4743  1.5356 -1.2436
 5946TIP3   OH239472   0.762   0.061   9.152  0.3948  0.6143  0.8554
 5946TIP3    H139473   0.690   0.002   9.177  1.7816 -1.1544  0.8839
 5946TIP3    H239474   0.735   0.096   9.067  0.2996 -1.5131 -0.0596
 5947TIP3   OH239475   2.410   2.417   1.175  0.1214  0.1334  0.0317
 5947TIP3    H139476   2.387   2.446   1.263  2.5520 -0.4429  0.9371
 5947TIP3    H239477   2.496   2.456   1.158  1.2652 -2.4494 -0.6768
 5948TIP3   OH239478   3.105   3.381   2.159 -0.6055 -0.3685  0.2532
 5948TIP3    H139479   3.145   3.370   2.073 -3.3727  1.4367 -1.4049
 5948TIP3    H239480   3.027   3.326   2.157 -1.8663  1.3027  0.7260
 5949TIP3   OH239481   4.582   0.037   2.615  0.2970 -0.4739 -0.0593
 5949TIP3    H139482   4.556  -0.053   2.633  1.7805 -0.6660  1.3420
 5949TIP3    H239483   4.530   0.062   2.538 -1.4906 -1.8700  0.6351
 5950TIP3   OH239484   6.599   1.727   9.004 -0.0136  0.1819 -0.0746
 5950TIP3    H139485   6.670   1.698   9.061  0.0017 -1.7516 -0.9856
 5950TIP3    H239486   6.605   1.669   8.928 -1.3616  1.2806 -1.0707
 5951TIP3   OH239487   4.163   4.542   7.228 -0.3774 -0.4803  0.2741
 5951TIP3    H139488   4.215   4.623   7.228 -0.2018 -0.5718  1.1909
 5951TIP3    H239489   4.183   4.500   7.145 -2.2348  1.4969 -1.2816
 5952TIP3   OH239490   4.574   3.389   2.266  0.5409  0.1149 -0.2457
 5952TIP3    H139491   4.585   3.442   2.345 -0.1662 -1.1811  0.7600
 5952TIP3    H239492   4.491   3.344   2.278 -0.0432  0.5662 -2.1695
 5953TIP3   OH239493   1.628   5.556   8.519  0.1272 -0.2342 -0.2918
 5953TIP3    H139494   1.596   5.497   8.451 -0.5269  0.2711 -0.4375
 5953TIP3    H239495   1.671   5.499   8.583 -0.2175 -0.8245 -0.5827
 5954TIP3   OH239496   4.479   2.001   7.956  0.1290 -0.0987  0.3065
 5954TIP3    H139497   4.565   2.043   7.964 -0.2457  0.3749  2.4676
 5954TIP3    H239498   4.460   1.968   8.044 -0.6750 -2.7196 -0.7556
 5955TIP3   OH239499   1.366   0.244   2.711  0.0968  0.4564 -0.3043
 5955TIP3    H139500   1.414   0.167   2.741 -1.6058 -0.8469 -0.7855
 5955TIP3    H239501   1.407   0.267   2.628  1.3689  0.8140  0.3941
 5956TIP3   OH239502   6.358   3.595   1.335 -0.0321  0.0835  0.0899
 5956TIP3    H139503   6.309   3.677   1.340 -0.4031 -0.0692 -0.8687
 5956TIP3    H239504   6.402   3.599   1.249  0.0191 -0.6773  0.0794
 5957TIP3   OH239505   5.808   2.266   0.477 -0.5292  0.0318  0.0222
 5957TIP3    H139506   5.718   2.246   0.501 -0.7117 -0.0299 -0.7022
 5957TIP3    H239507   5.805   2.354   0.439 -0.6007 -0.6754 -1.6885
 5958TIP3   OH239508   4.256   0.084   7.990  0.0606 -0.5955 -0.3841
 5958TIP3    H139509   4.281   0.037   7.911  1.2919  1.0485 -1.0247
 5958TIP3    H239510   4.218   0.166   7.958  1.2047  0.4016  0.6967
 5959TIP3   OH239511   4.152   4.585   9.207  0.6112 -0.2427 -0.0312
 5959TIP3    H139512   4.244   4.599   9.183  0.6126 -1.3523 -0.7862
 5959TIP3    H239513   4.155   4.565   9.301  1.1858 -0.5860 -0.1153
 5960TIP3   OH239514   6.533   4.272   8.687  0.6884  0.3384 -0.4627
 5960TIP3    H139515   6.569   4.194   8.644  0.1657 -1.1532  1.6057
 5960TIP3    H239516   6.442   4.275   8.657  0.7299  0.1915 -0.6074
 5961TIP3   OH239517   3.043   0.177   7.759  0.3092 -0.5881  0.0420
 5961TIP3    H139518   3.075   0.097   7.801 -1.3614 -0.4227  1.7374
 5961TIP3    H239519   3.093   0.247   7.800  0.1589 -0.5914  0.2328
 5962TIP3   OH239520   1.083   3.572   0.534  0.1524 -0.3845 -0.3428
 5962TIP3    H139521   1.158   3.595   0.588 -0.7196  3.9932 -0.5781
 5962TIP3    H239522   1.118   3.562   0.446  0.7822 -1.1215 -0.0116
 5963TIP3   OH239523   3.962   1.355   8.724  0.0693 -0.1213  0.1810
 5963TIP3    H139524   3.986   1.334   8.814 -1.1202 -0.8920  0.3348
 5963TIP3    H239525   3.980   1.274   8.675  2.5857  0.8659 -0.7017
 5964TIP3   OH239526   4.355   4.018   3.101 -0.4866 -0.1079  0.1420
 5964TIP3    H139527   4.361   3.923   3.099 -0.4924 -0.1319  0.9380
 5964TIP3    H239528   4.347   4.040   3.194  3.2231  0.8703  0.3772
 5965TIP3   OH239529   5.757   1.472   7.718 -0.4881  0.0132 -0.4227
 5965TIP3    H139530   5.692   1.485   7.788 -0.5884  0.2371 -0.5553
 5965TIP3    H239531   5.835   1.517   7.750 -0.8226  0.9417 -0.8615
 5966TIP3   OH239532   4.975   6.542   1.151  0.2794  0.0766 -0.2614
 5966TIP3    H139533   5.036   6.597   1.103  1.0131 -0.6889 -0.2273
 5966TIP3    H239534   5.027   6.501   1.220  0.2860 -2.2511 -1.5337
 5967TIP3   OH239535   4.158   1.323   0.371  0.1469  0.3923  0.4058
 5967TIP3    H139536   4.216   1.249   0.354  0.4675 -0.1432  3.3132
 5967TIP3    H239537   4.204   1.398   0.334  0.6212 -0.5620 -1.0738
 5968TIP3   OH239538   1.425   6.475   0.317 -0.3874 -0.4301 -0.1917
 5968TIP3    H139539   1.499   6.503   0.263 -0.5207 -2.8604 -1.7863
 5968TIP3    H239540   1.350   6.523   0.281 -0.0384  0.0222 -0.3346
 5969TIP3   OH239541   2.202   2.170   2.650 -0.0356  0.5819 -0.4682
 5969TIP3    H139542   2.158   2.180   2.735 -0.7907 -0.2990 -0.7424
 5969TIP3    H239543   2.203   2.258   2.613 -2.7426  0.5027 -0.9976
 5970TIP3   OH239544   1.358   0.882   1.100  0.3196 -0.0414  0.2672
 5970TIP3    H139545   1.427   0.874   1.035 -0.8600  0.0693 -1.0486
 5970TIP3    H239546   1.339   0.791   1.127 -1.7494 -0.5065 -2.3937
 5971TIP3   OH239547   4.394   6.144   8.262 -0.4350  0.3076 -0.2752
 5971TIP3    H139548   4.351   6.106   8.339 -1.1174  1.2297 -0.1840
 5971TIP3    H239549   4.435   6.224   8.294 -0.7547  0.7185 -0.8724
 5972TIP3   OH239550   1.412   0.421   8.525  0.1699 -0.1294 -0.2953
 5972TIP3    H139551   1.416   0.381   8.612  1.0292 -1.9422 -1.1060
 5972TIP3    H239552   1.319   0.420   8.502 -0.2425  1.5979  1.0937
 5973TIP3   OH239553   3.792   3.929   7.222 -0.1918  0.3382  0.4813
 5973TIP3    H139554   3.698   3.944   7.223 -0.1950  0.4357 -0.3776
 5973TIP3    H239555   3.829   4.010   7.187  0.0725 -0.2636 -0.6872
 5974TIP3   OH239556   0.333   4.199   7.186 -0.0061  0.0867 -0.3599
 5974TIP3    H139557   0.347   4.107   7.211  0.3719  0.3323  0.3716
 5974TIP3    H239558   0.365   4.204   7.096 -0.9283 -0.7147 -0.7559
 5975TIP3   OH239559   3.654   5.804   8.202  0.2517  0.4531 -0.3493
 5975TIP3    H139560   3.685   5.872   8.142  0.8111  0.1383 -0.4276
 5975TIP3    H239561   3.718   5.733   8.193 -0.8890 -0.5306 -1.0515
 5976TIP3   OH239562   5.419   1.062   0.972 -0.3380 -0.6828 -0.0633
 5976TIP3    H139563   5.412   1.150   0.936  1.2380 -1.4541 -2.5258
 5976TIP3    H239564   5.508   1.057   1.006 -0.3189 -1.3873 -0.1957
 5977TIP3   OH239565   3.905   0.247   2.278  0.1070 -0.0233  0.7631
 5977TIP3    H139566   3.899   0.285   2.366  1.7672  1.2116  0.3854
 5977TIP3    H239567   3.988   0.200   2.278 -0.3906 -0.9190  0.1721
 5978TIP3   OH239568   0.408   0.146   8.176  0.1196  0.4467 -0.3636
 5978TIP3    H139569   0.484   0.173   8.228 -0.2800  1.7823 -0.4461
 5978TIP3    H239570   0.393   0.219   8.116 -0.8886 -0.0471 -0.7351
 5979TIP3   OH239571   5.137   3.513   9.076 -0.8722  0.5352  0.0380
 5979TIP3    H139572   5.095   3.538   9.158 -2.7213  0.5835 -0.8865
 5979TIP3    H239573   5.209   3.456   9.103 -1.7887  0.0675  1.6614
 5980TIP3   OH239574   5.548   2.128   0.441  0.3697 -0.4385  0.2089
 5980TIP3    H139575   5.615   2.063   0.419  0.4035 -0.8846  1.5701
 5980TIP3    H239576   5.472   2.103   0.387  0.5406 -1.3215  0.3619
 5981TIP3   OH239577   4.997   2.953   0.846 -0.6129  0.2064 -0.3040
 5981TIP3    H139578   5.053   2.883   0.881  0.0392  1.7127  1.8669
 5981TIP3    H239579   5.054   3.030   0.843 -1.6936  1.0055 -1.3149
 5982TIP3   OH239580   6.101   2.283   2.010  0.4480  0.0830 -0.1568
 5982TIP3    H139581   6.185   2.325   1.994 -0.7666  2.2654 -1.3558
 5982TIP3    H239582   6.094   2.217   1.941  1.2014 -0.1647 -0.0015
 5983TIP3   OH239583   0.404   1.245   1.120 -0.1931  0.6596 -0.3666
 5983TIP3    H139584   0.484   1.294   1.102  0.6214  0.2022  1.7082
 5983TIP3    H239585   0.426   1.154   1.098 -0.6895  0.7496 -1.2883
 5984TIP3   OH239586   3.056   0.416   1.311  0.7792 -0.0637  0.2561
 5984TIP3    H139587   3.081   0.324   1.318  1.9234  0.3157  1.3870
 5984TIP3    H239588   3.064   0.451   1.400 -0.8891  0.8323  0.1016
 5985TIP3   OH239589   6.433   6.004   8.069  0.0622  0.5679 -0.2204
 5985TIP3    H139590   6.411   5.929   8.014 -0.0010  0.3275  0.1341
 5985TIP3    H239591   6.443   6.077   8.007 -2.5393  0.8939 -0.3440
 5986TIP3   OH239592   3.092   2.864   7.783  0.6099  0.5543 -0.2941
 5986TIP3    H139593   3.044   2.782   7.788  1.9612 -0.2335  0.6295
 5986TIP3    H239594   3.139   2.860   7.700  0.0790  0.7427 -0.6036
 5987TIP3   OH239595   2.672   1.168   2.836 -0.9251 -0.7141  0.1581
 5987TIP3    H139596   2.715   1.213   2.908 -0.8519  1.1589 -1.0078
 5987TIP3    H239597   2.592   1.219   2.820 -1.1529 -1.3456 -0.8130
 5988TIP3   OH239598   3.664   4.735   9.183  0.2692  0.2297  0.1036
 5988TIP3    H139599   3.597   4.669   9.165  0.6951  0.1193 -1.1335
 5988TIP3    H239600   3.662   4.794   9.109 -2.1945  3.5141  2.4992
 5989TIP3   OH239601   4.031   3.076   2.420 -0.5044  0.2480  0.0544
 5989TIP3    H139602   3.951   3.100   2.372 -0.3191  0.4665 -0.1511
 5989TIP3    H239603   4.028   3.131   2.499 -0.5745  0.2302  0.0646
 5990TIP3   OH239604   4.310   0.924   0.891 -0.2595 -0.5269 -0.6614
 5990TIP3    H139605   4.222   0.912   0.855 -0.3785  1.1041 -0.9608
 5990TIP3    H239606   4.313   1.016   0.917  1.5821 -0.3840 -1.2629
 5991TIP3   OH239607   1.371   0.000   3.238  0.4942  0.3463 -0.2037
 5991TIP3    H139608   1.281  -0.030   3.224  0.0703  0.9141  1.1435
 5991TIP3    H239609   1.420  -0.036   3.164 -0.7831 -0.1990 -0.8168
 5992TIP3   OH239610   5.086   6.265   1.232 -0.1886  0.7915  0.3184
 5992TIP3    H139611   5.163   6.299   1.187  0.7175 -1.0425  0.3920
 5992TIP3    H239612   5.015   6.273   1.169  0.2067  1.8247 -0.0131
 5993TIP3   OH239613   3.853   6.128   8.748  0.3885 -0.4057  0.2560
 5993TIP3    H139614   3.898   6.212   8.742  0.3232 -0.3322  0.7352
 5993TIP3    H239615   3.887   6.088   8.828 -0.7133 -0.1479  0.8811
 5994TIP3   OH239616   4.188   4.786   0.498 -0.0101 -0.3986 -0.7205
 5994TIP3    H139617   4.134   4.835   0.560  0.4266 -1.0691  0.2273
 5994TIP3    H239618   4.199   4.700   0.539  2.7898  0.0972 -0.2235
 5995TIP3   OH239619   0.775   4.556   7.936  0.1193 -0.2101  0.0424
 5995TIP3    H139620   0.753   4.600   7.854 -0.6061  0.0282  0.3536
 5995TIP3    H239621   0.855   4.508   7.918  1.4206  1.9060 -0.0814
 5996TIP3   OH239622   4.210   0.213   2.217  0.1681  0.1679  0.2102
 5996TIP3    H139623   4.248   0.243   2.300 -0.5254 -0.6987  0.8670
 5996TIP3    H239624   4.166   0.290   2.182  0.7087  0.6182  0.5057
 5997TIP3   OH239625   0.743   2.812   8.596 -0.1842 -0.3524 -0.1316
 5997TIP3    H139626   0.726   2.798   8.689 -0.1095 -0.7556 -0.1780
 5997TIP3    H239627   0.819   2.758   8.577  0.5604  0.6705 -0.1527
 5998TIP3   OH239628   5.902   1.785   8.661  0.1006  0.8983 -0.2412
 5998TIP3    H139629   5.871   1.740   8.582  0.9121 -0.7379  0.3106
 5998TIP3    H239630   5.828   1.839   8.688 -0.7173  0.3715 -1.3138
 5999TIP3   OH239631   5.350   3.242   0.454 -0.1761  0.0343  0.2163
 5999TIP3    H139632   5.256   3.259   0.453 -0.7986 -2.5619  2.1393
 5999TIP3    H239633   5.382   3.289   0.531 -0.3081 -0.5728  0.6566
 6000TIP3   OH239634   1.562   0.556   1.360 -0.0670  0.0713 -0.1384
 6000TIP3    H139635   1.601   0.520   1.281  0.2913  0.1710 -0.0110
 6000TIP3    H239636   1.472   0.576   1.336  0.1186  0.3644 -0.6035
 6001TIP3   OH239637   2.900   4.370   8.427  0.1121  0.1273 -0.2237
 6001TIP3    H139638   2.867   4.329   8.347 -0.5923  2.4015 -1.1872
 6001TIP3    H239639   2.989   4.398   8.405  0.4910 -0.6317  0.3263
 6002TIP3   OH239640   2.257   4.750   9.169  0.0536  0.6585  0.4265
 6002TIP3    H139641   2.165   4.730   9.185  0.2665  0.2378  1.2127
 6002TIP3    H239642   2.303   4.714   9.246  1.0769 -0.8317 -0.8155
 6003TIP3   OH239643   2.111   2.385   0.762 -0.0647  0.5337 -0.5918
 6003TIP3    H139644   2.176   2.415   0.825 -0.7157  0.0076  0.3622
 6003TIP3    H239645   2.161   2.336   0.697  0.2792 -2.5750  1.7465
 6004TIP3   OH239646   0.548   6.576   8.281 -0.0185 -0.5026  0.5551
 6004TIP3    H139647   0.612   6.505   8.290 -0.4159 -0.9480 -0.1189
 6004TIP3    H239648   0.579   6.642   8.343  0.1254 -1.4246  1.5098
 6005TIP3   OH239649   4.246   5.606   6.925  0.2003 -0.2606 -0.5284
 6005TIP3    H139650   4.311   5.545   6.890 -0.7126 -0.7326 -1.4635
 6005TIP3    H239651   4.162   5.567   6.902 -0.4106  0.9978 -0.5059
 6006TIP3   OH239652   5.433   6.243   2.067 -0.2838  0.1730 -0.1928
 6006TIP3    H139653   5.354   6.284   2.103  0.0283 -0.4438  1.2733
 6006TIP3    H239654   5.445   6.164   2.119  1.5109  0.4511 -0.1208
 6007TIP3   OH239655   5.066   4.838   8.438 -0.1996  0.2597 -0.4744
 6007TIP3    H139656   5.076   4.873   8.526 -2.0587  0.6926 -0.4007
 6007TIP3    H239657   5.141   4.779   8.427  1.0577  1.5464  0.7084
 6008TIP3   OH239658   3.256   2.035   0.726  0.6177 -0.1112  0.6865
 6008TIP3    H139659   3.340   2.035   0.681  0.3551 -0.2934  0.1930
 6008TIP3    H239660   3.237   2.128   0.741  0.2281  0.0090 -0.4805
 6009TIP3   OH239661   3.494   4.138   2.628 -0.1608 -0.2164  0.0705
 6009TIP3    H139662   3.484   4.050   2.662 -1.5402 -0.3698 -0.6880
 6009TIP3    H239663   3.521   4.190   2.704  0.5221 -1.2376  0.5489
 6010TIP3   OH239664   2.401   3.859   0.734 -0.2350 -0.1451 -0.5549
 6010TIP3    H139665   2.381   3.921   0.805  0.7153  0.3477 -0.6985
 6010TIP3    H239666   2.401   3.913   0.655  2.2772  0.0677 -0.4922
 6011TIP3   OH239667   0.131   3.587   7.365 -0.0639 -0.0060 -0.7271
 6011TIP3    H139668   0.099   3.630   7.444  0.3717  0.6684 -0.9119
 6011TIP3    H239669   0.083   3.629   7.294 -1.5317 -1.5956 -0.7529
 6012TIP3   OH239670   3.353   0.867   2.664 -0.3026 -0.7442 -0.1374
 6012TIP3    H139671   3.266   0.873   2.627  0.3797 -1.5889 -2.0098
 6012TIP3    H239672   3.392   0.953   2.650 -0.2592 -0.8781 -0.8561
 6013TIP3   OH239673   4.604   5.605   0.076  0.3085  0.7530  0.2892
 6013TIP3    H139674   4.530   5.550   0.101  0.9639  0.3114  1.3127
 6013TIP3    H239675   4.658   5.610   0.155  1.3164  1.1542 -0.4062
 6014TIP3   OH239676   4.336   1.824   3.137  0.0822  0.0295  0.3178
 6014TIP3    H139677   4.314   1.897   3.079 -0.7729  0.3997  1.0779
 6014TIP3    H239678   4.400   1.860   3.198 -1.9238  0.8501  2.0685
 6015TIP3   OH239679   0.933   6.027   8.273 -0.4283  0.5734 -0.7316
 6015TIP3    H139680   0.947   6.065   8.360 -0.3975 -0.0888 -0.4411
 6015TIP3    H239681   0.845   5.988   8.278  0.5420 -1.6604 -0.1660
 6016TIP3   OH239682   0.711   0.214   0.632 -0.0436  0.3326  0.3112
 6016TIP3    H139683   0.650   0.209   0.558 -0.9423  1.1993  0.9754
 6016TIP3    H239684   0.716   0.307   0.653  1.3719  0.2592  0.4071
 6017TIP3   OH239685   0.785   5.414   0.959  0.3358 -0.3435  0.4057
 6017TIP3    H139686   0.718   5.397   1.026 -1.0681 -2.3365 -1.3344
 6017TIP3    H239687   0.812   5.326   0.931  0.2182  0.3759 -2.1935
 6018TIP3   OH239688   6.208   2.773   7.044  0.4548  0.2891 -0.1139
 6018TIP3    H139689   6.182   2.691   7.087  0.1120  0.4600  0.0119
 6018TIP3    H239690   6.168   2.841   7.098  1.7566  0.6010  0.4995
 6019TIP3   OH239691   2.452   1.020   0.562 -0.4580  0.1225  0.3446
 6019TIP3    H139692   2.496   1.104   0.567 -1.7010  0.8609 -0.3939
 6019TIP3    H239693   2.397   1.017   0.640  0.4579 -0.5558  0.9862
 6020TIP3   OH239694   0.429   4.668   2.395 -0.4351 -0.3421  0.3805
 6020TIP3    H139695   0.365   4.614   2.349 -2.2876  0.9020  1.3741
 6020TIP3    H239696   0.421   4.755   2.355  0.2768 -0.0545  0.8368
 6021TIP3   OH239697   5.649   1.429   8.974  0.0663 -0.0029  0.3083
 6021TIP3    H139698   5.684   1.512   8.941 -1.6602  0.0306 -1.5765
 6021TIP3    H239699   5.714   1.364   8.947  2.4494  0.7978  3.4631
 6022TIP3   OH239700   5.097   0.401   2.147 -0.6931  0.1641 -0.1087
 6022TIP3    H139701   5.054   0.483   2.171  1.2736  1.6512 -1.3391
 6022TIP3    H239702   5.172   0.428   2.093  1.3453 -2.2970  1.2649
 6023TIP3   OH239703   5.065   3.784   7.290  0.2095  0.0839  0.0333
 6023TIP3    H139704   5.039   3.869   7.324  2.1783  1.1688 -0.9871
 6023TIP3    H239705   5.057   3.793   7.195 -2.1612 -1.8387 -0.0501
 6024TIP3   OH239706   5.883   4.741   6.902  0.0843 -0.5299  0.4374
 6024TIP3    H139707   5.851   4.773   6.987 -2.6006  0.7387 -0.9422
 6024TIP3    H239708   5.837   4.659   6.888 -0.0919 -0.3355 -0.1488
 6025TIP3   OH239709   6.206   0.092   1.670 -0.1920  0.4896 -0.1558
 6025TIP3    H139710   6.195   0.159   1.736 -1.0804  0.8250 -0.6237
 6025TIP3    H239711   6.272   0.127   1.610 -1.1261  1.2495 -0.7594
 6026TIP3   OH239712   1.244   4.214   7.617 -0.6583 -0.7615 -0.5898
 6026TIP3    H139713   1.179   4.152   7.583  0.4855 -1.5030 -1.4966
 6026TIP3    H239714   1.264   4.270   7.542  0.0075 -0.7607 -0.4150
 6027TIP3   OH239715   0.233   0.206   0.744  0.4345 -0.1186  0.1309
 6027TIP3    H139716   0.251   0.298   0.766  0.0218 -0.3757  1.6850
 6027TIP3    H239717   0.234   0.161   0.828 -0.5046 -1.3490 -0.4892
 6028TIP3   OH239718   0.144   0.713   8.745 -0.4644  0.3857 -0.4133
 6028TIP3    H139719   0.098   0.630   8.758  0.0239 -0.2759 -2.5810
 6028TIP3    H239720   0.179   0.734   8.832  0.8604 -2.5712 -0.1079
 6029TIP3   OH239721   1.175   4.695   0.185  0.3172  0.0252 -0.0829
 6029TIP3    H139722   1.098   4.641   0.165  0.9512 -0.2597 -1.9602
 6029TIP3    H239723   1.199   4.669   0.274 -0.7424 -1.1374 -0.0930
 6030TIP3   OH239724   1.837   5.604   1.267  0.2042  0.0297 -0.4718
 6030TIP3    H139725   1.807   5.688   1.232  0.4416  0.4668  0.3526
 6030TIP3    H239726   1.760   5.569   1.313  1.0499  1.4139  2.1297
 6031TIP3   OH239727   0.513   2.923   1.304 -0.3074 -0.0352  0.2934
 6031TIP3    H139728   0.571   2.916   1.380 -0.0222  0.2780  0.1096
 6031TIP3    H239729   0.472   3.009   1.312 -0.0367  0.1304 -0.0713
 6032TIP3   OH239730   0.844   5.218   0.344 -0.1444 -0.1926 -0.4920
 6032TIP3    H139731   0.781   5.179   0.284  1.0349 -0.0008 -1.8960
 6032TIP3    H239732   0.791   5.277   0.398 -1.0741  0.5872 -2.1825
 6033TIP3   OH239733   2.778   5.269   0.099  0.0474 -0.0497 -0.3642
 6033TIP3    H139734   2.832   5.193   0.079 -1.0360 -0.7463 -0.7645
 6033TIP3    H239735   2.743   5.250   0.186  0.3862  0.3608 -0.1383
 6034TIP3   OH239736   4.443   3.214   8.254  0.1765  0.7680  0.0664
 6034TIP3    H139737   4.457   3.259   8.338 -0.7104  0.6336  0.2903
 6034TIP3    H239738   4.363   3.253   8.219 -1.1084 -1.2130  0.6599
 6035TIP3   OH239739   1.062   3.093   8.323 -0.5778  0.2285  0.2160
 6035TIP3    H139740   1.040   3.001   8.305 -2.0535  0.4063  0.9877
 6035TIP3    H239741   1.099   3.091   8.411  0.5585  0.2351 -0.2394
 6036TIP3   OH239742   4.482   5.700   2.172  0.0975  0.0974  0.1992
 6036TIP3    H139743   4.423   5.632   2.204 -1.4085  0.2114 -2.1008
 6036TIP3    H239744   4.553   5.652   2.129 -0.7419 -0.0741 -1.0462
 6037TIP3   OH239745   1.036   5.713   8.396 -0.3778  0.4213  0.7463
 6037TIP3    H139746   0.996   5.800   8.399  1.1339  1.1764  0.4226
 6037TIP3    H239747   1.121   5.728   8.353 -0.5865 -1.4277 -0.4085
 6038TIP3   OH239748   4.511   1.586   0.855 -0.2893  0.5747  0.3669
 6038TIP3    H139749   4.532   1.639   0.932 -0.8589  1.6811 -0.2183
 6038TIP3    H239750   4.531   1.643   0.781  1.3229 -0.8602 -0.3787
 6039TIP3   OH239751   5.704   5.468   7.475 -0.3736  0.4950 -0.2101
 6039TIP3    H139752   5.680   5.450   7.384  0.1972  0.6699 -0.3948
 6039TIP3    H239753   5.720   5.381   7.513  1.7914  0.5201 -0.9410
 6040TIP3   OH239754   6.532   2.458   2.395 -0.0349 -0.5178 -0.3691
 6040TIP3    H139755   6.532   2.380   2.451  0.0726  0.2762  0.7539
 6040TIP3    H239756   6.616   2.454   2.349 -0.0864 -1.1293 -0.4191
 6041TIP3   OH239757   4.825   1.040   8.003  0.2012 -0.1630  0.5328
 6041TIP3    H139758   4.905   0.996   7.975 -0.2946 -0.4937 -0.4164
 6041TIP3    H239759   4.764   0.969   8.024 -0.3559  0.0565 -0.2825
 6042TIP3   OH239760   6.078   4.698   2.529 -0.2268 -0.3186 -0.1462
 6042TIP3    H139761   6.141   4.647   2.580 -0.9991 -0.5230  0.6243
 6042TIP3    H239762   6.070   4.651   2.446 -1.1450 -1.6455  0.6585
 6043TIP3   OH239763   1.326   1.255   0.775  0.3451  0.5672  0.5859
 6043TIP3    H139764   1.300   1.164   0.791  1.8559  0.1802  1.0353
 6043TIP3    H239765   1.339   1.292   0.862  0.1817  1.0802  0.3964
 6044TIP3   OH239766   3.018   0.876   1.104 -0.6812  0.3741 -0.2087
 6044TIP3    H139767   3.009   0.971   1.101 -1.9710  0.2582 -0.4318
 6044TIP3    H239768   3.030   0.849   1.013  0.1773  0.3464 -0.1014
 6045TIP3   OH239769   4.978   0.539   7.850 -0.5109 -0.0642  0.2207
 6045TIP3    H139770   4.986   0.604   7.780  0.5694 -1.2253 -0.7946
 6045TIP3    H239771   4.921   0.471   7.814  0.9223 -1.2040  0.0012
 6046TIP3   OH239772   5.252   0.911   8.955 -0.2417 -0.3126  0.0523
 6046TIP3    H139773   5.300   0.863   8.887 -0.1162 -0.0157 -0.0753
 6046TIP3    H239774   5.227   0.993   8.912  3.0990  1.6184  1.3646
 6047TIP3   OH239775   5.180   5.926   6.829 -0.5746  0.1928  0.8088
 6047TIP3    H139776   5.112   5.912   6.764 -0.2491 -0.0862  0.5219
 6047TIP3    H239777   5.199   5.838   6.862 -0.0473  0.2105  0.5668
 6048TIP3   OH239778   1.033   0.785   7.459 -0.4327 -0.5204 -0.1155
 6048TIP3    H139779   1.004   0.871   7.490 -0.3803  0.4160 -2.4733
 6048TIP3    H239780   1.006   0.724   7.528 -3.3592  0.9668  0.1965
 6049TIP3   OH239781   3.172   3.334   0.049  0.0163  0.0356  0.1929
 6049TIP3    H139782   3.227   3.257   0.031  0.4553  0.3818  0.0120
 6049TIP3    H239783   3.227   3.389   0.105  0.1134  0.6891 -0.5323
 6050TIP3   OH239784   6.410   6.398   7.560  0.0344  0.7363  0.1589
 6050TIP3    H139785   6.478   6.450   7.518  1.0232 -0.6558 -0.0304
 6050TIP3    H239786   6.330   6.419   7.511  0.5639  1.4452 -0.4242
 6051TIP3   OH239787   6.270   3.632   8.130 -0.0615  0.1110  0.5853
 6051TIP3    H139788   6.354   3.666   8.163  0.2300  1.6689 -1.5735
 6051TIP3    H239789   6.224   3.709   8.097 -1.0546 -1.0992 -0.9995
 6052TIP3   OH239790   2.763   6.313   1.846  0.0335 -0.3874  0.1524
 6052TIP3    H139791   2.716   6.385   1.887 -3.0215 -1.6183 -0.8811
 6052TIP3    H239792   2.829   6.355   1.791  1.2415  1.4015  2.7787
 6053TIP3   OH239793   0.197   2.417   1.509 -0.0344  0.2072 -0.1724
 6053TIP3    H139794   0.109   2.429   1.544 -0.5269 -0.6300 -1.0996
 6053TIP3    H239795   0.208   2.322   1.501  0.2586  0.3454 -1.7723
 6054TIP3   OH239796   1.332   1.054   0.419  0.0423 -0.1129 -0.1871
 6054TIP3    H139797   1.359   1.086   0.333 -0.6118 -0.4225 -0.5162
 6054TIP3    H239798   1.273   1.122   0.452  1.3463  0.6684  0.6238
 6055TIP3   OH239799   3.247   4.668   1.065 -0.8979 -0.3082 -0.0528
 6055TIP3    H139800   3.158   4.663   1.031  0.3446 -1.4564 -3.5647
 6055TIP3    H239801   3.265   4.581   1.100 -0.9119 -0.2732  0.0431
 6056TIP3   OH239802   5.578   0.580   2.344  0.3018  0.0559  0.0606
 6056TIP3    H139803   5.671   0.571   2.362  0.4112  0.7145 -0.1394
 6056TIP3    H239804   5.534   0.555   2.425  0.6665  0.0706  0.2623
 6057TIP3   OH239805   6.055   5.750   1.203 -0.3046  0.0028 -0.3856
 6057TIP3    H139806   6.086   5.694   1.275 -0.3460 -2.5996 -2.2247
 6057TIP3    H239807   6.128   5.810   1.187  0.6756 -0.9546  0.2920
 6058TIP3   OH239808   2.438   0.274   7.676 -0.1159  0.1408  0.3515
 6058TIP3    H139809   2.348   0.304   7.675  0.1116  0.8106 -0.1360
 6058TIP3    H239810   2.442   0.213   7.751 -0.5420  1.4241  1.4589
 6059TIP3   OH239811   1.798   1.737   2.067 -0.1617  0.1231 -1.0674
 6059TIP3    H139812   1.844   1.654   2.065  0.4068  0.4133 -0.3908
 6059TIP3    H239813   1.760   1.746   1.980  0.1729 -0.6170 -1.2922
 6060TIP3   OH239814   4.158   3.554   8.891  0.1536 -0.2594  0.3282
 6060TIP3    H139815   4.132   3.468   8.925  0.4932 -0.6274 -0.3280
 6060TIP3    H239816   4.106   3.616   8.943  1.2999 -0.7311  2.1425
 6061TIP3   OH239817   6.622   3.025   8.276  0.2826  0.4035  0.5113
 6061TIP3    H139818   6.632   3.117   8.301 -1.4617  0.3388  1.6021
 6061TIP3    H239819   6.549   3.025   8.214 -0.2276 -0.3007  1.0942
 6062TIP3   OH239820   2.157   4.044   2.135  0.2638 -0.1829 -0.1413
 6062TIP3    H139821   2.126   4.134   2.131 -1.1743 -0.6960 -1.7170
 6062TIP3    H239822   2.114   4.007   2.213  2.5240  1.0011  1.7829
 6063TIP3   OH239823   2.106   2.353   1.296 -0.9635 -0.2082  0.2655
 6063TIP3    H139824   2.150   2.293   1.356 -1.5649 -1.8785 -0.8704
 6063TIP3    H239825   2.123   2.440   1.331 -0.6397 -1.0696  2.3921
 6064TIP3   OH239826   2.038   2.236   1.984  0.2244  0.1510  0.2873
 6064TIP3    H139827   2.025   2.156   2.036  1.2490 -0.6912 -0.6917
 6064TIP3    H239828   1.951   2.258   1.952 -0.1764 -0.1882  1.1039
 6065TIP3   OH239829   5.119   5.174   0.693 -0.3563  0.6235  0.2533
 6065TIP3    H139830   5.083   5.260   0.713 -1.1020  0.4283 -0.1912
 6065TIP3    H239831   5.050   5.131   0.643 -0.6348 -0.8110  1.7934
 6066TIP3   OH239832   5.258   0.596   9.170  0.1424 -0.6460 -0.7434
 6066TIP3    H139833   5.192   0.534   9.201  1.4872 -1.2985  1.0202
 6066TIP3    H239834   5.215   0.644   9.100 -2.4987 -0.3905  0.9184
 6067TIP3   OH239835   5.140   4.937   0.472  0.3194  0.0289 -0.1425
 6067TIP3    H139836   5.115   5.007   0.412  2.9431 -0.1002 -1.5295
 6067TIP3    H239837   5.109   4.857   0.428 -2.0647  0.1714  1.1138
 6068TIP3   OH239838   1.309   1.096   0.049  0.1861 -0.2725  0.0615
 6068TIP3    H139839   1.225   1.056   0.070 -0.2491 -0.0783 -1.2426
 6068TIP3    H239840   1.301   1.187   0.078  0.6054 -0.6838  1.5589
 6069TIP3   OH239841   4.374   0.646   7.559 -0.4739 -0.5852 -0.1573
 6069TIP3    H139842   4.447   0.707   7.559 -0.1613 -0.9263  1.2981
 6069TIP3    H239843   4.317   0.676   7.630 -1.1077 -1.0576 -0.4538
 6070TIP3   OH239844   0.551   4.547   1.614 -0.1743 -0.0922 -0.4479
 6070TIP3    H139845   0.620   4.557   1.549  0.3777  0.8221  0.2385
 6070TIP3    H239846   0.597   4.517   1.693 -0.5719  0.4072 -0.0180
 6071TIP3   OH239847   4.790   1.315   0.134  0.3384 -0.3962  0.1979
 6071TIP3    H139848   4.805   1.221   0.143 -0.1180 -0.3446  1.7484
 6071TIP3    H239849   4.723   1.336   0.200 -0.4010  0.8263 -0.8904
 6072TIP3   OH239850   2.557   5.920   1.698 -0.5914 -0.2720  0.3620
 6072TIP3    H139851   2.540   5.844   1.754 -1.1674 -0.2224  0.2637
 6072TIP3    H239852   2.634   5.962   1.736 -0.4922 -0.7001  0.6332
 6073TIP3   OH239853   6.537   3.373   1.403  0.1876  0.4982 -0.4774
 6073TIP3    H139854   6.464   3.369   1.342  0.4975  0.0335 -0.8178
 6073TIP3    H239855   6.496   3.383   1.489 -0.3137 -0.7029 -0.5650
 6074TIP3   OH239856   2.532   5.744   1.172 -0.0841  0.0965 -0.0886
 6074TIP3    H139857   2.519   5.824   1.120  2.0987 -0.6261 -1.9072
 6074TIP3    H239858   2.620   5.752   1.208 -0.4872 -0.7506  1.1666
 6075TIP3   OH239859   6.534   0.298   0.224 -0.2983 -0.1391 -0.5622
 6075TIP3    H139860   6.462   0.235   0.233 -1.3624  0.9805 -1.0052
 6075TIP3    H239861   6.549   0.329   0.313 -0.1904 -0.5662 -0.4305
 6076TIP3   OH239862   6.490   0.070   1.064  0.3831 -0.1599  0.1282
 6076TIP3    H139863   6.507   0.024   1.147 -1.1453  0.6306  0.9299
 6076TIP3    H239864   6.447   0.004   1.009  1.0358 -0.5718  0.0976
 6077TIP3   OH239865   5.443   6.456   1.531 -0.1917 -0.2851 -0.6179
 6077TIP3    H139866   5.449   6.547   1.560  1.0286 -0.4447 -0.3545
 6077TIP3    H239867   5.461   6.404   1.609  2.4740 -0.7173 -1.4468
 6078TIP3   OH239868   1.903   6.668   2.408 -0.1238 -0.2723  0.2739
 6078TIP3    H139869   1.981   6.634   2.451 -0.1035  0.8113  1.1346
 6078TIP3    H239870   1.852   6.707   2.478 -1.3664 -0.7886 -0.3087
 6079TIP3   OH239871   3.347   0.672   1.380  0.6225 -0.4429  0.8681
 6079TIP3    H139872   3.389   0.593   1.345 -0.7823 -0.9691  0.2906
 6079TIP3    H239873   3.314   0.718   1.302  2.6162  1.4842  1.0623
 6080TIP3   OH239874   2.710   3.282   0.063 -0.4316  0.5765  0.3537
 6080TIP3    H139875   2.630   3.229   0.063  0.0256 -0.1803 -1.2341
 6080TIP3    H239876   2.740   3.280  -0.028  0.5844  2.0987  0.6201
 6081TIP3   OH239877   3.749   5.747   9.046 -0.1541 -0.2439  0.1863
 6081TIP3    H139878   3.808   5.672   9.043  0.1193 -0.0968  1.3615
 6081TIP3    H239879   3.762   5.791   8.962 -0.9435 -1.9416 -0.8907
 6082TIP3   OH239880   4.038   2.076   8.714 -0.2114  0.2800  0.0605
 6082TIP3    H139881   4.094   2.136   8.764 -0.3904  2.0185 -1.7207
 6082TIP3    H239882   3.989   2.028   8.781  1.4548  0.6055  1.5994
 6083TIP3   OH239883   6.418   0.185   7.406  0.0737 -0.3337  0.0111
 6083TIP3    H139884   6.387   0.105   7.450 -0.1184 -0.0119  0.4734
 6083TIP3    H239885   6.366   0.255   7.445  0.1099 -0.0022 -0.5303
 6084TIP3   OH239886   1.168   1.526   8.078  0.0545  0.1870 -0.5186
 6084TIP3    H139887   1.206   1.469   8.145  0.8265  1.4514  0.1699
 6084TIP3    H239888   1.215   1.503   7.998  0.5986  0.0721 -0.1796
 6085TIP3   OH239889   4.187   2.853   2.080 -0.4600  0.2969 -0.2600
 6085TIP3    H139890   4.228   2.900   2.152 -1.8923  0.4598  0.4838
 6085TIP3    H239891   4.210   2.761   2.095  0.0617  0.4463 -0.1522
 6086TIP3   OH239892   3.238   1.330   2.161 -0.3798 -0.3842  0.1505
 6086TIP3    H139893   3.302   1.365   2.223 -0.1987 -0.1282 -0.1774
 6086TIP3    H239894   3.181   1.405   2.142 -0.0748 -0.3061 -0.4496
 6087TIP3   OH239895   1.680   6.443   8.424  0.4097  0.2096  0.3715
 6087TIP3    H139896   1.769   6.444   8.387  0.0327  0.4882 -0.5532
 6087TIP3    H239897   1.693   6.425   8.517  1.4138 -0.1170  0.1813
 6088TIP3   OH239898   1.260   4.935   8.743  0.1391  0.2574 -0.2554
 6088TIP3    H139899   1.303   5.005   8.791  2.4443 -2.3530  1.7983
 6088TIP3    H239900   1.202   4.894   8.807 -1.9043  0.7434 -1.6841
 6089TIP3   OH239901   2.325   4.275   8.393 -0.4233  0.3940 -0.8142
 6089TIP3    H139902   2.370   4.198   8.428  0.1520  0.7103 -0.8610
 6089TIP3    H239903   2.372   4.350   8.429 -2.6508  0.8291  1.5150
 6090TIP3   OH239904   3.680   4.478   2.035  0.1181  0.0889 -0.3427
 6090TIP3    H139905   3.715   4.565   2.056  1.4868 -0.3995 -0.4646
 6090TIP3    H239906   3.752   4.435   1.989 -0.8114 -0.8539 -0.9507
 6091TIP3   OH239907   2.790   0.770   1.196  0.0001 -0.4031  0.8519
 6091TIP3    H139908   2.880   0.776   1.166 -0.6071 -2.9245 -1.9878
 6091TIP3    H239909   2.786   0.686   1.242 -0.9800 -0.5532  0.5142
 6092TIP3   OH239910   5.874   5.897   1.672  0.0167  0.2313 -0.2989
 6092TIP3    H139911   5.905   5.811   1.644 -2.3168 -0.9220  0.3812
 6092TIP3    H239912   5.863   5.946   1.591  3.3932  0.7185 -0.5786
 6093TIP3   OH239913   6.464   1.956   8.039 -0.4769  0.0808 -0.7749
 6093TIP3    H139914   6.446   1.960   8.133 -1.4592  0.6454 -0.9719
 6093TIP3    H239915   6.420   2.033   8.003 -0.9004 -0.6256 -1.8166
 6094TIP3   OH239916   4.614   3.571   2.482 -0.0035 -0.0480  0.0405
 6094TIP3    H139917   4.582   3.493   2.527  0.3483 -0.2059  0.0186
 6094TIP3    H239918   4.564   3.643   2.521  1.1164 -0.0377  1.5239
 6095TIP3   OH239919   4.321   2.114   0.606  0.1879 -0.7089 -0.2242
 6095TIP3    H139920   4.363   2.177   0.547 -1.3807  0.1245 -0.4867
 6095TIP3    H239921   4.362   2.130   0.691 -2.8551  3.5855  0.7543
 6096TIP3   OH239922   2.749   4.951   8.223 -0.2662 -0.4292  0.6775
 6096TIP3    H139923   2.803   4.872   8.216 -0.9847 -0.7938 -2.1084
 6096TIP3    H239924   2.665   4.927   8.184 -0.5286  1.6322 -0.1985
 6097TIP3   OH239925   0.944   4.548   0.164  0.8617 -0.3340 -0.4187
 6097TIP3    H139926   0.944   4.503   0.080  0.0772  1.0924 -1.2188
 6097TIP3    H239927   0.852   4.556   0.187  1.0898 -1.9068  1.2947
 6098TIP3   OH239928   3.992   1.609   0.370 -0.2134  0.2138 -0.0738
 6098TIP3    H139929   4.025   1.576   0.454 -1.4830 -0.0968  0.3266
 6098TIP3    H239930   4.037   1.693   0.358  2.2765 -1.1170 -0.5924
 6099TIP3   OH239931   6.675   6.102   9.206  0.1930 -0.3705  0.1401
 6099TIP3    H139932   6.696   6.078   9.297  1.0535  0.4498  0.1685
 6099TIP3    H239933   6.725   6.181   9.190 -1.6568  0.7539 -0.3616
 6100TIP3   OH239934   5.665   5.511   2.214 -0.5996  0.2519 -0.0318
 6100TIP3    H139935   5.588   5.516   2.158 -0.0169  0.7828 -0.7992
 6100TIP3    H239936   5.725   5.576   2.178  1.1812 -1.7853 -0.9349
 6101TIP3   OH239937   5.086   6.261   0.653  0.2187 -0.0350  0.5628
 6101TIP3    H139938   5.163   6.309   0.683  0.0964 -0.5335  1.7235
 6101TIP3    H239939   5.113   6.169   0.652 -0.1708 -0.1505  0.3851
 6102TIP3   OH239940   5.732   3.931   7.151 -0.0582  0.2832 -0.2687
 6102TIP3    H139941   5.772   4.015   7.128  0.2088  0.1373 -0.3457
 6102TIP3    H239942   5.724   3.885   7.067  1.6064 -0.5517 -0.0119
 6103TIP3   OH239943   2.063   0.499   2.877  0.0868  0.5638 -0.1937
 6103TIP3    H139944   2.141   0.536   2.917  0.3425 -0.9865  0.8133
 6103TIP3    H239945   2.034   0.431   2.938 -0.8951 -0.2433 -1.4915
 6104TIP3   OH239946   5.294   0.491   2.374  0.8366 -0.2066  0.2738
 6104TIP3    H139947   5.253   0.413   2.335 -0.5606 -0.6014  2.3529
 6104TIP3    H239948   5.314   0.465   2.464  2.2799  1.2122  0.4049
 6105TIP3   OH239949   3.172   5.095   8.402  0.3402 -0.1803  0.3932
 6105TIP3    H139950   3.089   5.142   8.413 -0.3243 -1.5893  1.8353
 6105TIP3    H239951   3.234   5.162   8.374 -1.6740  0.5813 -2.8145
 6106TIP3   OH239952   5.158   0.002   8.196  0.3604 -0.7271 -0.0119
 6106TIP3    H139953   5.085   0.045   8.241  0.4612  0.0506 -0.5909
 6106TIP3    H239954   5.133   0.001   8.104  1.5633  0.5499 -0.3747
 6107TIP3   OH239955   5.088   3.946   0.609 -0.6911 -0.1260  0.2848
 6107TIP3    H139956   5.091   3.998   0.529  0.6598  0.2408  0.5489
 6107TIP3    H239957   5.180   3.929   0.630 -1.0121 -0.0463  1.8635
 6108TIP3   OH239958   2.548   6.424   1.644  0.2570 -0.0877  0.1740
 6108TIP3    H139959   2.621   6.380   1.600 -0.0949  0.4499 -0.9774
 6108TIP3    H239960   2.482   6.356   1.654  1.2759 -0.8644  2.1920
 6109TIP3   OH239961   0.918   0.747   0.378  0.3258 -0.1874 -0.0840
 6109TIP3    H139962   0.880   0.824   0.334  0.9044 -0.5824 -1.3382
 6109TIP3    H239963   0.949   0.692   0.306  0.8504 -1.1184  0.8319
 6110TIP3   OH239964   4.812   0.946   1.988 -0.6357  0.1069  0.0077
 6110TIP3    H139965   4.731   0.982   2.024  0.0723  1.5154  0.2542
 6110TIP3    H239966   4.813   0.855   2.017 -2.8110 -0.3634 -1.1640
 6111TIP3   OH239967   5.462   3.214   0.211 -0.3162 -0.5738 -0.7019
 6111TIP3    H139968   5.544   3.165   0.210  0.4968  0.6803  0.9059
 6111TIP3    H239969   5.439   3.220   0.303 -0.4156  1.9932 -0.8410
 6112TIP3   OH239970   2.673   3.621   0.583 -0.9577  0.2356  0.1348
 6112TIP3    H139971   2.651   3.528   0.578 -1.7138  0.3861  0.5334
 6112TIP3    H239972   2.674   3.641   0.676 -3.0484  1.1305  0.0163
 6113TIP3   OH239973   0.632   2.610   2.184 -0.1183  0.1475  0.3329
 6113TIP3    H139974   0.634   2.541   2.117 -1.3877  1.2651 -0.9122
 6113TIP3    H239975   0.719   2.649   2.181 -0.1213  0.0904 -0.5590
 6114TIP3   OH239976   5.047   0.467   1.311  0.5557  0.0034 -0.3070
 6114TIP3    H139977   5.031   0.562   1.313 -2.4056 -0.3963 -0.5501
 6114TIP3    H239978   5.037   0.440   1.402  1.5883 -0.0747 -0.2093
 6115TIP3   OH239979   5.011   4.414   9.149 -0.2601 -0.3691 -0.2509
 6115TIP3    H139980   5.001   4.333   9.099 -2.1100 -1.4092  1.6366
 6115TIP3    H239981   5.105   4.420   9.168 -0.0742 -1.9773 -0.5819
 6116TIP3   OH239982   2.820   0.836   7.507  0.0405  0.0402 -0.2684
 6116TIP3    H139983   2.885   0.767   7.496  2.0503  1.7693  0.2546
 6116TIP3    H239984   2.756   0.820   7.437  1.2857 -1.3904 -1.1365
 6117TIP3   OH239985   2.940   2.683   9.160  0.2039 -0.5963  0.4303
 6117TIP3    H139986   2.927   2.775   9.180  0.5216  0.1564 -2.3662
 6117TIP3    H239987   2.905   2.636   9.236 -2.5655  1.7372  0.7605
 6118TIP3   OH239988   2.357   4.705   8.796 -0.5059 -0.0272 -0.2287
 6118TIP3    H139989   2.271   4.670   8.820  0.4998 -2.4691  0.1119
 6118TIP3    H239990   2.415   4.674   8.865  0.8709  0.6120 -1.0640
 6119TIP3   OH239991   0.005   2.268   0.714  0.0731  0.7357 -0.1240
 6119TIP3    H139992   0.031   2.236   0.628 -3.1310  1.1360 -1.3953
 6119TIP3    H239993   0.067   2.338   0.733  1.6160 -0.1793 -1.4813
 6120TIP3   OH239994   0.494   6.103   7.245  0.3552 -0.7294  0.2510
 6120TIP3    H139995   0.399   6.103   7.261  0.3931  0.2966  0.5180
 6120TIP3    H239996   0.502   6.076   7.154 -0.1946 -0.7966  0.2148
 6121TIP3   OH239997   4.880   2.120   7.194 -0.3300  0.0842  0.0066
 6121TIP3    H139998   4.800   2.085   7.155 -0.1958  2.3769 -2.6701
 6121TIP3    H239999   4.862   2.214   7.203  1.8769  0.5722 -0.2251
 6122TIP3   OH240000   0.570   0.074   0.366  0.4793  0.1518  0.0039
 6122TIP3    H140001   0.525   0.002   0.322 -2.2603  2.4290 -1.2568
 6122TIP3    H240002   0.656   0.078   0.323  0.0121 -1.2166 -1.1634
 6123TIP3   OH240003   3.980   4.683   8.991  0.3709 -0.2550 -0.2157
 6123TIP3    H140004   3.901   4.628   8.984  0.0239 -0.0627  1.7221
 6123TIP3    H240005   4.032   4.642   9.060  2.0287 -0.3825 -1.4732
 6124TIP3   OH240006   2.978   3.613   2.851 -0.0382 -0.3016 -0.0863
 6124TIP3    H140007   2.977   3.605   2.756  0.2893 -0.6589 -0.0598
 6124TIP3    H240008   3.069   3.597   2.876  0.4406  2.2458  0.0736
 6125TIP3   OH240009   0.211   5.877   1.053  0.0368 -0.1510  0.4886
 6125TIP3    H140010   0.146   5.818   1.092  1.4887 -2.5335 -0.4377
 6125TIP3    H240011   0.288   5.867   1.109 -0.2047  2.4347  1.4194
 6126TIP3   OH240012   3.612   5.434   7.462  1.1313  0.4418 -0.3461
 6126TIP3    H140013   3.564   5.417   7.543 -0.0334 -0.3823 -1.1804
 6126TIP3    H240014   3.567   5.510   7.423  1.0111  0.1794 -0.7272
 6127TIP3   OH240015   0.682   5.353   7.234 -0.0488 -0.0604 -0.6693
 6127TIP3    H140016   0.741   5.289   7.193 -1.1154  0.0545 -2.4994
 6127TIP3    H240017   0.735   5.432   7.245  1.2397 -1.1390  1.4686
 6128TIP3   OH240018   6.537   3.678   8.158  0.5596 -0.1992  0.1597
 6128TIP3    H140019   6.608   3.742   8.158  0.5712 -0.2130  0.3448
 6128TIP3    H240020   6.534   3.646   8.067  0.6984 -0.0985  0.1193
 6129TIP3   OH240021   2.580   2.248   0.458  0.1119 -0.4546  0.1661
 6129TIP3    H140022   2.515   2.180   0.479 -2.0310  1.4104 -0.0304
 6129TIP3    H240023   2.545   2.327   0.499  2.8015  0.4775  0.8295
 6130TIP3   OH240024   2.442   1.964   0.394 -0.2322 -0.0958 -0.5084
 6130TIP3    H140025   2.377   1.897   0.417  1.4542 -1.5993  0.1724
 6130TIP3    H240026   2.510   1.915   0.347  0.7303  1.2846 -0.5912
 6131TIP3   OH240027   5.543   5.270   1.944  0.0183  0.2375 -0.6293
 6131TIP3    H140028   5.601   5.260   1.869 -1.9922 -0.1768 -2.2355
 6131TIP3    H240029   5.528   5.181   1.975 -0.0793  0.3044 -0.4790
 6132TIP3   OH240030   2.048   2.371   7.955  0.2525 -0.2120 -0.2824
 6132TIP3    H140031   1.959   2.344   7.932  0.6891 -1.5844 -0.4552
 6132TIP3    H240032   2.104   2.300   7.922  1.3359  0.2037  0.5935
 6133TIP3   OH240033   2.388   0.782   1.972  0.3661 -0.0572  0.3813
 6133TIP3    H140034   2.331   0.721   2.020 -0.5903  0.1701 -0.4408
 6133TIP3    H240035   2.362   0.772   1.881 -0.8511  2.5872  0.3323
 6134TIP3   OH240036   2.857   2.469   1.581 -0.5959  0.3117  0.4007
 6134TIP3    H140037   2.909   2.511   1.512 -1.5510 -0.3973 -0.7942
 6134TIP3    H240038   2.777   2.522   1.587 -1.6927 -1.0943 -0.9380
 6135TIP3   OH240039   0.568   3.770   2.115  0.0209 -0.2812  0.1953
 6135TIP3    H140040   0.533   3.857   2.096  1.9737  0.8675  1.4481
 6135TIP3    H240041   0.495   3.722   2.154 -1.4022  0.3672 -1.5367
 6136TIP3   OH240042   5.598   1.934   1.333  0.0276  0.0806 -0.5131
 6136TIP3    H140043   5.622   1.846   1.363 -0.9266  0.5722  1.9036
 6136TIP3    H240044   5.627   1.992   1.404  0.9071  1.7876 -2.1884
 6137TIP3   OH240045   5.471   5.068   1.222 -0.4148  0.1207  0.2639
 6137TIP3    H140046   5.535   5.012   1.266  0.6352  0.7233 -0.4262
 6137TIP3    H240047   5.429   5.012   1.157 -0.6406 -0.3060  0.7821
 6138TIP3   OH240048   1.067   2.883   0.018 -0.8292  0.3735  0.3474
 6138TIP3    H140049   1.090   2.791   0.003  0.8553  0.7490  0.3869
 6138TIP3    H240050   1.097   2.929  -0.060  0.9782  1.2557  1.4863
 6139TIP3   OH240051   4.158   0.740   0.616 -0.0396  0.6282  0.0502
 6139TIP3    H140052   4.171   0.834   0.606  0.4174  0.7535  1.5937
 6139TIP3    H240053   4.096   0.732   0.688  1.1852 -0.2736  1.0421
 6140TIP3   OH240054   1.808   0.947   8.445 -0.3004  0.0995 -0.3942
 6140TIP3    H140055   1.728   0.895   8.446 -0.2110 -0.0651 -1.1592
 6140TIP3    H240056   1.860   0.911   8.373  0.5220  0.1228  0.1710
 6141TIP3   OH240057   0.266   4.012   8.192  0.2516  0.7532 -0.4947
 6141TIP3    H140058   0.291   3.994   8.283  0.3765  0.0474 -0.6631
 6141TIP3    H240059   0.305   4.097   8.173  2.0904 -0.0693 -0.5796
 6142TIP3   OH240060   4.358   2.399   6.777  0.0574  0.1707  0.1700
 6142TIP3    H140061   4.434   2.415   6.721 -1.3744 -0.6585 -2.1300
 6142TIP3    H240062   4.388   2.423   6.865  2.8495  0.2095 -0.6937
 6143TIP3   OH240063   6.171   1.667   0.761  0.5459 -0.0912  0.1127
 6143TIP3    H140064   6.127   1.744   0.797 -1.4715 -0.8189 -0.6313
 6143TIP3    H240065   6.182   1.608   0.836 -0.6405 -0.2686  0.1699
 6144TIP3   OH240066   2.215   0.322   0.256  0.0102  0.1886 -0.2304
 6144TIP3    H140067   2.188   0.413   0.270  0.6460  0.2949  0.3477
 6144TIP3    H240068   2.279   0.305   0.325 -1.7896 -1.4496  1.1700
 6145TIP3   OH240069   3.727   0.783   1.183  0.0186  0.7505 -0.6266
 6145TIP3    H140070   3.677   0.722   1.237  2.2078 -0.4872  0.1224
 6145TIP3    H240071   3.745   0.857   1.241  0.8106  0.2459 -0.2125
 6146TIP3   OH240072   0.881   0.015   0.688  0.0361  0.0246 -0.3520
 6146TIP3    H140073   0.817   0.086   0.689  0.4761  0.4286 -0.3729
 6146TIP3    H240074   0.905   0.006   0.596 -0.9812 -1.0405 -0.5329
 6147TIP3   OH240075   6.610   6.645   0.556  0.3769 -0.1184 -0.3077
 6147TIP3    H140076   6.653   6.607   0.632 -0.8816  1.5769  1.3181
 6147TIP3    H240077   6.678   6.648   0.489  0.9586 -3.6992 -0.0813
 6148TIP3   OH240078   0.397   3.684   1.254 -0.3248  0.4724 -0.7306
 6148TIP3    H140079   0.360   3.769   1.230 -1.8464  0.1690  0.4014
 6148TIP3    H240080   0.491   3.699   1.256 -0.2936  1.3372 -3.5098
 6149TIP3   OH240081   2.169   2.466   3.004 -0.0638  0.2967  0.4547
 6149TIP3    H140082   2.161   2.389   2.947  2.4858  0.7319 -0.6060
 6149TIP3    H240083   2.260   2.465   3.033  0.0368  2.9083  0.4231
 6150TIP3   OH240084   6.481   2.710   0.512  0.6834 -0.7526  0.3100
 6150TIP3    H140085   6.549   2.771   0.540  0.2554 -1.4112  3.1338
 6150TIP3    H240086   6.476   2.721   0.417  0.9987  3.1704  0.5853
 6151TIP3   OH240087   1.853   6.487   7.949 -0.5455  0.4754 -0.4520
 6151TIP3    H140088   1.781   6.492   7.885 -1.1455  1.9713  0.3067
 6151TIP3    H240089   1.817   6.437   8.022  0.0330 -0.9424 -1.0942
 6152TIP3   OH240090   4.876   0.212   1.769 -0.2218 -0.3820 -0.4713
 6152TIP3    H140091   4.783   0.191   1.761 -0.1584 -0.4410 -1.0741
 6152TIP3    H240092   4.914   0.135   1.810 -0.7238  0.3454  1.5128
 6153TIP3   OH240093   3.946   3.853   1.268  0.2477  0.4928  0.5398
 6153TIP3    H140094   3.998   3.829   1.345  0.7511 -0.5120 -0.0868
 6153TIP3    H240095   3.978   3.940   1.244  0.5970  0.5084  1.0470
 6154TIP3   OH240096   0.485   2.312   1.796 -0.0524  0.9335 -0.0814
 6154TIP3    H140097   0.514   2.347   1.880 -0.4358  0.0028  0.4501
 6154TIP3    H240098   0.555   2.254   1.768 -0.3092  0.5696  0.0221
 6155TIP3   OH240099   1.235   4.277   0.573 -0.0342  0.9310  0.2593
 6155TIP3    H140100   1.185   4.197   0.585  0.7191  0.4730  0.4109
 6155TIP3    H240101   1.318   4.261   0.617  1.6707  0.3073 -2.9032
 6156TIP3   OH240102   3.553   0.884   1.581  0.1574 -0.4536 -0.3721
 6156TIP3    H140103   3.589   0.954   1.636  0.5277 -1.0224  0.1325
 6156TIP3    H240104   3.516   0.929   1.505 -1.3710  0.4407  0.8657
 6157TIP3   OH240105   4.859   4.516   7.232  0.3889  0.2881  0.2385
 6157TIP3    H140106   4.937   4.558   7.267 -1.2295  3.4020  0.3750
 6157TIP3    H240107   4.788   4.543   7.290 -0.9468 -1.9498 -0.2250
 6158TIP3   OH240108   6.443   6.314   2.325 -1.0710 -0.1209  0.3771
 6158TIP3    H140109   6.407   6.348   2.243 -0.0124 -0.3374 -0.2048
 6158TIP3    H240110   6.515   6.256   2.297  0.0125  0.6426  1.4770
 6159TIP3   OH240111   3.433   6.134   9.209 -0.3154  1.0098 -0.1417
 6159TIP3    H140112   3.521   6.150   9.174 -0.2432  0.7930 -0.0601
 6159TIP3    H240113   3.415   6.043   9.187  0.3146  0.4119  1.6300
 6160TIP3   OH240114   3.139   3.122   0.258  0.2614 -0.3168  0.1881
 6160TIP3    H140115   3.211   3.152   0.202 -0.5883  0.9685 -0.2471
 6160TIP3    H240116   3.108   3.042   0.215  0.2114  0.1580 -0.6783
 6161TIP3   OH240117   4.463   5.804   1.421  0.2751 -0.4171  0.4920
 6161TIP3    H140118   4.541   5.824   1.473  0.2971  0.0329  0.2924
 6161TIP3    H240119   4.452   5.880   1.364  0.3482 -0.9807 -0.2832
 6162TIP3   OH240120   1.833   6.180   1.672 -0.1385 -0.2638  0.0095
 6162TIP3    H140121   1.890   6.251   1.641  2.4894 -2.6620 -1.2040
 6162TIP3    H240122   1.853   6.172   1.765  2.6989 -1.8191 -0.5941
 6163TIP3   OH240123   0.378   5.875   2.167 -0.8520 -0.2619 -0.0153
 6163TIP3    H140124   0.408   5.862   2.257  1.3882 -0.6257 -0.7418
 6163TIP3    H240125   0.283   5.863   2.171 -0.6321 -1.9551  2.0206
 6164TIP3   OH240126   4.269   2.939   8.168 -0.1523 -0.3578 -0.4474
 6164TIP3    H140127   4.251   3.030   8.148 -0.8553 -0.2840  0.4319
 6164TIP3    H240128   4.365   2.934   8.175 -0.1773  1.1980  3.2017
 6165TIP3   OH240129   2.171   2.223   7.519 -0.0395 -0.4573  0.5916
 6165TIP3    H140130   2.264   2.231   7.499  0.0163 -0.8979  0.6589
 6165TIP3    H240131   2.131   2.192   7.437 -0.5639  2.2447 -0.2934
 6166TIP3   OH240132   5.880   1.256   7.993 -0.7922  0.3512  0.1805
 6166TIP3    H140133   5.964   1.249   7.948  0.2311 -2.5970  2.2687
 6166TIP3    H240134   5.817   1.214   7.934  0.1738 -1.7623  0.5603
 6167TIP3   OH240135   0.506   2.817   9.155 -0.1610 -0.3244  0.3366
 6167TIP3    H140136   0.428   2.869   9.172  0.6776  1.9073 -1.9004
 6167TIP3    H240137   0.576   2.860   9.205 -0.1950 -1.9855  1.9074
 6168TIP3   OH240138   3.697   2.502   1.486  0.0570  0.0057 -0.0996
 6168TIP3    H140139   3.735   2.525   1.571 -2.1988 -1.4557  1.4243
 6168TIP3    H240140   3.698   2.406   1.485  0.0452 -0.0095 -1.7580
 6169TIP3   OH240141   5.710   5.324   7.783  0.2526  0.5951 -0.0414
 6169TIP3    H140142   5.701   5.417   7.805  1.8776  0.4146  1.6653
 6169TIP3    H240143   5.620   5.291   7.780 -0.3416  2.1577 -0.4911
 6170TIP3   OH240144   5.054   3.957   7.577 -0.5019  0.3384  0.2495
 6170TIP3    H140145   5.005   3.875   7.567 -0.8788  0.7376 -1.5530
 6170TIP3    H240146   4.987   4.022   7.599 -0.4930  0.5029 -0.1967
 6171TIP3   OH240147   5.312   6.589   0.096  0.0572 -0.6166 -0.3994
 6171TIP3    H140148   5.354   6.619   0.016  0.2278  2.5388  0.7321
 6171TIP3    H240149   5.222   6.621   0.089 -0.0623 -0.7444  0.4281
 6172TIP3   OH240150   6.302   5.905   1.219  0.4412  0.8327  0.2249
 6172TIP3    H140151   6.362   5.884   1.290  0.8390 -2.6151 -0.9606
 6172TIP3    H240152   6.359   5.926   1.145  0.1780 -0.3978 -0.3458
 6173TIP3   OH240153   3.633   3.794   0.129 -0.3266  0.3872 -0.1938
 6173TIP3    H140154   3.551   3.744   0.125 -1.9260  2.7297  1.3505
 6173TIP3    H240155   3.622   3.864   0.064  0.6169  0.5447 -0.2045
 6174TIP3   OH240156   4.688   2.792   1.904  0.6167  0.0080 -0.2315
 6174TIP3    H140157   4.643   2.858   1.955  0.7820 -0.3245  0.3537
 6174TIP3    H240158   4.736   2.841   1.837  1.0607  0.5122  0.4472
 6175TIP3   OH240159   5.016   1.174   8.489  0.2265 -0.3975 -0.5360
 6175TIP3    H140160   4.987   1.094   8.532  1.0090  0.7504  2.3555
 6175TIP3    H240161   5.031   1.148   8.398 -1.0579 -3.1106 -0.0837
 6176TIP3   OH240162   3.248   4.568   1.798  0.0406  0.4603 -0.3145
 6176TIP3    H140163   3.298   4.512   1.738 -0.3512  1.0499 -1.2223
 6176TIP3    H240164   3.166   4.521   1.812  0.6993 -0.3638  0.9338
 6177TIP3   OH240165   3.952   2.160   2.802  0.1262  0.3334 -0.1062
 6177TIP3    H140166   4.027   2.168   2.860 -0.1115 -0.7698  0.3742
 6177TIP3    H240167   3.876   2.161   2.860 -0.1172 -0.6564 -0.3857
 6178TIP3   OH240168   6.463   4.624   9.174 -0.7149  0.5748  0.3375
 6178TIP3    H140169   6.458   4.624   9.079  1.4109  0.2747  0.1744
 6178TIP3    H240170   6.461   4.717   9.199 -0.5157  0.6863 -0.0637
 6179TIP3   OH240171   5.585   3.978   1.875  0.7056  0.0019 -0.2398
 6179TIP3    H140172   5.503   4.010   1.911  2.5241  1.5526  2.9312
 6179TIP3    H240173   5.617   3.914   1.938  2.3139  0.0475 -0.9448
 6180TIP3   OH240174   4.762   0.372   0.043 -0.3278  0.0045  0.1874
 6180TIP3    H140175   4.787   0.288   0.004 -0.2517  0.7942 -1.5476
 6180TIP3    H240176   4.729   0.349   0.130 -0.0624 -1.7899 -0.1484
 6181TIP3   OH240177   0.983   4.436   8.625 -0.5023  0.4320  0.2467
 6181TIP3    H140178   0.992   4.387   8.543  0.8085 -0.9023  1.1561
 6181TIP3    H240179   1.011   4.525   8.602  2.3684 -0.4822 -0.2316
 6182TIP3   OH240180   0.520   3.333   9.135 -0.1444 -0.1080  0.4662
 6182TIP3    H140181   0.604   3.295   9.161  0.8777  0.6259 -1.5441
 6182TIP3    H240182   0.543   3.399   9.070 -2.2457  0.6250  0.4002
 6183TIP3   OH240183   2.057   0.435   2.542 -0.5764 -0.1542 -0.1508
 6183TIP3    H140184   2.115   0.486   2.486 -1.2811 -1.2211 -1.9290
 6183TIP3    H240185   1.999   0.388   2.481 -0.6593 -2.2477  1.4302
 6184TIP3   OH240186   5.860   5.433   8.305 -0.1946 -0.4049 -0.0847
 6184TIP3    H140187   5.791   5.421   8.370 -0.6087 -0.8869 -0.6037
 6184TIP3    H240188   5.937   5.390   8.343 -0.3568 -0.4274  0.2172
 6185TIP3   OH240189   2.602   5.355   0.418 -0.2483 -0.9654 -0.6385
 6185TIP3    H140190   2.549   5.388   0.345 -2.9484 -0.3063  1.4766
 6185TIP3    H240191   2.645   5.433   0.454 -0.2048 -1.0428 -0.5225
 6186TIP3   OH240192   3.478   6.254   1.376 -0.1289  0.0745  0.0140
 6186TIP3    H140193   3.482   6.347   1.398 -0.6593  0.1569 -0.2265
 6186TIP3    H240194   3.570   6.229   1.362 -0.0505  0.7733 -0.7920
 6187TIP3   OH240195   4.114   1.657   0.617  0.3938 -0.1086  0.4291
 6187TIP3    H140196   4.039   1.713   0.636  0.0943 -0.1274 -0.6286
 6187TIP3    H240197   4.182   1.716   0.587 -0.0433 -0.3141 -1.0459
 6188TIP3   OH240198   2.964   4.277   1.113 -0.6491  0.1539  0.1218
 6188TIP3    H140199   3.012   4.211   1.063  0.1459 -0.2432  1.3582
 6188TIP3    H240200   2.899   4.311   1.051  0.3799 -0.2070 -1.2096
 6189TIP3   OH240201   6.011   4.883   7.882  0.2660 -0.0556 -0.4341
 6189TIP3    H140202   6.069   4.899   7.808  0.7307 -0.3710 -0.1457
 6189TIP3    H240203   6.048   4.806   7.925  0.7175  0.8524  0.8374
 6190TIP3   OH240204   3.748   1.441   2.590  0.2543 -0.0549 -1.1324
 6190TIP3    H140205   3.744   1.346   2.601  0.6182  0.1813  1.5914
 6190TIP3    H240206   3.825   1.456   2.536  2.0937 -1.2154  1.0084
 6191TIP3   OH240207   3.970   4.866   7.334  0.4238  0.1006 -0.3432
 6191TIP3    H140208   4.044   4.847   7.393  0.4298 -0.1381 -0.4282
 6191TIP3    H240209   3.951   4.783   7.291 -0.7132 -0.1573  0.5971
 6192TIP3   OH240210   5.646   0.828   8.879  0.6261  0.1117 -1.0678
 6192TIP3    H140211   5.581   0.778   8.929 -0.7344 -0.0258 -2.8632
 6192TIP3    H240212   5.723   0.772   8.877  0.4132 -0.2521  0.0932
 6193TIP3   OH240213   2.699   0.864   2.533 -0.6342 -0.3570 -0.5242
 6193TIP3    H140214   2.677   0.933   2.471  0.9888  0.8663  0.1655
 6193TIP3    H240215   2.725   0.789   2.478  1.2448  0.8570 -1.4036
 6194TIP3   OH240216   1.565   4.066   0.961 -0.2359 -0.1832  0.4667
 6194TIP3    H140217   1.575   4.032   0.872 -1.4683  0.4326  0.0661
 6194TIP3    H240218   1.540   3.990   1.013 -0.7783 -0.3204  0.0204
 6195TIP3   OH240219   1.967   2.335   9.021  0.2827 -0.1192 -0.1225
 6195TIP3    H140220   1.952   2.364   8.931 -0.5602 -2.1368 -0.6935
 6195TIP3    H240221   1.882   2.301   9.050  0.8333 -0.5927  1.0245
 6196TIP3   OH240222   1.707   3.618   8.660  0.2906  0.2495 -0.0522
 6196TIP3    H140223   1.699   3.703   8.617  0.3682  1.2462  1.7867
 6196TIP3    H240224   1.645   3.622   8.733  3.3316  0.5391  2.7574
 6197TIP3   OH240225   5.650   2.875   0.761  0.6659 -0.2725 -0.0681
 6197TIP3    H140226   5.699   2.924   0.694  1.5780  0.6667  1.2425
 6197TIP3    H240227   5.711   2.806   0.788 -0.3474 -1.7403 -1.3946
 6198TIP3   OH240228   6.470   0.867   8.015 -0.5575  0.3007 -0.1427
 6198TIP3    H140229   6.461   0.937   8.080  1.3544  0.3353  0.1628
 6198TIP3    H240230   6.565   0.853   8.008 -0.5976  0.7639 -3.4140
 6199TIP3   OH240231   1.502   3.080   0.212  0.6868  0.0494  0.1354
 6199TIP3    H140232   1.542   3.096   0.126 -0.6623 -0.6515 -0.6696
 6199TIP3    H240233   1.465   2.992   0.204  2.8062 -1.1270  2.3696
 6200TIP3   OH240234   5.148   6.445   8.660  0.3228 -0.2919 -0.1236
 6200TIP3    H140235   5.172   6.465   8.570 -1.3990 -0.0333 -0.5646
 6200TIP3    H240236   5.064   6.400   8.654 -1.0737  1.8523  1.4101
 6201TIP3   OH240237   0.148   1.318   2.561 -0.1421 -0.8850  0.4138
 6201TIP3    H140238   0.213   1.258   2.598 -0.3334 -0.8592  0.8069
 6201TIP3    H240239   0.064   1.276   2.581 -0.3346  0.0209  1.6490
 6202TIP3   OH240240   3.747   2.929   2.678 -0.1008 -0.0398  0.4680
 6202TIP3    H140241   3.736   2.951   2.771 -2.7258 -0.9928  0.4642
 6202TIP3    H240242   3.729   3.010   2.632  0.9684  0.3783  0.7638
 6203TIP3   OH240243   0.583   6.280   9.206  0.5481  0.3460  0.1048
 6203TIP3    H140244   0.569   6.256   9.297  0.2476  0.2911  0.0453
 6203TIP3    H240245   0.509   6.241   9.159 -0.1383  1.6720  0.0503
 6204TIP3   OH240246   4.929   4.914   7.740 -0.3935 -0.0087  0.0030
 6204TIP3    H140247   4.960   4.980   7.678 -1.2015 -0.2585 -0.6865
 6204TIP3    H240248   4.894   4.844   7.685  2.3298 -2.0371  0.6276
 6205TIP3   OH240249   4.219   4.333   9.062 -0.0294  0.0285  0.1115
 6205TIP3    H140250   4.124   4.335   9.060 -0.0542 -0.9084 -0.3024
 6205TIP3    H240251   4.242   4.246   9.029  0.9650  0.2098  0.2835
 6206TIP3   OH240252   3.699   2.228   1.461  0.1628 -0.2161 -0.0521
 6206TIP3    H140253   3.743   2.143   1.465 -0.9484 -0.7583  2.4576
 6206TIP3    H240254   3.628   2.215   1.398 -0.5472 -1.4662  0.9634
 6207TIP3   OH240255   0.421   0.338   7.977 -0.3669  0.7277 -0.0729
 6207TIP3    H140256   0.455   0.418   8.016 -0.0998  0.4777  0.2101
 6207TIP3    H240257   0.356   0.368   7.913  1.3921  1.3065 -1.6717
 6208TIP3   OH240258   1.227   4.884   8.194  0.3367  0.3964 -0.3628
 6208TIP3    H140259   1.261   4.806   8.151  2.4058  0.6991  0.5707
 6208TIP3    H240260   1.284   4.896   8.270  0.1593  2.8510 -0.5217
 6209TIP3   OH240261   5.409   1.622   0.007 -0.1333  0.2683  0.4485
 6209TIP3    H140262   5.441   1.570  -0.067  0.6454  0.1516  0.8611
 6209TIP3    H240263   5.408   1.712  -0.025  1.5701  0.4161  0.7257
 6210TIP3   OH240264   4.220   4.660   2.856  0.3050 -0.3836 -0.6972
 6210TIP3    H140265   4.313   4.646   2.873  0.1811 -0.4496 -0.0655
 6210TIP3    H240266   4.176   4.589   2.903 -0.0410 -0.6154 -1.3595
 6211TIP3   OH240267   1.949   0.017   0.275 -0.2447  0.0634 -0.6790
 6211TIP3    H140268   1.942   0.108   0.246 -0.0498  0.2085 -0.2833
 6211TIP3    H240269   1.974   0.023   0.367  2.5820 -0.3942 -1.3112
 6212TIP3   OH240270   1.866   0.577   0.530  0.4205 -0.2313 -0.4972
 6212TIP3    H140271   1.777   0.592   0.496  0.9329  2.2538 -0.8879
 6212TIP3    H240272   1.915   0.544   0.455 -0.2612 -2.2725 -0.1184
 6213TIP3   OH240273   1.094   1.681   0.483 -0.1092 -0.4706 -0.1057
 6213TIP3    H140274   1.086   1.693   0.578  0.1374  1.1267 -0.2624
 6213TIP3    H240275   1.019   1.626   0.460  0.4381 -1.8082  1.1553
 6214TIP3   OH240276   4.200   2.607   9.164 -0.1349 -0.3493  0.0170
 6214TIP3    H140277   4.239   2.695   9.160  1.1750 -0.8741  0.8409
 6214TIP3    H240278   4.219   2.570   9.078 -0.1696 -0.0439 -0.1265
 6215TIP3   OH240279   2.520   4.139   8.544 -0.1389  0.6464  0.3955
 6215TIP3    H140280   2.605   4.102   8.524 -0.6948 -0.6123  0.2817
 6215TIP3    H240281   2.471   4.067   8.585 -1.2008  1.2902  0.3042
 6216TIP3   OH240282   2.204   1.428   1.960  0.0306  0.3740 -0.1845
 6216TIP3    H140283   2.178   1.521   1.961 -1.3651  0.0526  2.4931
 6216TIP3    H240284   2.137   1.385   1.907  0.7875  0.8713 -1.5963
 6217TIP3   OH240285   6.600   4.103   1.657 -0.2304  0.3678 -0.8750
 6217TIP3    H140286   6.572   4.048   1.584  2.7434  0.5399 -2.2846
 6217TIP3    H240287   6.682   4.142   1.627  1.8842 -0.6009  3.0223
 6218TIP3   OH240288   1.355   5.048   7.852  0.3162  0.6642  0.0041
 6218TIP3    H140289   1.322   4.959   7.860 -0.5307  0.8841 -0.8600
 6218TIP3    H240290   1.307   5.097   7.919  0.1241  0.6439 -0.1170
 6219TIP3   OH240291   6.249   2.089   1.313  0.1135 -0.1379 -0.7109
 6219TIP3    H140292   6.193   2.141   1.370  2.5854  1.0875  0.7517
 6219TIP3    H240293   6.246   2.134   1.228  0.1589  0.8763 -0.1832
 6220TIP3   OH240294   5.882   0.359   8.364  0.0061  0.1399  0.4946
 6220TIP3    H140295   5.799   0.390   8.400 -0.3196 -0.4220  0.2414
 6220TIP3    H240296   5.862   0.333   8.274  0.2534 -0.7923  0.6901
 6221TIP3   OH240297   5.157   3.044   7.825 -0.2837  0.3397 -0.2694
 6221TIP3    H140298   5.201   3.077   7.746  0.2415  1.3441  0.4293
 6221TIP3    H240299   5.112   3.121   7.861 -0.2384 -0.0308  0.5984
 6222TIP3   OH240300   0.630   4.108   0.387 -0.4991 -0.2746  0.0764
 6222TIP3    H140301   0.651   4.047   0.458 -1.5118 -0.1922  0.4702
 6222TIP3    H240302   0.648   4.194   0.423  0.0767 -0.2928 -0.1671
 6223TIP3   OH240303   5.616   2.073   1.084  0.7146 -0.4121  0.1433
 6223TIP3    H140304   5.607   2.038   1.172 -0.2177 -1.0074 -0.1786
 6223TIP3    H240305   5.527   2.078   1.051  0.9737  0.6338 -0.4592
 6224TIP3   OH240306   6.358   4.946   2.444  0.5614  0.1222  0.4541
 6224TIP3    H140307   6.403   4.973   2.524  1.1399  1.0343 -0.1621
 6224TIP3    H240308   6.390   4.857   2.428  0.5401 -0.0191  1.1629
 6225TIP3   OH240309   5.756   0.205   2.802  0.0054 -0.0047 -0.2597
 6225TIP3    H140310   5.826   0.142   2.786  0.5798  0.7106 -0.6152
 6225TIP3    H240311   5.718   0.178   2.885 -0.2675 -1.2757 -0.7689
 6226TIP3   OH240312   2.869   1.312   2.681 -0.1554  0.0257  0.2448
 6226TIP3    H140313   2.938   1.253   2.649 -0.8859 -1.0185  0.5449
 6226TIP3    H240314   2.798   1.254   2.706 -0.3466  0.9337  1.9466
 6227TIP3   OH240315   0.273   5.078   0.353 -0.0735  0.0533  0.1347
 6227TIP3    H140316   0.312   5.117   0.431  2.1127 -3.0294  0.7840
 6227TIP3    H240317   0.325   5.112   0.280  0.0730  0.3569  0.3811
 6228TIP3   OH240318   0.714   1.006   2.646 -0.3467 -0.0275  0.5307
 6228TIP3    H140319   0.701   1.093   2.608  2.2431  0.8770  1.4881
 6228TIP3    H240320   0.655   1.003   2.721 -0.9961  0.6037  0.0484
 6229TIP3   OH240321   4.263   4.431   8.078  0.0905 -0.5184  0.1575
 6229TIP3    H140322   4.345   4.419   8.031 -0.3493  0.0073 -0.7825
 6229TIP3    H240323   4.265   4.366   8.148  1.4184 -0.3361  0.3183
 6230TIP3   OH240324   0.970   1.198   0.754  0.4132  0.0926 -0.3657
 6230TIP3    H140325   0.946   1.129   0.692  0.5431 -0.3932  0.1096
 6230TIP3    H240326   0.974   1.278   0.702  2.8950 -0.6758 -1.5085
 6231TIP3   OH240327   6.138   6.531   1.489 -0.2366  0.2567 -0.1620
 6231TIP3    H140328   6.178   6.565   1.569  0.9556  1.0942 -1.0660
 6231TIP3    H240329   6.154   6.599   1.424 -1.5025 -0.2466 -1.0331
 6232TIP3   OH240330   2.836   1.324   8.754 -0.2702 -0.4734  0.0718
 6232TIP3    H140331   2.884   1.360   8.680  1.9204  0.5074  1.8328
 6232TIP3    H240332   2.763   1.276   8.715 -0.8143  2.2398 -2.5677
 6233TIP3   OH240333   5.963   3.007   0.294  0.2224 -0.5340  0.0568
 6233TIP3    H140334   5.965   3.080   0.232 -1.1899 -0.7079 -0.2168
 6233TIP3    H240335   6.025   2.944   0.259  2.6067  1.0949  1.0670
 6234TIP3   OH240336   5.181   6.395   1.668 -0.4012 -0.6649 -0.1083
 6234TIP3    H140337   5.178   6.314   1.616 -0.3349  0.5134 -2.0264
 6234TIP3    H240338   5.221   6.459   1.610 -2.9277  1.4712  0.3357
 6235TIP3   OH240339   1.548   1.728   0.411 -0.6342  0.1126  0.1966
 6235TIP3    H140340   1.557   1.701   0.320 -0.6336  2.0491 -0.4372
 6235TIP3    H240341   1.636   1.758   0.436 -0.8781  0.6634  0.4306
 6236TIP3   OH240342   2.327   6.145   8.346 -0.3087  0.5478 -0.2855
 6236TIP3    H140343   2.281   6.143   8.430  0.2069  0.6949  0.0067
 6236TIP3    H240344   2.405   6.091   8.361  1.6916  3.4407  0.4829
 6237TIP3   OH240345   4.935   4.071   0.027  0.1808  0.4137 -0.2937
 6237TIP3    H140346   4.935   4.070  -0.069  0.1110  1.2465 -0.3100
 6237TIP3    H240347   4.951   3.980   0.051  2.1683  0.4947 -1.1086
 6238TIP3   OH240348   0.016   1.813   8.057 -0.1427  0.3716 -0.2639
 6238TIP3    H140349   0.079   1.878   8.025  1.9453 -0.4232  1.9037
 6238TIP3    H240350  -0.061   1.864   8.082  0.4247  1.6594 -1.0591
 6239TIP3   OH240351   1.236   6.026   1.381 -0.0071 -0.3303 -0.2422
 6239TIP3    H140352   1.322   6.056   1.351 -0.1291  0.2765 -0.0012
 6239TIP3    H240353   1.175   6.058   1.314 -0.0018 -1.1566 -0.6544
 6240TIP3   OH240354   5.371   2.485   1.756 -0.1881  0.4725  0.2532
 6240TIP3    H140355   5.422   2.560   1.787 -0.6719  1.7617 -1.8446
 6240TIP3    H240356   5.365   2.498   1.661 -2.7822 -0.6630  0.1946
 6241TIP3   OH240357   4.039   1.714   7.805  0.3136  0.0867 -0.0384
 6241TIP3    H140358   4.097   1.790   7.814  0.4729 -0.0056 -0.2821
 6241TIP3    H240359   3.954   1.746   7.834  0.6076  0.0645  0.8873
 6242TIP3   OH240360   3.122   1.514   1.316  0.7669  0.1937  0.5173
 6242TIP3    H140361   3.068   1.571   1.260 -0.0140 -0.2642  0.7874
 6242TIP3    H240362   3.141   1.568   1.393 -0.5816 -0.1227  1.1037
 6243TIP3   OH240363   4.518   5.697   7.834 -0.2997  0.3231  0.3755
 6243TIP3    H140364   4.575   5.677   7.909 -0.4724 -0.7766  0.2297
 6243TIP3    H240365   4.549   5.639   7.765 -2.6250 -1.5439  0.7861
 6244TIP3   OH240366   3.690   4.130   8.355 -0.4861  0.2340  0.0662
 6244TIP3    H140367   3.719   4.054   8.305 -1.4743 -0.2245  0.1647
 6244TIP3    H240368   3.770   4.177   8.376  0.2682 -1.3494  0.9068
 6245TIP3   OH240369   3.895   4.334   1.926 -0.0042 -0.3298 -0.2514
 6245TIP3    H140370   3.987   4.356   1.909  0.1873 -1.1549 -0.3390
 6245TIP3    H240371   3.894   4.308   2.019 -0.1440 -0.3482 -0.2582
 6246TIP3   OH240372   2.975   5.204   8.560  0.1075 -0.6757 -0.0329
 6246TIP3    H140373   2.987   5.115   8.593 -0.5791 -1.5959 -2.1212
 6246TIP3    H240374   2.885   5.226   8.583 -0.3622 -1.3071 -1.1601
 6247TIP3   OH240375   6.192   1.708   2.633 -0.5656  0.4924  0.4332
 6247TIP3    H140376   6.205   1.732   2.725  0.2110  0.5278  0.3179
 6247TIP3    H240377   6.184   1.792   2.587  0.3273  0.5041  0.2901
 6248TIP3   OH240378   1.673   2.117   8.990  0.0095  0.1336  0.2387
 6248TIP3    H140379   1.756   2.070   8.979 -0.1753 -0.2670  0.5420
 6248TIP3    H240380   1.620   2.060   9.045 -0.2822  0.6201  0.4691
 6249TIP3   OH240381   4.133   2.257   8.919  0.3865  0.2187  0.2922
 6249TIP3    H140382   4.105   2.346   8.899  0.3136  0.1859  0.2477
 6249TIP3    H240383   4.069   2.226   8.984  0.6258  0.3260  0.5811
 6250TIP3   OH240384   4.585   1.108   2.087 -0.0463 -0.3697 -0.1597
 6250TIP3    H140385   4.514   1.050   2.115  0.2627 -0.3367  0.7176
 6250TIP3    H240386   4.557   1.142   2.002 -0.0441 -2.1669 -0.9369
 6251TIP3   OH240387   5.918   0.406   2.648  0.2535 -0.4087  0.2507
 6251TIP3    H140388   5.869   0.340   2.698 -0.7562  0.7632  0.8543
 6251TIP3    H240389   5.874   0.489   2.668  1.5783  0.4787 -0.3851
 6252TIP3   OH240390   4.905   2.708   1.470 -0.0944 -0.0775  0.1826
 6252TIP3    H140391   4.817   2.741   1.452 -0.5763 -0.5276  1.5449
 6252TIP3    H240392   4.960   2.786   1.474 -0.8143  0.3974  1.2853
 6253TIP3   OH240393   1.356   0.808   2.336  0.3741  0.1029 -0.0501
 6253TIP3    H140394   1.265   0.831   2.350  0.9395  2.2357  0.5889
 6253TIP3    H240395   1.356   0.713   2.322 -2.2267  0.4070 -3.0065
 6254TIP3   OH240396   3.476   4.793   8.367 -0.3592  0.4590 -0.2025
 6254TIP3    H140397   3.413   4.720   8.365  0.3836 -0.2238  0.7330
 6254TIP3    H240398   3.464   4.832   8.453 -0.7799  1.4916 -0.7169
 6255TIP3   OH240399   4.209   3.360   8.547  0.1434 -0.2871  0.2870
 6255TIP3    H140400   4.220   3.423   8.476  0.9087 -0.7799 -0.0349
 6255TIP3    H240401   4.152   3.293   8.510 -1.6715  0.7716  1.0074
 6256TIP3   OH240402   4.950   1.255   8.884 -0.0261 -0.4802 -0.4932
 6256TIP3    H140403   4.880   1.247   8.819  0.0220  2.1117 -0.9654
 6256TIP3    H240404   4.922   1.326   8.941  1.4057 -0.5973  0.3911
 6257TIP3   OH240405   3.388   2.330   2.252 -0.2243 -0.1674 -0.4279
 6257TIP3    H140406   3.462   2.270   2.240  0.0194  0.0951 -0.2515
 6257TIP3    H240407   3.317   2.274   2.281 -0.7498 -0.7785 -2.7090
 6258TIP3   OH240408   3.573   2.900   8.553 -0.4315 -0.2609 -0.1275
 6258TIP3    H140409   3.574   2.842   8.477 -0.3784  1.3193 -1.3994
 6258TIP3    H240410   3.615   2.981   8.521 -1.8858  1.0207  1.0836
 6259TIP3   OH240411   4.393   0.905   2.128 -0.0415 -0.6766 -0.3007
 6259TIP3    H140412   4.301   0.882   2.110  0.3659 -2.3070 -0.4781
 6259TIP3    H240413   4.402   0.897   2.223 -0.6658  1.9414  0.0462
 6260TIP3   OH240414   3.452   2.386   1.010  0.0964  0.4036 -0.0218
 6260TIP3    H140415   3.405   2.340   1.079 -1.2002  0.8371 -0.5979
 6260TIP3    H240416   3.470   2.472   1.048 -0.2450  0.4980 -0.0724
 6261TIP3   OH240417   4.629   0.057   8.099 -0.1277 -0.1259 -0.3948
 6261TIP3    H140418   4.567   0.003   8.050  0.6752 -1.1347 -0.3296
 6261TIP3    H240419   4.575   0.127   8.136 -1.1849 -0.8358 -0.5416
 6262TIP3   OH240420   4.487   5.592   0.532  1.1297  0.1211  0.5341
 6262TIP3    H140421   4.454   5.676   0.500  0.5065  0.4236  1.8861
 6262TIP3    H240422   4.417   5.529   0.513  1.0874  0.1469  0.6051
 6263TIP3   OH240423   4.132   5.608   0.000 -0.1824 -0.2692  0.8498
 6263TIP3    H140424   4.184   5.687  -0.008  1.9304 -1.6973 -0.3911
 6263TIP3    H240425   4.136   5.585   0.093  1.0307 -0.0857  0.8528
 6264TIP3   OH240426   4.421   5.107   8.901 -0.2889  0.4202  0.9727
 6264TIP3    H140427   4.489   5.055   8.942  0.2690  0.9874  0.7750
 6264TIP3    H240428   4.347   5.104   8.962  0.1608  0.3932  1.5145
 6265TIP3   OH240429   3.649   1.156   8.638  0.1151 -0.0049  0.4905
 6265TIP3    H140430   3.664   1.243   8.676  0.3320  0.1436  0.0839
 6265TIP3    H240431   3.655   1.171   8.543 -3.1366  0.1683  0.2054
 6266TIP3   OH240432   3.245   3.611   2.854 -0.3774  0.2489 -0.1446
 6266TIP3    H140433   3.331   3.573   2.873 -0.9651 -0.6656  0.8066
 6266TIP3    H240434   3.240   3.687   2.912 -0.8059 -0.5991  0.9863
 6267TIP3   OH240435   4.116   1.394   1.054  0.2899 -0.2334  0.3042
 6267TIP3    H140436   4.142   1.431   0.969  1.4580  2.3378  1.6736
 6267TIP3    H240437   4.043   1.449   1.083 -1.7728 -2.6059 -0.0129
 6268TIP3   OH240438   6.174   2.849   0.543  0.3591  0.0568  0.0339
 6268TIP3    H140439   6.154   2.943   0.535 -2.9613 -0.6444 -1.9481
 6268TIP3    H240440   6.241   2.834   0.477  0.2288  0.8958 -0.3090
 6269TIP3   OH240441   0.323   5.360   1.658 -0.6212 -0.0953  0.4322
 6269TIP3    H140442   0.270   5.409   1.595  0.2446 -0.0412 -0.2735
 6269TIP3    H240443   0.288   5.385   1.744 -0.3887  1.5307  0.0763
 6270TIP3   OH240444   0.465   1.257   2.012  0.6533 -0.4826 -0.7831
 6270TIP3    H140445   0.389   1.200   2.000  0.3651 -0.2383 -0.1863
 6270TIP3    H240446   0.492   1.242   2.103 -0.2275  1.2501 -0.1696
 6271TIP3   OH240447   0.223   1.645   0.777 -0.4287 -0.0133 -0.2436
 6271TIP3    H140448   0.307   1.634   0.733 -0.1216 -0.4922  0.4481
 6271TIP3    H240449   0.227   1.732   0.815 -0.2706 -0.0123 -0.2623
 6272TIP3   OH240450   4.059   2.162   8.132  0.3122 -0.2283  0.4316
 6272TIP3    H140451   4.103   2.178   8.215 -1.1192 -1.3553  1.4695
 6272TIP3    H240452   4.115   2.100   8.086  1.2444  0.5988  0.4270
 6273TIP3   OH240453   5.221   6.008   7.453 -0.0163 -0.5266 -0.0033
 6273TIP3    H140454   5.132   5.979   7.431  0.0112 -0.6758  0.0772
 6273TIP3    H240455   5.223   6.100   7.429 -0.2886 -0.4461  0.2679
 6274TIP3   OH240456   2.414   6.212   2.031  0.3335 -0.3106 -0.2173
 6274TIP3    H140457   2.451   6.263   2.103 -0.6125  0.1022 -0.0039
 6274TIP3    H240458   2.337   6.262   2.004  2.1429  1.0612 -3.3607
 6275TIP3   OH240459   1.384   4.509   6.834  0.8298 -0.9916 -0.6722
 6275TIP3    H140460   1.440   4.563   6.778  1.2280  1.6953  2.0844
 6275TIP3    H240461   1.298   4.551   6.829  0.9945 -0.3863  1.0357
 6276TIP3   OH240462   3.838   4.588   1.237 -0.2209  0.1065  0.1824
 6276TIP3    H140463   3.774   4.632   1.293  0.7393  1.8153  0.0034
 6276TIP3    H240464   3.808   4.604   1.148 -0.2084 -0.1453  0.1322
 6277TIP3   OH240465   5.477   3.825   0.021  0.1487  0.0325 -0.4273
 6277TIP3    H140466   5.412   3.889   0.048  0.9680 -0.3297  2.7171
 6277TIP3    H240467   5.533   3.872  -0.040 -2.0405  0.8060 -1.9824
 6278TIP3   OH240468   4.590   2.459   2.791 -0.0245  0.4983  0.4676
 6278TIP3    H140469   4.539   2.383   2.819  0.3068  0.1157  0.0333
 6278TIP3    H240470   4.538   2.534   2.821  0.3210  0.1114  2.1351
 6279TIP3   OH240471   1.800   4.254   8.443  0.2733  0.0176 -0.4311
 6279TIP3    H140472   1.838   4.167   8.456 -0.4633 -0.2811 -0.2289
 6279TIP3    H240473   1.875   4.310   8.426  0.7430 -0.7135 -0.8715
 6280TIP3   OH240474   5.355   0.200   8.208  0.7501 -0.0999 -0.4297
 6280TIP3    H140475   5.350   0.250   8.126 -1.6974  1.6789  0.6713
 6280TIP3    H240476   5.299   0.124   8.195  1.7875 -0.7937 -0.9650
 6281TIP3   OH240477   5.186   1.201   1.427 -0.3716 -0.2305 -0.0778
 6281TIP3    H140478   5.237   1.260   1.482  1.9707 -1.1185 -1.1440
 6281TIP3    H240479   5.170   1.250   1.347 -2.5878  0.5728  0.7918
 6282TIP3   OH240480   3.526   0.137   8.713 -0.3431  0.7313 -0.0054
 6282TIP3    H140481   3.521   0.172   8.623 -0.9173  3.8319  1.1019
 6282TIP3    H240482   3.610   0.169   8.746 -0.4723  0.2580  0.8012
 6283TIP3   OH240483   1.986   1.283   0.698  0.0913  0.6547  0.5885
 6283TIP3    H140484   1.963   1.345   0.628 -3.1254 -1.1700 -0.1634
 6283TIP3    H240485   1.917   1.295   0.764  0.2939 -1.0392  1.1368
 6284TIP3   OH240486   3.388   1.452   1.010  0.6343  0.2071  0.3079
 6284TIP3    H140487   3.432   1.513   0.950  1.9293 -0.6071  0.3724
 6284TIP3    H240488   3.302   1.438   0.972  0.5842  1.5016 -0.0950
 6285TIP3   OH240489   6.357   1.272   2.365 -0.3055  0.2910 -0.2671
 6285TIP3    H140490   6.429   1.212   2.385  0.2063  1.3934  1.3339
 6285TIP3    H240491   6.328   1.245   2.277 -0.2153 -2.4053  0.4225
 6286TIP3   OH240492   1.254   3.896   1.471  0.2316  0.7028 -0.1785
 6286TIP3    H140493   1.277   3.970   1.526 -0.3115 -0.2326  1.3732
 6286TIP3    H240494   1.177   3.857   1.513  2.5599 -2.8744  1.2167
 6287TIP3   OH240495   6.455   3.150   0.482  0.2596 -0.0431 -0.3788
 6287TIP3    H140496   6.520   3.086   0.509  0.0275 -0.0638  0.1513
 6287TIP3    H240497   6.398   3.102   0.422 -0.3801 -0.5766  0.6250
 6288TIP3   OH240498   2.614   6.109   0.307 -0.3785  0.2270 -0.9242
 6288TIP3    H140499   2.586   6.153   0.227 -1.1700  0.8786 -0.2969
 6288TIP3    H240500   2.534   6.072   0.344  0.0229 -0.3094 -0.5755
 6289TIP3   OH240501   0.516   2.131   0.083  0.3325 -0.1974 -0.3065
 6289TIP3    H140502   0.455   2.068   0.120  0.4556  0.4398  1.0377
 6289TIP3    H240503   0.580   2.078   0.036  1.4211 -1.2702  2.2178
 6290TIP3   OH240504   5.715   1.199   7.765 -0.3207 -0.1431 -0.2444
 6290TIP3    H140505   5.757   1.152   7.693 -0.9415 -0.8597 -0.1509
 6290TIP3    H240506   5.726   1.292   7.743  2.7426 -0.2056  0.5741
 6291TIP3   OH240507   4.884   6.094   1.681 -0.4391 -0.6489  0.4833
 6291TIP3    H140508   4.890   6.115   1.587 -3.1948 -2.1376 -0.1302
 6291TIP3    H240509   4.973   6.070   1.706  0.1682 -1.3434 -2.0732
 6292TIP3   OH240510   3.623   2.148   2.256  0.7809  0.0511  0.1167
 6292TIP3    H140511   3.626   2.111   2.168 -3.3383 -1.8080  0.5135
 6292TIP3    H240512   3.683   2.093   2.307  0.9364 -0.7800 -0.9327
 6293TIP3   OH240513   5.145   2.632   0.819  0.0572 -0.4639 -0.1540
 6293TIP3    H140514   5.156   2.618   0.913  1.1387 -1.8088 -0.4564
 6293TIP3    H240515   5.216   2.691   0.795  0.9578 -1.6284 -0.4368
 6294TIP3   OH240516   1.870   6.292   0.154 -0.0424  0.7367 -0.1390
 6294TIP3    H140517   1.885   6.366   0.095 -2.5589  1.3032 -0.2008
 6294TIP3    H240518   1.903   6.321   0.239  3.9840 -0.2316 -1.1935
 6295TIP3   OH240519   0.544   0.403   0.819  0.4185  0.4277  0.1949
 6295TIP3    H140520   0.502   0.396   0.733 -1.6682  1.5872  1.0454
 6295TIP3    H240521   0.552   0.497   0.834  5.1131  0.3834 -0.6284
 6296TIP3   OH240522   5.460   4.223   6.984  0.5335 -0.0098 -0.3758
 6296TIP3    H140523   5.510   4.290   6.937  1.0017 -0.8095 -1.0472
 6296TIP3    H240524   5.369   4.252   6.979  0.9821  2.1714  1.9842
 6297TIP3   OH240525   4.643   0.055   0.830 -0.0204  0.4667 -0.1765
 6297TIP3    H140526   4.682   0.100   0.754  0.1859  0.1211 -0.2766
 6297TIP3    H240527   4.559   0.099   0.843 -0.2148  0.3001 -0.8223
 6298TIP3   OH240528   5.005   0.737   8.982  0.5252  0.0187  0.2302
 6298TIP3    H140529   4.992   0.773   8.894  0.4116  0.8815  0.5839
 6298TIP3    H240530   5.054   0.805   9.028 -0.6465  0.2054  1.2451
 6299TIP3   OH240531   0.734   3.539   8.629 -0.1208 -0.1620 -0.2370
 6299TIP3    H140532   0.797   3.516   8.561 -0.9311 -1.8016 -0.4661
 6299TIP3    H240533   0.765   3.494   8.707 -1.0588 -1.0824 -0.3818
 6300TIP3   OH240534   2.098   5.453   0.847  0.2757  0.3209 -0.3207
 6300TIP3    H140535   2.092   5.508   0.925  1.2122  1.3491 -0.9582
 6300TIP3    H240536   2.125   5.367   0.881 -0.2268  0.5015  0.5691
 6301TIP3   OH240537   4.019   2.823   7.177  0.3264  0.5172  0.5990
 6301TIP3    H140538   3.983   2.771   7.249 -1.1357 -0.4614 -0.7829
 6301TIP3    H240539   3.975   2.791   7.099  2.9924  0.4428 -1.0147
 6302TIP3   OH240540   5.075   3.920   8.806  0.5404  0.2722 -0.0427
 6302TIP3    H140541   5.087   3.845   8.747  1.5579  1.3750 -1.2832
 6302TIP3    H240542   5.137   3.904   8.878  1.3466  0.3117 -0.7143
 6303TIP3   OH240543   6.143   0.146   2.586  1.0668  0.3814  0.2680
 6303TIP3    H140544   6.093   0.090   2.646  0.8841 -1.0865 -1.1791
 6303TIP3    H240545   6.231   0.110   2.587  2.1726  2.8546  2.6686
 6304TIP3   OH240546   3.915   1.761   2.556 -0.8514  0.1529  0.3685
 6304TIP3    H140547   3.840   1.776   2.614 -1.8235  0.3833 -0.8769
 6304TIP3    H240548   3.969   1.840   2.566 -1.6502  0.7570  0.0570
 6305TIP3   OH240549   6.558   4.447   0.174 -0.1088 -0.3296 -0.1416
 6305TIP3    H140550   6.465   4.444   0.196  0.0921  2.4074  1.5896
 6305TIP3    H240551   6.564   4.507   0.100  0.3203  0.4523  0.4988
 6306TIP3   OH240552   4.150   2.738   0.644 -0.2132 -0.2312  0.0544
 6306TIP3    H140553   4.194   2.663   0.604 -0.3524  0.1378 -0.8299
 6306TIP3    H240554   4.099   2.777   0.572 -1.8155 -0.5151  0.9951
 6307TIP3   OH240555   3.831   2.052   7.837 -0.0227  0.2514 -0.6881
 6307TIP3    H140556   3.925   2.044   7.818 -0.4690 -2.7283 -2.1636
 6307TIP3    H240557   3.795   1.965   7.819 -2.5873  0.3405  3.0118
 6308TIP3   OH240558   5.649   0.372   8.106 -0.0053  0.5994 -0.9405
 6308TIP3    H140559   5.591   0.418   8.168 -1.2950 -0.3475 -1.4131
 6308TIP3    H240560   5.723   0.432   8.095 -1.4956  2.4725 -1.3363
 6309TIP3   OH240561   2.671   6.562   1.882 -0.1921  0.7726  0.4743
 6309TIP3    H140562   2.601   6.537   1.822 -0.7217  0.1430  1.3290
 6309TIP3    H240563   2.685   6.655   1.865  0.0554  0.5024 -0.9931
 6310TIP3   OH240564   1.618   1.688   8.027 -0.4188  0.3928  0.3964
 6310TIP3    H140565   1.712   1.700   8.040 -0.1394  0.7937 -1.7417
 6310TIP3    H240566   1.611   1.621   7.959 -1.7270 -0.4324  1.2940
 6311TIP3   OH240567   0.225   0.043   2.276  0.0222 -0.0021  0.1599
 6311TIP3    H140568   0.189   0.041   2.365  0.1539  1.0586  0.2509
 6311TIP3    H240569   0.297   0.105   2.281  1.7000 -1.8191 -0.1063
 6312TIP3   OH240570   0.005   2.916   6.923  0.6173  0.4786  0.3673
 6312TIP3    H140571  -0.085   2.883   6.913  0.2573  0.8750  2.0406
 6312TIP3    H240572   0.060   2.841   6.900 -0.1198  0.3131 -0.9591
 6313TIP3   OH240573   5.610   4.968   8.568 -0.0849  0.3865 -0.1760
 6313TIP3    H140574   5.628   4.884   8.525  1.6440  0.3911  0.4449
 6313TIP3    H240575   5.697   5.008   8.579 -0.7829  1.7954  0.4742
 6314TIP3   OH240576   0.958   4.309   8.869 -0.0606 -0.0742 -0.0954
 6314TIP3    H140577   0.943   4.395   8.830  1.4427 -0.3016 -1.2796
 6314TIP3    H240578   0.958   4.249   8.795 -1.2695 -1.1469  0.7376
 6315TIP3   OH240579   3.470   5.307   0.675  0.2652 -0.4324  0.2298
 6315TIP3    H140580   3.455   5.281   0.584  2.2765  0.4467 -0.4047
 6315TIP3    H240581   3.390   5.280   0.721 -0.8491 -0.8039 -1.7961
 6316TIP3   OH240582   5.077   3.650   1.264  0.3549  0.4501  0.2456
 6316TIP3    H140583   5.090   3.626   1.356 -0.8987  0.7624  0.5124
 6316TIP3    H240584   4.990   3.617   1.242  1.0779 -0.6289 -1.1747
 6317TIP3   OH240585   3.284   2.513   2.574 -0.1204  0.4453 -0.0530
 6317TIP3    H140586   3.327   2.523   2.659 -0.3648 -0.5287  0.2031
 6317TIP3    H240587   3.241   2.428   2.580 -0.1169  0.3557 -1.1650
 6318TIP3   OH240588   1.066   5.091   9.073 -0.1383 -0.2515 -0.3018
 6318TIP3    H140589   0.975   5.119   9.082 -0.3413 -0.1975 -2.0877
 6318TIP3    H240590   1.063   4.996   9.088 -0.1652 -0.0056  1.4176
 6319TIP3   OH240591   3.398   5.507   7.763  0.4958 -0.2656 -0.4577
 6319TIP3    H140592   3.392   5.504   7.858  0.6630  1.9223 -0.3199
 6319TIP3    H240593   3.341   5.437   7.733  0.8824 -1.3606  1.2469
 6320TIP3   OH240594   4.273   2.042   1.888  0.2724  0.2801  0.2796
 6320TIP3    H140595   4.213   1.972   1.864  1.5509 -0.1888 -1.8661
 6320TIP3    H240596   4.228   2.091   1.957 -2.1253 -0.6149 -0.5686
 6321TIP3   OH240597   5.615   4.559   1.054 -0.1326  0.0203  0.2611
 6321TIP3    H140598   5.564   4.563   1.135 -1.5136  0.7410 -0.5962
 6321TIP3    H240599   5.666   4.640   1.053 -0.4408  0.2158  0.2154
 6322TIP3   OH240600   4.327   6.557   1.040  0.0831  0.3025  0.2620
 6322TIP3    H140601   4.314   6.652   1.038  0.4212  0.3490  0.1770
 6322TIP3    H240602   4.310   6.529   0.950  0.4411  0.3464  0.1801
 6323TIP3   OH240603   0.002   3.051   0.055 -0.1439  0.0306 -0.1112
 6323TIP3    H140604  -0.005   3.099  -0.028  1.0763  0.3359 -0.0566
 6323TIP3    H240605   0.032   2.964   0.029 -1.8577 -0.6014 -0.1613
 6324TIP3   OH240606   4.809   3.722   8.726  0.1802 -0.1405 -0.0367
 6324TIP3    H140607   4.713   3.723   8.734  0.1751  2.1820  0.4400
 6324TIP3    H240608   4.829   3.637   8.688 -2.3250  0.4070 -3.0282
 6325TIP3   OH240609   2.300   3.586   2.427 -0.9530  0.0105  0.4135
 6325TIP3    H140610   2.211   3.551   2.434 -1.5138  1.2973  0.0206
 6325TIP3    H240611   2.347   3.546   2.500 -1.8900 -0.5558  0.7315
 6326TIP3   OH240612   3.417   6.633   8.051  0.2321 -0.9006 -0.7473
 6326TIP3    H140613   3.377   6.668   7.972 -0.4508  0.0035 -0.0258
 6326TIP3    H240614   3.346   6.588   8.096  0.8042 -2.1025 -1.0198
 6327TIP3   OH240615   1.779   1.913   0.145 -0.2800 -0.6362 -0.3927
 6327TIP3    H140616   1.793   1.885   0.236  1.1033  2.1276  0.3915
 6327TIP3    H240617   1.695   1.958   0.146 -0.7058 -1.4152 -0.7225
 6328TIP3   OH240618   5.174   2.432   9.075  0.0363 -0.7520  0.1285
 6328TIP3    H140619   5.255   2.445   9.124  1.0916 -0.8759 -1.5047
 6328TIP3    H240620   5.120   2.377   9.131  1.5437 -1.6168  0.7793
 6329TIP3   OH240621   1.479   2.421   1.767  0.1332  0.1323  0.0685
 6329TIP3    H140622   1.552   2.476   1.740  0.5932  0.3072  1.6022
 6329TIP3    H240623   1.481   2.422   1.863 -0.6158 -1.5456  0.1405
 6330TIP3   OH240624   3.230   5.880   7.472 -0.4415  0.2470  0.0387
 6330TIP3    H140625   3.278   5.847   7.549  0.3692 -2.3412 -1.4439
 6330TIP3    H240626   3.181   5.804   7.441 -1.9064  1.6341 -1.1988
 6331TIP3   OH240627   0.790   5.671   7.792  0.0850 -0.0032 -0.4361
 6331TIP3    H140628   0.698   5.670   7.765  0.0842 -0.1700 -0.4244
 6331TIP3    H240629   0.830   5.601   7.742  0.0265 -0.5109  0.2226
 6332TIP3   OH240630   1.269   4.308   7.874  0.0233  0.5934  0.1774
 6332TIP3    H140631   1.271   4.286   7.781 -0.0752  2.1172 -0.2144
 6332TIP3    H240632   1.319   4.389   7.880  0.1349  0.4455  1.4804
 6333TIP3   OH240633   6.402   4.647   8.908  0.4563  0.0803  0.8540
 6333TIP3    H140634   6.348   4.575   8.876  2.2475 -0.4439 -1.2348
 6333TIP3    H240635   6.485   4.636   8.863  1.3977  2.4266  1.8721
 6334TIP3   OH240636   4.767   4.044   0.309  0.4893  0.2883 -0.0894
 6334TIP3    H140637   4.757   3.951   0.286 -0.3459  0.4792 -0.5504
 6334TIP3    H240638   4.726   4.091   0.236 -0.7809  0.9662  1.0181
 6335TIP3   OH240639   5.859   2.296   2.931  0.0731 -0.0110  0.1146
 6335TIP3    H140640   5.919   2.241   2.880  0.2178  0.1630  0.0907
 6335TIP3    H240641   5.788   2.316   2.870  0.0430 -0.1348  0.1096
 6336TIP3   OH240642   0.284   3.558   8.383  0.0086  0.1002 -0.4946
 6336TIP3    H140643   0.266   3.466   8.366  0.8766 -0.0971 -0.3657
 6336TIP3    H240644   0.299   3.596   8.296 -0.1274  0.0781 -0.5285
 6337TIP3   OH240645   6.078   4.644   0.435 -0.1772 -0.1220 -0.2095
 6337TIP3    H140646   6.089   4.569   0.376  0.7282  0.1739 -0.4279
 6337TIP3    H240647   6.080   4.606   0.522  1.8628 -0.2079 -0.2529
 6338TIP3   OH240648   6.359   6.235   2.673 -0.2291 -0.1610  0.7027
 6338TIP3    H140649   6.294   6.263   2.610  0.9317 -1.3938 -1.1359
 6338TIP3    H240650   6.399   6.316   2.705 -1.9800  0.5567  1.1847
 6339TIP3   OH240651   3.589   6.315   8.558 -0.6914  0.5458  0.2603
 6339TIP3    H140652   3.588   6.254   8.484 -1.9120  1.2542 -0.3263
 6339TIP3    H240653   3.497   6.330   8.578 -0.3970  1.7672  0.7645
 6340TIP3   OH240654   4.174   2.126   2.382  0.3478 -0.1259  0.1703
 6340TIP3    H140655   4.143   2.183   2.453 -0.2820  0.6101 -0.6870
 6340TIP3    H240656   4.131   2.042   2.398  0.1067  0.0716  0.5839
 6341TIP3   OH240657   0.878   2.650   1.306  0.2571 -0.3309  0.0979
 6341TIP3    H140658   0.820   2.577   1.328 -1.7768  0.8905 -0.9587
 6341TIP3    H240659   0.912   2.629   1.219 -0.4858  0.0338 -0.2925
 6342TIP3   OH240660   3.726   2.238   1.739  0.4126  0.3885 -0.3383
 6342TIP3    H140661   3.806   2.192   1.765 -0.1440 -0.4789 -0.0879
 6342TIP3    H240662   3.739   2.257   1.646  0.8541  0.1365 -0.3341
 6343TIP3   OH240663   5.506   4.727   8.430  0.5577 -0.2404 -0.3075
 6343TIP3    H140664   5.458   4.647   8.406 -3.1727  1.8881 -0.7271
 6343TIP3    H240665   5.565   4.699   8.499 -1.6149 -3.1321  0.5976
 6344TIP3   OH240666   2.454   0.479   8.996  0.7064  0.0347 -0.2654
 6344TIP3    H140667   2.425   0.520   8.914  0.9030 -0.5065 -0.6051
 6344TIP3    H240668   2.486   0.393   8.971  0.5159 -0.2454  0.4192
 6345TIP3   OH240669   1.368   3.229   8.468  0.0024 -0.1351  0.7316
 6345TIP3    H140670   1.386   3.322   8.477  1.9107 -0.2570 -1.1207
 6345TIP3    H240671   1.322   3.222   8.384  0.2360 -0.8810  0.6586
 6346TIP3   OH240672   6.648   2.120   8.488 -0.5142 -0.0210  0.0048
 6346TIP3    H140673   6.621   2.201   8.531 -0.5121 -0.6411  1.2121
 6346TIP3    H240674   6.725   2.145   8.436 -1.0223  0.9176 -0.3213
 6347TIP3   OH240675   0.803   1.281   2.614 -0.4191  0.2369  0.1464
 6347TIP3    H140676   0.784   1.370   2.585 -0.7970 -0.5257 -2.0863
 6347TIP3    H240677   0.898   1.280   2.628 -0.1752  0.5808 -1.3735
 6348TIP3   OH240678   2.486   4.068   1.016 -0.1042  0.1551  0.3214
 6348TIP3    H140679   2.463   3.979   1.042  0.5320  0.3994  1.8365
 6348TIP3    H240680   2.581   4.072   1.029 -0.0023  0.8071 -0.5433
 6349TIP3   OH240681   0.515   0.564   2.373  0.0580  0.4115 -0.4565
 6349TIP3    H140682   0.500   0.547   2.466 -1.6305  0.8913 -0.6107
 6349TIP3    H240683   0.576   0.638   2.371  1.7264 -0.8691  0.2217
 6350TIP3   OH240684   3.305   4.986   1.760  0.3340 -0.2819 -0.7322
 6350TIP3    H140685   3.362   4.913   1.783  2.2575  1.1037 -0.9092
 6350TIP3    H240686   3.247   4.995   1.835 -0.9332 -2.8211 -1.2716
 6351TIP3   OH240687   5.797   0.303   2.415 -0.0078  0.1134 -0.2620
 6351TIP3    H140688   5.849   0.228   2.388 -3.2047 -3.2320  1.9115
 6351TIP3    H240689   5.849   0.345   2.483  0.7596 -1.8956  0.4510
 6352TIP3   OH240690   4.831   3.808   7.657  0.6580  0.0817 -0.3909
 6352TIP3    H140691   4.834   3.884   7.599  0.8397  0.4382  0.0829
 6352TIP3    H240692   4.739   3.781   7.655  0.6110  0.2540 -0.6389
 6353TIP3   OH240693   0.658   3.785   9.207  0.3866 -0.5210  0.4527
 6353TIP3    H140694   0.614   3.867   9.187  0.6453 -0.5358 -0.2033
 6353TIP3    H240695   0.732   3.810   9.263  0.6485 -0.2672 -0.0021
 6354TIP3   OH240696   0.815   5.771   8.769 -0.3740 -0.1197  0.6384
 6354TIP3    H140697   0.839   5.735   8.684 -2.0096 -0.6429  0.3666
 6354TIP3    H240698   0.840   5.703   8.832  0.9236  0.3075  0.6158
 6355TIP3   OH240699   6.035   0.752   8.724  0.0214 -0.1675  0.6218
 6355TIP3    H140700   6.037   0.847   8.737 -1.7235 -0.1367  0.9855
 6355TIP3    H240701   6.120   0.721   8.754  0.5094  1.2474  0.7614
 6356TIP3   OH240702   1.240   5.358   7.143  0.1185  0.2771  0.2726
 6356TIP3    H140703   1.329   5.393   7.149  0.4957 -0.7356  0.8482
 6356TIP3    H240704   1.186   5.421   7.189  0.4574  1.1447 -0.4907
 6357TIP3   OH240705   5.005   0.171   2.365  0.0386  0.1563  0.4300
 6357TIP3    H140706   5.092   0.212   2.358  0.1021  0.1220  1.0021
 6357TIP3    H240707   4.975   0.165   2.274  0.5532  0.3444  0.2392
 6358TIP3   OH240708   0.305   4.987   7.979 -0.2438  0.2194  0.0954
 6358TIP3    H140709   0.226   4.999   7.927 -0.3434 -0.4263  0.0926
 6358TIP3    H240710   0.303   5.058   8.043 -0.9309  0.0764  0.2346
 6359TIP3   OH240711   2.267   2.310   8.525  0.9797 -0.0442 -0.0872
 6359TIP3    H140712   2.243   2.377   8.461  0.3483 -0.7629 -0.6396
 6359TIP3    H240713   2.352   2.337   8.558  0.2424  1.6432  0.5686
 6360TIP3   OH240714   4.241   6.265   1.453  0.8151 -0.4491 -0.2333
 6360TIP3    H140715   4.276   6.343   1.497  1.4397  0.3387 -2.0506
 6360TIP3    H240716   4.155   6.292   1.423  0.2401 -1.1052  0.7735
 6361TIP3   OH240717   1.003   2.067   1.042 -0.2509 -0.0072  0.4357
 6361TIP3    H140718   1.049   2.146   1.071  0.7229 -0.2667 -0.3389
 6361TIP3    H240719   0.980   2.085   0.951  1.2407 -1.1333 -0.1976
 6362TIP3   OH240720   2.858   2.105   1.344  0.6422  0.9292 -0.0472
 6362TIP3    H140721   2.810   2.132   1.422 -1.8945 -0.0356 -1.1791
 6362TIP3    H240722   2.854   2.181   1.286  0.1781  0.7382 -0.2685
 6363TIP3   OH240723   5.551   2.697   1.833 -0.1832  0.4510  0.0025
 6363TIP3    H140724   5.636   2.710   1.874  1.0819  1.0229 -2.6100
 6363TIP3    H240725   5.558   2.742   1.749 -2.9248  0.1013 -0.4998
 6364TIP3   OH240726   5.072   0.084   8.706  0.1829  0.0623  0.1708
 6364TIP3    H140727   4.983   0.047   8.709 -0.0807  0.7155  1.9276
 6364TIP3    H240728   5.130   0.009   8.717 -0.1621 -0.3378 -0.7182
 6365TIP3   OH240729   4.407   4.630   9.075 -0.2398  0.2730 -0.2070
 6365TIP3    H140730   4.454   4.563   9.026 -0.8240  0.1303 -0.5831
 6365TIP3    H240731   4.343   4.665   9.013 -1.0261  0.0574  0.4611
 6366TIP3   OH240732   4.683   1.445   2.107 -0.2190  0.5718 -0.0170
 6366TIP3    H140733   4.704   1.454   2.014  0.3991  1.2035  0.1726
 6366TIP3    H240734   4.768   1.433   2.149 -0.5662 -0.5206  0.3871
 6367TIP3   OH240735   4.105   2.201   3.415 -0.0046  0.2857  0.4324
 6367TIP3    H140736   4.018   2.172   3.443  1.0012 -1.7120  1.6386
 6367TIP3    H240737   4.112   2.171   3.324 -1.2081  2.0578 -0.3099
 6368TIP3   OH240738   6.262   2.561   1.681 -0.6369 -0.0022  0.0518
 6368TIP3    H140739   6.227   2.582   1.768 -1.1977  0.6543 -0.3181
 6368TIP3    H240740   6.186   2.571   1.622 -0.2941 -0.5592 -0.4917
 6369TIP3   OH240741   6.243   0.018   1.335 -0.1851 -0.2178  0.4755
 6369TIP3    H140742   6.193   0.100   1.338  0.4879  0.3704 -1.8532
 6369TIP3    H240743   6.334   0.046   1.341 -0.0092 -1.1346  2.9264
 6370TIP3   OH240744   5.204   3.424   1.922  0.6230 -0.3701  0.1953
 6370TIP3    H140745   5.163   3.399   2.005 -0.4388  1.4132  0.2486
 6370TIP3    H240746   5.241   3.510   1.938  1.4737 -0.5195 -0.8543
 6371TIP3   OH240747   1.206   1.874   0.265 -0.1853 -0.2139  0.0935
 6371TIP3    H140748   1.132   1.862   0.205 -0.8099  0.7260  0.6560
 6371TIP3    H240749   1.201   1.800   0.326  0.6326 -1.3563 -1.1472
 6372TIP3   OH240750   1.854   1.339   8.881 -0.0596  0.2310  0.5210
 6372TIP3    H140751   1.913   1.346   8.956  1.2973  0.7513 -0.5579
 6372TIP3    H240752   1.841   1.429   8.852  0.4632 -0.0413 -0.6204
 6373TIP3   OH240753   3.321   6.398   8.566 -0.1714  0.0455  0.0147
 6373TIP3    H140754   3.326   6.443   8.650  0.6426  2.2571 -1.1428
 6373TIP3    H240755   3.236   6.424   8.530  0.2560  0.5743 -0.6194
 6374TIP3   OH240756   1.194   1.783   1.332 -0.0295  0.4740  0.1335
 6374TIP3    H140757   1.225   1.873   1.344  1.6052 -0.2090  1.3155
 6374TIP3    H240758   1.211   1.740   1.415  1.5777 -1.5905 -1.1438
 6375TIP3   OH240759   1.917   6.558   0.041  0.8025 -0.4163  0.3200
 6375TIP3    H140760   1.912   6.615   0.118  0.2871 -0.8380  0.5970
 6375TIP3    H240761   1.948   6.616  -0.029 -0.0528  0.2970  0.5146
 6376TIP3   OH240762   5.647   3.878   0.561  0.2104  0.2547  0.0897
 6376TIP3    H140763   5.722   3.846   0.613  0.7095 -0.7230 -1.1588
 6376TIP3    H240764   5.602   3.798   0.534 -0.9406  0.8172  0.2860
 6377TIP3   OH240765   3.993   4.932   8.160 -0.0056  0.4165 -0.2084
 6377TIP3    H140766   3.996   4.965   8.070 -1.2924 -0.0049 -0.4219
 6377TIP3    H240767   3.960   4.842   8.152  0.1719  0.2606  0.6662
 6378TIP3   OH240768   0.942   3.459   1.241 -0.0410  0.0287 -0.4884
 6378TIP3    H140769   0.900   3.374   1.246  0.3079 -0.0984  0.6337
 6378TIP3    H240770   1.004   3.460   1.314 -1.0681  1.7882  0.4458
 6379TIP3   OH240771   0.358   4.049   2.757 -0.4218 -0.0092 -0.0426
 6379TIP3    H140772   0.266   4.063   2.779 -1.0377  0.3719 -2.4999
 6379TIP3    H240773   0.361   3.959   2.723  0.4985 -0.6480  1.6441
 6380TIP3   OH240774   2.278   5.676   7.213  0.0891  0.4931  0.0153
 6380TIP3    H140775   2.193   5.715   7.193  0.8509  2.2509 -0.0388
 6380TIP3    H240776   2.280   5.594   7.164 -1.8926 -0.0103  0.7079
 6381TIP3   OH240777   5.674   3.122   7.711  0.3611 -0.0255 -0.1542
 6381TIP3    H140778   5.662   3.091   7.622  0.9525  0.0307 -0.2543
 6381TIP3    H240779   5.679   3.042   7.764 -0.4727 -0.0506 -0.1041
 6382TIP3   OH240780   3.835   4.315   1.028  0.0488  0.1582  0.3428
 6382TIP3    H140781   3.742   4.326   1.008 -0.4002 -0.8603  1.7019
 6382TIP3    H240782   3.878   4.309   0.943 -1.0578  1.1289 -0.3018
 6383TIP3   OH240783   2.948   1.951   9.019  0.0306  0.0854 -0.0659
 6383TIP3    H140784   3.017   2.015   9.005 -0.7687  1.2039  0.8886
 6383TIP3    H240785   2.875   2.002   9.056 -0.6351 -1.3598  0.7120
 6384TIP3   OH240786   1.565   6.623   0.137  0.3288  0.4466  0.4956
 6384TIP3    H140787   1.605   6.709   0.126  0.4066  0.3842  0.2896
 6384TIP3    H240788   1.511   6.611   0.060 -0.4167  0.7044  0.9668
 6385TIP3   OH240789   3.335   0.677   1.950 -0.3611  0.1716 -0.0443
 6385TIP3    H140790   3.353   0.761   1.991 -0.8899  0.2633  0.0082
 6385TIP3    H240791   3.323   0.617   2.023 -1.4669  0.3692 -0.0579
 6386TIP3   OH240792   1.393   3.965   8.541 -0.2459  0.0708  0.0174
 6386TIP3    H140793   1.354   3.943   8.457 -0.6821  0.2601  0.1646
 6386TIP3    H240794   1.425   4.055   8.530  0.0690 -0.0498 -0.0726
 6387TIP3   OH240795   0.259   3.066   6.831 -0.4055  0.1650  0.3132
 6387TIP3    H140796   0.340   3.020   6.855 -0.6061 -0.6535 -0.5304
 6387TIP3    H240797   0.284   3.158   6.827  0.1363  0.0943  1.4836
 6388TIP3   OH240798   5.967   2.556   2.243  0.2199 -0.2178 -0.3090
 6388TIP3    H140799   5.887   2.569   2.192 -0.6882 -0.3095  1.0574
 6388TIP3    H240800   5.958   2.614   2.318  1.5474 -0.0691 -0.2279
 6389TIP3   OH240801   0.958   4.193   2.009 -0.6524  0.3666 -0.5737
 6389TIP3    H140802   0.954   4.193   2.105  2.2318 -1.5779 -0.3415
 6389TIP3    H240803   0.975   4.284   1.986  0.8898  0.5309  0.9691
 6390TIP3   OH240804   1.854   3.340   1.201 -0.3351  0.2238 -0.0820
 6390TIP3    H140805   1.814   3.320   1.285 -1.2893  1.1841 -0.2820
 6390TIP3    H240806   1.945   3.311   1.209 -0.3194  0.6440  1.3955
 6391TIP3   OH240807   0.931   1.665   3.019 -0.9600 -0.6796 -0.2394
 6391TIP3    H140808   0.996   1.649   2.950 -2.1467 -3.1794 -0.8824
 6391TIP3    H240809   0.930   1.760   3.029 -1.7529  0.0178 -4.7135
 6392TIP3   OH240810   2.588   1.742   0.209 -0.0920 -0.0571  0.5222
 6392TIP3    H140811   2.625   1.772   0.126 -0.4291  1.4837  0.9103
 6392TIP3    H240812   2.621   1.652   0.218  0.1794 -0.1601 -1.1240
 6393TIP3   OH240813   1.579   5.158   1.605  0.0749  0.5675 -0.2550
 6393TIP3    H140814   1.659   5.210   1.614  0.3554  0.1877 -0.5329
 6393TIP3    H240815   1.606   5.080   1.556  0.0524 -0.7129  1.6714
 6394TIP3   OH240816   5.343   1.815   1.887 -0.4063 -0.1078 -0.2769
 6394TIP3    H140817   5.402   1.743   1.909 -1.3956 -0.8012  0.1443
 6394TIP3    H240818   5.378   1.890   1.935 -0.1017 -0.6036  0.2899
 6395TIP3   OH240819   4.354   3.976   1.696  0.1197  0.1145  0.2112
 6395TIP3    H140820   4.378   3.940   1.782  1.1647  0.4109  0.0628
 6395TIP3    H240821   4.425   3.947   1.639 -0.5415 -0.0306 -0.5460
 6396TIP3   OH240822   3.063   3.742   2.095  0.1805  0.4975  0.1359
 6396TIP3    H140823   3.091   3.825   2.134 -0.3986  0.2054  1.2357
 6396TIP3    H240824   2.983   3.719   2.143 -0.0124 -0.3774 -0.5806
 6397TIP3   OH240825   3.812   3.349   7.217 -0.5129 -0.0129  0.2297
 6397TIP3    H140826   3.840   3.437   7.193  0.3368 -0.4679 -0.5028
 6397TIP3    H240827   3.724   3.361   7.252  0.8190  1.6084  3.4782
 6398TIP3   OH240828   0.942   1.481   0.691 -0.2044  0.0623 -0.4356
 6398TIP3    H140829   0.884   1.484   0.766  0.8531 -0.2465  0.4160
 6398TIP3    H240830   1.022   1.525   0.720  0.9311 -1.7083 -0.7084
 6399TIP3   OH240831   3.077   4.812   2.340 -0.2822 -0.1125 -0.1300
 6399TIP3    H140832   3.025   4.888   2.364 -1.9561 -1.1333 -0.3800
 6399TIP3    H240833   3.027   4.769   2.270  1.3295 -0.6805 -1.0040
 6400TIP3   OH240834   4.165   0.962   0.020  0.7904 -0.6503  0.4954
 6400TIP3    H140835   4.256   0.937   0.008  0.4850 -3.0915  2.4094
 6400TIP3    H240836   4.124   0.885   0.060 -1.3156  1.5511  2.9624
 6401TIP3   OH240837   2.319   1.367   0.258 -0.2673  0.0220 -0.0412
 6401TIP3    H140838   2.412   1.349   0.270 -0.3838 -0.5491  0.0028
 6401TIP3    H240839   2.281   1.359   0.346 -0.7733 -2.1730 -0.4062
 6402TIP3   OH240840   4.720   0.353   8.625 -0.0625  0.2743  0.2232
 6402TIP3    H140841   4.733   0.365   8.719  0.8073 -0.1970  0.1771
 6402TIP3    H240842   4.739   0.438   8.586  0.7074  0.1791  0.3777
 6403TIP3   OH240843   5.769   1.715   8.430  0.2174 -0.5136  0.5458
 6403TIP3    H140844   5.860   1.717   8.400  0.1362 -0.2762  0.3182
 6403TIP3    H240845   5.734   1.635   8.392  0.5119 -0.9495  1.1671
 6404TIP3   OH240846   0.084   1.132   9.128  0.3144 -0.1043  0.5864
 6404TIP3    H140847   0.047   1.218   9.145 -0.5582 -0.3285 -0.0776
 6404TIP3    H240848   0.087   1.090   9.214  1.0292  0.6820  0.9626
 6405TIP3   OH240849   4.929   0.507   2.416 -0.4535  0.4316 -0.2109
 6405TIP3    H140850   4.988   0.497   2.491 -1.5027  0.6175  0.6621
 6405TIP3    H240851   4.969   0.576   2.363 -0.0281  0.7384  0.4965
 6406TIP3   OH240852   4.563   5.222   0.043 -0.4899  0.1142  0.2375
 6406TIP3    H140853   4.574   5.145  -0.014 -0.5068  1.9302 -2.3849
 6406TIP3    H240854   4.471   5.221   0.067 -0.5537 -0.5402 -0.0089
 6407TIP3   OH240855   1.752   2.199   1.274 -0.2248  0.1846  0.1278
 6407TIP3    H140856   1.707   2.226   1.354  0.4244 -1.3484  1.0602
 6407TIP3    H240857   1.736   2.105   1.268  1.0207 -0.0026 -0.7076
 6408TIP3   OH240858   0.937   0.556   1.080  0.0505  0.2208 -0.1075
 6408TIP3    H140859   0.953   0.589   0.991 -1.2220  0.3504 -0.2954
 6408TIP3    H240860   0.868   0.612   1.115  0.7166  0.3314  1.0705
 6409TIP3   OH240861   5.056   1.852   8.309 -0.3338  0.0702 -0.2968
 6409TIP3    H140862   5.120   1.919   8.334 -0.9348  0.7395 -0.5144
 6409TIP3    H240863   5.038   1.804   8.390 -0.7470  0.9115  0.1239
 6410TIP3   OH240864   1.675   4.394   0.651 -0.2104  0.0663 -0.1201
 6410TIP3    H140865   1.705   4.403   0.560 -0.6624  1.4377 -0.1504
 6410TIP3    H240866   1.635   4.307   0.654  0.9607 -0.5326 -0.8800
 6411TIP3   OH240867   2.467   0.955   2.257  0.2031  0.2488  0.1613
 6411TIP3    H140868   2.541   0.995   2.302  2.1001 -1.8049 -0.9345
 6411TIP3    H240869   2.445   1.017   2.187  0.9374  0.8646  0.4648
 6412TIP3   OH240870   2.584   0.870   1.558 -0.7747 -0.0594  0.5213
 6412TIP3    H140871   2.654   0.805   1.563 -0.4261  0.1368 -1.1820
 6412TIP3    H240872   2.521   0.842   1.624  0.7020 -0.4725  1.8166
 6413TIP3   OH240873   3.393   5.392   2.597 -0.4960  0.0737 -0.1255
 6413TIP3    H140874   3.437   5.417   2.678 -3.4258  0.8720  1.3719
 6413TIP3    H240875   3.369   5.475   2.556  0.5178 -0.3268 -1.6125
 6414TIP3   OH240876   4.659   5.468   0.928 -0.4037 -0.4675 -0.1279
 6414TIP3    H140877   4.664   5.494   1.020 -1.7149  1.3932 -0.5236
 6414TIP3    H240878   4.749   5.445   0.904 -0.0022 -0.7587  1.5293
 6415TIP3   OH240879   0.720   6.104   7.624  0.4223 -0.5448  0.3030
 6415TIP3    H140880   0.775   6.027   7.612  0.1787 -0.4142 -2.1863
 6415TIP3    H240881   0.697   6.103   7.717  1.9198 -2.4240  0.7151
 6416TIP3   OH240882   3.311   2.625   2.222  0.0388 -0.0849 -0.2650
 6416TIP3    H140883   3.315   2.530   2.209  2.7039 -0.5976  2.9206
 6416TIP3    H240884   3.237   2.637   2.281  1.4512 -0.6859  1.7354
 6417TIP3   OH240885   2.644   3.435   1.878 -0.0078 -0.2538 -0.0870
 6417TIP3    H140886   2.615   3.434   1.969  0.3961 -1.0704  0.0399
 6417TIP3    H240887   2.724   3.383   1.877 -0.1675 -0.5070 -0.9701
 6418TIP3   OH240888   5.225   3.064   6.628  0.3845  0.2439 -0.2970
 6418TIP3    H140889   5.235   2.971   6.608 -0.2645  0.1378 -0.1583
 6418TIP3    H240890   5.225   3.107   6.542  1.2962  0.1877 -0.3326
 6419TIP3   OH240891   1.493   4.194   0.614 -0.0935  0.4042  0.2288
 6419TIP3    H140892   1.445   4.128   0.665 -0.2841  0.6699  0.3977
 6419TIP3    H240893   1.521   4.147   0.536  0.7409 -0.1770  0.8515
 6420TIP3   OH240894   1.565   3.778   2.055 -0.5327 -0.8234 -0.1388
 6420TIP3    H140895   1.537   3.834   2.128 -2.0811 -1.5383 -0.1392
 6420TIP3    H240896   1.573   3.837   1.981 -0.4587 -0.3346  0.2515
 6421TIP3   OH240897   3.135   2.986   8.866 -0.6531  0.0396  0.1199
 6421TIP3    H140898   3.212   2.994   8.810 -0.9319 -1.5435 -0.5516
 6421TIP3    H240899   3.164   2.929   8.938 -1.0622 -0.2358  0.0732
 6422TIP3   OH240900   1.594   0.850   1.316 -0.2672  0.3756 -0.1004
 6422TIP3    H140901   1.609   0.770   1.366  0.7458  0.9259  0.5085
 6422TIP3    H240902   1.504   0.876   1.339 -0.4650 -0.3734 -0.0121
 6423TIP3   OH240903   2.982   4.174   1.840 -0.0504  0.1314 -0.4948
 6423TIP3    H140904   2.970   4.268   1.854  0.0800  0.3672 -1.8560
 6423TIP3    H240905   2.911   4.150   1.781 -0.2408 -0.6935  0.0560
 6424TIP3   OH240906   0.561   3.408   1.156 -0.0435  0.2394  0.3868
 6424TIP3    H140907   0.495   3.410   1.087  0.8643  0.6944 -0.4840
 6424TIP3    H240908   0.637   3.366   1.117  1.0547  1.9480  0.5472
 6425TIP3   OH240909   2.318   6.534   8.065  0.2283 -0.2844  0.2197
 6425TIP3    H140910   2.410   6.544   8.041  0.3910  3.9570  1.6982
 6425TIP3    H240911   2.315   6.554   8.158 -2.2565  0.4639  0.0537
 6426TIP3   OH240912   5.209   6.305   2.348 -0.6082  0.3388  0.2091
 6426TIP3    H140913   5.165   6.244   2.288 -0.7397  0.8711 -0.2431
 6426TIP3    H240914   5.143   6.323   2.415 -1.0444  1.0235 -0.3897
 6427TIP3   OH240915   2.657   4.723   6.819  0.4453 -1.1172  0.5868
 6427TIP3    H140916   2.636   4.631   6.832 -1.4102 -0.8071  0.1668
 6427TIP3    H240917   2.604   4.749   6.743 -0.1847  0.6247  1.5455
 6428TIP3   OH240918   1.466   3.360   1.377 -0.0341 -0.0796  0.0173
 6428TIP3    H140919   1.524   3.315   1.438 -1.3374  0.3678  1.6562
 6428TIP3    H240920   1.524   3.401   1.313  1.4114 -0.0846  1.2987
 6429TIP3   OH240921   0.338   0.404   1.385 -0.1477 -0.0595  0.3492
 6429TIP3    H140922   0.257   0.368   1.420 -0.5502  1.1881  0.7431
 6429TIP3    H240923   0.358   0.479   1.441 -0.5445  1.7156 -1.7478
 6430TIP3   OH240924   3.970   5.713   0.289  0.2989 -0.1740 -0.3216
 6430TIP3    H140925   3.918   5.789   0.264 -0.8793 -1.1778 -1.0155
 6430TIP3    H240926   3.911   5.661   0.344  0.9273 -0.8122 -0.2392
 6431TIP3   OH240927   4.574   1.673   0.617  0.3451  0.0235 -0.0477
 6431TIP3    H140928   4.621   1.742   0.569  0.4638  1.5928  2.1692
 6431TIP3    H240929   4.636   1.601   0.622  0.4159 -0.1071 -1.9621
 6432TIP3   OH240930   4.504   4.384   1.153 -0.0728 -0.1029  0.0203
 6432TIP3    H140931   4.545   4.464   1.120 -1.2023 -1.2160 -4.7453
 6432TIP3    H240932   4.476   4.407   1.242  0.2889  4.5766 -0.8129
 6433TIP3   OH240933   3.751   0.849   0.930  0.1028  0.1208  0.6134
 6433TIP3    H140934   3.662   0.874   0.904  0.4223 -0.2668 -0.9379
 6433TIP3    H240935   3.743   0.824   1.022 -1.2975  0.5209  0.6245
 6434TIP3   OH240936   2.282   3.773   7.736  0.2639  0.3304  0.2822
 6434TIP3    H140937   2.211   3.753   7.798  1.1735  0.2502  1.3385
 6434TIP3    H240938   2.266   3.715   7.662 -0.8306  0.3853  0.4497
 6435TIP3   OH240939   4.817   3.666   9.039  0.1251  0.1989 -0.5141
 6435TIP3    H140940   4.824   3.629   8.951 -1.2960  1.0471 -1.0176
 6435TIP3    H240941   4.740   3.624   9.077  1.2044 -0.7869  0.6689
 6436TIP3   OH240942   3.576   2.563   0.165  0.2819  0.4939 -0.3821
 6436TIP3    H140943   3.602   2.623   0.235  1.4686  1.3629 -1.5110
 6436TIP3    H240944   3.577   2.477   0.206  2.6043  0.7694  0.3311
 6437TIP3   OH240945   0.324   3.436   1.378 -0.2144 -0.3765  0.1958
 6437TIP3    H140946   0.235   3.434   1.412 -0.6708 -1.3739 -0.9567
 6437TIP3    H240947   0.336   3.525   1.345 -0.3518  0.1007  1.4014
 6438TIP3   OH240948   4.958   2.811   9.028  0.0146 -0.2038  0.3741
 6438TIP3    H140949   4.947   2.716   9.029 -2.3202  0.0063  0.5205
 6438TIP3    H240950   5.008   2.830   8.949 -0.8649 -1.4497 -0.4995
 6439TIP3   OH240951   1.535   3.515   2.071  0.5618 -0.0968  0.1684
 6439TIP3    H140952   1.453   3.485   2.033 -0.8029  1.3025  1.8565
 6439TIP3    H240953   1.537   3.609   2.054  2.3301 -0.2444 -0.7021
 6440TIP3   OH240954   6.203   3.752   7.760  0.4211 -0.0085 -0.3786
 6440TIP3    H140955   6.203   3.672   7.814  0.7086  0.6101  0.5579
 6440TIP3    H240956   6.199   3.720   7.670  2.8462 -1.1607 -0.1380
 6441TIP3   OH240957   2.316   4.173   0.271  0.1296  0.0999 -0.0389
 6441TIP3    H140958   2.353   4.241   0.327  0.2546 -0.3783  0.4792
 6441TIP3    H240959   2.392   4.134   0.228  0.3399 -1.2005  1.3865
 6442TIP3   OH240960   6.129   5.657   1.690  0.1945  0.3988  0.3118
 6442TIP3    H140961   6.099   5.585   1.746  1.8849  1.0476  2.1865
 6442TIP3    H240962   6.175   5.716   1.750  1.2152  1.6824 -1.6284
 6443TIP3   OH240963   3.925   5.840   0.742 -0.4061  0.2941  0.0224
 6443TIP3    H140964   3.970   5.889   0.673 -1.5894  1.6759  0.1701
 6443TIP3    H240965   3.988   5.835   0.813 -0.2273  1.6328 -0.0118
 6444TIP3   OH240966   1.486   3.617   8.104 -0.2485 -0.3782  0.7323
 6444TIP3    H140967   1.460   3.617   8.012  0.5783 -2.1200  0.4462
 6444TIP3    H240968   1.562   3.674   8.108 -0.8204  0.4115  0.5226
 6445TIP3   OH240969   4.695   3.821   1.794 -0.8118 -0.5160  0.7548
 6445TIP3    H140970   4.629   3.771   1.746 -2.0137 -0.8307  2.5947
 6445TIP3    H240971   4.755   3.754   1.828  1.3064 -0.1478 -1.9525
 6446TIP3   OH240972   3.823   0.602   1.822 -0.0400 -0.3693 -0.4174
 6446TIP3    H140973   3.826   0.683   1.771 -0.6614  0.2390  0.4727
 6446TIP3    H240974   3.791   0.629   1.908 -0.1976 -1.5542 -0.0820
 6447TIP3   OH240975   4.121   6.205   2.705 -0.3592 -0.2747  0.4967
 6447TIP3    H140976   4.029   6.212   2.732  0.1154  0.9504  1.9490
 6447TIP3    H240977   4.166   6.175   2.784  0.7051  0.7033  0.2862
 6448TIP3   OH240978   4.209   3.757   2.745  0.2970 -0.2875  0.1888
 6448TIP3    H140979   4.261   3.779   2.823 -1.1122  3.0217  0.3480
 6448TIP3    H240980   4.147   3.691   2.776  0.6628 -0.0488  1.5130
 6449TIP3   OH240981   2.009   6.145   8.358 -0.6713  0.0351  0.5285
 6449TIP3    H140982   1.953   6.086   8.410 -1.2572 -1.5473 -1.7565
 6449TIP3    H240983   2.083   6.090   8.333 -0.1593  0.9189  0.0825
 6450TIP3   OH240984   2.107   1.729   1.377  0.4894 -0.1624  0.3240
 6450TIP3    H140985   2.100   1.636   1.358 -0.5270 -0.4450  1.8613
 6450TIP3    H240986   2.155   1.734   1.460  1.6259  0.7646 -0.3648
 6451TIP3   OH240987   3.686   1.134   8.371  0.1309  0.1217  0.0258
 6451TIP3    H140988   3.770   1.109   8.334 -0.1171 -0.6469 -0.0247
 6451TIP3    H240989   3.621   1.103   8.308 -0.1584  1.8613 -0.6018
 6452TIP3   OH240990   4.909   5.416   1.504  0.3853 -0.0064 -0.1217
 6452TIP3    H140991   4.957   5.484   1.552  1.0863  0.5837 -1.5728
 6452TIP3    H240992   4.832   5.398   1.557  0.8762  0.9705  0.9595
 6453TIP3   OH240993   2.472   4.189   1.825  0.2159  0.0000  0.5460
 6453TIP3    H140994   2.477   4.137   1.744  1.0506 -0.1158  0.6612
 6453TIP3    H240995   2.433   4.130   1.889 -1.8169  0.5566 -0.1193
 6454TIP3   OH240996   0.131   4.931   2.214  0.2548  0.3546  0.4918
 6454TIP3    H140997   0.210   4.928   2.267  0.8380 -0.2497 -0.3864
 6454TIP3    H240998   0.079   4.856   2.243  0.7068 -0.1501  0.0252
 6455TIP3   OH240999   2.996   2.816   2.715 -0.1822 -0.0673  0.0585
 6455TIP3    H141000   2.904   2.842   2.708 -0.8676 -2.3789 -0.3152
 6455TIP3    H241001   3.003   2.776   2.802  0.8777  1.4153  0.7032
 6456TIP3   OH241002   6.112   6.020   9.094  0.0893  0.1166  0.7149
 6456TIP3    H141003   6.118   5.928   9.071 -1.1199  0.4640 -1.2178
 6456TIP3    H241004   6.203   6.048   9.105  0.6610 -0.7321 -1.3000
 6457TIP3   OH241005   4.991   2.090   2.339 -0.3844 -0.3554  0.4829
 6457TIP3    H141006   5.034   2.105   2.255 -1.1001 -0.9369 -0.0002
 6457TIP3    H241007   5.002   2.172   2.387 -0.8560  0.3422 -0.5731
 6458TIP3   OH241008   1.606   1.780   8.757  0.2153 -0.5107 -0.6169
 6458TIP3    H141009   1.612   1.824   8.842  0.7076 -1.5672 -0.0835
 6458TIP3    H241010   1.521   1.805   8.723  0.7412  1.4206 -0.6701
 6459TIP3   OH241011   6.162   1.902   2.449 -0.6024 -0.5763 -0.5675
 6459TIP3    H141012   6.157   1.985   2.496  0.0910  0.1164 -1.6742
 6459TIP3    H241013   6.129   1.922   2.361  0.1911 -1.3169 -1.0509
 6460TIP3   OH241014   1.074   2.674   2.536 -0.5410 -0.6125  0.3478
 6460TIP3    H141015   1.157   2.691   2.579  0.2219 -0.2241 -1.1762
 6460TIP3    H241016   1.090   2.695   2.444 -2.3799 -0.3384  0.0381
 6461TIP3   OH241017   6.290   6.073   0.423  0.2825  0.1205 -0.2833
 6461TIP3    H141018   6.223   6.103   0.484  1.2937 -1.1375  1.5411
 6461TIP3    H241019   6.245   6.009   0.367 -0.4382  0.5928 -0.2483
 6462TIP3   OH241020   5.607   0.096   7.185  0.2489  0.0360  0.4546
 6462TIP3    H141021   5.593   0.006   7.214 -2.4007 -0.2221 -1.2358
 6462TIP3    H241022   5.519   0.130   7.169  1.1422  0.7241 -5.0705
 6463TIP3   OH241023   2.123   1.636   0.921  0.5917 -0.0231 -0.1422
 6463TIP3    H141024   2.159   1.661   1.007 -1.1096  0.5487  0.4385
 6463TIP3    H241025   2.060   1.568   0.941  2.2276 -1.9881 -1.2986
 6464TIP3   OH241026   2.012   6.345   8.657  0.1331 -0.1938 -0.4189
 6464TIP3    H141027   1.937   6.363   8.713  0.2608  0.4224 -0.4319
 6464TIP3    H241028   2.080   6.405   8.689  0.4387 -0.3522 -0.7636
 6465TIP3   OH241029   6.154   1.944   0.948  0.0766  0.0820  0.2809
 6465TIP3    H141030   6.083   1.974   1.005  1.6209  0.3426  2.1568
 6465TIP3    H241031   6.172   2.020   0.892 -0.8301  0.1596  0.0823
 6466TIP3   OH241032   0.724   5.319   2.311 -0.1602 -0.3004 -0.1019
 6466TIP3    H141033   0.693   5.231   2.334  0.1292 -0.7100 -1.2369
 6466TIP3    H241034   0.803   5.331   2.363  0.5114 -1.2308 -0.8764
 6467TIP3   OH241035   3.000   0.588   0.859 -0.0838 -0.1800  0.0091
 6467TIP3    H141036   3.070   0.556   0.916  1.6348 -2.2897 -3.0010
 6467TIP3    H241037   3.024   0.679   0.842  0.8760 -0.3162  0.4989
 6468TIP3   OH241038   1.029   1.269   7.782 -0.0804 -0.5886 -0.1073
 6468TIP3    H141039   1.103   1.314   7.742  0.1220 -1.3639 -0.6142
 6468TIP3    H241040   0.963   1.264   7.713 -1.1789  1.3083  0.7172
 6469TIP3   OH241041   5.107   4.130   8.620 -0.4773  0.1166  0.1270
 6469TIP3    H141042   5.107   4.061   8.686 -0.5869  0.9744  1.0587
 6469TIP3    H241043   5.140   4.088   8.541  0.3830 -0.7620  0.9208
 6470TIP3   OH241044   5.273   4.954   0.796  0.5933  0.1630  0.2623
 6470TIP3    H141045   5.203   4.891   0.781 -0.2420  0.6210  1.9186
 6470TIP3    H241046   5.234   5.039   0.775  1.3667  0.2444 -0.9175
 6471TIP3   OH241047   4.400   0.244   8.736 -0.3899  0.5791 -0.7129
 6471TIP3    H141048   4.440   0.329   8.754  0.3536 -0.0764  0.9233
 6471TIP3    H241049   4.413   0.231   8.642  1.4154  1.3245 -0.6125
 6472TIP3   OH241050   0.393   3.761   8.569 -0.2343 -0.4143  0.0627
 6472TIP3    H141051   0.474   3.788   8.526 -0.6427  0.2006 -0.3347
 6472TIP3    H241052   0.357   3.692   8.513 -1.1738  0.9376 -1.0404
 6473TIP3   OH241053   0.308   2.173   1.554 -0.3156  0.5484  0.7652
 6473TIP3    H141054   0.383   2.227   1.527  0.9027 -1.4056  0.0839
 6473TIP3    H241055   0.328   2.150   1.645  0.6872 -1.1440  0.1543
 6474TIP3   OH241056   1.451   5.157   9.139 -0.1729  0.5294  0.2875
 6474TIP3    H141057   1.397   5.223   9.182  1.1382  0.7652  1.6379
 6474TIP3    H241058   1.421   5.074   9.176  1.1333  0.7511  1.9625
 6475TIP3   OH241059   2.134   6.383   1.442 -0.0791  0.1297  0.1802
 6475TIP3    H141060   2.147   6.288   1.442 -1.9958 -0.4699  5.6950
 6475TIP3    H241061   2.043   6.394   1.413  0.1334  0.3001 -0.4289
 6476TIP3   OH241062   2.330   6.173   0.979  0.1096 -0.2146 -0.0811
 6476TIP3    H141063   2.422   6.197   0.970 -0.1130  0.5963 -0.2927
 6476TIP3    H241064   2.328   6.117   1.056  0.9840 -1.4342 -0.9108
 6477TIP3   OH241065   1.721   4.824   2.000 -0.6605  0.5509  0.3903
 6477TIP3    H141066   1.776   4.844   2.076 -0.9681  1.0178  0.4877
 6477TIP3    H241067   1.705   4.729   2.007 -2.0931  0.8666  1.8595
 6478TIP3   OH241068   6.254   0.425   1.834  0.4421  0.0250  0.1043
 6478TIP3    H141069   6.171   0.379   1.820  1.0457 -0.4518 -2.4071
 6478TIP3    H241070   6.238   0.514   1.804  0.7838 -0.0214 -0.2265
 6479TIP3   OH241071   4.023   0.139   0.120  0.1671 -0.1781  0.2601
 6479TIP3    H141072   4.049   0.171   0.207  0.6209 -1.1931  0.5153
 6479TIP3    H241073   3.952   0.078   0.137  0.0405 -0.1365 -0.1143
 6480TIP3   OH241074   1.184   4.086   2.813  0.7250 -0.5913 -0.0169
 6480TIP3    H141075   1.200   4.160   2.754 -2.6321  1.4768  1.4315
 6480TIP3    H241076   1.269   4.071   2.855  2.1819  0.5530 -2.3187
 6481TIP3   OH241077   4.562   2.090   1.955 -0.9391  0.5231  0.4300
 6481TIP3    H141078   4.551   2.013   2.011  0.1045  0.8916  1.1872
 6481TIP3    H241079   4.473   2.115   1.931 -1.2958 -0.9739  0.0736
 6482TIP3   OH241080   0.553   5.771   0.295 -0.0098 -0.4210  0.2325
 6482TIP3    H141081   0.583   5.803   0.209 -0.1932 -1.2563 -0.1568
 6482TIP3    H241082   0.631   5.771   0.349 -0.1860  1.6572  0.5798
 6483TIP3   OH241083   5.572   4.082   8.290  0.9079  0.4327  0.0843
 6483TIP3    H141084   5.607   4.066   8.203  1.1250  0.5170  0.1542
 6483TIP3    H241085   5.541   4.172   8.287 -2.4871 -0.6351 -1.0374
 6484TIP3   OH241086   6.070   6.484   2.451 -0.1648 -0.3207  0.1030
 6484TIP3    H141087   6.160   6.513   2.438 -0.5703  0.7369 -0.4468
 6484TIP3    H241088   6.057   6.489   2.546 -0.1929  1.2548  0.0356
 6485TIP3   OH241089   2.295   2.443   2.570 -0.3317 -0.3330  0.3591
 6485TIP3    H141090   2.314   2.482   2.484 -0.7874 -0.9268 -0.0192
 6485TIP3    H241091   2.295   2.518   2.630  0.8316 -0.0151 -0.0011
 6486TIP3   OH241092   6.373   1.667   8.679  0.2988  0.0229  0.1843
 6486TIP3    H141093   6.445   1.729   8.668  0.2445  0.1106  0.3127
 6486TIP3    H241094   6.365   1.658   8.774  1.6820 -1.7874  0.1745
 6487TIP3   OH241095   4.034   6.322   8.750  0.1034 -0.2316 -0.0262
 6487TIP3    H141096   4.123   6.308   8.718  1.4116 -0.4189  3.3339
 6487TIP3    H241097   4.036   6.408   8.792 -1.7776  0.4442 -1.1717
 6488TIP3   OH241098   0.701   3.656   1.838 -0.2985 -0.0974  0.5638
 6488TIP3    H141099   0.718   3.728   1.778 -0.6811  0.9160  1.6176
 6488TIP3    H241100   0.649   3.696   1.909  1.1820 -0.9299  2.1904
 6489TIP3   OH241101   0.030   1.450   0.773 -0.7883 -0.0635  0.1125
 6489TIP3    H141102   0.094   1.520   0.788  0.3678 -1.1619  0.4101
 6489TIP3    H241103  -0.027   1.453   0.851  0.1321 -0.3652  0.8093
 6490TIP3   OH241104   5.412   4.727   1.838  0.2060 -0.5011  0.1821
 6490TIP3    H141105   5.501   4.760   1.828  0.0390  0.6057  2.0515
 6490TIP3    H241106   5.423   4.639   1.875  0.5282 -0.7998 -0.6025
 6491TIP3   OH241107   1.533   3.071   2.117 -0.1976 -0.1201 -0.0190
 6491TIP3    H141108   1.592   3.077   2.192  0.5880  0.6326 -0.6788
 6491TIP3    H241109   1.559   3.144   2.060 -1.5579  0.0406 -0.4767
 6492TIP3   OH241110   0.331   2.484   0.527 -0.4586 -0.2729  0.3187
 6492TIP3    H141111   0.402   2.548   0.520 -1.5029  0.7857 -1.6827
 6492TIP3    H241112   0.256   2.527   0.485 -0.7208 -3.4468 -2.9644
 6493TIP3   OH241113   2.792   3.385   2.421 -0.4944  0.6147  0.1546
 6493TIP3    H141114   2.738   3.382   2.500 -0.4784  2.2177  0.2722
 6493TIP3    H241115   2.809   3.294   2.399 -2.3270  0.0946  0.7460
 6494TIP3   OH241116   6.285   3.208   7.902  0.2715  0.2575  0.4759
 6494TIP3    H141117   6.272   3.296   7.866 -0.5786  0.2433  0.7442
 6494TIP3    H241118   6.249   3.212   7.990  1.4574  0.0062  0.9850
 6495TIP3   OH241119   5.986   1.285   3.275  0.8755  0.6720  0.1605
 6495TIP3    H141120   5.963   1.217   3.338  0.3269  0.1442 -0.5843
 6495TIP3    H241121   6.081   1.295   3.284  1.0104 -0.4230  0.0717
 6496TIP3   OH241122   5.097   4.703   0.751  0.3504 -0.1469 -0.2198
 6496TIP3    H141123   5.121   4.628   0.806  0.3264  0.8166  1.1436
 6496TIP3    H241124   5.016   4.676   0.708 -0.7151 -0.2100  1.7303
 6497TIP3   OH241125   2.832   6.367   7.511  0.7417  0.2331 -0.2695
 6497TIP3    H141126   2.908   6.413   7.546 -0.8312  2.0983  0.8834
 6497TIP3    H241127   2.855   6.274   7.518  2.2901  0.6951  1.5014
 6498TIP3   OH241128   6.089   0.473   2.458 -0.5079 -0.3377  0.0138
 6498TIP3    H141129   6.042   0.416   2.396 -1.0114 -0.4110  0.4584
 6498TIP3    H241130   6.082   0.428   2.542  1.2889 -0.8947 -0.0916
 6499TIP3   OH241131   4.671   4.818   0.297  0.0178  0.1768  0.7438
 6499TIP3    H141132   4.613   4.839   0.223  1.9433 -1.1244 -1.2786
 6499TIP3    H241133   4.612   4.789   0.366 -2.0199  2.9938  0.3882
 6500TIP3   OH241134   0.542   4.029   8.729 -0.1243 -0.0107  0.2485
 6500TIP3    H141135   0.505   3.967   8.792 -0.4657  0.1687  0.2245
 6500TIP3    H241136   0.595   3.974   8.671 -0.0238 -0.2125  0.5278
 6501TIP3   OH241137   4.987   5.602   0.001 -0.1108  1.1418 -0.0225
 6501TIP3    H141138   5.075   5.638   0.009 -0.0371  0.7259  1.3028
 6501TIP3    H241139   4.989   5.522   0.053 -0.7555  0.1178 -1.5086
 6502TIP3   OH241140   3.129   5.813   2.834 -0.8714 -0.2924  0.1878
 6502TIP3    H141141   3.063   5.880   2.848 -1.1327 -0.3828 -0.5633
 6502TIP3    H241142   3.151   5.821   2.741  0.4020 -0.0528  0.4845
 6503TIP3   OH241143   3.832   0.205   0.464 -0.2215 -0.1397  0.1561
 6503TIP3    H141144   3.861   0.124   0.505 -0.1943 -0.3577 -0.2900
 6503TIP3    H241145   3.754   0.230   0.514 -1.5669 -1.6341 -1.0680
 6504TIP3   OH241146   4.837   6.613   2.361 -0.2710  0.3019 -0.2980
 6504TIP3    H141147   4.923   6.617   2.318  0.4690 -0.6579  1.0283
 6504TIP3    H241148   4.786   6.555   2.305 -0.0124  0.7395 -1.0074
 6505TIP3   OH241149   4.148   6.274   0.680 -0.0151 -0.5650  0.3369
 6505TIP3    H141150   4.076   6.311   0.630 -0.1600 -0.5587  0.5511
 6505TIP3    H241151   4.145   6.320   0.764  0.6885 -0.0268  0.0889
 6506TIP3   OH241152   5.547   6.201   1.833 -0.0746  0.2590  0.1221
 6506TIP3    H141153   5.627   6.252   1.820 -0.5012  1.0649  0.5759
 6506TIP3    H241154   5.522   6.221   1.924  0.3206 -1.5765  0.6707
 6507TIP3   OH241155   0.705   3.076   8.563 -0.3735  0.3857 -0.0471
 6507TIP3    H141156   0.728   2.987   8.589  1.2615  0.9101  0.4163
 6507TIP3    H241157   0.615   3.069   8.531  0.0072 -1.5821 -0.8112
 6508TIP3   OH241158   0.999   4.671   8.210  0.0351 -0.1419  0.0528
 6508TIP3    H141159   0.907   4.693   8.223  0.3820  2.4731 -1.2387
 6508TIP3    H241160   1.047   4.747   8.243  1.5657 -0.1282 -2.0001
 6509TIP3   OH241161   1.063   4.726   6.522 -0.1586  0.5263  0.8334
 6509TIP3    H141162   1.087   4.651   6.467  0.9035  2.3205 -1.3162
 6509TIP3    H241163   0.973   4.708   6.549 -0.3432 -0.9491 -0.6188
 6510TIP3   OH241164   6.240   1.708   1.484  0.5461  0.3368 -0.3157
 6510TIP3    H141165   6.292   1.630   1.468  0.4907  0.0187  0.9230
 6510TIP3    H241166   6.205   1.733   1.398  0.1348 -1.3118 -0.6503
 6511TIP3   OH241167   5.001   2.843   0.426  0.4430  0.5924 -0.6138
 6511TIP3    H141168   4.916   2.843   0.470  1.1778  0.5580  0.8980
 6511TIP3    H241169   5.046   2.766   0.462  0.8912  0.2626 -1.8488
 6512TIP3   OH241170   5.364   3.355   9.208  0.8594 -0.2694 -0.1615
 6512TIP3    H141171   5.418   3.333   9.283  1.6287 -2.3962 -1.2452
 6512TIP3    H241172   5.386   3.289   9.142 -0.1407  1.2017 -2.0906
 6513TIP3   OH241173   5.980   1.187   0.036  0.2695 -0.0619 -1.0857
 6513TIP3    H141174   5.950   1.243   0.107  0.3917 -0.1914 -0.9335
 6513TIP3    H241175   5.906   1.186  -0.025 -0.3311 -0.9813 -0.3615
 6514TIP3   OH241176   2.875   1.169   1.562  0.0680 -0.5347 -0.1866
 6514TIP3    H141177   2.873   1.108   1.637  0.1677 -0.9711 -0.5318
 6514TIP3    H241178   2.788   1.163   1.524  0.4793 -1.5264 -1.0439
 6515TIP3   OH241179   6.581   3.360   8.136 -0.1261  0.0399 -0.3037
 6515TIP3    H141180   6.548   3.419   8.068 -0.6623 -0.0536 -0.1279
 6515TIP3    H241181   6.644   3.304   8.090  0.7863  1.0846 -0.3600
 6516TIP3   OH241182   3.701   3.779   0.567 -0.0865  0.2426  0.1257
 6516TIP3    H141183   3.753   3.851   0.531  0.0157  0.7630  1.2624
 6516TIP3    H241184   3.735   3.767   0.655 -2.8836  1.7019  1.5721
 6517TIP3   OH241185   4.130   5.149   1.681 -0.1964  0.3466 -0.0835
 6517TIP3    H141186   4.086   5.093   1.617  1.1608  0.1974 -0.9145
 6517TIP3    H241187   4.211   5.176   1.638  0.7228  0.3098  1.5507
 6518TIP3   OH241188   6.153   6.515   9.055 -0.0095 -0.1260  0.5357
 6518TIP3    H141189   6.243   6.544   9.043  0.0506 -1.0623 -1.6947
 6518TIP3    H241190   6.104   6.561   8.987 -1.7213  2.1625  3.1209
 6519TIP3   OH241191   2.297   5.806   8.320 -0.3841  0.1451  0.2949
 6519TIP3    H141192   2.359   5.835   8.388 -2.6011  0.9639  2.1131
 6519TIP3    H241193   2.303   5.710   8.321  2.0132  0.2246 -0.8030
 6520TIP3   OH241194   0.656   5.385   8.023 -0.1873 -0.3918 -0.1908
 6520TIP3    H141195   0.591   5.455   8.013 -1.3246 -1.3059  0.5423
 6520TIP3    H241196   0.611   5.306   7.994  0.4576 -1.1092  0.7071
 6521TIP3   OH241197   3.533   4.064   8.067  0.6278  0.0661  0.4744
 6521TIP3    H141198   3.599   4.132   8.077 -0.2886  0.7288  3.0672
 6521TIP3    H241199   3.461   4.106   8.020  1.9179 -0.6636 -2.3698
 6522TIP3   OH241200   0.192   2.184   0.172 -0.1853  0.4258 -0.6813
 6522TIP3    H141201   0.139   2.261   0.194 -1.4336 -0.4840 -0.3699
 6522TIP3    H241202   0.276   2.200   0.216 -1.4147  0.2765  1.9435
 6523TIP3   OH241203   6.531   3.588   1.141 -0.4089 -0.4850  0.0704
 6523TIP3    H141204   6.601   3.524   1.148  0.1236  0.1960  1.1061
 6523TIP3    H241205   6.575   3.670   1.120 -1.1601 -0.5809 -2.2333
 6524TIP3   OH241206   3.955   0.024   8.193 -0.1647 -0.3220 -0.1096
 6524TIP3    H141207   3.948  -0.005   8.102  2.0047 -3.6662  0.5931
 6524TIP3    H241208   3.881  -0.018   8.238 -0.1833 -0.1994 -0.0250
 6525TIP3   OH241209   3.549   2.477   1.904 -0.5223 -0.8112 -0.3471
 6525TIP3    H141210   3.506   2.409   1.956 -0.1757 -0.9053 -0.1794
 6525TIP3    H241211   3.490   2.552   1.910  0.8276  0.1545  2.5592
 6526TIP3   OH241212   4.365   2.628   2.152 -0.4134 -0.1523 -0.2762
 6526TIP3    H141213   4.337   2.624   2.243 -0.3238  0.0755 -0.2392
 6526TIP3    H241214   4.447   2.578   2.150 -0.5174 -0.3237 -0.2712
 6527TIP3   OH241215   2.062   4.334   8.413 -0.0834  0.5011 -0.0033
 6527TIP3    H141216   2.149   4.294   8.405  0.2627  1.4995 -1.6182
 6527TIP3    H241217   2.079   4.428   8.412 -1.0367  0.7503  1.9068
 6528TIP3   OH241218   1.401   4.949   7.591 -0.0226 -0.8844 -0.1923
 6528TIP3    H141219   1.348   4.998   7.654  0.3970  1.1890 -1.3489
 6528TIP3    H241220   1.485   4.935   7.636  0.1220  0.1825 -0.0967
 6529TIP3   OH241221   4.651   2.732   2.326  0.4272 -0.1881  0.0152
 6529TIP3    H141222   4.664   2.673   2.399  1.1722  0.6007  0.5482
 6529TIP3    H241223   4.652   2.676   2.248  0.2459 -0.9580  0.5606
 6530TIP3   OH241224   3.735   3.755   1.707 -0.0846  0.0995 -0.1217
 6530TIP3    H141225   3.683   3.736   1.785 -1.3853  0.7932 -0.7909
 6530TIP3    H241226   3.746   3.850   1.708 -1.8563  0.3903 -1.7972
 6531TIP3   OH241227   1.884   2.353   2.383 -0.3175  0.1253  0.2261
 6531TIP3    H141228   1.912   2.372   2.472  0.5836  1.0052 -0.2161
 6531TIP3    H241229   1.912   2.263   2.368  0.0414  0.1605  0.6504
 6532TIP3   OH241230   1.339   0.297   1.226 -0.1114  0.6564  0.0953
 6532TIP3    H141231   1.398   0.328   1.158  1.4238 -3.0153 -0.4991
 6532TIP3    H241232   1.287   0.374   1.251 -0.2391  2.3819 -4.6012
 6533TIP3   OH241233   4.016   4.988   1.482 -0.0527  0.0652  0.3868
 6533TIP3    H141234   4.031   4.913   1.539  1.1066  0.1542  0.2135
 6533TIP3    H241235   4.068   4.970   1.404 -0.4749  0.6304 -0.0358
 6534TIP3   OH241236   2.787   3.369   8.007  0.1377  0.6323  0.1540
 6534TIP3    H141237   2.749   3.431   7.945 -1.3941 -0.0952  0.3052
 6534TIP3    H241238   2.869   3.408   8.034  0.3408  1.4523 -1.5531
 6535TIP3   OH241239   3.456   2.462   8.577 -0.0908  0.7222 -0.1657
 6535TIP3    H141240   3.550   2.455   8.593 -0.1384  0.2169 -0.0848
 6535TIP3    H241241   3.428   2.372   8.560 -0.5538  0.8746 -0.2294
 6536TIP3   OH241242   4.973   2.078   0.350  0.2000 -0.1127  0.2766
 6536TIP3    H141243   5.011   2.150   0.401  0.3618 -0.3405  0.4775
 6536TIP3    H241244   4.890   2.059   0.393 -0.5432  0.9205 -0.6318
 6537TIP3   OH241245   6.171   4.131   7.972 -0.1281 -0.0657  0.3669
 6537TIP3    H141246   6.218   4.108   8.052  2.0177  0.3144 -0.7229
 6537TIP3    H241247   6.201   4.219   7.950 -0.9617 -0.0159 -0.6566
 6538TIP3   OH241248   3.374   3.384   0.940  0.0507  0.1145 -0.5187
 6538TIP3    H141249   3.455   3.334   0.938 -0.2500 -0.3892 -0.1828
 6538TIP3    H241250   3.402   3.474   0.956  0.4478 -0.3187  1.4241
 6539TIP3   OH241251   3.521   5.514   9.010 -0.3392  0.1477 -0.6729
 6539TIP3    H141252   3.596   5.549   8.961 -0.6418  0.7417 -0.7266
 6539TIP3    H241253   3.484   5.448   8.951 -0.1300  0.1708 -0.8363
 6540TIP3   OH241254   4.442   2.749   0.126 -0.1402 -0.0966 -0.1558
 6540TIP3    H141255   4.497   2.715   0.055 -0.6844 -1.5428  0.0953
 6540TIP3    H241256   4.379   2.806   0.082  1.7914  2.0125 -0.4053
 6541TIP3   OH241257   2.242   2.738   8.227 -0.4656  0.7441  0.0101
 6541TIP3    H141258   2.331   2.747   8.192  0.1316 -0.8427  1.0345
 6541TIP3    H241259   2.194   2.691   8.158 -0.5489  1.6329 -0.5580
 6542TIP3   OH241260   2.727   3.598   7.425 -0.3246  0.4552  0.1123
 6542TIP3    H141261   2.639   3.574   7.455 -0.6193 -0.4294 -1.3211
 6542TIP3    H241262   2.724   3.582   7.330  0.8873  1.9839 -0.2154
 6543TIP3   OH241263   1.838   5.960   2.252  0.2502 -0.0710 -0.2062
 6543TIP3    H141264   1.797   5.874   2.252  1.0991 -0.4849 -0.0741
 6543TIP3    H241265   1.839   5.986   2.344  1.5870 -0.7112 -0.0180
 6544TIP3   OH241266   0.872   4.763   9.170 -0.2445  0.3939  0.0889
 6544TIP3    H141267   0.789   4.717   9.181 -0.5400  0.8386 -0.2328
 6544TIP3    H241268   0.927   4.732   9.242 -0.9330  0.6498  0.7309
 6545TIP3   OH241269   2.544   4.078   1.582 -0.4570  0.0118 -0.1871
 6545TIP3    H141270   2.518   4.134   1.508 -0.3482 -0.2583 -0.4300
 6545TIP3    H241271   2.524   3.989   1.553  0.7923 -0.2109 -0.3970
 6546TIP3   OH241272   0.359   4.641   8.653  0.3111 -0.4506 -0.0203
 6546TIP3    H141273   0.415   4.689   8.592  1.9362 -0.6726  1.2211
 6546TIP3    H241274   0.419   4.611   8.722 -1.2886 -1.0249  1.1876
 6547TIP3   OH241275   0.840   0.367   8.366 -0.1649  0.1803 -0.2049
 6547TIP3    H141276   0.846   0.316   8.447  0.7629  1.5816  0.6408
 6547TIP3    H241277   0.776   0.435   8.385 -1.3575 -0.5755 -1.3170
 6548TIP3   OH241278   1.254   6.035   0.346 -0.1512 -0.4740  0.0117
 6548TIP3    H141279   1.263   6.030   0.441  0.9548 -0.7103 -0.0966
 6548TIP3    H241280   1.329   5.986   0.312 -0.7892 -0.7891 -0.9845
 6549TIP3   OH241281   1.847   4.859   7.610 -0.2372 -0.6580  0.5895
 6549TIP3    H141282   1.828   4.935   7.666 -2.1389  0.1383 -1.0326
 6549TIP3    H241283   1.798   4.787   7.650  2.0803 -1.3222  2.5080
 6550TIP3   OH241284   4.991   4.110   0.941  0.1400 -0.4720  0.5071
 6550TIP3    H141285   4.928   4.043   0.915 -0.9098  0.2758  1.0456
 6550TIP3    H241286   4.980   4.180   0.877 -0.8274  0.3918  1.5658
 6551TIP3   OH241287   0.304   5.282   0.985 -0.4394 -0.5575 -0.2452
 6551TIP3    H141288   0.375   5.306   0.926 -0.6418 -2.0315 -1.1426
 6551TIP3    H241289   0.275   5.196   0.954 -1.3160 -0.8605  1.3138
 6552TIP3   OH241290   2.606   1.543   2.096  0.2037 -0.6404  0.0747
 6552TIP3    H141291   2.524   1.570   2.055 -0.6879 -2.9119  0.2252
 6552TIP3    H241292   2.594   1.563   2.189 -0.4947 -1.6061  0.2067
 6553TIP3   OH241293   0.892   1.945   2.516  0.0909 -0.3899  0.0498
 6553TIP3    H141294   0.828   1.894   2.564 -1.0908  0.8939 -0.0970
 6553TIP3    H241295   0.969   1.888   2.510  0.1231 -0.8059  3.0075
 6554TIP3   OH241296   5.338   5.559   0.381 -0.2314  0.3995 -0.2111
 6554TIP3    H141297   5.283   5.549   0.303 -0.1245 -1.0665 -0.1230
 6554TIP3    H241298   5.322   5.480   0.432  2.4910 -0.4896 -0.5469
 6555TIP3   OH241299   0.936   0.157   8.863 -0.9175 -0.2841  0.4115
 6555TIP3    H141300   0.855   0.189   8.903 -0.6373  0.1245  0.6650
 6555TIP3    H241301   0.929   0.062   8.868 -1.1924 -0.2476  0.8312
 6556TIP3   OH241302   5.595   5.990   7.771 -0.8102  0.3532  0.8141
 6556TIP3    H141303   5.515   6.028   7.736  0.1942  0.3198 -1.7052
 6556TIP3    H241304   5.580   5.986   7.866 -3.7736  0.2588  0.4336
 6557TIP3   OH241305   1.510   5.726   6.906  0.2974 -0.6388 -0.4002
 6557TIP3    H141306   1.541   5.663   6.841 -0.5970 -0.0656 -1.3963
 6557TIP3    H241307   1.420   5.745   6.880  1.1770  2.6682 -1.4077
 6558TIP3   OH241308   3.211   0.033   1.756 -0.2254 -0.2158 -1.0358
 6558TIP3    H141309   3.236   0.114   1.800 -0.5456 -0.4211 -0.4757
 6558TIP3    H241310   3.225   0.052   1.663 -0.6723  0.6074 -0.9432
 6559TIP3   OH241311   5.575   2.351   2.835 -0.3699 -0.3362  0.3893
 6559TIP3    H141312   5.512   2.369   2.905 -2.6709 -1.2533 -1.3164
 6559TIP3    H241313   5.560   2.421   2.771 -1.1616 -1.6921 -0.9661
 6560TIP3   OH241314   1.032   0.757   1.752 -0.8021 -0.4572  0.2302
 6560TIP3    H141315   0.982   0.753   1.670  2.2329  0.0068 -1.7843
 6560TIP3    H241316   1.040   0.850   1.770  2.1586 -0.2688 -1.4712
 6561TIP3   OH241317   6.107   2.644   8.446 -0.4908  0.0882 -0.1164
 6561TIP3    H141318   6.180   2.654   8.507 -2.2155  1.2892  1.8573
 6561TIP3    H241319   6.073   2.733   8.434 -3.3507 -0.6742  1.3126
 6562TIP3   OH241320   4.840   4.096   1.408  0.1074 -0.1263  0.0757
 6562TIP3    H141321   4.871   4.049   1.486  0.0782 -0.2097  0.0363
 6562TIP3    H241322   4.747   4.109   1.423 -0.3930 -2.1255 -0.9567
 6563TIP3   OH241323   1.266   0.687   8.507  0.0713 -0.4064 -0.6900
 6563TIP3    H141324   1.323   0.615   8.480  2.2762  0.5732  1.0449
 6563TIP3    H241325   1.263   0.680   8.603  0.5044  1.8647 -0.4595
 6564TIP3   OH241326   3.479   5.161   2.414 -0.6105  0.0474 -0.3163
 6564TIP3    H141327   3.570   5.183   2.397 -0.7118 -1.0998 -2.9532
 6564TIP3    H241328   3.450   5.224   2.479  1.7284  1.1863 -0.2818
 6565TIP3   OH241329   1.813   5.452   7.957  0.4851  0.2636  0.1200
 6565TIP3    H141330   1.842   5.496   8.037 -1.9835  0.4537  1.0086
 6565TIP3    H241331   1.806   5.522   7.892  0.4337  0.4865  0.3654
 6566TIP3   OH241332   1.204   0.122   2.936 -0.1100 -0.5244 -0.4701
 6566TIP3    H141333   1.271   0.169   2.887  0.9447 -1.4984 -0.0001
 6566TIP3    H241334   1.220   0.145   3.027 -1.2201  0.2212 -0.4472
 6567TIP3   OH241335   0.513   1.764   2.435 -0.0293  0.0095 -0.5446
 6567TIP3    H141336   0.569   1.833   2.399 -1.1504  1.0814 -0.2932
 6567TIP3    H241337   0.428   1.780   2.395 -0.4130 -0.9635 -0.1300
 6568TIP3   OH241338   2.773   0.342   7.845 -0.1652 -0.6832 -0.2242
 6568TIP3    H141339   2.837   0.305   7.906 -0.2993 -1.1469 -0.3640
 6568TIP3    H241340   2.826   0.373   7.771 -0.1040 -1.1266 -0.3696
 6569TIP3   OH241341   2.941   5.399   8.367 -0.0022 -0.4812  0.3832
 6569TIP3    H141342   2.903   5.327   8.317 -2.1504  0.2003  0.9120
 6569TIP3    H241343   2.963   5.360   8.452 -0.8597 -0.6126  0.5569
 6570TIP3   OH241344   5.495   0.639   9.025 -0.1728 -0.2409 -0.0880
 6570TIP3    H141345   5.427   0.620   9.089 -1.1643  0.4796 -0.9053
 6570TIP3    H241346   5.506   0.557   8.977 -0.1804 -0.4704  0.2941
 6571TIP3   OH241347   3.420   0.763   0.144 -0.1075  0.1172  0.0590
 6571TIP3    H141348   3.366   0.705   0.197  0.3487  0.1326  0.5539
 6571TIP3    H241349   3.484   0.705   0.102  0.2203  0.2284  0.3942
 6572TIP3   OH241350   0.103   3.758   1.303  0.3606  1.0440  0.0362
 6572TIP3    H141351   0.098   3.683   1.364 -1.8052 -0.2551 -1.5874
 6572TIP3    H241352   0.161   3.820   1.347  1.6009 -1.2187  1.8684
 6573TIP3   OH241353   3.030   2.466   1.847 -0.0289 -0.6123  0.0409
 6573TIP3    H141354   2.956   2.497   1.795 -2.2597 -1.2267  2.6366
 6573TIP3    H241355   3.049   2.379   1.813  1.5523  0.6165 -2.5557
 6574TIP3   OH241356   4.380   2.274   7.992  0.0263 -0.6268 -0.8091
 6574TIP3    H141357   4.411   2.185   7.977  1.1877 -0.2539 -0.7557
 6574TIP3    H241358   4.395   2.320   7.910  3.4566  0.5937  0.3212
 6575TIP3   OH241359   2.492   5.990   9.197 -0.6403 -0.2024  0.7070
 6575TIP3    H141360   2.564   5.927   9.190 -0.0893  0.5913 -2.8956
 6575TIP3    H241361   2.536   6.074   9.214 -1.0099 -0.1451  1.4204
 6576TIP3   OH241362   3.043   3.744   1.675 -0.3656  0.1258  0.5157
 6576TIP3    H141363   2.951   3.772   1.673 -0.0970  1.2735  2.1396
 6576TIP3    H241364   3.084   3.791   1.602 -0.7569  0.8499  0.7499
 6577TIP3   OH241365   5.922   6.510   0.005 -0.6686  0.4780 -0.0634
 6577TIP3    H141366   6.008   6.523  -0.035 -0.2198 -0.5923  0.5273
 6577TIP3    H241367   5.860   6.515  -0.068  0.1327 -1.3951 -0.9435
 6578TIP3   OH241368   1.589   6.372   9.203  0.0096 -0.5180 -0.7197
 6578TIP3    H141369   1.612   6.369   9.110 -0.9379 -2.3742 -0.9500
 6578TIP3    H241370   1.617   6.459   9.232  2.3172 -0.6977 -2.1903
 6579TIP3   OH241371   3.762   6.232   1.876 -0.1644  0.3723 -0.3439
 6579TIP3    H141372   3.823   6.276   1.935 -0.5555 -1.3685  1.4970
 6579TIP3    H241373   3.774   6.138   1.895 -0.9329 -0.2060 -2.4577
 6580TIP3   OH241374   0.964   4.570   7.557 -0.0862 -0.0570 -0.1489
 6580TIP3    H141375   0.941   4.646   7.503 -0.4878 -0.4378 -0.5291
 6580TIP3    H241376   1.056   4.582   7.578 -0.0736  0.3912 -0.4496
 6581TIP3   OH241377   1.003   5.020   8.075  0.5591  0.5569  0.0314
 6581TIP3    H141378   0.984   5.109   8.105 -3.0375 -0.5737  1.7533
 6581TIP3    H241379   1.080   4.994   8.126  0.6399  2.1082  0.7757
 6582TIP3   OH241380   0.018   3.661   9.184 -0.6366 -0.0875 -0.3339
 6582TIP3    H141381   0.010   3.569   9.160 -1.3750  0.0948 -0.8334
 6582TIP3    H241382   0.081   3.662   9.257  1.4099 -0.6836 -2.0094
 6583TIP3   OH241383   4.578   1.059   0.049  0.0296 -0.1969  0.2618
 6583TIP3    H141384   4.651   1.084  -0.008 -0.4384 -0.7884 -0.6060
 6583TIP3    H241385   4.524   1.001  -0.004 -1.1455  0.3140  0.8491
 6584TIP3   OH241386   3.440   1.272   8.438  0.0690  0.0313 -0.8670
 6584TIP3    H141387   3.517   1.302   8.390 -0.5209  2.6572 -0.3200
 6584TIP3    H241388   3.470   1.195   8.486  1.3832 -1.0711 -3.3063
 6585TIP3   OH241389   5.347   5.433   8.404  0.0605 -0.4412 -0.2679
 6585TIP3    H141390   5.400   5.387   8.338  0.0180 -2.1351  0.8431
 6585TIP3    H241391   5.408   5.496   8.443  0.1175  0.5190 -1.8049
 6586TIP3   OH241392   0.461   0.847   8.911 -0.0817 -0.5557 -0.3241
 6586TIP3    H141393   0.444   0.900   8.833 -0.4252 -0.3652 -0.1237
 6586TIP3    H241394   0.525   0.898   8.960  0.7162 -1.0379 -0.8408
 6587TIP3   OH241395   0.081   2.610   1.815 -0.4623 -0.1822 -0.0349
 6587TIP3    H141396   0.154   2.655   1.857  1.4900 -2.4771 -0.7554
 6587TIP3    H241397   0.102   2.517   1.823 -3.1807 -0.9323 -0.5710
 6588TIP3   OH241398   1.773   6.057   1.119  0.0145 -0.0663 -0.0922
 6588TIP3    H141399   1.762   5.962   1.126  1.1520 -0.2298 -0.3627
 6588TIP3    H241400   1.754   6.089   1.208  1.5980 -0.7722  0.5325
 6589TIP3   OH241401   4.019   4.581   0.524  0.2391 -0.2460  0.3391
 6589TIP3    H141402   3.975   4.497   0.530 -0.6201  0.0847 -0.9534
 6589TIP3    H241403   3.949   4.646   0.523  0.8973  0.5393  1.7079
 6590TIP3   OH241404   0.580   3.902   0.946  0.2137  0.0686 -0.0175
 6590TIP3    H141405   0.538   3.987   0.957  0.1199  0.0091  0.0885
 6590TIP3    H241406   0.610   3.878   1.034 -1.9310 -1.1236  0.4488
 6591TIP3   OH241407   2.034   3.021   8.648 -0.3655  0.4962 -0.2601
 6591TIP3    H141408   1.955   3.003   8.598 -0.8309  0.5143  0.4486
 6591TIP3    H241409   2.095   2.952   8.623 -1.3506 -0.8006  0.7827
 6592TIP3   OH241410   1.227   2.751   1.492 -0.0415  0.0434  0.4863
 6592TIP3    H141411   1.161   2.781   1.555  0.5777  2.0157  0.2609
 6592TIP3    H241412   1.302   2.728   1.547 -0.8617 -2.2637  0.7484
 6593TIP3   OH241413   0.602   6.189   1.207 -0.0181 -0.3754  0.3153
 6593TIP3    H141414   0.507   6.184   1.221 -0.0281 -0.1131  0.3356
 6593TIP3    H241415   0.622   6.282   1.207  0.3216 -0.4428  0.8587
 6594TIP3   OH241416   1.659   4.702   7.711  0.1981 -0.0439 -0.4292
 6594TIP3    H141417   1.641   4.685   7.803 -1.3935  1.3990 -0.4281
 6594TIP3    H241418   1.590   4.654   7.664  0.3174  0.1442 -0.7996
 6595TIP3   OH241419   3.038   0.840   3.156  0.3517  0.2365 -0.4793
 6595TIP3    H141420   3.103   0.864   3.090 -0.2133  2.0456 -0.4289
 6595TIP3    H241421   3.082   0.854   3.239  0.4428 -0.1791 -0.4575
 6596TIP3   OH241422   2.274   2.221   0.583  0.6228  0.0220 -0.2476
 6596TIP3    H141423   2.285   2.153   0.650  1.2732  0.6350  0.2869
 6596TIP3    H241424   2.275   2.173   0.500  0.1498 -0.7108  0.1633
 6597TIP3   OH241425   4.520   4.901   1.410 -0.0707  0.1414 -0.4071
 6597TIP3    H141426   4.428   4.924   1.398  0.8678  3.1133 -3.3921
 6597TIP3    H241427   4.529   4.815   1.368 -1.3901  0.0302 -0.5005
 6598TIP3   OH241428   3.830   6.262   2.863  0.2294  0.0092 -0.3433
 6598TIP3    H141429   3.753   6.229   2.816  0.7859  0.0338 -1.2944
 6598TIP3    H241430   3.832   6.355   2.842  0.3665  0.0656 -0.0865
 6599TIP3   OH241431   3.414   1.649   2.035  0.1526 -0.0889 -0.4704
 6599TIP3    H141432   3.348   1.628   1.969  0.8569 -1.2375 -0.8249
 6599TIP3    H241433   3.420   1.745   2.032 -0.9073 -0.0157 -0.9937
 6600TIP3   OH241434   6.418   5.929   2.835  0.1977  0.3225  0.2379
 6600TIP3    H141435   6.453   5.842   2.857 -0.3793 -0.0058 -0.1236
 6600TIP3    H241436   6.493   5.988   2.848  0.9552 -0.3924 -0.7266
 6601TIP3   OH241437   2.993   5.891   9.119  0.0893  0.5300 -0.1557
 6601TIP3    H141438   2.967   5.912   9.029 -0.0476  1.7633  0.1537
 6601TIP3    H241439   3.069   5.833   9.109 -0.3572  0.0858 -1.0611
 6602TIP3   OH241440   6.424   2.157   9.008  0.2794  0.5686 -0.0804
 6602TIP3    H141441   6.449   2.246   8.983 -1.4481  1.2187  0.3596
 6602TIP3    H241442   6.333   2.148   8.978 -0.4905 -0.0593  2.2021
 6603TIP3   OH241443   2.346   3.823   1.561 -0.0849  0.4745 -0.0857
 6603TIP3    H141444   2.413   3.782   1.616  1.5395  2.2734 -0.6166
 6603TIP3    H241445   2.266   3.817   1.614  0.4948 -1.5007  0.6733
 6604TIP3   OH241446   3.632   1.495   1.822  0.2237  0.1949  0.0425
 6604TIP3    H141447   3.626   1.459   1.733 -0.2237  0.0203  0.1452
 6604TIP3    H241448   3.543   1.490   1.856  0.4738 -0.1233  0.6564
 6605TIP3   OH241449   4.481   1.610   2.378 -0.0063 -0.1437 -0.3848
 6605TIP3    H141450   4.485   1.524   2.335 -1.7388 -0.5071  0.0893
 6605TIP3    H241451   4.540   1.603   2.453  0.4277 -0.6605 -0.7656
 6606TIP3   OH241452   1.880   0.012   8.760 -0.2708 -0.0096  0.3484
 6606TIP3    H141453   1.788  -0.015   8.763 -0.9811  1.9390 -1.3397
 6606TIP3    H241454   1.892   0.044   8.671  2.2125 -0.6420  0.4002
 6607TIP3   OH241455   5.895   0.052   8.787 -0.6151 -0.6609  0.2905
 6607TIP3    H141456   5.804   0.024   8.783 -0.9578  0.2797  1.1663
 6607TIP3    H241457   5.898   0.132   8.735 -0.7866  0.5185  2.0195
 6608TIP3   OH241458   5.677   3.334   2.066  0.1037  0.0285  0.3903
 6608TIP3    H141459   5.697   3.400   2.133 -1.0157 -0.7113  1.4993
 6608TIP3    H241460   5.594   3.295   2.095  0.2141 -1.1522 -0.7974
 6609TIP3   OH241461   3.915   4.030   7.833 -0.3309  0.6593 -0.7247
 6609TIP3    H141462   3.949   4.116   7.859  2.0673 -0.8150  1.5200
 6609TIP3    H241463   3.976   4.001   7.765 -0.0679  0.0301 -0.2270
 6610TIP3   OH241464   1.033   3.763   2.269  0.0953 -0.3453 -0.2604
 6610TIP3    H141465   0.945   3.770   2.306 -0.2907 -1.7099 -0.8235
 6610TIP3    H241466   1.019   3.762   2.174  0.7622 -0.0428 -0.3637
 6611TIP3   OH241467   6.641   5.315   0.305  0.5622  0.1781 -0.4124
 6611TIP3    H141468   6.669   5.400   0.338 -1.5463  0.0984  1.8899
 6611TIP3    H241469   6.547   5.325   0.290  0.3342 -1.6356 -0.4087
 6612TIP3   OH241470   2.216   1.056   1.721 -0.4358 -0.5595 -0.7658
 6612TIP3    H141471   2.186   1.123   1.660  1.6600  0.3102 -0.9041
 6612TIP3    H241472   2.311   1.069   1.728 -0.5956 -0.1942  3.1658
 6613TIP3   OH241473   6.184   3.442   7.296 -0.1677 -0.7944  0.0135
 6613TIP3    H141474   6.157   3.496   7.222  1.4821 -1.1511 -0.9145
 6613TIP3    H241475   6.134   3.362   7.287 -1.2443 -0.1720  0.3075
 6614TIP3   OH241476   6.048   0.526   1.287  0.2809  0.4499  0.2517
 6614TIP3    H141477   5.983   0.595   1.300  0.3008  0.3167  1.0883
 6614TIP3    H241478   6.048   0.511   1.192 -1.5209 -0.1426  0.3096
 6615TIP3   OH241479   0.927   0.570   2.406 -0.3785 -0.3121  0.2880
 6615TIP3    H141480   0.931   0.537   2.496  3.6617  0.1527  0.4843
 6615TIP3    H241481   0.947   0.664   2.414 -0.7470 -0.0897 -1.0583
 6616TIP3   OH241482   5.656   2.931   6.809 -0.0303  0.6552 -0.0241
 6616TIP3    H141483   5.718   2.930   6.882  0.5329  1.4246 -0.4785
 6616TIP3    H241484   5.711   2.944   6.732 -0.8051  2.0176 -0.3714
 6617TIP3   OH241485   5.610   2.291   1.352 -0.3660 -0.1260 -0.4413
 6617TIP3    H141486   5.613   2.219   1.416  0.6449 -0.1085 -0.4518
 6617TIP3    H241487   5.522   2.287   1.315 -0.1165 -1.7956 -0.9386
 6618TIP3   OH241488   1.038   6.439   7.721  0.2566  0.0324 -0.3526
 6618TIP3    H141489   1.088   6.497   7.664  2.3295 -0.8853  0.4227
 6618TIP3    H241490   1.034   6.485   7.805  0.0923 -0.0454 -0.3177
 6619TIP3   OH241491   2.759   5.823   0.034  0.1602  0.1701 -0.5671
 6619TIP3    H141492   2.787   5.796   0.122  1.7530  0.5038 -0.9306
 6619TIP3    H241493   2.840   5.850  -0.009 -0.7864  1.3191 -1.6917
 6620TIP3   OH241494   0.865   1.779   7.676 -0.3921  0.2679  0.2940
 6620TIP3    H141495   0.924   1.717   7.633 -0.7446 -1.6037  2.2999
 6620TIP3    H241496   0.817   1.820   7.604  2.1191  0.6479 -1.2875
 6621TIP3   OH241497   5.878   4.904   1.563  0.4059  0.6501  0.3655
 6621TIP3    H141498   5.928   4.902   1.645 -1.0887 -0.6976  1.3349
 6621TIP3    H241499   5.943   4.913   1.494  2.3331 -3.3009  1.3647
 6622TIP3   OH241500   4.586   5.104   8.568  0.3945 -0.1646  0.0368
 6622TIP3    H141501   4.547   5.101   8.481  1.7673  1.7351 -0.7119
 6622TIP3    H241502   4.640   5.024   8.572  1.6763  0.5560 -1.5899
 6623TIP3   OH241503   5.408   3.334   1.484  0.2955  0.1892 -0.6483
 6623TIP3    H141504   5.321   3.318   1.521  0.1973 -1.2828 -1.4717
 6623TIP3    H241505   5.406   3.292   1.399  2.2213 -0.9788 -0.1619
 6624TIP3   OH241506   5.231   2.148   2.108  0.0348 -0.1043 -0.0631
 6624TIP3    H141507   5.313   2.174   2.067 -0.0991  1.3707  0.5322
 6624TIP3    H241508   5.192   2.231   2.138 -0.6022 -0.9854  1.6362
 6625TIP3   OH241509   1.814   3.524   0.514 -0.5019 -0.0314 -0.3621
 6625TIP3    H141510   1.840   3.605   0.557  0.7113 -0.3916 -0.3870
 6625TIP3    H241511   1.787   3.551   0.426 -0.1517  0.3480 -0.3551
 6626TIP3   OH241512   5.237   1.745   0.998 -0.0323 -0.0316 -0.3113
 6626TIP3    H141513   5.331   1.729   0.996  0.3811  1.8539  1.1473
 6626TIP3    H241514   5.207   1.724   0.909  1.6314 -1.2812 -0.6219
 6627TIP3   OH241515   4.125   5.994   1.893 -0.4880  0.6216 -0.0760
 6627TIP3    H141516   4.166   6.003   1.808 -0.1250  1.1639  0.1513
 6627TIP3    H241517   4.157   5.911   1.927  1.4046  1.5767  0.6112
 6628TIP3   OH241518   4.804   4.739   8.440 -0.3582 -0.7278  0.5392
 6628TIP3    H141519   4.764   4.741   8.352 -2.8375  3.8998  1.4617
 6628TIP3    H241520   4.894   4.768   8.425 -0.5146 -0.7444 -0.5851
 6629TIP3   OH241521   6.168   4.953   2.209  0.1165 -0.1399 -0.3115
 6629TIP3    H141522   6.158   4.915   2.296  0.4093  1.9362  0.6957
 6629TIP3    H241523   6.078   4.965   2.178 -0.3963  3.7619  1.9607
 6630TIP3   OH241524   5.965   4.765   8.692  0.2288 -0.5382  0.9175
 6630TIP3    H141525   5.972   4.715   8.773  1.6364 -0.0416  1.1273
 6630TIP3    H241526   6.031   4.727   8.635 -0.0540 -0.2141  0.3733
 6631TIP3   OH241527   2.151   6.340   1.985 -0.1989 -0.3037 -0.2019
 6631TIP3    H141528   2.061   6.308   1.990  0.1316 -1.0694  2.0306
 6631TIP3    H241529   2.168   6.349   1.891 -2.3071 -0.9457 -0.7027
 6632TIP3   OH241530   3.955   2.367   8.537 -0.0579 -0.0039  0.7007
 6632TIP3    H141531   3.966   2.282   8.494  2.4733  0.2847  0.5761
 6632TIP3    H241532   3.976   2.430   8.468 -0.1469  0.6304  1.2501
 6633TIP3   OH241533   1.117   1.048   7.964 -0.0290 -0.1184  0.2338
 6633TIP3    H141534   1.139   1.129   7.918  2.0253 -1.2291 -0.9516
 6633TIP3    H241535   1.091   0.988   7.894  0.5607 -1.0695  0.8035
 6634TIP3   OH241536   4.505   3.323   2.583  0.2073 -0.3407  0.3428
 6634TIP3    H141537   4.501   3.233   2.613 -0.7719 -0.6444 -0.6128
 6634TIP3    H241538   4.436   3.329   2.517 -1.0574  1.6187  1.7326
 6635TIP3   OH241539   3.496   5.402   8.760  0.7334  0.4429 -0.1021
 6635TIP3    H141540   3.478   5.446   8.677  1.6072  0.2377 -0.4202
 6635TIP3    H241541   3.588   5.374   8.752  0.2356 -1.4060  0.0698
 6636TIP3   OH241542   5.012   4.214   8.964 -0.2365  0.6899 -0.4222
 6636TIP3    H141543   5.037   4.251   8.879  0.9244 -0.8112 -0.7835
 6636TIP3    H241544   5.094   4.178   8.999 -0.9952 -0.0469  0.6452
 6637TIP3   OH241545   2.014   0.727   2.669  0.7865  0.0668  0.3249
 6637TIP3    H141546   2.103   0.709   2.638  0.6255 -0.4973  0.1855
 6637TIP3    H241547   2.026   0.792   2.739  1.3283 -0.2027  0.4876
 6638TIP3   OH241548   0.969   4.967   0.253  0.4780  0.6236 -0.0689
 6638TIP3    H141549   0.925   5.028   0.313  0.9424 -1.4162  2.5107
 6638TIP3    H241550   1.061   4.993   0.255  0.8881 -0.7225  1.9605
 6639TIP3   OH241551   5.494   6.561   2.305 -0.5520 -0.3161  0.0178
 6639TIP3    H141552   5.408   6.585   2.340 -1.0542 -2.4083  0.3342
 6639TIP3    H241553   5.506   6.469   2.329  1.6918 -0.1543 -0.2249
 6640TIP3   OH241554   4.416   3.818   8.253 -0.3661  0.2954 -0.1974
 6640TIP3    H141555   4.492   3.831   8.309  0.3130  1.9029 -1.3925
 6640TIP3    H241556   4.412   3.724   8.237  0.0981 -0.0507  1.5789
 6641TIP3   OH241557   4.678   1.891   1.500  0.7202 -0.2102  0.3320
 6641TIP3    H141558   4.615   1.904   1.429 -0.9811 -0.4176  1.7429
 6641TIP3    H241559   4.718   1.977   1.512  0.1713  0.1116 -0.0898
 6642TIP3   OH241560   5.277   0.915   1.159 -0.3437 -0.0009  0.0313
 6642TIP3    H141561   5.332   0.952   1.228 -1.6440  1.0673  0.5537
 6642TIP3    H241562   5.320   0.941   1.078  0.2885  0.2331  0.4319
 6643TIP3   OH241563   4.191   6.041   1.610  0.0322  0.6355  0.2584
 6643TIP3    H141564   4.189   6.128   1.571  0.7249  1.1632  1.3449
 6643TIP3    H241565   4.138   5.987   1.551  0.8620  1.4260 -1.2794
 6644TIP3   OH241566   1.037   1.777   8.106 -0.7071 -0.1463  0.8217
 6644TIP3    H141567   0.974   1.805   8.040  0.2396  0.5168  0.1727
 6644TIP3    H241568   1.071   1.694   8.074 -0.6564 -0.0971  0.7460
 6645TIP3   OH241569   0.191   3.930   8.665  0.2588  0.0826 -0.3840
 6645TIP3    H141570   0.232   4.016   8.654 -0.4502  0.5594  0.5388
 6645TIP3    H241571   0.258   3.867   8.637  1.0153  0.9038 -0.4588
 6646TIP3   OH241572   6.004   0.748   2.144  0.5815 -0.2509  0.3772
 6646TIP3    H141573   5.999   0.657   2.175  0.8026 -0.6305 -0.6530
 6646TIP3    H241574   6.011   0.800   2.224  2.7316 -1.2919  0.9413
 6647TIP3   OH241575   4.802   1.980   2.088  0.0853  0.2183 -0.0268
 6647TIP3    H141576   4.768   2.069   2.082  0.3842  0.2573 -1.3800
 6647TIP3    H241577   4.866   1.974   2.017  2.0885 -0.2038  1.7015
 6648TIP3   OH241578   4.113   2.308   0.388  0.3623  0.5521  0.2422
 6648TIP3    H141579   4.052   2.382   0.382  0.7270  0.8356 -0.0729
 6648TIP3    H241580   4.196   2.344   0.355 -0.0201 -0.6408 -2.2392
 6649TIP3   OH241581   5.823   3.421   6.496 -0.6952 -0.3711  0.0296
 6649TIP3    H141582   5.747   3.480   6.492 -0.7458 -0.4372  0.0174
 6649TIP3    H241583   5.897   3.478   6.475 -0.5758 -0.0125  1.3120
 6650TIP3   OH241584   3.027   0.670   8.656 -0.1502 -0.8558 -0.3331
 6650TIP3    H141585   2.978   0.686   8.576  0.1562 -1.6445 -0.6929
 6650TIP3    H241586   3.047   0.757   8.690  0.5395 -0.4937 -1.6188
 6651TIP3   OH241587   2.746   6.084   2.707  0.0292  0.1111  0.0352
 6651TIP3    H141588   2.712   6.173   2.716  1.3844  0.5724  1.1676
 6651TIP3    H241589   2.828   6.094   2.659  0.3837 -0.4572  0.4945
 6652TIP3   OH241590   3.752   6.023   0.996 -0.6331  0.3247 -0.5279
 6652TIP3    H141591   3.831   5.974   0.972 -0.8102 -0.1738 -0.0957
 6652TIP3    H241592   3.785   6.111   1.015 -0.0257 -0.1345  0.6359
 6653TIP3   OH241593   5.297   0.261   7.933  0.1773  0.3609 -0.6544
 6653TIP3    H141594   5.313   0.312   7.854  0.3060  0.9841 -0.2288
 6653TIP3    H241595   5.244   0.187   7.903 -0.6808  1.1535 -1.1478
 6654TIP3   OH241596   4.828   5.779   0.198  0.7046  0.2346 -0.0859
 6654TIP3    H141597   4.836   5.798   0.292  1.6181 -0.9832  0.1114
 6654TIP3    H241598   4.910   5.734   0.176  0.6060  0.7254 -1.5352
 6655TIP3   OH241599   6.356   1.371   8.389 -0.1861 -0.2272 -0.3537
 6655TIP3    H141600   6.398   1.448   8.350 -1.4111  0.3645 -0.5253
 6655TIP3    H241601   6.422   1.301   8.379  1.5461  1.0936  1.1499
 6656TIP3   OH241602   5.642   6.618   1.914  0.4373  0.4317  0.2364
 6656TIP3    H141603   5.554   6.584   1.929 -1.4894  3.6169 -2.4883
 6656TIP3    H241604   5.685   6.550   1.861 -0.9742 -0.4898  0.2125
 6657TIP3   OH241605   3.013   3.718   7.954 -0.2670  0.1876 -0.1672
 6657TIP3    H141606   2.918   3.727   7.953 -0.1542  1.7131  0.4549
 6657TIP3    H241607   3.043   3.773   7.882  0.2462  1.6635  1.1195
 6658TIP3   OH241608   3.163   0.897   8.823 -0.4691 -0.1668  0.1774
 6658TIP3    H141609   3.229   0.954   8.864  0.4034 -1.4088  0.5423
 6658TIP3    H241610   3.086   0.906   8.879  0.4771 -1.2835  1.7453
 6659TIP3   OH241611   3.917   5.331   0.710 -0.1942 -0.8924  0.3063
 6659TIP3    H141612   3.843   5.350   0.651 -2.0858 -1.0134  2.5083
 6659TIP3    H241613   3.958   5.416   0.725 -0.6677 -0.6137  0.0552
 6660TIP3   OH241614   5.361   4.144   1.024  0.0420  0.7213  0.1591
 6660TIP3    H141615   5.345   4.144   1.119 -0.5049 -2.9640  0.2163
 6660TIP3    H241616   5.453   4.118   1.016  0.1482  1.2437 -0.3551
 6661TIP3   OH241617   1.468   3.077   1.635 -0.6442  0.0160 -0.1016
 6661TIP3    H141618   1.521   3.016   1.584 -0.5391  0.3712 -0.4227
 6661TIP3    H241619   1.378   3.044   1.627 -0.2503 -1.9213  2.3229
 6662TIP3   OH241620   6.362   5.467   1.729 -0.3447  0.0102 -1.2834
 6662TIP3    H141621   6.302   5.541   1.727 -0.4298 -0.0001  0.0533
 6662TIP3    H241622   6.321   5.401   1.673 -2.4491 -0.6022  0.8118
 6663TIP3   OH241623   5.851   0.880   1.476 -0.7685 -0.4779  0.0006
 6663TIP3    H141624   5.827   0.890   1.568  2.1275  0.8354  0.7080
 6663TIP3    H241625   5.865   0.969   1.444  1.3147 -1.0099 -0.7669
 6664TIP3   OH241626   0.822   4.950   8.935 -0.1867 -0.3528 -0.4076
 6664TIP3    H141627   0.816   4.898   9.015  1.1569  0.5407  0.3010
 6664TIP3    H241628   0.808   5.040   8.963 -1.1782 -0.1692 -1.4255
 6665TIP3   OH241629   5.990   0.458   2.166  0.2898 -0.1928 -0.1235
 6665TIP3    H141630   5.925   0.391   2.143 -0.0620  0.2298 -0.3637
 6665TIP3    H241631   6.062   0.408   2.205 -1.0774 -0.5389  2.2221
 6666TIP3   OH241632   0.427   0.365   0.576  0.2037 -0.2313  0.5793
 6666TIP3    H141633   0.475   0.440   0.541  1.8702 -2.3087 -1.9824
 6666TIP3    H241634   0.353   0.353   0.516 -0.0448 -0.6456  0.9573
 6667TIP3   OH241635   0.504   1.418   1.518  0.0169 -0.1262  0.2376
 6667TIP3    H141636   0.475   1.403   1.608 -0.1698  0.3758  0.2670
 6667TIP3    H241637   0.509   1.514   1.510 -1.5367 -0.0847 -0.7622
 6668TIP3   OH241638   5.338   3.614   0.721  0.3868  0.3295 -0.1890
 6668TIP3    H141639   5.382   3.671   0.784 -0.2012  0.8113 -0.2048
 6668TIP3    H241640   5.246   3.616   0.748  0.5021 -1.4136  0.4143
 6669TIP3   OH241641   4.774   3.080   7.866  0.0432  0.0679  1.2968
 6669TIP3    H141642   4.846   3.124   7.821  0.4828 -1.3836  0.4998
 6669TIP3    H241643   4.731   3.149   7.916 -0.6967  1.8906 -1.6124
 6670TIP3   OH241644   2.895   4.844   6.723  0.6977  0.1644 -0.0005
 6670TIP3    H141645   2.812   4.807   6.752  1.1066 -1.5807 -0.9263
 6670TIP3    H241646   2.928   4.891   6.800 -0.7437  0.1968  0.6269
 6671TIP3   OH241647   4.674   2.120   0.459 -0.4789  0.6258  0.5526
 6671TIP3    H141648   4.652   2.175   0.534  0.7448  1.5690  0.2325
 6671TIP3    H241649   4.717   2.043   0.497  0.1099  1.0882  0.8164
 6672TIP3   OH241650   5.886   3.889   8.567 -0.0404 -0.2630  0.3054
 6672TIP3    H141651   5.795   3.899   8.592 -0.4010  1.1003 -1.3621
 6672TIP3    H241652   5.896   3.796   8.547 -1.8629 -0.0444 -2.1393
 6673TIP3   OH241653   0.567   2.808   7.895 -0.3132 -0.0676 -0.1878
 6673TIP3    H141654   0.472   2.822   7.888 -0.1403  1.2823 -0.1495
 6673TIP3    H241655   0.603   2.854   7.820  0.4611  1.4527  1.0555
 6674TIP3   OH241656   6.471   4.908   1.861  0.1511 -0.0166 -0.4741
 6674TIP3    H141657   6.476   4.872   1.950  0.1179 -0.1676 -0.5336
 6674TIP3    H241658   6.399   4.970   1.864 -2.9382 -3.2396 -1.5353
 6675TIP3   OH241659   1.870   3.183   0.831  0.3668  0.5565 -0.0816
 6675TIP3    H141660   1.900   3.261   0.784  0.8239 -0.7979 -2.2079
 6675TIP3    H241661   1.951   3.137   0.855  0.1590  1.3576  2.4421
 6676TIP3   OH241662   5.593   5.421   7.233 -0.1234  0.4568 -0.8199
 6676TIP3    H141663   5.650   5.496   7.215 -0.5811  0.5944 -1.7838
 6676TIP3    H241664   5.611   5.360   7.162  0.8154 -0.7182  0.3794
 6677TIP3   OH241665   0.719   4.848   2.541  0.0539 -0.6164  0.0444
 6677TIP3    H141666   0.634   4.871   2.576 -0.0726  0.2547 -0.8170
 6677TIP3    H241667   0.781   4.867   2.612 -0.5089 -1.9660  0.9490
 6678TIP3   OH241668   6.002   1.467   7.513 -0.4229  0.7776 -0.0616
 6678TIP3    H141669   5.971   1.387   7.555  1.0902 -0.6611 -1.5340
 6678TIP3    H241670   6.069   1.501   7.572  1.5362 -1.1131 -1.0520
 6679TIP3   OH241671   0.826   3.203   1.255  0.1902  0.3377  0.4362
 6679TIP3    H141672   0.812   3.197   1.160 -0.9802 -2.2234  0.7126
 6679TIP3    H241673   0.866   3.120   1.279 -0.9957  0.2813  2.4236
 6680TIP3   OH241674   3.374   1.428   1.279  0.1333 -0.0082 -0.3592
 6680TIP3    H141675   3.382   1.436   1.184  0.5703  0.4309 -0.2865
 6680TIP3    H241676   3.287   1.463   1.298 -0.0957 -0.4184 -0.6333
 6681TIP3   OH241677   4.629   4.214   0.117 -0.2437  0.1089  0.3185
 6681TIP3    H141678   4.640   4.307   0.137 -0.6872  0.3050 -0.3028
 6681TIP3    H241679   4.583   4.213   0.033  1.0733 -0.6730 -0.4270
 6682TIP3   OH241680   4.855   1.918   2.584 -0.3489  0.3767  0.1330
 6682TIP3    H141681   4.860   2.004   2.625 -2.7320  0.0873  1.2249
 6682TIP3    H241682   4.794   1.869   2.640 -0.7023 -1.3184 -1.6401
 6683TIP3   OH241683   4.663   0.593   0.893  0.2446 -0.1690  0.1318
 6683TIP3    H141684   4.628   0.523   0.948 -0.1010  0.4037  0.6538
 6683TIP3    H241685   4.626   0.673   0.930 -0.1504  0.2196 -1.0467
 6684TIP3   OH241686   5.906   4.661   2.735  0.1852 -0.2320 -0.2291
 6684TIP3    H141687   5.968   4.651   2.807 -0.1452 -0.2174  0.0581
 6684TIP3    H241688   5.959   4.645   2.656 -0.1057 -3.7934  0.1136
 6685TIP3   OH241689   4.530   6.047   0.909 -0.1518 -0.1138 -0.2887
 6685TIP3    H141690   4.624   6.064   0.897 -0.2981  1.0819  0.1246
 6685TIP3    H241691   4.497   6.125   0.954 -1.1347 -1.0096  0.6058
 6686TIP3   OH241692   1.222   2.148   0.177  1.0446 -0.3528  0.1902
 6686TIP3    H141693   1.155   2.151   0.109  0.6992  0.7583  0.5574
 6686TIP3    H241694   1.212   2.062   0.217 -0.5926  0.0075  0.6501
 6687TIP3   OH241695   5.966   0.468   7.495 -0.1583  0.0089  0.0176
 6687TIP3    H141696   5.919   0.407   7.438  0.0525  1.4274 -1.7542
 6687TIP3    H241697   6.055   0.470   7.460  0.3109  0.0638  1.1433
 6688TIP3   OH241698   0.113   0.978   7.696 -0.5180  0.1568  0.1616
 6688TIP3    H141699   0.092   0.886   7.709 -2.9277 -0.0701 -3.7291
 6688TIP3    H241700   0.073   1.023   7.770 -0.4021 -1.7895  1.4565
 6689TIP3   OH241701   1.814   4.219   2.180  0.1367  0.5784  0.3160
 6689TIP3    H141702   1.908   4.238   2.181 -0.0896  1.7632  0.2585
 6689TIP3    H241703   1.783   4.248   2.266 -0.5523  2.2436 -0.4626
 6690TIP3   OH241704   1.248   3.305   1.221 -0.2622  0.2401 -0.1738
 6690TIP3    H141705   1.275   3.363   1.151 -0.5827  0.0777 -0.4334
 6690TIP3    H241706   1.320   3.308   1.284  0.5997 -0.5562 -1.0795
 6691TIP3   OH241707   0.644   6.390   0.845 -0.5280  0.2169 -0.2519
 6691TIP3    H141708   0.585   6.395   0.770 -1.0173  1.0334  0.1777
 6691TIP3    H241709   0.611   6.316   0.896 -0.0937 -0.4527 -0.8970
 6692TIP3   OH241710   3.452   0.775   8.488  0.5469  0.0557 -0.0159
 6692TIP3    H141711   3.523   0.779   8.423  0.7380  0.0039  0.1894
 6692TIP3    H241712   3.406   0.859   8.479  1.5247  0.6988  0.8629
 6693TIP3   OH241713   3.792   2.049   8.154 -0.7248  0.1196  0.0499
 6693TIP3    H141714   3.881   2.084   8.160 -0.7741  0.4220 -0.7289
 6693TIP3    H241715   3.780   2.032   8.060 -2.4282  2.6606 -0.3055
 6694TIP3   OH241716   0.438   1.130   2.434  0.1811  0.2189 -0.8681
 6694TIP3    H141717   0.387   1.139   2.515 -0.9275  0.1290 -1.5435
 6694TIP3    H241718   0.446   1.035   2.421  1.9649  0.1753  0.0896
 6695TIP3   OH241719   4.533   1.338   8.928 -0.1416  0.2572 -0.3364
 6695TIP3    H141720   4.542   1.377   9.015  1.7270  1.8710 -1.1845
 6695TIP3    H241721   4.468   1.393   8.883  2.7734  2.9173 -1.6649
 6696TIP3   OH241722   1.247   5.448   1.518  0.3189 -0.9198  0.5171
 6696TIP3    H141723   1.182   5.472   1.453  1.9757 -0.3003 -0.9879
 6696TIP3    H241724   1.217   5.490   1.599 -0.5187  0.3375 -0.4180
 6697TIP3   OH241725   6.668   0.853   0.567  0.0080 -0.8869 -0.7275
 6697TIP3    H141726   6.636   0.783   0.624  0.0236 -0.1674  0.1969
 6697TIP3    H241727   6.684   0.927   0.626 -1.3857  0.3906 -1.8518
 6698TIP3   OH241728   2.472   3.465   7.546 -0.3413 -0.1588 -0.1889
 6698TIP3    H141729   2.387   3.508   7.558  0.6727  1.8779  0.2344
 6698TIP3    H241730   2.456   3.396   7.482 -2.3931 -0.1151  0.2212
 6699TIP3   OH241731   5.586   1.980   3.137 -0.0770  0.0916  0.2277
 6699TIP3    H141732   5.678   1.964   3.115 -0.3801 -1.5966  0.1009
 6699TIP3    H241733   5.590   2.023   3.223  0.8078 -1.8029  1.2010
 6700TIP3   OH241734   5.658   0.899   0.671  0.3267  0.0828  0.0089
 6700TIP3    H141735   5.626   0.970   0.616 -1.4587 -0.9616 -0.3723
 6700TIP3    H241736   5.661   0.823   0.613 -2.1800 -1.1916  1.3763
 6701TIP3   OH241737   5.012   1.041   1.124  0.6987 -0.3287 -0.5866
 6701TIP3    H141738   5.101   1.015   1.147  1.5036  3.9524  2.3808
 6701TIP3    H241739   4.958   1.007   1.195  0.3930 -0.6819 -0.9847
 6702TIP3   OH241740   2.664   3.998   2.373 -0.4794  0.7547 -0.1714
 6702TIP3    H141741   2.695   3.991   2.283  0.9126  2.1314  0.1595
 6702TIP3    H241742   2.599   3.928   2.381 -0.1493  0.1680 -2.0301
 6703TIP3   OH241743   5.801   1.467   1.197  0.1157  0.0265  0.0908
 6703TIP3    H141744   5.842   1.506   1.274  1.1346 -0.8871  0.0377
 6703TIP3    H241745   5.843   1.509   1.123  1.9903 -1.8351  0.0183
 6704TIP3   OH241746   3.102   0.790   0.333 -0.0953 -0.0260  0.0989
 6704TIP3    H141747   3.049   0.744   0.397 -0.6915  0.7027  0.1315
 6704TIP3    H241748   3.107   0.730   0.258 -2.8835  0.7694 -0.8412
 6705TIP3   OH241749   1.560   4.699   2.331  0.0464 -0.0429 -0.1228
 6705TIP3    H141750   1.487   4.659   2.378  0.1694 -0.6088 -0.3976
 6705TIP3    H241751   1.532   4.701   2.240  0.6520 -0.9541 -0.3480
 6706TIP3   OH241752   4.296   1.253   1.212 -0.2177  0.3736  0.0664
 6706TIP3    H141753   4.243   1.316   1.164 -0.7338  0.4059  0.6689
 6706TIP3    H241754   4.365   1.306   1.252  0.7865  0.2261 -1.3846
 6707TIP3   OH241755   4.409   5.381   7.274 -0.4353 -0.4949  0.0941
 6707TIP3    H141756   4.484   5.414   7.223 -1.0794  0.5131 -0.2290
 6707TIP3    H241757   4.443   5.373   7.363  0.1454 -0.3439 -0.1050
 6708TIP3   OH241758   2.628   1.508   8.331  0.3320 -0.0962  0.7977
 6708TIP3    H141759   2.582   1.483   8.412  0.4824 -1.9281  0.3612
 6708TIP3    H241760   2.560   1.545   8.275 -0.3800 -1.5873  0.6478
 6709TIP3   OH241761   1.756   0.443   7.383  0.3971  0.0266  0.4314
 6709TIP3    H141762   1.733   0.387   7.458 -2.8138 -0.1210 -0.4984
 6709TIP3    H241763   1.760   0.531   7.419 -0.4865 -0.1222  0.9224
 6710TIP3   OH241764   4.183   3.367   0.813 -0.1888  0.9857 -0.1358
 6710TIP3    H141765   4.149   3.398   0.897  1.9091  2.4790  0.2646
 6710TIP3    H241766   4.119   3.398   0.748 -3.8156 -3.2651  0.9658
 6711TIP3   OH241767   2.798   3.743   2.173 -0.0182 -0.5829  0.5218
 6711TIP3    H141768   2.794   3.788   2.088  1.9450 -2.8751 -0.9094
 6711TIP3    H241769   2.708   3.715   2.190 -0.7927  1.5191  0.1819
 6712TIP3   OH241770   5.989   4.557   8.935 -0.0405 -0.8359  0.8046
 6712TIP3    H141771   6.084   4.545   8.935 -0.0575 -1.2327  2.5207
 6712TIP3    H241772   5.960   4.523   9.020 -1.6429 -0.0722  0.6130
 6713TIP3   OH241773   5.696   4.037   0.180  0.0166 -0.0500  0.3001
 6713TIP3    H141774   5.693   4.002   0.091  1.5301  0.4478  0.0269
 6713TIP3    H241775   5.608   4.021   0.215 -0.2772 -1.2197 -0.9016
 6714TIP3   OH241776   4.634   5.705   1.143 -0.7958  0.0408  0.0082
 6714TIP3    H141777   4.708   5.709   1.203  1.3703  3.6076 -2.5288
 6714TIP3    H241778   4.566   5.658   1.192  1.2050  1.3642  4.6052
 6715TIP3   OH241779   3.984   2.222   1.046 -0.5866  0.1906 -0.2072
 6715TIP3    H141780   3.971   2.290   1.113 -2.0192  0.5265 -0.7701
 6715TIP3    H241781   3.897   2.212   1.007  0.0686 -0.5204 -1.5155
 6716TIP3   OH241782   1.109   0.001   1.854  0.2588 -0.1413  0.3358
 6716TIP3    H141783   1.036  -0.061   1.856  1.1404 -1.3437 -1.7833
 6716TIP3    H241784   1.159  -0.023   1.777  1.7832  1.9671  0.5767
 6717TIP3   OH241785   6.501   1.425   7.629  0.2436 -0.3724 -0.2190
 6717TIP3    H141786   6.571   1.430   7.694  0.5012  3.4570 -0.5910
 6717TIP3    H241787   6.545   1.435   7.545 -0.6132  1.2465 -0.5079
 6718TIP3   OH241788   3.244   1.299   7.750  0.7918 -0.1830  0.2937
 6718TIP3    H141789   3.217   1.207   7.748  0.8430 -0.2376  1.3786
 6718TIP3    H241790   3.190   1.342   7.684 -0.3581 -0.7157  0.8550
 6719TIP3   OH241791   4.099   1.655   2.029 -0.2366  0.2353 -0.3813
 6719TIP3    H141792   4.145   1.616   2.103  1.5422 -1.4528 -2.2508
 6719TIP3    H241793   4.006   1.650   2.053  0.3490  2.0291  2.7152
 6720TIP3   OH241794   3.945   1.062   1.004  0.0994 -0.0254 -0.1095
 6720TIP3    H141795   3.894   0.982   1.001  1.6379 -1.1887  2.0449
 6720TIP3    H241796   3.977   1.075   0.915 -1.6237 -0.7947 -0.8589
 6721TIP3   OH241797   1.004   4.610   0.717 -0.4992 -0.0236  0.5375
 6721TIP3    H141798   0.950   4.568   0.650  0.8395 -1.3848  0.2603
 6721TIP3    H241799   1.054   4.676   0.669 -1.1721  0.5615  0.6217
 6722TIP3   OH241800   4.260   0.650   0.960 -1.2438  0.0119  0.1312
 6722TIP3    H141801   4.300   0.670   0.876  0.6490 -0.3591  0.8917
 6722TIP3    H241802   4.233   0.735   0.995 -0.4951  0.3600 -0.1216
 6723TIP3   OH241803   4.828   4.844   2.069  0.0014 -0.1238 -0.0274
 6723TIP3    H141804   4.884   4.779   2.026  0.5971  0.4129 -0.0635
 6723TIP3    H241805   4.768   4.791   2.122 -0.8742 -0.8258 -1.6110
 6724TIP3   OH241806   4.512   4.248   7.632 -0.1083  0.2558 -0.9694
 6724TIP3    H141807   4.512   4.260   7.538 -0.7980 -1.5030 -1.2408
 6724TIP3    H241808   4.578   4.309   7.665 -0.4348  1.4777 -2.4804
 6725TIP3   OH241809   6.631   5.621   8.373 -0.3339 -0.0258 -0.1750
 6725TIP3    H141810   6.718   5.616   8.335 -1.0145 -3.8125 -1.6731
 6725TIP3    H241811   6.647   5.632   8.467  1.5855  2.0233 -0.6463
 6726TIP3   OH241812   1.449   2.570   1.353  0.4144  0.6698 -0.1282
 6726TIP3    H141813   1.502   2.590   1.275  1.4710  1.6047  0.8027
 6726TIP3    H241814   1.375   2.631   1.347  1.2289  1.7330  0.3026
 6727TIP3   OH241815   0.881   6.448   7.156 -0.0334  0.1172  0.0349
 6727TIP3    H141816   0.956   6.407   7.112  0.2433 -0.3848  0.9411
 6727TIP3    H241817   0.920   6.510   7.217 -0.3869  0.3911 -0.0160
 6728TIP3   OH241818   4.223   0.419   1.318  0.2249 -0.2880  0.2904
 6728TIP3    H141819   4.255   0.372   1.395 -1.4447  0.0546  1.2418
 6728TIP3    H241820   4.159   0.482   1.352 -0.9421 -0.4651 -1.4052
 6729TIP3   OH241821   2.630   2.432   7.415 -0.1107 -0.3845 -0.0196
 6729TIP3    H141822   2.715   2.435   7.460 -0.0621  0.4597 -0.1556
 6729TIP3    H241823   2.644   2.372   7.342  1.1042  1.5716 -1.4864
 6730TIP3   OH241824   2.134   1.903   0.747 -0.3451 -0.2479 -0.5726
 6730TIP3    H141825   2.134   1.968   0.817 -1.0724  0.5585 -1.2937
 6730TIP3    H241826   2.144   1.819   0.791  0.3883  0.3349  0.3958
 6731TIP3   OH241827   3.828   0.716   1.567  0.1036  0.1125  0.2141
 6731TIP3    H141828   3.745   0.684   1.604  1.3407 -1.3244  1.9301
 6731TIP3    H241829   3.837   0.805   1.602 -0.9243  0.4767 -0.4000
 6732TIP3   OH241830   1.465   3.853   7.448  0.3660  0.3415  0.0333
 6732TIP3    H141831   1.497   3.942   7.459 -0.4619  0.5918  0.5132
 6732TIP3    H241832   1.544   3.801   7.434  1.0179  0.9131  1.3848
 6733TIP3   OH241833   2.317   2.670   2.780 -0.9428  0.2329  0.0888
 6733TIP3    H141834   2.389   2.699   2.835 -0.3935 -1.0833  0.1007
 6733TIP3    H241835   2.253   2.633   2.842 -0.7298 -0.4196 -0.0765
 6734TIP3   OH241836   0.381   1.955   1.334  0.0433 -1.0754 -0.0333
 6734TIP3    H141837   0.295   1.977   1.370 -0.2986 -1.1901 -0.7586
 6734TIP3    H241838   0.363   1.886   1.269  0.5339 -0.3148 -1.0020
 6735TIP3   OH241839   2.146   5.302   8.470  0.3406  0.0903 -0.5142
 6735TIP3    H141840   2.210   5.371   8.489  1.1828 -0.2675 -1.9518
 6735TIP3    H241841   2.072   5.348   8.432 -1.1386  0.7522  2.7820
 6736TIP3   OH241842   4.137   0.626   2.364  0.2986 -0.3673  0.0325
 6736TIP3    H141843   4.110   0.642   2.274  0.7404 -0.9776 -0.2184
 6736TIP3    H241844   4.205   0.691   2.381  2.2085 -1.9427 -1.0386
 6737TIP3   OH241845   4.482   1.354   2.293  0.0747 -0.3941  0.0800
 6737TIP3    H141846   4.554   1.337   2.233 -1.2778  0.2674 -1.8176
 6737TIP3    H241847   4.410   1.300   2.261 -0.3839 -0.8756  1.7971
 6738TIP3   OH241848   2.299   2.735   1.995 -0.4272 -0.2863 -0.1720
 6738TIP3    H141849   2.235   2.666   2.010  1.1690 -1.3189  2.3910
 6738TIP3    H241850   2.294   2.751   1.900 -1.9032 -2.8346 -0.6268
 6739TIP3   OH241851   3.652   2.874   7.255 -0.4572 -0.1979 -0.0969
 6739TIP3    H141852   3.673   2.837   7.341  0.1715  0.9321  0.2521
 6739TIP3    H241853   3.673   2.804   7.193  0.2239 -0.6112  0.5872
 6740TIP3   OH241854   4.343   3.208   2.088 -0.1125  0.6214  0.5689
 6740TIP3    H141855   4.388   3.172   2.012  0.8003  0.6560  1.0783
 6740TIP3    H241856   4.291   3.280   2.053  0.0806  0.4621 -0.0614
 6741TIP3   OH241857   0.945   2.038   8.430 -0.5267  0.6771 -0.6059
 6741TIP3    H141858   1.013   1.975   8.455 -0.5091 -0.1159 -2.4960
 6741TIP3    H241859   0.994   2.112   8.394 -0.6271 -0.0916 -2.4058
 6742TIP3   OH241860   4.240   4.826   1.322 -0.4198  0.0755 -0.1510
 6742TIP3    H141861   4.241   4.758   1.389 -0.3616 -0.3062 -0.5335
 6742TIP3    H241862   4.155   4.816   1.279 -0.4764  0.3484 -0.1016
 6743TIP3   OH241863   5.273   3.237   8.368 -0.6691 -0.1899 -0.0786
 6743TIP3    H141864   5.195   3.181   8.369 -2.0482  1.6292  1.4618
 6743TIP3    H241865   5.343   3.181   8.402 -1.5168 -1.5407 -0.4755
 6744TIP3   OH241866   2.412   4.924   0.462 -0.4297  0.1520 -0.1838
 6744TIP3    H141867   2.432   5.014   0.487  1.0727  0.1493 -1.2230
 6744TIP3    H241868   2.355   4.892   0.532 -0.6150  1.7496  0.4472
 6745TIP3   OH241869   6.672   3.267   8.379  0.4724  0.5336  0.0286
 6745TIP3    H141870   6.649   3.293   8.468  1.3541  1.0473  0.1187
 6745TIP3    H241871   6.629   3.331   8.323 -0.2845  0.0664  0.0614
 6746TIP3   OH241872   3.323   0.533   2.169  0.5582 -0.1030  0.4288
 6746TIP3    H141873   3.286   0.463   2.222 -0.3241  1.3470  1.8316
 6746TIP3    H241874   3.382   0.579   2.230 -0.2152  1.3979  0.0787
 6747TIP3   OH241875   0.890   2.594   7.967 -0.0215  0.1658 -0.1143
 6747TIP3    H141876   0.817   2.562   7.914  0.5882 -1.9874  0.2614
 6747TIP3    H241877   0.960   2.531   7.952  0.7701  0.5080  1.8399
 6748TIP3   OH241878   0.220   3.931   1.492  0.1987 -0.2638  0.0303
 6748TIP3    H141879   0.292   3.968   1.543 -0.1932 -0.8690  1.0656
 6748TIP3    H241880   0.181   3.866   1.551 -1.4160  0.2959 -0.3755
 6749TIP3   OH241881   6.114   0.592   7.858 -0.3140 -0.1007 -0.3087
 6749TIP3    H141882   6.179   0.552   7.801 -0.9430 -2.6132  0.6114
 6749TIP3    H241883   6.165   0.637   7.925  0.6039 -2.4685  0.7071
 6750TIP3   OH241884   0.321   6.186   7.794  0.6143  0.1658 -0.6742
 6750TIP3    H141885   0.245   6.128   7.804  0.3889  0.4268 -0.8673
 6750TIP3    H241886   0.286   6.265   7.752  0.9214  0.4382 -0.4270
 6751TIP3   OH241887   4.427   2.647   7.987 -0.1595 -1.0923  0.3246
 6751TIP3    H141888   4.342   2.684   7.961 -0.2329 -1.0368  0.6391
 6751TIP3    H241889   4.456   2.598   7.910 -1.0627 -2.1445  0.6236
 6752TIP3   OH241890   4.277   3.590   1.347  0.2756  0.2348  0.3580
 6752TIP3    H141891   4.222   3.592   1.269  1.7854  0.3641 -0.7342
 6752TIP3    H241892   4.219   3.622   1.417 -0.7094  1.4932 -0.9581
 6753TIP3   OH241893   3.780   3.118   0.187  0.0373 -0.1859  0.3153
 6753TIP3    H141894   3.831   3.041   0.211  2.9439  1.7698  1.0824
 6753TIP3    H241895   3.780   3.118   0.091  0.8956 -0.6108  0.3078
 6754TIP3   OH241896   0.198   2.942   8.398  0.1447 -0.1583  0.2864
 6754TIP3    H141897   0.105   2.946   8.375  0.3469  0.4843 -0.4591
 6754TIP3    H241898   0.244   2.959   8.316  0.9295 -0.5577  0.6324
 6755TIP3   OH241899   3.365   6.445   8.289  0.4802 -0.2407  0.1379
 6755TIP3    H141900   3.273   6.461   8.265  0.6551 -0.1813 -0.5032
 6755TIP3    H241901   3.368   6.462   8.383 -0.1572 -0.1889  0.1559
 6756TIP3   OH241902   6.215   1.051   1.258 -0.6711 -0.2039  0.7658
 6756TIP3    H141903   6.229   1.021   1.168  0.1826  0.6513  0.5957
 6756TIP3    H241904   6.228   0.973   1.312 -2.3302 -0.9921  0.0864
 6757TIP3   OH241905   3.663   0.760   8.908 -0.1327  0.0705  0.0041
 6757TIP3    H141906   3.732   0.706   8.870  0.8746  1.4548 -0.2140
 6757TIP3    H241907   3.695   0.783   8.995  0.3677  1.8862 -0.6267
 6758TIP3   OH241908   4.191   3.952   8.352 -0.1463  0.4289 -0.3666
 6758TIP3    H141909   4.245   3.895   8.298 -0.0298  0.4651 -0.2886
 6758TIP3    H241910   4.133   3.892   8.400  0.3604  0.3333  0.1400
 6759TIP3   OH241911   5.565   3.122   0.877  0.2601  0.1638 -0.7646
 6759TIP3    H141912   5.606   3.061   0.939 -0.8684 -0.4911 -0.6424
 6759TIP3    H241913   5.611   3.106   0.794  1.0648  0.3059 -0.3600
 6760TIP3   OH241914   0.808   0.494   9.171 -0.0317  0.2303  0.4341
 6760TIP3    H141915   0.723   0.451   9.166  0.7618 -1.6081  1.6245
 6760TIP3    H241916   0.872   0.423   9.169  1.3623  1.2597  2.7753
 6761TIP3   OH241917   5.269   1.639   2.873  0.7568 -0.1621  0.2678
 6761TIP3    H141918   5.290   1.546   2.881  0.6692 -0.1730  0.3723
 6761TIP3    H241919   5.333   1.683   2.928 -0.7744 -0.3439  2.2874
 6762TIP3   OH241920   6.276   2.149   0.797 -0.2803 -0.5804  0.5994
 6762TIP3    H141921   6.284   2.151   0.701  0.1571 -0.8794  0.6280
 6762TIP3    H241922   6.252   2.238   0.821 -0.7736 -0.5906  0.1789
 6763TIP3   OH241923   3.555   0.841   0.638 -0.1410  0.9708 -0.2267
 6763TIP3    H141924   3.520   0.890   0.712  0.3380  0.4668  0.3402
 6763TIP3    H241925   3.478   0.813   0.589 -0.5671 -0.2995  1.1144
 6764TIP3   OH241926   6.586   2.402   8.610 -0.2160  0.4968  0.0345
 6764TIP3    H141927   6.549   2.490   8.623  0.5011  0.5617  1.9433
 6764TIP3    H241928   6.681   2.416   8.606  0.0439 -0.3003  2.0772
 6765TIP3   OH241929   0.692   0.304   2.007 -0.3123 -0.6702  0.2721
 6765TIP3    H141930   0.788   0.302   2.005 -0.3294 -0.6452 -0.5846
 6765TIP3    H241931   0.667   0.215   2.031 -0.0437 -0.2613  2.2452
 6766TIP3   OH241932   6.531   5.080   2.618 -0.2750  0.6860 -0.1096
 6766TIP3    H141933   6.471   5.090   2.692  0.7468 -0.8614  1.0029
 6766TIP3    H241934   6.577   5.164   2.614  1.6628 -0.0387  2.9739
 6767TIP3   OH241935   2.811   3.111   8.122 -0.3634 -0.2912  0.0867
 6767TIP3    H141936   2.904   3.109   8.103 -0.0551  1.5546  1.1185
 6767TIP3    H241937   2.779   3.189   8.076 -1.0047  0.1209  1.1904
 6768TIP3   OH241938   3.654   5.867   0.055 -0.5374 -0.1560  0.0138
 6768TIP3    H141939   3.561   5.874   0.033 -0.4535 -0.9674 -0.6712
 6768TIP3    H241940   3.697   5.850  -0.029 -0.0550 -2.2580  0.6299
 6769TIP3   OH241941   4.981   3.947   1.205 -0.3539 -0.1057 -0.0693
 6769TIP3    H141942   4.978   4.004   1.128 -1.2820  0.2033  0.1899
 6769TIP3    H241943   4.941   3.998   1.275  1.8629  0.2200  1.0561
 6770TIP3   OH241944   2.762   2.484   0.643  0.2364  0.0058  0.0053
 6770TIP3    H141945   2.751   2.534   0.563  0.8584 -1.4159 -1.0152
 6770TIP3    H241946   2.805   2.544   0.704 -0.1912  1.0769 -0.7271
 6771TIP3   OH241947   1.602   2.215   0.945  0.1779  0.1033  0.4257
 6771TIP3    H141948   1.601   2.287   0.881  2.3077  0.9380  1.2417
 6771TIP3    H241949   1.677   2.162   0.920 -0.0986 -0.6314  1.1204
 6772TIP3   OH241950   0.599   4.839   8.806 -0.3937 -0.0125 -0.0253
 6772TIP3    H141951   0.659   4.870   8.874 -0.7136  0.2277  0.1494
 6772TIP3    H241952   0.561   4.759   8.843 -1.0865  0.4929  0.3729
 6773TIP3   OH241953   1.323   5.744   0.180  0.1442  0.2817  0.2063
 6773TIP3    H141954   1.375   5.823   0.166  1.8134 -0.8735 -0.5726
 6773TIP3    H241955   1.234   5.768   0.156  0.4889  2.0857  0.6314
 6774TIP3   OH241956   6.079   6.310   8.695 -0.0628 -0.3847  0.2148
 6774TIP3    H141957   6.010   6.269   8.643 -0.5981  0.2954  0.3829
 6774TIP3    H241958   6.160   6.284   8.651 -0.2652 -2.8839  1.1719
 6775TIP3   OH241959   3.091   4.668   1.370  0.2226 -0.0125  0.0768
 6775TIP3    H141960   3.019   4.608   1.350 -0.4590  1.0756 -0.9078
 6775TIP3    H241961   3.088   4.733   1.299  0.4387  1.6169  1.4947
 6776TIP3   OH241962   5.320   2.532   0.367  0.3142  0.4704  0.1045
 6776TIP3    H141963   5.401   2.484   0.356  0.9821  1.7427 -0.7438
 6776TIP3    H241964   5.261   2.496   0.301  0.8674  0.9209 -0.6450
 6777TIP3   OH241965   4.903   2.458   1.935  0.2235 -0.1649 -0.3580
 6777TIP3    H141966   4.814   2.456   1.900  0.1156  0.9346 -0.1641
 6777TIP3    H241967   4.959   2.454   1.857 -0.0073  0.6529 -0.5783
 6778TIP3   OH241968   1.851   2.141   8.183 -0.1717  0.5281 -0.2851
 6778TIP3    H141969   1.819   2.082   8.251  0.1713  1.3789  0.6482
 6778TIP3    H241970   1.813   2.108   8.102  0.1333 -1.0459  0.1768
 6779TIP3   OH241971   4.506   2.777   0.420  0.2261  0.5157 -0.1672
 6779TIP3    H141972   4.600   2.762   0.413  0.1615 -1.7268  2.0344
 6779TIP3    H241973   4.470   2.751   0.335  1.4441 -0.4510 -0.4079
 6780TIP3   OH241974   1.786   4.262   0.398 -0.6544  0.5319 -0.8854
 6780TIP3    H141975   1.703   4.281   0.355 -0.9964 -2.0800 -1.5776
 6780TIP3    H241976   1.838   4.216   0.332  0.7384  0.7353  0.0121
 6781TIP3   OH241977   5.063   3.951   2.081  0.0863 -0.3095  0.0163
 6781TIP3    H141978   4.973   3.971   2.057  0.2691 -0.9665 -1.3212
 6781TIP3    H241979   5.070   3.975   2.173 -1.8557 -1.5341  0.5352
 6782TIP3   OH241980   4.385   6.618   8.837 -1.0334 -0.5333  0.2401
 6782TIP3    H141981   4.406   6.706   8.808  0.3612 -0.8480  0.2280
 6782TIP3    H241982   4.431   6.560   8.776 -1.4945 -1.2659  0.5666
 6783TIP3   OH241983   1.108   0.366   0.191  0.0973 -0.6720  1.2041
 6783TIP3    H141984   1.065   0.343   0.274  1.3115  0.7262  2.2871
 6783TIP3    H241985   1.195   0.397   0.218  0.2767  0.4593 -0.5415
 6784TIP3   OH241986   4.036   5.179   2.142  0.3500 -0.6512  0.4218
 6784TIP3    H141987   3.959   5.232   2.123  0.6965  0.2524  1.3948
 6784TIP3    H241988   4.073   5.158   2.056 -1.2562 -1.5548 -0.0754
 6785TIP3   OH241989   4.226   4.946   8.327 -0.8048  0.1636 -0.0194
 6785TIP3    H141990   4.260   4.856   8.329 -0.9829  0.0990  0.2405
 6785TIP3    H241991   4.143   4.939   8.281 -1.3631 -0.0043  0.9792
 6786TIP3   OH241992   1.865   2.350   0.655  0.4644  0.0157  0.4177
 6786TIP3    H141993   1.888   2.276   0.599 -0.5722  0.8108 -1.1306
 6786TIP3    H241994   1.949   2.384   0.686  1.0167 -0.9634  0.0409
 6787TIP3   OH241995   3.533   1.728   9.130 -0.0082  0.5357  0.4470
 6787TIP3    H141996   3.505   1.655   9.076 -1.5259  1.2116  0.2644
 6787TIP3    H241997   3.453   1.778   9.147  1.3452  4.1777 -2.4498
 6788TIP3   OH241998   3.298   0.257   0.971  0.8600 -0.1413 -0.2053
 6788TIP3    H141999   3.233   0.199   1.009  1.6493 -0.5640  0.5316
 6788TIP3    H242000   3.260   0.345   0.979  0.6605 -0.3168  0.7959
 6789TIP3   OH242001   1.458   2.302   7.426 -0.5407 -0.3268 -0.3431
 6789TIP3    H142002   1.478   2.292   7.333 -0.2261 -0.0615 -0.3030
 6789TIP3    H242003   1.516   2.240   7.471 -1.0604 -0.8370 -0.3581
 6790TIP3   OH242004   0.438   3.322   1.644 -0.4984 -0.2922 -0.4480
 6790TIP3    H142005   0.465   3.267   1.571 -0.5208  0.8630 -1.3516
 6790TIP3    H242006   0.426   3.261   1.717 -1.3608 -1.5832 -1.6303
 6791TIP3   OH242007   0.649   2.560   0.049 -0.2551 -0.9588 -0.0301
 6791TIP3    H142008   0.582   2.619   0.015 -1.2132 -2.0859 -0.1732
 6791TIP3    H242009   0.604   2.476   0.058  0.9014 -1.5137  0.7713
 6792TIP3   OH242010   3.627   0.596   9.210 -0.0966 -0.4541 -0.1060
 6792TIP3    H142011   3.639   0.542   9.132  1.1222  2.9807 -2.5678
 6792TIP3    H242012   3.715   0.620   9.237 -0.5729  0.7391  0.4788
 6793TIP3   OH242013   4.429   5.462   0.217  0.2778 -0.3126  0.6912
 6793TIP3    H142014   4.371   5.396   0.180  1.3498 -1.5879  1.1766
 6793TIP3    H242015   4.371   5.525   0.259 -0.7717 -1.0699  0.4016
 6794TIP3   OH242016   5.463   1.609   2.026 -1.2361 -0.5152 -0.5224
 6794TIP3    H142017   5.524   1.534   2.028  1.4114  1.5050  1.0027
 6794TIP3    H242018   5.398   1.588   2.093  0.3413 -0.8293  0.9772
 6795TIP3   OH242019   1.860   5.519   8.692 -0.0285 -0.2101 -0.1952
 6795TIP3    H142020   1.955   5.528   8.683 -0.0405  1.2995  0.7679
 6795TIP3    H242021   1.831   5.602   8.731 -1.5690 -1.1251  0.7578
 6796TIP3   OH242022   5.878   2.305   1.259 -0.0590 -0.2611 -0.7739
 6796TIP3    H142023   5.891   2.329   1.350 -0.9950 -0.2172 -0.6389
 6796TIP3    H242024   5.787   2.273   1.255  0.3127 -1.3013 -1.4661
 6797TIP3   OH242025   5.048   4.885   8.712 -0.6331  0.2999  0.3494
 6797TIP3    H142026   4.975   4.845   8.760  0.5279 -1.4820  0.7284
 6797TIP3    H242027   5.123   4.876   8.771  0.5883 -0.9127 -1.2931
 6798TIP3   OH242028   3.726   0.852   8.558 -0.4879 -0.1812 -0.1586
 6798TIP3    H142029   3.683   0.800   8.491  1.5181 -2.7497  0.3654
 6798TIP3    H242030   3.806   0.885   8.516 -0.2261 -0.1040  0.3810
 6799TIP3   OH242031   5.256   5.026   0.068  0.7727 -0.3354  0.8005
 6799TIP3    H142032   5.329   5.032   0.006  0.8204  0.1860  0.8965
 6799TIP3    H242033   5.187   5.079   0.028  0.7685 -0.0820  1.1453
 6800TIP3   OH242034   1.791   0.529   2.520  0.6246 -0.5627 -0.3047
 6800TIP3    H142035   1.731   0.454   2.517 -1.9669  1.3688 -0.6632
 6800TIP3    H242036   1.820   0.540   2.429  0.0538 -0.4764 -0.4875
 6801TIP3   OH242037   1.531   1.665   8.513 -0.6560  0.2033  0.1949
 6801TIP3    H142038   1.549   1.610   8.590 -0.6362  1.3768  1.0535
 6801TIP3    H242039   1.510   1.751   8.550  4.3223  2.3459 -1.1571
 6802TIP3   OH242040   4.470   4.981   1.802 -0.1096 -0.8866 -0.0158
 6802TIP3    H142041   4.508   5.021   1.724 -1.1935 -1.2989 -0.7676
 6802TIP3    H242042   4.493   4.888   1.796  0.9794 -0.7004  0.8805
 6803TIP3   OH242043   4.176   5.160   2.708 -0.4086  0.3843  0.7381
 6803TIP3    H142044   4.165   5.087   2.647 -2.1076  1.6951 -0.6357
 6803TIP3    H242045   4.248   5.133   2.765  2.9002 -0.0300 -3.1978
 6804TIP3   OH242046   5.094   3.364   0.463  0.4193 -0.3148 -0.3030
 6804TIP3    H142047   5.049   3.341   0.381  0.6600  0.7556 -0.7517
 6804TIP3    H242048   5.028   3.350   0.531 -0.8966  1.9566 -1.0189
 6805TIP3   OH242049   6.404   3.535   0.901  0.0738  0.5803  0.7565
 6805TIP3    H142050   6.457   3.554   0.978 -1.5587  0.5259  1.9401
 6805TIP3    H242051   6.403   3.440   0.895 -0.8365  0.5346  1.4496
 6806TIP3   OH242052   4.093   4.080   8.816 -0.9517 -0.3635  0.1113
 6806TIP3    H142053   4.077   4.136   8.892 -1.2120  0.1213 -0.3028
 6806TIP3    H242054   4.173   4.032   8.838  0.1918  1.3359 -0.2021
 6807TIP3   OH242055   1.213   0.918   8.379  0.0724  0.2692 -0.2965
 6807TIP3    H142056   1.232   0.835   8.423  0.9043  1.0196  0.8207
 6807TIP3    H242057   1.291   0.971   8.394 -0.1532  1.0070 -1.6242
 6808TIP3   OH242058   4.862   2.545   8.989  0.0484  0.1540 -0.4629
 6808TIP3    H142059   4.918   2.481   9.033 -1.1556 -0.3725  0.3624
 6808TIP3    H242060   4.850   2.510   8.900  0.7871  0.1353 -0.5609
 6809TIP3   OH242061   3.733   1.976   0.434  0.2468 -1.0796  0.4833
 6809TIP3    H142062   3.799   2.044   0.421 -1.4871  1.0543  2.1187
 6809TIP3    H242063   3.708   1.951   0.346  1.5374 -0.2265 -0.1671
 6810TIP3   OH242064   2.599   2.243   2.580  0.1016  0.5731  0.6423
 6810TIP3    H142065   2.687   2.234   2.616  0.4577  1.4531  0.0164
 6810TIP3    H242066   2.563   2.154   2.581  0.7978  0.2942  1.3873
 6811TIP3   OH242067   1.336   0.046   1.398  0.9319 -0.6261 -0.1641
 6811TIP3    H142068   1.397   0.088   1.458  0.8502 -2.1326  1.0420
 6811TIP3    H242069   1.321   0.111   1.329  3.1467  0.1309 -0.0062
 6812TIP3   OH242070   2.283   6.448   0.820  0.0858  0.4536  0.2162
 6812TIP3    H142071   2.247   6.484   0.739  2.3081  0.0666 -1.0494
 6812TIP3    H242072   2.336   6.373   0.792 -0.9937 -1.2280  2.3241
 6813TIP3   OH242073   0.806   0.197   8.147 -0.3161 -0.4836 -0.2139
 6813TIP3    H142074   0.781   0.245   8.069  0.7838  1.6795  0.6780
 6813TIP3    H242075   0.791   0.258   8.219 -1.7340 -2.5566  1.3703
 6814TIP3   OH242076   4.740   4.584   7.485 -0.0080 -0.1807 -0.3774
 6814TIP3    H142077   4.789   4.666   7.489 -0.9931  0.4064  0.3826
 6814TIP3    H242078   4.649   4.611   7.499 -0.5082 -1.2646 -1.4141
 6815TIP3   OH242079   3.693   3.132   8.829  0.2437 -0.5686 -0.4838
 6815TIP3    H142080   3.721   3.046   8.798 -0.1852 -0.1694 -2.1000
 6815TIP3    H242081   3.725   3.193   8.762 -0.4365  0.4019  0.0513
 6816TIP3   OH242082   1.570   2.754   7.819 -0.2858  0.4781  0.0679
 6816TIP3    H142083   1.585   2.744   7.724 -1.3355  0.2126 -0.0829
 6816TIP3    H242084   1.621   2.683   7.858  0.0040  0.4689 -0.3169
 6817TIP3   OH242085   5.647   0.999   2.075 -0.8582  0.5013 -0.5029
 6817TIP3    H142086   5.595   1.061   2.127 -1.0367 -1.3916  1.7807
 6817TIP3    H242087   5.617   0.913   2.103  1.4229 -0.6615 -1.3164
 6818TIP3   OH242088   3.540   3.569   2.242  0.4852  0.0654 -0.3453
 6818TIP3    H142089   3.555   3.662   2.224  0.5673  0.3082  0.8678
 6818TIP3    H242090   3.445   3.558   2.239  0.4096  0.4256  0.5447
 6819TIP3   OH242091   2.009   5.048   1.590  0.0855 -0.3798 -0.1158
 6819TIP3    H142092   1.983   5.003   1.670  0.4432 -1.3302 -0.5127
 6819TIP3    H242093   1.968   5.134   1.596  1.1794  0.0610  1.6908
 6820TIP3   OH242094   3.674   3.762   8.546  0.2465 -0.1664  0.0034
 6820TIP3    H142095   3.660   3.773   8.640  0.5311 -3.1523  0.4918
 6820TIP3    H242096   3.769   3.770   8.535  0.5482 -2.3895  0.4845
 6821TIP3   OH242097   1.031   4.094   7.476  0.4086 -0.4087  0.4729
 6821TIP3    H142098   0.975   4.113   7.401 -0.6052  3.5954  1.9799
 6821TIP3    H242099   1.002   4.008   7.507 -1.8450 -0.4177 -1.3925
 6822TIP3   OH242100   0.486   6.224   8.017 -0.1189  0.1003 -0.2969
 6822TIP3    H142101   0.487   6.320   8.016 -0.0494  0.1028 -0.0408
 6822TIP3    H242102   0.434   6.200   7.940  0.8746  0.3168 -1.0472
 6823TIP3   OH242103   2.354   4.304   8.808 -0.4476  0.1411  0.6227
 6823TIP3    H142104   2.348   4.314   8.903  0.5677 -0.3619  0.7584
 6823TIP3    H242105   2.386   4.215   8.795  2.5991  1.1814 -0.0195
 6824TIP3   OH242106   5.755   6.047   0.244  0.1955  0.2861  0.5490
 6824TIP3    H142107   5.815   6.084   0.179  0.9614  0.4201  1.3116
 6824TIP3    H242108   5.747   6.116   0.310 -0.3637  0.0507  0.7300
 6825TIP3   OH242109   2.199   4.649   1.723  0.0555 -0.2417  0.7074
 6825TIP3    H142110   2.149   4.643   1.804  0.1997 -3.4150  0.6896
 6825TIP3    H242111   2.286   4.676   1.751 -0.3879  0.5950  1.3334
 6826TIP3   OH242112   4.631   5.314   0.350 -0.3829 -0.1812 -0.0122
 6826TIP3    H142113   4.574   5.376   0.304  0.9550  0.1988 -1.2456
 6826TIP3    H242114   4.580   5.234   0.355 -0.7074 -0.1470 -1.9393
 6827TIP3   OH242115   2.419   3.281   7.337  0.4758 -0.0656 -0.2595
 6827TIP3    H142116   2.502   3.306   7.297  0.2199  0.8326 -0.2620
 6827TIP3    H242117   2.389   3.206   7.287  1.2827 -0.3962 -0.2593
 6828TIP3   OH242118   1.666   1.248   0.464  0.2077  0.5260 -0.0422
 6828TIP3    H142119   1.652   1.333   0.507  0.4864  0.0485  1.0247
 6828TIP3    H242120   1.666   1.185   0.535 -3.7633 -0.9256 -1.0722
 6829TIP3   OH242121   2.885   1.132   0.517 -0.4015  0.5479 -0.0531
 6829TIP3    H142122   2.837   1.199   0.565 -1.2020  0.7042 -1.0444
 6829TIP3    H242123   2.818   1.084   0.468  0.3608  0.2554 -0.8404
 6830TIP3   OH242124   0.140   2.496   0.810  1.0561  0.2503  0.3571
 6830TIP3    H142125   0.094   2.559   0.866 -0.7530 -0.6795 -0.0049
 6830TIP3    H242126   0.217   2.544   0.779  0.4361  1.8396  1.1404
 6831TIP3   OH242127   4.848   0.371   0.806  0.0703 -0.1820  0.0803
 6831TIP3    H142128   4.864   0.409   0.892  0.9289  1.0774 -0.5915
 6831TIP3    H242129   4.758   0.397   0.784 -0.8926 -2.1973  1.3836
 6832TIP3   OH242130   5.914   3.806   0.688 -0.4208  0.1919  0.1610
 6832TIP3    H142131   5.959   3.827   0.606  0.0574  0.2487  0.4304
 6832TIP3    H242132   5.981   3.764   0.742 -1.3542 -2.0862 -0.3528
 6833TIP3   OH242133   5.635   5.998   3.093 -0.5949  0.2449  0.1961
 6833TIP3    H142134   5.630   5.915   3.045  0.4946 -0.4361  1.1923
 6833TIP3    H242135   5.715   5.991   3.145  0.6718  2.7932 -1.2126
 6834TIP3   OH242136   2.273   5.956   1.169  0.2053  0.4784  0.2415
 6834TIP3    H142137   2.269   5.894   1.096 -0.0919  1.2049 -0.3622
 6834TIP3    H242138   2.232   5.909   1.242 -1.4332  0.5089 -0.6119
 6835TIP3   OH242139   0.017   2.685   8.295 -0.1093 -0.0272 -0.0895
 6835TIP3    H142140  -0.023   2.729   8.370  0.3105 -1.1456  0.8352
 6835TIP3    H242141   0.086   2.744   8.266 -0.6033  0.6430  0.0830
 6836TIP3   OH242142   4.219   1.567   9.018  0.4844 -0.1147 -0.1221
 6836TIP3    H142143   4.297   1.538   8.971 -1.4660 -1.9562 -2.4862
 6836TIP3    H242144   4.169   1.616   8.953 -0.5910  0.5772  1.1915
 6837TIP3   OH242145   5.278   1.144   0.667  0.2105 -0.5259 -0.0214
 6837TIP3    H142146   5.339   1.179   0.732  0.1190  0.6389 -0.5274
 6837TIP3    H242147   5.193   1.141   0.711  0.4629 -1.3679  0.4278
 6838TIP3   OH242148   2.218   2.838   8.549  0.5195  0.0753 -0.3438
 6838TIP3    H142149   2.197   2.888   8.470  1.5631 -0.1878 -0.8155
 6838TIP3    H242150   2.313   2.848   8.558  0.7295 -1.6521 -0.3550
 6839TIP3   OH242151   1.553   5.182   8.601 -0.1534 -0.2102 -0.2235
 6839TIP3    H142152   1.618   5.111   8.603 -1.0162 -1.0383  2.2499
 6839TIP3    H242153   1.549   5.208   8.509  3.4264 -0.3177 -0.5754
 6840TIP3   OH242154   5.594   0.191   2.566 -0.3943  0.2966 -0.1064
 6840TIP3    H142155   5.639   0.231   2.492 -0.3856 -0.2689 -0.4187
 6840TIP3    H242156   5.655   0.201   2.640 -0.0209  0.0836 -0.3816
 6841TIP3   OH242157   3.341   5.167   1.093  0.0740 -0.1174 -0.5242
 6841TIP3    H142158   3.422   5.127   1.125  0.3005  0.7750  0.0741
 6841TIP3    H242159   3.274   5.139   1.155 -0.1468 -1.0752 -1.1711
 6842TIP3   OH242160   4.966   5.060   1.281 -0.5821  0.0735  0.1409
 6842TIP3    H142161   4.972   5.069   1.186 -2.4837 -0.2342 -0.0410
 6842TIP3    H242162   5.016   5.134   1.315  0.8946 -0.3232 -1.0721
 6843TIP3   OH242163   5.910   2.133   7.584  0.1010  0.0828 -0.1585
 6843TIP3    H142164   5.831   2.134   7.530  0.1315  0.8153 -0.1970
 6843TIP3    H242165   5.887   2.184   7.662  0.8253  1.1231 -0.6021
 6844TIP3   OH242166   4.833   4.496   0.393 -0.6654 -0.2175 -0.0881
 6844TIP3    H142167   4.745   4.520   0.362 -0.7363  0.6122  0.7336
 6844TIP3    H242168   4.861   4.427   0.333 -0.6162  1.6315 -2.3257
 6845TIP3   OH242169   2.026   5.629   7.822  0.1567  0.5817 -0.1582
 6845TIP3    H142170   2.066   5.716   7.819 -1.6360  1.4351 -1.6833
 6845TIP3    H242171   2.090   5.572   7.778  1.3907  1.0708  0.9388
 6846TIP3   OH242172   0.527   0.554   8.100 -0.9328  0.1684 -0.4211
 6846TIP3    H142173   0.595   0.620   8.089  0.5517 -1.3290 -0.5925
 6846TIP3    H242174   0.460   0.598   8.154  0.4067  1.5042  0.2428
 6847TIP3   OH242175   0.442   2.980   8.182 -0.0557  0.2203 -0.8025
 6847TIP3    H142176   0.490   2.901   8.155 -0.6318 -0.5724  0.3801
 6847TIP3    H242177   0.366   2.983   8.124 -0.8126 -0.9543  0.0830
 6848TIP3   OH242178   1.883   1.619   0.174 -0.5263  0.4507  0.0519
 6848TIP3    H142179   1.944   1.608   0.247 -1.1360 -0.3670  0.4501
 6848TIP3    H242180   1.859   1.712   0.177  0.4902  0.7273  0.0486
 6849TIP3   OH242181   6.522   3.201   1.902  0.3588  0.1690 -0.7355
 6849TIP3    H142182   6.576   3.228   1.976  2.8429 -1.4267 -1.8209
 6849TIP3    H242183   6.561   3.119   1.872 -1.5626 -0.1061 -2.8129
 6850TIP3   OH242184   2.025   1.709   1.866 -1.1189  0.1115 -0.3394
 6850TIP3    H142185   2.052   1.749   1.949 -0.0258  0.5472 -0.8947
 6850TIP3    H242186   1.959   1.770   1.831 -0.1225  0.9816 -0.7459
 6851TIP3   OH242187   1.662   6.020   8.802 -0.4897  0.1371  0.5252
 6851TIP3    H142188   1.630   6.110   8.801 -0.9402  0.0303  2.2495
 6851TIP3    H242189   1.662   5.995   8.895  1.0594 -1.1369  0.2256
 6852TIP3   OH242190   6.568   3.841   9.036 -0.1818 -0.0968 -0.4690
 6852TIP3    H142191   6.574   3.796   8.952 -0.3192 -0.5706 -0.2248
 6852TIP3    H242192   6.609   3.781   9.098 -1.1374 -0.2678  0.0063
 6853TIP3   OH242193   5.568   1.233   2.216  0.1175  0.0720  0.2252
 6853TIP3    H142194   5.482   1.257   2.252 -1.1496 -0.0137 -2.4494
 6853TIP3    H242195   5.631   1.284   2.267 -1.9078  4.0799 -0.8836
 6854TIP3   OH242196   4.535   1.349   1.329 -0.0644  0.4417 -0.4960
 6854TIP3    H142197   4.592   1.327   1.255 -1.3038  0.4369 -1.4926
 6854TIP3    H242198   4.570   1.432   1.362  1.2914 -0.2072 -0.2338
 6855TIP3   OH242199   2.219   3.437   1.077  0.0135  0.1684  0.1660
 6855TIP3    H142200   2.287   3.387   1.032  1.8698  2.1237  0.5978
 6855TIP3    H242201   2.162   3.371   1.115  1.1730 -1.5692 -0.9565
 6856TIP3   OH242202   1.478   4.489   0.295  0.1470  0.4190  0.3686
 6856TIP3    H142203   1.387   4.491   0.325  0.1300 -1.5758  0.5451
 6856TIP3    H242204   1.496   4.397   0.277  1.9961  0.8361 -0.1397
 6857TIP3   OH242205   1.384   5.761   2.869 -0.1439  0.2792 -0.4778
 6857TIP3    H142206   1.296   5.786   2.898 -0.9701 -3.2776  0.4565
 6857TIP3    H242207   1.370   5.716   2.786  0.6414 -1.1082  0.1092
 6858TIP3   OH242208   5.449   4.251   0.498  0.8823 -0.2351  0.5752
 6858TIP3    H142209   5.488   4.339   0.506  1.6051 -0.4600 -0.2566
 6858TIP3    H242210   5.408   4.235   0.583 -0.2053  1.3421  0.3868
 6859TIP3   OH242211   5.778   0.144   0.462 -0.2765  0.2203  0.0890
 6859TIP3    H142212   5.848   0.114   0.404  1.1151 -1.1730  2.3420
 6859TIP3    H242213   5.724   0.066   0.478  1.8238 -0.7251  3.8645
 6860TIP3   OH242214   3.516   2.546   7.353  0.0909 -0.3860  0.8243
 6860TIP3    H142215   3.495   2.462   7.395 -1.2500  0.6171  2.2883
 6860TIP3    H242216   3.610   2.557   7.367  0.4481 -1.9723 -0.0738
 6861TIP3   OH242217   1.470   0.344   7.431  0.1438 -0.0219  0.1076
 6861TIP3    H142218   1.464   0.254   7.399  1.4172 -0.6079  1.4124
 6861TIP3    H242219   1.466   0.336   7.527 -2.2171  1.5399  0.2337
 6862TIP3   OH242220   4.025   2.887   1.882 -0.1658  0.5444  0.3210
 6862TIP3    H142221   4.073   2.865   1.802  0.7156  1.1335  0.6709
 6862TIP3    H242222   4.087   2.871   1.952 -0.2019  2.0466  0.7329
 6863TIP3   OH242223   2.703   3.882   8.577 -0.0188  0.0045 -0.2850
 6863TIP3    H142224   2.675   3.868   8.668 -0.9460 -1.4325 -0.7554
 6863TIP3    H242225   2.796   3.858   8.577 -0.3582 -1.4127  0.0165
 6864TIP3   OH242226   2.075   2.392   8.250  0.1947 -0.2298 -0.0272
 6864TIP3    H142227   2.143   2.458   8.243  1.0754 -1.2630 -2.0718
 6864TIP3    H242228   2.053   2.370   8.159 -1.7865 -1.0259  0.5841
 6865TIP3   OH242229   5.623   1.169   0.100 -0.1804 -0.1495  0.4398
 6865TIP3    H142230   5.632   1.158   0.195 -1.3735  0.9589  0.7145
 6865TIP3    H242231   5.538   1.132   0.080 -0.4144  0.6060 -0.0090
 6866TIP3   OH242232   6.273   1.919   9.123  0.0265  0.5572  0.9461
 6866TIP3    H142233   6.181   1.936   9.144 -0.4289 -1.1298  0.4573
 6866TIP3    H242234   6.289   1.970   9.044 -0.6107  0.5514  0.8032
 6867TIP3   OH242235   5.218   3.967   8.433 -0.7664 -0.0601 -0.5119
 6867TIP3    H142236   5.145   3.907   8.421 -0.1217 -1.6888  2.7332
 6867TIP3    H242237   5.289   3.912   8.467  0.0657  2.3913  2.0257
 6868TIP3   OH242238   5.433   4.432   7.206 -0.2177  0.4034  0.0579
 6868TIP3    H142239   5.527   4.427   7.192 -0.4220 -0.1779 -1.3094
 6868TIP3    H242240   5.402   4.343   7.192 -1.0804  0.7656 -0.4102
 6869TIP3   OH242241   1.041   4.452   6.832  0.0907  0.1249 -0.2621
 6869TIP3    H142242   1.010   4.542   6.844  0.2432 -0.0698  2.2819
 6869TIP3    H242243   1.018   4.408   6.915  0.5767 -2.0133 -1.1953
 6870TIP3   OH242244   4.508   4.856   2.670  0.1569  0.2809  0.1642
 6870TIP3    H142245   4.542   4.896   2.750  1.4673  1.9960 -1.1613
 6870TIP3    H242246   4.579   4.798   2.641 -0.4003 -0.5024  0.3351
 6871TIP3   OH242247   1.226   3.217   0.816 -0.1452  0.2904  0.2980
 6871TIP3    H142248   1.273   3.300   0.813  0.2716  0.0348 -0.8345
 6871TIP3    H242249   1.286   3.156   0.859  0.1581  0.2186 -0.2176
 6872TIP3   OH242250   2.383   0.018   0.349 -0.5461 -0.4348  0.6015
 6872TIP3    H142251   2.433   0.000   0.269 -2.4702 -0.8739 -0.5764
 6872TIP3    H242252   2.417   0.101   0.381 -0.1083  0.0527 -1.0304
 6873TIP3   OH242253   3.352   4.420   1.148 -0.2879  0.3404  0.1244
 6873TIP3    H142254   3.440   4.410   1.186 -0.5361  0.4372  0.7399
 6873TIP3    H242255   3.293   4.387   1.216 -0.7158  0.0589 -0.3792
 6874TIP3   OH242256   5.788   0.010   0.152  0.0549  0.5583 -0.3837
 6874TIP3    H142257   5.810   0.094   0.111 -0.0515  0.1661 -1.2619
 6874TIP3    H242258   5.834  -0.055   0.099  0.0675  0.0512  0.2390
 6875TIP3   OH242259   4.503   4.002   8.864 -0.0646 -0.2392  0.3514
 6875TIP3    H142260   4.464   4.022   8.779  0.6036  3.9379  0.7711
 6875TIP3    H242261   4.597   4.010   8.850  0.0990 -0.4194  1.2676
 6876TIP3   OH242262   0.516   0.493   2.115 -0.3093 -0.3372 -0.1279
 6876TIP3    H142263   0.580   0.438   2.070 -0.3891 -0.6654  0.1595
 6876TIP3    H242264   0.545   0.493   2.206  1.2816  2.2836 -0.5247
 6877TIP3   OH242265   3.052   0.176   1.445  0.2038  0.0877 -0.7251
 6877TIP3    H142266   2.994   0.203   1.517  1.8917  0.5019  0.5416
 6877TIP3    H242267   2.998   0.119   1.391 -0.9190 -0.9086  1.3114
 6878TIP3   OH242268   2.003   2.807   2.416 -0.2997  0.0207 -0.0174
 6878TIP3    H142269   1.970   2.745   2.351 -2.0480  0.2201  0.6245
 6878TIP3    H242270   2.023   2.753   2.493 -1.0318  0.1457  0.2627
 6879TIP3   OH242271   1.522   1.359   8.997  0.0277 -0.8448  0.1267
 6879TIP3    H142272   1.545   1.330   8.909  0.4060 -2.4177  0.6971
 6879TIP3    H242273   1.427   1.348   9.002 -0.2670  0.9965 -0.6428
 6880TIP3   OH242274   5.253   3.571   8.038 -0.2551  0.0395 -0.7733
 6880TIP3    H142275   5.315   3.577   7.965  1.1797 -0.7168  0.3451
 6880TIP3    H242276   5.282   3.495   8.088 -0.0730  1.5873  1.6224
 6881TIP3   OH242277   4.358   3.686   2.242 -0.5382 -0.3032  0.2815
 6881TIP3    H142278   4.441   3.656   2.204 -1.5845 -1.8896 -0.9167
 6881TIP3    H242279   4.359   3.652   2.331  0.7133  0.9627  0.7745
 6882TIP3   OH242280   1.104   1.859   2.212  0.6223 -0.1807  0.4818
 6882TIP3    H142281   1.037   1.897   2.156  1.7654  1.0708 -0.1096
 6882TIP3    H242282   1.065   1.780   2.248 -0.5348 -0.4119 -1.2222
 6883TIP3   OH242283   1.158   3.046   7.553  0.6869  0.1787 -1.0960
 6883TIP3    H142284   1.148   3.074   7.462  0.3684 -2.5526 -2.0114
 6883TIP3    H242285   1.079   2.995   7.571  0.3613  1.3327  1.0283
 6884TIP3   OH242286   1.045   5.532   0.953  0.0697  0.4095  0.2772
 6884TIP3    H142287   1.113   5.465   0.951 -0.6839 -0.3812 -1.9892
 6884TIP3    H242288   0.963   5.483   0.959 -0.3827  1.3025  1.8246
 6885TIP3   OH242289   2.352   6.493   2.466  0.1883  0.4031  0.7620
 6885TIP3    H142290   2.293   6.461   2.397  1.3128 -0.9650  0.3851
 6885TIP3    H242291   2.421   6.426   2.471  2.6713  2.7223 -0.0111
 6886TIP3   OH242292   1.864   3.350   2.368 -0.6341  0.1567 -0.0358
 6886TIP3    H142293   1.943   3.384   2.408  0.6684 -0.6126 -1.7941
 6886TIP3    H242294   1.843   3.271   2.418  0.8371 -0.6812 -0.6980
 6887TIP3   OH242295   6.308   2.161   7.089  1.0638  0.5364 -0.5549
 6887TIP3    H142296   6.352   2.102   7.151  0.2511 -1.8989 -2.1409
 6887TIP3    H242297   6.274   2.103   7.021  1.5297  3.0111 -3.0822
 6888TIP3   OH242298   5.693   2.399   3.135 -0.0407 -0.0829  0.0452
 6888TIP3    H142299   5.649   2.475   3.098 -0.3823 -0.2774  0.0435
 6888TIP3    H242300   5.743   2.362   3.062 -3.0800 -2.2384 -1.1281
 6889TIP3   OH242301   2.317   5.967   0.731 -0.8994 -0.1085  0.8806
 6889TIP3    H142302   2.295   6.034   0.795  3.5602  1.6846  0.8654
 6889TIP3    H242303   2.329   6.014   0.649  0.7170 -1.1113  0.4842
 6890TIP3   OH242304   3.381   1.937   2.011 -0.5486 -0.4471  0.2605
 6890TIP3    H142305   3.324   1.989   1.953  0.2674 -0.8637 -0.9482
 6890TIP3    H242306   3.467   1.977   2.001 -0.4672 -0.2756  1.5301
 6891TIP3   OH242307   0.587   2.181   0.600  0.0185  0.4824  0.1762
 6891TIP3    H142308   0.568   2.093   0.631 -1.1519  1.9829  4.4134
 6891TIP3    H242309   0.681   2.191   0.610 -0.0894  0.2755  1.6492
 6892TIP3   OH242310   5.983   6.660   0.413  0.2977 -0.2238  0.0528
 6892TIP3    H142311   5.973   6.568   0.391 -0.8217  0.2927 -1.8279
 6892TIP3    H242312   6.062   6.663   0.467  0.4791 -2.2432 -0.0220
 6893TIP3   OH242313   3.481   4.681   7.545 -0.0422  0.1554  0.4087
 6893TIP3    H142314   3.440   4.595   7.531 -0.0862  0.1000  0.8362
 6893TIP3    H242315   3.535   4.669   7.623  0.9887  0.1685 -0.2925
 6894TIP3   OH242316   5.452   5.383   2.835 -0.3599  0.6539  0.3343
 6894TIP3    H142317   5.426   5.305   2.883  1.4844 -0.4114 -0.3259
 6894TIP3    H242318   5.395   5.383   2.757 -0.4117  0.0138  0.3690
 6895TIP3   OH242319   3.052   4.677   0.727  0.0347 -0.0422 -0.2025
 6895TIP3    H142320   3.123   4.732   0.759  0.2241  0.2196 -1.0633
 6895TIP3    H242321   2.973   4.728   0.744  0.2582  0.8183 -1.6114
 6896TIP3   OH242322   3.866   5.721   2.037 -0.3654  0.6297 -0.3059
 6896TIP3    H142323   3.771   5.707   2.038 -0.4336  1.0209 -0.9543
 6896TIP3    H242324   3.897   5.681   2.119 -1.1274  0.7918  0.0700
 6897TIP3   OH242325   1.992   5.157   8.160 -0.3931 -0.2132 -0.1257
 6897TIP3    H142326   2.049   5.202   8.097  0.7209 -1.5928 -0.1763
 6897TIP3    H242327   1.971   5.223   8.226 -0.3795  0.8661 -1.1582
 6898TIP3   OH242328   6.380   4.696   2.677  0.2006  0.1946 -0.2213
 6898TIP3    H142329   6.323   4.771   2.694 -0.1348 -0.4758  1.7678
 6898TIP3    H242330   6.468   4.734   2.671 -0.1010  0.8765 -0.4070
 6899TIP3   OH242331   0.741   5.311   8.295  0.3596  0.2032  0.6182
 6899TIP3    H142332   0.824   5.349   8.324  1.0573 -1.5093  0.9533
 6899TIP3    H242333   0.715   5.366   8.221  2.2743  0.2053 -0.1133
 6900TIP3   OH242334   0.483   4.597   0.987  0.4842  0.2235  0.1211
 6900TIP3    H142335   0.437   4.517   0.962  1.4838 -1.0440  2.0870
 6900TIP3    H242336   0.424   4.639   1.049  0.5840  0.2516  0.1967
 6901TIP3   OH242337   4.389   1.658   8.366  0.4146  0.5802  0.0418
 6901TIP3    H142338   4.384   1.620   8.278  0.4297 -0.5530  0.5147
 6901TIP3    H242339   4.301   1.689   8.384 -0.2892 -1.6018  0.6529
 6902TIP3   OH242340   6.238   4.762   0.779 -0.4008  0.1127 -0.0434
 6902TIP3    H142341   6.333   4.750   0.780 -0.3833  0.2485 -0.0333
 6902TIP3    H242342   6.204   4.685   0.732 -0.2571  0.2507 -0.3776
 6903TIP3   OH242343   4.148   4.014   2.637 -0.0751 -0.8682  0.2430
 6903TIP3    H142344   4.238   4.016   2.671  0.9928 -0.1076 -2.3992
 6903TIP3    H242345   4.127   3.921   2.631  1.5055 -1.1759 -1.3316
 6904TIP3   OH242346   2.257   1.797   1.140  0.1439 -0.1823 -0.3911
 6904TIP3    H142347   2.223   1.792   1.229 -1.1504  0.4300 -0.8272
 6904TIP3    H242348   2.276   1.890   1.127  0.4133 -0.2826 -0.7308
 6905TIP3   OH242349   4.035   4.045   0.804 -0.5332  0.0296 -1.1033
 6905TIP3    H142350   4.062   4.137   0.804 -1.1443  0.2375  0.2822
 6905TIP3    H242351   3.939   4.048   0.800 -0.6373 -0.4705  0.2743
 6906TIP3   OH242352   2.972   3.314   7.174 -0.2526 -0.1771 -0.1378
 6906TIP3    H142353   3.043   3.250   7.170  0.4516  0.5184  0.6384
 6906TIP3    H242354   2.984   3.358   7.258 -1.7456 -0.1832  0.1033
 6907TIP3   OH242355   3.525   2.084   8.939  0.3934  0.2036 -0.2315
 6907TIP3    H142356   3.492   2.066   9.027 -1.4827  2.7237 -0.3165
 6907TIP3    H242357   3.495   2.010   8.886  0.0708 -0.4997  0.9188
 6908TIP3   OH242358   1.454   5.647   1.472 -0.1159  0.2008  0.6848
 6908TIP3    H142359   1.385   5.581   1.482 -0.0305  0.0794  0.4728
 6908TIP3    H242360   1.535   5.599   1.485 -0.1153  0.7294  3.0975
 6909TIP3   OH242361   1.627   1.948   0.818 -0.0149  0.3265 -0.3966
 6909TIP3    H142362   1.720   1.970   0.829  0.1269 -0.5910  0.3315
 6909TIP3    H242363   1.627   1.856   0.792 -0.7275  0.2912 -0.2829
 6910TIP3   OH242364   6.509   3.526   7.917 -0.2355 -0.3254  0.0285
 6910TIP3    H142365   6.562   3.568   7.849  0.7780 -1.1651  0.2718
 6910TIP3    H242366   6.420   3.528   7.882 -0.2129  1.8100 -0.0598
 6911TIP3   OH242367   1.592   5.481   0.080 -0.3526 -0.1429  0.4733
 6911TIP3    H142368   1.525   5.515   0.021  0.4214 -0.3095 -0.5355
 6911TIP3    H242369   1.546   5.464   0.163 -1.6260 -0.6438 -0.3151
 6912TIP3   OH242370   1.724   1.364   8.263  0.5171 -0.0833  0.0074
 6912TIP3    H142371   1.774   1.359   8.181  1.1554  0.2416  0.3730
 6912TIP3    H242372   1.639   1.399   8.236 -0.1007 -2.0871 -0.8553
 6913TIP3   OH242373   4.539   2.349   8.745 -0.3396 -0.4190  0.0356
 6913TIP3    H142374   4.604   2.416   8.765 -0.7504  0.4918 -1.4709
 6913TIP3    H242375   4.455   2.391   8.765 -0.5558 -0.8145 -0.0271
 6914TIP3   OH242376   1.009   6.075   0.232  0.2323  0.5950 -0.5873
 6914TIP3    H142377   1.096   6.056   0.266  0.4109  0.8304 -0.9076
 6914TIP3    H242378   0.983   6.156   0.275  0.5015  0.9497 -1.0769
 6915TIP3   OH242379   5.665   0.908   1.018  0.2919  0.0564  0.0667
 6915TIP3    H142380   5.676   0.816   0.995  0.5975  0.1451 -0.1500
 6915TIP3    H242381   5.745   0.951   0.987  1.1711  0.0258  2.1047
 6916TIP3   OH242382   0.223   5.418   1.204  0.1387 -0.1114 -0.0650
 6916TIP3    H142383   0.261   5.360   1.138  1.1308 -1.0742  1.3179
 6916TIP3    H242384   0.295   5.437   1.264 -0.8578  0.3347  1.0321
 6917TIP3   OH242385   0.038   3.732   1.640  0.0371 -0.1878  0.3231
 6917TIP3    H142386  -0.057   3.732   1.633 -0.5739 -4.9673  3.4381
 6917TIP3    H242387   0.057   3.790   1.714 -0.0847  2.2080 -1.4105
 6918TIP3   OH242388   1.600   5.593   2.377  0.4578  0.6150  0.1929
 6918TIP3    H142389   1.611   5.539   2.455  2.7207  0.8490  0.1135
 6918TIP3    H242390   1.553   5.537   2.315  0.9445 -0.5222  0.8235
 6919TIP3   OH242391   5.929   1.155   1.960  0.3250 -0.1150 -0.0164
 6919TIP3    H142392   5.938   1.247   1.933  2.1940 -0.0781  0.5589
 6919TIP3    H242393   5.835   1.143   1.972  0.0388  1.7773  0.0335
 6920TIP3   OH242394   3.619   0.883   2.003 -0.0568 -0.2257 -0.3930
 6920TIP3    H142395   3.541   0.881   2.059  0.5006  0.8672  0.4649
 6920TIP3    H242396   3.599   0.947   1.936  0.3877  0.6606  0.2999
 6921TIP3   OH242397   1.241   2.955   9.021  0.0352  0.1493 -0.0467
 6921TIP3    H142398   1.312   2.897   9.048  1.2134  1.1684 -0.8240
 6921TIP3    H242399   1.203   2.913   8.945 -1.0159 -0.9991  1.0695
 6922TIP3   OH242400   5.296   0.798   7.913  0.6635  0.1395  0.3716
 6922TIP3    H142401   5.234   0.854   7.866  0.1384  0.9977  2.0027
 6922TIP3    H242402   5.303   0.838   8.000 -0.8163 -3.0731  2.1451
 6923TIP3   OH242403   6.048   1.711   8.893  0.2176 -0.0239 -0.4364
 6923TIP3    H142404   5.983   1.755   8.838  0.6126 -0.0462 -0.9369
 6923TIP3    H242405   6.014   1.622   8.902  0.4947 -0.2317 -1.2648
 6924TIP3   OH242406   0.123   5.669   1.683  0.2603 -0.1895 -0.5269
 6924TIP3    H142407   0.089   5.611   1.615 -1.7190 -0.8128  0.8983
 6924TIP3    H242408   0.178   5.613   1.737 -0.2449 -0.3315 -0.1533
 6925TIP3   OH242409   2.997   1.878   7.809 -0.2654 -0.3591 -1.1167
 6925TIP3    H142410   3.027   1.961   7.772  0.9153 -0.4100 -0.3275
 6925TIP3    H242411   2.901   1.884   7.805 -0.3657  2.2770  1.4683
 6926TIP3   OH242412   3.402   1.898   8.774  0.0130  0.3111  0.4856
 6926TIP3    H142413   3.450   1.820   8.748 -0.7226 -0.9681  2.7090
 6926TIP3    H242414   3.314   1.866   8.795 -0.5945  1.8994  0.5186
 6927TIP3   OH242415   2.100   0.707   1.784 -0.3274 -0.0519 -0.5315
 6927TIP3    H142416   2.013   0.712   1.743  0.0758 -3.3714 -2.1179
 6927TIP3    H242417   2.106   0.617   1.816  1.8196  0.6866  1.4019
 6928TIP3   OH242418   1.403   6.640   2.204 -0.5496 -0.3900 -0.0929
 6928TIP3    H142419   1.419   6.553   2.168  1.7430 -0.6448  1.3176
 6928TIP3    H242420   1.399   6.626   2.299 -1.3666  0.9057  0.0938
 6929TIP3   OH242421   2.985   1.229   3.243 -0.3040 -0.0118 -0.4807
 6929TIP3    H142422   2.902   1.181   3.248 -0.8819  1.0815  2.2499
 6929TIP3    H242423   3.020   1.227   3.332  2.0912  0.5056 -1.3281
 6930TIP3   OH242424   5.681   5.244   8.086 -0.4928  0.0288 -0.1074
 6930TIP3    H142425   5.670   5.219   7.994 -1.2811  1.9196 -0.5658
 6930TIP3    H242426   5.772   5.222   8.106  0.1891  1.1051 -1.8576
 6931TIP3   OH242427   4.589   1.144   0.498 -0.2992  0.1842 -0.1024
 6931TIP3    H142428   4.545   1.184   0.422 -0.3420 -0.3889 -0.3848
 6931TIP3    H242429   4.680   1.174   0.491 -0.3793  0.4135 -0.1863
 6932TIP3   OH242430   2.448   6.334   1.226  0.6725  0.2436  0.1014
 6932TIP3    H142431   2.369   6.358   1.177  0.1420  0.1432  0.8821
 6932TIP3    H242432   2.516   6.391   1.191  0.0661  0.9199 -0.0144
 6933TIP3   OH242433   0.340   1.719   0.432 -0.4015 -0.0314 -0.1804
 6933TIP3    H142434   0.346   1.788   0.498  0.4274 -0.0796 -0.1934
 6933TIP3    H242435   0.363   1.639   0.479 -0.1847 -0.1184 -0.4294
 6934TIP3   OH242436   5.773   5.684   0.590  0.4991 -0.0920 -0.4584
 6934TIP3    H142437   5.728   5.683   0.505  0.9326 -1.8654 -0.7038
 6934TIP3    H242438   5.835   5.756   0.584 -1.2952  1.5342 -0.6189
 6935TIP3   OH242439   0.722   1.962   9.205  0.0335 -0.1131  0.3790
 6935TIP3    H142440   0.748   1.997   9.120 -0.3775  0.4180  0.4667
 6935TIP3    H242441   0.704   1.869   9.188  1.9315 -0.5164  0.3120
 6936TIP3   OH242442   4.606   0.885   2.346 -0.9017 -0.3373  0.4988
 6936TIP3    H142443   4.661   0.963   2.340 -0.8976 -0.2900  1.0855
 6936TIP3    H242444   4.649   0.821   2.289  0.8095 -0.9035  2.3263
 6937TIP3   OH242445   0.733   5.414   1.622  0.2719 -0.5429 -0.1556
 6937TIP3    H142446   0.746   5.495   1.571  0.7756 -0.8453 -0.5102
 6937TIP3    H242447   0.708   5.445   1.709 -1.1813 -0.0098 -0.7245
 6938TIP3   OH242448   4.334   4.636   2.208 -0.8895  0.2460 -0.3666
 6938TIP3    H142449   4.260   4.578   2.189  0.1401 -0.7249 -1.6270
 6938TIP3    H242450   4.356   4.617   2.300 -1.0666 -0.7935 -0.5219
 6939TIP3   OH242451   1.457   1.799   8.281 -0.0441 -0.4447  0.2323
 6939TIP3    H142452   1.524   1.757   8.226  0.4927 -1.3509  1.5342
 6939TIP3    H242453   1.436   1.733   8.347  0.7722  1.2738  2.3233
 6940TIP3   OH242454   2.443   1.954   1.852 -0.1181 -0.0426  0.5534
 6940TIP3    H142455   2.390   2.034   1.849 -0.2454 -0.1649 -0.8995
 6940TIP3    H242456   2.521   1.975   1.801  0.5835 -0.3515  1.4623
 6941TIP3   OH242457   2.565   1.384   9.206  0.0984  0.2080  0.5107
 6941TIP3    H142458   2.652   1.390   9.165 -0.0169 -0.5187  0.1502
 6941TIP3    H242459   2.519   1.462   9.175  0.2943  0.0871 -0.1011
 6942TIP3   OH242460   1.855   6.022   0.099  0.2791  0.3013 -0.3110
 6942TIP3    H142461   1.850   6.109   0.140  0.3798  0.5883 -0.8966
 6942TIP3    H242462   1.785   6.022   0.034 -0.7411 -0.6356  0.7304
 6943TIP3   OH242463   1.696   1.120   0.910  0.4197 -0.1931 -0.1048
 6943TIP3    H142464   1.653   1.163   0.984  0.8315 -0.1647  0.1243
 6943TIP3    H242465   1.715   1.191   0.849  0.6503 -0.1216  0.0490
 6944TIP3   OH242466   3.495   5.798   1.349  0.8567  0.6722 -0.3035
 6944TIP3    H142467   3.446   5.832   1.274  0.8592 -1.1169 -1.1790
 6944TIP3    H242468   3.447   5.828   1.426 -0.7244  0.2824 -1.1074
 6945TIP3   OH242469   1.876   6.016   2.510 -0.0231  0.5636 -0.0340
 6945TIP3    H142470   1.969   5.994   2.515 -0.0600  0.1072 -1.0584
 6945TIP3    H242471   1.847   6.018   2.601  0.7776 -0.2364  0.2549
 6946TIP3   OH242472   2.507   6.342   7.771  0.2554 -0.0937  0.7989
 6946TIP3    H142473   2.543   6.275   7.714 -0.9829 -0.6337  0.6183
 6946TIP3    H242474   2.576   6.408   7.777  0.4391 -0.0025 -1.3479
 6947TIP3   OH242475   5.483   4.323   8.109 -0.3534  0.6422  0.1224
 6947TIP3    H142476   5.479   4.310   8.014 -0.7345 -0.3871  0.2572
 6947TIP3    H242477   5.395   4.301   8.140 -0.4532  1.6992  0.6471
 6948TIP3   OH242478   3.956   0.744   7.952  0.2139 -0.1361 -0.0377
 6948TIP3    H142479   4.040   0.742   7.998 -0.2179 -0.3017  0.7625
 6948TIP3    H242480   3.958   0.668   7.894  0.3303 -0.5405  0.4970
 6949TIP3   OH242481   3.007   2.572   3.455 -0.3545 -0.4270 -0.0386
 6949TIP3    H142482   3.032   2.549   3.366 -2.1483  0.7862 -0.9111
 6949TIP3    H242483   2.918   2.606   3.447 -1.3208 -2.0499  2.4751
 6950TIP3   OH242484   4.634   5.749   8.121  0.7182  0.1212 -0.2242
 6950TIP3    H142485   4.643   5.654   8.130  1.5668  0.1829 -0.3364
 6950TIP3    H242486   4.621   5.780   8.211 -0.9552 -0.2113 -0.3134
 6951TIP3   OH242487   2.874   1.311   8.337  0.2808  0.0751 -0.4120
 6951TIP3    H142488   2.792   1.360   8.340  0.4606  0.3374  0.4334
 6951TIP3    H242489   2.937   1.372   8.299  0.4803  0.4681  0.5412
 6952TIP3   OH242490   1.513   0.260   8.974 -0.0721 -0.6907 -0.4867
 6952TIP3    H142491   1.435   0.256   9.029  0.8653 -1.0145  0.8978
 6952TIP3    H242492   1.480   0.271   8.885 -1.6649 -0.0098  0.1413
 6953TIP3   OH242493   5.650   1.527   8.262  0.4692 -0.6831 -0.1793
 6953TIP3    H142494   5.592   1.451   8.266  1.5296 -1.5619 -0.9016
 6953TIP3    H242495   5.619   1.577   8.187 -1.2689  0.5189  1.2623
 6954TIP3   OH242496   6.230   4.784   3.185 -0.4272  0.4222  0.3280
 6954TIP3    H142497   6.228   4.870   3.142  2.1241  0.6931  0.5811
 6954TIP3    H242498   6.194   4.724   3.120 -0.8556  1.4686 -0.4307
 6955TIP3   OH242499   1.976   0.537   8.247  0.0881 -0.5521 -0.2464
 6955TIP3    H142500   1.977   0.593   8.169 -0.2841  0.1032  0.2049
 6955TIP3    H242501   1.885   0.537   8.275  0.1709 -1.0135  0.0301
 6956TIP3   OH242502   5.684   4.416   8.252 -0.4765  0.3430 -0.2006
 6956TIP3    H142503   5.610   4.386   8.198 -0.4541  1.3799 -0.8428
 6956TIP3    H242504   5.758   4.364   8.222 -0.6152  0.4158 -0.6824
 6957TIP3   OH242505   4.156   2.627   1.500  0.1177  0.0555 -0.6217
 6957TIP3    H142506   4.076   2.655   1.458 -0.3710  0.3506  0.4636
 6957TIP3    H242507   4.189   2.555   1.446  0.5149  1.6016 -2.5170
 6958TIP3   OH242508   4.679   0.691   1.283 -0.4586  0.4662  0.1585
 6958TIP3    H142509   4.701   0.639   1.360 -1.7646  0.0244  0.2576
 6958TIP3    H242510   4.618   0.636   1.234  1.8188 -0.1343 -2.2475
 6959TIP3   OH242511   5.483   3.457   8.900 -0.1196 -0.3445  0.3698
 6959TIP3    H142512   5.450   3.399   8.831  0.1971 -0.6504  0.4739
 6959TIP3    H242513   5.452   3.418   8.981 -2.9196  1.5180  0.3399
 6960TIP3   OH242514   4.990   3.953   2.382  0.3431 -0.1886 -0.2806
 6960TIP3    H142515   5.082   3.930   2.369  0.3656 -0.6154  0.5834
 6960TIP3    H242516   4.968   3.916   2.467 -1.2616 -2.0263 -1.4228
 6961TIP3   OH242517   4.686   3.428   0.147 -0.2389  0.3843  0.0593
 6961TIP3    H142518   4.637   3.480   0.211  0.8503  0.1956  1.0784
 6961TIP3    H242519   4.752   3.382   0.199  0.9459  0.5407 -1.2581
 6962TIP3   OH242520   2.332   1.673   0.224  0.2965  0.7902 -0.4650
 6962TIP3    H142521   2.427   1.685   0.228  0.8877 -2.6948 -0.3241
 6962TIP3    H242522   2.320   1.578   0.229 -3.3707  1.1717  2.8933
 6963TIP3   OH242523   1.752   1.040   8.100 -0.0712 -0.1638  0.4794
 6963TIP3    H142524   1.801   0.969   8.142 -0.2661 -1.0451 -0.7437
 6963TIP3    H242525   1.779   1.036   8.008 -1.8220 -0.1600 -0.0690
 6964TIP3   OH242526   1.838   1.280   8.034 -0.3476  0.1335  0.4095
 6964TIP3    H142527   1.783   1.202   8.029 -0.2712  0.0994  0.0699
 6964TIP3    H242528   1.911   1.254   8.090  0.0943 -0.3036 -0.3449
 6965TIP3   OH242529   0.968   0.180   2.021 -0.2050  0.1245  0.6050
 6965TIP3    H142530   0.941   0.164   1.931 -1.0883 -0.6121  0.9779
 6965TIP3    H242531   1.060   0.204   2.015 -0.1220 -0.4075 -0.4505
 6966TIP3   OH242532   2.703   3.831   1.309 -0.8406  0.2067 -0.1596
 6966TIP3    H142533   2.616   3.805   1.279 -0.3520  0.5554 -2.0159
 6966TIP3    H242534   2.760   3.813   1.234  0.6220  0.3352  0.8962
 6967TIP3   OH242535   1.847   6.137   8.588  0.4131 -0.0868 -0.1903
 6967TIP3    H142536   1.921   6.195   8.572 -0.4256  0.9600 -0.3184
 6967TIP3    H242537   1.817   6.159   8.676 -1.8330  1.9328 -1.3419
 6968TIP3   OH242538   2.983   5.018   0.393  0.0502  0.3557  0.0554
 6968TIP3    H142539   2.887   5.020   0.398  0.1048  0.7947  1.4285
 6968TIP3    H242540   3.009   5.110   0.390  0.4899  0.3902  2.6018
 6969TIP3   OH242541   0.764   2.862   2.709 -0.0463 -0.0966  0.1392
 6969TIP3    H142542   0.799   2.945   2.677 -0.5920  0.3936  0.7633
 6969TIP3    H242543   0.725   2.884   2.794  1.0795 -1.2837  0.9950
 6970TIP3   OH242544   3.445   4.067   8.764  0.8945 -0.1132  0.4881
 6970TIP3    H142545   3.512   4.125   8.800  0.3600  0.1371  1.1201
 6970TIP3    H242546   3.449   4.080   8.670  2.2349 -0.6667  0.4548
 6971TIP3   OH242547   0.462   1.422   1.805  0.4623  0.1446  0.6961
 6971TIP3    H142548   0.474   1.352   1.869  0.6835 -0.4623  0.0065
 6971TIP3    H242549   0.394   1.478   1.843  0.1223 -0.5700  1.1594
 6972TIP3   OH242550   3.135   2.147   9.080 -0.2399  0.6399 -0.2422
 6972TIP3    H142551   3.124   2.233   9.119  0.2024  0.4497  0.3175
 6972TIP3    H242552   3.198   2.159   9.010  0.6324  0.5863  0.5136
 6973TIP3   OH242553   2.739   0.135   3.073 -0.0361  0.6775  0.6560
 6973TIP3    H142554   2.681   0.189   3.021  1.8268  1.5766 -0.5932
 6973TIP3    H242555   2.686   0.058   3.095 -0.2231 -1.3734 -5.1677
 6974TIP3   OH242556   1.738   0.033   1.138  0.2055  0.0773 -0.3352
 6974TIP3    H142557   1.668   0.088   1.101  0.0763  0.4089  0.3797
 6974TIP3    H242558   1.698  -0.053   1.150  0.1335  0.0743 -0.5870
 6975TIP3   OH242559   0.328   5.604   0.569 -0.1488  0.6506 -0.0324
 6975TIP3    H142560   0.405   5.579   0.621  0.2536  3.5076  0.8870
 6975TIP3    H242561   0.264   5.633   0.634 -1.5255 -0.3389 -0.8906
 6976TIP3   OH242562   3.104   1.007   1.355 -0.0680  0.9316  0.3058
 6976TIP3    H142563   3.039   1.077   1.358  0.3174  1.5107 -2.0104
 6976TIP3    H242564   3.060   0.934   1.311  0.1243  0.4557  0.8964
 6977TIP3   OH242565   5.713   1.270   3.448  0.0644  0.3860 -0.5106
 6977TIP3    H142566   5.685   1.278   3.357  0.6582  1.4576 -0.6244
 6977TIP3    H242567   5.805   1.244   3.443  0.3228  1.2091 -0.2511
 6978TIP3   OH242568   2.085   0.276   1.401 -0.1609 -0.8070 -0.0716
 6978TIP3    H142569   2.060   0.221   1.327  0.7485 -0.3422 -0.7466
 6978TIP3    H242570   2.155   0.331   1.367 -0.2226 -0.0806  0.9409
 6979TIP3   OH242571   3.277   1.774   1.733 -0.2602 -0.0800 -0.1898
 6979TIP3    H142572   3.244   1.793   1.821  3.4792 -1.3491  1.6803
 6979TIP3    H242573   3.347   1.838   1.719 -0.7248  0.0618 -2.2879
 6980TIP3   OH242574   1.431   5.095   8.885 -0.3326 -0.3433 -0.0414
 6980TIP3    H142575   1.515   5.072   8.846  0.0490 -1.2374  1.2476
 6980TIP3    H242576   1.453   5.130   8.971 -1.3206 -2.0578  0.9748
 6981TIP3   OH242577   4.725   5.620   8.609 -0.6022  0.5872  0.6328
 6981TIP3    H142578   4.765   5.541   8.645  1.4984  1.8093  1.1236
 6981TIP3    H242579   4.631   5.609   8.626 -0.2839 -1.4130  1.3935
 6982TIP3   OH242580   1.721   6.117   0.467  0.0382  0.6219 -0.4543
 6982TIP3    H142581   1.816   6.128   0.473  0.1865  0.5906 -2.1434
 6982TIP3    H242582   1.699   6.152   0.380 -1.6030  1.3245  0.2022
 6983TIP3   OH242583   2.437   5.899   7.333 -0.5767  0.2897 -0.1595
 6983TIP3    H142584   2.387   5.823   7.304 -0.5306  0.5868 -1.0427
 6983TIP3    H242585   2.527   5.881   7.307 -0.7795  1.2265 -1.6030
 6984TIP3   OH242586   2.773   4.430   0.890  0.2847  0.4294  0.3602
 6984TIP3    H142587   2.734   4.401   0.972  0.1334  1.3313  0.6174
 6984TIP3    H242588   2.717   4.392   0.822  0.7738 -0.8375  0.6445
 6985TIP3   OH242589   0.581   5.911   8.619  0.6154 -0.2818 -0.0888
 6985TIP3    H142590   0.662   5.892   8.667  1.7842 -1.1224 -2.2139
 6985TIP3    H242591   0.555   5.998   8.649  1.7466 -0.4110  1.3762
 6986TIP3   OH242592   3.837   4.209   7.132 -1.0263 -0.6051 -0.3177
 6986TIP3    H142593   3.808   4.299   7.119  0.9444  0.3331  1.1933
 6986TIP3    H242594   3.933   4.214   7.129 -0.8677 -2.7397 -0.5942
 6987TIP3   OH242595   3.905   0.844   9.055 -0.1606 -0.1752 -0.6571
 6987TIP3    H142596   3.964   0.801   9.118 -1.4780 -0.2264  0.5850
 6987TIP3    H242597   3.861   0.912   9.106 -0.9332  0.0852 -1.6460
 6988TIP3   OH242598   2.061   0.133   0.490 -0.1875 -0.8448 -0.2562
 6988TIP3    H142599   2.097   0.069   0.552  1.1604 -0.2024 -0.3459
 6988TIP3    H242600   2.111   0.213   0.506 -0.2703 -0.4722 -1.7144
 6989TIP3   OH242601   1.477   1.421   8.161  0.2826 -0.1212 -0.1742
 6989TIP3    H142602   1.420   1.350   8.190  0.2522 -0.4612 -1.0295
 6989TIP3    H242603   1.442   1.446   8.076  0.5830  0.6011 -0.0877
 6990TIP3   OH242604   1.257   2.751   8.569  0.0510  0.2626 -0.0648
 6990TIP3    H142605   1.246   2.666   8.526  0.9965 -0.6564  1.4336
 6990TIP3    H242606   1.309   2.802   8.507 -0.0261 -0.4429 -0.7321
 6991TIP3   OH242607   4.231   4.929   2.563 -0.2734 -0.1508  0.6793
 6991TIP3    H142608   4.224   4.958   2.472 -0.1895  1.6951  1.2097
 6991TIP3    H242609   4.325   4.919   2.577 -0.0898  1.7062  1.1177
 6992TIP3   OH242610   1.142   2.992   1.750 -0.6332  0.3917 -0.1002
 6992TIP3    H142611   1.065   2.968   1.802 -0.0078  0.0762  0.6992
 6992TIP3    H242612   1.107   3.009   1.662 -1.6992  0.8925  0.4057
 6993TIP3   OH242613   0.572   4.942   1.040 -0.4001 -0.3764  0.1624
 6993TIP3    H142614   0.595   4.993   0.962 -0.3730 -1.0109 -0.2549
 6993TIP3    H242615   0.477   4.956   1.050  0.0261  2.0424  1.7445
 6994TIP3   OH242616   1.162   5.893   1.836  0.9987  0.4160  0.4723
 6994TIP3    H142617   1.228   5.883   1.767  1.1944  3.2198  0.1202
 6994TIP3    H242618   1.085   5.927   1.790 -1.0631 -3.3947  0.7671
 6995TIP3   OH242619   5.907   4.263   8.156  0.0071  0.1546 -0.6493
 6995TIP3    H142620   5.875   4.214   8.080  0.1229  0.3219 -0.8061
 6995TIP3    H242621   5.928   4.196   8.221  0.4230 -0.0215 -0.9619
 6996TIP3   OH242622   1.281   6.021   8.899  0.0299  0.0846  0.0880
 6996TIP3    H142623   1.372   6.039   8.874  0.0259  0.6194  0.4343
 6996TIP3    H242624   1.246   6.107   8.923 -0.3450 -0.2269  0.6806
 6997TIP3   OH242625   0.564   5.855   7.441  0.4903  0.0922 -0.0583
 6997TIP3    H142626   0.496   5.826   7.502 -0.5018 -0.5855 -1.4502
 6997TIP3    H242627   0.617   5.777   7.426 -0.3673 -0.2424 -1.4605
 6998TIP3   OH242628   2.095   3.338   0.698 -0.6763  0.2094 -0.7819
 6998TIP3    H142629   2.034   3.390   0.645  0.6929 -0.7737 -3.5487
 6998TIP3    H242630   2.180   3.380   0.684 -0.2903  0.0334  0.8870
 6999TIP3   OH242631   4.509   3.729   8.770 -0.1376 -0.4306 -0.6211
 6999TIP3    H142632   4.508   3.743   8.865  0.2335  0.4923 -0.7419
 6999TIP3    H242633   4.458   3.649   8.757  1.4436 -1.7071  0.5324
 7000TIP3   OH242634   5.428   2.249   2.618 -0.3684 -0.1550 -0.1061
 7000TIP3    H142635   5.496   2.258   2.684 -0.0437 -0.0517 -0.4473
 7000TIP3    H242636   5.351   2.218   2.666  0.0369 -0.6734  0.2172
 7001TIP3   OH242637   2.828   2.619   8.384 -0.0516  0.1565  0.0863
 7001TIP3    H142638   2.805   2.676   8.311  0.7358  0.6784  0.2363
 7001TIP3    H242639   2.892   2.558   8.348  2.7496  2.3507  1.0129
 7002TIP3   OH242640   0.522   2.105   2.399 -0.1436  0.3790  0.0209
 7002TIP3    H142641   0.598   2.048   2.385 -0.9286 -0.3891 -1.3259
 7002TIP3    H242642   0.487   2.079   2.484  1.1011  0.7654  0.6730
 7003TIP3   OH242643   1.114   6.629   3.184 -0.0329  0.2389 -0.4594
 7003TIP3    H142644   1.027   6.667   3.183 -0.1520 -0.0075  0.1524
 7003TIP3    H242645   1.104   6.544   3.140 -0.1066  0.2121 -0.3922
 7004TIP3   OH242646   1.777   0.473   1.133  0.5826  0.3145  0.2265
 7004TIP3    H142647   1.803   0.564   1.147  0.8130  0.1268  1.1358
 7004TIP3    H242648   1.834   0.442   1.063 -0.8282  1.4076 -1.4723
 7005TIP3   OH242649   3.088   1.145   8.451 -0.4941 -0.0187 -0.3526
 7005TIP3    H142650   3.002   1.187   8.445 -1.1875 -0.9395  2.2189
 7005TIP3    H242651   3.150   1.218   8.451 -1.4039  0.7728 -0.0399
 7006TIP3   OH242652   6.554   1.187   8.344  0.8194 -0.4714  0.3471
 7006TIP3    H142653   6.625   1.160   8.402  0.5989  0.0366  0.8649
 7006TIP3    H242654   6.568   1.137   8.264  1.1238 -1.1913  0.8389
 7007TIP3   OH242655   2.525   2.083   8.225  0.4749 -0.2694 -0.1573
 7007TIP3    H142656   2.596   2.047   8.171  0.3767 -2.0005  0.7854
 7007TIP3    H242657   2.467   2.127   8.163  2.3335  1.2055 -0.9630
 7008TIP3   OH242658   3.648   3.996   7.682 -0.0136 -0.8610  0.3364
 7008TIP3    H142659   3.621   4.071   7.629 -0.5895 -1.3476 -0.0869
 7008TIP3    H242660   3.687   4.034   7.760  0.3641 -0.1227 -0.1997
 7009TIP3   OH242661   5.591   6.404   0.081  0.3451  0.0078  0.2900
 7009TIP3    H142662   5.632   6.489   0.092  1.9873 -0.2490 -2.7096
 7009TIP3    H242663   5.498   6.423   0.068  0.9523  1.6858 -2.4767
 7010TIP3   OH242664   5.100   2.248   7.691  0.1806  0.4771  0.3659
 7010TIP3    H142665   5.102   2.239   7.595 -0.8726 -0.5602  0.4195
 7010TIP3    H242666   5.184   2.213   7.720  0.2557  0.2306 -0.1433
 7011TIP3   OH242667   2.500   6.298   0.109  0.0541 -0.3822 -0.4184
 7011TIP3    H142668   2.577   6.309   0.053 -0.3178  0.2497 -0.8155
 7011TIP3    H242669   2.433   6.352   0.068 -0.3014 -0.1174  0.5058
 7012TIP3   OH242670   4.130   1.137   9.013  0.0187 -0.0072  0.1796
 7012TIP3    H142671   4.129   1.082   9.091  2.1347 -0.0799  0.2055
 7012TIP3    H242672   4.208   1.109   8.965  0.6857  2.3560 -0.2259
 7013TIP3   OH242673   2.886   6.512   0.470  0.2600 -0.1904  1.0591
 7013TIP3    H142674   2.961   6.521   0.411  1.6505  2.2888  2.9929
 7013TIP3    H242675   2.839   6.596   0.462 -2.4338 -1.6765 -0.1097
 7014TIP3   OH242676   4.693   2.908   8.955  0.1290  0.1753 -0.1356
 7014TIP3    H142677   4.764   2.931   8.894 -0.9283  1.6789 -0.8571
 7014TIP3    H242678   4.723   2.943   9.039  0.7660 -0.2385 -0.1828
 7015TIP3   OH242679   1.292   4.852   1.015 -0.0261  0.0892  0.4415
 7015TIP3    H142680   1.308   4.759   1.031  2.9235  0.5187  0.5259
 7015TIP3    H242681   1.324   4.867   0.926 -0.8341  0.9628  0.2820
 7016TIP3   OH242682   4.480   0.596   2.010 -0.7284 -0.1269  0.3488
 7016TIP3    H142683   4.477   0.681   1.966  2.9737  0.3989  0.7190
 7016TIP3    H242684   4.470   0.532   1.940 -1.8921  0.5956 -0.1791
 7017TIP3   OH242685   3.993   6.549   1.701 -0.1516 -0.0950 -0.0842
 7017TIP3    H142686   3.997   6.456   1.725  1.2299  0.2431  1.1445
 7017TIP3    H242687   3.901   6.563   1.678 -0.2071 -1.9628 -1.2083
 7018TIP3   OH242688   1.896   6.394   8.247  0.2925 -0.1926 -0.1897
 7018TIP3    H142689   1.950   6.327   8.290  1.5486  0.5103 -0.6238
 7018TIP3    H242690   1.952   6.471   8.243 -0.0203 -0.0286 -2.4829
 7019TIP3   OH242691   2.322   3.188   7.581 -0.1364  0.1973 -0.2335
 7019TIP3    H142692   2.351   3.242   7.508 -0.4305  0.7566  0.0521
 7019TIP3    H242693   2.325   3.098   7.548  0.1684  0.4052 -0.7803
 7020TIP3   OH242694   6.137   1.362   8.202 -0.6785 -0.1131  0.6565
 7020TIP3    H142695   6.197   1.365   8.276  0.9529  2.0581 -0.6399
 7020TIP3    H242696   6.183   1.408   8.131 -3.4970  0.8904 -0.6827
 7021TIP3   OH242697   5.517   6.021   0.727 -0.2086  0.1066 -0.1873
 7021TIP3    H142698   5.572   5.983   0.795 -0.1372  2.1156  0.9572
 7021TIP3    H242699   5.445   5.959   0.716  1.0639 -1.4508 -0.0908
 7022TIP3   OH242700   0.913   4.795   7.419  0.5939  0.5471  0.0161
 7022TIP3    H142701   0.989   4.846   7.392 -0.4624  2.1717 -0.0914
 7022TIP3    H242702   0.843   4.860   7.426 -0.6427 -0.8017  0.6677
 7023TIP3   OH242703   0.296   4.479   7.837 -0.5737  0.1605 -0.1933
 7023TIP3    H142704   0.256   4.421   7.773  1.9386 -2.1503  0.1577
 7023TIP3    H242705   0.344   4.544   7.785  0.2733 -0.8305 -0.6740
 7024TIP3   OH242706   4.194   5.552   8.255 -0.1141  0.3674 -0.4618
 7024TIP3    H142707   4.205   5.631   8.203 -0.2999  2.1803  2.0952
 7024TIP3    H242708   4.107   5.561   8.294 -0.9840 -2.0995 -1.6100
 7025TIP3   OH242709   2.193   3.683   2.739  0.7622 -0.3493  0.1244
 7025TIP3    H142710   2.274   3.639   2.713  0.9926  0.3883 -0.4290
 7025TIP3    H242711   2.196   3.768   2.695 -1.2393 -1.0579 -1.5538
 7026TIP3   OH242712   0.265   3.006   0.831  0.1342  0.0196 -0.4360
 7026TIP3    H142713   0.237   3.039   0.917  1.2718  0.5862 -0.2633
 7026TIP3    H242714   0.214   2.926   0.819 -1.0464  0.6462  0.1450
 7027TIP3   OH242715   5.835   3.521   2.647  0.2366  0.4804  0.1202
 7027TIP3    H142716   5.768   3.477   2.699  1.2952  0.2960  1.3981
 7027TIP3    H242717   5.787   3.585   2.594 -0.8252  1.4816  2.1801
 7028TIP3   OH242718   6.377   5.898   2.461 -0.1188  0.3413  0.2088
 7028TIP3    H142719   6.399   5.971   2.519 -0.3373  1.5024 -1.1072
 7028TIP3    H242720   6.433   5.911   2.384  0.3128 -1.2713  0.2120
 7029TIP3   OH242721   1.609   6.103   8.439 -0.0033 -0.0776 -0.1631
 7029TIP3    H142722   1.653   6.097   8.354 -0.7090  0.4925 -0.5837
 7029TIP3    H242723   1.676   6.077   8.503  1.2452  1.6168 -0.7080
 7030TIP3   OH242724   2.947   6.128   1.489  0.3495  0.6661 -0.1651
 7030TIP3    H142725   3.013   6.096   1.428  2.1864 -3.3718  3.4359
 7030TIP3    H242726   2.996   6.186   1.548  0.4099 -0.9902  1.4977
 7031TIP3   OH242727   3.175   6.047   1.357 -0.7743  0.3365 -0.0395
 7031TIP3    H142728   3.244   6.023   1.420  0.8035  0.8901 -1.4590
 7031TIP3    H242729   3.173   5.974   1.295  0.6721  1.5806 -1.6595
 7032TIP3   OH242730   2.822   2.484   7.929 -0.2780 -0.3049  0.0518
 7032TIP3    H142731   2.864   2.447   8.007  0.8719 -1.1005 -0.8839
 7032TIP3    H242732   2.894   2.491   7.866 -1.5671 -1.8904 -1.6905
 7033TIP3   OH242733   2.877   0.977   1.802  0.2735  0.3533  0.6146
 7033TIP3    H142734   2.934   0.902   1.819  0.0809  0.1234  0.2734
 7033TIP3    H242735   2.789   0.939   1.793  0.2103  0.5893  0.2049
 7034TIP3   OH242736   1.103   0.459   2.803 -0.0911 -0.3878  0.1981
 7034TIP3    H142737   1.050   0.384   2.775 -0.3575 -0.6098  1.2426
 7034TIP3    H242738   1.052   0.498   2.875 -1.0970  2.1649 -1.7387
 7035TIP3   OH242739   4.359   4.939   8.686  0.1726  0.2089  0.3902
 7035TIP3    H142740   4.421   4.874   8.653  0.5047  1.1820 -0.9602
 7035TIP3    H242741   4.409   4.991   8.749 -0.0480 -0.6995  1.3488
 7036TIP3   OH242742   5.725   4.641   8.880  0.8552 -0.1216 -0.4315
 7036TIP3    H142743   5.691   4.638   8.969  1.1334  0.6713 -0.2885
 7036TIP3    H242744   5.813   4.604   8.887  0.5679 -0.8431 -0.5402
 7037TIP3   OH242745   3.103   1.685   1.542  0.7180 -0.0273 -0.0678
 7037TIP3    H142746   3.161   1.710   1.615 -1.3854 -0.2305  1.7821
 7037TIP3    H242747   3.061   1.605   1.572 -1.6498  0.9351 -0.6266
 7038TIP3   OH242748   4.943   6.633   8.460  0.2157  0.0312  0.4790
 7038TIP3    H142749   4.954   6.540   8.441 -0.5625 -0.3798  1.9185
 7038TIP3    H242750   4.905   6.636   8.548 -0.2151  1.6993  0.2763
 7039TIP3   OH242751   3.008   0.846   0.786 -0.0263 -0.6271  0.0310
 7039TIP3    H142752   3.080   0.901   0.756  0.8191 -0.8544  1.5395
 7039TIP3    H242753   2.941   0.908   0.815  0.7412 -0.3446  1.2985
 7040TIP3   OH242754   6.666   3.735   2.221  0.7183  0.1144  0.0397
 7040TIP3    H142755   6.600   3.674   2.254  2.5991 -0.2610  3.5434
 7040TIP3    H242756   6.731   3.680   2.179 -0.3875  0.3651 -2.1399
 7041TIP3   OH242757   3.187   3.340   1.486  0.6997 -0.0632  0.7431
 7041TIP3    H142758   3.247   3.305   1.420  0.0416  1.6635 -0.8151
 7041TIP3    H242759   3.245   3.384   1.549  1.1402  1.3219 -0.5800
 7042TIP3   OH242760   1.918   0.252   8.487  0.1276  0.0564 -0.1924
 7042TIP3    H142761   1.971   0.327   8.515 -0.1296  0.8785 -1.8087
 7042TIP3    H242762   1.981   0.193   8.446 -0.0815  0.7348 -1.5255
 7043TIP3   OH242763   0.731   1.176   2.329 -0.1029  0.1989  0.0649
 7043TIP3    H142764   0.639   1.187   2.351  0.3198  0.6190  1.7312
 7043TIP3    H242765   0.779   1.212   2.404  1.4132 -0.8285 -0.3545
 7044TIP3   OH242766   0.109   4.508   8.550  0.4100 -0.5341  0.0062
 7044TIP3    H142767   0.078   4.568   8.618 -0.0151  0.4345 -1.0205
 7044TIP3    H242768   0.204   4.503   8.564  0.2032 -1.1825  1.3137
 7045TIP3   OH242769   4.472   3.803   1.326  0.4880  0.7194 -0.1340
 7045TIP3    H142770   4.412   3.732   1.348  2.0379  0.6442  5.1351
 7045TIP3    H242771   4.422   3.859   1.267 -3.3429 -1.2106  0.9874
 7046TIP3   OH242772   1.417   1.219   2.708  0.1492  0.2167  0.3486
 7046TIP3    H142773   1.398   1.162   2.783  1.0133  1.8224  1.8581
 7046TIP3    H242774   1.401   1.308   2.741  1.6097  1.0377 -1.0274
 7047TIP3   OH242775   2.996   2.988   1.872 -0.3296  0.0246 -0.2001
 7047TIP3    H142776   3.072   2.995   1.813 -0.1566  0.7687  0.0999
 7047TIP3    H242777   3.032   2.954   1.953 -0.1160  1.2869  0.2683
 7048TIP3   OH242778   6.622   5.738   8.610  0.2580  0.1373  0.2044
 7048TIP3    H142779   6.639   5.686   8.689  0.2756 -0.6250 -0.2929
 7048TIP3    H242780   6.649   5.827   8.634  4.7675 -0.8293 -0.3651
 7049TIP3   OH242781   5.838   5.817   1.371 -0.2093 -0.5858  0.0326
 7049TIP3    H142782   5.842   5.906   1.335 -1.5905  0.2209  1.7280
 7049TIP3    H242783   5.912   5.771   1.331 -0.9419  0.5497 -2.8870
 7050TIP3   OH242784   4.505   6.601   0.584 -0.1626  0.6202 -0.4557
 7050TIP3    H142785   4.410   6.591   0.582 -0.1870  0.7160  0.0773
 7050TIP3    H242786   4.518   6.695   0.597 -0.0653  0.2938  2.7203
 7051TIP3   OH242787   3.115   2.697   8.483  0.0971  0.0214  0.1999
 7051TIP3    H142788   3.045   2.738   8.534 -2.1302 -3.2424  0.0802
 7051TIP3    H242789   3.192   2.701   8.540 -1.0844  0.7160  1.8065
 7052TIP3   OH242790   4.028   3.319   0.389  0.8148 -0.7203 -0.3532
 7052TIP3    H142791   4.060   3.343   0.476 -1.2647  0.5485  0.1347
 7052TIP3    H242792   3.962   3.252   0.405  0.3026 -0.3645 -0.9364
 7053TIP3   OH242793   5.551   0.971   3.146  0.1547 -0.3505 -0.0928
 7053TIP3    H142794   5.460   0.985   3.173  0.5345  1.4746  0.3438
 7053TIP3    H242795   5.548   0.893   3.091 -1.4336 -1.2121  1.1298
 7054TIP3   OH242796   1.468   3.832   1.069  0.2755 -0.4001 -0.1740
 7054TIP3    H142797   1.562   3.818   1.061  0.1195 -1.0599 -1.0022
 7054TIP3    H242798   1.447   3.809   1.160  0.9262 -0.1398  0.0442
 7055TIP3   OH242799   5.246   0.269   1.808  0.1691  0.3999  0.3958
 7055TIP3    H142800   5.178   0.332   1.829 -0.8465 -0.7740  0.7122
 7055TIP3    H242801   5.264   0.282   1.715  0.1484  1.3040  0.5145
 7056TIP3   OH242802   6.229   1.839   1.221  0.3700  0.0575  0.4060
 7056TIP3    H142803   6.248   1.928   1.250  0.7375  1.1616 -2.8393
 7056TIP3    H242804   6.138   1.841   1.194  0.7948 -0.1146 -1.0861
 7057TIP3   OH242805   0.093   0.982   2.384  0.1184  0.3318 -0.1768
 7057TIP3    H142806   0.146   0.907   2.355  0.2670  0.5946 -0.6085
 7057TIP3    H242807   0.030   0.945   2.445 -0.1020 -0.2268 -0.7251
 7058TIP3   OH242808   3.122   4.677   2.567 -0.2289 -0.3649  0.0286
 7058TIP3    H142809   3.096   4.753   2.620  0.2598 -0.9756  1.1925
 7058TIP3    H242810   3.132   4.711   2.479 -1.6472  0.5841  0.1999
 7059TIP3   OH242811   0.444   3.630   7.866 -0.0172 -0.6468 -0.0764
 7059TIP3    H142812   0.358   3.602   7.899 -0.6594 -0.2060 -1.3061
 7059TIP3    H242813   0.459   3.575   7.789 -1.0285  1.8348 -2.1933
 7060TIP3   OH242814   3.813   4.384   2.289  0.0807  0.4281  0.6151
 7060TIP3    H142815   3.773   4.458   2.334  1.2033  0.2515  1.9706
 7060TIP3    H242816   3.740   4.326   2.269 -0.8236  1.8591 -0.4833
 7061TIP3   OH242817   1.391   5.270   1.768 -0.3604  0.0724 -0.2947
 7061TIP3    H142818   1.467   5.217   1.743 -0.8522 -1.0340  0.4409
 7061TIP3    H242819   1.322   5.241   1.708 -0.2820  0.8663 -0.7736
 7062TIP3   OH242820   1.091   0.697   2.027  0.3650  0.4137  0.3936
 7062TIP3    H142821   1.136   0.613   2.034 -0.5725 -0.1128  0.3198
 7062TIP3    H242822   1.053   0.696   1.939  0.8623  1.1845  0.1672
 7063TIP3   OH242823   0.797   3.022   2.133  0.3263  0.4734 -0.0484
 7063TIP3    H142824   0.786   2.999   2.225  3.6597 -1.4614  0.0408
 7063TIP3    H242825   0.885   3.059   2.128 -0.7498  3.0540 -2.1112
 7064TIP3   OH242826   6.392   0.145   2.563 -0.1684  0.0969 -0.0321
 7064TIP3    H142827   6.403   0.225   2.512 -1.0330  0.7352  0.7467
 7064TIP3    H242828   6.460   0.085   2.530  0.0896  0.9299 -1.0373
 7065TIP3   OH242829   0.458   5.513   1.355 -0.5263  0.3252 -0.1874
 7065TIP3    H142830   0.550   5.528   1.375 -0.5255  0.8134 -0.5355
 7065TIP3    H242831   0.413   5.588   1.393 -1.1570 -1.3126  2.5658
 7066TIP3   OH242832   1.752   2.480   0.414 -0.4409 -0.8861  0.5063
 7066TIP3    H142833   1.764   2.399   0.366  0.6232 -1.0130  0.9471
 7066TIP3    H242834   1.789   2.462   0.501  1.5683  0.6132  0.0442
 7067TIP3   OH242835   3.349   5.238   8.946 -0.2408  0.1681 -0.0514
 7067TIP3    H142836   3.395   5.298   8.887 -0.4434 -0.0737 -0.4595
 7067TIP3    H242837   3.328   5.162   8.891 -0.0025 -0.2704  0.4510
 7068TIP3   OH242838   4.878   0.445   1.079  0.1594  0.7151 -0.6145
 7068TIP3    H142839   4.803   0.397   1.116  0.2839 -0.2711 -1.6024
 7068TIP3    H242840   4.949   0.428   1.140  0.4649 -1.2220 -1.4283
 7069TIP3   OH242841   6.685   3.937   1.870 -0.6078  0.2357  0.9808
 7069TIP3    H142842   6.722   4.014   1.825  1.9869 -1.7768 -0.6057
 7069TIP3    H242843   6.713   3.946   1.961  2.3121 -0.2266  0.2137
 7070TIP3   OH242844   0.357   5.234   0.118 -0.5354 -0.2091  0.6892
 7070TIP3    H142845   0.418   5.233   0.044  1.6656  0.9862  2.3868
 7070TIP3    H242846   0.304   5.313   0.103 -0.3370 -0.1545  0.2431
 7071TIP3   OH242847   3.912   1.183   1.494  0.2116 -0.0244  0.2730
 7071TIP3    H142848   3.935   1.264   1.540 -0.1775  0.1956  0.0818
 7071TIP3    H242849   3.982   1.171   1.430  2.3100 -1.7840  2.6559
 7072TIP3   OH242850   5.789   6.428   8.607  0.0877 -0.1219  0.4423
 7072TIP3    H142851   5.842   6.485   8.663  0.4285  1.1829 -1.1333
 7072TIP3    H242852   5.699   6.450   8.629  0.2045 -0.0484  0.8713
 7073TIP3   OH242853   1.730   1.377   0.785 -0.1149 -0.1141  0.2549
 7073TIP3    H142854   1.696   1.394   0.873 -1.5191 -0.3977 -0.2135
 7073TIP3    H242855   1.662   1.410   0.726  1.5261  1.6172 -0.7820
 7074TIP3   OH242856   0.963   6.579   1.286 -0.2338 -0.0835  0.0156
 7074TIP3    H142857   1.020   6.610   1.216 -1.3521 -1.0173 -1.3701
 7074TIP3    H242858   0.915   6.505   1.247 -1.7608  0.1236  1.3889
 7075TIP3   OH242859   2.813   2.823   8.181  0.1738 -0.0452  0.3035
 7075TIP3    H142860   2.796   2.911   8.147  0.0522 -0.1097  0.1950
 7075TIP3    H242861   2.879   2.788   8.122  0.3048  0.0151  0.4145
 7076TIP3   OH242862   5.204   5.125   1.579  0.2183 -0.4496 -0.6217
 7076TIP3    H142863   5.211   5.208   1.531  1.2358  0.5395  1.1249
 7076TIP3    H242864   5.230   5.058   1.516 -1.5648  0.4092 -2.3728
 7077TIP3   OH242865   5.474   4.689   1.298  0.1285 -0.0471 -0.4000
 7077TIP3    H142866   5.389   4.687   1.255  0.0519  0.0961 -0.2563
 7077TIP3    H242867   5.455   4.711   1.389  0.3388  0.2566 -0.4272
 7078TIP3   OH242868   6.390   5.547   7.347  0.3555 -0.0656 -0.2497
 7078TIP3    H142869   6.442   5.603   7.289 -0.6798 -0.3017 -1.4556
 7078TIP3    H242870   6.299   5.575   7.333 -0.2107 -2.0247 -0.9526
 7079TIP3   OH242871   0.818   6.440   8.278  0.2655 -0.7149  0.0440
 7079TIP3    H142872   0.874   6.375   8.236 -0.6698 -1.8977  0.5537
 7079TIP3    H242873   0.871   6.520   8.282  2.1446 -1.9394  1.0706
 7080TIP3   OH242874   5.823   4.175   7.874  0.7384  0.2108  0.0111
 7080TIP3    H142875   5.882   4.118   7.825 -0.5114 -2.3858  1.3163
 7080TIP3    H242876   5.778   4.226   7.806  2.2849  0.0881 -1.1769
 7081TIP3   OH242877   0.917   4.551   1.166 -0.4150 -0.5649 -0.7345
 7081TIP3    H142878   0.949   4.537   1.077  0.7006  1.0643 -0.6327
 7081TIP3    H242879   0.858   4.627   1.159  1.0853  0.7540  0.1518
 7082TIP3   OH242880   3.125   6.371   0.990 -0.3371  0.2450  1.0858
 7082TIP3    H142881   3.119   6.276   0.979 -0.3627  0.4091 -0.6308
 7082TIP3    H242882   3.202   6.384   1.045 -1.4426 -0.8200  3.0172
 7083TIP3   OH242883   4.940   0.744   7.664  0.6658  0.0067 -0.0023
 7083TIP3    H142884   4.894   0.686   7.603  0.3509  0.1519  0.0930
 7083TIP3    H242885   4.883   0.821   7.670  0.7624  0.0458  0.3756
 7084TIP3   OH242886   4.870   5.963   7.987  0.0810 -0.6533  0.2957
 7084TIP3    H142887   4.874   5.920   8.073  0.5747 -1.5881 -0.1810
 7084TIP3    H242888   4.776   5.972   7.969 -0.0478  0.4799  1.3671
 7085TIP3   OH242889   2.363   1.134   2.780  0.7338 -0.1024  0.7240
 7085TIP3    H142890   2.403   1.047   2.777  2.0945  0.5101  0.1348
 7085TIP3    H242891   2.273   1.118   2.808  0.8533 -1.7255  0.2953
 7086TIP3   OH242892   2.658   2.453   7.040 -0.1616  0.1638  0.3376
 7086TIP3    H142893   2.687   2.538   7.074 -1.0327  0.4342  0.4533
 7086TIP3    H242894   2.563   2.454   7.054 -0.0882 -1.1841  1.1194
 7087TIP3   OH242895   4.227   1.394   2.506  0.9125  0.4908  0.3765
 7087TIP3    H142896   4.174   1.329   2.460  0.9282  0.7059  0.0494
 7087TIP3    H242897   4.288   1.342   2.559  0.9089  0.2380  0.1353
 7088TIP3   OH242898   1.964   3.674   8.194  0.6809  0.1199 -0.0705
 7088TIP3    H142899   2.030   3.743   8.193  1.0387 -0.1880  1.2617
 7088TIP3    H242900   1.960   3.645   8.284 -1.9264  0.7291  0.1153
 7089TIP3   OH242901   4.442   5.074   0.394 -0.2178  0.0571 -0.2747
 7089TIP3    H142902   4.505   5.002   0.383  0.4307  0.6730 -0.6786
 7089TIP3    H242903   4.388   5.070   0.315  0.3109  0.4861 -0.6615
 7090TIP3   OH242904   4.902   5.025   0.302 -0.1925  0.2315  0.1933
 7090TIP3    H142905   4.851   4.952   0.267 -1.1431  0.6267  0.7211
 7090TIP3    H242906   4.935   5.070   0.224 -0.8552  0.1074 -0.1657
 7091TIP3   OH242907   6.581   2.098   2.276 -0.4392  0.1392 -0.2321
 7091TIP3    H142908   6.573   2.183   2.320  1.3171  0.1331  0.1903
 7091TIP3    H242909   6.669   2.067   2.300 -0.8347 -1.5528 -0.8149
 7092TIP3   OH242910   2.822   2.330   1.163  0.0698  0.1252 -0.1339
 7092TIP3    H142911   2.754   2.358   1.224  0.1952 -0.7016  0.4023
 7092TIP3    H242912   2.785   2.347   1.077 -0.9819 -0.6502  0.1405
 7093TIP3   OH242913   0.579   1.622   8.655  0.4396  0.0820 -0.2383
 7093TIP3    H142914   0.596   1.541   8.607  0.4546  0.3109 -0.6239
 7093TIP3    H242915   0.589   1.691   8.589  0.8756  0.4310  0.1910
 7094TIP3   OH242916   0.771   3.728   2.305 -0.2548  0.6662 -0.0118
 7094TIP3    H142917   0.706   3.730   2.235  0.9668  3.0496 -1.2108
 7094TIP3    H242918   0.726   3.689   2.379 -2.5140  0.7134 -1.2873
 7095TIP3   OH242919   1.032   3.963   7.800  0.7072  0.0588 -0.1053
 7095TIP3    H142920   1.012   3.920   7.717 -0.5281  2.6928 -1.2885
 7095TIP3    H242921   1.127   3.955   7.808  0.6119 -2.1386 -0.6165
 7096TIP3   OH242922   0.260   4.815   1.405  0.2437  0.3288 -0.2478
 7096TIP3    H142923   0.199   4.758   1.451  0.8625 -0.3163 -0.2097
 7096TIP3    H242924   0.259   4.897   1.454 -1.6957  0.8687 -1.0837
 7097TIP3   OH242925   1.098   3.239   7.752 -0.1900  0.5026  0.5145
 7097TIP3    H142926   1.055   3.165   7.792  0.0680  0.5542  0.8925
 7097TIP3    H242927   1.157   3.201   7.687  0.4680  0.3335  1.2055
 7098TIP3   OH242928   0.368   4.475   1.814  0.2932  0.6570 -0.1143
 7098TIP3    H142929   0.351   4.556   1.861 -0.6717  0.6265 -0.3809
 7098TIP3    H242930   0.458   4.451   1.838  0.1513  1.1339  0.9446
 7099TIP3   OH242931   2.507   0.536   2.572  0.0968 -0.5201 -0.3996
 7099TIP3    H142932   2.539   0.448   2.554 -0.1337 -1.0040  1.3512
 7099TIP3    H242933   2.501   0.541   2.668  1.4403  1.8796 -0.3484
 7100TIP3   OH242934   4.753   4.145   1.772  0.2748 -0.1442  0.1311
 7100TIP3    H142935   4.721   4.106   1.853 -1.4575  1.0909  0.0963
 7100TIP3    H242936   4.809   4.217   1.801 -1.5924  1.3040  0.3192
 7101TIP3   OH242937   6.209   0.465   7.354  0.0921  0.3119 -0.3685
 7101TIP3    H142938   6.217   0.424   7.268  2.2442 -0.9763  0.3820
 7101TIP3    H242939   6.293   0.510   7.367 -0.3687  0.8641  0.8709
 7102TIP3   OH242940   4.644   2.825   1.389  0.7584  0.0601  0.0334
 7102TIP3    H142941   4.691   2.838   1.307  2.4496  0.2111  0.9710
 7102TIP3    H242942   4.634   2.913   1.425  0.3346 -0.0351  0.1495
 7103TIP3   OH242943   3.278   3.537   8.528  0.3143  0.2449  0.0451
 7103TIP3    H142944   3.291   3.631   8.516 -1.9118  0.5613 -0.2890
 7103TIP3    H242945   3.325   3.516   8.608  0.1109  1.8441  0.6141
 7104TIP3   OH242946   6.437   3.391   2.528  0.1929  0.6752  0.0078
 7104TIP3    H142947   6.530   3.377   2.511 -0.1964  0.7062 -2.6056
 7104TIP3    H242948   6.397   3.305   2.515 -0.2893  0.9087 -0.0818
 7105TIP3   OH242949   5.055   6.077   8.251 -1.0617 -0.3965  0.2945
 7105TIP3    H142950   4.986   6.112   8.194 -1.2485  0.0567  0.8002
 7105TIP3    H242951   5.027   5.987   8.270 -1.5961 -0.1579  0.6333
 7106TIP3   OH242952   1.660   3.075   2.386  0.2597 -0.3705  0.7961
 7106TIP3    H142953   1.712   3.024   2.449 -0.3871 -0.0862  1.5769
 7106TIP3    H242954   1.601   3.127   2.441  1.3640  1.7436  0.0802
 7107TIP3   OH242955   3.455   3.858   1.276 -0.2707  0.2251 -0.2776
 7107TIP3    H142956   3.494   3.909   1.205 -0.4261  0.0907 -0.4575
 7107TIP3    H242957   3.526   3.848   1.340 -0.5847  1.7781  0.3635
 7108TIP3   OH242958   4.324   1.883   0.064 -0.6071 -0.5401 -0.0488
 7108TIP3    H142959   4.305   1.956   0.006 -2.7225 -1.1217 -0.1774
 7108TIP3    H242960   4.385   1.918   0.128 -0.2948  0.8560 -1.0812
 7109TIP3   OH242961   4.717   2.105   7.953 -0.1262 -0.0999  0.3479
 7109TIP3    H142962   4.772   2.035   7.986 -1.2395 -1.3685 -0.4136
 7109TIP3    H242963   4.776   2.159   7.899  1.8054  2.1422  4.2600
 7110TIP3   OH242964   4.420   5.449   8.345 -0.3093 -0.0994  0.5491
 7110TIP3    H142965   4.377   5.425   8.427 -0.6930  0.0604  0.3932
 7110TIP3    H242966   4.350   5.480   8.289 -0.1779 -1.0156 -0.1512
 7111TIP3   OH242967   5.976   2.013   9.087 -0.0630  0.3702  0.0181
 7111TIP3    H142968   5.954   1.943   9.148  0.6073 -0.3246 -0.5071
 7111TIP3    H242969   5.911   2.005   9.017  0.8472 -0.6563 -0.7416
 7112TIP3   OH242970   1.758   3.697   0.798 -0.6457  0.1769 -0.0358
 7112TIP3    H142971   1.843   3.664   0.827  0.3798  2.0755 -0.7075
 7112TIP3    H242972   1.698   3.623   0.811  0.9259 -0.9589  1.1948
 7113TIP3   OH242973   1.526   2.572   8.277  0.2203 -0.6124  0.0732
 7113TIP3    H142974   1.589   2.505   8.301  1.5686  0.8760  0.8282
 7113TIP3    H242975   1.575   2.633   8.221 -0.6534  0.3287  0.2906
 7114TIP3   OH242976   2.490   5.792   0.844  0.2113  0.0344 -0.1147
 7114TIP3    H142977   2.522   5.778   0.755  0.1326  1.7017 -0.4386
 7114TIP3    H242978   2.415   5.851   0.833 -0.4418 -0.5644  0.9806
 7115TIP3   OH242979   2.973   1.697   1.169 -0.3739 -0.0908 -0.0844
 7115TIP3    H142980   2.935   1.782   1.146  1.4986  0.9788  0.5238
 7115TIP3    H242981   2.934   1.636   1.107 -1.2773  1.3230 -0.9837
 7116TIP3   OH242982   5.435   5.258   1.388 -0.0488  0.2477 -0.1213
 7116TIP3    H142983   5.465   5.202   1.316  2.4726  1.5473 -0.2233
 7116TIP3    H242984   5.365   5.311   1.349 -1.2423 -1.5189 -0.5180
 7117TIP3   OH242985   4.773   1.157   9.115 -0.2413 -0.7522 -0.1411
 7117TIP3    H142986   4.859   1.127   9.144 -0.5459  0.4356  2.2207
 7117TIP3    H242987   4.767   1.247   9.146 -1.0618  0.3584 -3.1964
 7118TIP3   OH242988   3.452   0.901   9.133 -0.6241 -0.3912 -0.3810
 7118TIP3    H142989   3.482   0.862   9.216 -1.3070 -2.0364 -0.8692
 7118TIP3    H242990   3.417   0.986   9.158  1.3969  0.1942  0.6655
 7119TIP3   OH242991   5.932   2.637   1.250 -0.3286  0.4493  0.1361
 7119TIP3    H142992   5.856   2.648   1.192 -0.5899 -0.0594  0.3713
 7119TIP3    H242993   5.962   2.726   1.268 -1.9517  0.7720  1.4743
 7120TIP3   OH242994   0.713   0.809   2.901  0.4161  0.0996 -0.1535
 7120TIP3    H142995   0.624   0.810   2.865 -0.1755 -2.9690  0.9053
 7120TIP3    H242996   0.701   0.824   2.994  0.5373 -3.1237  0.5022
 7121TIP3   OH242997   1.810   4.020   0.204 -0.2956  0.4833  0.2923
 7121TIP3    H142998   1.768   4.011   0.119  0.0473  0.8494  0.0830
 7121TIP3    H242999   1.897   4.055   0.185 -0.3429  0.9061  0.8178
 7122TIP3   OH243000   5.771   4.816   1.022 -0.6142  0.1888  0.0888
 7122TIP3    H143001   5.738   4.905   1.027  0.3464  0.6182 -0.8063
 7122TIP3    H243002   5.862   4.825   0.996 -0.2002 -1.0244  0.9879
 7123TIP3   OH243003   3.798   2.805   3.184 -0.2325 -0.1610  0.0715
 7123TIP3    H143004   3.845   2.769   3.260  2.4144  0.9954 -0.8940
 7123TIP3    H243005   3.749   2.730   3.149  1.2496 -1.5981  0.9182
 7124TIP3   OH243006   6.499   2.944   7.190  0.3347  0.4374  0.0069
 7124TIP3    H143007   6.477   2.965   7.100  0.3505  1.7247  0.2892
 7124TIP3    H243008   6.419   2.963   7.240 -0.4048 -2.2481  0.0470
 7125TIP3   OH243009   0.517   0.942   9.198 -0.2918 -0.4676  0.4242
 7125TIP3    H143010   0.463   0.863   9.201 -0.9939 -0.0169 -0.0281
 7125TIP3    H243011   0.605   0.910   9.176 -0.6136 -1.1027  0.0088
 7126TIP3   OH243012   2.992   4.997   6.919  0.3712  0.1866  0.4540
 7126TIP3    H143013   2.921   5.057   6.941  0.8811  0.7093  0.7370
 7126TIP3    H243014   3.068   5.034   6.964  1.2709  0.7851 -1.4655
 7127TIP3   OH243015   3.342   2.371   0.311 -0.2728  0.2112 -0.1910
 7127TIP3    H143016   3.357   2.304   0.244 -0.5728 -0.0765  0.0293
 7127TIP3    H243017   3.368   2.328   0.393  0.6249  0.7431 -0.1819
 7128TIP3   OH243018   1.642   2.454   7.778  0.3570 -0.5261 -0.0611
 7128TIP3    H143019   1.709   2.393   7.808 -0.8666 -0.4174  3.2657
 7128TIP3    H243020   1.560   2.405   7.784 -0.1586  0.0041 -1.9988
 7129TIP3   OH243021   2.073   1.607   2.882  0.0009  0.3651 -0.0282
 7129TIP3    H143022   2.121   1.684   2.913  0.0049 -0.4226  2.0565
 7129TIP3    H243023   2.131   1.534   2.899 -0.6958 -0.2924 -0.3957
 7130TIP3   OH243024   4.034   2.930   2.687 -0.1477  0.0432 -0.1206
 7130TIP3    H143025   3.939   2.922   2.674 -0.3040  3.1490 -1.7703
 7130TIP3    H243026   4.043   2.993   2.758  0.7232 -0.5973  0.3539
 7131TIP3   OH243027   4.843   2.284   7.763 -0.1351  0.2981  0.9967
 7131TIP3    H143028   4.932   2.288   7.727 -0.5986 -0.8819 -0.3686
 7131TIP3    H243029   4.794   2.348   7.711 -0.0853  1.0334  1.8268
 7132TIP3   OH243030   3.887   6.644   8.762 -0.0495  0.2575  0.0504
 7132TIP3    H143031   3.831   6.566   8.763 -1.6302  1.3092 -1.1157
 7132TIP3    H243032   3.970   6.615   8.799 -0.4488 -2.1029 -0.7443
 7133TIP3   OH243033   0.196   1.837   2.051 -0.5215 -0.7684 -0.1089
 7133TIP3    H143034   0.191   1.758   1.998  0.0693  0.2386 -1.7385
 7133TIP3    H243035   0.115   1.885   2.030  1.5110  1.6124 -3.5412
 7134TIP3   OH243036   6.072   1.555   1.028 -0.1216 -0.4452 -0.0968
 7134TIP3    H143037   6.142   1.613   1.059 -0.0874  0.4629 -1.7466
 7134TIP3    H243038   6.101   1.467   1.053  1.0078  0.0378  0.3522
 7135TIP3   OH243039   2.289   2.196   1.847 -0.0341  0.4518 -0.2682
 7135TIP3    H143040   2.201   2.209   1.883  0.5324  1.9037  0.6647
 7135TIP3    H243041   2.295   2.262   1.777 -0.0967 -0.4597 -1.1647
 7136TIP3   OH243042   4.782   3.187   6.819 -0.5273  0.1871  0.8171
 7136TIP3    H143043   4.866   3.141   6.808 -0.1281  1.0945 -0.1010
 7136TIP3    H243044   4.797   3.247   6.892  0.0498  1.2398 -0.1383
 7137TIP3   OH243045   0.703   0.334   2.364 -0.1938 -0.2678 -0.3603
 7137TIP3    H143046   0.701   0.413   2.311 -2.0215 -0.2415 -0.3307
 7137TIP3    H243047   0.670   0.361   2.450  1.4082 -0.5945  0.3864
 7138TIP3   OH243048   0.960   4.312   2.611  0.1259  0.0066 -0.0302
 7138TIP3    H143049   0.892   4.373   2.581 -1.5019 -0.8506  1.7059
 7138TIP3    H243050   1.042   4.360   2.599 -0.7485  1.0961 -2.1552
 7139TIP3   OH243051   4.330   2.883   3.015  0.0830 -0.5628  0.3219
 7139TIP3    H143052   4.270   2.953   3.040 -0.6022 -0.2991 -1.8160
 7139TIP3    H243053   4.315   2.813   3.079 -2.6393 -0.5647 -0.2108
 7140TIP3   OH243054   5.420   3.167   6.768 -1.0139  0.5089 -0.5158
 7140TIP3    H143055   5.346   3.126   6.723 -1.3031 -1.8093  1.8520
 7140TIP3    H243056   5.381   3.209   6.844 -0.0726  0.6813 -0.1169
 7141TIP3   OH243057   1.262   0.584   1.580  0.0488 -0.0472  0.3601
 7141TIP3    H143058   1.233   0.495   1.559  0.7816  0.3723 -2.8282
 7141TIP3    H243059   1.191   0.640   1.548  0.9810  0.6254 -0.5868
 7142TIP3   OH243060   4.151   4.590   8.274 -0.0057  0.0112 -0.5173
 7142TIP3    H143061   4.199   4.531   8.216  2.4181  0.3887  0.9391
 7142TIP3    H243062   4.068   4.606   8.230 -0.7802 -4.3434 -1.0378
 7143TIP3   OH243063   3.935   1.182   0.049  0.5073  0.1662  0.1532
 7143TIP3    H143064   3.975   1.262   0.083  1.0754  0.6363 -1.4996
 7143TIP3    H243065   4.008   1.121   0.037  0.3604  0.0790 -0.3444
 7144TIP3   OH243066   3.009   4.212   8.048  0.1710  0.8028 -0.4263
 7144TIP3    H143067   2.981   4.152   7.980  1.9417  0.2808 -0.7621
 7144TIP3    H243068   2.959   4.185   8.126  0.6910 -0.9394 -0.6423
 7145TIP3   OH243069   4.565   4.661   1.059  0.0409  0.0245 -0.4797
 7145TIP3    H143070   4.511   4.740   1.061 -0.6535 -0.4483  0.9909
 7145TIP3    H243071   4.624   4.670   1.133  0.7415 -0.3038 -0.9920
 7146TIP3   OH243072   4.337   3.873   1.079 -0.1766 -0.1694 -0.4511
 7146TIP3    H143073   4.289   3.925   1.143  0.4823  1.3843 -1.1845
 7146TIP3    H243074   4.297   3.786   1.085 -0.3167  0.0023  1.8353
 7147LIG     O143075   3.024   1.392   7.272 -0.4566  0.1652 -0.3985
 7147LIG     O243076   2.866   1.604   7.305 -0.4242 -0.2917 -0.0940
 7147LIG     O343077   3.055   1.440   7.572 -0.2739  0.1700 -0.2833
 7147LIG     O443078   2.643   1.571   7.269  0.1496 -0.1871 -0.1675
 7147LIG     O543079   2.649   1.482   7.566 -0.0189 -0.5971 -0.0583
 7147LIG     O643080   2.799   1.804   7.570  0.0994  0.3171  0.5812
 7147LIG     O743081   2.521   1.878   7.447  0.1840 -0.0535  0.4863
 7147LIG     O843082   2.359   1.744   7.200 -0.1746  0.0643 -0.0835
 7147LIG     O943083   2.551   1.799   7.099  0.3241  0.0677  0.0889
 7147LIG      N43084   3.385   1.581   6.974  0.1080 -0.1606  0.3105
 7147LIG     C143085   3.145   1.516   7.115 -0.3405  0.3859 -1.3093
 7147LIG     C243086   3.148   1.651   7.038 -0.2564 -0.0715  0.1956
 7147LIG     C343087   3.008   1.457   7.147  0.0977  0.1845 -0.1762
 7147LIG     C443088   3.299   1.688   7.040 -0.3059  0.0591  0.1709
 7147LIG     C543089   3.242   1.406   7.071  0.4020 -0.3689 -0.1341
 7147LIG     C643090   3.209   1.535   7.249  0.3139 -1.5652  0.1987
 7147LIG     C743091   3.352   1.727   7.179 -0.2385  0.3791  0.7364
 7147LIG     C843092   3.382   1.458   7.047  0.5980  0.0757  0.3591
 7147LIG     C943093   2.902   1.563   7.171  0.6603 -0.1236 -0.1223
 7147LIG    C1043094   3.297   1.636   7.285  0.0655  0.1332  0.0026
 7147LIG    C1143095   3.051   1.755   7.084  0.1836 -0.1259  0.6032
 7147LIG    C1243096   3.129   1.463   7.338 -0.1027 -0.2175  0.0970
 7147LIG    C1343097   2.938   1.710   7.136 -0.4015 -0.4709  0.3151
 7147LIG    C1443098   3.369   1.579   6.833  0.3139 -0.3904 -0.3517
 7147LIG    C1543099   3.305   1.664   7.419  0.3963  0.0298 -0.5218
 7147LIG    C1643100   3.147   1.490   7.474 -0.3189  0.2921  0.2263
 7147LIG    C1743101   3.234   1.591   7.520 -0.1364  0.1498  0.1454
 7147LIG    C1843102   2.750   1.537   7.356 -0.0890  0.5756 -0.0995
 7147LIG    C1943103   2.735   1.577   7.500  0.3330  0.1181  0.4145
 7147LIG    C2043104   2.688   1.719   7.524 -0.0244 -0.0464 -0.4209
 7147LIG    C2143105   2.623   1.782   7.407  0.2864 -0.2859 -0.1095
 7147LIG    C2243106   2.559   1.676   7.318 -0.3092  0.8534  0.1494
 7147LIG    C2343107   2.493   1.750   7.197 -0.5010 -0.5109  0.0735
 7147LIG     H143108   3.125   1.634   6.931 -0.7115 -1.6486  0.5072
 7147LIG     H243109   2.986   1.378   7.071  0.6525  0.6736 -0.8634
 7147LIG     H343110   3.315   1.781   6.981  2.2103 -1.3316 -1.4743
 7147LIG     H443111   3.198   1.356   6.982 -2.7949  0.2236  0.9780
 7147LIG     H543112   3.249   1.324   7.146 -0.4093  0.1308  0.5008
 7147LIG     H643113   3.311   1.830   7.183 -1.3537  0.0856 -1.4871
 7147LIG     H743114   3.463   1.730   7.177  0.0239 -2.8410  3.0344
 7147LIG     H843115   3.433   1.465   7.145 -1.5887 -0.0432  1.5688
 7147LIG     H943116   3.435   1.381   6.986 -0.6006 -0.0257 -0.6077
 7147LIG    H1043117   2.812   1.529   7.116  0.6376 -1.2626  0.5994
 7147LIG    H1143118   3.068   1.857   7.047 -1.3876  0.1648  0.6477
 7147LIG    H1243119   2.856   1.783   7.147 -0.7178 -1.0057  1.8123
 7147LIG    H1343120   3.449   1.524   6.779 -0.3263  0.2251 -2.0075
 7147LIG    H1443121   3.361   1.684   6.795  1.8399 -0.3237 -0.5653
 7147LIG    H1543122   3.272   1.536   6.800 -0.0061 -0.9630  1.2541
 7147LIG    H1643123   3.379   1.734   7.456  2.6552 -2.3902 -0.1968
 7147LIG    H1743124   3.242   1.619   7.624 -1.7027 -1.7608  0.8543
 7147LIG    H1843125   2.775   1.428   7.350  3.0076  1.2326 -1.2612
 7147LIG    H1943126   2.830   1.557   7.555  1.3075  2.2841 -0.3642
 7147LIG    H2043127   2.617   1.715   7.610 -0.7737 -2.0114 -1.0739
 7147LIG    H2143128   3.065   1.499   7.647  1.8165  0.5314 -0.7981
 7147LIG    H2243129   2.695   1.835   7.341 -0.3803 -1.5866 -1.9871
 7147LIG    H2343130   2.482   1.629   7.383  0.2997  1.4508  1.3470
 7147LIG    H2443131   2.661   1.499   7.660  1.5309 -1.2326 -0.1001
 7147LIG    H2543132   2.776   1.836   7.657  1.1006  0.3003  0.8677
 7147LIG    H2643133   2.552   1.968   7.452  1.2500 -0.4384  1.2059
 7147LIG    H2743134   2.318   1.766   7.117 -0.2437  2.3341  0.4823
   6.69058   6.69058   9.21100
